/*--------------------------------*- C++ -*----------------------------------*\
| =========                 |                                                 |
| \\      /  F ield         | OpenFOAM: The Open Source CFD Toolbox           |
|  \\    /   O peration     | Version:  2312                                  |
|   \\  /    A nd           | Website:  www.openfoam.com                      |
|    \\/     M anipulation  |                                                 |
\*---------------------------------------------------------------------------*/
FoamFile
{
    version     2.0;
    format      ascii;
    arch        "LSB;label=32;scalar=64";
    class       volScalarField;
    location    "0.07";
    object      alphat;
}
// * * * * * * * * * * * * * * * * * * * * * * * * * * * * * * * * * * * * * //

dimensions      [1 -1 -1 0 0 0 0];

internalField   nonuniform List<scalar> 
3250
(
0.037335425
0.037615052
0.037902555
0.038197712
0.03850049
0.038810895
0.039128933
0.039454601
0.039787881
0.040128739
0.040477128
0.040832989
0.04119625
0.041566827
0.041944621
0.04232952
0.042721395
0.043120107
0.043525526
0.043937611
0.044356651
0.044783996
0.04522401
0.045688618
0.046206393
0.046886839
0.047624353
0.048943757
0.049866053
0.05095098
0.051878617
0.052794523
0.053637814
0.054397948
0.055109333
0.055787297
0.056444855
0.057086289
0.057715764
0.058335865
0.058948451
0.059553875
0.060150205
0.060741112
0.037069122
0.037351186
0.037640996
0.03793841
0.038243413
0.038556019
0.038876234
0.039204054
0.03953946
0.039882415
0.040232869
0.040590757
0.040955997
0.041328492
0.041708127
0.042094759
0.04248822
0.042888305
0.043294771
0.043707357
0.044125889
0.044550571
0.044982806
0.045427042
0.045893927
0.046401224
0.046933591
0.047539757
0.048167456
0.048857853
0.049562663
0.050287346
0.051009271
0.051714568
0.052406894
0.053089131
0.053764139
0.054433703
0.055098678
0.055758962
0.056414697
0.057065778
0.057711695
0.058351881
0.036549647
0.036835969
0.037129955
0.03743152
0.037740669
0.038057419
0.03838178
0.03871375
0.039053311
0.039400428
0.039755055
0.040117128
0.040486568
0.040863283
0.041247159
0.041638064
0.042035841
0.042440304
0.04285124
0.043268419
0.043691628
0.04412077
0.044556096
0.044998634
0.045450756
0.04591631
0.046397849
0.046898555
0.047415947
0.047956347
0.048515528
0.049091217
0.049678058
0.050272028
0.050872197
0.05147829
0.052090337
0.052707903
0.053330188
0.053956137
0.054584744
0.055215037
0.055845967
0.056475985
0.035899289
0.036189052
0.03648647
0.036791507
0.03710418
0.037424512
0.037752514
0.038088186
0.038431512
0.038782464
0.039140998
0.039507054
0.039880563
0.040261436
0.04064957
0.041044845
0.041447121
0.041856237
0.042272017
0.042694267
0.043122801
0.043557474
0.043998257
0.044445351
0.044899329
0.045361225
0.045832262
0.046313661
0.046805744
0.047309032
0.04782306
0.048346993
0.048879724
0.049420107
0.049967582
0.050521989
0.051083298
0.051651356
0.052225857
0.052806358
0.053392346
0.053983267
0.054578458
0.055176591
0.035186994
0.035478745
0.035778184
0.036085317
0.036400176
0.036722786
0.037053164
0.037391312
0.037737222
0.038090869
0.038452218
0.038821218
0.039197807
0.039581908
0.03997343
0.040372267
0.040778298
0.041191386
0.041611383
0.042038129
0.042471468
0.04291126
0.043357413
0.043809928
0.044268939
0.044734752
0.045207805
0.04568856
0.046177306
0.046674105
0.047178652
0.047690425
0.04820879
0.048733148
0.049263106
0.049798484
0.050339214
0.050885243
0.051436486
0.051992805
0.052554019
0.053119919
0.053690241
0.054264268
0.034459382
0.034751605
0.03505158
0.035359346
0.035674942
0.035998398
0.036329737
0.036668968
0.037016088
0.037371082
0.037733923
0.038104572
0.038482975
0.038869069
0.039262776
0.039664005
0.040072653
0.040488603
0.04091173
0.041341899
0.041778978
0.04222284
0.042673381
0.04313054
0.043594314
0.044064771
0.044542036
0.045026249
0.045517484
0.046015683
0.046520609
0.047031883
0.047549038
0.048071605
0.048599188
0.049131495
0.049668319
0.050209502
0.0507549
0.051304374
0.051857772
0.052414941
0.052975727
0.053539786
0.033746197
0.034037519
0.034336683
0.034643743
0.034958745
0.035281728
0.035612717
0.035951729
0.03629877
0.036653834
0.037016903
0.037387949
0.037766931
0.038153797
0.038548482
0.03895091
0.039360993
0.039778634
0.040203723
0.040636147
0.041075789
0.041522535
0.04197628
0.04243694
0.042904455
0.043378795
0.043859954
0.044347921
0.044842654
0.045344036
0.045851858
0.046365818
0.046885547
0.047410653
0.047940756
0.048475522
0.049014659
0.049557915
0.050105061
0.050655885
0.051210176
0.051767737
0.052328385
0.052891899
0.033064909
0.033354225
0.033651482
0.033956741
0.034270056
0.034591469
0.034921016
0.03525872
0.035604596
0.035958647
0.036320868
0.03669124
0.037069734
0.037456309
0.037850914
0.038253487
0.038663953
0.039082229
0.039508223
0.039941835
0.040382961
0.040831497
0.041287341
0.041750396
0.042220579
0.042697813
0.043182028
0.043673145
0.044171062
0.044675634
0.045186656
0.04570387
0.046226964
0.046755599
0.047289427
0.047828111
0.048371333
0.048918796
0.049470219
0.050025335
0.050583884
0.051145619
0.051710306
0.052277741
0.032423951
0.032710522
0.033005117
0.033307808
0.033618656
0.033937713
0.034265021
0.034600614
0.034944517
0.035296743
0.035657297
0.036026172
0.036403351
0.036788805
0.037182494
0.03758437
0.037994371
0.038412427
0.038838458
0.039272379
0.039714096
0.040163511
0.040620526
0.041085041
0.04155696
0.042036182
0.042522608
0.043016123
0.043516597
0.044023866
0.044537733
0.045057956
0.045584259
0.046116338
0.046653874
0.047196545
0.04774403
0.048296018
0.048852208
0.049412304
0.049976018
0.05054307
0.051113192
0.051686161
0.03128283
0.031550252
0.031825623
0.032109039
0.032400567
0.032700272
0.033008215
0.033324457
0.033649052
0.033982044
0.034323468
0.03467335
0.035031704
0.035398536
0.035773841
0.036157601
0.03654979
0.036950371
0.037359294
0.037776503
0.03820193
0.038635498
0.039077125
0.039526721
0.039984191
0.040449435
0.04092235
0.041402826
0.041890747
0.042385983
0.042888388
0.043397791
0.043913995
0.044436771
0.044965864
0.045500992
0.04604186
0.04658816
0.04713958
0.04769581
0.048256542
0.04882147
0.049390293
0.049962714
0.050538448
0.051117248
0.030732239
0.030996466
0.031268637
0.031548824
0.031837144
0.032133703
0.032438582
0.032751838
0.033073526
0.033403704
0.033742416
0.0340897
0.034445584
0.034810084
0.035183206
0.035564946
0.035955289
0.036354211
0.036761674
0.037177633
0.037602031
0.038034802
0.038475873
0.038925161
0.039382577
0.039848022
0.040321392
0.040802573
0.041291441
0.04178786
0.042291677
0.042802717
0.043320785
0.043845662
0.044377103
0.044914846
0.045458609
0.046008099
0.046563015
0.047123052
0.047687903
0.048257262
0.048830822
0.049408281
0.049989343
0.050573746
0.030219763
0.030480874
0.030749939
0.031027064
0.031312338
0.031605843
0.031907677
0.032217948
0.032536733
0.032864084
0.033200055
0.033544692
0.033898036
0.034260114
0.034630946
0.035010537
0.035398887
0.035795979
0.036201791
0.036616287
0.037039422
0.037471139
0.037911374
0.038360051
0.038817087
0.039282387
0.039755848
0.040237357
0.040726788
0.041224
0.04172884
0.042241133
0.042760686
0.043287287
0.043820702
0.044360678
0.044906946
0.045459226
0.046017226
0.046580647
0.047149187
0.047722543
0.048300408
0.04888248
0.049468458
0.050058068
0.029742104
0.030000302
0.030266449
0.030540654
0.030823024
0.031113665
0.03141267
0.031720114
0.032036096
0.032360718
0.03269404
0.033036108
0.033386973
0.033746675
0.034115242
0.034492694
0.034879039
0.035274273
0.035678384
0.036091347
0.036513126
0.036943676
0.037382939
0.037830848
0.038287325
0.038752281
0.039225616
0.039707218
0.040196962
0.04069471
0.041200307
0.041713581
0.042234344
0.042762388
0.043297486
0.043839395
0.044387857
0.044942599
0.045503339
0.046069785
0.046641641
0.047218607
0.047800379
0.048386655
0.048977135
0.049571539
0.029296307
0.029551801
0.029815235
0.030086725
0.030366386
0.03065433
0.030950663
0.031255487
0.031568891
0.031890944
0.032221748
0.032561386
0.032909903
0.033267344
0.033633751
0.034009151
0.034393563
0.034786996
0.035189446
0.035600897
0.036021324
0.03645069
0.036888946
0.037336032
0.037791876
0.038256395
0.038729492
0.03921106
0.039700976
0.040199104
0.040705292
0.041219371
0.041741156
0.042270445
0.042807019
0.04335064
0.04390106
0.044458012
0.045021223
0.045590408
0.046165276
0.046745529
0.047330869
0.047920997
0.048515612
0.049114431
0.028879914
0.029132889
0.029393796
0.029662757
0.029939895
0.030225329
0.030519172
0.030821533
0.031132512
0.031452206
0.03178069
0.032118042
0.032464356
0.032819681
0.033184059
0.033557531
0.033940123
0.034331853
0.034732727
0.035142738
0.03556187
0.035990094
0.036427368
0.036873639
0.037328842
0.0377929
0.03826572
0.038747199
0.039237218
0.039735643
0.040242327
0.040757104
0.041279793
0.041810198
0.042348104
0.042893281
0.043445487
0.044004462
0.04456994
0.04514164
0.045719277
0.046302559
0.04689119
0.047484873
0.048083312
0.048686218
0.02849089
0.028741498
0.029000035
0.029266626
0.029541402
0.029824486
0.030116001
0.030416061
0.030724776
0.031042247
0.031368569
0.031703825
0.032048077
0.03240142
0.032763907
0.033135579
0.033516472
0.033906612
0.034306012
0.034714675
0.035132592
0.035559741
0.035996089
0.036441588
0.036896179
0.03735979
0.037832335
0.038313714
0.038803811
0.039302498
0.039809629
0.040325044
0.040848566
0.041380003
0.041919145
0.042465768
0.043019635
0.043580494
0.044148081
0.044722124
0.04530234
0.045888442
0.046480137
0.047077131
0.04767913
0.048285846
0.028127499
0.02837587
0.028632165
0.028896516
0.029169061
0.029449932
0.029739255
0.030037153
0.030343741
0.030659128
0.030983414
0.031316692
0.031659046
0.03201054
0.032371255
0.032741248
0.033120557
0.033509215
0.033907243
0.034314651
0.034731437
0.035157587
0.035593073
0.036037854
0.036491877
0.036955075
0.037427367
0.037908656
0.038398831
0.038897768
0.039405326
0.039921347
0.040445658
0.040978072
0.041518383
0.042066373
0.042621809
0.043184444
0.043754019
0.044330266
0.044912907
0.045501658
0.04609623
0.04669633
0.047301667
0.047911954
0.02778821
0.028034457
0.028288613
0.02855083
0.028821255
0.029100023
0.029387269
0.02968312
0.029987698
0.030301117
0.030623485
0.0309549
0.031295454
0.031645229
0.032004288
0.032372702
0.032750529
0.033137802
0.03353455
0.033940788
0.034356522
0.034781743
0.035216431
0.03566055
0.036114051
0.036576874
0.037048939
0.037530158
0.038020422
0.038519609
0.039027584
0.039544191
0.040069263
0.040602614
0.041144045
0.04169334
0.042250271
0.042814595
0.043386058
0.043964395
0.044549332
0.045140587
0.045737874
0.046340904
0.046949387
0.047563038
0.027235311
0.027471688
0.027715852
0.027967945
0.028228117
0.028496512
0.028773274
0.02905854
0.029352443
0.02965511
0.029966662
0.030287211
0.030616863
0.030955715
0.031303855
0.031661361
0.032028295
0.032404723
0.032790695
0.033186241
0.033591385
0.034006135
0.034430491
0.034864437
0.035307942
0.035760964
0.036223445
0.036695313
0.037176479
0.037666842
0.038166283
0.038674668
0.039191848
0.039717656
0.040251912
0.04079442
0.041344967
0.041903329
0.042469267
0.04304253
0.043622855
0.044209974
0.044803606
0.045403467
0.04600927
0.046620728
0.047237556
0.026942169
0.027176535
0.027418703
0.027668814
0.02792702
0.02819347
0.028468309
0.028751681
0.029043723
0.029344567
0.029654338
0.029973156
0.030301131
0.030638366
0.030984954
0.031340981
0.031706519
0.032081629
0.032466368
0.032860782
0.033264893
0.033678719
0.034102263
0.034535514
0.034978447
0.035431025
0.035893193
0.036364884
0.036846014
0.037336484
0.037836178
0.038344967
0.038862703
0.039389225
0.039924355
0.040467898
0.041019648
0.041579381
0.042146862
0.042721842
0.043304064
0.043893259
0.04448915
0.045091455
0.045699888
0.046314163
0.046933999
0.026669036
0.026901484
0.027141737
0.027389943
0.02764626
0.027910841
0.028183836
0.028465392
0.028755651
0.029054751
0.029362821
0.029679986
0.030006361
0.030342054
0.030687165
0.031041783
0.031405988
0.031779851
0.032163422
0.032556759
0.032959893
0.033372844
0.033795621
0.034228217
0.034670613
0.035122775
0.035584653
0.036056183
0.036537286
0.037027865
0.037527809
0.03803699
0.038555266
0.039082476
0.039618445
0.040162983
0.040715884
0.041276929
0.041845884
0.042422504
0.043006533
0.043597703
0.044195742
0.044800367
0.045411294
0.04602824
0.046650925
0.026414718
0.026645335
0.026883744
0.027130117
0.027384617
0.027647402
0.027918626
0.028198441
0.028486992
0.028784422
0.029090864
0.029406447
0.029731292
0.030065513
0.030409213
0.030762488
0.031125422
0.03149809
0.031880557
0.032272866
0.03267507
0.03308719
0.033509237
0.033941211
0.034383097
0.034834865
0.03529647
0.03576785
0.03624893
0.036739618
0.037239803
0.037749363
0.038268156
0.038796025
0.039332798
0.039878287
0.040432288
0.040994584
0.041564945
0.042143126
0.042728873
0.043321922
0.043921999
0.044528826
0.045142118
0.045761594
0.046386974
0.025956975
0.026178129
0.026406939
0.026643566
0.026888174
0.027140927
0.027401988
0.027671513
0.027949657
0.028236572
0.028532401
0.028837285
0.029151355
0.029474738
0.02980755
0.030149902
0.030501893
0.030863613
0.031235141
0.031616547
0.032007886
0.032409198
0.032820523
0.033241874
0.033673255
0.034114655
0.034566047
0.03502739
0.035498627
0.035979685
0.036470475
0.036970891
0.037480811
0.038000096
0.038528593
0.039066132
0.039612525
0.040167573
0.040731059
0.041302755
0.041882419
0.042469798
0.043064629
0.043666639
0.044275551
0.044891083
0.045512952
0.046140882
0.025738693
0.025958098
0.026185178
0.026420092
0.026663004
0.026914081
0.027173487
0.027441383
0.027717927
0.028003274
0.028297572
0.028600964
0.028913587
0.029235571
0.029567038
0.029908101
0.030258865
0.030619424
0.030989863
0.031370255
0.03176066
0.032161127
0.03257169
0.032992375
0.033423188
0.033864121
0.034315151
0.034776242
0.03524734
0.035728374
0.036219258
0.036719889
0.037230148
0.0377499
0.038278991
0.038817255
0.039364506
0.039920545
0.04048516
0.041058122
0.041639191
0.042228115
0.042824632
0.043428471
0.044039355
0.044657002
0.045281132
0.04591147
0.025535823
0.025753569
0.025978995
0.026212267
0.026453553
0.026703023
0.026960843
0.02722718
0.027502193
0.02778604
0.028078873
0.028380839
0.028692079
0.029012727
0.029342907
0.029682739
0.030032331
0.030391781
0.030761179
0.031140602
0.031530114
0.031929769
0.032339605
0.032759652
0.033189919
0.033630402
0.034081084
0.03454193
0.035012889
0.035493895
0.035984863
0.036485694
0.036996271
0.03751646
0.038046111
0.038585058
0.039133118
0.039690095
0.040255775
0.040829933
0.041412329
0.042002713
0.042600823
0.043206389
0.043819134
0.044438776
0.045065038
0.045697644
0.02534738
0.02556355
0.025787392
0.026019089
0.026258818
0.02650675
0.026763055
0.0270279
0.02730145
0.027583864
0.027875299
0.028175904
0.028485823
0.028805195
0.029134148
0.029472804
0.029821277
0.030179668
0.030548071
0.030926568
0.031315226
0.031714105
0.032123247
0.032542679
0.032972421
0.033412473
0.033862817
0.034323424
0.034794245
0.035275217
0.035766259
0.036267273
0.036778145
0.037298742
0.037828918
0.038368506
0.038917328
0.039475186
0.04004187
0.040617155
0.041200802
0.041792562
0.042392173
0.042999366
0.043613863
0.044235384
0.04486365
0.045498389
0.024965387
0.025172485
0.025387106
0.025609424
0.025839614
0.026077853
0.026324316
0.026579173
0.026842595
0.027114748
0.027395796
0.027685897
0.027985204
0.028293864
0.028612019
0.028939802
0.029277338
0.029624743
0.029982124
0.030349579
0.030727191
0.031115034
0.031513169
0.031921644
0.03234049
0.032769729
0.033209363
0.033659381
0.034119754
0.034590437
0.03507137
0.035562475
0.036063655
0.036574798
0.037095776
0.037626441
0.03816663
0.038716165
0.039274851
0.039842478
0.040418822
0.041003646
0.041596699
0.042197722
0.042806445
0.04342259
0.044045874
0.044676021
0.04531276
0.024804595
0.025010192
0.025223335
0.025444195
0.025672947
0.025909765
0.026154825
0.026408302
0.026670368
0.026941191
0.027220938
0.027509768
0.027807839
0.028115301
0.028432298
0.028758967
0.029095435
0.029441824
0.029798243
0.030164793
0.030541561
0.030928626
0.031326052
0.031733889
0.032152174
0.032580928
0.033020161
0.033469862
0.033930007
0.034400553
0.034881442
0.035372598
0.035873928
0.036385321
0.03690665
0.03743777
0.03797852
0.038528722
0.039088183
0.039656693
0.040234031
0.040819958
0.041414226
0.042016575
0.042626734
0.043244425
0.043869365
0.044501272
0.045139876
0.024655474
0.024859653
0.025071393
0.025290865
0.025518245
0.02575371
0.025997436
0.0262496
0.026510375
0.026779934
0.027058442
0.027346065
0.027642962
0.027949284
0.02826518
0.028590789
0.028926243
0.029271665
0.029627169
0.029992857
0.030368823
0.030755146
0.031151895
0.031559122
0.03197687
0.032405161
0.032844007
0.033293403
0.033753324
0.034223733
0.034704573
0.03519577
0.035697234
0.036208855
0.036730509
0.037262051
0.037803322
0.038354146
0.038914331
0.039483667
0.040061934
0.040648895
0.041244301
0.041847893
0.042459399
0.043078541
0.043705033
0.044338586
0.04497892
0.024517248
0.024720083
0.02493049
0.025148643
0.02537472
0.025608898
0.025851357
0.026102273
0.026361823
0.02663018
0.026907513
0.02719399
0.027489771
0.027795012
0.028109863
0.028434467
0.028768957
0.029113461
0.029468095
0.029832965
0.030208167
0.030593784
0.030989888
0.031396534
0.031813768
0.032241616
0.032680091
0.033129191
0.033588895
0.034059168
0.034539954
0.035031183
0.035532765
0.036044594
0.036566546
0.037098479
0.037640235
0.038191638
0.038752496
0.039322604
0.039901739
0.040489666
0.041086137
0.041690892
0.042303661
0.042924163
0.04355211
0.04418721
0.04482915
0.024389186
0.024590745
0.024799887
0.025016788
0.025241629
0.025474587
0.025715843
0.025965576
0.026223964
0.026491181
0.026767401
0.027052792
0.027347516
0.027651732
0.027965593
0.028289243
0.02862282
0.028966453
0.029320262
0.029684355
0.030058832
0.030443779
0.030839269
0.031245362
0.031662105
0.032089529
0.032527649
0.032976464
0.033435957
0.033906094
0.034386823
0.034878075
0.035379763
0.03589178
0.036414006
0.0369463
0.037488504
0.038040444
0.03860193
0.039172756
0.0397527
0.040341529
0.040938994
0.041544837
0.042158786
0.042780563
0.04340988
0.044046449
0.044689994
0.045340194
0.024270599
0.024470947
0.024678891
0.024894608
0.025118277
0.025350079
0.025590197
0.02583881
0.026096098
0.026362237
0.026637403
0.026921765
0.027215489
0.027518736
0.027831659
0.028154407
0.028487119
0.028829928
0.029182955
0.029546313
0.029920102
0.030304412
0.03069932
0.031104887
0.031521164
0.031948182
0.032385962
0.032834503
0.033293791
0.033763795
0.034244464
0.034735731
0.035237511
0.035749699
0.036272176
0.036804802
0.03734742
0.037899859
0.038461927
0.039033421
0.039614119
0.040203788
0.04080218
0.041409037
0.042024089
0.042647058
0.04327766
0.043915608
0.044560626
0.045212467
0.024160842
0.024360045
0.024566856
0.024781452
0.025004014
0.025234724
0.025473765
0.02572132
0.025977568
0.026242689
0.026516859
0.026800249
0.027093028
0.027395358
0.027707396
0.028029291
0.028361187
0.028703216
0.029055504
0.029418166
0.029791304
0.030175011
0.030569366
0.030974435
0.031390267
0.0318169
0.032254354
0.032702632
0.033161723
0.033631596
0.034112202
0.034603478
0.035105337
0.03561768
0.036140386
0.036673317
0.037216318
0.037769218
0.038331826
0.038903939
0.039485338
0.040075788
0.040675043
0.041282844
0.041898924
0.042523005
0.043154804
0.043794038
0.044440433
0.045093732
0.024059314
0.024257435
0.024463176
0.024676715
0.024898232
0.025127911
0.025365937
0.025612492
0.025867759
0.026131919
0.026405149
0.026687623
0.026979511
0.027280976
0.027592179
0.027913269
0.028244394
0.028585687
0.028937278
0.029299281
0.029671805
0.030054942
0.030448774
0.030853369
0.03126878
0.031695047
0.03213219
0.032580217
0.033039117
0.033508861
0.033989404
0.034480681
0.03498261
0.035495092
0.036018006
0.036551217
0.037094571
0.037647896
0.038211005
0.038783693
0.039365741
0.039956916
0.040556972
0.041165652
0.041782687
0.042407802
0.043040714
0.04368114
0.044328806
0.044983447
0.023965451
0.024162554
0.024367287
0.024579829
0.024800362
0.02502907
0.025266139
0.025511753
0.025766096
0.026029351
0.026301696
0.026583306
0.026874354
0.027175005
0.02748542
0.027805753
0.028136151
0.028476751
0.028827684
0.029189067
0.02956101
0.029943609
0.030336947
0.030741094
0.031156106
0.031582024
0.032018873
0.032466659
0.032925375
0.033394994
0.033875471
0.034366745
0.034868734
0.03538134
0.035904445
0.036437913
0.036981591
0.037535309
0.038098879
0.038672099
0.039254748
0.039846596
0.040447395
0.041056889
0.041674811
0.042300884
0.042934828
0.043576358
0.044225199
0.04488108
0.023878728
0.024074874
0.02427866
0.024490266
0.024709873
0.024937668
0.025173836
0.025418565
0.025672039
0.025934442
0.026205954
0.026486753
0.026777011
0.027076896
0.027386571
0.027706191
0.028035905
0.028375853
0.028726166
0.029086966
0.029458362
0.029840453
0.030233325
0.030637049
0.031051684
0.031477272
0.03191384
0.032361397
0.032819936
0.033289433
0.033769845
0.034261111
0.034763152
0.035275869
0.035799146
0.036332849
0.036876825
0.037430905
0.037994901
0.038568611
0.039151817
0.039744286
0.040345774
0.040956022
0.041574764
0.042201725
0.042836623
0.043479175
0.044129101
0.044786131
0.023798657
0.023993906
0.024196805
0.024407532
0.02462627
0.024853206
0.025088529
0.025332426
0.025585084
0.025846687
0.026117418
0.026397454
0.026686971
0.026986137
0.027295117
0.027614067
0.027943139
0.028282474
0.028632205
0.028992455
0.029363337
0.02974495
0.030137383
0.030540709
0.030954987
0.031380263
0.031816565
0.032263903
0.032722274
0.033191653
0.033671999
0.034163253
0.034665337
0.035178153
0.035701587
0.036235504
0.036779754
0.037334166
0.037898554
0.038472717
0.039056437
0.03964948
0.040251603
0.040862548
0.041482049
0.04210983
0.04274561
0.043389104
0.044040033
0.044698126
0.023724782
0.023919194
0.024121262
0.024331166
0.024549089
0.02477522
0.025009749
0.025252866
0.025504759
0.025765612
0.02603561
0.026314932
0.026603753
0.026902245
0.027210573
0.027528896
0.027857366
0.028196126
0.028545311
0.028905046
0.029275444
0.029656608
0.030048628
0.030451578
0.030865521
0.031290502
0.031726552
0.032173683
0.032631893
0.033101158
0.033581439
0.034072678
0.034574797
0.035087702
0.035611277
0.03614539
0.036689889
0.037244606
0.037809356
0.038383935
0.038968128
0.039561701
0.04016441
0.040775998
0.041396199
0.042024736
0.042661329
0.043305692
0.043957547
0.044616622
0.023656679
0.023850312
0.024051605
0.024260738
0.024477897
0.024703274
0.024937061
0.025179448
0.025430623
0.025690775
0.025960087
0.02623874
0.026526911
0.026824772
0.02713249
0.027450225
0.027778131
0.028116352
0.028465026
0.028824277
0.029194223
0.029574966
0.029966598
0.030369195
0.030782822
0.031207526
0.031643338
0.032090272
0.032548328
0.033017483
0.0334977
0.033988921
0.03449107
0.035004053
0.035527755
0.036062046
0.036606773
0.03716177
0.037726851
0.038301814
0.038886441
0.039480502
0.040083751
0.040695931
0.041316775
0.041946009
0.04258335
0.043228513
0.043881221
0.0445412
0.023593954
0.023786866
0.023987436
0.024195847
0.024412292
0.024636964
0.024870056
0.02511176
0.025362265
0.025621761
0.025890432
0.02616846
0.026456023
0.026753295
0.027060443
0.027377629
0.027705008
0.028042725
0.02839092
0.02874972
0.029119241
0.02949959
0.029890858
0.030293125
0.030706455
0.031130897
0.031566485
0.032013234
0.032471143
0.032940192
0.033420346
0.033911547
0.03441372
0.034926772
0.035450589
0.035985041
0.036529976
0.037085229
0.037650613
0.038225928
0.038810955
0.039405464
0.040009208
0.040621932
0.041243369
0.041873242
0.04251127
0.043157168
0.043810659
0.044471472
0.023536246
0.023728491
0.023928384
0.02413612
0.024351896
0.024575909
0.024808353
0.025049419
0.0252993
0.025558184
0.025826257
0.026103702
0.026390698
0.02668742
0.026994036
0.02731071
0.027637597
0.027974845
0.028322593
0.02868097
0.029050095
0.029430075
0.029821003
0.03022296
0.030636012
0.031060209
0.031495585
0.031942158
0.032399928
0.032868877
0.033348969
0.033840148
0.03434234
0.034855452
0.035379372
0.03591397
0.036459095
0.037014581
0.037580243
0.038155879
0.038741273
0.039336192
0.039940392
0.040553615
0.041175594
0.041806053
0.042444711
0.043091283
0.043745491
0.044407068
0.023483228
0.023674848
0.023874103
0.024081207
0.024296359
0.024519757
0.024751596
0.024992068
0.025241367
0.025499681
0.025767197
0.0260441
0.026330568
0.026626778
0.026932899
0.027249095
0.027575524
0.027912334
0.028259666
0.02861765
0.028986405
0.029366041
0.029756651
0.030158318
0.03057111
0.030995076
0.031430254
0.031876662
0.0323343
0.032803153
0.033283184
0.033774339
0.034276546
0.034789711
0.035313724
0.035848453
0.03639375
0.036949449
0.037515364
0.038091295
0.038677023
0.039272319
0.039876935
0.040490614
0.04111309
0.041744086
0.042383319
0.043030506
0.04368537
0.044347646
0.022906063
0.023074967
0.023251063
0.023434621
0.023625618
0.02382427
0.024030781
0.024245351
0.024468176
0.024699453
0.024939373
0.02518813
0.025445915
0.025712913
0.025989311
0.026275289
0.026571023
0.026876684
0.027192437
0.027518439
0.027854842
0.028201786
0.028559404
0.028927815
0.02930713
0.029697444
0.030098841
0.030511389
0.03093514
0.031370132
0.031816384
0.032273898
0.032742659
0.033222631
0.033713762
0.034215979
0.034729191
0.035253285
0.035788133
0.036333587
0.036889479
0.037455624
0.038031823
0.038617858
0.039213496
0.039818493
0.04043259
0.041055519
0.041687003
0.042326761
0.042974508
0.043629969
0.044292883
0.022701969
0.022863319
0.023031645
0.023207167
0.023390084
0.023580493
0.02377858
0.023984538
0.024198566
0.024420859
0.024651613
0.024891021
0.025139276
0.025396569
0.025663088
0.025939018
0.02622454
0.026519833
0.026825066
0.027140408
0.027466015
0.02780204
0.028148624
0.028505901
0.028873993
0.029253009
0.029643048
0.030044193
0.030456514
0.030880064
0.031314882
0.031760987
0.032218384
0.032687058
0.033166973
0.033658079
0.034160303
0.034673554
0.035197721
0.035732676
0.03627827
0.036834337
0.037400693
0.037977136
0.03856345
0.039159401
0.039764744
0.040379221
0.041002563
0.041634493
0.042274727
0.042922982
0.043578984
0.044242475
0.022663424
0.022824209
0.022991995
0.023166972
0.023349321
0.023539187
0.023736747
0.023942192
0.024155717
0.024377517
0.024607787
0.02484672
0.02509451
0.025351348
0.025617422
0.025892919
0.026178021
0.026472904
0.026777743
0.027092703
0.027417944
0.027753618
0.028099869
0.028456831
0.028824626
0.029203365
0.029593148
0.029994059
0.030406168
0.030829531
0.031264186
0.031710154
0.032167441
0.032636031
0.033115892
0.033606972
0.0341092
0.034622485
0.035146717
0.035681767
0.036227488
0.036783714
0.03735026
0.037926925
0.038513491
0.039109727
0.039715386
0.040330208
0.040953925
0.041586259
0.042226925
0.042875639
0.043532129
0.044196141
0.022628192
0.022788474
0.022955758
0.023130231
0.023312068
0.023501434
0.023698508
0.023903478
0.024116538
0.024337881
0.024567703
0.024806198
0.025053558
0.025309976
0.02557564
0.025850737
0.02613545
0.026429956
0.026734429
0.027049036
0.027373939
0.027709289
0.028055232
0.028411901
0.028779421
0.029157904
0.02954745
0.029948143
0.030360056
0.030783244
0.031217747
0.031663588
0.032120771
0.032589283
0.033069091
0.033560145
0.034062374
0.034575687
0.035099976
0.035635112
0.036180947
0.036737315
0.037304033
0.037880899
0.038467695
0.039064189
0.039670134
0.04028527
0.040909327
0.041542026
0.042183081
0.042832207
0.043489135
0.044153612
0.022596053
0.022755876
0.0229227
0.023096709
0.023278081
0.023466989
0.023663615
0.023868147
0.024080778
0.0243017
0.02453111
0.0247692
0.025016165
0.025272195
0.025537481
0.02581221
0.026096563
0.026390721
0.026694857
0.02700914
0.02733373
0.027668782
0.02801444
0.02837084
0.028738106
0.029116352
0.029505677
0.029906169
0.0303179
0.030740927
0.031175289
0.03162101
0.032078096
0.032546533
0.033026291
0.033517319
0.034019546
0.034532883
0.035057222
0.035592433
0.03613837
0.036694867
0.03726174
0.037838787
0.038425791
0.039022518
0.039628722
0.040244142
0.040868507
0.041501535
0.04214294
0.042792436
0.043449751
0.044114641
0.022566796
0.0227262
0.022892602
0.023066187
0.023247134
0.023435624
0.023631839
0.023835968
0.024048204
0.02426874
0.024497771
0.024735489
0.02498209
0.025237765
0.025502703
0.025777092
0.026061116
0.026354954
0.02665878
0.026972764
0.027297067
0.027631844
0.027977239
0.028333391
0.028700423
0.02907845
0.029467573
0.029867879
0.030279441
0.030702317
0.031136548
0.031582158
0.032039153
0.03250752
0.03298723
0.033478231
0.033980455
0.034493812
0.035018194
0.035553472
0.0360995
0.036656112
0.037223123
0.037800334
0.038387525
0.038984463
0.039590901
0.040206577
0.040831219
0.041464543
0.042106263
0.042756086
0.043413743
0.044078992
0.022540225
0.022699245
0.022865261
0.023038458
0.023219019
0.023407126
0.023602966
0.023806727
0.024018601
0.024238782
0.024467465
0.024704843
0.02495111
0.025206459
0.025471078
0.025745157
0.026028878
0.026322422
0.026625964
0.026939674
0.027263713
0.027598237
0.027943392
0.028299315
0.028666132
0.029043957
0.029432893
0.029833028
0.030244434
0.030667172
0.031101281
0.031546787
0.032003697
0.032471999
0.032951662
0.033442638
0.033944856
0.034458229
0.034982648
0.035517985
0.036064093
0.036620808
0.037187944
0.0377653
0.03835266
0.038949788
0.039556436
0.040172342
0.040797233
0.041430825
0.042072824
0.042722939
0.043380892
0.044046446
0.022516154
0.022674823
0.022840487
0.023013331
0.023193541
0.0233813
0.023576796
0.023780221
0.023991765
0.024211623
0.024439987
0.024677054
0.024923016
0.025178066
0.025442394
0.025716189
0.025999633
0.026292909
0.026596191
0.026909649
0.027233447
0.027567739
0.027912674
0.028268387
0.028635007
0.029012647
0.029401412
0.029801388
0.030212652
0.030635261
0.031069258
0.031514668
0.031971498
0.032439738
0.032919358
0.033410308
0.03391252
0.034425905
0.034950355
0.035485743
0.036031923
0.036588728
0.037155975
0.037733462
0.038320972
0.03891827
0.039525107
0.04014122
0.040766335
0.041400165
0.042042415
0.042692785
0.043350994
0.044016799
0.022494411
0.02265276
0.022818103
0.022990627
0.023170517
0.02335796
0.023553146
0.023756264
0.023967507
0.02418707
0.024415146
0.024651929
0.024897613
0.025152391
0.025416454
0.025689989
0.025973181
0.026266212
0.026569256
0.026882485
0.027206062
0.027540144
0.027884876
0.028240398
0.028606837
0.028984308
0.029372915
0.029772747
0.030183879
0.03060637
0.031040263