/*--------------------------------*- C++ -*----------------------------------*\
| =========                 |                                                 |
| \\      /  F ield         | OpenFOAM: The Open Source CFD Toolbox           |
|  \\    /   O peration     | Version:  2312                                  |
|   \\  /    A nd           | Website:  www.openfoam.com                      |
|    \\/     M anipulation  |                                                 |
\*---------------------------------------------------------------------------*/
FoamFile
{
    version     2.0;
    format      ascii;
    arch        "LSB;label=32;scalar=64";
    class       volScalarField;
    location    "0.07";
    object      CH4;
}
// * * * * * * * * * * * * * * * * * * * * * * * * * * * * * * * * * * * * * //

dimensions      [0 0 0 0 0 0 0];

internalField   nonuniform List<scalar> 
3250
(
0.009086062
0.0089523941
0.0088153136
0.0086752138
0.0085323938
0.0083871417
0.008239756
0.0080905451
0.00793982
0.007787887
0.0076350419
0.0074815678
0.007327733
0.0071737914
0.007019982
0.0068665296
0.0067136441
0.0065615176
0.0064103133
0.0062601161
0.0061107288
0.0059608264
0.0058044544
0.0056165215
0.0052926244
0.0043997491
0.0039545349
0.0033626781
0.0029760752
0.0025943077
0.0022913875
0.002012955
0.0017817112
0.0016008562
0.0014538664
0.001331117
0.0012253877
0.0011329857
0.0010512236
0.00097834518
0.00091294839
0.00085397017
0.00080056248
0.00075206695
0.0097942475
0.0096353019
0.0094735696
0.0093094284
0.0091431808
0.0089751184
0.0088055398
0.00863475
0.008463054
0.0082907511
0.0081181295
0.0079454647
0.0077730174
0.007601034
0.007429746
0.0072593707
0.0070901106
0.0069221524
0.0067556623
0.0065907665
0.0064274832
0.0062654807
0.0061032876
0.0059359652
0.0057497621
0.0055195636
0.0052957827
0.0050446371
0.0048012036
0.0045465876
0.0042962897
0.0040450397
0.0038059757
0.0035867498
0.003384672
0.0031972034
0.0030218555
0.0028573397
0.0027027271
0.0025573985
0.0024208035
0.0022924723
0.002171991
0.0020589964
0.011037134
0.01083628
0.010633504
0.010429176
0.010223615
0.010017128
0.0098100255
0.0096026187
0.0093952143
0.0091881105
0.0089815938
0.0087759368
0.0085713974
0.008368218
0.0081666263
0.0079668346
0.00776904
0.0075734242
0.0073801519
0.0071893649
0.0070011639
0.0068155539
0.0066323053
0.006450673
0.0062690794
0.0060852998
0.005901053
0.0057136409
0.0055251202
0.0053334425
0.0051400999
0.0049452017
0.0047521757
0.0045638346
0.0043806076
0.0042024689
0.0040292294
0.0038609254
0.0036976513
0.0035395584
0.0033867781
0.0032394269
0.0030975962
0.0029613571
0.012623621
0.012373419
0.012122011
0.011869788
0.011617109
0.01136432
0.011111764
0.010859776
0.010608685
0.010358806
0.010110439
0.0098638724
0.0096193744
0.0093771983
0.0091375804
0.0089007402
0.0086668803
0.0084361862
0.0082088268
0.0079849524
0.007764692
0.0075481421
0.0073353425
0.0071262372
0.0069206633
0.0067183466
0.0065191543
0.0063226557
0.0061286911
0.0059368004
0.0057469045
0.0055590006
0.0053736767
0.0051915214
0.0050127355
0.0048373889
0.0046655097
0.0044971751
0.0043324895
0.0041715819
0.0040145851
0.0038616267
0.0037128138
0.0035682424
0.014387864
0.014087715
0.013786746
0.013485393
0.013184074
0.012883194
0.012583146
0.012284312
0.01198706
0.011691743
0.011398697
0.011108239
0.010820669
0.010536266
0.010255293
0.0099779896
0.0097045794
0.0094352645
0.0091702278
0.008909633
0.0086536237
0.008402322
0.008155824
0.0079141931
0.0076774588
0.0074456097
0.0072186042
0.0069963451
0.0067787194
0.0065655737
0.0063567899
0.0061522899
0.0059520952
0.0057562429
0.0055647169
0.0053774771
0.005194478
0.0050156887
0.0048410923
0.0046706866
0.0045044779
0.0043424751
0.0041846748
0.0040310698
0.016210897
0.015863772
0.015515893
0.015167759
0.014819853
0.014472646
0.014126594
0.013782135
0.01343969
0.013099663
0.012762437
0.012428374
0.012097817
0.011771087
0.01144848
0.011130274
0.010816721
0.010508053
0.010204478
0.0099061816
0.0096133269
0.0093260551
0.0090444844
0.0087687088
0.0084987977
0.0082347937
0.0079767122
0.0077245395
0.0074782373
0.0072377459
0.0070029971
0.0067739226
0.006550463
0.0063325576
0.0061201346
0.0059131144
0.0057114142
0.0055149526
0.0053236515
0.0051374374
0.0049562404
0.0047799912
0.0046086118
0.0044420199
0.018021051
0.017630879
0.017239817
0.016848426
0.016457255
0.016066837
0.015677689
0.015290308
0.014905173
0.01452274
0.014143447
0.013767706
0.013395908
0.013028418
0.012665579
0.012307706
0.011955093
0.011608003
0.011266678
0.010931331
0.010602153
0.010279307
0.0099629334
0.0096531469
0.0093500376
0.0090536712
0.0087640887
0.0084813071
0.0082053211
0.0079361059
0.0076736209
0.0074178138
0.0071686235
0.0069259799
0.0066898039
0.0064600081
0.006236499
0.0060191782
0.0058079444
0.0056026945
0.0054033239
0.0052097257
0.0050217861
0.0048393853
0.019782612
0.01935287
0.01892202
0.018490682
0.018059457
0.017628937
0.017199693
0.016772276
0.016347218
0.015925029
0.015506196
0.015091181
0.014680422
0.014274332
0.013873296
0.013477671
0.01308779
0.012703953
0.012326436
0.011955485
0.011591317
0.011234124
0.01088407
0.01054129
0.010205896
0.0098779726
0.0095575796
0.0092447532
0.0089395072
0.0086418352
0.0083517124
0.0080690985
0.0077939391
0.0075261678
0.0072657063
0.0070124667
0.0067663516
0.0065272559
0.0062950679
0.0060696707
0.0058509426
0.0056387577
0.0054329839
0.0052334821
0.021482015
0.021015298
0.020547259
0.020078561
0.019609855
0.019141778
0.018674949
0.018209969
0.017747415
0.017287845
0.016831792
0.016379763
0.01593224
0.015489678
0.015052503
0.014621113
0.014195874
0.013777126
0.013365175
0.012960299
0.012562745
0.012172731
0.011790444
0.011416045
0.011049664
0.010691405
0.010341346
0.0099995396
0.009666015
0.0093407792
0.0090238193
0.0087151042
0.0084145864
0.0081222033
0.007837879
0.0075615249
0.0072930414
0.007032319
0.0067792392
0.0065336759
0.0062954968
0.0060645631
0.0058407306
0.0056238474
0.024113192
0.023616464
0.023116809
0.022614939
0.022111568
0.021607397
0.021103119
0.020599412
0.020096936
0.019596331
0.01909822
0.018603199
0.018111844
0.017624701
0.017142292
0.016665109
0.016193617
0.015728247
0.015269401
0.01481745
0.014372733
0.013935555
0.01350619
0.013084883
0.012671844
0.012267254
0.011871264
0.011483997
0.011105547
0.010735981
0.010375342
0.010023649
0.0096808994
0.0093470691
0.0090221164
0.0087059825
0.0083985927
0.0080998581
0.0078096768
0.0075279351
0.0072545088
0.0069892645
0.0067320606
0.0064827484
0.006241173
0.0060071716
0.025752272
0.025222088
0.02468877
0.024153068
0.023615728
0.023077488
0.022539076
0.022001205
0.021464573
0.020929858
0.020397719
0.019868789
0.019343681
0.018822977
0.018307235
0.017796981
0.017292712
0.016794893
0.016303957
0.015820304
0.0153443
0.014876277
0.014416536
0.013965342
0.013522929
0.013089497
0.012665216
0.012250225
0.011844633
0.011448521
0.011061944
0.01068493
0.010317486
0.0099595935
0.0096112159
0.009272297
0.0089427628
0.0086225236
0.0083114749
0.0080094989
0.0077164659
0.0074322355
0.0071566578
0.0068895751
0.0066308222
0.0063802263
0.027329054
0.0267664
0.026200452
0.02563199
0.025061792
0.024490627
0.023919255
0.023348423
0.022778862
0.022211285
0.021646384
0.021084829
0.020527264
0.019974305
0.019426542
0.018884534
0.018348808
0.017819859
0.017298148
0.016784101
0.016278111
0.015780535
0.015291696
0.01481188
0.014341341
0.013880299
0.013428938
0.012987413
0.012555847
0.012134333
0.011722935
0.011321691
0.010930613
0.01054969
0.010178888
0.0098181525
0.0094674093
0.0091265673
0.0087955193
0.008474143
0.0081623031
0.0078598524
0.0075666332
0.0072824788
0.0070072144
0.0067406571
0.0288457
0.028251514
0.027653902
0.027053675
0.026451637
0.02584859
0.025245323
0.024642616
0.024041229
0.02344191
0.022845382
0.022252346
0.021663479
0.021079429
0.020500817
0.019928229
0.019362223
0.018803321
0.018252011
0.017708745
0.01717394
0.016647975
0.016131194
0.015623905
0.015126378
0.01463885
0.014161521
0.01369456
0.013238101
0.012792248
0.012357074
0.011932624
0.011518916
0.011115943
0.010723673
0.010342052
0.0099710061
0.0096104421
0.009260249
0.0089203001
0.0085904541
0.0082705571
0.0079604434
0.0076599377
0.0073688558
0.0070870049
0.030303495
0.029678741
0.029050449
0.028419456
0.027786596
0.027152698
0.026518582
0.025885056
0.025252913
0.024622929
0.023995858
0.023372434
0.022753362
0.022139321
0.02153096
0.020928896
0.020333713
0.01974596
0.01916615
0.01859476
0.018032229
0.017478959
0.016935314
0.01640162
0.015878164
0.015365199
0.014862941
0.014371568
0.013891227
0.013422032
0.012964062
0.01251737
0.012081978
0.011657882
0.011245051
0.010843433
0.010452951
0.01007351
0.0097049951
0.0093472748
0.0090002017
0.0086636148
0.0083373408
0.0080211955
0.0077149857
0.0074185087
0.031703157
0.031048845
0.030390898
0.029730178
0.029067543
0.028403852
0.027739951
0.027076678
0.026414854
0.025755284
0.025098754
0.024446024
0.023797831
0.023154881
0.022517852
0.021887388
0.021264101
0.020648565
0.020041318
0.01944286
0.018853653
0.018274118
0.017704641
0.017145563
0.016597191
0.01605979
0.01553359
0.015018782
0.014515522
0.014023932
0.0135441
0.013076083
0.012619908
0.012175572
0.011743047
0.011322279
0.01091319
0.010515683
0.010129637
0.0097549163
0.0093913675
0.0090388224
0.0086970998
0.0083660071
0.0080453419
0.0077348916
0.03304515
0.032362337
0.031675801
0.030986428
0.030295103
0.029602708
0.028910116
0.028218191
0.027527783
0.026839726
0.026154832
0.025473891
0.024797666
0.024126893
0.023462276
0.022804487
0.022154163
0.021511903
0.020878269
0.020253784
0.019638932
0.019034154
0.018439854
0.017856391
0.017284088
0.016723224
0.016174042
0.015636744
0.015111496
0.014598428
0.014097635
0.013609178
0.013133088
0.012669364
0.012217978
0.011778877
0.011351981
0.010937187
0.010534373
0.010143396
0.0097640967
0.0093963004
0.0090398177
0.0086944477
0.008359979
0.0080361894
0.034329912
0.033619683
0.032905655
0.032188735
0.031469829
0.030749844
0.030029678
0.029310219
0.028592346
0.027876916
0.027164769
0.026456724
0.02575357
0.025056069
0.024364952
0.023680917
0.023004626
0.022336701
0.02167773
0.021028256
0.020388783
0.019759775
0.019141652
0.01853479
0.017939528
0.017356159
0.016784938
0.016226078
0.015679754
0.015146103
0.014625228
0.014117193
0.013622033
0.01313975
0.012670315
0.012213674
0.011769744
0.011338421
0.010919578
0.010513066
0.01011872
0.0097363572
0.0093657819
0.0090067841
0.0086591438
0.0083226297
0.035557984
0.03482144
0.034081032
0.033337685
0.032592325
0.031845879
0.031099269
0.030353408
0.029609198
0.028867521
0.028129245
0.027395212
0.026666238
0.025943112
0.025226589
0.024517391
0.023816205
0.023123677
0.022440417
0.02176699
0.021103921
0.020451691
0.019810739
0.019181458
0.018564201
0.017959275
0.017366946
0.016787439
0.016220938
0.015667587
0.015127493
0.014600728
0.014087327
0.013587294
0.013100603
0.012627196
0.01216699
0.011719876
0.011285724
0.010864379
0.01045567
0.010059407
0.0096753878
0.0093033933
0.0089431952
0.0085945532
0.037486934
0.036730051
0.03596831
0.035202643
0.034433993
0.033663308
0.032891535
0.032119615
0.031348486
0.030579071
0.029812277
0.029048996
0.028290094
0.027536412
0.026788762
0.026047926
0.025314649
0.02458964
0.02387357
0.023167068
0.022470722
0.021785075
0.021110627
0.020447835
0.019797108
0.019158812
0.018533269
0.017920756
0.017321507
0.016735715
0.016163533
0.015605073
0.01506041
0.014529583
0.014012598
0.013509428
0.013020014
0.012544273
0.012082091
0.011633333
0.01119784
0.010775436
0.010365923
0.0099690913
0.0095847143
0.0092125553
0.0088523653
0.03862791
0.037847002
0.037061166
0.036271353
0.035478521
0.034683636
0.033887662
0.033091563
0.032296294
0.0315028
0.030712014
0.029924846
0.029142188
0.028364903
0.027593828
0.026829767
0.026073488
0.025325723
0.024587164
0.02385846
0.02314022
0.022433007
0.021737339
0.021053687
0.020382478
0.019724091
0.019078861
0.018447075
0.017828979
0.017224774
0.016634619
0.016058631
0.015496891
0.01494944
0.014416285
0.0138974
0.013392725
0.012902174
0.012425631
0.011962956
0.011513987
0.011078538
0.010656409
0.010247381
0.0098512199
0.0094676811
0.0090965073
0.039713732
0.038909877
0.038101039
0.037288181
0.036472275
0.035654303
0.034835244
0.034016082
0.033197789
0.032381333
0.031567665
0.030757718
0.029952405
0.029152612
0.028359198
0.027572988
0.026794773
0.026025306
0.0252653
0.024515424
0.023776306
0.023048527
0.022332623
0.02162908
0.020938341
0.020260798
0.019596799
0.018946641
0.01831058
0.017688824
0.01708154
0.016488851
0.01591084
0.015347553
0.014798997
0.014265146
0.01374594
0.013241291
0.012751079
0.012275162
0.01181337
0.011365515
0.010931388
0.010510764
0.010103402
0.0097090492
0.0093274403
0.040745596
0.039919858
0.039089096
0.03825428
0.037416393
0.036576428
0.035735385
0.034894258
0.034054042
0.033215721
0.032380265
0.031548629
0.030721746
0.029900522
0.029085838
0.02827854
0.027479439
0.026689308
0.025908881
0.025138846
0.02437985
0.02363249
0.022897319
0.022174839
0.021465507
0.020769729
0.020087862
0.019420217
0.018767058
0.0181286
0.017505016
0.016896436
0.016302947
0.015724595
0.015161391
0.014613308
0.014080287
0.013562235
0.013059032
0.01257053
0.012096556
0.011636915
0.011191394
0.010759759
0.010341763
0.0099371462
0.0095456356
0.042565336
0.041724807
0.04087825
0.040026627
0.039170919
0.038312123
0.037451243
0.036589291
0.035727279
0.034866218
0.034007107
0.033150938
0.032298681
0.031451291
0.030609693
0.029774788
0.028947441
0.028128483
0.027318708
0.026518867
0.025729667
0.024951772
0.024185797
0.02343231
0.022691829
0.021964823
0.021251711
0.020552862
0.019868597
0.019199188
0.018544858
0.017905787
0.017282109
0.016673915
0.016081255
0.015504139
0.014942542
0.014396403
0.013865628
0.013350094
0.012849648
0.012364115
0.011893294
0.011436964
0.010994888
0.01056681
0.010152464
0.0097515693
0.04351309
0.042652814
0.041786467
0.040915021
0.040039467
0.039160809
0.038280065
0.037398258
0.036516417
0.035635563
0.034756716
0.033880881
0.033009049
0.03214219
0.031281251
0.030427149
0.029580769
0.028742962
0.027914538
0.027096266
0.026288873
0.025493038
0.024709392
0.023938519
0.02318095
0.022437168
0.021707603
0.020992637
0.020292598
0.019607768
0.018938377
0.018284612
0.01764661
0.017024467
0.016418234
0.015827925
0.015253512
0.014694935
0.014152099
0.013624876
0.013113112
0.012616625
0.012135212
0.011668644
0.011216678
0.010779054
0.010355496
0.009945719
0.044410168
0.043531136
0.042646004
0.041755748
0.040861365
0.039963869
0.039064286
0.038163653
0.037263009
0.03636339
0.035465831
0.034571353
0.033680964
0.03279565
0.031916375
0.031044075
0.030179653
0.029323976
0.028477873
0.02764213
0.02681749
0.026004648
0.025204252
0.024416897
0.02364313
0.022883447
0.022138288
0.021408045
0.020693058
0.019993614
0.019309953
0.018642264
0.017990692
0.017355334
0.016736246
0.01613344
0.015546891
0.014976538
0.014422282
0.013883995
0.013361518
0.012854666
0.01236323
0.011886977
0.011425658
0.010979004
0.010546736
0.010128561
0.045258172
0.044361351
0.043458415
0.042550336
0.041638118
0.040722779
0.039805356
0.038886895
0.037968447
0.037051062
0.036135788
0.03522366
0.034315702
0.033412916
0.032516284
0.031626756
0.030745254
0.02987266
0.029009821
0.028157539
0.027316572
0.026487631
0.025671377
0.024868421
0.024079322
0.023304586
0.022544667
0.021799966
0.021070831
0.020357558
0.019660392
0.018979529
0.018315117
0.017667258
0.017036008
0.016421383
0.015823357
0.015241867
0.014676815
0.014128068
0.013595466
0.013078818
0.012577911
0.012092508
0.011622352
0.011167169
0.010726675
0.01030057
0.046965286
0.046058729
0.045145087
0.044225305
0.043300365
0.042371273
0.041439058
0.040504764
0.039569444
0.038634162
0.037699979
0.036767955
0.03583914
0.034914572
0.033995269
0.033082227
0.032176412
0.031278762
0.030390176
0.029511514
0.028643596
0.027787193
0.026943032
0.026111787
0.025294083
0.024490489
0.023701526
0.022927655
0.022169288
0.021426781
0.020700437
0.019990508
0.019297197
0.018620653
0.017960983
0.017318245
0.016692456
0.016083589
0.015491582
0.014916335
0.014357713
0.013815552
0.013289658
0.012779813
0.012285775
0.011807282
0.011344054
0.010895799
0.010462213
0.047735995
0.046813558
0.045884014
0.044948314
0.044007442
0.043062412
0.042114256
0.041164027
0.040212787
0.039261608
0.038311563
0.037363725
0.036419155
0.035478905
0.034544007
0.033615472
0.03269428
0.031781384
0.030877699
0.029984099
0.029101418
0.028230442
0.027371911
0.026526513
0.025694884
0.024877608
0.024075212
0.023288171
0.022516903
0.021761774
0.021023094
0.020301121
0.01959606
0.018908069
0.018237254
0.017583677
0.016947355
0.016328264
0.015726338
0.015141476
0.014573542
0.014022369
0.013487759
0.01296949
0.012467315
0.011980965
0.011510156
0.011054589
0.010613952
0.048461822
0.047524384
0.046579827
0.045629102
0.044673198
0.043713131
0.042749939
0.04178468
0.040818426
0.039852256
0.038887255
0.037924504
0.036965079
0.036010042
0.03506044
0.034117296
0.033181606
0.032254335
0.031336412
0.030428727
0.029532126
0.02864741
0.02777533
0.026916588
0.02607183
0.025241653
0.024426593
0.023627135
0.022843706
0.022076678
0.021326369
0.020593043
0.019876909
0.019178129
0.018496812
0.017833022
0.017186777
0.016558053
0.015946783
0.015352866
0.014776163
0.014216504
0.013673688
0.013147489
0.012637654
0.012143911
0.011665969
0.011203519
0.010756243
0.049144523
0.048192936
0.047234225
0.046269339
0.04529927
0.044325036
0.04334768
0.042368265
0.04138787
0.040407582
0.039428496
0.038451702
0.037478288
0.036509328
0.03554588
0.03458898
0.033639637
0.03269883
0.0317675
0.030846552
0.029936843
0.029039187
0.028154349
0.027283041
0.026425922
0.025583596
0.024756612
0.023945462
0.023150583
0.022372354
0.021611097
0.020867083
0.020140527
0.019431592
0.018740391
0.01806699
0.017411408
0.016773619
0.016153559
0.015551124
0.014966173
0.014398533
0.013848001
0.013314346
0.012797312
0.01229662
0.011811974
0.01134306
0.01088954
0.049785857
0.048820945
0.047848908
0.046870694
0.045887295
0.044899731
0.04390905
0.042916319
0.041922623
0.040929058
0.039936725
0.038946725
0.037960155
0.036978101
0.036001631
0.035031795
0.034069613
0.033116076
0.032172139
0.031238717
0.030316681
0.029406857
0.028510021
0.027626895
0.02675815
0.0259044
0.025066204
0.024244061
0.023438415
0.022649653
0.021878103
0.021124042
0.020387687
0.019669206
0.018968714
0.01828628
0.017621922
0.016975616
0.016347297
0.015736859
0.015144159
0.014569023
0.014011244
0.013470588
0.012946794
0.01243958
0.011948645
0.011473672
0.011014332
0.010570268
0.050387575
0.049410132
0.048425567
0.047434825
0.046438898
0.04543881
0.04443561
0.04343037
0.042424181
0.041418144
0.040413369
0.039410966
0.038412041
0.037417689
0.03642899
0.035447004
0.034472763
0.033507271
0.032551492
0.031606355
0.030672742
0.029751489
0.028843384
0.027949159
0.027069496
0.026205017
0.02535629
0.024523823
0.023708066
0.022909413
0.022128199
0.021364702
0.020619148
0.019891705
0.019182492
0.018491578
0.017818983
0.017164684
0.016528614
0.015910666
0.015310696
0.014728528
0.014163951
0.013616728
0.013086595
0.012573267
0.012076438
0.011595788
0.011130986
0.010681694
0.050951412
0.049962202
0.048965874
0.047963372
0.046955689
0.045943849
0.044928903
0.043911928
0.042894019
0.041876284
0.040859839
0.039845802
0.038835287
0.037829401
0.036829232
0.03583585
0.0348503
0.033873593
0.032906708
0.031950582
0.031006109
0.030074137
0.029155461
0.028250827
0.027360922
0.02648638
0.025627776
0.024785625
0.023960386
0.023152457
0.022362179
0.021589836
0.020835655
0.020099809
0.019382419
0.018683555
0.018003239
0.017341447
0.016698112
0.016073126
0.015466344
0.014877586
0.01430664
0.013753266
0.013217196
0.012698142
0.012195794
0.011709829
0.011239913
0.010785701
0.051479079
0.050478836
0.049471479
0.048457954
0.047439252
0.046416399
0.045390448
0.044362479
0.043333591
0.042304897
0.04127752
0.040252586
0.039231216
0.038214525
0.037203612
0.036199556
0.035203411
0.0342162
0.033238911
0.032272492
0.031317847
0.030375832
0.029447255
0.028532869
0.027633372
0.026749404
0.025881548
0.025030327
0.024196206
0.023379589
0.022580822
0.021800193
0.021037933
0.020294219
0.019569172
0.018862865
0.01817532
0.017506514
0.016856378
0.016224805
0.015611647
0.015016723
0.014439817
0.013880687
0.013339063
0.012814652
0.012307142
0.011816204
0.011341502
0.010882682
0.051972259
0.050961682
0.049943999
0.048920156
0.047891142
0.046857983
0.045821735
0.04478348
0.043744321
0.042705376
0.041667773
0.040632644
0.03960112
0.038574322
0.037553359
0.036539318
0.035533262
0.034536225
0.033549204
0.032573155
0.031608994
0.030657585
0.029719746
0.028796237
0.027887765
0.026994979
0.026118469
0.025258764
0.024416335
0.023591591
0.022784884
0.021996506
0.021226691
0.020475617
0.019743411
0.019030144
0.01833584
0.017660475
0.017003982
0.016366251
0.015747133
0.015146445
0.01456397
0.013999462
0.013452647
0.012923231
0.012410897
0.011915313
0.011436137
0.010973011
0.052432598
0.051412357
0.05038502
0.04935153
0.048312878
0.04727009
0.046224221
0.045176356
0.044127601
0.043079079
0.042031923
0.040987272
0.039946262
0.038910023
0.037879671
0.036856303
0.035840989
0.034834772
0.033838659
0.032853614
0.031880563
0.030920379
0.029973886
0.029041855
0.028124999
0.027223975
0.02633938
0.025471749
0.024621559
0.023789225
0.022975101
0.022179485
0.021402613
0.020644666
0.019905773
0.019186006
0.018485391
0.017803903
0.017141474
0.016497994
0.015873313
0.015267245
0.014679571
0.014110043
0.013558384
0.013024297
0.012507462
0.012007542
0.011524191
0.011057047
0.052861701
0.051832434
0.050796083
0.04975359
0.048705944
0.04765417
0.046599325
0.045542494
0.044484788
0.043427332
0.042371265
0.04131773
0.040267872
0.039222826
0.038183716
0.037151646
0.036127696
0.035112916
0.03410832
0.033114884
0.032133539
0.031165167
0.030210602
0.02927062
0.028345943
0.027437234
0.026545096
0.025670072
0.024812642
0.023973226
0.023152185
0.022349816
0.021566362
0.020802006
0.020056877
0.019331049
0.018624548
0.01793735
0.017269386
0.016620546
0.015990678
0.015379595
0.014787075
0.014212868
0.013656695
0.013118254
0.012597223
0.012093262
0.011606021
0.011135133
0.053261131
0.052223445
0.05117869
0.050127806
0.049071779
0.048011634
0.046948426
0.045883244
0.044817198
0.04375142
0.042687052
0.041625243
0.040567143
0.039513893
0.038466625
0.037426449
0.036394454
0.035371697
0.0343592
0.033357946
0.032368874
0.031392876
0.03043079
0.029483401
0.028551438
0.02763557
0.026736406
0.025854494
0.02499032
0.024144308
0.023316823
0.022508166
0.021718581
0.020948255
0.020197317
0.019465845
0.018753863
0.018061348
0.017388232
0.016734401
0.016099704
0.015483952
0.014886921
0.014308358
0.013747983
0.01320549
0.012680554
0.012172831
0.011681969
0.011207598
0.053632401
0.052586875
0.051534297
0.050475605
0.049411781
0.048343848
0.047272861
0.046199911
0.045126109
0.044052591
0.042980502
0.041910997
0.04084523
0.03978435
0.038729494
0.037681779
0.036642301
0.035612123
0.034592276
0.033583751
0.032587492
0.031604399
0.030635318
0.029681039
0.028742298
0.027819771
0.026914071
0.026025752
0.025155305
0.024303158
0.023469679
0.022655173
0.021859887
0.021084008
0.02032767
0.019590948
0.01887387
0.018176411
0.017498503
0.016840033
0.016200847
0.015580754
0.014979529
0.014396918
0.013832636
0.013286376
0.01275781
0.012246591
0.011752364
0.011274756
0.053976977
0.052924159
0.051864311
0.050798366
0.049727301
0.048652134
0.047573924
0.046493759
0.045412754
0.044332048
0.043252789
0.042176137
0.041103251
0.040035285
0.038973381
0.037918665
0.036872237
0.035835168
0.034808495
0.033793216
0.032790282
0.0318006
0.030825021
0.029864343
0.028919307
0.027990594
0.027078824
0.026184555
0.025308282
0.024450437
0.023611392
0.022791454
0.021990873
0.021209839
0.020448485
0.019706889
0.018985079
0.01828303
0.017600674
0.016937897
0.016294543
0.015670421
0.015065304
0.014478934
0.013911026
0.01336127
0.012829335
0.012314871
0.01181752
0.011336908
0.054296267
0.05323668
0.05217009
0.051097421
0.050019641
0.048937769
0.047852861
0.046766007
0.045678324
0.044590953
0.043505047
0.042421768
0.041342281
0.040267745
0.039199308
0.038138099
0.037085227
0.036041768
0.035008766
0.033987224
0.032978101
0.031982308
0.031000704
0.030034092
0.029083219
0.028148771
0.027231372
0.026331585
0.025449909
0.024586781
0.023742574
0.0229176
0.02211211
0.021326296
0.020560292
0.019814178
0.019087981
0.018381678
0.017695198
0.017028428
0.016381212
0.015753355
0.015144631
0.014554778
0.01398351
0.013430513
0.012895454
0.012377983
0.011877737
0.011394341
0.054591618
0.053525768
0.052452944
0.051374053
0.05029006
0.049201981
0.048110874
0.047017829
0.045923965
0.044830425
0.043738366
0.042648954
0.041563357
0.040482739
0.039408254
0.038341036
0.037282198
0.036232825
0.035193964
0.034166624
0.033151771
0.032150322
0.03116314
0.030191035
0.029234758
0.028295
0.02737239
0.026467495
0.025580818
0.0247128
0.023863815
0.023034179
0.022224145
0.021433906
0.020663598
0.019913302
0.019183045
0.018472804
0.017782509
0.017112045
0.016461254
0.015829942
0.015217879
0.014624804
0.014050426
0.013494431
0.012956482
0.012436227
0.011933302
0.01144733
0.058028551
0.056983082
0.055928098
0.054864312
0.053792709
0.052714133
0.051629496
0.050539764
0.049445952
0.048349117
0.047250352
0.046150778
0.045051539
0.043953795
0.042858716
0.041767473
0.040681236
0.039601162
0.038528392
0.037464042
0.036409203
0.035364928
0.034332231
0.033312083
0.032305406
0.03131307
0.030335889
0.029374618
0.028429953
0.027502528
0.026592913
0.025701615
0.024829076
0.023975677
0.023141733
0.0223275
0.021533173
0.020758889
0.020004729
0.019270721
0.018556843
0.017863023
0.017189145
0.016535052
0.015900549
0.015285402
0.01468935
0.014112099
0.013553334
0.013012715
0.012489888
0.011984487
0.011496135
0.059336538
0.058295841
0.057245012
0.056184695
0.055115643
0.054038744
0.05295487
0.051864937
0.050769914
0.049670815
0.048568699
0.047464659
0.046359819
0.045255324
0.044152337
0.043052032
0.041955584
0.040864165
0.039778937
0.038701045
0.037631612
0.036571732
0.035522463
0.034484825
0.033459793
0.032448295
0.031451205
0.030469341
0.029503463
0.028554273
0.027622406
0.026708437
0.025812876
0.024936169
0.024078698
0.023240781
0.022422676
0.021624578
0.020846627
0.020088904
0.019351437
0.018634204
0.017937134
0.017260109
0.016602972
0.015965525
0.015347536
0.014748739
0.014168839
0.013607519
0.013064438
0.012539238
0.012031553
0.011541004
0.059587368
0.058541734
0.057485974
0.056420755
0.055346836
0.054265065
0.053176317
0.052081512
0.050981619
0.049877656
0.04877068
0.047661787
0.0465521
0.045442768
0.044334957
0.043229842
0.042128602
0.041032413
0.039942442
0.038859836
0.037785724
0.036721204
0.035667338
0.034625152
0.033595625
0.032579689
0.031578222
0.030592048
0.02962193
0.028668573
0.027732618
0.026814641
0.025915157
0.025034613
0.024173393
0.023331819
0.022510149
0.021708581
0.020927255
0.020166252
0.019425602
0.018705282
0.01800522
0.017325299
0.016665361
0.016025206
0.0154046
0.014803277
0.01422094
0.013657269
0.01311192
0.012584535
0.012074746
0.011582174
0.059817659
0.058767468
0.057707178
0.056637456
0.055559057
0.05447281
0.053379586
0.052280308
0.051175945
0.050067515
0.048956077
0.047842726
0.046728589
0.045614815
0.044502573
0.043393041
0.042287401
0.041186832
0.040092504
0.03900557
0.03792716
0.036858378
0.03580029
0.034753927
0.033720271
0.032700258
0.031694771
0.030704637
0.029730625
0.028773441
0.02783373
0.026912072
0.026008984
0.025124915
0.024260252
0.023415319
0.022590375
0.02178562
0.021001193
0.020237179
0.019493605
0.01877045
0.018067641
0.017385061
0.01672255
0.016079908
0.0154569
0.014853257
0.014268682
0.013702851
0.01315542
0.012626026
0.012114302
0.011619869
0.060028595
0.058974219
0.057909774
0.056835923
0.055753414
0.054663063
0.053565739
0.052462363
0.051353906
0.050241384
0.049125858
0.048008424
0.04689021
0.045772367
0.044656066
0.043542487
0.042432815
0.041328232
0.040229912
0.039139012
0.038056664
0.036983977
0.035922021
0.034871829
0.033834389
0.03281064
0.03180147
0.030807708
0.029830126
0.028869435
0.027926282
0.027001251
0.026094859
0.02520756
0.024339743
0.023491731
0.022663787
0.021856111
0.021068844
0.02030207
0.019555817
0.018830064
0.018124738
0.017439722
0.016774854
0.016129934
0.015504725
0.014898957
0.01431233
0.01374452
0.01319518
0.012663944
0.012150444
0.011654302
0.06022131
0.059163106
0.058094861
0.057017233
0.055930964
0.054836862
0.053735791
0.05262867
0.051516471
0.050400211
0.049280949
0.048159784
0.047037844
0.045916283
0.044796272
0.043678995
0.042565638
0.041457388
0.04035542
0.039260894
0.038174947
0.037098691
0.036033199
0.034979508
0.033938609
0.032911446
0.031898908
0.030901829
0.029920985
0.028957088
0.028010789
0.027082673
0.026173262
0.025283011
0.02441231
0.023561484
0.022730798
0.021920452
0.021130589
0.020361292
0.019612591
0.018884463
0.018176837
0.017489594
0.016822572
0.01617557
0.015548349
0.014940639
0.014352138
0.01378252
0.013231433
0.012698511
0.012183384
0.011685674
0.060396889
0.059335193
0.058263484
0.057182412
0.056092714
0.054995192
0.053890705
0.052780173
0.051664565
0.050544897
0.049422232
0.048297667
0.047172332
0.046047382
0.044923991
0.043803343
0.042686629
0.041575036
0.040469743
0.039371913
0.038282686
0.037203176
0.036134461
0.03507758
0.034033529
0.033003253
0.031987645
0.030987544
0.030003725
0.029036906
0.028087738
0.027156812
0.026244648
0.025351705
0.024478375
0.023624985
0.022791799
0.021979019
0.021186789
0.020415193
0.01966426
0.018933969
0.018224246
0.017534973
0.016865988
0.016217088
0.015588035
0.014978555
0.014388346
0.013817078
0.013264399
0.012729939
0.012213324
0.011714176
0.060556364
0.059491496
0.058416638
0.057332436
0.056239622
0.055138992
0.054031403
0.052917771
0.051799065
0.050676303
0.049550546
0.048422893
0.047294474
0.046166445
0.045039983
0.043916273
0.042796508
0.041681878
0.040573564
0.039472731
0.038380524
0.037298057
0.036226414
0.035166635
0.034119718
0.033086613
0.032068216
0.031065367
0.030078845
0.02910937
0.028157596
0.027224114
0.026309449
0.02541406
0.024538341
0.023682619
0.022847161
0.02203217
0.021237789
0.020464103
0.019711143
0.018978885
0.018267257
0.01757614
0.016905371
0.016254747
0.015624028
0.01501294
0.014421179
0.013848412
0.013294286
0.012758426
0.012240455
0.011739991