/*--------------------------------*- C++ -*----------------------------------*\
| =========                 |                                                 |
| \\      /  F ield         | OpenFOAM: The Open Source CFD Toolbox           |
|  \\    /   O peration     | Version:  2312                                  |
|   \\  /    A nd           | Website:  www.openfoam.com                      |
|    \\/     M anipulation  |                                                 |
\*---------------------------------------------------------------------------*/
FoamFile
{
    version     2.0;
    format      ascii;
    arch        "LSB;label=32;scalar=64";
    class       volScalarField;
    location    "0.07";
    object      CO2;
}
// * * * * * * * * * * * * * * * * * * * * * * * * * * * * * * * * * * * * * //

dimensions      [0 0 0 0 0 0 0];

internalField   nonuniform List<scalar> 
3250
(
0.0052993306
0.0052768362
0.005251509
0.0052235235
0.0051929856
0.0051599912
0.00512464
0.0050870365
0.0050472877
0.0050055019
0.0049617874
0.0049162516
0.0048690014
0.0048201426
0.0047697794
0.004718014
0.0046649459
0.0046106685
0.0045552603
0.0044987457
0.0044409369
0.0043807784
0.0043136386
0.0042201006
0.0040195082
0.0033776593
0.0030688953
0.0026375765
0.0023596835
0.0020789664
0.0018559186
0.0016478511
0.0014744829
0.0013394186
0.0012297634
0.0011381675
0.0010590472
0.00098965309
0.00092797236
0.00087272118
0.00082286638
0.00077763291
0.00073640625
0.00069873228
0.0057049055
0.005672094
0.005636596
0.0055985679
0.0055581158
0.0055153388
0.0054703394
0.0054232244
0.0053741031
0.0053230855
0.0052702819
0.005215802
0.0051597546
0.0051022475
0.0050433871
0.0049832776
0.0049220206
0.0048597134
0.0047964447
0.0047322795
0.0046672052
0.0046009442
0.0045323408
0.0044575551
0.004365901
0.0042377238
0.0041109733
0.0039591812
0.0038094871
0.0036468278
0.0034835154
0.0033153761
0.003153359
0.0030040251
0.0028654525
0.0027358574
0.0026134499
0.0024974132
0.0023871947
0.00228248
0.0021829906
0.0020885032
0.0019988393
0.0019138967
0.006415725
0.0063663008
0.006314323
0.0062599345
0.0062032481
0.0061443728
0.0060834205
0.0060205066
0.0059557483
0.0058892635
0.0058211703
0.0057515859
0.0056806272
0.0056084094
0.0055350462
0.0054606491
0.0053853268
0.0053091845
0.005232322
0.005154829
0.0050767701
0.004998142
0.0049187643
0.0048380594
0.0047548009
0.0046672315
0.0045765797
0.0044806514
0.0043809437
0.0042757338
0.004166119
0.004052135
0.0039365735
0.0038217684
0.0037081273
0.0035957087
0.0034844463
0.0033744706
0.003265963
0.0031591567
0.0030542703
0.0029515148
0.0028510954
0.0027532555
0.0073208806
0.0072527619
0.0071820756
0.0071089633
0.0070335537
0.0069559744
0.0068763554
0.0067948292
0.0067115295
0.0066265903
0.0065401458
0.0064523293
0.0063632731
0.0062731081
0.0061819628
0.0060899632
0.0059972322
0.0059038891
0.0058100487
0.0057158203
0.0056213043
0.0055265837
0.005431704
0.0053366422
0.0052412962
0.0051454783
0.0050491072
0.0049518634
0.0048536312
0.0047540525
0.0046530691
0.0045506886
0.0044474099
0.0043437419
0.0042398846
0.0041359399
0.0040319818
0.0039281318
0.0038245385
0.0037213764
0.0036188268
0.003517073
0.0034162931
0.0033166971
0.0083239226
0.0082380327
0.0081493701
0.0080580869
0.0079643347
0.0078682658
0.0077700345
0.0076697967
0.0075677095
0.0074639302
0.0073586159
0.0072519228
0.007144006
0.0070350186
0.0069251109
0.0068144305
0.0067031207
0.006591321
0.006479166
0.0063667848
0.0062543009
0.0061418293
0.0060294735
0.0059173189
0.0058054316
0.0056938517
0.0055826002
0.0054716568
0.0053609891
0.0052505326
0.0051402499
0.0050301363
0.0049202694
0.0048107413
0.0047016024
0.0045928855
0.0044846209
0.0043768528
0.0042696383
0.004163048
0.0040571612
0.003952061
0.0038478252
0.0037445483
0.0093555516
0.0092541833
0.0091496879
0.0090422337
0.0089319958
0.008819152
0.0087038819
0.0085863672
0.0084667903
0.0083453343
0.0082221824
0.0080975171
0.0079715193
0.0078443682
0.0077162397
0.0075873066
0.0074577372
0.007327695
0.007197338
0.0070668185
0.0069362824
0.0068058685
0.0066757075
0.0065459203
0.006416617
0.0062878943
0.006159834
0.0060325003
0.005905942
0.0057801938
0.0056552855
0.0055312484
0.0054081226
0.0052859484
0.0051647577
0.0050445772
0.0049254313
0.0048073458
0.0046903489
0.0045744722
0.0044597498
0.0043462157
0.0042338971
0.0041228235
0.01037401
0.01025958
0.010141593
0.010020235
0.0098956996
0.0097681869
0.0096378989
0.0095050399
0.0093698163
0.0092324355
0.0090931056
0.0089520344
0.0088094286
0.008665493
0.0085204298
0.0083744373
0.0082277096
0.0080804354
0.0079327978
0.0077849733
0.0076371317
0.007489435
0.0073420374
0.0071950842
0.0070487109
0.0069030427
0.0067581933
0.0066142639
0.0064713441
0.0063295124
0.0061888384
0.0060493855
0.0059112122
0.0057743719
0.0056389122
0.0055048748
0.0053722971
0.0052412125
0.0051116516
0.0049836422
0.0048572102
0.0047323778
0.0046091602
0.0044875667
0.011358596
0.011233029
0.011103464
0.010970102
0.010833152
0.010692829
0.010549352
0.010402944
0.010253832
0.010102242
0.0099484051
0.0097925507
0.0096349085
0.0094757066
0.0093151707
0.0091535231
0.008990982
0.0088277603
0.0086640649
0.0085000963
0.0083360475
0.0081721038
0.0080084421
0.0078452302
0.0076826263
0.0075207787
0.007359825
0.0071998918
0.0070410952
0.0068835407
0.0067273247
0.0065725347
0.0064192507
0.0062675456
0.0061174851
0.0059691281
0.0058225273
0.005677729
0.005534774
0.0053936976
0.00525453
0.0051172963
0.0049820143
0.0048486937
0.012301652
0.012166264
0.012026464
0.011882461
0.011734475
0.011582735
0.011427471
0.011268921
0.011107326
0.010942931
0.010775982
0.010606727
0.010435416
0.010262297
0.010087615
0.0099116135
0.0097345329
0.0095566073
0.0093780656
0.0091991299
0.0090200154
0.008840929
0.0086620692
0.0084836251
0.0083057764
0.0081286924
0.0079525322
0.007777444
0.0076035656
0.0074310242
0.0072599371
0.0070904123
0.0069225485
0.0067564363
0.0065921578
0.0064297873
0.0062693914
0.0061110289
0.0059547516
0.005800604
0.0056486242
0.0054988433
0.005351286
0.0052059679
0.013475851
0.013341599
0.013202187
0.01305779
0.01290861
0.012754862
0.012596773
0.012434576
0.012268515
0.012098835
0.01192579
0.011749638
0.011570639
0.011389056
0.011205155
0.011019201
0.010831456
0.010642182
0.010451637
0.010260076
0.010067745
0.0098748878
0.0096817384
0.0094885239
0.0092954624
0.0091027632
0.0089106254
0.0087192381
0.0085287799
0.0083394186
0.0081513111
0.0079646037
0.0077794322
0.007595922
0.0074141888
0.0072343389
0.0070564691
0.0068806673
0.0067070124
0.006535575
0.0063664168
0.0061995915
0.0060351449
0.0058731152
0.0057135335
0.0055564223
0.014351331
0.014209283
0.014061723
0.013908838
0.013750836
0.013587937
0.013420372
0.013248381
0.013072212
0.012892122
0.012708371
0.01252123
0.01233097
0.012137868
0.011942201
0.011744249
0.011544291
0.011342604
0.011139463
0.010935137
0.010729893
0.01052399
0.010317681
0.010111211
0.0099048165
0.0096987241
0.0094931515
0.0092883058
0.0090843835
0.00888157
0.0086800398
0.0084799562
0.0082814713
0.0080847268
0.0078898532
0.0076969709
0.0075061902
0.0073176112
0.0071313242
0.00694741
0.0067659399
0.006586976
0.0064105715
0.0062367711
0.0060656119
0.0058971224
0.01518724
0.015037685
0.014882314
0.014721313
0.014554892
0.014383275
0.014206695
0.014025398
0.013839637
0.013649675
0.013455783
0.013258239
0.013057325
0.01285333
0.012646542
0.012437255
0.01222576
0.01201235
0.011797313
0.011580935
0.011363499
0.011145278
0.010926543
0.010707555
0.010488568
0.010269824
0.010051558
0.0098339947
0.0096173456
0.0094018128
0.0091875867
0.0089748459
0.0087637579
0.0085544782
0.0083471515
0.008141911
0.0079388788
0.0077381665
0.0075398747
0.0073440936
0.0071509033
0.0069603737
0.0067725648
0.0065875275
0.0064053041
0.0062259287
0.015985431
0.015828636
0.015665746
0.015496946
0.015322448
0.015142477
0.01495727
0.014767075
0.014572152
0.014372769
0.014169204
0.013961745
0.013750683
0.013536316
0.013318945
0.013098874
0.012876409
0.012651854
0.012425512
0.012197684
0.011968665
0.011738747
0.011508214
0.011277342
0.011046401
0.01081565
0.010585339
0.010355707
0.010126981
0.0098993788
0.0096731052
0.0094483531
0.0092253035
0.0090041254
0.0087849758
0.0085679998
0.0083533307
0.0081410903
0.0079313887
0.0077243251
0.0075199874
0.0073184526
0.0071197874
0.0069240483
0.0067312823
0.0065415284
0.016747262
0.0165835
0.016413383
0.016237097
0.016054852
0.015866875
0.015673405
0.015474695
0.015271007
0.015062617
0.014849809
0.014632877
0.014412123
0.014187854
0.013960382
0.013730021
0.01349709
0.013261906
0.013024785
0.01278604
0.012545983
0.012304918
0.012063144
0.011820953
0.011578628
0.011336444
0.011094665
0.010853546
0.010613327
0.01037424
0.010136504
0.0099003253
0.0096658972
0.0094334012
0.0092030058
0.0089748673
0.0087491291
0.0085259227
0.0083053671
0.0080875696
0.0078726255
0.0076606186
0.0074516214
0.0072456957
0.0070428932
0.006843257
0.017473749
0.017303309
0.017126271
0.016942819
0.016753163
0.016557532
0.016356165
0.016149318
0.015937258
0.015720265
0.015498629
0.015272653
0.015042644
0.014808921
0.014571804
0.014331621
0.014088699
0.013843368
0.013595958
0.013346795
0.013096203
0.012844502
0.012592003
0.012339014
0.012085831
0.011832744
0.01158003
0.011327958
0.011076784
0.010826751
0.010578092
0.010331025
0.010085757
0.0098424793
0.0096013728
0.0093626035
0.0091263247
0.0088926766
0.0086617868
0.0084337701
0.0082087288
0.007986753
0.0077679208
0.0075522989
0.0073399432
0.0071309006
0.018165741
0.017988924
0.01780528
0.017614992
0.017418271
0.017215344
0.017006451
0.01679185
0.01657181
0.016346618
0.016116569
0.01588197
0.015643139
0.015400401
0.015154088
0.014904536
0.014652085
0.014397076
0.01413985
0.013880747
0.013620105
0.013358255
0.013095524
0.012832232
0.01256869
0.012305201
0.012042056
0.011779538
0.011517914
0.011257443
0.010998368
0.010740921
0.010485318
0.010231765
0.0099804503
0.0097315508
0.0094852289
0.0092416335
0.0090009
0.0087631504
0.0085284937
0.0082970259
0.0080688305
0.0078439787
0.0076225303
0.0074045359
0.01882404
0.018641151
0.018451219
0.018254432
0.018050995
0.017841133
0.017625087
0.017403116
0.017175492
0.016942505
0.016704454
0.016461654
0.01621443
0.015963114
0.015708046
0.015449574
0.015188048
0.01492382
0.014657242
0.014388668
0.014118447
0.013846924
0.013574439
0.013301325
0.013027907
0.0127545
0.01248141
0.012208931
0.011937345
0.011666922
0.011397918
0.011130575
0.010865123
0.010601775
0.010340733
0.01008218
0.0098262898
0.0095732184
0.0093231089
0.0090760903
0.0088322779
0.0085917732
0.0083546649
0.0081210286
0.0078909278
0.0076644164
0.019449467
0.019260803
0.019064907
0.018861955
0.01865215
0.018435714
0.018212887
0.017983928
0.017749111
0.017508729
0.017263087
0.017012503
0.016757309
0.016497846
0.016234462
0.015967514
0.01569736
0.015424365
0.015148893
0.014871308
0.014591971
0.014311241
0.01402947
0.013747004
0.01346418
0.013181328
0.012898766
0.012616799
0.012335724
0.012055821
0.011777358
0.011500589
0.011225755
0.010953078
0.01068277
0.010415025
0.010150023
0.0098879294
0.0096288937
0.009373052
0.0091205255
0.0088714213
0.0086258328
0.0083838399
0.0081455095
0.0079108988
0.020229411
0.02004286
0.019848744
0.019647206
0.019438421
0.01922259
0.018999933
0.018770689
0.018535116
0.018293491
0.018046108
0.017793276
0.017535319
0.017272573
0.017005387
0.016734117
0.016459127
0.016180787
0.01589947
0.015615552
0.015329408
0.015041411
0.014751931
0.014461332
0.014169975
0.013878207
0.013586372
0.013294799
0.013003807
0.012713702
0.012424779
0.012137316
0.011851578
0.011567816
0.011286263
0.011007138
0.010730647
0.010456976
0.010186299
0.0099187723
0.0096545386
0.0093937249
0.0091364435
0.0088827925
0.0086328558
0.0083867037
0.0081443962
0.020796717
0.020605187
0.02040591
0.020199035
0.019984736
0.019763211
0.019534676
0.019299369
0.019057548
0.018809489
0.018555489
0.018295859
0.018030928
0.017761038
0.017486543
0.017207806
0.016925201
0.016639105
0.016349902
0.016057977
0.015763715
0.015467503
0.01516972
0.014870744
0.014570945
0.014270686
0.013970319
0.013670186
0.013370619
0.013071937
0.012774442
0.012478426
0.012184164
0.011891916
0.011601926
0.011314423
0.011029619
0.01074771
0.010468875
0.01019328
0.0099210729
0.0096523857
0.0093873363
0.0091260271
0.008868546
0.0086149665
0.0083653515
0.021333706
0.021137444
0.02093328
0.020721361
0.020501856
0.020274957
0.020040875
0.019799847
0.019552129
0.019297998
0.019037751
0.018771703
0.018500186
0.018223546
0.017942143
0.017656349
0.017366541
0.017073109
0.016776443
0.016476938
0.016174991
0.015870997
0.015565348
0.015258432
0.014950631
0.014642319
0.014333861
0.01402561
0.013717908
0.013411086
0.013105458
0.012801325
0.012498972
0.01219867
0.011900673
0.011605216
0.011312521
0.011022791
0.010736214
0.010452961
0.010173186
0.0098970268
0.0096246061
0.0093560308
0.0090913924
0.0088307674
0.0085742213
0.021841405
0.021640649
0.021431867
0.021215189
0.020990773
0.020758806
0.020519496
0.020273075
0.020019798
0.019759943
0.019493806
0.019221705
0.018943976
0.018660967
0.018373046
0.018080587
0.017783978
0.017483614
0.017179895
0.016873226
0.016564011
0.016252656
0.015939564
0.015625134
0.015309758
0.014993822
0.0146777
0.014361759
0.014046351
0.013731816
0.013418479
0.013106653
0.012796632
0.012488696
0.012183106
0.01188011
0.011579934
0.011282791
0.010988874
0.010698361
0.010411412
0.01012817
0.0098487634
0.0095733019
0.0093018811
0.0090345805
0.0087714678
0.022517547
0.022320821
0.022115848
0.021902715
0.02168155
0.021452507
0.021215766
0.020971531
0.020720031
0.02046152
0.020196274
0.01992459
0.019646787
0.019363204
0.019074193
0.018780126
0.018481383
0.018178359
0.017871454
0.017561078
0.017247644
0.016931565
0.016613256
0.016293131
0.015971598
0.015649061
0.015325915
0.015002546
0.014679329
0.014356629
0.014034796
0.013714164
0.013395056
0.013077776
0.012762612
0.012449836
0.0121397
0.011832441
0.011528279
0.011227412
0.010930026
0.010636285
0.010346339
0.010060318
0.0097783387
0.0095004985
0.0092268801
0.0089575534
0.02297366
0.022773078
0.022564122
0.022346887
0.022121494
0.021888094
0.021646859
0.02139799
0.021141713
0.020878277
0.020607958
0.020331055
0.020047886
0.019758793
0.019464131
0.019164276
0.018859614
0.018550544
0.018237475
0.017920823
0.017601008
0.017278454
0.016953584
0.016626821
0.016298584
0.015969284
0.015639328
0.015309112
0.014979022
0.014649432
0.0143207
0.013993174
0.013667182
0.013343039
0.013021041
0.012701468
0.012384582
0.012070626
0.011759825
0.011452387
0.011148501
0.010848338
0.010552052
0.010259779
0.0099716367
0.0096877282
0.0094081379
0.0091329379
0.023403521
0.023199274
0.022986553
0.02276545
0.022536079
0.022298579
0.022053118
0.021799893
0.021539123
0.021271058
0.020995972
0.020714161
0.020425948
0.020131672
0.019831696
0.019526395
0.019216163
0.018901403
0.01858253
0.018259967
0.017934142
0.017605487
0.017274433
0.016941412
0.016606851
0.016271174
0.015934794
0.015598119
0.015261542
0.014925448
0.014590205
0.014256168
0.013923677
0.013593054
0.013264603
0.012938612
0.01261535
0.012295068
0.011977998
0.011664353
0.011354328
0.0110481
0.010745827
0.010447648
0.010153687
0.0098640494
0.0095788212
0.0092980766
0.023808211
0.023600483
0.023384215
0.023159473
0.022926359
0.022685006
0.022435575
0.022178256
0.021913267
0.021640855
0.02136129
0.021074871
0.020781919
0.020482775
0.020177804
0.019867386
0.019551917
0.019231806
0.018907474
0.01857935
0.01824787
0.017913471
0.017576595
0.017237681
0.016897165
0.016555479
0.016213046
0.015870283
0.015527592
0.015185366
0.014843984
0.014503809
0.014165188
0.013828452
0.013493915
0.01316187
0.012832594
0.012506345
0.012183361
0.01186386
0.011548044
0.011236094
0.010928173
0.010624425
0.010324976
0.010029935
0.0097393908
0.0094534187
0.024391064
0.02418874
0.023977774
0.023758177
0.023530016
0.023293385
0.023048412
0.022795253
0.022534092
0.022265144
0.021988652
0.021704886
0.021414142
0.021116742
0.020813029
0.020503369
0.020188145
0.019867758
0.019542621
0.01921316
0.018879809
0.018543012
0.018203214
0.017860862
0.017516404
0.017170285
0.016822944
0.016474814
0.016126318
0.015777871
0.015429871
0.015082707
0.01473675
0.014392356
0.014049862
0.01370959
0.013371841
0.013036899
0.012705027
0.01237647
0.012051452
0.01173018
0.011412839
0.011099596
0.0107906
0.010485981
0.010185851
0.0098903001
0.009599406
0.024751525
0.024546239
0.024332225
0.024109499
0.023878125
0.023638192
0.023389823
0.023133166
0.022868402
0.022595741
0.022315424
0.022027718
0.02173292
0.021431349
0.021123352
0.020809294
0.020489563
0.020164561
0.019834706
0.01950043
0.019162173
0.018820383
0.018475512
0.018128015
0.017778348
0.017426962
0.017074305
0.016720818
0.016366933
0.016013071
0.015659641
0.015307038
0.01495564
0.014605813
0.014257901
0.013912232
0.013569116
0.013228841
0.012891677
0.012557875
0.012227664
0.011901256
0.011578841
0.01126059
0.010946656
0.010637172
0.010332253
0.010031993
0.0097364718
0.025089876
0.024881779
0.024664892
0.024439223
0.024204831
0.0239618
0.023710244
0.023450309
0.023182168
0.022906029
0.022622129
0.022330733
0.022032137
0.02172666
0.021414648
0.02109647
0.020772514
0.020443186
0.020108909
0.019770118
0.019427258
0.019080784
0.018731153
0.018378828
0.01802427
0.017667939
0.01731029
0.016951772
0.016592824
0.016233875
0.015875342
0.015517627
0.015161117
0.014806184
0.014453179
0.014102437
0.013754275
0.013408986
0.013066847
0.012728114
0.012393022
0.012061786
0.0117346
0.011411641
0.011093064
0.010779007
0.010469587
0.010164903
0.0098650386
0.025407149
0.025196394
0.024976801
0.024748366
0.024511141
0.024265205
0.024010664
0.023747657
0.023476355
0.023196961
0.022909707
0.022614858
0.022312707
0.022003574
0.021687805
0.02136577
0.021037858
0.02070448
0.02036606
0.020023039
0.019675866
0.019325002
0.018970909
0.018614057
0.018254913
0.017893944
0.017531612
0.017168373
0.016804674
0.016440952
0.016077629
0.015715116
0.015353807
0.014994079
0.014636292
0.014280788
0.013927886
0.01357789
0.01323108
0.012887716
0.012548039
0.012212269
0.011880604
0.011553223
0.011230287
0.010911934
0.010598287
0.010289448
0.0099855112
0.025704351
0.025491093
0.025268953
0.025037921
0.024798039
0.02454938
0.024292043
0.024026162
0.023751903
0.023469464
0.023179075
0.022880997
0.022575523
0.022262972
0.021943689
0.021618046
0.021286435
0.020949267
0.020606971
0.020259991
0.019908782
0.019553806
0.019195535
0.018834443
0.018471003
0.018105688
0.017738968
0.017371305
0.017003153
0.016634955
0.016267141
0.015900129
0.015534319
0.015170096
0.014807825
0.014447852
0.014090507
0.013736095
0.013384902
0.013037195
0.012693218
0.012353195
0.012017327
0.011685799
0.011358773
0.01103639
0.010718776
0.010406033
0.010098243
0.0097954916
0.025982466
0.025766852
0.02554232
0.02530885
0.025066479
0.02481527
0.024555318
0.02428675
0.024009727
0.023724443
0.023431125
0.023130032
0.022821454
0.022505709
0.022183145
0.021854131
0.021519062
0.021178353
0.020832434
0.020481752
0.020126768
0.019767948
0.019405768
0.019040708
0.018673248
0.018303866
0.017933039
0.017561233
0.017188911
0.016816522
0.016444503
0.016073277
0.015703251
0.015334816
0.014968343
0.014604186
0.014242676
0.013884127
0.013528829
0.013177052
0.012829045
0.012485037
0.012145232
0.011809818
0.011478959
0.0111528
0.010831466
0.010515062
0.01020367
0.0098973527
0.026242447
0.02602462
0.025797843
0.025562088
0.025317386
0.025063792
0.024801396
0.024530318
0.024250715
0.023962776
0.023666724
0.023362817
0.023051343
0.022732619
0.022406991
0.022074831
0.021736535
0.021392519
0.021043217
0.020689078
0.020330567
0.019968155
0.019602323
0.019233555
0.018862337
0.018489152
0.018114483
0.017738805
0.017362582
0.016986273
0.016610319
0.016235151
0.01586118
0.015488804
0.0151184
0.014750325
0.014384919
0.014022497
0.013663357
0.013307771
0.012955994
0.012608255
0.012264766
0.011925715
0.011591269
0.011261575
0.010936761
0.010616931
0.010302167
0.0099925352
0.02648522
0.026265316
0.026036433
0.025798538
0.025551655
0.025295833
0.025031155
0.024757736
0.024475726
0.024185311
0.023886712
0.023580181
0.023266007
0.022944505
0.022616022
0.022280929
0.021939623
0.021592523
0.021240064
0.020882701
0.020520899
0.020155135
0.019785893
0.019413663
0.019038935
0.0186622
0.018283943
0.017904645
0.017524779
0.017144807
0.016765177
0.016386323
0.016008666
0.015632607
0.015258527
0.014886792
0.014517742
0.014151701
0.013788968
0.013429822
0.01307452
0.012723295
0.012376361
0.01203391
0.011696111
0.011363114
0.011035046
0.010712015
0.010394104
0.010081381
0.026711677
0.026489824
0.026258968
0.02601907
0.02577015
0.025512249
0.025245442
0.024969841
0.024685589
0.024392869
0.024091896
0.023782924
0.023466235
0.023142147
0.022811004
0.022473179
0.02212907
0.021779097
0.021423697
0.021063328
0.020698458
0.020329569
0.019957148
0.019581689
0.019203688
0.01882364
0.018442036
0.018059362
0.017676095
0.017292704
0.016909642
0.016527349
0.016146251
0.015766752
0.015389242
0.015014088
0.014641637
0.014272216
0.013906129
0.013543659
0.013185065
0.012830585
0.012480435
0.012134809
0.01179388
0.011457799
0.011126694
0.010800676
0.010479829
0.010164225
0.026922677
0.026698996
0.026466292
0.026224524
0.025973702
0.025713862
0.025445074
0.025167441
0.024881104
0.024586239
0.024283059
0.023971815
0.023652788
0.023326294
0.022992677
0.022652311
0.022305593
0.021952945
0.021594809
0.021231641
0.020863915
0.020492115
0.020116734
0.019738267
0.019357217
0.018974082
0.018589358
0.018203537
0.017817101
0.017430523
0.017044262
0.016658763
0.016274455
0.01589175
0.01551104
0.015132698
0.014757075
0.014384503
0.014015288
0.013649717
0.013288053
0.012930537
0.012577388
0.012228803
0.011884955
0.011545998
0.011212063
0.010883261
0.010559679
0.010241387
0.027119048
0.026893652
0.026659218
0.026415703
0.02616311
0.025901467
0.025630836
0.025351315
0.025063039
0.024766181
0.024460952
0.024147597
0.023826398
0.023497668
0.023161753
0.022819025
0.022469882
0.022114749
0.021754067
0.021388298
0.021017916
0.020643409
0.020265273
0.019884008
0.01950012
0.019114112
0.018726485
0.018337735
0.017948348
0.017558802
0.017169562
0.016781077
0.01639378
0.016008089
0.015624399
0.015243088
0.014864511
0.014489002
0.014116874
0.013748415
0.013383892
0.013023549
0.012667607
0.012316265
0.011969699
0.011628064
0.011291494
0.010960101
0.010633971
0.010313179
0.027301582
0.027074575
0.026838525
0.026593382
0.026339141
0.026075823
0.025803481
0.025522207
0.025232133
0.024933426
0.024626294
0.024310981
0.023987767
0.023656963
0.023318914
0.022973993
0.022622601
0.02226516
0.021902115
0.021533929
0.02116108
0.020784058
0.020403362
0.020019498
0.019632972
0.019244294
0.018853968
0.018462494
0.018070364
0.017678059
0.017286048
0.016894785
0.016504709
0.01611624
0.015729778
0.015345705
0.01496438
0.01458614
0.014211301
0.013840156
0.013472973
0.01311
0.01275146
0.012397554
0.01204846
0.011704336
0.011365316
0.011031513
0.010703016
0.010379898
0.027471037
0.027242517
0.027004956
0.0267583
0.026502531
0.026237659
0.025963731
0.025680834
0.025389092
0.025088672
0.024779778
0.02446265
0.024137568
0.023804842
0.023464816
0.023117863
0.022764384
0.022404803
0.022039566
0.021669139
0.021294002
0.020914647
0.020531576
0.020145299
0.019756325
0.019365168
0.018972336
0.018578333
0.018183655
0.017788788
0.017394204
0.017000362
0.016607704
0.016216654
0.015827617
0.015440978
0.015057099
0.014676323
0.014298966
0.013925324
0.013555671
0.013190254
0.012829301
0.012473013
0.012121573
0.011775136
0.011433841
0.011097801
0.010767105
0.010441828
0.027628132
0.027398192
0.027159223
0.026911165
0.026653982
0.026387673
0.026112278
0.025827878
0.025534594
0.025232589
0.024922064
0.024603258
0.024276447
0.023941942
0.023600085
0.023251251
0.02289584
0.022534278
0.022167012
0.021794509
0.021417251
0.021035734
0.020650463
0.020261949
0.019870706
0.019477251
0.019082096
0.018685748
0.018288708
0.017891464
0.017494494
0.017098259
0.016703206
0.016309762
0.015918337
0.015529317
0.01514307
0.014759939
0.014380246
0.014004289
0.013632344
0.013264661
0.012901469
0.012542972
0.012189354
0.011840774
0.011497369
0.011159254
0.010826521
0.010499241
0.027773545
0.027542273
0.027302006
0.027052656
0.026794167
0.026526532
0.026249782
0.025963995
0.025669287
0.025365818
0.025053786
0.024733428
0.02440502
0.02406887
0.023725323
0.023374749
0.023017552
0.022654158
0.022285015
0.021910591
0.021531372
0.021147855
0.020760547
0.020369963
0.019976621
0.019581039
0.019183733
0.018785214
0.018385986
0.017986541
0.017587361
0.01718891
0.016791638
0.016395977
0.016002339
0.015611114
0.015222673
0.014837361
0.014455504
0.014077402
0.013703333
0.013333551
0.012968285
0.012607743
0.012252109
0.011901543
0.011556185
0.011216151
0.01088153
0.010552397
0.027907892
0.0276754
0.027433953
0.027183418
0.026923731
0.026654874
0.026376876
0.02608981
0.025793788
0.025488968
0.025175546
0.024853758
0.024523876
0.024186209
0.0238411
0.023488921
0.023130075
0.022764989
0.022394113
0.022017916
0.021636885
0.021251521
0.020862331
0.020469835
0.020074551
0.019677003
0.019277709
0.018877183
0.018475932
0.018074452
0.017673228
0.017272728
0.016873405
0.016475693
0.016080008
0.015686744
0.015296272
0.014908944
0.014525085
0.014144999
0.013768966
0.013397242
0.013030058
0.012667625
0.012310126
0.011957725
0.011610562
0.011268753
0.010932389
0.010601542
0.028678898
0.02847208
0.02825645
0.028031721
0.027798197
0.027555688
0.027304074
0.027043287
0.026773307
0.026494162
0.026205918
0.025908687
0.025602624
0.025287922
0.024964815
0.024633576
0.024294511
0.023947963
0.023594306
0.02323394
0.022867294
0.02249482
0.022116988
0.021734287
0.021347218
0.020956293
0.020562031
0.020164957
0.019765595
0.019364465
0.018962087
0.018558969
0.018155611
0.0177525
0.017350108
0.01694889
0.016549285
0.01615171
0.015756562
0.015364216
0.014975025
0.014589318
0.0142074
0.013829553
0.013456036
0.013087081
0.012722901
0.012363682
0.012009587
0.011660758
0.011317313
0.01097934
0.010646913
0.028994998
0.028795643
0.028587845
0.028371264
0.028145727
0.027911284
0.027667814
0.027415214
0.02715342
0.026882412
0.026602212
0.026312887
0.026014545
0.025707339
0.025391461
0.025067142
0.024734654
0.024394304
0.024046433
0.023691415
0.023329651
0.02296157
0.022587625
0.022208288
0.021824049
0.02143541
0.021042887
0.020647001
0.020248277
0.019847243
0.019444424
0.019040338
0.0186355
0.018230411
0.017825561
0.017421424
0.017018461
0.01661711
0.016217793
0.015820909
0.015426835
0.015035927
0.014648515
0.014264908
0.01388539
0.013510219
0.013139633
0.012773843
0.012413038
0.012057383
0.01170702
0.011362067
0.011022615
0.010688733
0.029103199
0.028902986
0.028694298
0.028476864
0.028250533
0.028015248
0.027770903
0.027517404
0.02725469
0.026982739
0.026701573
0.026411257
0.026111897
0.025803642
0.025486684
0.025161254
0.02482762
0.02448609
0.024137005
0.023780737
0.023417689
0.02304829
0.022672994
0.022292274
0.021906621
0.021516541
0.021122549
0.020725168
0.020324928
0.019922358
0.019517983
0.019112328
0.018705908
0.018299226
0.017892776
0.017487036
0.017082466
0.016679509
0.016278589
0.015880107
0.015484444
0.015091955
0.014702976
0.014317814
0.013936758
0.013560066
0.013187978
0.012820708
0.012458444
0.012101354
0.011749581
0.011403244
0.011062431
0.010727214
0.029202564
0.029001513
0.028792007
0.028573791
0.028346705
0.028110645
0.027865501
0.027611181
0.027347626
0.027074814
0.026792766
0.026501542
0.02620125
0.025892036
0.025574089
0.02524764
0.024912957
0.024570346
0.024220148
0.023862735
0.02349851
0.023127904
0.022751369
0.022369381
0.021982432
0.021591029
0.021195689
0.020796939
0.020395307
0.019991326
0.019585525
0.01917843
0.018770557
0.018362413
0.017954495
0.017547282
0.017141237
0.016736806
0.016334414
0.015934465
0.015537341
0.015143402
0.014752982
0.014366393
0.013983924
0.013605836
0.013232369
0.012863739
0.012500136
0.01214173
0.011788663
0.011441057
0.011098999
0.010762559
0.029293596
0.02909176
0.0288815
0.028662561
0.028434771
0.028197997
0.027952122
0.027697054
0.027432733
0.027159136
0.026876281
0.02658423
0.026283086
0.025972996
0.025654146
0.025326767
0.024991125
0.024647526
0.02429631
0.023937851
0.02357255
0.023200838
0.022823171
0.022440023
0.022051888
0.021659274
0.021262701
0.020862696
0.020459791
0.020054519
0.019647411
0.019238996
0.018829793
0.018420311
0.018011047
0.017602485
0.017195089
0.016789306
0.016385566
0.015984272
0.015585811
0.015190542
0.014798802
0.014410906
0.014027141
0.013647774
0.013273044
0.012903168
0.012538339
0.012178727
0.011824477
0.011475709
0.011132514
0.010794958
0.029376786
0.029174225
0.028963273
0.028743668
0.028515226
0.028277797
0.028031256
0.027775507
0.027510488
0.027236176
0.026952588
0.026659783
0.026357864
0.026046975
0.025727302
0.025399075
0.025062559
0.02471806
0.024365916
0.024006502
0.023640219
0.0232675
0.022888798
0.022504592
0.022115374
0.021721655
0.021323956
0.020922805
0.020518737
0.020112285
0.019703984
0.019294364
0.018883945
0.01847324
0.018062747
0.017652951
0.01724432
0.016837303
0.016432329
0.016029807
0.015630122
0.015233638
0.014840692
0.0144516
0.014066652
0.013686114
0.013310229
0.012939215
0.012573265
0.012212551
0.01185722
0.011507395
0.011163164
0.010824592
0.029452605
0.029249382
0.029037797
0.028817581
0.028588541
0.028350513
0.028103365
0.027846997
0.027581345
0.027306384
0.02702213
0.026728641
0.026426017
0.026114402
0.025793982
0.025464984
0.025127673
0.024782355
0.024429368
0.024069085
0.023701909
0.023328272
0.02294863
0.02256346
0.022173257
0.021778532
0.021379807
0.020977612
0.020572484
0.020164958
0.01975557
0.019344851
0.018933325
0.018521504
0.018109891
0.017698971
0.017289214
0.016881071
0.016474974
0.016071331
0.015670531
0.015272938
0.014878892
0.01448871
0.014102683
0.013721078
0.01334414
0.012972088
0.012605116
0.012243398
0.011887083
0.011536294
0.011191124
0.010851635
0.029521504
0.029317678
0.029105518
0.028884745
0.028655159
0.028416587
0.028168888
0.027911958
0.027645733
0.027370184
0.027085327
0.026791218
0.026487956
0.026175684
0.025854587
0.02552489
0.025186859
0.024840798
0.024487046
0.024125975
0.02375799
0.023383521
0.023003025
0.02261698
0.022225882
0.021830244
0.021430588
0.021027446
0.020621355
0.020212853
0.019802477
0.01939076
0.018978227
0.018565393
0.018152762
0.01774082
0.01733004