/*--------------------------------*- C++ -*----------------------------------*\
| =========                 |                                                 |
| \\      /  F ield         | OpenFOAM: The Open Source CFD Toolbox           |
|  \\    /   O peration     | Version:  2312                                  |
|   \\  /    A nd           | Website:  www.openfoam.com                      |
|    \\/     M anipulation  |                                                 |
\*---------------------------------------------------------------------------*/
FoamFile
{
    version     2.0;
    format      ascii;
    arch        "LSB;label=32;scalar=64";
    class       volScalarField;
    location    "0.07";
    object      f_Bilger;
}
// * * * * * * * * * * * * * * * * * * * * * * * * * * * * * * * * * * * * * //

dimensions      [0 0 0 0 0 0 0];

internalField   nonuniform List<scalar> 
3250
(
0.011017975
0.010876113
0.010729808
0.010579512
0.010425559
0.010268275
0.010107995
0.0099450689
0.0097798477
0.0096126773
0.0094438932
0.0092738172
0.0091027563
0.0089310026
0.0087588331
0.0085865096
0.0084142781
0.0082423649
0.0080709619
0.0079001628
0.0077297018
0.0075578692
0.0073770221
0.0071549903
0.0067579669
0.0056311026
0.0050733274
0.0043242317
0.0038363217
0.0033522166
0.002967983
0.0026136981
0.0023192521
0.0020891593
0.0019021953
0.0017460561
0.0016114864
0.0014937918
0.001389552
0.0012965435
0.0012129878
0.0011375378
0.0010691178
0.0010068995
0.011874017
0.011703115
0.011528449
0.01135045
0.011169456
0.010985795
0.010799806
0.010611835
0.010422227
0.010231322
0.010039448
0.009846921
0.0096540406
0.0094610924
0.0092683465
0.0090760581
0.0088844667
0.0086937945
0.00850424
0.0083159532
0.0081289474
0.00794279
0.0077555877
0.0075610015
0.0073413836
0.0070644561
0.006794466
0.0064879844
0.0061899815
0.0058760698
0.0055662388
0.005253696
0.004955571
0.0046819082
0.0044293175
0.0041946102
0.0039746464
0.0037678413
0.0035730666
0.0033895898
0.0032167591
0.0030540196
0.0029008852
0.0027569459
0.013376041
0.013157173
0.012935454
0.012711302
0.012485075
0.012257123
0.012027796
0.01179745
0.011566434
0.01133509
0.011103748
0.010872723
0.010642315
0.010412808
0.010184471
0.0099575572
0.0097323037
0.0095089301
0.0092876376
0.0090686007
0.0088519437
0.0086376702
0.008425485
0.0082144322
0.0080024869
0.0077867839
0.0075694897
0.007347107
0.0071222384
0.0068922075
0.0066589062
0.0064224572
0.0061873057
0.0059571156
0.0057324652
0.0055133503
0.0052995587
0.0050911757
0.0048883631
0.0046913585
0.0045003724
0.0043155947
0.0041371855
0.0039652965
0.015292516
0.015017482
0.014740309
0.014461435
0.014181265
0.013900193
0.013618609
0.013336898
0.013055437
0.012774591
0.01249471
0.012216128
0.011939163
0.011664117
0.011391271
0.011120892
0.010853227
0.010588504
0.010326935
0.010068709
0.0098139932
0.009562913
0.0093155252
0.0090717654
0.0088314334
0.0085941866
0.0083598627
0.0081279144
0.0078981401
0.0076699489
0.0074432409
0.007218016
0.006995044
0.0067750996
0.0065584563
0.0063452219
0.0061354519
0.0059292685
0.0057268309
0.0055283323
0.0053339704
0.0051439379
0.0049584031
0.0047775337
0.017422434
0.017090974
0.016757684
0.016423054
0.016087557
0.015751654
0.015415794
0.015080416
0.014745947
0.014412796
0.014081356
0.013752002
0.013425089
0.013100955
0.012779913
0.012462261
0.012148272
0.0118382
0.011532277
0.011230713
0.010933698
0.010641394
0.010353937
0.01007142
0.009793897
0.0095213716
0.0092538097
0.0089911067
0.0087331378
0.0084797261
0.0082307398
0.0079860994
0.0077458546
0.0075100763
0.0072787669
0.0070518983
0.0068294364
0.0066113666
0.0063976931
0.006188439
0.0059836391
0.0057833315
0.0055875396
0.0053962889
0.019621566
0.019237487
0.018851513
0.018464205
0.018076111
0.017687767
0.017299691
0.016912391
0.016526353
0.016142048
0.015759926
0.015380416
0.015003925
0.01463084
0.014261523
0.013896314
0.013535526
0.01317945
0.012828353
0.012482474
0.012142032
0.011807218
0.011478196
0.011155107
0.010838058
0.010527128
0.010222362
0.0099237701
0.0096313315
0.0093449992
0.009064716
0.0087904248
0.0085220811
0.0082596389
0.0080030382
0.007752209
0.0075070776
0.0072675718
0.0070336237
0.0068051711
0.0065821561
0.0063645213
0.0061521984
0.0059451154
0.021803019
0.02137113
0.020937054
0.02050142
0.020064848
0.019627944
0.019191298
0.018755483
0.018321051
0.017888536
0.017458449
0.017031279
0.016607492
0.01618753
0.015771807
0.015360712
0.014954607
0.014553828
0.01415868
0.013769443
0.013386369
0.01300968
0.012639572
0.012276213
0.011919743
0.011570273
0.011227885
0.010892634
0.010564547
0.010243627
0.0099298601
0.0096232162
0.0093236558
0.0090311284
0.008745572
0.0084669148
0.0081950766
0.0079299713
0.0076715083
0.0074195944
0.0071741343
0.006935029
0.0067021703
0.0064754421
0.023923531
0.023448011
0.022969926
0.022489968
0.022008817
0.021527141
0.021045591
0.0205648
0.020085382
0.01960793
0.019133014
0.018661182
0.018192953
0.017728825
0.017269264
0.01681471
0.016365573
0.015922233
0.015485039
0.015054312
0.01463034
0.01421338
0.013803662
0.013401383
0.013006711
0.012619786
0.012240717
0.011869586
0.011506451
0.011151342
0.010804271
0.010465229
0.010134191
0.0098111159
0.009495951
0.009188629
0.0088890719
0.0085971913
0.0083128902
0.0080360644
0.007766603
0.0075043891
0.0072492975
0.0070011928
0.025966744
0.025450669
0.024931663
0.024410466
0.02388781
0.023364415
0.022840984
0.022318203
0.021796739
0.021277238
0.020760322
0.02024659
0.019736615
0.019230941
0.018730084
0.018234531
0.017744736
0.017261124
0.016784084
0.016313976
0.015851125
0.015395824
0.014948333
0.014508881
0.014077665
0.013654849
0.013240571
0.012834935
0.012438023
0.012049887
0.011670557
0.011300042
0.01093833
0.010585391
0.010241179
0.0099056338
0.0095786788
0.0092602261
0.0089501759
0.0086484185
0.008354835
0.0080692982
0.0077916728
0.0075218129
0.029025994
0.028480325
0.027929846
0.027375334
0.026817576
0.026257354
0.025695444
0.025132607
0.024569591
0.024007129
0.023445933
0.022886695
0.022330084
0.021776745
0.021227293
0.020682319
0.020142383
0.019608012
0.019079702
0.018557916
0.018043083
0.017535598
0.01703582
0.016544075
0.016060654
0.015585815
0.01511978
0.014662742
0.01421486
0.013776261
0.013347048
0.01292729
0.012517036
0.012116306
0.011725103
0.011343405
0.010971173
0.01060835
0.010254863
0.009910624
0.0095755314
0.009249471
0.008932318
0.0086239374
0.0083241858
0.0080329087
0.030984249
0.03040228
0.029815168
0.02922373
0.028628788
0.028031162
0.027431663
0.026831091
0.026230236
0.025629868
0.025030741
0.024433588
0.023839119
0.023248019
0.022660945
0.022078526
0.021501361
0.020930016
0.020365024
0.019806882
0.019256055
0.018712969
0.018178017
0.017651553
0.017133897
0.016625334
0.01612611
0.015636441
0.015156509
0.01468646
0.014226415
0.01377646
0.013336657
0.012907041
0.012487622
0.012078388
0.011679304
0.011290318
0.010911359
0.010542337
0.010183149
0.0098336774
0.0094937914
0.0091633493
0.0088421998
0.0085301802
0.032865779
0.032248605
0.031626014
0.030998858
0.03036799
0.02973426
0.029098515
0.02846159
0.027824309
0.02718748
0.026551895
0.025918324
0.025287514
0.024660188
0.02403704
0.023418735
0.022805907
0.022199157
0.021599053
0.021006124
0.020420866
0.019843737
0.019275156
0.018715507
0.018165135
0.017624348
0.017093418
0.016572579
0.016062032
0.015561945
0.01507245
0.01459365
0.01412562
0.013668403
0.01322202
0.012786463
0.012361704
0.011947692
0.011544356
0.011151608
0.01076934
0.010397432
0.010035747
0.0096841367
0.0093424423
0.0090104928
0.034673423
0.034022078
0.033365083
0.032703318
0.032037666
0.031369009
0.030698225
0.030026181
0.029353735
0.028681729
0.028010991
0.027342325
0.026676514
0.026014315
0.025356459
0.024703643
0.024056536
0.023415771
0.022781946
0.022155624
0.021537329
0.020927546
0.020326723
0.019735268
0.01915355
0.0185819
0.01802061
0.017469935
0.016930093
0.016401267
0.015883603
0.015377219
0.014882198
0.014398593
0.013926431
0.01346571
0.013016406
0.012578469
0.012151829
0.011736395
0.011332057
0.01093869
0.010556153
0.01018429
0.009822935
0.0094719083
0.036408963
0.035724509
0.0350342
0.034338941
0.033639642
0.032937217
0.03223257
0.031526604
0.030820206
0.030114253
0.029409602
0.028707095
0.028007545
0.027311746
0.026620459
0.025934415
0.025254316
0.024580825
0.023914571
0.023256145
0.0226061
0.021964948
0.021333163
0.020711176
0.02009938
0.019498125
0.018907725
0.01832845
0.017760537
0.017204181
0.016659543
0.016126751
0.015605897
0.015097043
0.01460022
0.014115433
0.013642657
0.013181846
0.012732926
0.012295807
0.011870376
0.011456501
0.011054037
0.010662821
0.010282679
0.0099134236
0.038073485
0.03735704
0.036634553
0.035906953
0.03517518
0.03444017
0.033702861
0.032964181
0.03222505
0.031486375
0.030749047
0.030013936
0.029281892
0.028553737
0.027830266
0.027112242
0.026400396
0.025695423
0.024997981
0.02430869
0.023628127
0.022956834
0.022295306
0.021644
0.021003328
0.020373663
0.019755334
0.019148632
0.018553805
0.017971064
0.017400582
0.016842495
0.016296906
0.015763882
0.01524346
0.014735647
0.014240422
0.013757737
0.013287519
0.012829674
0.012384086
0.011950619
0.01152912
0.011119422
0.010721342
0.010334684
0.039667763
0.038920492
0.038167008
0.037408265
0.036645225
0.035878852
0.035110108
0.03433995
0.033569327
0.032799175
0.032030416
0.031263951
0.030500659
0.029741395
0.028986984
0.028238219
0.027495863
0.026760637
0.02603323
0.025314288
0.024604417
0.02390418
0.023214099
0.022534652
0.021866273
0.021209352
0.020564239
0.019931238
0.019310614
0.018702589
0.018107349
0.017525038
0.016955766
0.016399607
0.015856604
0.015326764
0.01481007
0.014306472
0.013815897
0.013338247
0.012873403
0.012421225
0.011981553
0.011554212
0.011139013
0.010735752
0.041192529
0.040415628
0.03963236
0.0388437
0.038050631
0.03725414
0.036455215
0.035654837
0.034853983
0.034053617
0.033254689
0.03245813
0.03166485
0.030875731
0.030091628
0.029313366
0.028541733
0.027777483
0.027021329
0.026273945
0.025535962
0.024807968
0.024090508
0.023384081
0.022689142
0.022006101
0.021335323
0.020677129
0.020031796
0.019399561
0.018780618
0.018175122
0.01758319
0.017004901
0.016440301
0.015889403
0.015352187
0.014828605
0.014318582
0.013822018
0.013338789
0.01286875
0.012411736
0.011967565
0.01153604
0.011116949
0.042648621
0.041843299
0.041031477
0.040214143
0.039392299
0.038566951
0.03773911
0.036909783
0.03607997
0.035250662
0.034422837
0.033597453
0.032775448
0.031957733
0.031145192
0.030338677
0.029539005
0.028746956
0.027963271
0.027188648
0.026423745
0.025669174
0.0249255
0.024193244
0.023472881
0.02276484
0.022069501
0.021387201
0.020718231
0.020062839
0.01942123
0.018793566
0.018179972
0.017580534
0.016995299
0.016424284
0.015867469
0.015324808
0.014796222
0.014281608
0.013780839
0.013293764
0.012820214
0.01236
0.011912917
0.011478746
0.044861916
0.044037029
0.043204523
0.042365385
0.041520623
0.040671257
0.039818314
0.038962825
0.038105818
0.037248319
0.036391342
0.035535891
0.03468295
0.033833484
0.032988431
0.032148702
0.031315176
0.030488697
0.029670072
0.028860066
0.028059403
0.027268765
0.026488786
0.025720054
0.024963111
0.024218449
0.023486515
0.022767706
0.022062374
0.021370823
0.020693311
0.020030054
0.019381223
0.018746948
0.018127321
0.017522393
0.016932183
0.016356672
0.015795813
0.015249526
0.014717705
0.014200219
0.013696913
0.013207611
0.012732118
0.012270223
0.011821697
0.046209723
0.045358995
0.044500514
0.043635284
0.04276433
0.041888689
0.041009404
0.040127525
0.039244101
0.038360178
0.037476796
0.036594981
0.035715742
0.034840068
0.033968926
0.03310325
0.032243946
0.031391883
0.030547893
0.029712767
0.028887253
0.028072054
0.027267827
0.026475181
0.025694678
0.024926829
0.024172097
0.023430896
0.022703591
0.021990499
0.021291889
0.020607986
0.01993897
0.019284977
0.018646104
0.018022407
0.017413904
0.016820581
0.016242386
0.015679241
0.015131036
0.014597636
0.014078881
0.013574591
0.013084563
0.01260858
0.012146406
0.047491324
0.046615924
0.045732659
0.044842546
0.043946621
0.043045933
0.042141542
0.041234515
0.040325918
0.03941682
0.038508279
0.037601345
0.03669705
0.035796408
0.034900408
0.034010011
0.033126146
0.032249707
0.031381549
0.030522487
0.029673293
0.028834691
0.02800736
0.027191929
0.026388979
0.025599039
0.024822588
0.024060055
0.023311819
0.022578208
0.021859504
0.021155941
0.020467705
0.019794939
0.019137746
0.018496183
0.017870273
0.017259999
0.016665313
0.016086133
0.015522347
0.014973816
0.014440376
0.013921841
0.013418003
0.012928637
0.012453501
0.04870829
0.047809368
0.046902495
0.04598869
0.045068993
0.044144468
0.043216185
0.042285228
0.041352682
0.040419632
0.039487157
0.038556327
0.037628198
0.036703804
0.035784157
0.034870242
0.033963012
0.033063382
0.032172233
0.0312904
0.030418677
0.029557811
0.0287085
0.027871393
0.027047089
0.026236133
0.025439022
0.024656198
0.023888053
0.023134928
0.022397115
0.021674856
0.020968345
0.020277732
0.019603123
0.018944579
0.018302126
0.017675747
0.017065394
0.016470982
0.015892398
0.015329499
0.014782117
0.01425006
0.013733116
0.013231052
0.012743621
0.05077453
0.04986229
0.048941012
0.048011693
0.047075361
0.046133069
0.045185887
0.044234902
0.043281209
0.04232591
0.041370106
0.040414895
0.039461367
0.038510596
0.03756364
0.036621532
0.035685277
0.034755851
0.033834193
0.032921203
0.032017739
0.031124616
0.030242599
0.029372409
0.028514711
0.027670121
0.026839203
0.026022468
0.025220371
0.024433318
0.023661661
0.022905701
0.022165689
0.021441827
0.02073427
0.020043128
0.019368468
0.018710314
0.018068653
0.017443435
0.016834574
0.016241955
0.015665431
0.01510483
0.014559955
0.014030588
0.013516492
0.01301741
0.051888578
0.050955185
0.050012666
0.049062029
0.04810431
0.047140569
0.046171886
0.045199358
0.044224093
0.043247206
0.042269816
0.041293038
0.040317978
0.039345731
0.038377373
0.037413959
0.036456514
0.035506034
0.03456348
0.033629771
0.032705788
0.031792364
0.030890285
0.030000288
0.029123058
0.028259226
0.027409374
0.026574024
0.025753648
0.024948662
0.02415943
0.023386261
0.022629416
0.021889102
0.021165482
0.020458668
0.019768731
0.019095698
0.018439555
0.017800252
0.017177703
0.016571789
0.015982361
0.015409242
0.014852231
0.014311105
0.01378562
0.013275515
0.05294238
0.051988896
0.051026219
0.050055362
0.049077365
0.048093292
0.047104231
0.046111288
0.045115583
0.044118244
0.043120405
0.042123195
0.041127738
0.040135147
0.039146516
0.038162919
0.037185401
0.036214978
0.035252628
0.034299294
0.033355873
0.032423218
0.031502134
0.030593374
0.029697641
0.028815583
0.027947794
0.027094814
0.026257124
0.025435153
0.024629276
0.023839811
0.023067025
0.022311135
0.021572306
0.020850656
0.020146258
0.019459142
0.018789294
0.018136664
0.017501164
0.016882673
0.016281039
0.015696082
0.015127596
0.014575352
0.014039101
0.013518576
0.053937933
0.052965389
0.051983616
0.050993611
0.049996414
0.048993094
0.047984746
0.046972484
0.045957437
0.044940748
0.043923561
0.042907021
0.041892268
0.040880431
0.039872622
0.038869932
0.037873425
0.036884134
0.035903059
0.034931158
0.033969348
0.0330185
0.032079436
0.031152926
0.03023969
0.029340389
0.028455634
0.027585975
0.026731908
0.025893873
0.025072253
0.024267375
0.023479515
0.022708895
0.021955686
0.02122001
0.020501942
0.019801513
0.019118712
0.018453488
0.01780575
0.017175377
0.016562214
0.015966076
0.015386752
0.01482401
0.014277594
0.013747233
0.055857533
0.054877228
0.053886683
0.052886851
0.051878739
0.050863389
0.049841874
0.048815295
0.047784774
0.04675145
0.045716476
0.044681008
0.043646205
0.042613221
0.041583201
0.040557273
0.039536544
0.038522097
0.037514981
0.036516214
0.035526771
0.034547588
0.033579551
0.032623499
0.03168022
0.030750447
0.029834857
0.028934072
0.028048658
0.02717912
0.02632591
0.025489419
0.024669984
0.023867887
0.023083357
0.022316568
0.021567648
0.020836674
0.020123678
0.019428651
0.018751539
0.018092253
0.017450669
0.016826627
0.016219941
0.015630396
0.015057751
0.01450175
0.013962114
0.056759664
0.0557624
0.054754843
0.053737953
0.052712738
0.051680246
0.050641553
0.049597765
0.04855001
0.047499437
0.046447207
0.045394489
0.044342453
0.043292267
0.042245091
0.041202066
0.040164317
0.039132942
0.038109007
0.037093546
0.036087552
0.035091975
0.03410772
0.03313564
0.032176537
0.03123116
0.0303002
0.029384292
0.028484012
0.027599879
0.026732352
0.025881833
0.025048666
0.024233141
0.02343549
0.022655895
0.021894485
0.021151342
0.020426498
0.019719943
0.019031626
0.018361456
0.017709306
0.017075014
0.01645839
0.015859214
0.015277243
0.014712212
0.014163838
0.057608852
0.056595562
0.055571946
0.054538959
0.053497614
0.052448955
0.051394065
0.050334053
0.049270054
0.048203223
0.04713473
0.046065754
0.044997478
0.043931083
0.042867738
0.041808604
0.040754816
0.039707489
0.038667705
0.037636513
0.036614921
0.035603896
0.034604356
0.033617171
0.032643157
0.031683076
0.030737632
0.029807473
0.028893186
0.027995299
0.027114283
0.026250547
0.025404444
0.024576268
0.023766258
0.022974601
0.022201428
0.021446823
0.020710821
0.019993414
0.019294548
0.018614131
0.017952035
0.017308096
0.01668212
0.016073884
0.015483138
0.014909613
0.014353016
0.058407231
0.057378824
0.056340067
0.055291913
0.05423537
0.053171486
0.052101344
0.051026056
0.049946764
0.048864629
0.047780828
0.046696552
0.045612991
0.044531339
0.043452779
0.042378482
0.0413096
0.04024726
0.03919256
0.038146562
0.03711029
0.036084726
0.035070801
0.0340694
0.033081352
0.032107432
0.031148357
0.030204785
0.029277316
0.028366487
0.027472777
0.026596604
0.025738328
0.024898249
0.024076612
0.023273607
0.022489369
0.021723984
0.020977489
0.020249875
0.019541089
0.018851038
0.018179593
0.017526586
0.01689182
0.016275069
0.015676079
0.015094573
0.014530248
0.059156926
0.058114282
0.057061272
0.055998842
0.054928001
0.053849796
0.05276531
0.051675659
0.050581989
0.049485466
0.048387276
0.047288617
0.04619069
0.045094697
0.044001836
0.042913287
0.041830217
0.040753766
0.039685045
0.03862513
0.03757506
0.036535829
0.035508382
0.034493618
0.033492379
0.03250545
0.031533562
0.030577384
0.029637525
0.028714531
0.027808891
0.02692103
0.026051315
0.025200051
0.024367488
0.02355382
0.022759187
0.021983674
0.021227322
0.020490121
0.019772019
0.019072922
0.018392697
0.017731176
0.017088159
0.016463417
0.015856691
0.015267702
0.014696153
0.014141714
0.059860047
0.058804014
0.057737603
0.056661758
0.055577483
0.054485824
0.053387866
0.052284728
0.051177556
0.050067525
0.048955826
0.047843664
0.04673225
0.045622796
0.044516509
0.043414583
0.042318194
0.041228496
0.040146613
0.039073634
0.03801061
0.036958548
0.035918408
0.034891099
0.033877475
0.032878335
0.031894419
0.030926406
0.029974915
0.029040503
0.028123665
0.027224833
0.026344381
0.025482619
0.024639803
0.02381613
0.023011741
0.022226727
0.021461126
0.020714932
0.019988091
0.019280508
0.018592049
0.017922545
0.017271792
0.016639557
0.016025581
0.015429581
0.014851255
0.014290287
0.060518676
0.05945007
0.058371079
0.057282641
0.05618576
0.05508148
0.053970886
0.052855098
0.051735266
0.050612569
0.049488204
0.048363382
0.047239324
0.046117249
0.044998375
0.043883907
0.042775032
0.041672914
0.040578691
0.039493463
0.038418294
0.037354203
0.036302161
0.03526309
0.034237855
0.033227266
0.032232072
0.031252964
0.030290569
0.029345451
0.028418115
0.027508998
0.026618481
0.02574688
0.024894453
0.024061402
0.023247871
0.022453952
0.021679685
0.020925064
0.020190036
0.019474503
0.018778332
0.01810135
0.017443352
0.016804103
0.016183338
0.015580773
0.014996104
0.014429008
0.061134864
0.060054466
0.058963679
0.057863438
0.056754744
0.055638639
0.054516208
0.053388572
0.052256885
0.051122327
0.049986102
0.048849427
0.047713529
0.046579637
0.045448978
0.044322766
0.0432022
0.042088454
0.040982676
0.03988598
0.038799438
0.037724083
0.036660897
0.035610812
0.034574705
0.033553394
0.032547641
0.031558143
0.030585538
0.029630397
0.028693231
0.027774486
0.026874546
0.025993733
0.025132309
0.02429048
0.023468392
0.022666138
0.021883762
0.021121255
0.020378565
0.019655595
0.018952208
0.018268231
0.017603456
0.016957644
0.016330531
0.015721827
0.015131223
0.014558392
0.061710616
0.060619174
0.059517342
0.058406052
0.057286303
0.056159135
0.055025632
0.053886915
0.052744139
0.05159849
0.050451173
0.049303414
0.048156446
0.047011505
0.045869826
0.044732634
0.043601135
0.042476515
0.041359933
0.040252511
0.039155335
0.038069447
0.036995839
0.035935455
0.03488918
0.033857843
0.032842215
0.031843002
0.030860849
0.029896335
0.028949978
0.028022229
0.027113479
0.026224053
0.025354219
0.024504183
0.023674095
0.022864052
0.022074095
0.021304218
0.020554367
0.019824446
0.019114317
0.018423804
0.017752697
0.017100756
0.016467712
0.015853272
0.015257124
0.014678936
0.062247892
0.061146119
0.060033959
0.058912341
0.057782262
0.056644758
0.055500912
0.054351844
0.053198713
0.052042705
0.050885031
0.049726921
0.048569615
0.047414357
0.046262388
0.045114941
0.043973233
0.042838459
0.041711787
0.040594349
0.039487242
0.038391517
0.037308177
0.036238173
0.035182403
0.034141703
0.033116853
0.032108567
0.031117497
0.03014423
0.02918929
0.028253134
0.027336156
0.026438689
0.025561001
0.024703303
0.023865748
0.023048431
0.022251398
0.021474641
0.020718108
0.0199817
0.019265279
0.018568666
0.017891651
0.017233991
0.016595413
0.015975621
0.015374301
0.014791116
0.0627486
0.061637175
0.06051537
0.059384112
0.058244393
0.057097246
0.055943752
0.054785031
0.053622242
0.052456574
0.051289242
0.05012148
0.048954533
0.047789653
0.046628088
0.045471079
0.04431985
0.043175607
0.042039525
0.040912748
0.039796379
0.038691479
0.037599062
0.036520087
0.035455461
0.034406029
0.033372578
0.03235583
0.031356444
0.030375015
0.02941207
0.028468074
0.027543425
0.026638458
0.025753448
0.024888606
0.024044087
0.023219991
0.02241636
0.021633191
0.020870428
0.020127974
0.019405688
0.018703391
0.01802087
0.01735788
0.016714145
0.016089367
0.015483228
0.014895387
0.06321459
0.062094159
0.06096336
0.059823117
0.058674416
0.057518288
0.056355807
0.055188096
0.054016313
0.052841649
0.051665323
0.050488572
0.049312649
0.048138809
0.046968308
0.045802395
0.044642301
0.043489239
0.042344395
0.041208918
0.040083924
0.038970481
0.03786961
0.036782281
0.035709407
0.034651842
0.033610381
0.032585752
0.031578622
0.030589591
0.029619192
0.028667894
0.027736101
0.026824151
0.025932322
0.025060829
0.024209827
0.023379417
0.022569646
0.021780506
0.021011945
0.020263862
0.019536117
0.01882853
0.018140885
0.017472934
0.016824401
0.016194983
0.015584359
0.014992187
0.063647653
0.062518829
0.061379655
0.060231052
0.059073997
0.057909515
0.056738678
0.055562607
0.05438246
0.053199431
0.052014742
0.050829635
0.049645364
0.048463193
0.047284384
0.04611019
0.044941853
0.043780591
0.042627598
0.041484033
0.040351017
0.039229629
0.038120896
0.037025798
0.035945254
0.034880126
0.033831215
0.032799258
0.031784926
0.030788825
0.029811494
0.028853407
0.02791497
0.026996528
0.026098358
0.02522068
0.024363651
0.023527373
0.022711891
0.021917202
0.02114325
0.020389936
0.019657118
0.018944613
0.018252206
0.017579645
0.016926652
0.016292922
0.015678131
0.015081934
0.064049514
0.062912879
0.061765922
0.060609555
0.059444743
0.058272504
0.057093909
0.055910076
0.054722164
0.05353137
0.052338917
0.05114605
0.04995403
0.048764125
0.047577601
0.04639572
0.045219729
0.044050854
0.042890295
0.041739219
0.040598756
0.03946999
0.038353958
0.037251644
0.036163978
0.035091827
0.034035999
0.032997237
0.031976217
0.030973552
0.029989784
0.029025393
0.028080789
0.027156317
0.026252262
0.025368841
0.024506217
0.02366449
0.022843708
0.022043867
0.021264912
0.020506743
0.019769215
0.019052147
0.01835532
0.017678481
0.017021349
0.016383618
0.01576496
0.015165029
0.064421829
0.063277939
0.062123766
0.060960204
0.059788203
0.058608775
0.057422988
0.056231961
0.055036852
0.053838859
0.05263921
0.051439151
0.050239949
0.049042874
0.0478492
0.046660193
0.045477106
0.044301173
0.043133601
0.041975563
0.040828195
0.039692589
0.03856979
0.037460788
0.036366518
0.035287856
0.034225615
0.033180544
0.032153324
0.031144573
0.030154838
0.029184602
0.02823428
0.02730422
0.026394708
0.025505965
0.024638153
0.023791377
0.022965683
0.022161067
0.021377475
0.020614805
0.019872914
0.019151617
0.018450694
0.01776989
0.017108923
0.016467484
0.015845243
0.015241852
0.06476617
0.06361557
0.062454734
0.061284519
0.060105868
0.058919788
0.057727348
0.056529663
0.055327895
0.054123242
0.052916932
0.051710219
0.050504369
0.04930066
0.048100369
0.046904767
0.045715115
0.04453265
0.043358587
0.042194105
0.041040346
0.039898411
0.038769348
0.037654155
0.036553774
0.035469086
0.034400909
0.033349997
0.032317039
0.031302655
0.030307398
0.029331753
0.028376138
0.027440906
0.026526344
0.025632675
0.024760064
0.023908614
0.023078374
0.02226934
0.021481458
0.020714625
0.019968696
0.019243486
0.018538773
0.017854302
0.017189786
0.016544916
0.015919361
0.015312769
0.068484137
0.067363295
0.066229719
0.065084016
0.063927288
0.062760314
0.06158396
0.060399169
0.059206947
0.058008361
0.056804528
0.055596608
0.054385803
0.053173342
0.051960482
0.050748492
0.049538654
0.04833225
0.047130557
0.045934839
0.04474634
0.04356628
0.042395844
0.041236182
0.040088398
0.038953548
0.037832635
0.036726608
0.035636351
0.03456269
0.033506383
0.032468122
0.031448534
0.030448174
0.029467531
0.028507027
0.027567016
0.026647788
0.025749569
0.024872523
0.024016756
0.023182317
0.022369202
0.021577357
0.020806678
0.02005702
0.019328196
0.018619983
0.017932124
0.017264331
0.016616292
0.015987674
0.015378126
0.069907337
0.068793994
0.067667435
0.066528178
0.065376915
0.064214558
0.063041937
0.061859929
0.06066948
0.059471597
0.058267346
0.057057844
0.055844254
0.054627776
0.053409645
0.052191116
0.050973466
0.049757977
0.048545937
0.047338627
0.046137315
0.044943253
0.043757663
0.042581737
0.041416631
0.040263453
0.039123266
0.037997079
0.036885843
0.035790451
0.034711732
0.033650449
0.032607299
0.03158291
0.030577844
0.029592593
0.028627579
0.027683162
0.026759631
0.025857216
0.024976081
0.024116333
0.023278022
0.022461145
0.021665645
0.02089142
0.020138324
0.019406168
0.018694728
0.018003745
0.01733293
0.016681969
0.016050527
0.015438252
0.070197618
0.069079024
0.067947209
0.06680274
0.065646323
0.064478788
0.063300975
0.062113768
0.060918115
0.059715025
0.058505563
0.057290846
0.056072038
0.054850342
0.053626992
0.052403248
0.051180389
0.049959701
0.048742474
0.047529995
0.046323537
0.045124353
0.043933675
0.042752697
0.04158258
0.040424438
0.039279339
0.038148297
0.037032268
0.03593215
0.034848775
0.033782912
0.032735261
0.031706455
0.030697057
0.029707563
0.0287384
0.027789926
0.026862436
0.025956158
0.02507126
0.024207849
0.023365975
0.022545635
0.021746772
0.020969285
0.020213025
0.019477803
0.018763394
0.018069536
0.01739594
0.016742288
0.016108247
0.015493462
0.070464138
0.069340681
0.068204036
0.067054779
0.065893609
0.064721317
0.063538739
0.062346761
0.061146332
0.059938462
0.058724215
0.057504711
0.056281113
0.055054626
0.053826485
0.052597953
0.051370311
0.050144849
0.048922861
0.047705635
0.04649445
0.045290565
0.044095213
0.042909595
0.041734876
0.040572176
0.039422566
0.038287065
0.037166634
0.036062175
0.034974525
0.033904455
0.03285267
0.031819806
0.03080643
0.02981304
0.028840065
0.027887866
0.026956739
0.026046914
0.02515856
0.024291785
0.023446639
0.022623118
0.021821168
0.021040684
0.020281519
0.019543482
0.018826346
0.018129848
0.017453698
0.016797575
0.016161145
0.015544053
0.070708264
0.069580336
0.068439262
0.067285613
0.066120077
0.064943423
0.063756479
0.062560132
0.06135533
0.060143082
0.058924454
0.057700565
0.05647258
0.055241704
0.054009175
0.052776258
0.051544234
0.050314399
0.049088048
0.047866474
0.046650959
0.045442766
0.044243133
0.043053264
0.041874329
0.040707452
0.039553708
0.038414122
0.037289657
0.03618122
0.035089651
0.034015727
0.032960154
0.031923572
0.030906551
0.02990959
0.028933122
0.02797751
0.02704305
0.026129976
0.025238455
0.024368597
0.023520452
0.022694018
0.021889239
0.02110601
0.020344183
0.019603567
0.018883932
0.018185016
0.017506524
0.016848137
0.016209516
0.015590308
0.070931311
0.069799289
0.068654163
0.067496495
0.066326963
0.06514632
0.063955387
0.062755048
0.061546251
0.060330005
0.059107375
0.05787948
0.056647487
0.055412602
0.054176063
0.052939139
0.051703112
0.050469281
0.049238943
0.048013397
0.046793925
0.045581795
0.044378249
0.043184495
0.042001707
0.040831012
0.03967349
0.038530169
0.037402018
0.036289945
0.035194795
0.034117347
0.033058312
0.032018331
0.030997978
0.029997754
0.029018093
0.028059361
0.027121855
0.02620581
0.025311394
0.024438719
0.023587834
0.022758737
0.021951372
0.021165635
0.020401375
0.019658401
0.018936483
0.018235357
0.017554725
0.016894266
0.01625364
0.015632494
0.071134534
0.069998779
0.068849958
0.067688624
0.066515446
0.065331167
0.064136598
0.062932623
0.061720186
0.060500297
0.059274021
0.058042477
0.056806833
0.055568294
0.054328103
0.053087527
0.051847854
0.050610381
0.049376411
0.048147243
0.046924166
0.045708449
0.044501336
0.043304042
0.042117741
0.040943567
0.039782602
0.038635877
0.037504365
0.036388978
0.035290564
0.034209904
0.033147712
0.032104634
0.031081242
0.030078044
0.029095473
0.028133896
0.027193614
0.026274861
0.025377807
0.024502563
0.023649181
0.022817656
0.022007935
0.02121991
0.020453434
0.019708311
0.018984312
0.018281171
0.017598588
0.016936239
0.016293783
0.015670865
0.071319132
0.070179985
0.069027805
0.067863139
0.066686647
0.065499062
0.064301191
0.063093912
0.06187817
0.060654973
0.059425385
0.058190527
0.056951566
0.05570971
0.054466201
0.053222308
0.051979322
0.050738541
0.049501271
0.048268815
0.047042461
0.045823484
0.044613132
0.04341262
0.042223129
0.041045792
0.039881699
0.038731881
0.037597315
0.036478916
0.035377535
0.034293956
0.033228896
0.032183002
0.03115685
0.030150947
0.029165731
0.02820157
0.027258764
0.02633755
0.025438098
0.02456052
0.023704868
0.022871138
0.022059274
0.021269172
0.02050068
0.019753606
0.019027716
0.018322743
0.017638386
0.016974319
0.016330197
0.015705662
0.071486246
0.070344028
0.069188808
0.068021124
0.06684163
0.065651051
0.06445019
0.063239921
0.062021187
0.060794995
0.05956241
0.058324553
0.057082589
0.05583773