/*--------------------------------*- C++ -*----------------------------------*\
| =========                 |                                                 |
| \\      /  F ield         | OpenFOAM: The Open Source CFD Toolbox           |
|  \\    /   O peration     | Version:  2312                                  |
|   \\  /    A nd           | Website:  www.openfoam.com                      |
|    \\/     M anipulation  |                                                 |
\*---------------------------------------------------------------------------*/
FoamFile
{
    version     2.0;
    format      ascii;
    arch        "LSB;label=32;scalar=64";
    class       volScalarField;
    location    "0.07";
    object      Ma;
}
// * * * * * * * * * * * * * * * * * * * * * * * * * * * * * * * * * * * * * //

dimensions      [0 0 0 0 0 0 0];

internalField   nonuniform List<scalar> 
3250
(
0.0028900854
0.0028744183
0.0028573618
0.0028388338
0.0028188165
0.0027972853
0.0027741892
0.0027494475
0.0027229544
0.0026945688
0.0026641192
0.0026313732
0.0025960526
0.0025577603
0.0025160276
0.0024701423
0.0024192781
0.0023621244
0.002297176
0.002222196
0.002134867
0.002033695
0.001922787
0.0018296079
0.0018472436
0.0022390354
0.0030886299
0.0032789931
0.0031355309
0.0030245684
0.0030237467
0.0029166317
0.0027645445
0.0026146122
0.0024707995
0.0023287262
0.0021788472
0.0020271172
0.0018764635
0.0017312501
0.0015925541
0.0014621014
0.0013397269
0.0012257715
0.0022297837
0.0022252267
0.0022192985
0.0022119446
0.0022031396
0.0021928628
0.0021810863
0.0021677636
0.0021528401
0.0021362374
0.0021178735
0.0020976315
0.0020754025
0.0020510294
0.0020243946
0.0019953497
0.0019638663
0.0019300703
0.0018944579
0.0018584933
0.0018250267
0.0018004779
0.0017965315
0.0018339471
0.0019429236
0.0021562792
0.0024950924
0.0028083139
0.0028194922
0.002627473
0.0023928708
0.0020689614
0.0017738273
0.0015250864
0.0012964104
0.0010880167
0.00089816116
0.00073047662
0.00058615744
0.00046605433
0.00036966353
0.0002956698
0.0002427121
0.00020788467
0.0019532824
0.0019490327
0.0019437678
0.0019374321
0.0019300016
0.0019214652
0.0019118133
0.0019010321
0.001889108
0.0018760261
0.0018617786
0.0018463672
0.0018298159
0.0018121905
0.0017936157
0.0017743502
0.0017548063
0.0017357714
0.0017184418
0.0017049146
0.0016983537
0.001703561
0.0017274285
0.0017784019
0.0018653179
0.0019919336
0.0021500788
0.0023064786
0.0023699206
0.0023246437
0.0022211867
0.0020714273
0.0019189705
0.0017768059
0.0016439112
0.0015212875
0.0014094256
0.00130538
0.0012082602
0.0011175156
0.0010331021
0.00095498634
0.00088329511
0.00081805493
0.0018323233
0.0018242716
0.0018156082
0.0018063011
0.0017963412
0.0017857373
0.0017745039
0.0017626608
0.0017502367
0.0017372728
0.0017238293
0.0017099969
0.0016959052
0.0016817523
0.0016678138
0.0016545143
0.0016424318
0.0016324386
0.0016257071
0.0016238934
0.0016291586
0.0016441651
0.0016719969
0.0017154935
0.0017762947
0.0018526638
0.0019367202
0.0020116548
0.002056421
0.0020636895
0.0020364557
0.0019839881
0.0019191841
0.0018497317
0.0017785941
0.0017081764
0.0016393754
0.0015720868
0.0015060334
0.0014412324
0.0013776648
0.0013156294
0.0012553749
0.0011973355
0.0018252168
0.0018118488
0.0017981771
0.001784204
0.0017699473
0.0017554394
0.0017407213
0.0017258445
0.0017108737
0.0016958935
0.0016810113
0.0016663715
0.0016521592
0.0016386252
0.00162609
0.0016149869
0.001605861
0.0015994295
0.0015965681
0.0015983486
0.0016059942
0.0016207663
0.0016438149
0.0016757515
0.0017161745
0.0017628114
0.0018108738
0.0018528542
0.0018804084
0.0018890836
0.0018785115
0.0018519152
0.0018145186
0.0017707004
0.0017234947
0.001675137
0.0016267755
0.0015789419
0.0015317407
0.001485123
0.0014390375
0.0013934537
0.0013484097
0.0013040226
0.0018838479
0.0018655882
0.0018472018
0.0018287233
0.0018101967
0.001791676
0.0017732247
0.0017549187
0.0017368486
0.0017191249
0.0017018811
0.0016852831
0.0016695315
0.0016548773
0.0016416213
0.0016301349
0.0016208537
0.0016142933
0.0016110281
0.0016116747
0.0016168394
0.0016270142
0.001642459
0.0016629733
0.0016876774
0.0017147126
0.0017411281
0.0017630743
0.0017766351
0.0017791428
0.001769778
0.0017496509
0.0017211209
0.0016867555
0.0016488712
0.0016092904
0.0015692668
0.0015295073
0.0014903495
0.0014518797
0.0014140734
0.001376852
0.0013401288
0.0013038488
0.001971493
0.0019493788
0.0019272211
0.0019050823
0.0018830237
0.0018611148
0.0018394336
0.0018180709
0.0017971303
0.0017767338
0.001757022
0.0017381607
0.0017203415
0.0017037886
0.0016887573
0.0016755393
0.001664454
0.0016558453
0.0016500592
0.0016474155
0.0016481629
0.0016524065
0.0016600321
0.0016705898
0.0016832041
0.0016964798
0.0017085262
0.0017171246
0.0017201145
0.0017159056
0.0017037984
0.0016841363
0.0016580507
0.0016270791
0.0015928078
0.0015566643
0.0015197562
0.0014828475
0.0014463961
0.0014106267
0.0013756115
0.0013413273
0.0013076952
0.0012746145
0.0020675859
0.002042537
0.0020174879
0.0019925123
0.0019676837
0.0019430785
0.0019187819
0.0018948897
0.0018715092
0.001848762
0.0018267835
0.0018057271
0.0017857624
0.0017670782
0.0017498782
0.0017343803
0.0017208068
0.0017093741
0.0017002737
0.0016936454
0.001689545
0.0016878967
0.0016884488
0.001690718
0.0016939553
0.0016971276
0.0016989628
0.0016980657
0.001693113
0.0016830937
0.0016674894
0.0016463689
0.0016203109
0.0015902399
0.0015572337
0.0015223499
0.0014865058
0.0014504078
0.0014145534
0.0013792442
0.0013446396
0.001310788
0.0012776631
0.0012451865
0.0021627573
0.0021353783
0.0021080239
0.0020807772
0.0020537142
0.0020269137
0.0020004614
0.0019744519
0.0019489889
0.0019241862
0.0019001674
0.0018770671
0.0018550289
0.0018342051
0.0018147525
0.0017968275
0.001780578
0.0017661315
0.0017535803
0.0017429597
0.0017342267
0.0017272291
0.0017216826
0.0017171437
0.0017130015
0.0017084832
0.0017026952
0.0016947003
0.0016836265
0.0016687961
0.0016498273
0.0016266964
0.0015997153
0.001569462
0.0015366689
0.0015021124
0.001466519
0.0014305
0.0013945284
0.0013589331
0.0013239212
0.0012895978
0.001255989
0.00122306
0.0023123885
0.002283049
0.0022536422
0.0022242316
0.0021948825
0.0021656685
0.0021366635
0.0021079451
0.0020795961
0.0020517061
0.0020243709
0.001997693
0.0019717809
0.0019467487
0.0019227142
0.0018997968
0.0018781131
0.0018577717
0.0018388658
0.0018214628
0.0018055928
0.0017912326
0.0017782918
0.001766594
0.0017558644
0.0017457192
0.0017356662
0.0017251182
0.001713425
0.0016999254
0.0016840133
0.0016652142
0.0016432448
0.0016180543
0.0015898208
0.0015589186
0.0015258556
0.0014912019
0.0014555236
0.0014193291
0.0013830406
0.0013469783
0.0013113678
0.0012763474
0.0012419844
0.0012082861
0.0024022386
0.0023709236
0.0023395717
0.0023082481
0.0022770194
0.0022459535
0.0022151205
0.0021845939
0.0021544513
0.0021247749
0.0020956508
0.002067169
0.0020394226
0.0020125059
0.0019865135
0.0019615365
0.0019376595
0.0019149545
0.0018934759
0.0018732508
0.0018542715
0.0018364835
0.001819777
0.0018039752
0.001788829
0.0017740131
0.0017591312
0.0017437295
0.001727321
0.0017094219
0.0016895942
0.0016674935
0.0016429066
0.0016157797
0.0015862195
0.0015544779
0.0015209147
0.0014859534
0.0014500333
0.0014135695
0.0013769258
0.0013403971
0.0013042066
0.0012685086
0.0012333972
0.001198914
0.002487381
0.0024541079
0.0024208286
0.0023876116
0.0023545211
0.002321621
0.0022889767
0.0022566569
0.0022247327
0.0021932787
0.0021623708
0.0021320873
0.0021025062
0.0020737052
0.0020457584
0.0020187344
0.0019926924
0.001967678
0.0019437176
0.0019208128
0.0018989332
0.0018780092
0.0018579262
0.0018385178
0.0018195643
0.001800792
0.0017818801
0.0017624719
0.0017421943
0.0017206827
0.0016976108
0.0016727211
0.0016458512
0.0016169511
0.0015860882
0.0015534374
0.0015192607
0.0014838758
0.0014476262
0.001410848
0.00137385
0.001336894
0.0013001913
0.001263899
0.0012281269
0.0011929411
0.0025683427
0.0025330958
0.0024978769
0.0024627507
0.0024277808
0.0023930263
0.0023585493
0.0023244123
0.0022906813
0.0022574219
0.0022247025
0.002192589
0.0021611483
0.0021304421
0.0021005294
0.0020714598
0.0020432746
0.0020159989
0.0019896416
0.0019641869
0.0019395927
0.001915783
0.0018926464
0.0018700311
0.0018477454
0.0018255595
0.0018032109
0.0017804159
0.0017568817
0.0017323283
0.0017065047
0.0016792156
0.0016503329
0.001619815
0.0015877036
0.0015541264
0.0015192757
0.0014833967
0.0014467571
0.0014096323
0.0013722795
0.0013349301
0.0012977757
0.0012609706
0.0012246307
0.0011888383
0.0026454991
0.0026082705
0.0025710963
0.0025340455
0.0024971751
0.002460544
0.0024242074
0.0023882258
0.0023526566
0.0023175616
0.0022829981
0.002249026
0.0022156982
0.002183068
0.0021511784
0.0021200682
0.0020897621
0.0020602741
0.0020315985
0.0020037116
0.0019765638
0.00195008
0.0019241545
0.0018986514
0.0018734048
0.0018482199
0.0018228819
0.0017971593
0.0017708216
0.0017436452
0.0017154376
0.0016860421
0.0016553617
0.0016233558
0.0015900569
0.001555554
0.0015199979
0.0014835738
0.0014464997
0.0014089951
0.0013712808
0.0013335532
0.0012959887
0.00125873
0.0012218961
0.0011855775
0.0027190819
0.00267987
0.0026407439
0.002601762
0.0025629851
0.0025244645
0.0024862558
0.0024484111
0.0024109869
0.0023740349
0.0023376098
0.0023017596
0.002266533
0.0022319697
0.0021981067
0.0021649693
0.0021325752
0.0021009264
0.0020700121
0.0020398011
0.0020102435
0.0019812659
0.0019527715
0.0019246395
0.0018967254
0.0018688657
0.0018408795
0.0018125798
0.0017837771
0.0017542958
0.0017239784
0.0016927045
0.0016603908
0.0016270082
0.0015925733
0.0015571584
0.0015208743
0.0014838728
0.0014463227
0.0014084108
0.0013703166
0.0013322156
0.0012942603
0.0012565868
0.001219309
0.0011825227
0.0027892162
0.0027480452
0.0027069768
0.0026660778
0.0026254009
0.0025849975
0.0025449174
0.0025052111
0.0024659287
0.0024271188
0.0023888287
0.0023511019
0.0023139786
0.0022774929
0.0022416731
0.002206538
0.0021720979
0.0021383492
0.0021052762
0.0020728457
0.0020410087
0.0020096959
0.0019788197
0.0019482728
0.0019179304
0.0018876526
0.0018572882
0.0018266819
0.0017956782
0.0017641343
0.0017319221
0.0016989442
0.001665132
0.0016304604
0.0015949397
0.0015586257
0.0015216048
0.0014839979
0.0014459431
0.0014075933
0.0013691023
0.0013306193
0.0012922821
0.0012542136
0.0012165237
0.0011793095
0.0028559869
0.0028128836
0.0027699047
0.0027271124
0.0026845589
0.0026422926
0.0026003593
0.0025588074
0.0025176818
0.0024770286
0.0024368888
0.0023973025
0.0023583031
0.0023199207
0.0022821766
0.0022450862
0.0022086532
0.0021728723
0.002137724
0.0021031764
0.0020691814
0.0020356758
0.0020025806
0.0019698009
0.0019372288
0.0019047434
0.0018722186
0.0018395217
0.0018065268
0.0017731119
0.0017391762
0.0017046336
0.0016694333
0.0016335462
0.0015969857
0.0015597877
0.0015220277
0.0014837969
0.0014452141
0.0014064023
0.0013674953
0.0013286202
0.0012899002
0.0012514459
0.0012133633
0.0011757449
0.0029194502
0.0028744602
0.0028296078
0.0027849599
0.0027405652
0.0026964681
0.0026527133
0.0026093448
0.0025664057
0.0025239374
0.0024819783
0.0024405636
0.0023997233
0.002359483
0.0023198604
0.0022808671
0.002242504
0.0022047641
0.0021676268
0.0021310619
0.0020950236
0.0020594557
0.0020242858
0.0019894319
0.0019547985
0.0019202833
0.0018857768
0.0018511689
0.0018163515
0.0017812249
0.0017457019
0.0017097138
0.0016732134
0.0016361797
0.0015986168
0.0015605575
0.0015220573
0.0014831955
0.0014440656
0.0014047749
0.0013654349
0.0013261571
0.0012870495
0.0012482143
0.0012097478
0.0011717437
0.0030266126
0.0029796739
0.002932837
0.0028861632
0.0028397073
0.0027935152
0.00274763
0.002702094
0.002656949
0.0026122358
0.0025679924
0.0025242549
0.0024810545
0.0024384192
0.0023963702
0.0023549242
0.0023140883
0.0022738644
0.0022342419
0.0021952037
0.0021567183
0.0021187468
0.0020812355
0.0020441225
0.0020073333
0.0019707865
0.0019343922
0.0018980573
0.0018616875
0.0018251909
0.0017884834
0.0017514907
0.0017141548
0.0016764346
0.0016383112
0.0015997867
0.001560886
0.0015216547
0.0014821569
0.0014424716
0.0014026889
0.0013629036
0.0013232146
0.0012837154
0.0012444991
0.0012056564
0.0011672757
0.0030854726
0.003036727
0.0029881031
0.0029396588
0.0028914448
0.002843505
0.0027958797
0.0027486104
0.0027017363
0.0026552962
0.0026093258
0.0025638585
0.0025189235
0.002474546
0.0024307456
0.0023875363
0.0023449251
0.0023029115
0.002261487
0.0022206333
0.0021803238
0.0021405211
0.0021011789
0.0020622405
0.0020236421
0.0019853109
0.0019471702
0.0019091386
0.0018711356
0.0018330821
0.0017949063
0.0017565444
0.0017179465
0.0016790766
0.0016399177
0.0016004692
0.0015607515
0.0015208004
0.0014806699
0.0014404255
0.0014001436
0.0013599074
0.0013197995
0.0012799068
0.0012403107
0.0012010967
0.0011623473
0.003141194
0.0030907024
0.0030403455
0.0029901851
0.0029402675
0.002890633
0.0028413213
0.002792371
0.0027438206
0.0026957062
0.0026480622
0.0026009196
0.0025543061
0.0025082448
0.002462754
0.0024178466
0.0023735288
0.0023298001
0.0022866523
0.0022440694
0.0022020265
0.002160491
0.0021194208
0.0020787666
0.0020384713
0.0019984721
0.0019587014
0.0019190891
0.001879565
0.0018400614
0.0018005154
0.0017608726
0.0017210888
0.0016811329
0.001640988
0.0016006534
0.0015601434
0.0015194887
0.0014787325
0.001437931
0.0013971495
0.0013564575
0.0013159314
0.0012756434
0.0012356696
0.0011960886
0.0011569809
0.0031938641
0.0031416859
0.0030896574
0.0030378392
0.0029862752
0.0029350032
0.002884061
0.0028334862
0.0027833153
0.0027335832
0.0026843225
0.0026355627
0.0025873302
0.0025396466
0.0024925296
0.0024459908
0.0024000369
0.0023546672
0.002309875
0.0022656456
0.0022219576
0.0021787811
0.0021360798
0.0020938095
0.0020519204
0.0020103572
0.0019690609
0.0019279706
0.0018870247
0.0018461647
0.0018053356
0.0017644901
0.0017235888
0.0016826044
0.0016415207
0.001600336
0.0015590608
0.0015177201
0.0014763498
0.0014349976
0.001393718
0.0013525744
0.0013116282
0.0012709485
0.0012306022
0.0011906597
0.0011511993
0.0032974951
0.0032435783
0.0031897732
0.0031361371
0.0030827238
0.0030295733
0.0029767226
0.0029242086
0.0028720675
0.0028203346
0.0027690435
0.0027182254
0.0026679088
0.0026181186
0.0025688761
0.0025201978
0.0024720956
0.0024245757
0.0023776387
0.0023312786
0.0022854833
0.0022402334
0.0021955034
0.0021512606
0.0021074667
0.0020640776
0.002021045
0.0019783172
0.0019358406
0.0018935619
0.0018514292
0.0018093949
0.0017674167
0.0017254603
0.0016835002
0.0016415221
0.0015995222
0.0015575091
0.0015155021
0.001473532
0.0014316379
0.0013898685
0.0013482747
0.0013069162
0.0012658487
0.0012251331
0.0011848391
0.0011450355
0.0033459391
0.0032904443
0.003235077
0.003179896
0.003124948
0.0030702713
0.003015902
0.0029618757
0.0029082279
0.0028549927
0.0028022025
0.0027498876
0.0026980754
0.0026467901
0.0025960522
0.0025458782
0.0024962797
0.0024472635
0.002398831
0.0023509777
0.0023036933
0.0022569615
0.0022107596
0.0021650594
0.0021198272
0.0020750245
0.0020306087
0.0019865346
0.0019427551
0.0018992233
0.0018558938
0.0018127243
0.0017696774
0.0017267224
0.0016838363
0.0016410051
0.0015982245
0.0015555004
0.0015128486
0.0014702941
0.001427871
0.001385619
0.0013435858
0.001301818
0.0012603701
0.0012192964
0.001178655
0.0011385191
0.0033915871
0.0033345776
0.0032777109
0.0032210449
0.0031646229
0.0031084806
0.003052653
0.0029971749
0.0029420806
0.0028874033
0.0028331746
0.0027794238
0.0027261776
0.0026734596
0.00262129
0.0025696851
0.0025186568
0.0024682124
0.0024183544
0.0023690797
0.0023203801
0.0022722417
0.0022246453
0.0021775662
0.0021309751
0.0020848383
0.0020391184
0.0019937758
0.0019487691
0.001904057
0.0018595992
0.0018153584
0.0017713013
0.0017274
0.0016836336
0.0016399888
0.0015964605
0.0015530526
0.0015097775
0.0014666563
0.001423717
0.0013809952
0.0013385287
0.0012963637
0.001254543
0.0012131159
0.0011721419
0.0011316818
0.0034345458
0.0033760871
0.0033177835
0.0032596949
0.0032018601
0.0031443132
0.003087088
0.0030302185
0.002973738
0.0029176791
0.0028620724
0.0028069465
0.0027523277
0.0026982391
0.0026447007
0.0025917288
0.0025393358
0.0024875296
0.0024363138
0.0023856869
0.0023356426
0.0022861695
0.0022372512
0.0021888667
0.0021409905
0.0020935932
0.0020466422
0.0020001025
0.0019539379
0.0019081118
0.0018625886
0.0018173351
0.0017723213
0.0017275221
0.0016829182
0.0016384969
0.0015942526
0.0015501874
0.0015063112
0.0014626409
0.0014192008
0.0013760198
0.0013331338
0.0012905777
0.0012483947
0.0012066274
0.0011653256
0.0011245555
0.0035348879
0.0034749246
0.0034150778
0.003355405
0.0032959572
0.0032367714
0.0031778807
0.0031193184
0.0030611177
0.0030033112
0.0029459307
0.0028890061
0.0028325656
0.0027766349
0.0027212369
0.0026663915
0.0026121153
0.0025584211
0.0025053176
0.0024528094
0.0024008967
0.002349575
0.0022988352
0.0022486638
0.0021990429
0.0021499506
0.0021013612
0.0020532465
0.0020055758
0.001958317
0.001911438
0.0018649071
0.0018186945
0.0017727736
0.0017271214
0.00168172
0.0016365572
0.0015916272
0.0015469306
0.0015024748
0.001458274
0.0014143478
0.0013707222
0.0013274252
0.0012844923
0.0012419557
0.0011998554
0.0011582412
0.0011171692
0.0035741373
0.0035128366
0.0034516693
0.0033906897
0.0033299442
0.003269468
0.0032092938
0.0031494543
0.003089982
0.0030309091
0.0029722663
0.0029140834
0.0028563878
0.002799205
0.0027425578
0.0026864661
0.0026309467
0.002576013
0.0025216745
0.0024679371
0.0024148022
0.0023622673
0.0023103255
0.0022589659
0.0022081735
0.0021579295
0.0021082121
0.0020589964
0.0020102556
0.0019619617
0.0019140861
0.0018666008
0.0018194791
0.0017726968
0.0017262333
0.001680072
0.001634201
0.0015886142
0.0015433111
0.0014982972
0.0014535837
0.0014091876
0.0013651296
0.0013214365
0.0012781341
0.0012352563
0.0011928351
0.0011509146
0.001109555
0.0036109771
0.0035484021
0.0034859761
0.00342375
0.0033617663
0.0033000594
0.0032386612
0.0031776037
0.0031169188
0.0030566379
0.0029967916
0.0029374087
0.0028785166
0.0028201403
0.0027623027
0.0027050237
0.0026483206
0.0025922073
0.0025366942
0.0024817881
0.0024274921
0.0023738054
0.0023207231
0.0022682368
0.002216334
0.002164999
0.0021142132
0.002063955
0.0020142011
0.0019649269
0.0019161071
0.0018677168
0.0018197322
0.0017721315
0.0017248957
0.0016780095
0.0016314617
0.0015852457
0.0015393602
0.001493809
0.0014486011
0.0014037501
0.0013592745
0.0013151949
0.0012715381
0.0012283275
0.0011855949
0.0011433795
0.0011017392
0.0036455161
0.0035817321
0.0035181084
0.0034546946
0.0033915319
0.0033286531
0.0032660893
0.0032038719
0.0031420322
0.0030806012
0.0030196086
0.0029590831
0.0028990516
0.0028395392
0.0027805685
0.0027221599
0.0026643308
0.0026070957
0.0025504661
0.0024944498
0.0024390512
0.0023842712
0.0023301069
0.002276552
0.0022235967
0.0021712279
0.0021194297
0.0020681839
0.00201747
0.0019672666
0.0019175515
0.0018683024
0.0018194981
0.0017711189
0.0017231476
0.0016755698
0.0016283748
0.001581556
0.0015351113
0.001489043
0.0014433581
0.001398068
0.0013531876
0.0013087362
0.0012647329
0.0012212034
0.0011781698
0.0011356674
0.0010937502
0.003677867
0.0036129343
0.0035481727
0.0034836304
0.0034193467
0.0033553537
0.0032916817
0.0032283614
0.0031654237
0.0031028987
0.0030408161
0.0029792039
0.002918089
0.0028574962
0.0027974483
0.0027379658
0.0026790666
0.0026207659
0.0025630757
0.0025060052
0.0024495601
0.0023937428
0.0023385522
0.0022839841
0.002230031
0.0021766822
0.0021239246
0.0020717426
0.0020201186
0.001969034
0.0019184692
0.0018684046
0.0018188212
0.0017697011
0.0017210287
0.0016727906
0.0016249767
0.0015775804
0.0015305987
0.0014840329
0.0014378884
0.0013921741
0.001346903
0.00130209
0.001257755
0.0012139149
0.0011705938
0.0011278181
0.0010856335
0.0010440973
0.0037081371
0.0036421165
0.0035762753
0.0035106614
0.0034453138
0.0033802631
0.003315539
0.0032511716
0.0031871911
0.0031236272
0.0030605092
0.002997865
0.0029357209
0.002874102
0.002813031
0.0027525288
0.0026926135
0.0026333011
0.0025746045
0.0025165337
0.0024590957
0.0024022945
0.0023461307
0.002290602
0.002235703
0.0021814253
0.0021277581
0.0020746885
0.0020222015
0.0019702808
0.0019189093
0.0018680698
0.0018177453
0.0017679199
0.001718579
0.0016697104
0.0016213045
0.0015733545
0.0015258573
0.001478813
0.0014322255
0.001386102
0.0013404529
0.001295292
0.0012506333
0.0012064964
0.0011628973
0.0011198613
0.0010774268
0.0010356435
0.0037364347
0.0036693822
0.0036025184
0.0035358896
0.0034695335
0.0034034802
0.0033377586
0.0032723983
0.0032074288
0.0031428797
0.0030787795
0.0030151561
0.0029520357
0.0028894433
0.0028274017
0.002765932
0.0027050529
0.0026447809
0.0025851296
0.0025261103
0.002467731
0.002409997
0.0023529107
0.0022964714
0.0022406758
0.0021855175
0.0021309881
0.0020770768
0.002023771
0.0019710568
0.0019189193
0.0018673433
0.0018163138
0.0017658164
0.001715838
0.0016663671
0.0016173948
0.0015689144
0.0015209223
0.0014734178
0.0014264036
0.0013798852
0.0013338715
0.0012883728
0.0012434038
0.001198977
0.0011551108
0.0011118244
0.0010691521
0.0010271389
0.0037628613
0.0036948342
0.0036270026
0.0035594131
0.0034921027
0.0034251004
0.0033584346
0.003292134
0.0032262279
0.0031607453
0.0030957146
0.0030311634
0.0029671178
0.0029036027
0.0028406412
0.0027782546
0.002716462
0.0026552806
0.0025947247
0.0025348064
0.0024755351
0.0024169173
0.0023589568
0.0023016547
0.0022450094
0.0021890165
0.0021336697
0.0020789602
0.0020248777
0.0019714102
0.0019185451
0.001866269
0.0018145686
0.0017634311
0.0017128445
0.0016627984
0.0016132842
0.0015642954
0.0015158282
0.0014678812
0.0014204561
0.0013735571
0.0013271909
0.0012813671
0.0012360957
0.0011913913
0.0011472654
0.0011037369
0.0010608362
0.0010186046
0.0037875191
0.0037185701
0.0036498245
0.0035813276
0.0035131153
0.003445216
0.0033776573
0.0033104675
0.0032436754
0.0031773097
0.0031113986
0.0030459692
0.0029810478
0.0029166593
0.0028528268
0.002789572
0.0027269145
0.0026648718
0.0026034593
0.0025426898
0.0024825737
0.0024231188
0.0023643304
0.002306211
0.0022487607
0.002191977
0.0021358554
0.0020803891
0.0020255696
0.0019713872
0.0019178309
0.0018648891
0.0018125503
0.0017608029
0.0017096362
0.0016590405
0.0016090079
0.0015595321
0.001510609
0.0014622367
0.0014144161
0.00136715
0.001320444
0.0012743051
0.0012287436
0.0011837681
0.0011393926
0.0010956304
0.0010525094
0.0010100696
0.003810504
0.0037406864
0.0036710783
0.003601725
0.0035326617
0.0034639156
0.0033955139
0.0033274842
0.0032598552
0.0031926549
0.0031259115
0.003059652
0.0029939026
0.002928688
0.0028640318
0.0027999558
0.00273648
0.0026736225
0.0026113993
0.0025498243
0.0024889087
0.0024286615
0.0023690893
0.0023101961
0.0022519835
0.0021944507
0.0021375948
0.002081411
0.0020258926
0.0019710315
0.0019168187
0.0018632442
0.0018102978
0.0017579694
0.0017062494
0.0016551289
0.0016046005
0.0015546581
0.0015052975
0.0014565166
0.0014083153
0.0013606957
0.0013136616
0.0012672194
0.0012213756
0.0011761407
0.0011315223
0.0010875343
0.0010442017
0.0010015618
0.0038319114
0.0037612746
0.003690854
0.003620694
0.0035508286
0.0034812844
0.0034120877
0.0033432658
0.003274847
0.0032068591
0.0031393301
0.0030722867
0.0030057551
0.0029397602
0.0028743257
0.0028094736
0.0027452244
0.0026815967
0.0026186072
0.0025562704
0.0024945987
0.0024336021
0.0023732884
0.0023136628
0.0022547286
0.0021964864
0.0021389349
0.0020820711
0.0020258898
0.0019703848
0.0019155486
0.0018613726
0.0018078482
0.0017549665
0.0017027188
0.0016510971
0.0016000946
0.0015497054
0.0014999254
0.001450752
0.0014021846
0.0013542243
0.0013068741
0.0012601384
0.0012140238
0.0011685358
0.0011236844
0.0010794785
0.0010359417
0.00099311005
0.0038518315
0.0037804241
0.0037092388
0.0036383198
0.0035676996
0.0034974039
0.0034274584
0.0033578903
0.0032887271
0.0032199969
0.0031517269
0.0030839442
0.0030166748
0.0029499436
0.0028837744
0.0028181896
0.0027532101
0.002688855
0.0026251415
0.002562085
0.0024996987
0.0024379937
0.0023769788
0.0023166606
0.0022570436
0.00219813
0.0021399199
0.0020824118
0.0020256022
0.0019694864
0.0019140582
0.0018593108
0.0018052366
0.001751828
0.0016990772
0.0016469772
0.0015955215
0.0015447047
0.0014945225
0.0014449723
0.001396053
0.0013477649
0.0013001099
0.0012530917
0.0012067141
0.0011609841
0.001115906
0.00107149
0.0010277567
0.00098474049
0.0038703522
0.0037982201
0.003726316
0.0036546839
0.0035833543
0.003512352
0.0034417023
0.0033714319
0.0033015683
0.0032321389
0.0031631712
0.003094692
0.0030267272
0.0029593019
0.00289244
0.0028261642
0.0027604958
0.0026954542
0.0026310574
0.0025673214
0.0025042604
0.0024418862
0.0023802088
0.0023192359
0.0022589733
0.0021994245
0.0021405911
0.0020824728
0.0020250679
0.0019683728
0.0019123829
0.0018570927
0.0018024959
0.0017485858
0.0016953557
0.0016427993
0.0015909107
0.0015396847
0.0014891173
0.0014392056
0.0013899482
0.0013413447
0.0012933963
0.0012461053
0.0011994755
0.0011535097
0.0011082146
0.0010635955
0.0010196726
0.00097647911
0.0038875568
0.003814744
0.0037421653
0.0036698641
0.0035978687
0.0035262029
0.0034548916
0.0033839613
0.003313439
0.0032433523
0.0031737282
0.0031045935
0.0030359741
0.0029678952
0.0029003809
0.0028334541
0.0027671363
0.0027014476
0.0026364065
0.0025720296
0.0025083318
0.002445326
0.002383023
0.0023214318
0.0022605591
0.0022004098
0.0021409868
0.0020822911
0.0020243223
0.0019670783
0.0019105557
0.0018547502
0.0017996567
0.0017452696
0.0016915831
0.0016385915
0.0015862896
0.0015346725
0.0014837363
0.0014334781
0.001383896
0.0013349894
0.0012867587
0.0012392053
0.001192331
0.00114614
0.0011006338
0.0010558193
0.0010117141
0.00096834987
0.0039035245
0.0038300731
0.003756862
0.0036839342
0.0036113147
0.0035390267
0.0034670948
0.003395545
0.0033244044
0.0032537002
0.0031834593
0.0031137085
0.0030444737
0.00297578
0.0029076518
0.0028401122
0.0027731831
0.0027068849
0.0026412367
0.0025762558
0.0025119577
0.0024483562
0.0023854631
0.0023232882
0.0022618395
0.0022011229
0.0021411425
0.0020819008
0.0020233983
0.0019656344
0.0019086068
0.0018523125
0.0017967474
0.0017419069
0.0016877861
0.0016343799
0.0015816837
0.001529693
0.001478404
0.0014278139
0.0013779206
0.001328723
0.0012802208
0.0012324146
0.0011853061
0.0011388961
0.0010931883
0.0010481851
0.001003904
0.00096037566
0.0039183277
0.0038442786
0.0037704775
0.0036969638
0.0036237603
0.0035508896
0.0034783761
0.0034062457
0.0033345252
0.0032632417
0.003192422
0.0031220928
0.0030522799
0.0029830087
0.0029143035
0.0028461878
0.0027786836
0.0027118121
0.0026455925
0.0025800429
0.0025151794
0.0024510167
0.0023875672
0.0023248419
0.0022628497
0.0022015976
0.0021410909
0.0020813331
0.002022326
0.00196407
0.0019065642
0.0018498066
0.001793794
0.0017385229
0.0016839891
0.0016301884
0.0015771164
0.0015247692
0.0014731433
0.0014222357
0.0013720442
0.0013225675
0.0012738047
0.0012257559
0.0011784211
0.0011318022
0.0010858985
0.0010407142
0.00099626423
0.00095257815
0.0041570107
0.0040818287
0.0040068344
0.0039320324
0.0038574275
0.0037830785
0.0037090185
0.0036352693
0.0035618536
0.0034887958
0.0034161218
0.0033438583
0.003272032
0.0032006698
0.0031297982
0.0030594431
0.0029896298
0.002920383
0.0028517262
0.0027836819
0.0027162714
0.0026495146
0.0025834301
0.0025180347
0.0024533436
0.0023893703
0.0023261265
0.002263622
0.0022018649
0.0021408616
0.0020806165
0.0020211326
0.0019624115
0.0019044533
0.0018472569
0.0017908203
0.0017351406
0.0016802147
0.0016260388
0.0015726091
0.0015199222
0.0014679747
0.0014167638
0.0013662872
0.0013165431
0.0012675306
0.0012192487
0.0011716976
0.0011248762
0.0010787861
0.0010334271
0.00098881467
0.00094497711
0.0042471046
0.0041712651
0.0040955528
0.0040200276
0.0039447023
0.0038695861
0.0037947287
0.0037201595
0.0036459009
0.0035719762
0.0034984099
0.0034252278
0.0033524563
0.0032801222
0.0032082521
0.0031368726
0.0030660095
0.0029956882
0.0029259335
0.0028567692
0.002788218
0.0027203016
0.0026530404
0.0025864534
0.0025205581
0.0024553703
0.0023909042
0.0023271724
0.0022641856
0.0022019529
0.0021404814
0.0020797768
0.002019843
0.0019606827
0.0019022969
0.0018446855
0.0017878475
0.0017317808
0.0016764829
0.0016219508
0.0015681812
0.0015151711
0.0014629173
0.001411417
0.0013606681
0.0013106686
0.0012614169
0.001212912
0.0011651527
0.0011181389
0.0010718682
0.0010263424
0.00098157423
0.00093759174
0.0042607793
0.0041844421
0.0041082382
0.004032221
0.0039564091
0.0038808185
0.0038054875
0.0037304437
0.0036557104
0.003581311
0.0035072702
0.0034336137
0.0033603679
0.0032875593
0.0032152145
0.0031433599
0.0030720216
0.0030012249
0.0029309946
0.0028613549
0.0027923287
0.0027239381
0.0026562038
0.0025891454
0.0025227808
0.0024571266
0.0023921977
0.0023280073
0.002264567
0.0022018867
0.0021399746
0.0020788372
0.0020184795
0.001958905
0.0019001156
0.0018421123
0.0017848948
0.001728462
0.0016728119
0.0016179421
0.0015638501
0.0015105329
0.0014579877
0.0014062121
0.0013552037
0.0013049604
0.0012554805
0.0012067623
0.0011588046
0.0011116052
0.0010651633
0.0010194771
0.00097455984
0.00093043859
0.0042734027
0.0041966044
0.0041199473
0.0040434755
0.0039672135
0.0038911808
0.003815409
0.0037399238
0.0036647486
0.0035899072
0.0035154244
0.0034413258
0.0033676377
0.0032943865
0.0032215987
0.0031493006
0.0030775183
0.0030062773
0.0029356025
0.0028655181
0.0027960475
0.002727213
0.0026590357
0.0025915356
0.0025247313
0.0024586398
0.0023932767
0.002328656
0.00226479
0.0022016893
0.0021393631
0.0020778187
0.0020170621
0.0019570975
0.0018979279
0.0018395551
0.0017819795
0.0017252009
0.0016692178
0.0016140286
0.0015596311
0.0015060228
0.0014532013
0.0014011641
0.0013499089
0.0012994336
0.0012497362
0.0012008149
0.0011526674
0.0011052921
0.0010586854
0.0010128467
0.00096778727
0.00092353415
0.0042850357
0.0042078126
0.0041307354
0.004053845
0.0039771676
0.0039007247
0.0038245434
0.003748648
0.0036730623
0.0035978101
0.0035229163
0.0034484065
0.0033743067
0.0033006434
0.0032274429
0.0031547315
0.0030825352
0.0030108797
0.00293979
0.0028692905
0.0027994048
0.0027301555
0.0026615642
0.0025936511
0.0025264354
0.0024599346
0.0023941649
0.0023291411
0.002264876
0.0022013811
0.0021386664
0.00207674
0.0020156086
0.0019552774
0.0018957503
0.0018370296
0.0017791169
0.0017220122
0.0016657151
0.0016102243
0.0015555381
0.0015016545
0.0014485713
0.0013962862
0.0013447969
0.0012941014
0.0012441975
0.001195083
0.0011467555
0.0010992118
0.0010524497
0.0010064652
0.0009612704
0.00091689157
0.0042957333