/*--------------------------------*- C++ -*----------------------------------*\
| =========                 |                                                 |
| \\      /  F ield         | OpenFOAM: The Open Source CFD Toolbox           |
|  \\    /   O peration     | Version:  2312                                  |
|   \\  /    A nd           | Website:  www.openfoam.com                      |
|    \\/     M anipulation  |                                                 |
\*---------------------------------------------------------------------------*/
FoamFile
{
    version     2.0;
    format      ascii;
    arch        "LSB;label=32;scalar=64";
    class       volScalarField;
    location    "0.07";
    object      N2;
}
// * * * * * * * * * * * * * * * * * * * * * * * * * * * * * * * * * * * * * //

dimensions      [0 0 0 0 0 0 0];

internalField   nonuniform List<scalar> 
3250
(
0.76151698
0.76162624
0.76173893
0.76185468
0.76197322
0.76209431
0.76221768
0.7623431
0.76247029
0.76259898
0.76272893
0.76285987
0.76299158
0.76312382
0.76325638
0.76338906
0.76352168
0.76365405
0.76378602
0.76391753
0.76404878
0.76418109
0.76432034
0.76449129
0.76479698
0.76566457
0.76609402
0.76667077
0.76704642
0.76741914
0.76771497
0.76798773
0.76821443
0.76839159
0.76853554
0.76865577
0.76875939
0.76885003
0.76893033
0.769002
0.76906641
0.76912459
0.76917735
0.76922531
0.76085789
0.7609895
0.76112403
0.76126111
0.76140047
0.76154187
0.76168504
0.76182975
0.76197572
0.76212269
0.76227041
0.76241864
0.76256715
0.76271571
0.76286412
0.76301217
0.76315969
0.7633065
0.76345245
0.76359743
0.76374141
0.76388475
0.76402889
0.76417871
0.76434779
0.764561
0.76476887
0.76500484
0.7652343
0.765476
0.76571456
0.76595521
0.76618476
0.76639548
0.76658998
0.76677071
0.76694011
0.76709939
0.76724945
0.76739084
0.76752407
0.76764956
0.76776763
0.76787856
0.75970145
0.75986999
0.76004073
0.76021334
0.76038753
0.76056304
0.76073959
0.76091693
0.76109478
0.7612729
0.76145101
0.76162889
0.76180629
0.761983
0.76215881
0.76233352
0.76250695
0.76267894
0.76284933
0.76301798
0.7631848
0.76334978
0.76351316
0.76367566
0.76383885
0.76400493
0.76417224
0.76434346
0.7645166
0.76469372
0.76487335
0.76505542
0.76523648
0.76541373
0.76558672
0.76575546
0.76592011
0.76608061
0.76623686
0.76638866
0.76653586
0.76667829
0.7668158
0.76694823
0.75822593
0.75843771
0.75865114
0.75886587
0.7590816
0.759298
0.7595148
0.75973169
0.7599484
0.76016463
0.76038012
0.76059461
0.76080786
0.76101963
0.76122971
0.76143789
0.76164398
0.7618478
0.7620492
0.76224802
0.76244414
0.76263746
0.76282794
0.76301562
0.76320067
0.76338334
0.76356376
0.76374235
0.76391927
0.76409497
0.76426953
0.76444295
0.76461464
0.764784
0.76495083
0.76511503
0.76527658
0.76543537
0.7655913
0.76574422
0.76589396
0.76604038
0.76618332
0.76632262
0.75658609
0.75684131
0.75709794
0.75735559
0.75761391
0.75787254
0.75813113
0.75838935
0.75864687
0.75890338
0.75915857
0.75941216
0.75966386
0.75991343
0.76016061
0.76040519
0.76064694
0.76088568
0.76112123
0.76135342
0.76158211
0.76180717
0.7620285
0.76224602
0.7624597
0.76266953
0.76287555
0.76307782
0.76327644
0.76347156
0.76366327
0.76385164
0.76403663
0.76421818
0.76439629
0.76457098
0.76474229
0.76491023
0.76507478
0.76523594
0.76539367
0.76554795
0.76569873
0.765846
0.75489297
0.7551887
0.75548588
0.75578409
0.75608291
0.75638191
0.75668071
0.75697892
0.75727614
0.75757204
0.75786625
0.75815846
0.75844834
0.75873559
0.75901995
0.75930114
0.75957893
0.75985309
0.76012341
0.76038972
0.76065184
0.76090963
0.76116296
0.76141173
0.76165584
0.76189524
0.76212989
0.7623598
0.76258496
0.76280543
0.76302123
0.76323243
0.76343905
0.76364112
0.7638387
0.76403184
0.7642206
0.76440502
0.76458517
0.76476109
0.76493282
0.7651004
0.76526389
0.76542333
0.75321347
0.753546
0.75388022
0.75421563
0.75455177
0.75488817
0.75522437
0.75555992
0.75589442
0.75622743
0.75655858
0.75688748
0.75721377
0.75753712
0.75785721
0.75817373
0.7584864
0.75879498
0.75909923
0.75939892
0.75969386
0.75998389
0.76026886
0.76054863
0.76082309
0.76109216
0.76135578
0.76161391
0.76186652
0.76211362
0.7623552
0.76259131
0.76282196
0.76304719
0.76326706
0.76348162
0.76369094
0.76389506
0.76409408
0.76428804
0.76447704
0.76466114
0.76484043
0.76501499
0.75158089
0.75194701
0.75231511
0.75268465
0.75305511
0.75342598
0.75379675
0.75416694
0.75453607
0.75490369
0.75526935
0.75563264
0.75599315
0.7563505
0.75670434
0.75705432
0.75740013
0.75774148
0.7580781
0.75840973
0.75873617
0.75905721
0.75937267
0.7596824
0.75998627
0.76028419
0.76057605
0.7608618
0.7611414
0.76141481
0.76168204
0.76194309
0.76219797
0.76244673
0.76268939
0.76292602
0.76315667
0.76338141
0.76360031
0.76381345
0.76402092
0.76422281
0.76441921
0.76461023
0.75000782
0.75040517
0.75080477
0.75120606
0.75160848
0.75201147
0.75241449
0.75281701
0.75321852
0.75361851
0.75401651
0.75441206
0.75480471
0.75519405
0.75557969
0.75596124
0.75633835
0.75671071
0.757078
0.75743996
0.75779633
0.75814688
0.75849143
0.75882978
0.75916179
0.75948734
0.75980631
0.76011863
0.76042423
0.76072307
0.76101514
0.76130041
0.76157892
0.76185066
0.76211569
0.76237404
0.76262578
0.76287098
0.7631097
0.76334204
0.76356808
0.76378792
0.76400168
0.76420945
0.74765242
0.74807257
0.74849642
0.74892336
0.74935281
0.74978415
0.7502168
0.75065016
0.75108365
0.75151673
0.75194882
0.75237941
0.75280797
0.75323402
0.75365707
0.75407667
0.75449239
0.75490383
0.7553106
0.75571235
0.75610874
0.75649948
0.75688428
0.75726289
0.7576351
0.7580007
0.75835952
0.75871141
0.75905626
0.75939395
0.75972443
0.76004762
0.76036349
0.76067203
0.76097323
0.76126712
0.76155372
0.76183308
0.76210524
0.76237029
0.76262829
0.76287934
0.76312353
0.76336096
0.76359175
0.76381601
0.74614475
0.74659285
0.74704491
0.74750029
0.74795836
0.74841851
0.7488801
0.74934251
0.74980514
0.7502674
0.7507287
0.75118848
0.7516462
0.75210132
0.75255334
0.75300177
0.75344616
0.75388606
0.75432108
0.75475081
0.75517492
0.75559307
0.75600495
0.7564103
0.75680886
0.75720043
0.7575848
0.75796182
0.75833134
0.75869325
0.75904746
0.7593939
0.75973252
0.7600633
0.76038623
0.76070132
0.76100859
0.76130809
0.76159986
0.76188399
0.76216054
0.76242962
0.76269131
0.76294573
0.76319299
0.76343322
0.74469616
0.74517137
0.74565074
0.74613362
0.74661936
0.74710731
0.74759681
0.74808721
0.74857789
0.74906823
0.7495576
0.75004542
0.75053111
0.75101413
0.75149392
0.75196998
0.75244183
0.752909
0.75337105
0.75382757
0.75427819
0.75472254
0.75516032
0.75559122
0.75601497
0.75643135
0.75684013
0.75724115
0.75763424
0.75801928
0.75839616
0.75876481
0.75912516
0.75947719
0.75982088
0.76015623
0.76048327
0.76080204
0.76111258
0.76141497
0.7617093
0.76199564
0.76227412
0.76254484
0.76280792
0.7630635
0.74330445
0.74380597
0.74431184
0.74482137
0.74533389
0.74584873
0.74636521
0.74688266
0.74740042
0.74791784
0.74843428
0.74894912
0.74946177
0.74997163
0.75047815
0.75098078
0.75147902
0.75197238
0.75246039
0.75294262
0.75341868
0.75388818
0.75435078
0.75480616
0.75525405
0.75569419
0.75612635
0.75655034
0.75696599
0.75737315
0.75777172
0.7581616
0.75854274
0.75891509
0.75927862
0.75963335
0.75997928
0.76031647
0.76064496
0.76096481
0.76127613
0.761579
0.76187353
0.76215984
0.76243806
0.76270832
0.74196827
0.74249528
0.7430268
0.74356212
0.74410055
0.7446414
0.74518395
0.74572752
0.74627142
0.74681497
0.74735753
0.74789843
0.74843705
0.74897278
0.74950504
0.75003326
0.75055691
0.75107546
0.75158844
0.75209539
0.75259589
0.75308955
0.75357598
0.75405488
0.75452593
0.75498886
0.75544343
0.75588944
0.7563267
0.75675506
0.7571744
0.75758461
0.75798564
0.75837742
0.75875994
0.7591332
0.75949721
0.759852
0.76019764
0.76053419
0.76086175
0.76118041
0.76149028
0.76179149
0.76208417
0.76236847
0.74068677
0.74123841
0.7417947
0.74235493
0.74291837
0.7434843
0.74405201
0.74462076
0.74518987
0.74575862
0.74632633
0.74689234
0.74745598
0.74801663
0.74857367
0.74912651
0.7496746
0.75021739
0.75075439
0.75128511
0.7518091
0.75232596
0.7528353
0.75333677
0.75383005
0.75431486
0.75479093
0.75525806
0.75571604
0.75616471
0.75660395
0.75703364
0.75745371
0.7578641
0.75826479
0.75865577
0.75903706
0.7594087
0.75977073
0.76012324
0.76046632
0.76080006
0.76112459
0.76144003
0.76174652
0.76204422
0.73945935
0.74003473
0.74061489
0.7411991
0.74178661
0.7423767
0.7429686
0.7435616
0.74415495
0.74474794
0.74533986
0.74593001
0.74651771
0.74710231
0.74768317
0.74825969
0.74883126
0.74939735
0.74995742
0.75051097
0.75105753
0.75159667
0.752128
0.75265113
0.75316574
0.75367153
0.75416823
0.75465561
0.75513345
0.75560159
0.75605989
0.75650823
0.75694653
0.75737473
0.75779281
0.75820075
0.75859857
0.75898631
0.75936401
0.75973177
0.76008967
0.76043782
0.76077633
0.76110536
0.76142503
0.76173551
0.73828546
0.73888365
0.73948675
0.74009399
0.74070463
0.7413179
0.74193305
0.74254931
0.74316595
0.7437822
0.74439735
0.74501066
0.74562146
0.74622905
0.74683277
0.747432
0.74802612
0.74861455
0.74919675
0.7497722
0.75034041
0.75090092
0.75145333
0.75199723
0.7525323
0.7530582
0.75357466
0.75408143
0.75457829
0.75506507
0.75554162
0.75600781
0.75646356
0.7569088
0.7573435
0.75776766
0.75818128
0.7585844
0.75897708
0.7593594
0.75973145
0.76009335
0.76044522
0.7607872
0.76111944
0.7614421
0.73716444
0.73778452
0.7384096
0.73903892
0.73967171
0.74030721
0.74094462
0.74158318
0.74222211
0.74286065
0.74349805
0.74413356
0.74476647
0.74539608
0.7460217
0.74664268
0.74725839
0.74786823
0.74847163
0.74906805
0.74965698
0.75023796
0.75081055
0.75137434
0.75192898
0.75247413
0.7530095
0.75353483
0.75404989
0.7545545
0.7550485
0.75553176
0.75600418
0.75646571
0.7569163
0.75735594
0.75778464
0.75820245
0.75860943
0.75900564
0.7593912
0.75976621
0.76013081
0.76048514
0.76082936
0.76116364
0.73546038
0.73609553
0.73673654
0.73738265
0.7380331
0.73868709
0.73934383
0.74000253
0.74066241
0.74132266
0.7419825
0.74264117
0.7432979
0.74395196
0.74460262
0.74524917
0.74589095
0.7465273
0.7471576
0.74778127
0.74839773
0.74900648
0.74960703
0.75019891
0.75078171
0.75135505
0.7519186
0.75247204
0.7530151
0.75354755
0.75406919
0.75457985
0.75507941
0.75556776
0.75604482
0.75651057
0.75696499
0.75740809
0.75783991
0.75826051
0.75866998
0.7590684
0.75945591
0.75983264
0.76019873
0.76055435
0.76089968
0.73442273
0.73507778
0.73573879
0.73640499
0.73707561
0.73774983
0.73842686
0.73910588
0.7397861
0.7404667
0.74114687
0.74182584
0.74250283
0.74317706
0.74384781
0.74451434
0.74517597
0.74583202
0.74648185
0.74712485
0.74776046
0.74838812
0.74900733
0.74961762
0.75021856
0.75080976
0.75139086
0.75196154
0.75252152
0.75307055
0.75360843
0.75413499
0.75465009
0.75515362
0.7556455
0.7561257
0.75659421
0.75705102
0.75749619
0.75792976
0.75835184
0.75876252
0.75916192
0.75955018
0.75992747
0.76029394
0.76064977
0.73343605
0.7341101
0.7347902
0.73547556
0.7361654
0.73685891
0.73755528
0.73825367
0.73895327
0.73965325
0.7403528
0.74105111
0.74174739
0.74244085
0.74313073
0.7438163
0.74449684
0.74517166
0.7458401
0.74650154
0.74715537
0.74780105
0.74843805
0.74906589
0.74968411
0.75029232
0.75089014
0.75147724
0.75205334
0.75261817
0.75317152
0.75371322
0.75424311
0.75476109
0.75526708
0.75576104
0.75624294
0.7567128
0.75717066
0.75761659
0.75805066
0.75847298
0.75888369
0.75928292
0.75967084
0.76004761
0.76041342
0.73249915
0.7331913
0.73388958
0.73459319
0.73530134
0.7360132
0.73672796
0.73744478
0.73816282
0.73888125
0.73959923
0.74031594
0.74103057
0.74174232
0.74245042
0.74315409
0.74385262
0.7445453
0.74523144
0.74591041
0.74658159
0.74724441
0.74789833
0.74854286
0.74917753
0.74980191
0.75041564
0.75101837
0.75160979
0.75218964
0.75275771
0.7533138
0.75385776
0.75438948
0.75490888
0.75541591
0.75591055
0.75639281
0.75686273
0.75732038
0.75776585
0.75819923
0.75862067
0.75903031
0.75942832
0.75981487
0.76019014
0.73090828
0.73161071
0.73232009
0.73303564
0.7337566
0.73448215
0.73521147
0.73594371
0.73667804
0.7374136
0.73814955
0.73888504
0.73961923
0.74035129
0.74108041
0.7418058
0.74252668
0.7432423
0.74395194
0.7446549
0.74535052
0.74603818
0.74671729
0.74738728
0.74804766
0.74869795
0.74933771
0.74996654
0.7505841
0.75119008
0.75178421
0.75236624
0.752936
0.75349332
0.75403809
0.75457021
0.75508965
0.75559638
0.7560904
0.75657177
0.75704054
0.75749681
0.75794069
0.7583723
0.75879181
0.75919938
0.75959519
0.75997944
0.73005061
0.73076933
0.73149506
0.73222703
0.73296446
0.73370653
0.7344524
0.73520124
0.73595218
0.73670436
0.73745693
0.73820903
0.7389598
0.7397084
0.740454
0.7411958
0.74193299
0.74266482
0.74339055
0.74410946
0.74482088
0.74552417
0.74621873
0.74690398
0.74757939
0.74824449
0.74889883
0.74954199
0.75017363
0.75079342
0.75140107
0.75199636
0.75257907
0.75314906
0.75370619
0.75425039
0.75478158
0.75529976
0.75580494
0.75629715
0.75677646
0.75724296
0.75769677
0.75813803
0.75856688
0.7589835
0.75938808
0.75978081
0.72923932
0.72997351
0.73071476
0.73146231
0.73221536
0.73297308
0.73373465
0.73449921
0.73526588
0.73603382
0.73680214
0.73756997
0.73833644
0.73910071
0.73986192
0.74061926
0.74137191
0.74211909
0.74286006
0.74359409
0.74432047
0.74503857
0.74574776
0.74644745
0.74713712
0.74781625
0.74848439
0.74914114
0.7497861
0.75041896
0.75103944
0.75164727
0.75224226
0.75282423
0.75339308
0.75394869
0.75449102
0.75502004
0.75553577
0.75603824
0.75652752
0.7570037
0.75746691
0.75791728
0.75835496
0.75878014
0.75919301
0.75959376
0.72847289
0.72922174
0.7299777
0.73074
0.73150783
0.73228038
0.7330568
0.73383623
0.73461781
0.73540064
0.73618386
0.73696657
0.73774791
0.73852699
0.73930297
0.74007501
0.74084229
0.741604
0.74235939
0.74310771
0.74384825
0.74458036
0.74530339
0.74601675
0.74671989
0.7474123
0.74809351
0.74876309
0.74942066
0.75006589
0.75069849
0.75131818
0.75192478
0.7525181
0.75309801
0.75366442
0.75421727
0.75475654
0.75528224
0.75579441
0.75629311
0.75677844
0.75725052
0.7577095
0.75815553
0.75858879
0.75900948
0.7594178
0.7269949
0.72774975
0.72851248
0.72928234
0.73005858
0.7308404
0.73162696
0.73241742
0.73321092
0.73400657
0.73480348
0.73560078
0.73639755
0.73719293
0.73798601
0.73877595
0.73956187
0.74034296
0.7411184
0.74188741
0.74264924
0.74340316
0.7441485
0.74488461
0.74561088
0.74632676
0.74703171
0.74772526
0.74840697
0.74907645
0.74973337
0.75037741
0.75100831
0.75162587
0.75222989
0.75282026
0.75339687
0.75395966
0.7545086
0.75504371
0.75556503
0.75607262
0.75656658
0.75704704
0.75751413
0.75796803
0.75840892
0.75883699
0.75925245
0.72630038
0.72706829
0.72784412
0.72862712
0.72941654
0.73021156
0.73101135
0.73181506
0.73262183
0.73343076
0.73424097
0.73505154
0.73586159
0.73667021
0.73747651
0.73827961
0.73907864
0.73987276
0.74066115
0.74144301
0.74221758
0.74298413
0.74374196
0.74449041
0.74522887
0.74595675
0.74667354
0.74737873
0.74807189
0.74875261
0.74942055
0.75007539
0.75071686
0.75134476
0.75195888
0.75255911
0.75314533
0.75371749
0.75427556
0.75481954
0.75534948
0.75586545
0.75636755
0.75685589
0.75733064
0.75779195
0.75824002
0.75867504
0.75909723
0.72564662
0.72642688
0.72721507
0.72801048
0.72881231
0.72961978
0.73043205
0.73124826
0.73206754
0.73288899
0.73371172
0.73453481
0.73535737
0.73617847
0.73699722
0.73781272
0.7386241
0.73943051
0.7402311
0.74102508
0.74181166
0.7425901
0.74335969
0.74411978
0.74486971
0.74560892
0.74633686
0.74705302
0.74775696
0.74844827
0.7491266
0.74979161
0.75044305
0.75108068
0.75170432
0.75231383
0.75290911
0.75349009
0.75405675
0.75460909
0.75514715
0.75567101
0.75618076
0.75667653
0.75715847
0.75762676
0.75808158
0.75852314
0.75895166
0.72503198
0.72582388
0.72662374
0.72743083
0.72824437
0.72906357
0.72988758
0.73071555
0.73154661
0.73237984
0.73321436
0.73404924
0.73488356
0.73571641
0.73654688
0.73737406
0.73819706
0.73901503
0.73982711
0.74063248
0.74143036
0.74222
0.74300067
0.7437717
0.74453244
0.74528231
0.74602074
0.74674723
0.74746132
0.74816259
0.74885069
0.74952528
0.75018608
0.75083288
0.75146547
0.75208372
0.75268752
0.7532768
0.75385153
0.75441173
0.75495743
0.7554887
0.75600565
0.7565084
0.75699711
0.75747195
0.75793312
0.75838082
0.75881529
0.72445483
0.7252577
0.72606853
0.72688661
0.72771117
0.72854139
0.72937645
0.73021549
0.73105762
0.73190193
0.73274753
0.73359349
0.73443887
0.73528276
0.73612424
0.73696239
0.73779632
0.73862516
0.73944803
0.74026412
0.74107263
0.74187279
0.74266387
0.74344519
0.74421609
0.74497597
0.74572426
0.74646046
0.74718409
0.74789473
0.74859201
0.7492756
0.74994521
0.75060062
0.75124162
0.75186808
0.75247988
0.75307695
0.75365928
0.75422685
0.75477972
0.75531796
0.75584167
0.75635097
0.75684603
0.75732702
0.75779414
0.75824761
0.75868764
0.75911449
0.72391354
0.72472672
0.72554787
0.72637629
0.72721119
0.72805178
0.72889721
0.72974663
0.73059916
0.73145388
0.73230988
0.73316623
0.734022
0.73487626
0.73572808
0.73657653
0.73742072
0.73825975
0.73909276
0.73991891
0.74073739
0.74154743
0.74234829
0.74313926
0.7439197
0.74468898
0.74544653
0.74619184
0.74692443
0.74764386
0.74834976
0.74904179
0.74971967
0.75038316
0.75103206
0.75166622
0.75228553
0.75288992
0.75347936
0.75405386
0.75461345
0.75515822
0.75568827
0.75620372
0.75670473
0.75719149
0.75766419
0.75812305
0.7585683
0.75900017
0.72340651
0.72422937
0.72506021
0.72589832
0.72674293
0.72759324
0.72844841
0.72930757
0.73016985
0.73103432
0.73190008
0.73276618
0.73363169
0.73449566
0.73535717
0.73621528
0.73706909
0.73791768
0.73876019
0.73959577
0.74042361
0.74124291
0.74205293
0.74285296
0.74364233
0.74442043
0.74518667
0.74594052
0.7466815
0.74740917
0.74812316
0.74882311
0.74950874
0.7501798
0.7508361
0.75147747
0.75210382
0.75271506
0.75331118
0.75389216
0.75445806
0.75500895
0.75554493
0.75606614
0.75657273
0.75706488
0.75754281
0.75800672
0.75845685
0.75889344
0.72293215
0.7237641
0.72460402
0.72545122
0.72630493
0.72716435
0.72802863
0.72889692
0.72976832
0.73064193
0.73151682
0.73239205
0.73326668
0.73413975
0.73501034
0.73587749
0.73674029
0.73759784
0.73844925
0.73929366
0.74013025
0.74095823
0.74177683
0.74258534
0.74338309
0.74416944
0.7449438
0.74570565
0.74645449
0.74718989
0.74791143
0.7486188
0.74931168
0.74998984
0.75065306
0.75130119
0.75193413
0.75255179
0.75315414
0.7537412
0.754313
0.75486961
0.75541114
0.75593773
0.75644954
0.75694675
0.75742956
0.75789819
0.75835289
0.7587939
0.72248894
0.72332938
0.72417781
0.72503352
0.72589574
0.72676368
0.72763649
0.72851331
0.72939325
0.73027541
0.73115883
0.7320426
0.73292575
0.73380734
0.73468641
0.73556202
0.73643324
0.73729916
0.73815889
0.73901156
0.73985634
0.74069242
0.74151905
0.74233549
0.74314106
0.74393513
0.7447171
0.74548643
0.74624262
0.74698523
0.74771386
0.74842815
0.74912782
0.7498126
0.7504823
0.75113675
0.75177584
0.7523995
0.75300769
0.75360042
0.75417773
0.75473969
0.75528641
0.75581804
0.75633472
0.75683664
0.75732402
0.75779707
0.75825603
0.75870116
0.72207535
0.72292374
0.72378012
0.72464379
0.72551396
0.72638986
0.72727063
0.72815543
0.72904335
0.72993347
0.73082488
0.73171662
0.73260773
0.73349726
0.73438425
0.73526776
0.73614684
0.73702058
0.73788808
0.73874846
0.73960089
0.74044455
0.74127867
0.74210251
0.7429154
0.74371668
0.74450575
0.74528206
0.74604512
0.74679446
0.7475297
0.74825046
0.74895646
0.74964744
0.75032318
0.75098353
0.75162837
0.75225763
0.75287127
0.75346929
0.75405174
0.7546187
0.75517027
0.75570658
0.75622781
0.75673414
0.75722577
0.75770294
0.75816588
0.75861486
0.72168991
0.72254574
0.72340954
0.72428063
0.72515823
0.72604155
0.72692975
0.72782198
0.72871734
0.72961491
0.73051375
0.73141292
0.73231146
0.7332084
0.73410278
0.73499365
0.73588006
0.73676109
0.73763584
0.73850341
0.73936297
0.74021369
0.7410548
0.74188555
0.74270526
0.74351326
0.74430895
0.74509178
0.74586124
0.74661687
0.74735826
0.74808507
0.74879697
0.74949372
0.7501751
0.75084095
0.75149115
0.75212563
0.75274434
0.7533473
0.75393455
0.75450616
0.75506224
0.75560293
0.7561284
0.75663882
0.75713443
0.75761543
0.75808208
0.75853464
0.72133121
0.72219396
0.72306469
0.72394269
0.72482721
0.72571745
0.72661257
0.72751173
0.72841401
0.7293185
0.73022428
0.73113037
0.73203582
0.73293966
0.73384092
0.73473865
0.73563189
0.73651971
0.7374012
0.73827547
0.73914167
0.73999897
0.74084659
0.74168378
0.74250983
0.74332409
0.74412595
0.74491485
0.74569027
0.74645175
0.74719889
0.74793131
0.74864871
0.74935084
0.75003747
0.75070844
0.75136363
0.75200296
0.75262641
0.75323396
0.75382567
0.75440161
0.7549619
0.75550666
0.75603607
0.75655031
0.75704961
0.75753418
0.75800429
0.75846018
0.72099786
0.72186707
0.72274424
0.72362868
0.72451963
0.7254163
0.72631786
0.72722345
0.72813218
0.72904312
0.72995533
0.73086785
0.73177973
0.73268999
0.73359765
0.73450175
0.73540134
0.73629548
0.73718324
0.73806374
0.73893612
0.73979954
0.74065321
0.74149637
0.74232833
0.74314842
0.74395601
0.74475055
0.74553152
0.74629844
0.74705091
0.74778856
0.74851108
0.7492182
0.74990972
0.75058545
0.75124528
0.75188913
0.75251697
0.75312879
0.75372465
0.75430462
0.75486881
0.75541736
0.75595043
0.75646822
0.75697095
0.75745885
0.75793216
0.75839114
0.72068852
0.72156374
0.72244691
0.72333732
0.72423425
0.72513689
0.72604443
0.726956
0.7278707
0.72878762
0.72970581
0.73062431
0.73154216
0.73245837
0.73337197
0.734282
0.73518748
0.73608748
0.73698107
0.73786735
0.73874546
0.73961456
0.74047385
0.74132257
0.74216002
0.74298551
0.74379843
0.74459821
0.74538432
0.7461563
0.74691373
0.74765623
0.7483835
0.74909526
0.7497913
0.75047145
0.75113559
0.75178364
0.75241555
0.75303135
0.75363106
0.75421476
0.75478257
0.75533463
0.75587111
0.75639219
0.75689811
0.75738908
0.75786537
0.75832723
0.72040193
0.72128273
0.72217145
0.72306741
0.72396987
0.72487805
0.72579113
0.72670824
0.72762849
0.72855095
0.72947468
0.73039872
0.7313221
0.73224383
0.73316294
0.73407845
0.7349894
0.73589483
0.73679382
0.73768547
0.73856889
0.73944326
0.74030776
0.74116163
0.74200416
0.74283466
0.74365252
0.74445716
0.74524805
0.74602471
0.74678673
0.74753373
0.7482654
0.74898147
0.74968171
0.75036596
0.75103409
0.75168602
0.75232172
0.75294118
0.75354446
0.75413163
0.7547028
0.75525812
0.75579774
0.75632188
0.75683075
0.75732458
0.75780362
0.75826814
0.72013687
0.72102283
0.72191669
0.72281777
0.72372535
0.72463866
0.72555686
0.7264791
0.72740447
0.72833206
0.72926093
0.73019009
0.73111859
0.73204543
0.73296963
0.73389022
0.73480623
0.73571669
0.73662068
0.73751729
0.73840563
0.73928487
0.7401542
0.74101284
0.74186007
0.74269521
0.74351764
0.74432677
0.74512208
0.74590308
0.74666935
0.74742051
0.74815626
0.7488763
0.74958043
0.75026847
0.7509403
0.75159583
0.75223502
0.75285789
0.75346447
0.75405485
0.75462913
0.75518745
0.75572999
0.75625696
0.75676855
0.75726502
0.75774662
0.7582136
0.71727395
0.71813708
0.71900999
0.71989219
0.72078288
0.72168146
0.72258727
0.72349959
0.72441762
0.72534056
0.72626753
0.72719765
0.72812998
0.72906358
0.72999748
0.7309307
0.73186226
0.73279118
0.73371646
0.73463713
0.73555224
0.73646085
0.73736204
0.73825493
0.73913867
0.74001245
0.7408755
0.74172708
0.74256651
0.74339316
0.74420644
0.74500583
0.74579084
0.74656104
0.74731605
0.74805556
0.74877928
0.749487
0.75017855
0.75085378
0.75151264
0.75215507
0.75278107
0.75339071
0.75398404
0.75456119
0.75512229
0.75566753
0.7561971
0.75671122
0.75721013
0.75769408
0.75816334
0.71617801
0.71703541
0.71790294
0.71878022
0.71966671
0.72056174
0.72146468
0.72237485
0.72329152
0.72421392
0.72514122
0.72607256
0.72700704
0.72794374
0.72888171
0.72981998
0.73075756
0.73169347
0.73262673
0.73355633
0.73448131
0.73540071
0.73631357
0.73721899
0.73811607
0.73900397
0.73988186
0.74074896
0.74160455
0.74244794
0.74327848
0.7440956
0.74489875
0.74568745
0.74646127
0.74721984
0.74796281
0.74868993
0.74940096
0.75009574
0.75077412
0.75143604
0.75208145
0.75271035
0.7533228
0.75391886
0.75449865
0.75506232
0.75561005
0.75614202
0.75665846
0.75715962
0.75764575
0.75811711
0.71595454
0.71681597
0.71768755
0.71856885
0.71945932
0.72035834
0.72126528
0.72217946
0.72310014
0.72402655
0.72495787
0.72589323
0.72683173
0.72777245
0.72871443
0.72965671
0.73059831
0.73153823
0.73247547
0.73340906
0.734338
0.73526134
0.73617813
0.73708744
0.73798838
0.7388801
0.73976177
0.74063261
0.74149189
0.74233891
0.74317304
0.74399368
0.7448003
0.7455924
0.74636956
0.74713139
0.74787756
0.7486078
0.74932188
0.75001962
0.75070091
0.75136564
0.75201379
0.75264536
0.7532604
0.75385897
0.7544412
0.75500723
0.75555724
0.75609142
0.75661001
0.75711323
0.75760136
0.75807466
0.71574935
0.71661453
0.71748983
0.71837481
0.71926895
0.72017164
0.72108226
0.72200012
0.72292448
0.72385458
0.72478958
0.72572862
0.72667081
0.72761522
0.7285609
0.72950687
0.73045215
0.73139574
0.73233666
0.7332739
0.73420648
0.73513344
0.73605382
0.73696671
0.73787119
0.73876642
0.73965156
0.74052584
0.74138851
0.74223887
0.74307629
0.74390018
0.74470997
0.7455052
0.74628542
0.74705025
0.74779935
0.74853246
0.74924934
0.74994982
0.75063376
0.75130108
0.75195175
0.75258577
0.75320318
0.75380406
0.75438852
0.75495672
0.75550883
0.75604504
0.75656559
0.75707072
0.75756069
0.75803576
0.71556141
0.71643003
0.71730873
0.7181971
0.71909461
0.72000067
0.72091466
0.72183588
0.72276362
0.72369709
0.72463546
0.72557789
0.72652346
0.72747125
0.7284203
0.72936965
0.7303183
0.73126527
0.73220954
0.73315013
0.73408605
0.73501632
0.73594
0.73685616
0.73776389
0.73866234
0.73955066
0.74042808
0.74129386
0.74214729
0.74298772
0.74381457
0.74462729
0.74542538
0.7462084
0.74697598
0.74772777
0.74846351
0.74918295
0.74988593
0.75057231
0.75124201
0.75189498
0.75253124
0.75315083
0.75375382
0.75434033
0.75491052
0.75546454
0.75600262
0.75652498
0.75703185
0.7575235
0.7580002
0.7153897
0.71626146
0.71714329
0.71803476
0.71893535
0.71984449
0.72076155
0.72168586
0.72261667
0.72355322
0.72449468
0.72544019
0.72638885
0.72733973
0.72829187
0.7292443
0.73019604
0.73114608
0.73209343
0.73303707
0.73397604
0.73490935
0.73583604
0.73675519
0.73766589
0.73856727
0.73945851
0.7403388
0.74120742
0.74206364
0.74290684
0.7437364
0.74455178
0.74535248
0.74613808
0.74690816
0.74766242
0.74840055
0.74912234
0.7498276
0.75051621
0.75118808
0.75184316
0.75248147
0.75310305
0.75370797
0.75429636
0.75486835
0.75542414
0.75596392
0.75648792
0.75699639
0.75748958
0.75796778
0.71523325
0.71610789
0.71699256
0.71788685
0.71879025
0.7197022
0.72062207
0.72154918
0.7224828
0.72342216
0.72436643
0.72531475
0.72626622
0.72721991
0.72817487
0.72913012
0.73008466
0.73103751
0.73198765
0.73293409
0.73387583
0.7348119
0.73574134
0.73666321
0.73757662
0.73848068
0.73937456
0.74025748
0.74112868
0.74198746
0.74283317
0.7436652
0.74448301
0.7452861
0.74607403
0.74684641
0.7476029
0.74834323
0.74906715
0.7497745
0.75046514
0.75113898
0.75179599
0.75243617
0.75305956
0.75366624
0.75425633
0.75482998
0.75538737
0.7559287
0.7564542
0.75696412
0.75745873
0.75793829
0.71509114
0.71596839
0.71685565
0.71775251
0.71865847
0.71957297
0.72049539
0.72142505
0.72236122
0.72330312
0.72424994
0.72520082
0.72615484
0.72711109
0.7280686
0.7290264
0.7299835
0.73093889
0.73189158
0.73284055
0.73378481
0.73472339
0.73565533
0.73657968
0.73749554
0.73840204
0.73929833
0.74018363
0.74105718
0.74191828
0.74276627
0.74360055
0.74442057
0.74522583
0.74601588
0.74679034
0.74754887
0.74829119
0.74901705
0.7497263
0.75041878
0.75109442
0.75175317
0.75239505
0.75302008
0.75362837
0.75422001
0.75479516
0.755354
0.75589674
0.75642361
0.75693485
0.75743075
0.75791155
0.7149625
0.71584211
0.71673172
0.71763091
0.71853918
0.71945599
0.72038071
0.72131268
0.72225115
0.72319537
0.7241445
0.72509768
0.72605402
0.72701258
0.72797241
0.72893252
0.72989193
0.73084963
0.73180461
0.73275588
0.73370243
0.73464328
0.73557747
0.73650407
0.73742215
0.73833086
0.73922933
0.74011679
0.74099247
0.74185567
0.74270573
0.74354204
0.74436406
0.74517128
0.74596326
0.74673961
0.74749998
0.74824409
0.74897172
0.74968268
0.75037683
0.7510541
0.75171444
0.75235785
0.75298438
0.75359411
0.75418715
0.75476367
0.75532383
0.75586784
0.75639594
0.75690839
0.75740545
0.75788739
0.71484649
0.71572823
0.71661995
0.71752124
0.7184316
0.71935049
0.7202773
0.72121134
0.7221519
0.72309819
0.72404941
0.72500467
0.7259631
0.72692374
0.72788566
0.72884785
0.72980935
0.73076912
0.73172618
0.73267952
0.73362813
0.73457103
0.73550726
0.73643588
0.73735597
0.73826666
0.73916711
0.74005651
0.74093411
0.74179921
0.74265114
0.74348929
0.74431311
0.7451221
0.74591582
0.74669386
0.7474559
0.74820164
0.74893086
0.74964336
0.75033902
0.75101776
0.75167952
0.75232432
0.7529522
0.75356324
0.75415755
0.75473529
0.75529664
0.7558418
0.75637102
0.75688455
0.75738266
0.75786563
0.71474232
0.71562597
0.71651959
0.71742276
0.718335
0.71925576
0.72018443
0.72112034
0.72206276
0.72301093
0.72396401
0.72492115
0.72588144
0.72684396
0.72780775
0.72877182
0.72973518
0.73069683
0.73165575
0.73261094
0.7335614
0.73450615
0.73544421
0.73637465
0.73729654
0.73820902
0.73911124
0.74000239
0.74088171
0.74174851
0.74260212
0.74344192
0.74426736
0.74507795
0.74587322
0.7466528
0.74741633
0.74816353
0.74889417
0.74960807
0.75030509
0.75098514
0.75164819
0.75229423
0.75292332
0.75353553
0.75413098
0.75470982
0.75527224
0.75581844
0.75634866
0.75686316
0.75736221
0.75784612
0.71464923
0.71553459
0.7164299
0.71733475
0.71824867
0.7191711
0.72010144
0.72103902
0.72198311
0.72293294
0.72388769
0.7248465
0.72580847
0.72677266
0.72773812
0.72870387
0.7296689
0.73063222
0.73159281
0.73254966
0.73350177
0.73444816
0.73538786
0.73631992
0.73724343
0.73815751
0.7390613
0.73995401
0.74083489
0.74170321
0.74255831
0.74339959
0.74422648
0.74503849
0.74583516
0.7466161
0.74738097
0.74812948
0.7488614
0.74957654
0.75027477
0.750956
0.75162019
0.75226735
0.75289752
0.75351078
0.75410725
0.75468708
0.75525045
0.75579757
0.75632869
0.75684406
0.75734396
0.7578287
0.7145665
0.71545338
0.7163502
0.71725655
0.71817195
0.71909587
0.72002769
0.72096674
0.72191232
0.72286363
0.72381987
0.72478016
0.72574361
0.72670929
0.72767624
0.72864347
0.72960999
0.73057479
0.73153686
0.73249519
0.73344877
0.73439662
0.73533778
0.73627128
0.73719622
0.73811172
0.73901692
0.73991102
0.74079327
0.74166294
0.74251938
0.74336197
0.74419015
0.74500342
0.74580133
0.74658349
0.74734955
0.74809922
0.74883227
0.74954852