/*--------------------------------*- C++ -*----------------------------------*\
| =========                 |                                                 |
| \\      /  F ield         | OpenFOAM: The Open Source CFD Toolbox           |
|  \\    /   O peration     | Version:  2312                                  |
|   \\  /    A nd           | Website:  www.openfoam.com                      |
|    \\/     M anipulation  |                                                 |
\*---------------------------------------------------------------------------*/
FoamFile
{
    version     2.0;
    format      ascii;
    arch        "LSB;label=32;scalar=64";
    class       volScalarField;
    location    "0.07";
    object      O2;
}
// * * * * * * * * * * * * * * * * * * * * * * * * * * * * * * * * * * * * * //

dimensions      [0 0 0 0 0 0 0];

internalField   nonuniform List<scalar> 
3250
(
0.21975912
0.21982443
0.21989488
0.21997013
0.22004995
0.22013412
0.22022242
0.22031461
0.22041044
0.22050967
0.22061207
0.22071742
0.22082548
0.22093604
0.22104888
0.2211638
0.22128058
0.22139906
0.22151905
0.22164052
0.2217638
0.2218908
0.22203003
0.22221713
0.22260015
0.22379276
0.22437007
0.22516962
0.22568597
0.22620556
0.2266183
0.22700238
0.22732223
0.22757157
0.22777403
0.22794314
0.22808914
0.22821711
0.22833075
0.22843245
0.2285241
0.22860716
0.22868279
0.22875184
0.2189724
0.21905941
0.21915117
0.2192474
0.21934785
0.21945232
0.21956056
0.21967233
0.2197874
0.21990551
0.22002644
0.22014996
0.22027583
0.22040384
0.22053377
0.22066542
0.22079857
0.22093303
0.22106864
0.22120525
0.2213429
0.22148207
0.22162489
0.22177841
0.22196222
0.22221232
0.22245876
0.22274999
0.22303622
0.22334496
0.22365371
0.2239701
0.22427428
0.22455438
0.22481398
0.22505641
0.22528498
0.22550124
0.22570625
0.22590063
0.22608494
0.22625963
0.22642511
0.22658166
0.21759319
0.2177154
0.21784196
0.21797259
0.21810706
0.21824512
0.21838652
0.21853101
0.21867834
0.21882824
0.21898048
0.21913482
0.21929101
0.21944882
0.21960803
0.21976841
0.21992976
0.22009187
0.22025454
0.22041761
0.22058096
0.22074459
0.22090882
0.22107473
0.22124456
0.22142152
0.22160332
0.22179398
0.22199069
0.2221966
0.22240966
0.2226298
0.22285193
0.22307182
0.22328873
0.22350259
0.22371353
0.22392134
0.22412571
0.22432625
0.22452259
0.22471439
0.22490134
0.22508309
0.21583602
0.21599834
0.21616487
0.21633533
0.21650943
0.21668691
0.21686747
0.21705083
0.21723672
0.21742485
0.21761494
0.21780672
0.21799994
0.21819433
0.21838963
0.21858561
0.21878203
0.21897866
0.21917529
0.21937172
0.21956775
0.21976325
0.21995813
0.22015243
0.22034637
0.22054028
0.22073432
0.22092908
0.22112478
0.22132207
0.22152107
0.22172175
0.22192322
0.22212455
0.2223254
0.22252558
0.22272498
0.22292339
0.22312055
0.22331616
0.22350992
0.22370153
0.22389069
0.22407709
0.2138874
0.21408854
0.21429413
0.21450384
0.21471735
0.21493432
0.21515443
0.21537734
0.21560274
0.21583029
0.21605968
0.2162906
0.21652273
0.21675578
0.21698946
0.21722348
0.21745757
0.21769147
0.21792494
0.21815773
0.21838963
0.21862042
0.21884993
0.21907801
0.21930455
0.2195295
0.21975282
0.21997458
0.22019485
0.22041377
0.22063141
0.2208478
0.22106283
0.22127633
0.22148823
0.2216985
0.22190709
0.22211394
0.22231897
0.22252207
0.22272312
0.222922
0.22311859
0.22331275
0.21188127
0.21211703
0.21235777
0.21260312
0.2128527
0.21310612
0.21336302
0.213623
0.21388569
0.21415071
0.2144177
0.21468628
0.21495611
0.21522684
0.21549812
0.21576962
0.21604103
0.21631205
0.21658237
0.21685174
0.21711987
0.21738654
0.2176515
0.21791456
0.21817552
0.21843423
0.21869056
0.21894441
0.21919572
0.21944444
0.21969055
0.21993401
0.22017478
0.22041281
0.22064806
0.22088051
0.22111015
0.22133695
0.22156088
0.22178192
0.22200004
0.22221519
0.22242735
0.22263651
0.20989836
0.21016411
0.21043554
0.21071223
0.21099375
0.21127968
0.21156958
0.21186304
0.21215961
0.21245888
0.21276042
0.21306383
0.21336869
0.21367461
0.21398118
0.21428805
0.21459484
0.2149012
0.21520679
0.21551129
0.2158144
0.21611583
0.21641531
0.21671259
0.21700745
0.21729966
0.21758906
0.21787548
0.21815878
0.21843885
0.21871559
0.21898892
0.21925875
0.21952503
0.21978769
0.2200467
0.22030202
0.22055361
0.22080146
0.22104555
0.22128587
0.2215224
0.22175515
0.22198413
0.20797872
0.20827071
0.2085691
0.20887344
0.20918327
0.20949813
0.20981754
0.21014104
0.21046816
0.21079842
0.21113138
0.21146656
0.21180351
0.21214178
0.21248094
0.21282057
0.21316026
0.21349959
0.21383821
0.21417573
0.21451182
0.21484614
0.21517838
0.21550826
0.2158355
0.21615987
0.21648112
0.21679907
0.21711352
0.21742432
0.21773132
0.2180344
0.21833345
0.21862838
0.21891909
0.21920551
0.2194876
0.2197653
0.22003858
0.22030741
0.22057177
0.22083165
0.22108706
0.22133801
0.20613726
0.20645286
0.20677555
0.20710485
0.20744027
0.20778133
0.20812752
0.20847833
0.20883327
0.20919184
0.20955352
0.20991782
0.21028425
0.21065232
0.21102155
0.21139149
0.21176166
0.21213165
0.21250102
0.21286937
0.2132363
0.21360146
0.2139645
0.21432508
0.2146829
0.21503767
0.21538914
0.21573706
0.21608122
0.21642141
0.21675746
0.21708921
0.21741652
0.21773926
0.21805733
0.21837063
0.21867909
0.21898263
0.2192812
0.21957478
0.21986332
0.22014681
0.22042526
0.22069866
0.20372597
0.20404671
0.20437607
0.20471361
0.20505885
0.2054113
0.20577044
0.20613578
0.20650677
0.2068829
0.20726363
0.20764843
0.20803676
0.2084281
0.20882192
0.2092177
0.20961492
0.21001308
0.2104117
0.21081029
0.21120841
0.2116056
0.21200144
0.21239553
0.21278748
0.21317693
0.21356354
0.21394699
0.21432698
0.21470324
0.21507551
0.21544358
0.21580723
0.21616627
0.21652053
0.21686987
0.21721415
0.21755326
0.2178871
0.21821558
0.21853865
0.21885625
0.21916835
0.21947491
0.21977593
0.2200714
0.20200233
0.20234276
0.20269239
0.20305077
0.20341738
0.20379174
0.20417331
0.20456157
0.20495596
0.20535595
0.20576097
0.20617047
0.20658389
0.20700067
0.20742025
0.20784209
0.20826563
0.20869035
0.20911572
0.20954124
0.20996642
0.21039077
0.21081384
0.21123519
0.2116544
0.21207109
0.21248487
0.2128954
0.21330234
0.2137054
0.21410428
0.21449875
0.21488855
0.21527348
0.21565335
0.21602797
0.21639721
0.21676092
0.21711899
0.21747132
0.21781783
0.21815847
0.21849318
0.21882194
0.21914471
0.21946151
0.20035389
0.20071333
0.20108248
0.20146087
0.20184799
0.20224333
0.20264635
0.2030565
0.20347322
0.20389595
0.2043241
0.20475711
0.20519438
0.20563533
0.20607938
0.20652595
0.20697448
0.20742439
0.20787514
0.20832619
0.20877701
0.2092271
0.20967598
0.21012317
0.21056822
0.21101072
0.21145025
0.21188644
0.21231893
0.2127474
0.21317152
0.21359103
0.21400565
0.21441516
0.21481934
0.21521799
0.21561095
0.21599806
0.2163792
0.21675424
0.21712311
0.21748573
0.21784204
0.21819201
0.2185356
0.21887281
0.19877728
0.19915511
0.19954311
0.1999408
0.20034767
0.20076319
0.20118681
0.20161797
0.20205611
0.20250063
0.20295093
0.20340643
0.20386651
0.20433056
0.20479799
0.20526818
0.20574054
0.20621449
0.20668943
0.20716481
0.20764008
0.20811469
0.20858814
0.20905993
0.20952957
0.20999663
0.21046066
0.21092127
0.21137806
0.21183069
0.21227881
0.21272213
0.21316036
0.21359325
0.21402055
0.21444205
0.21485758
0.21526696
0.21567005
0.21606672
0.21645688
0.21684044
0.21721733
0.21758752
0.21795096
0.21830765
0.19727014
0.19766571
0.19807188
0.19848816
0.19891403
0.19934896
0.19979239
0.20024374
0.20070242
0.20116785
0.2016394
0.20211645
0.20259839
0.20308457
0.20357437
0.20406717
0.20456234
0.20505927
0.20555735
0.20605599
0.20655461
0.20705265
0.20754957
0.20804484
0.20853796
0.20902845
0.20951586
0.20999975
0.21047971
0.21095537
0.21142637
0.21189238
0.2123531
0.21280825
0.21325758
0.21370086
0.21413788
0.21456847
0.21499247
0.21540974
0.21582018
0.21622368
0.21662018
0.21700963
0.217392
0.21776725
0.19583072
0.19624336
0.196667
0.19710114
0.19754526
0.19799881
0.19846123
0.19893194
0.19941033
0.19989579
0.20038769
0.2008854
0.20138826
0.20189564
0.20240687
0.20292131
0.20343831
0.20395723
0.20447745
0.20499834
0.2055193
0.20603974
0.20655909
0.20707681
0.20759237
0.20810525
0.20861498
0.2091211
0.20962319
0.21012084
0.21061367
0.21110134
0.21158351
0.2120599
0.21253023
0.21299426
0.21345178
0.21390259
0.21434651
0.21478342
0.21521317
0.21563568
0.21605087
0.21645867
0.21685905
0.21725199
0.19445763
0.19488663
0.195327
0.19577824
0.19623983
0.1967112
0.1971918
0.19768102
0.19817826
0.19868288
0.19919425
0.1997117
0.20023459
0.20076222
0.20129395
0.20182908
0.20236696
0.20290691
0.20344829
0.20399046
0.20453278
0.20507463
0.20561544
0.20615461
0.2066916
0.20722588
0.20775694
0.20828431
0.20880753
0.20932617
0.20983984
0.21034818
0.21085083
0.21134748
0.21183785
0.21232169
0.21279875
0.21326883
0.21373176
0.21418737
0.21463554
0.21507615
0.21550914
0.21593442
0.21635196
0.21676174
0.19314951
0.19359416
0.19405053
0.1945181
0.19499636
0.19548475
0.19598268
0.19648957
0.19700479
0.1975277
0.19805764
0.19859395
0.19913593
0.19968291
0.20023419
0.20078908
0.20134689
0.20190693
0.20246852
0.203031
0.20359371
0.20415602
0.20471731
0.20527697
0.20583444
0.20638915
0.20694057
0.20748822
0.20803161
0.2085703
0.20910386
0.20963192
0.2101541
0.21067009
0.21117958
0.2116823
0.21217799
0.21266645
0.21314749
0.21362093
0.21408664
0.21454451
0.21499445
0.21543638
0.21587026
0.21629606
0.191905
0.19236459
0.19283619
0.19331932
0.19381346
0.19431804
0.19483249
0.1953562
0.19588854
0.19642886
0.19697648
0.19753074
0.19809092
0.19865632
0.19922624
0.19979995
0.20037675
0.20095594
0.2015368
0.20211865
0.20270081
0.20328262
0.20386344
0.20444264
0.20501963
0.20559383
0.20616468
0.20673167
0.2072943
0.2078521
0.20840463
0.2089515
0.20949231
0.21002673
0.21055444
0.21107515
0.21158861
0.21209458
0.21259286
0.21308329
0.21356571
0.21404001
0.21450608
0.21496385
0.21541328
0.21585433
0.19026164
0.19072264
0.19119641
0.1916825
0.19218042
0.19268965
0.19320963
0.19373976
0.19427945
0.19482806
0.19538492
0.19594936
0.19652067
0.19709815
0.19768107
0.19826871
0.19886033
0.19945521
0.2000526
0.2006518
0.20125208
0.20185276
0.20245314
0.20305256
0.20365038
0.20424596
0.20483872
0.20542807
0.20601349
0.20659444
0.20717044
0.20774105
0.20830582
0.20886438
0.20941635
0.20996141
0.21049926
0.21102962
0.21155226
0.21206697
0.21257356
0.21307188
0.2135618
0.21404321
0.21451606
0.21498027
0.21543581
0.18912656
0.18960075
0.19008799
0.19058785
0.19109981
0.19162336
0.19215794
0.19270296
0.19325781
0.19382185
0.19439441
0.19497479
0.1955623
0.19615619
0.19675574
0.19736021
0.19796883
0.19858087
0.19919557
0.19981219
0.20042999
0.20104826
0.2016663
0.2022834
0.20289891
0.20351218
0.20412258
0.20472954
0.20533248
0.20593086
0.20652418
0.20711197
0.20769379
0.20826922
0.20883789
0.20939945
0.2099536
0.21050004
0.21103853
0.21156885
0.21209081
0.21260423
0.21310901
0.21360501
0.21409217
0.21457042
0.21503973
0.18805079
0.18853754
0.18903759
0.1895505
0.19007578
0.1906129
0.19116132
0.19172044
0.19228966
0.19286832
0.19345574
0.19405124
0.19465408
0.19526354
0.19587885
0.19649926
0.19712401
0.19775232
0.19838343
0.19901658
0.19965101
0.20028598
0.20092076
0.20155466
0.20218696
0.20281702
0.2034442
0.20406786
0.20468745
0.20530238
0.20591216
0.20651628
0.20711428
0.20770574
0.20829027
0.20886751
0.20943714
0.20999885
0.2105524
0.21109754
0.21163409
0.21216187
0.21268073
0.21319058
0.21369132
0.2141829
0.21466528
0.18703248
0.18753118
0.18804338
0.18856866
0.18910654
0.18965651
0.19021802
0.1907905
0.1913733
0.19196579
0.19256729
0.19317708
0.19379444
0.19441862
0.19504885
0.19568436
0.19632437
0.1969681
0.19761475
0.19826356
0.19891374
0.19956454
0.2002152
0.20086501
0.20151324
0.20215923
0.20280229
0.20344181
0.20407718
0.20470783
0.2053332
0.20595281
0.20656617
0.20717284
0.20777242
0.20836453
0.20894884
0.20952504
0.21009287
0.21065207
0.21120246
0.21174384
0.21227607
0.21279905
0.21331267
0.21381688
0.21431163
0.18557391
0.1860698
0.18657977
0.18710345
0.18764043
0.18819024
0.18875236
0.18932626
0.18991134
0.19050699
0.19111256
0.19172735
0.19235065
0.19298173
0.19361983
0.19426416
0.19491395
0.1955684
0.1962267
0.19688806
0.19755168
0.19821676
0.19888253
0.19954823
0.2002131
0.20087642
0.20153748
0.2021956
0.20285013
0.20350045
0.20414598
0.20478614
0.20542042
0.20604833
0.20666941
0.20728324
0.20788944
0.20848766
0.20907759
0.20965894
0.21023147
0.21079495
0.21134922
0.21189412
0.21242952
0.21295533
0.2134715
0.21397797
0.18465431
0.18516066
0.18568131
0.18621586
0.18676391
0.18732498
0.18789858
0.18848417
0.18908116
0.18968894
0.19030684
0.19093418
0.19157024
0.19221427
0.1928655
0.19352316
0.19418643
0.19485451
0.19552658
0.19620183
0.19687945
0.19755862
0.19823855
0.19891845
0.19959757
0.20027514
0.20095046
0.20162282
0.20229155
0.20295602
0.20361562
0.20426977
0.20491793
0.20555961
0.20619432
0.20682164
0.20744117
0.20805256
0.20865547
0.20924962
0.20983475
0.21041063
0.21097709
0.21153396
0.21208112
0.21261846
0.21314593
0.21366348
0.18378673
0.18430304
0.18483379
0.18537862
0.18593711
0.18650882
0.18709325
0.18768987
0.18829809
0.1889173
0.18954684
0.19018602
0.1908341
0.19149035
0.19215397
0.19282419
0.19350017
0.19418112
0.19486618
0.19555454
0.19624537
0.19693784
0.19763113
0.19832445
0.19901702
0.19970806
0.20039685
0.20108266
0.20176481
0.20244264
0.20311553
0.2037829
0.20444418
0.20509886
0.20574646
0.20638653
0.20701866
0.20764249
0.20825767
0.20886391
0.20946095
0.21004855
0.21062652
0.2111947
0.21175296
0.21230119
0.21283934
0.21336735
0.18296916
0.18349491
0.18403522
0.18458974
0.18515808
0.18573982
0.18633446
0.18694147
0.18756028
0.18819026
0.18883076
0.18948108
0.1901405
0.19080825
0.19148355
0.19216559
0.19285356
0.19354662
0.19424394
0.19494465
0.19564793
0.19635294
0.19705884
0.19776481
0.19847006
0.19917381
0.1998753
0.2005738
0.20126861
0.20195906
0.2026445
0.20332434
0.203998
0.20466496
0.20532472
0.20597682
0.20662084
0.20725641
0.20788317
0.20850083
0.2091091
0.20970775
0.21029659
0.21087545
0.21144418
0.21200269
0.2125509
0.21308878
0.18168
0.18219967
0.18273427
0.18328356
0.18384722
0.18442485
0.18501603
0.18562029
0.18623708
0.18686585
0.18750597
0.18815678
0.18881759
0.18948767
0.19016624
0.19085253
0.19154571
0.19224496
0.19294943
0.19365827
0.19437062
0.19508563
0.19580244
0.19652021
0.1972381
0.19795531
0.19867103
0.19938449
0.20009495
0.20080169
0.20150402
0.2022013
0.20289289
0.20357823
0.20425676
0.20492798
0.20559143
0.20624666
0.20689329
0.20753097
0.20815939
0.20877825
0.20938733
0.20998641
0.21057532
0.21115392
0.21172211
0.21227981
0.21282698
0.18094825
0.18147612
0.18201906
0.18257683
0.18314908
0.18373546
0.18433553
0.18494882
0.18557482
0.18621295
0.1868626
0.18752311
0.18819378
0.18887388
0.18956263
0.19025924
0.19096289
0.19167275
0.19238794
0.19310763
0.19383092
0.19455696
0.19528488
0.19601381
0.19674292
0.19747138
0.19819836
0.19892309
0.19964481
0.20036278
0.20107631
0.20178472
0.20248739
0.20318371
0.20387314
0.20455516
0.20522928
0.20589507
0.20655213
0.20720009
0.20783863
0.20846747
0.20908636
0.20969508
0.21029346
0.21088135
0.21145865
0.21202528
0.21258119
0.18026082
0.18079647
0.18134728
0.18191302
0.18249338
0.18308797
0.1836964
0.18431819
0.18495283
0.18559976
0.18625836
0.18692797
0.1876079
0.1882974
0.18899571
0.18970202
0.1904155
0.19113531
0.19186059
0.19259046
0.19332403
0.19406044
0.19479879
0.19553822
0.19627788
0.1970169
0.19775448
0.19848981
0.19922211
0.19995064
0.20067469
0.20139358
0.20210665
0.20281332
0.203513
0.20420517
0.20488933
0.20556505
0.20623191
0.20688954
0.20753761
0.20817583
0.20880394
0.20942173
0.21002901
0.21062564
0.21121151
0.21178652
0.21235064
0.17961574
0.18015872
0.18071695
0.1812902
0.18187816
0.18248048
0.18309676
0.18372653
0.18436928
0.18502446
0.18569146
0.18636961
0.18705823
0.18775655
0.18846382
0.18917923
0.18990194
0.19063109
0.19136582
0.19210524
0.19284847
0.1935946
0.19434275
0.19509204
0.19584159
0.19659054
0.19733806
0.19808334
0.19882559
0.19956404
0.20029797
0.2010267
0.20174956
0.20246593
0.20317524
0.20387694
0.20457055
0.20525559
0.20593166
0.20659837
0.20725539
0.20790242
0.2085392
0.20916551
0.20978115
0.21038599
0.2109799
0.21156279
0.21213461
0.17901104
0.17956093
0.18012614
0.18070645
0.18130156
0.18191114
0.18253477
0.18317202
0.18382238
0.1844853
0.18516016
0.18584632
0.18654307
0.18724966
0.18796533
0.18868926
0.18942061
0.19015852
0.19090211
0.19165049
0.19240276
0.19315802
0.19391535
0.19467388
0.19543271
0.19619098
0.19694783
0.19770244
0.19845401
0.19920177
0.19994498
0.20068294
0.20141497
0.20214046
0.2028588
0.20356946
0.20427192
0.20496572
0.20565042
0.20632566
0.20699108
0.20764637
0.20829128
0.20892558
0.20954908
0.21016161
0.21076307
0.21135336
0.21193245
0.21250027
0.1784448
0.1790012
0.17957297
0.18015991
0.18076173
0.1813781
0.18200864
0.1826529
0.18331038
0.18398054
0.18466277
0.18535642
0.18606078
0.18677511
0.18749864
0.18823055
0.18896999
0.1897161
0.19046798
0.19122475
0.19198549
0.19274929
0.19351523
0.19428241
0.19504993
0.19581692
0.19658252
0.19734588
0.19810619
0.19886267
0.19961457
0.20036118
0.20110181
0.20183584
0.20256265
0.2032817
0.20399246
0.20469446
0.20538727
0.20607049
0.20674378
0.20740682
0.20805935
0.20870114
0.20933199
0.20995174
0.21056028
0.21115751
0.21174339
0.21231791
0.17791517
0.17847768
0.17905561
0.17964876
0.18025687
0.18087961
0.18151661
0.18216742
0.18283157
0.1835085
0.18419762
0.18489827
0.18560975
0.18633132
0.1870622
0.18780156
0.18854857
0.18930234
0.19006199
0.1908266
0.19159526
0.19236705
0.19314104
0.19391632
0.19469198
0.19546713
0.1962409
0.19701245
0.19778094
0.19854558
0.19930562
0.20006033
0.20080902
0.20155104
0.20228578
0.20301268
0.20373122
0.2044409
0.20514128
0.20583199
0.20651264
0.20718294
0.20784261
0.2084914
0.20912914
0.20975565
0.21037081
0.21097453
0.21156678
0.21214752
0.17742033
0.17798857
0.17857227
0.17917125
0.17978525
0.18041395
0.18105698
0.18171393
0.1823843
0.18306756
0.18376311
0.1844703
0.18518843
0.18591675
0.18665449
0.18740082
0.18815489
0.18891583
0.18968272
0.19045466
0.19123072
0.19200997
0.19279149
0.19357433
0.1943576
0.19514038
0.1959218
0.196701
0.19747714
0.19824942
0.19901706
0.19977935
0.20053556
0.20128506
0.20202722
0.20276146
0.20348726
0.20420412
0.2049116
0.2056093
0.20629684
0.20697392
0.20764026
0.20829561
0.20893978
0.2095726
0.21019396
0.21080375
0.21140194
0.2119885
0.17695851
0.17753213
0.17812124
0.17872567
0.17934517
0.17997944
0.18062811
0.18129078
0.18196696
0.18265612
0.18335767
0.18407096
0.18479529
0.18552992
0.18627406
0.18702689
0.18778755
0.18855516
0.18932882
0.1901076
0.19089057
0.19167679
0.19246532
0.19325523
0.19404559
0.1948355
0.19562406
0.1964104
0.19719368
0.19797309
0.19874784
0.1995172
0.20028045
0.20103693
0.20178601
0.20252712
0.2032597
0.20398327
0.20469737
0.2054016
0.20609558
0.20677899
0.20745156
0.20811303
0.20876321
0.20940193
0.21002907
0.21064453
0.21124826
0.21184025
0.17652802
0.17710667
0.17770084
0.17831037
0.17893502
0.17957448
0.18022841
0.18089641
0.18157801
0.18227267
0.18297981
0.18369878
0.18442889
0.18516939
0.1859195
0.18667838
0.18744518
0.18821902
0.18899897
0.18978412
0.19057353
0.19136624
0.19216132
0.19295782
0.1937548
0.19455135
0.19534657
0.19613958
0.19692952
0.19771557
0.19849695
0.19927291
0.20004272
0.20080571
0.20156125
0.20230876
0.20304767
0.2037775
0.20449778
0.2052081
0.20590808
0.2065974
0.20727578
0.20794296
0.20859874
0.20924296
0.20987549
0.21049623
0.21110513
0.21170218
0.17612721
0.17671058
0.17730949
0.17792378
0.17855321
0.17919751
0.17985635
0.18052931
0.18121595
0.18191573
0.18262807
0.18335233
0.18408781
0.18483378
0.18558943
0.18635395
0.18712646
0.18790609
0.18869191
0.18948299
0.19027839
0.19107715
0.19187833
0.19268096
0.1934841
0.19428684
0.19508826
0.19588747
0.19668362
0.19747587
0.19826342
0.19904552
0.19982144
0.2005905
0.20135206
0.20210553
0.20285035
0.203586
0.20431204
0.20502803
0.20573361
0.20642843
0.20711222
0.20778472
0.20844572
0.20909506
0.20973261
0.21035827
0.21097198
0.21157374
0.17575451
0.1763423
0.17694563
0.17756435
0.17819825
0.17884705
0.17951044
0.18018802
0.18087933
0.18158387
0.18230105
0.18303022
0.1837707
0.18452174
0.18528255
0.1860523
0.18683013
0.18761514
0.18840642
0.18920301
0.19000398
0.19080837
0.19161521
0.19242354
0.19323242
0.19404091
0.1948481
0.19565308
0.196455
0.19725301
0.19804631
0.19883413
0.19961573
0.20039044
0.20115761
0.20191662
0.20266692
0.203408
0.20413939
0.20486067
0.20557145
0.20627139
0.20696022
0.20763766
0.20830352
0.20895763
0.20959984
0.21023007
0.21084826
0.21145439
0.17540841
0.17600033
0.17660779
0.17723063
0.17786867
0.17852165
0.17918927
0.17987113
0.1805668
0.18127575
0.18199741
0.18273114
0.18347626
0.18423201
0.1849976
0.18577222
0.18655498
0.18734498
0.18814132
0.18894303
0.18974918
0.19055878
0.19137088
0.19218451
0.19299871
0.19381255
0.19462509
0.19543544
0.19624272
0.19704609
0.19784472
0.19863785
0.19942475
0.2002047
0.20097707
0.20174123
0.20249664
0.20324276
0.20397913
0.20470531
0.20542092
0.20612563
0.20681913
0.20750117
0.20817154
0.20883006
0.20947661
0.21011109
0.21073344
0.21134364
0.17508746
0.17568325
0.17629454
0.17692121
0.17756309
0.17821995
0.17889148
0.17957731
0.180277
0.18099004
0.18171586
0.18245382
0.18320323
0.18396335
0.18473338
0.18551249
0.18629982
0.18709446
0.18789549
0.18870195
0.18951289
0.19032733
0.19114431
0.19196285
0.192782
0.19360079
0.1944183
0.19523363
0.19604588
0.19685421
0.1976578
0.19845586
0.19924766
0.20003248
0.20080967
0.20157863
0.20233876
0.20308956
0.20383055
0.20456128
0.20528138
0.2059905
0.20668834
0.20737464
0.20804919
0.20871182
0.20936239
0.21000081
0.21062701
0.21124098
0.1747903
0.1753897
0.17600454
0.17663474
0.17728017
0.17794061
0.17861576
0.17930527
0.18000868
0.18072551
0.18145517
0.18219704
0.18295042
0.18371458
0.18448872
0.185272
0.18606356
0.18686248
0.18766785
0.18847871
0.18929409
0.19011301
0.19093451
0.1917576
0.19258132
0.1934047
0.19422682
0.19504675
0.19586361
0.19667655
0.19748472
0.19828735
0.19908368
0.19987302
0.20065469
0.20142807
0.20219259
0.20294773
0.20369299
0.20442794
0.20515219
0.2058654
0.20656726
0.20725751
0.20793594
0.20860237
0.20925667
0.20989873
0.2105285
0.21114596
0.17451567
0.17511839
0.17573648
0.17636994
0.17701864
0.17768238
0.17836087
0.17905377
0.17976063
0.18048095
0.18121416
0.18195964
0.1827167
0.18348458
0.18426251
0.18504965
0.18584511
0.186648
0.18745738
0.1882723
0.18909178
0.18991485
0.19074053
0.19156782
0.19239577
0.1932234
0.19404977
0.19487397
0.19569509
0.19651228
0.19732469
0.19813155
0.19893209
0.19972559
0.2005114
0.20128888
0.20205746
0.2028166
0.20356582
0.20430468
0.20503277
0.20574976
0.20645534
0.20714925
0.20783126
0.2085012
0.20915894
0.20980437
0.21043744
0.21105813
0.17253944
0.17309791
0.17367216
0.17426245
0.17486807
0.17548912
0.17612555
0.17677726
0.17744405
0.17812562
0.17882164
0.17953167
0.18025522
0.18099171
0.18174052
0.18250096
0.18327229
0.18405371
0.1848444
0.18564346
0.18645001
0.18726309
0.18808176
0.18890503
0.18973192
0.19056145
0.19139263
0.19222448
0.19305603
0.19388633
0.19471446
0.19553952
0.19636064
0.19717697
0.19798773
0.19879215
0.19958951
0.20037914
0.2011604
0.20193273
0.20269557
0.20344845
0.20419091
0.20492255
0.20564304
0.20635205
0.20704933
0.20773465
0.20840784
0.20906875
0.20971729
0.2103534
0.21097707
0.1717525
0.17229837
0.17285958
0.17343652
0.17402926
0.17463751
0.17526124
0.17590041
0.17655488
0.17722446
0.17790887
0.17860776
0.17932071
0.18004722
0.18078673
0.1815386
0.18230216
0.18307666
0.1838613
0.18465526
0.18545765
0.18626756
0.18708405
0.18790617
0.18873293
0.18956334
0.19039642
0.19123118
0.19206662
0.19290178
0.19373571
0.19456747
0.19539615
0.19622089
0.19704084
0.19785519
0.19866319
0.1994641
0.20025725
0.20104201
0.20181779
0.20258405
0.20334029
0.20408608
0.204821
0.2055447
0.20625688
0.20695726
0.20764563
0.20832181
0.20898565
0.20963705
0.21027597
0.21090238
0.17152836
0.17207669
0.17264041
0.17321978
0.17381485
0.17442551
0.1750517
0.17569337
0.17635037
0.17702252
0.17770953
0.17841107
0.1791267
0.17985593
0.1805982
0.18135289
0.18211931
0.18289672
0.18368433
0.18448129
0.18528673
0.18609973
0.18691936
0.18774465
0.18857462
0.18940827
0.19024462
0.19108266
0.19192141
0.1927599
0.19359716
0.19443225
0.19526427
0.19609234
0.19691561
0.19773327
0.19854456
0.19934874
0.20014514
0.20093311
0.20171207
0.20248147
0.20324081
0.20398965
0.20472758
0.20545425
0.20616934
0.20687258
0.20756376
0.20824268
0.20890921
0.20956325
0.21020474
0.21083368
0.17132254
0.1718732
0.17243922
0.17302083
0.17361809
0.17423097
0.17485941
0.17550336
0.17616269
0.17683718
0.17752658
0.17823053
0.17894861
0.17968034
0.18042516
0.18118243
0.18195147
0.18273155
0.18352187
0.18432159
0.18512982
0.18594567
0.18676817
0.18759637
0.18842928
0.18926591
0.19010525
0.19094631
0.1917881
0.19262964
0.19346995
0.19430811
0.1951432
0.19597432
0.19680065
0.19762135
0.19843565
0.19924284
0.20004221
0.20083313
0.20161501
0.2023873
0.20314949
0.20390114
0.20464183
0.20537122
0.20608898
0.20679485
0.2074886
0.20817005
0.20883905
0.2094955
0.21013936
0.2107706
0.17113399
0.17168683
0.17225496
0.17283863
0.17343791
0.17405282
0.17468333
0.17532937
0.1759908
0.17666745
0.17735902
0.17806518
0.17878552
0.17951953
0.18026666
0.1810263
0.18179774
0.18258026
0.18337306
0.1841753
0.1849861
0.18580454
0.18662968
0.18746054
0.18829614
0.18913549
0.18997758
0.19082141
0.19166598
0.1925103
0.19335342
0.19419438
0.19503227
0.19586621
0.19669532
0.19751881
0.19833588
0.19914582
0.19994792
0.20074155
0.2015261
0.20230103
0.20306583
0.20382005
0.20456328
0.20529516
0.20601537
0.20672365
0.20741976
0.20810351
0.20877477
0.20943343
0.21007945
0.2107128
0.17096169
0.17151653
0.1720866
0.17267216
0.1732733
0.17389007
0.17452246
0.1751704
0.17583377
0.17651237
0.17720593
0.17791411
0.17863649
0.17937259
0.18012184
0.18088363
0.18165726
0.18244201
0.18323708
0.18404162
0.18485475
0.18567556
0.1865031
0.1873364
0.18817447
0.1890163
0.1898609
0.19070725
0.19155435
0.19240123
0.19324691
0.19409044
0.19493089
0.19576739
0.19659906
0.19742509
0.19824469
0.19905714
0.19986174
0.20065784
0.20144483
0.20222218
0.20298936
0.20374594
0.20449148
0.20522564
0.2059481
0.20665857
0.20735684
0.2080427
0.20871603
0.2093767
0.21002468
0.21065996
0.17080467
0.17136133
0.17193317
0.17252046
0.1731233
0.17374178
0.17437588
0.17502556
0.17569068
0.17637106
0.17706643
0.17777644
0.17850068
0.17923867
0.17998985
0.1807536
0.18152923
0.18231601
0.18311313
0.18391977
0.18473503
0.185558
0.18638773
0.18722324
0.18806355
0.18890765
0.18975452
0.19060318
0.1914526
0.1923018
0.19314981
0.19399567
0.19483847
0.19567729
0.19651129
0.19733964
0.19816156
0.1989763
0.19978317
0.20058152
0.20137074
0.20215029
0.20291965
0.20367837
0.20442603
0.20516227
0.20588676
0.20659924
0.20729947
0.20798727
0.20866247
0.20932498
0.20997475
0.21061176
0.17066199
0.17122031
0.17179376
0.17238262
0.17298702
0.17360704
0.1742427
0.17489395
0.17556067
0.17624266
0.17693966
0.17765134
0.17837727
0.17911698
0.1798699
0.18063543
0.18141287
0.18220149
0.18300048
0.18380902
0.18462622
0.18545115
0.18628286
0.18712038
0.18796273
0.18880888
0.18965783
0.19050857
0.1913601
0.19221141
0.19306154
0.19390953
0.19475444
0.19559539
0.19643151
0.19726197
0.19808598
0.1989028
0.19971174
0.20051214
0.20130339
0.20208494
0.20285628
0.20361695
0.20436653
0.20510465
0.20583101
0.20654531
0.20724732
0.20793687
0.20861378
0.20927795
0.20992934
0.21056792
0.17053278
0.17109259
0.1716675
0.17225778
0.17286359
0.17348502
0.17412208
0.17477476
0.17544291
0.17612636
0.17682485
0.17753802
0.17826548
0.17900674
0.17976125
0.18052838
0.18130746
0.18209774
0.18289843
0.18370868
0.18452762
0.18535433
0.18618784
0.18702718
0.18787137
0.18871938
0.18957021
0.19042284
0.19127627
0.1921295
0.19298155
0.19383146
0.1946783
0.19552117
0.1963592
0.19719157
0.19801748
0.19883619
0.199647
0.20044925
0.20124234
0.20202571
0.20279884
0.20356127
0.2043126
0.20505244
0.20578047
0.20649643
0.20720006
0.20789119
0.20856965
0.20923533
0.20988818
0.21052817
0.17041618
0.17097734
0.17155356
0.17214513
0.17275221
0.1733749
0.17401324
0.17466719
0.17533664
0.1760214
0.17672122
0.17743575
0.17816459
0.17890724
0.17966317
0.18043175
0.1812123
0.18200408
0.18280629
0.1836181
0.18443861
0.18526691
0.18610205
0.18694303
0.18778888
0.18863857
0.18949109
0.19034543
0.19120058
0.19205553
0.19290931
0.19376095
0.19460953
0.19545413
0.1962939
0.19712799
0.19795562
0.19877603
0.19958853
0.20039246
0.20118721
0.20197221
0.20274696
0.20351099
0.20426389
0.20500527
0.20573483
0.20645228
0.20715738
0.20784993
0.20852979
0.20919684
0.20985099
0.21049224
0.17031141
0.17087377
0.17145117
0.17204389
0.1726521
0.17327593
0.17391541
0.17457051
0.17524112
0.17592706
0.17662807
0.17734382
0.17807388
0.1788178
0.179575
0.18034488
0.18112675
0.18191987
0.18272345
0.18353665
0.18435857
0.18518831
0.1860249
0.18686736
0.18771469
0.18856589
0.18941993
0.1902758
0.19113249
0.191989
0.19284433
0.19369754
0.19454767
0.19539384
0.19623516
0.1970708
0.19789997
0.19872191
0.19953594
0.20034137
0.20113761
0.20192409
0.2027003
0.20346576
0.20422007
0.20496285
0.20569377
0.20641256
0.20711897
0.20781282
0.20849394
0.2091622
0.20981754
0.2104599
0.1702177
0.17078113
0.17135958
0.17195333
0.17256256
0.17318739
0.17382789
0.17448402
0.17515567
0.17584266
0.17654473
0.17726156
0.17799272
0.17873775
0.17949609
0.18026713
0.18105018
0.1818445
0.1826493
0.18346374
0.18428693
0.18511794
0.18595583
0.18679961
0.18764827
0.18850082
0.18935622
0.19021346
0.19107153
0.19192942
0.19278615
0.19364075
0.19449228
0.19533984
0.19618255
0.19701958
0.19785013
0.19867345
0.19948883
0.20029561
0.20109319
0.20188099
0.2026585
0.20342525
0.20418082
0.20492484
0.20565699
0.20637698
0.20708458
0.20777958
0.20846182
0.20913119
0.20978759
0.21043094
0.17013433
0.17069872
0.17127809
0.17187275
0.17248288
0.17310861
0.17375001
0.17440704
0.17507962
0.17576754
0.17647056
0.17718834
0.17792048
0.1786665
0.17942585
0.18019791
0.18098201
0.1817774
0.18258328
0.18339882
0.18422313
0.18505529
0.18589433
0.18673927
0.18758912
0.18844286
0.18929948
0.19015794
0.19101723
0.19187635
0.19273432
0.19359016
0.19444293
0.19529173
0.19613568
0.19697395
0.19780572
0.19863026
0.19944686