/*--------------------------------*- C++ -*----------------------------------*\
| =========                 |                                                 |
| \\      /  F ield         | OpenFOAM: The Open Source CFD Toolbox           |
|  \\    /   O peration     | Version:  2312                                  |
|   \\  /    A nd           | Website:  www.openfoam.com                      |
|    \\/     M anipulation  |                                                 |
\*---------------------------------------------------------------------------*/
FoamFile
{
    version     2.0;
    format      ascii;
    arch        "LSB;label=32;scalar=64";
    class       surfaceScalarField;
    location    "0.07";
    object      phi;
}
// * * * * * * * * * * * * * * * * * * * * * * * * * * * * * * * * * * * * * //

dimensions      [1 0 -1 0 0 0 0];

oriented        oriented;

internalField   nonuniform List<scalar> 
6378
(
9.7338044e-08
-1.7610228e-07
9.6500565e-08
-1.7569035e-07
9.5662169e-08
-1.7516779e-07
9.4816937e-08
-1.7453239e-07
9.3969723e-08
-1.7378184e-07
9.312806e-08
-1.7291246e-07
9.2299586e-08
-1.7191921e-07
9.1491889e-08
-1.7079519e-07
9.0713449e-08
-1.6953195e-07
8.9974596e-08
-1.6811837e-07
8.9288785e-08
-1.6654118e-07
8.8674141e-08
-1.6478255e-07
8.8155756e-08
-1.6282136e-07
8.7769964e-08
-1.6062831e-07
8.7570059e-08
-1.5816881e-07
8.7639921e-08
-1.5539368e-07
8.8111556e-08
-1.5224465e-07
8.9210313e-08
-1.4863979e-07
9.1319427e-08
-1.4448166e-07
9.5133307e-08
-1.3964645e-07
1.0191405e-07
-1.339981e-07
1.1399458e-07
-1.2742714e-07
1.3560677e-07
-1.1991531e-07
1.7397514e-07
-1.1175087e-07
2.3973617e-07
-1.0390395e-07
3.4076924e-07
-9.7465648e-08
4.5691728e-07
-9.8325912e-08
3.4052241e-07
-1.2188245e-07
2.0894658e-07
-1.2038442e-07
1.4852224e-07
-7.6691237e-08
4.5711779e-08
-4.5460189e-08
1.1614939e-08
-1.7448279e-08
2.1893688e-09
2.8890949e-09
-8.727884e-09
1.6941138e-08
-1.4767011e-08
2.7140889e-08
-1.9710746e-08
3.5112875e-08
-2.0399097e-08
3.8335923e-08
-1.9781582e-08
4.1555661e-08
-1.7665799e-08
4.3847648e-08
-1.5078277e-08
4.5198503e-08
-1.2323311e-08
4.562832e-08
-9.6516805e-09
4.5345325e-08
-7.1746662e-09
4.4436154e-08
4.3033147e-08
1.0034143e-07
-1.4339259e-07
9.9424709e-08
-1.4338496e-07
9.8520506e-08
-1.4327446e-07
9.7625707e-08
-1.4305936e-07
9.6746869e-08
-1.4273681e-07
9.5893487e-08
-1.4230316e-07
9.507587e-08
-1.4175411e-07
9.4305447e-08
-1.4108421e-07
9.3595608e-08
-1.4028705e-07
9.2963211e-08
-1.3935457e-07
9.2429658e-08
-1.382773e-07
9.2023654e-08
-1.3704352e-07
9.1782988e-08
-1.3563959e-07
9.1760697e-08
-1.3404917e-07
9.2029302e-08
-1.3225367e-07
9.2695152e-08
-1.3023268e-07
9.3909814e-08
-1.2796468e-07
9.5902958e-08
-1.2543298e-07
9.901398e-08
-1.2262833e-07
1.0375897e-07
-1.1957113e-07
1.1090441e-07
-1.1632817e-07
1.2155257e-07
-1.1306959e-07
1.371792e-07
-1.1013786e-07
1.5942643e-07
-1.0817342e-07
1.8921131e-07
-1.0829875e-07
2.2507577e-07
-1.1220133e-07
2.5407216e-07
-1.2214526e-07
2.3318988e-07
-1.3689087e-07
1.8877014e-07
-1.4591344e-07
1.5312132e-07
-1.4435047e-07
1.1581407e-07
-1.3657586e-07
9.343166e-08
-1.2477782e-07
8.0432557e-08
-1.1205176e-07
7.0433677e-08
-1.0035838e-07
6.2914286e-08
-8.9532694e-08
5.7222326e-08
-7.9646579e-08
5.1326526e-08
-7.0893284e-08
4.6085453e-08
-6.2905887e-08
4.1348858e-08
-5.5623741e-08
3.722004e-08
-4.9066137e-08
3.3703564e-08
-4.3192648e-08
3.0714645e-08
-3.8020853e-08
2.8201037e-08
-3.3515889e-08
-2.9651927e-08
1.0905167e-07
-1.2096086e-07
1.0790236e-07
-1.2101487e-07
1.0678176e-07
-1.2098455e-07
1.0569092e-07
-1.2086819e-07
1.0463798e-07
-1.20663e-07
1.0363376e-07
-1.2036585e-07
1.0269048e-07
-1.1997333e-07
1.0182227e-07
-1.1948168e-07
1.0104589e-07
-1.188865e-07
1.0038217e-07
-1.1818294e-07
9.9857018e-08
-1.1736539e-07
9.9503861e-08
-1.1642812e-07
9.9365164e-08
-1.1536464e-07
9.9497045e-08
-1.1416984e-07
9.9972224e-08
-1.1283844e-07
1.0088821e-07
-1.1137049e-07
1.0237369e-07
-1.0976909e-07
1.0460063e-07
-1.0805191e-07
1.0779604e-07
-1.0625135e-07
1.1225097e-07
-1.0443361e-07
1.1832654e-07
-1.0271326e-07
1.2642035e-07
-1.0127433e-07
1.368879e-07
-1.0041728e-07
1.49808e-07
-1.0057352e-07
1.6451769e-07
-1.0235366e-07
1.7880245e-07
-1.0645586e-07
1.8762179e-07
-1.1338651e-07
1.8480397e-07
-1.2230067e-07
1.7225886e-07
-1.29847e-07
1.549899e-07
-1.3406845e-07
1.3647737e-07
-1.3498614e-07
1.2026524e-07
-1.3282045e-07
1.0710237e-07
-1.2891355e-07
9.597286e-08
-1.2415857e-07
8.6614666e-08
-1.1894329e-07
7.8601273e-08
-1.1352485e-07
7.1534052e-08
-1.0808998e-07
6.5233351e-08
-1.027124e-07
5.961211e-08
-9.7420889e-08
5.4588232e-08
-9.2249976e-08
5.0137178e-08
-8.7234624e-08
4.6183241e-08
-8.2410501e-08
4.2694008e-08
-7.7814171e-08
-7.3479567e-08
1.2017501e-07
-1.0776554e-07
1.187527e-07
-1.0766093e-07
1.1737114e-07
-1.0749213e-07
1.1603504e-07
-1.0725789e-07
1.1475354e-07
-1.06956e-07
1.1353796e-07
-1.0658432e-07
1.1240126e-07
-1.061407e-07
1.1135852e-07
-1.0562304e-07
1.1042752e-07
-1.050291e-07
1.0962978e-07
-1.043569e-07
1.0899145e-07
-1.0360442e-07
1.0854464e-07
-1.0277068e-07
1.0832892e-07
-1.018552e-07
1.0839307e-07
-1.0086033e-07
1.0879756e-07
-9.9790351e-08
1.096163e-07
-9.8656134e-08
1.1094029e-07
-9.7474262e-08
1.1287744e-07
-9.6274818e-08
1.1555437e-07
-9.5102939e-08
1.1910835e-07
-9.4028125e-08
1.2367294e-07
-9.3153803e-08
1.2934431e-07
-9.2621359e-08
1.3611073e-07
-9.2628706e-08
1.4374249e-07
-9.341932e-08
1.5160447e-07
-9.5275855e-08
1.5844973e-07
-9.8439248e-08
1.623133e-07
-1.0294502e-07
1.6127193e-07
-1.0833786e-07
1.5544585e-07
-1.1352822e-07
1.4617015e-07
-1.1764081e-07
1.350049e-07
-1.201718e-07
1.2372108e-07
-1.2104306e-07
1.1315264e-07
-1.2062054e-07
1.0355566e-07
-1.192748e-07
9.5000447e-08
-1.1725776e-07
8.743046e-08
-1.1479842e-07
8.071577e-08
-1.120562e-07
7.4707073e-08
-1.091288e-07
6.9290219e-08
-1.0606952e-07
6.4377631e-08
-1.0292037e-07
5.9901018e-08
-9.9708636e-08
5.5804739e-08
-9.6465647e-08
5.2047238e-08
-9.321876e-08
-9.000208e-08
1.3148253e-07
-1.0107914e-07
1.2981556e-07
-1.0075092e-07
1.2819603e-07
-1.003734e-07
1.2663096e-07
-9.994616e-08
1.2512989e-07
-9.9468107e-08
1.2370399e-07
-9.8938407e-08
1.2236599e-07
-9.8356349e-08
1.2113057e-07
-9.7721582e-08
1.2001483e-07
-9.7033919e-08
1.190388e-07
-9.6293868e-08
1.182261e-07
-9.5502439e-08
1.1760453e-07
-9.4662156e-08
1.1720688e-07
-9.3776834e-08
1.170713e-07
-9.2853379e-08
1.1724232e-07
-9.1901583e-08
1.1777021e-07
-9.0937101e-08
1.1871144e-07
-8.9981639e-08
1.2012537e-07
-8.9067031e-08
1.2207097e-07
-8.8236882e-08
1.2459752e-07
-8.7550179e-08
1.27729e-07
-8.7085503e-08
1.3144189e-07
-8.6939939e-08
1.3562438e-07
-8.7232452e-08
1.4002882e-07
-8.809113e-08
1.4420849e-07
-8.9638007e-08
1.4748217e-07
-9.1942378e-08
1.4899551e-07
-9.4954984e-08
1.480034e-07
-9.843366e-08
1.443511e-07
-1.0194197e-07
1.383984e-07
-1.0504628e-07
1.3087868e-07
-1.0740147e-07
1.2264786e-07
-1.0886015e-07
1.1433514e-07
-1.0947375e-07
1.0632918e-07
-1.0936919e-07
9.8863533e-08
-1.0868723e-07
9.2027823e-08
-1.0757512e-07
8.5815748e-08
-1.0615179e-07
8.0170069e-08
-1.045049e-07
7.5021808e-08
-1.0269306e-07
7.0299026e-08
-1.0075461e-07
6.5940845e-08
-9.8716519e-08
6.1891283e-08
-9.6599468e-08
5.8105043e-08
-9.4421405e-08
-9.2201264e-08
1.4180709e-07
-9.8121978e-08
1.399411e-07
-9.7606997e-08
1.3812503e-07
-9.7050964e-08
1.3636704e-07
-9.6454355e-08
1.3467652e-07
-9.5817354e-08
1.3306399e-07
-9.5140435e-08
1.3154132e-07
-9.4424326e-08
1.3012198e-07
-9.3670239e-08
1.2882135e-07
-9.2879792e-08
1.2765688e-07
-9.2055466e-08
1.2664848e-07
-9.1200578e-08
1.2581858e-07
-9.0320037e-08
1.2519241e-07
-8.942038e-08
1.2479769e-07
-8.8510962e-08
1.2466458e-07
-8.7604104e-08
1.2482425e-07
-8.67168e-08
1.2530781e-07
-8.5871122e-08
1.2614264e-07
-8.5096187e-08
1.2734812e-07
-8.4429023e-08
1.2892821e-07
-8.3915613e-08
1.3086039e-07
-8.3611885e-08
1.3308236e-07
-8.3581352e-08
1.3547213e-07
-8.3893218e-08
1.378298e-07
-8.4612889e-08
1.3986062e-07
-8.5789948e-08
1.4118125e-07
-8.7435091e-08
1.4136905e-07
-8.9494343e-08
1.4007451e-07
-9.1829137e-08
1.3716366e-07
-9.4224366e-08
1.3274226e-07
-9.644271e-08
1.2713792e-07
-9.8274727e-08
1.2078474e-07
-9.9591638e-08
1.1408925e-07
-1.0035775e-07
1.0737686e-07
-1.0060171e-07
1.0088414e-07
-1.0039132e-07
9.4748892e-08
-9.9811532e-08
8.9031563e-08
-9.894623e-08
8.3737142e-08
-9.7865583e-08
7.8839401e-08
-9.662398e-08
7.4297278e-08
-9.5260045e-08
7.0065109e-08
-9.3801243e-08
6.6097243e-08
-9.2266841e-08
6.234953e-08
-9.0670893e-08
-8.9025101e-08
1.5076569e-07
-9.6853328e-08
1.4873736e-07
-9.6224368e-08
1.4675889e-07
-9.5557875e-08
1.4483875e-07
-9.4855173e-08
1.4298575e-07
-9.4117434e-08
1.4120946e-07
-9.3346231e-08
1.3952055e-07
-9.2543462e-08
1.3793087e-07
-9.171156e-08
1.3645361e-07
-9.0853503e-08
1.3510331e-07
-8.9973167e-08
1.3389593e-07
-8.9075397e-08
1.3284868e-07
-8.8166534e-08
1.3197995e-07
-8.7254553e-08
1.3130868e-07
-8.6349799e-08
1.3085381e-07
-8.5465224e-08
1.3063274e-07
-8.4617275e-08
1.3065978e-07
-8.3826228e-08
1.3094308e-07
-8.3116954e-08
1.3148093e-07
-8.2519196e-08
1.3225664e-07
-8.2067462e-08
1.3323164e-07
-8.1800582e-08
1.3433832e-07
-8.1759382e-08
1.3547121e-07
-8.1983742e-08
1.3648122e-07
-8.2506344e-08
1.3717399e-07
-8.3344865e-08
1.3732125e-07
-8.4490945e-08
1.3669013e-07
-8.5899539e-08
1.3509185e-07
-8.7483427e-08
1.3243529e-07
-8.911849e-08
1.2875252e-07
-9.0664092e-08
1.2419597e-07
-9.1987752e-08
1.1899677e-07
-9.2992135e-08
1.1340865e-07
-9.3626527e-08
1.0766807e-07
-9.3883431e-08
1.0196813e-07
-9.3788792e-08
9.6446436e-08
-9.3389285e-08
9.1185483e-08
-9.2739826e-08
8.6222683e-08
-9.189318e-08
8.1562682e-08
-9.0895097e-08
7.7189782e-08
-8.9781713e-08
7.3076852e-08
-8.8580403e-08
6.9191165e-08
-8.7310966e-08
6.5496926e-08
-8.5987368e-08
-8.4619189e-08
1.5836147e-07
-9.607863e-08
1.5619499e-07
-9.5401999e-08
1.540771e-07
-9.4689465e-08
1.5201585e-07
-9.3942668e-08
1.5001924e-07
-9.3163519e-08
1.480958e-07
-9.2354318e-08
1.4625484e-07
-9.1517764e-08
1.4450647e-07
-9.0657091e-08
1.4286164e-07
-8.977614e-08
1.4133206e-07
-8.8879612e-08
1.3993006e-07
-8.7973178e-08
1.3866835e-07
-8.7063824e-08
1.375597e-07
-8.6160017e-08
1.366163e-07
-8.5272118e-08
1.3584898e-07
-8.4412596e-08
1.352659e-07
-8.3596426e-08
1.34871e-07
-8.2841273e-08
1.3466173e-07
-8.2167647e-08
1.346263e-07
-8.1598825e-08
1.3474032e-07
-8.1160286e-08
1.3496292e-07
-8.0878829e-08
1.3523307e-07
-8.0780605e-08
1.3546617e-07
-8.0888522e-08
1.3555314e-07
-8.1218275e-08
1.3536286e-07
-8.1773519e-08
1.3475134e-07
-8.254054e-08
1.3357868e-07
-8.348348e-08
1.3173266e-07
-8.4543069e-08
1.2915328e-07
-8.5639748e-08
1.2584812e-07
-8.6683494e-08
1.2189429e-07
-8.7586523e-08
1.1742265e-07
-8.8277447e-08
1.1259271e-07
-8.8709963e-08
1.0756771e-07
-8.8864955e-08
1.0249442e-07
-8.8748061e-08
9.7489714e-08
-8.8382861e-08
9.263577e-08
-8.780381e-08
8.7981733e-08
-8.7048399e-08
8.3549532e-08
-8.6152783e-08
7.9341009e-08
-8.5148054e-08
7.5344689e-08
-8.4059681e-08
7.1540735e-08
-8.2907117e-08
6.7903929e-08
-8.1704626e-08
-8.0461618e-08
1.6471935e-07
-9.523866e-08
1.6243115e-07
-9.455959e-08
1.6018972e-07
-9.3845398e-08
1.5800227e-07
-9.3098098e-08
1.5587585e-07
-9.2320181e-08
1.5381787e-07
-9.1514428e-08
1.518363e-07
-9.0683984e-08
1.4993961e-07
-8.9832508e-08
1.4813668e-07
-8.8964264e-08
1.464367e-07
-8.8084296e-08
1.4484895e-07
-8.7198549e-08
1.4338248e-07
-8.6314076e-08
1.4204577e-07
-8.5439189e-08
1.4084607e-07
-8.4583666e-08
1.3978869e-07
-8.37589e-08
1.388759e-07
-8.2978022e-08
1.3810568e-07
-8.2255953e-08
1.3747005e-07
-8.1609274e-08
1.3695321e-07
-8.1055966e-08
1.3652949e-07
-8.0614739e-08
1.3616118e-07
-8.0304107e-08
1.3579687e-07
-8.014084e-08
1.3537045e-07
-8.0137986e-08
1.3480182e-07
-8.0302336e-08
1.3399997e-07
-8.0631487e-08
1.3286948e-07
-8.1111158e-08
1.3132058e-07
-8.1712933e-08
1.292819e-07
-8.2394281e-08
1.2671323e-07
-8.310054e-08
1.2361438e-07
-8.3770454e-08
1.2002751e-07
-8.434315e-08
1.1603098e-07
-8.4766185e-08
1.1172724e-07
-8.5001431e-08
1.0722836e-07
-8.5028024e-08
1.0264216e-07
-8.4842387e-08
9.8061718e-08
-8.4455097e-08
9.3559214e-08
-8.3886916e-08
8.9184525e-08
-8.316361e-08
8.4966849e-08
-8.231242e-08
8.0918526e-08
-8.1358701e-08
7.7039221e-08
-8.0324631e-08
7.3319771e-08
-7.9228196e-08
6.9744921e-08
-7.8083266e-08
-7.6899352e-08
1.7486974e-07
-9.5366017e-08
1.7240534e-07
-9.477811e-08
1.6997192e-07
-9.4153639e-08
1.6757606e-07
-9.3494007e-08
1.6522447e-07
-9.2800867e-08
1.629234e-07
-9.2076435e-08
1.6067905e-07
-9.1323307e-08
1.5849789e-07
-9.0544409e-08
1.5638669e-07
-8.9743042e-08
1.5435244e-07
-8.8922991e-08
1.5240225e-07
-8.8088614e-08
1.505432e-07
-8.7244952e-08
1.487821e-07
-8.6397843e-08
1.4712521e-07
-8.5554031e-08
1.4557783e-07
-8.4721285e-08
1.4414378e-07
-8.390848e-08
1.4282478e-07
-8.312568e-08
1.4161954e-07
-8.2384116e-08
1.4052287e-07
-8.1696151e-08
1.3952449e-07
-8.1075019e-08
1.3860779e-07
-8.0534527e-08
1.3774865e-07
-8.0088383e-08
1.3691428e-07
-7.9749416e-08
1.3606262e-07
-7.9528367e-08
1.3514229e-07
-7.9432474e-08
1.3409383e-07
-7.9463828e-08
1.3285231e-07
-7.9617568e-08
1.3135187e-07
-7.9880487e-08
1.2953202e-07
-8.0229932e-08
1.27345e-07
-8.0634196e-08
1.2476305e-07
-8.1053883e-08
1.2178367e-07
-8.1445322e-08
1.1843153e-07
-8.1764691e-08
1.1475584e-07
-8.1972914e-08
1.1082421e-07
-8.2039585e-08
1.0671422e-07
-8.1945523e-08
1.0250441e-07
-8.1683522e-08
9.8266702e-08
-8.1257072e-08
9.4061005e-08
-8.0678195e-08
8.9932731e-08
-7.9964179e-08
8.5912523e-08
-7.9134978e-08
8.2017865e-08
-7.8210516e-08
7.825548e-08
-7.7209281e-08
7.4623988e-08
-7.6147103e-08
7.111621e-08
-7.503684e-08
-7.3887815e-08
1.7932352e-07
-9.3977951e-08
1.7676565e-07
-9.3413882e-08
1.7423794e-07
-9.2814888e-08
1.7174623e-07
-9.2182684e-08
1.6929603e-07
-9.1519154e-08
1.6689275e-07
-9.0826559e-08
1.6454182e-07
-9.0107476e-08
1.6224882e-07
-8.9364824e-08
1.6001944e-07
-8.8601879e-08
1.578594e-07
-8.7822375e-08
1.5577435e-07
-8.7030549e-08
1.5376964e-07
-8.6231238e-08
1.518502e-07
-8.5429938e-08
1.5002017e-07
-8.4632886e-08
1.4828263e-07
-8.3847111e-08
1.4663909e-07
-8.3080472e-08
1.45089e-07
-8.2341658e-08
1.4362912e-07
-8.1640124e-08
1.422528e-07
-8.0985975e-08
1.4094916e-07
-8.0389706e-08
1.3970239e-07
-7.9861866e-08
1.3849097e-07
-7.9412507e-08
1.3728719e-07
-7.9050513e-08
1.36057e-07
-7.8782718e-08
1.347604e-07
-7.861288e-08
1.333526e-07
-7.8540609e-08
1.3178615e-07
-7.8560249e-08
1.3001409e-07
-7.8660123e-08
1.2799402e-07
-7.8822016e-08
1.2569265e-07
-7.9021617e-08
1.2309024e-07
-7.922953e-08
1.201838e-07
-7.9413488e-08
1.1698846e-07
-7.9540977e-08
1.135364e-07
-7.9582355e-08
1.0987346e-07
-7.9513539e-08
1.060541e-07
-7.9317933e-08
1.0213572e-07
-7.8987341e-08
9.8173292e-08
-7.8521509e-08
9.4215193e-08
-7.7927033e-08
9.0300625e-08
-7.7215282e-08
8.6458609e-08
-7.6400627e-08
8.2708363e-08
-7.5498367e-08
7.9060526e-08
-7.4523496e-08
7.5518883e-08
-7.3489493e-08
7.2082168e-08
-7.2407848e-08
-7.12874e-08
1.8286809e-07
-9.2389465e-08
1.8022887e-07
-9.1848329e-08
1.7761832e-07
-9.1274616e-08
1.7504169e-07
-9.0670057e-08
1.7250382e-07
-9.0036633e-08
1.7000937e-07
-8.9376548e-08
1.675631e-07
-8.8692347e-08
1.6516974e-07
-8.798683e-08
1.6283409e-07
-8.7263201e-08
1.6056078e-07
-8.6525003e-08
1.5835425e-07
-8.5776285e-08
1.5621855e-07
-8.5021528e-08
1.5415714e-07
-8.4265825e-08
1.5217266e-07
-8.351478e-08
1.5026664e-07
-8.277467e-08
1.4843909e-07
-8.2052304e-08
1.4668817e-07
-8.1355116e-08
1.4500963e-07
-8.0690953e-08
1.4339638e-07
-8.0068042e-08
1.418379e-07
-7.9494643e-08
1.4031981e-07
-7.8978825e-08
1.3882345e-07
-7.8527937e-08
1.3732569e-07
-7.8148126e-08
1.3579905e-07
-7.7843653e-08
1.3421216e-07
-7.7616165e-08
1.3253082e-07
-7.7464006e-08
1.3071958e-07
-7.7381465e-08
1.2874404e-07
-7.7358435e-08
1.2657351e-07
-7.7380094e-08
1.24184e-07
-7.7427434e-08
1.2156102e-07
-7.7477878e-08
1.1870167e-07
-7.7506956e-08
1.1561554e-07
-7.7489874e-08
1.1232437e-07
-7.7403801e-08
1.0885995e-07
-7.7229506e-08
1.0526122e-07
-7.6953037e-08
1.0157043e-07
-7.6566292e-08
9.7829632e-08
-7.6067208e-08
9.4077353e-08
-7.5458973e-08
9.034656e-08
-7.4748984e-08
8.6663294e-08
-7.3947419e-08
8.3046557e-08
-7.306592e-08
7.9508729e-08
-7.2116397e-08
7.6056712e-08
-7.1110121e-08
7.2693255e-08
-7.0057099e-08
-6.8965474e-08
1.8559616e-07
-9.0663366e-08
1.8288621e-07
-9.0142017e-08
1.8020325e-07
-8.9590508e-08
1.7755211e-07
-8.9010657e-08
1.7493702e-07
-8.8404357e-08
1.7236214e-07
-8.7773834e-08
1.6983151e-07
-8.7121462e-08
1.6734923e-07
-8.6450014e-08
1.6491924e-07
-8.5762457e-08
1.6254536e-07
-8.506222e-08
1.6023104e-07
-8.4352994e-08
1.5797933e-07
-8.3638989e-08
1.5579261e-07
-8.2924742e-08
1.5367248e-07
-8.2215339e-08
1.5161938e-07
-8.151622e-08
1.4963248e-07
-8.0833323e-08
1.4770917e-07
-8.0172881e-08
1.4584488e-07
-7.9541444e-08
1.4403262e-07
-7.8945626e-08
1.4226267e-07
-7.8391967e-08
1.405223e-07
-7.7886602e-08
1.3879555e-07
-7.7434919e-08
1.3706323e-07
-7.7041145e-08
1.3530309e-07
-7.6707815e-08
1.3349035e-07
-7.6435336e-08
1.3159848e-07
-7.6221383e-08
1.2960055e-07
-7.6060611e-08
1.2747068e-07
-7.5944235e-08
1.2518612e-07
-7.5860192e-08
1.2272901e-07
-7.5793216e-08
1.2008847e-07
-7.5725734e-08
1.1726175e-07
-7.5638601e-08
1.1425516e-07
-7.5512666e-08
1.1108362e-07
-7.532986e-08
1.0776978e-07
-7.5074868e-08
1.0434182e-07
-7.4735853e-08
1.0083132e-07
-7.4305474e-08
9.7270452e-08
-7.378067e-08
9.3689933e-08
-7.316272e-08
9.0116994e-08
-7.2456183e-08
8.6574419e-08
-7.1668326e-08
8.3079884e-08
-7.0807833e-08
7.9646212e-08
-6.988416e-08
7.6281917e-08
-6.890656e-08
7.2992279e-08
-6.7883629e-08
-6.6822715e-08
1.875922e-07
-8.8844443e-08
1.8482118e-07
-8.8339529e-08
1.8207556e-07
-8.7806865e-08
1.7935971e-07
-8.724817e-08
1.7667746e-07
-8.6665341e-08
1.7403238e-07
-8.6060469e-08
1.7142804e-07
-8.5435905e-08
1.6886788e-07
-8.4794221e-08
1.6635525e-07
-8.4138293e-08
1.6389322e-07
-8.3471263e-08
1.6148455e-07
-8.2796606e-08
1.5913147e-07
-8.2118113e-08
1.5683564e-07
-8.1439921e-08
1.5459787e-07
-8.0766504e-08
1.52418e-07
-8.0102646e-08
1.5029462e-07
-7.9453433e-08
1.4822486e-07
-7.882413e-08
1.4620413e-07
-7.822016e-08
1.4422586e-07
-7.7646863e-08
1.4228133e-07
-7.710942e-08
1.4035939e-07
-7.6612483e-08
1.3844653e-07
-7.6160038e-08
1.365268e-07
-7.5754901e-08
1.3458215e-07
-7.5398548e-08
1.3259276e-07
-7.5090533e-08
1.3053786e-07
-7.4828376e-08
1.2839652e-07
-7.4607067e-08
1.26149e-07
-7.4419148e-08
1.2377789e-07
-7.4254528e-08
1.2126968e-07
-7.4100942e-08
1.1861583e-07
-7.3944274e-08
1.1581397e-07
-7.3769437e-08
1.1286811e-07
-7.3561172e-08
1.0978887e-07
-7.3305131e-08
1.0659249e-07
-7.2988799e-08
1.0329986e-07
-7.2602307e-08
9.9934708e-08
-7.2138994e-08
9.6521983e-08
-7.1595552e-08
9.3086053e-08
-7.0971971e-08
8.9649412e-08
-7.0271031e-08
8.6231554e-08
-6.9497793e-08
8.2848493e-08
-6.8658775e-08
7.9512627e-08
-6.7761406e-08
7.6233113e-08
-6.6813237e-08
7.3016688e-08
-6.5821604e-08
-6.4792986e-08
1.8893335e-07
-8.696022e-08
1.8611036e-07
-8.6469237e-08
1.8331126e-07
-8.5952706e-08
1.8054003e-07
-8.541218e-08
1.7780012e-07
-8.4849616e-08
1.7509464e-07
-8.4266917e-08
1.7242674e-07
-8.366643e-08
1.6979932e-07
-8.3050498e-08
1.6721525e-07
-8.2421933e-08
1.6467701e-07
-8.1783547e-08
1.6218682e-07
-8.1138665e-08
1.5974632e-07
-8.0490606e-08
1.5735666e-07
-7.9843225e-08
1.550181e-07
-7.9200341e-08
1.5273016e-07
-7.8566282e-08
1.5049108e-07
-7.7945263e-08
1.4829803e-07
-7.7341888e-08
1.4614655e-07
-7.6760499e-08
1.4403072e-07
-7.6205577e-08
1.4194271e-07
-7.5681083e-08
1.3987299e-07
-7.5190709e-08
1.3781003e-07
-7.4737258e-08
1.3574064e-07
-7.4322699e-08
1.3365001e-07
-7.3947674e-08
1.3152223e-07
-7.3611349e-08
1.2934074e-07
-7.3311178e-08
1.2708909e-07
-7.3042612e-08
1.2475187e-07
-7.2799278e-08
1.2231554e-07
-7.2572649e-08
1.1976959e-07
-7.2352789e-08
1.1710722e-07
-7.2128088e-08
1.1432629e-07
-7.188658e-08
1.1142934e-07
-7.1615749e-08
1.0842403e-07
-7.1304205e-08
1.0532219e-07
-7.0941409e-08
1.0213954e-07
-7.0519293e-08
9.8894069e-08
-7.0031695e-08
9.560533e-08
-6.9475517e-08
9.2292709e-08
-6.8849806e-08
8.8974777e-08
-6.8156312e-08
8.5668041e-08
-6.7398364e-08
8.2386757e-08
-6.6580988e-08
7.9142429e-08
-6.5709878e-08
7.5944297e-08
-6.4791308e-08
7.2799712e-08
-6.3831371e-08
-6.283585e-08
1.896898e-07
-8.502657e-08
1.8682343e-07
-8.4547884e-08
1.8397946e-07
-8.40455e-08
1.8116174e-07
-8.3521136e-08
1.7837319e-07
-8.2976374e-08
1.756167e-07
-8.2413257e-08
1.7289487e-07
-8.1833829e-08
1.7021036e-07
-8.1240504e-08
1.6756545e-07
-8.0635723e-08
1.6496236e-07
-8.0022297e-08
1.6240272e-07
-7.9403085e-08
1.5988792e-07
-7.8781298e-08
1.5741856e-07
-7.8160207e-08
1.5499478e-07
-7.7543383e-08
1.5261567e-07
-7.6934435e-08
1.502796e-07
-7.6337154e-08
1.4798364e-07
-7.5755299e-08
1.4572383e-07
-7.519261e-08
1.4349471e-07
-7.4652639e-08
1.4128953e-07
-7.4138613e-08
1.391e-07
-7.3653329e-08
1.3691643e-07
-7.3198847e-08
1.3472779e-07
-7.2776471e-08
1.3252189e-07
-7.2386307e-08
1.3028583e-07
-7.2027367e-08
1.2800621e-07
-7.1697045e-08
1.2567002e-07
-7.1391431e-08
1.2326487e-07
-7.1104809e-08
1.2078022e-07
-7.0830234e-08
1.1820751e-07
-7.0559176e-08
1.1554144e-07
-7.0282389e-08
1.127798e-07
-6.9989767e-08
1.0992447e-07
-6.9671403e-08
1.0698066e-07
-6.93176e-08
1.0395746e-07
-6.891993e-08
1.0086648e-07
-6.8471217e-08
9.7721884e-08
-6.7966332e-08
9.4538783e-08
-6.7401983e-08
9.133297e-08
-6.6777084e-08
8.8119543e-08
-6.6092326e-08
8.4912641e-08
-6.5350123e-08
8.17246e-08
-6.45541e-08
7.8566039e-08
-6.3708848e-08
7.5445707e-08
-6.2819359e-08
7.2371256e-08
-6.1890883e-08
-6.0928361e-08
1.89925e-07
-8.3052443e-08
1.8702318e-07
-8.2585055e-08
1.8414267e-07
-8.2095873e-08
1.8128679e-07
-8.1586228e-08
1.7845829e-07
-8.1057722e-08
1.7565959e-07
-8.0512261e-08
1.7289309e-07
-7.9951821e-08
1.7016101e-07
-7.9378668e-08
1.6746541e-07
-7.8795091e-08
1.6480805e-07
-7.8203706e-08
1.6219036e-07
-7.7607115e-08
1.5961334e-07
-7.7008276e-08
1.5707742e-07
-7.6410075e-08
1.5458247e-07
-7.5815755e-08
1.5212757e-07
-7.522839e-08
1.4971105e-07
-7.4651367e-08
1.473302e-07
-7.4087765e-08
1.4498143e-07
-7.354085e-08
1.4265987e-07
-7.3013394e-08
1.4035969e-07
-7.2508134e-08
1.380737e-07
-7.2027079e-08
1.3579377e-07
-7.1571887e-08
1.3351059e-07
-7.1143233e-08
1.3121416e-07
-7.074106e-08
1.288938e-07
-7.0364119e-08
1.2653872e-07
-7.0010075e-08
1.2413826e-07
-6.9675331e-08
1.2168259e-07
-6.9355003e-08
1.1916308e-07
-6.9043142e-08
1.1657292e-07
-6.8732602e-08
1.139076e-07
-6.8415703e-08
1.1116525e-07
-6.8084018e-08
1.0834688e-07
-6.7729407e-08
1.054564e-07
-6.7343712e-08
1.0250051e-07
-6.691995e-08
9.9488197e-08
-6.6451877e-08
9.6430407e-08
-6.5935071e-08
9.3339194e-08
-6.5366333e-08
9.0227259e-08
-6.474446e-08
8.7107102e-08
-6.4069497e-08
8.3990636e-08
-6.3343154e-08
8.0888625e-08
-6.2568069e-08
7.7810532e-08
-6.1747869e-08
7.4764633e-08
-6.0886665e-08
7.1758356e-08
-5.9988814e-08
-5.90587e-08
1.896958e-07
-8.1042502e-08
1.8676613e-07
-8.0586892e-08
1.8385684e-07
-8.0110543e-08
1.8097086e-07
-7.9614874e-08
1.7811057e-07
-7.9101607e-08
1.7527812e-07
-7.8572537e-08
1.7247564e-07
-7.8029637e-08
1.6970506e-07
-7.7474948e-08
1.6696822e-07
-7.6910715e-08
1.6426657e-07
-7.6339249e-08
1.6160138e-07
-7.576306e-08
1.5897335e-07
-7.518471e-08
1.5638285e-07
-7.4606932e-08
1.5382955e-07
-7.4032471e-08
1.5131263e-07
-7.3464183e-08
1.4883039e-07
-7.2904857e-08
1.4638048e-07
-7.2357283e-08
1.4395955e-07
-7.1824068e-08
1.4156346e-07
-7.1307642e-08
1.3918702e-07
-7.0810091e-08
1.368242e-07
-7.0333087e-08
1.3446797e-07
-6.9877757e-08
1.3211062e-07
-6.9444538e-08
1.2974375e-07
-6.9033121e-08
1.2735856e-07
-6.8642241e-08
1.2494616e-07
-6.8269746e-08
1.2249784e-07
-6.7912368e-08
1.200056e-07
-6.7565952e-08
1.1746231e-07
-6.7225268e-08
1.1486247e-07
-6.6884422e-08
1.1220217e-07
-6.6536757e-08
1.094798e-07
-6.6175417e-08
1.0669579e-07
-6.5793346e-08
1.0385309e-07
-6.5383911e-08
1.0095662e-07
-6.4940946e-08
9.8013494e-08
-6.4459303e-08
9.5032142e-08
-6.3934853e-08
9.2022343e-08
-6.3364834e-08
8.8994279e-08
-6.2747748e-08
8.595842e-08
-6.2083459e-08
8.2924728e-08
-6.1372954e-08
7.9902582e-08
-6.0618298e-08
7.6900378e-08
-5.9822293e-08
7.3925693e-08
-5.8988321e-08
7.0985671e-08
-5.8120047e-08
-5.722132e-08
1.9201794e-07
-7.9427936e-08
1.8905241e-07
-7.9003781e-08
1.8610262e-07
-7.8559102e-08
1.8317225e-07
-7.8094958e-08
1.8026385e-07
-7.761269e-08
1.7737953e-07
-7.7113964e-08
1.7452129e-07
-7.660047e-08
1.7169101e-07
-7.607409e-08
1.6889046e-07
-7.5536724e-08
1.6612123e-07
-7.4990485e-08
1.6338461e-07
-7.4437488e-08
1.6068166e-07
-7.3880063e-08
1.5801298e-07
-7.3320514e-08
1.553788e-07
-7.2761341e-08
1.527788e-07
-7.2204957e-08
1.5021215e-07
-7.1653925e-08
1.4767733e-07
-7.1110639e-08
1.4517219e-07
-7.0577551e-08
1.4269381e-07
-7.0056822e-08
1.4023855e-07
-6.9550534e-08
1.3780192e-07
-6.9060329e-08
1.3537874e-07
-6.8587577e-08
1.3296307e-07
-6.8133042e-08
1.3054839e-07
-6.7696995e-08
1.2812765e-07
-6.727895e-08
1.2569355e-07
-6.6877712e-08
1.2323867e-07
-6.6491254e-08
1.2075587e-07
-6.6116695e-08
1.1823846e-07
-6.5750378e-08
1.1568063e-07
-6.53878e-08
1.1307769e-07
-6.5023923e-08
1.1042641e-07
-6.4653072e-08
1.0772519e-07
-6.426946e-08
1.0497422e-07
-6.3867062e-08
1.0217559e-07
-6.3440286e-08
9.9333087e-08
-6.2983794e-08
9.6452179e-08
-6.2493172e-08
9.3539613e-08
-6.1964707e-08
9.0603185e-08
-6.13959e-08
8.7651277e-08
-6.07852e-08
8.4692507e-08
-6.0132243e-08
8.1735383e-08
-5.9437642e-08
7.8787927e-08
-5.8702891e-08
7.585757e-08
-5.7930234e-08
7.2951181e-08
-5.7122429e-08
7.007558e-08
-5.6282665e-08
-5.5414122e-08
1.9102018e-07
-7.7354411e-08
1.8804183e-07
-7.6939734e-08
1.850789e-07
-7.6505799e-08
1.8213443e-07
-7.6053606e-08
1.7921069e-07
-7.5584443e-08
1.7630962e-07
-7.5099829e-08
1.7343303e-07
-7.4601379e-08
1.7058263e-07
-7.4090833e-08
1.6776005e-07
-7.3569999e-08
1.6496667e-07
-7.3040813e-08
1.622037e-07
-7.2505263e-08
1.5947199e-07
-7.1965455e-08
1.5677213e-07
-7.1423526e-08
1.5410422e-07
-7.0881696e-08
1.5146801e-07
-7.034217e-08
1.4886269e-07
-6.9807177e-08
1.4628693e-07
-6.9278864e-08
1.437388e-07
-6.8759313e-08
1.4121577e-07
-6.8250418e-08
1.3871463e-07
-6.7753884e-08
1.3623156e-07
-6.7271103e-08
1.3376207e-07
-6.6803121e-08
1.3130115e-07
-6.6350523e-08
1.2884324e-07
-6.5913388e-08
1.2638244e-07
-6.5491193e-08
1.239126e-07
-6.5082771e-08
1.2142754e-07
-6.4686269e-08
1.1892127e-07
-6.4299123e-08
1.1638824e-07
-6.39181e-08
1.1382356e-07
-6.3539322e-08
1.1122328e-07
-6.3158399e-08
1.0858461e-07
-6.2770515e-08
1.0590605e-07
-6.2370653e-08
1.031876e-07
-6.1953722e-08
1.0043069e-07
-6.1514847e-08
9.7638286e-08
-6.1049481e-08
9.4814594e-08
-6.0553706e-08
9.1965041e-08
-6.002427e-08
8.90959e-08
-5.945884e-08
8.6214059e-08
-5.8855905e-08
8.3326722e-08
-5.8214974e-08
8.0441034e-08
-5.7536311e-08
7.756395e-08
-5.6821087e-08
7.4701994e-08
-5.6071052e-08
7.1861371e-08
-5.5288476e-08
6.9048328e-08
-5.4476039e-08
-5.363663e-08
1.896909e-07
-7.5259077e-08
1.8670617e-07
-7.4854073e-08
1.837364e-07
-7.4431057e-08
1.8078429e-07
-7.3990851e-08
1.7785183e-07
-7.353467e-08
1.7494076e-07
-7.3063918e-08
1.7205277e-07
-7.2580157e-08
1.6918942e-07
-7.2084977e-08
1.6635218e-07
-7.1580116e-08
1.6354231e-07
-7.1067325e-08
1.6076091e-07
-7.0548491e-08
1.5800874e-07
-7.0025502e-08
1.5528631e-07
-6.9500357e-08
1.5259373e-07
-6.8975018e-08
1.4993076e-07
-6.8451517e-08
1.4729667e-07
-6.7931792e-08
1.4469032e-07
-6.7417784e-08
1.4210999e-07
-6.6911266e-08
1.3955349e-07
-6.6413908e-08
1.3701804e-07
-6.5927124e-08
1.3450035e-07
-6.5452094e-08
1.3199659e-07
-6.4989632e-08
1.2950246e-07
-6.4540175e-08
1.2701327e-07
-6.4103689e-08
1.2452399e-07
-6.3679618e-08
1.2202946e-07
-6.326687e-08
1.1952447e-07
-6.286373e-08
1.17004e-07
-6.2467938e-08
1.1446334e-07
-6.2076601e-08
1.1189838e-07
-6.1686375e-08
1.0930574e-07
-6.1293392e-08
1.0668299e-07
-6.0893546e-08
1.0402873e-07
-6.0482435e-08
1.0134281e-07
-6.0055732e-08
9.8626218e-08
-5.9609138e-08
9.5881214e-08
-5.9138767e-08
9.3111101e-08
-5.8641093e-08
9.0320243e-08
-5.811329e-08
8.7513708e-08
-5.7553135e-08
8.4697219e-08
-5.6959258e-08
8.1876722e-08
-5.6330972e-08
7.9058363e-08
-5.5668453e-08
7.6248068e-08
-5.4972478e-08
7.3451515e-08
-5.4244432e-08
7.0674337e-08
-5.3486289e-08
6.7922342e-08
-5.2700257e-08
-5.188886e-08
1.8806839e-07
-7.3145121e-08
1.850831e-07
-7.2750932e-08
1.8211247e-07
-7.2339277e-08
1.7915878e-07
-7.1911154e-08
1.7622375e-07
-7.1467885e-08
1.73309e-07
-7.1010853e-08
1.7041605e-07
-7.0541513e-08
1.6754636e-07
-7.0061388e-08
1.6470127e-07
-6.9572071e-08
1.6188197e-07
-6.9075219e-08
1.5908942e-07
-6.8572554e-08
1.5632436e-07
-6.8065834e-08
1.5358722e-07
-6.7556866e-08
1.5087816e-07
-6.7047453e-08
1.4819693e-07
-6.6539408e-08
1.4554296e-07
-6.6034483e-08
1.429152e-07
-6.5534382e-08
1.403122e-07
-6.5040677e-08
1.3773205e-07
-6.4554808e-08
1.3517237e-07
-6.4077987e-08
1.3263032e-07
-6.36112e-08
1.3010261e-07
-6.3155101e-08
1.275856e-07
-6.2710009e-08
1.2507525e-07
-6.227581e-08
1.2256734e-07
-6.185196e-08
1.2005747e-07
-6.1437412e-08
1.1754123e-07
-6.1030628e-08
1.1501436e-07
-6.0629556e-08
1.1247288e-07
-6.0231659e-08
1.0991327e-07
-5.983397e-08
1.0733264e-07
-5.9433134e-08
1.0472882e-07
-5.9025538e-08
1.0210056e-07
-5.8607382e-08
9.9447537e-08
-5.8174864e-08
9.6770468e-08
-5.7724259e-08
9.4071028e-08
-5.7252125e-08
9.1351866e-08
-5.6755368e-08
8.8616441e-08
-5.6231423e-08
8.5868942e-08
-5.5678282e-08
8.3114042e-08
-5.5094592e-08
8.0356804e-08
-5.4479675e-08
7.7602347e-08
-5.3833481e-08
7.4855796e-08
-5.31566e-08
7.2122206e-08
-5.2450187e-08
6.9406462e-08
-5.1715741e-08
6.6713987e-08
-5.0955286e-08
-5.0170984e-08
1.8917752e-07
-7.1386181e-08
1.8618657e-07
-7.1019496e-08
1.8320669e-07
-7.0635612e-08
1.8024093e-07
-7.0235108e-08
1.7729133e-07
-6.9819029e-08
1.7435948e-07
-6.938861e-08
1.7144687e-07
-6.8945166e-08
1.6855492e-07
-6.8490063e-08
1.6568499e-07
-6.8024732e-08
1.6283834e-07
-6.7550656e-08
1.6001605e-07
-6.7069383e-08
1.5721902e-07
-6.6582495e-08
1.5444795e-07
-6.6091626e-08
1.5170325e-07
-6.5598416e-08
1.4898509e-07
-6.5104523e-08
1.4629327e-07
-6.4611569e-08
1.4362731e-07
-6.4121148e-08
1.4098633e-07
-6.3634759e-08
1.3836909e-07
-6.3153809e-08
1.3577393e-07
-6.2679538e-08
1.3319881e-07
-6.2213008e-08
1.306413e-07
-6.1755035e-08
1.280986e-07
-6.1306166e-08
1.2556756e-07