/*--------------------------------*- C++ -*----------------------------------*\
| =========                 |                                                 |
| \\      /  F ield         | OpenFOAM: The Open Source CFD Toolbox           |
|  \\    /   O peration     | Version:  2312                                  |
|   \\  /    A nd           | Website:  www.openfoam.com                      |
|    \\/     M anipulation  |                                                 |
\*---------------------------------------------------------------------------*/
FoamFile
{
    version     2.0;
    format      ascii;
    arch        "LSB;label=32;scalar=64";
    class       volScalarField;
    location    "0.07";
    object      Qdot;
}
// * * * * * * * * * * * * * * * * * * * * * * * * * * * * * * * * * * * * * //

dimensions      [1 -1 -3 0 0 0 0];

internalField   nonuniform List<scalar> 
3250
(
0.087075343
0.084098519
0.081012788
0.077854406
0.07463971
0.071398649
0.068146766
0.064906117
0.061696176
0.058530403
0.05542277
0.052390563
0.049438656
0.046579717
0.04381766
0.041159657
0.03860871
0.036170107
0.033839878
0.031622398
0.029513672
0.027507804
0.02559885
0.023748182
0.021840668
0.01945744
0.015265335
0.0069847425
0.0046742954
0.0026824678
0.0017796097
0.0011488989
0.00078630008
0.00058456728
0.00045278312
0.00036282502
0.00029709708
0.0002475203
0.00020951066
0.00017932006
0.00015555271
0.00013613664
0.00012011696
0.00010689933
0.13195168
0.12619868
0.12041193
0.11463471
0.10889729
0.10323319
0.097663754
0.092217214
0.086911723
0.081766317
0.076795765
0.072009528
0.0674175
0.063026431
0.058838273
0.054855021
0.051077841
0.047501218
0.044127657
0.040944607
0.037952879
0.035137047
0.032492218
0.029995992
0.027605777
0.025205404
0.022550434
0.019316887
0.016534925
0.013718309
0.011335332
0.0091911667
0.0074550683
0.006118869
0.0050585858
0.0042077389
0.0035147213
0.0029490752
0.0024862134
0.0021055518
0.0017920042
0.0015317973
0.0013166833
0.0011368317
0.26502695
0.24987239
0.23507857
0.22070245
0.20679864
0.1933948
0.1805305
0.16822502
0.15649095
0.14533968
0.13477884
0.12480131
0.11540288
0.10657091
0.098291885
0.09055164
0.083328775
0.076597838
0.070342644
0.064535082
0.059154716
0.054175057
0.049569846
0.045311284
0.041365882
0.037686271
0.034216048
0.030892978
0.027773627
0.024797587
0.022019848
0.019420254
0.017061161
0.014960757
0.013095564
0.011440949
0.0099783156
0.0086903825
0.0075602796
0.0065725747
0.0057132272
0.0049668078
0.0043208676
0.0037635932
0.61222871
0.56921006
0.5280967
0.4889635
0.4518468
0.41676566
0.38371771
0.35268074
0.3236255
0.29649903
0.27124404
0.24779255
0.22606699
0.20599171
0.18747858
0.17044065
0.15479163
0.14044319
0.12731231
0.11531191
0.10435735
0.094375874
0.085288754
0.07702597
0.069513552
0.06269074
0.056484719
0.050838934
0.04570223
0.041024773
0.036766211
0.03288936
0.029370085
0.026188629
0.02331451
0.0207198
0.018381524
0.016279931
0.01439655
0.012714516
0.011215224
0.0098825909
0.0087014625
0.0076585111
1.4613371
1.343646
1.2326816
1.1284537
1.0309034
0.93991315
0.85532493
0.77693007
0.70449758
0.63776399
0.57644795
0.52025911
0.468894
0.42204792
0.37941692
0.34070488
0.30561423
0.27387162
0.24520166
0.21934859
0.19607034
0.17514224
0.15634458
0.13948726
0.12438451
0.11086425
0.098775264
0.087973801
0.07832589
0.069714109
0.062029895
0.055167897
0.049044426
0.043576908
0.038693759
0.034331959
0.030438892
0.02696194
0.023863284
0.021104139
0.018651294
0.016471381
0.014538293
0.01282395
3.383543
3.0869356
2.8094431
2.55085
2.3107758
2.088696
1.883982
1.695894
1.5236462
1.3663718
1.2231895
1.093208
0.97550823
0.8692079
0.77342332
0.68731221
0.61006473
0.54089821
0.4790859
0.42394344
0.37483034
0.33115031
0.29236071
0.25796153
0.22749021
0.20053302
0.17670627
0.15567015
0.13711302
0.12075517
0.10633949
0.093638156
0.082449848
0.072588357
0.063896252
0.056235516
0.049479006
0.043523757
0.038274328
0.03364868
0.029574055
0.025989011
0.022831939
0.020054078
7.3855524
6.7038705
6.0687986
5.4795983
4.9351316
4.4339462
3.9743125
3.5542874
3.1717714
2.8245605
2.510388
2.2269732
1.972035
1.7433468
1.5387388
1.3561316
1.193538
1.0490907
0.92102771
0.80770937
0.70762908
0.61938615
0.5417107
0.4734355
0.413506
0.36097398
0.31497916
0.27475211
0.23960505
0.20891854
0.18214477
0.15879467
0.13843576
0.12068383
0.10520779
0.091717742
0.079955588
0.069699867
0.060759496
0.05296504
0.046172152
0.040253435
0.035095379
0.030597757
15.084611
13.647147
12.311018
11.07444
9.9348051
8.888781
7.9324414
7.0614105
6.2709709
5.5561954
4.9120274
4.333383
3.8152262
3.3526141
2.9407742
2.5751343
2.2513506
1.9653314
1.7132634
1.4915971
1.2970708
1.1266929
0.97773231
0.8477218
0.73442805
0.63584605
0.55018276
0.47583257
0.4113774
0.3555501
0.30723391
0.26544703
0.22932334
0.19810666
0.17113643
0.14784051
0.12772091
0.11034728
0.095339445
0.082386959
0.071202193
0.061546645
0.053209641
0.046011693
28.907852
26.094527
23.483064
21.0698
18.849403
16.815084
14.958875
13.271892
11.744588
10.366989
9.1288752
8.019981
7.0301288
6.149372
5.3680977
4.677106
4.067685
3.5316413
3.0613423
2.6497173
2.2902678
1.9770605
1.7046941
1.4682923
1.2634682
1.0863063
0.93329231
0.8013238
0.6876524
0.5898439
0.50576911
0.43355943
0.37158678
0.31842631
0.27284698
0.2337835
0.20031268
0.17164116
0.14708539
0.12605919
0.10805383
0.092637802
0.079438466
0.068139787
63.790699
57.861797
52.312534
47.142806
42.348962
37.923902
33.857399
30.136563
26.74634
23.670001
20.889591
18.386359
16.141117
14.134587
12.347685
10.761759
9.3587901
8.1215658
7.0337846
6.0801369
5.2463857
4.5193564
3.8869596
3.3381769
2.8630067
2.4524336
2.098369
1.7936013
1.5317034
1.3070027
1.1144876
0.94976517
0.80898177
0.6887837
0.58624537
0.49884607
0.42439465
0.36100879
0.30706791
0.26118055
0.22215639
0.18897801
0.16077747
0.13680606
0.1164341
0.099120977
110.00969
99.668948
89.997547
80.995104
72.654661
64.963065
57.901753
51.44757
45.573637
40.250189
35.445347
31.12586
27.257746
23.80688
20.739491
18.022603
15.624386
13.514441
11.664001
10.046087
8.6356065
7.4093965
6.3462134
5.4267163
4.6333891
3.9504683
3.363844
2.8609432
2.4306219
2.0630418
1.749556
1.4825969
1.2555539
1.0626884
0.89902919
0.76028531
0.64275432
0.54326628
0.4591029
0.38793789
0.32778953
0.27697225
0.23404735
0.19780011
0.16719431
0.14135298
181.3675
164.15418
148.0678
133.10603
119.25576
106.4937
94.787647
84.097947
74.378843
65.579893
57.647195
50.524607
44.154826
38.480361
33.44436
28.991351
25.067808
21.622643
18.607551
15.97727
13.689725
11.706115
9.9908916
8.5117287
7.2393902
6.1476189
5.212921
4.4144326
3.7336779
3.1543941
2.6623203
2.2449923
1.8915896
1.5927149
1.3402632
1.127258
0.9477043
0.79648033
0.66920521
0.56216362
0.47218395
0.3965816
0.33308525
0.27977027
0.2350129
0.19745136
287.26536
259.77475
234.10315
210.24371
188.17298
167.85147
149.22581
132.23094
116.79229
102.82795
90.250668
78.969716
68.892575
59.92651
51.979896
44.963347
38.790718
33.379785
28.652873
24.537223
20.96527
17.874734
15.208633
12.91518
10.947605
9.2639372
7.8267167
6.6026945
5.5624974
4.6803084
3.9335435
3.3025283
2.7701754
2.3217346
1.9444895
1.6275236
1.3614938
1.1384444
0.95159026
0.79517419
0.66433114
0.55494206
0.46352759
0.38716734
0.32340056
0.27016562
438.86444
396.56958
357.09948
320.43915
286.54869
255.36418
226.80075
200.75599
177.11319
155.74458
136.51436
119.28156
103.90261
90.233674
78.132743
67.46134
58.086035
49.879567
42.72172
36.499988
31.109918
26.455305
22.448186
19.008684
16.064748
13.551773
11.412176
9.5949146
8.0549675
6.752842
5.6540369
4.7285552
3.9504296
3.2972468
2.7497646
2.2915014
1.9083842
1.5884532
1.3215478
1.0990775
0.91378901
0.7595654
0.63127818
0.52461539
0.43596519
0.36231175
648.83296
585.93447
527.26983
472.81083
422.49311
376.21736
333.85389
295.2475
260.22221
228.58597
200.13504
174.65816
151.94038
131.76649
113.92408
98.206068
84.412976
72.35458
61.851271
52.734968
44.849695
38.05187
32.210273
27.205841
22.931244
19.290346
16.197544
13.577046
11.362107
9.4942359
7.9224328
6.6024337
5.4959785
4.5701356
3.7966687
3.1514517
2.613946
2.1667164
1.795015
1.4863882
1.2303572
1.0181266
0.84231188
0.69675496
0.57630239
0.47666363
930.92814
840.24864
755.71195
677.27048
604.82484
538.22656
477.28444
421.77139
371.43106
325.98439
285.13583
248.5792
216.00313
187.09596
161.55014
139.06592
119.3545
102.14052
87.164008
74.181694
62.967896
53.314914
45.033009
37.9501
31.911173
26.777468
22.425549
18.746221
15.643438
13.033141
10.842139
9.0069939
7.4729738
6.1930446
5.1269563
4.2403948
3.5041997
2.8936895
2.3880075
1.9696169
1.6237869
1.3381755
1.1024762
0.90809192
0.74786877
0.61586913
1299.4435
1172.3792
1053.9664
944.1307
842.72413
749.53204
664.28171
586.65135
516.27915
452.77207
395.71435
344.67556
299.21813
258.90412
223.30131
191.98844
164.55957
140.6276
119.82705
101.81589
86.276844
72.917932
61.472507
51.698812
43.379158
36.318802
30.344616
25.303574
21.061202
17.49994
14.517543
12.025515
9.9476056
8.2183973
6.7820119
5.5908749
4.6046622
3.7892866
3.1160322
2.5607895
2.1033601
1.7268613
1.4172428
1.1628049
0.95384464
0.78233048
1768.5643
1595.0995
1433.5
1283.6466
1145.3269
1018.2406
902.01032
796.19341
700.29361
613.77289
536.0626
466.57434
404.70996
349.87076
301.46575
258.91874
221.67433
189.2028
161.00384
136.60919
115.58442
97.529747
82.080082
68.904482
57.70504
48.215349
40.198701
33.44602
27.773693
23.021371
19.049718
15.738276
12.983386
10.696254
8.8011208
7.2336161
5.939252
4.8720698
3.9934202
3.270928
2.6775112
2.1906191
1.7914969
1.4645819
1.1969989
0.97811364
2598.751
2351.6647
2120.485
1905.1628
1705.53
1521.293
1352.0437
1197.2741
1056.3911
928.73183
813.57857
710.17333
617.73195
535.45723
462.55109
398.22537
341.71137
292.26781
249.18741
211.80189
179.48562
151.65803
127.78473
107.37774
89.994693
75.237469
62.750131
52.21653
43.357569
35.928309
29.714971
24.531976
20.219036
16.638375
13.672093
11.219759
9.1961589
7.5292576
6.1584097
5.0327064
4.1095723
3.3534802
2.7348973
2.2293165
1.8164557
1.4795659
1.2048557
3382.8843
3060.7087
2759.3217
2478.6546
2218.4734
1978.3828
1757.8424
1556.1848
1372.6346
1206.3271
1056.3272
921.64791
801.2683
694.15018
599.25383
515.55203
442.04237
377.75771
321.77475
273.22073
231.27829
195.18864
164.25318
137.83384
115.35223
96.28775
80.175069
66.600977
55.200811
45.654697
37.683625
31.04556
25.531631
20.962455
17.184717
14.067951
11.501595
9.3923484
7.6617477
6.2440501
5.084349
4.1369469
3.3638957
2.7337797
2.2206553
1.8031481
1.4636943
4317.2876
3905.6132
3520.567
3162.0428
2829.7183
2523.0726
2241.4058
1983.8607
1749.4452
1537.0558
1345.5
1173.5201
1019.8144
883.05946
761.92896
655.11191
561.32815
479.34187
407.97259
346.1038
292.68937
246.7577
207.41399
173.84075
145.29679
121.11497
100.69901
83.519447
69.109187
57.058636
47.010704
38.655802
31.726937
25.995026
21.264425
17.368834
14.167495
11.541746
9.3919515
7.634746
6.2006172
5.0317882
4.0803818
3.3068303
2.6785217
2.1686444
1.7552006
5410.0823
4893.742
4410.899
3961.3616
3544.697
3160.2345
2807.0864
2484.1737
2190.2526
1923.9418
1683.7507
1468.1069
1275.3834
1103.9251
952.07242
818.1841
700.65639
597.94004
508.55421
431.09748
364.256
306.80895
257.63155
215.69584
180.06958
149.91356
124.47764
103.09581
85.18059
70.216948
57.75606
47.408965
38.840455
31.763069
25.931546
21.137581
17.205024
13.985579
11.354849
9.2088963
7.461176
6.0398653
4.8855375
3.9491688
3.1904169
2.5761809
2.0793585
7343.9347
6666.0788
6029.5642
5434.3974
4880.3191
4366.7682
3892.8993
3457.6082
3059.5615
2697.2279
2368.9096
2072.7759
1806.8963
1569.2728
1357.8718
1170.6533
1005.5985
860.73325
734.14914
624.02083
528.61974
446.32428
375.62691
315.13801
263.58709
219.8216
182.80379
151.60594
125.40438
103.47258
85.173749
69.953087
57.330017
46.890534
38.27985
31.195449
25.380602
20.618422
16.726476
13.551913
10.967161
8.8661417
7.1609352
5.7788999
4.6602102
3.7557073
3.0251259
2.4355573
8909.3735
8086.8033
7314.4625
6592.3533
5920.1229
5297.0584
4722.1132
4193.9374
3710.9113
3271.1801
2872.6917
2513.2342
2190.4755
1902.0018
1645.3548
1418.0673
1217.6958
1041.8492
888.21437
754.57729
638.83979
539.0324
453.32299
380.02197
317.58386
264.60621
219.82589
182.11349
150.46621
123.99952
101.93821
83.607048
68.421302
55.877445
45.544188
37.054005
30.095214
24.404716
19.761386
15.980151
12.906708
10.412898
8.392625
6.7583545
5.438089
4.3727662
3.5140754
2.8225996
10654.014
9670.2397
8746.6528
7883.209
7079.4254
6334.4101
5646.8888
5015.2372
4437.5175
3911.5178
3434.794
3004.7139
2618.5024
2273.286
1966.1375
1694.1168
1454.3101
1243.8642
1060.0167
900.12149
761.66937
642.30334
539.82955
452.22363
377.63309
314.37615
260.93769
215.96268
178.24779
146.73159
120.48389
98.694575
80.66226
65.783165
53.54037
43.493581
35.269639
28.553781
23.081647
18.632195
15.021292
12.096171
9.7305011
7.8201937
6.279723
5.039034
4.0409123
3.2387413
12571.795
11410.909
10321.254
9302.6249
8354.3824
7475.4325
6664.248
5918.9029
5237.1116
4616.2725
4053.515
3545.7493
3089.718
2682.0476
2319.2992
1998.0174
1714.7746
1466.2122
1249.0763
1060.2473
896.76505
755.84704
634.90174
531.5365
443.5607
368.98482
306.01583
253.04976
208.66196
171.59567
140.74953
115.1644
94.01005
76.57197
62.238646
50.489453
40.88338
33.048654
26.673262
21.49651
17.301437
13.908191
11.168218
8.9592309
7.1808871
5.7510925
4.6028695
3.6817477
16088.574
14652.876
13300.156
12030.513
10843.666
9738.8151
8714.6423
7769.3446
6900.6688
6105.9539
5382.1786
4726.0139
4133.8784
3601.9966
3126.4572
2703.2714
2328.4281
1997.9464
1707.9223
1454.5705
1234.2596
1043.541
879.17091
738.12637
617.61472
515.07787
428.19148
354.86006
293.2085
241.571
198.47788
162.64111
132.93908
108.401
88.191606
71.596228
58.006645
46.907905
37.866108
30.517353
24.557788
19.734746
15.838952
12.697703
10.168984
8.1363823
6.5047633
5.1966156
4.1489626
18538.649
16884.752
15326.543
13864.114
12497.078
11224.452
10044.678
8955.653
7954.7737
7038.9781
6204.7987
5448.4196
4765.7374
4152.4262
3604.0036
3115.8961
2683.5016
2302.2497
1967.6548
1675.3643
1421.1998
1201.1902
1011.5977
848.9367
709.98546
591.79119
491.66972
407.20026
336.21595
276.79135
227.22744
186.03512
151.91764
123.75277
100.57507
81.558709
66.001086
53.307575
42.977392
34.590771
27.797432
22.306316
17.876521
14.309426
11.441844
9.140148
7.2952436
5.8183401
4.6373807
21137.358
19252.156
17476.226
15809.556
14251.622
12801.234
11456.569
10215.207
9074.1708
8029.9761
7078.6855
6215.9712
5437.1816
4737.4132
4111.5833
3554.5035
3060.9501
2625.7313
2243.7483
1910.0499
1619.8793
1368.7125
1152.2888
966.63203
808.06511
673.21612
559.01852
462.70556
381.79992
314.09973
257.66172
210.78255
171.97886
139.96699
113.64274
92.061801
74.420983
60.040774
48.349136
38.866815
31.194124
24.999153
20.007387
15.99266
12.769317
10.185471
8.1172262
6.463868
5.1437379
23865.51
21737.67
19733.413
17852.576
16094.463
14457.654
12940.043
11538.871
10250.768
9071.8086
7997.5658
7023.1788
6143.4263
5352.8041
4645.6052
4016.0015
3458.1215
2966.1257
2534.2753
2156.9935
1828.9186
1544.9477
1300.2719
1090.4005
911.1782
758.79265
629.77517
520.99489
429.64758
353.24016
289.57192
236.7136
192.98504
156.93229
127.3048
103.03326
83.208385
67.06112
53.944311
43.315998
34.724435
27.794681
22.216844
17.735798
14.142256
11.265139
8.9650522
7.1287467
5.6645389
26702.195
24322.288
22080.867
19977.592
18011.567
16181.123
14483.848
12916.626
11475.682
10156.63
8954.5381
7863.9964
6879.1964
5994.0153
5202.1033
4496.9723
3872.0826
3320.9261
2837.102
2414.3861
2046.7902
1728.6111
1454.4707
1219.3438
1018.5779
847.90219
703.4291
581.64836
479.41484
393.9316
322.72921
263.64256
214.78593
174.5275
141.46381
114.39494
92.300794
74.318773
59.723263
47.906852
38.363441
30.673212
24.489389
19.526637
15.551075
12.371652
9.8328237
7.8083273
6.1959691
4.9133883
29625.391
26985.967
24500.404
22168.157
19988.112
17958.329
16076.076
14337.864
12739.496
11276.116
9942.2731
8731.997
7638.8796
6656.1665
5776.851
4993.7712
4299.7038
3687.4561
3149.9493
2680.2952
2271.8621
1918.3302
1613.7356
1352.503
1129.4673
939.88497
779.43626
644.219
530.73578
435.87556
356.89099
291.37289
237.22285
192.62488
156.01725
126.06485
101.63279
81.761688
65.644712
52.60671
42.085362
33.614459
26.809072
21.352683
16.986005
13.497377
10.714606
8.4980203
6.7346691
5.3334938
32612.536
29708.16
26973.362
24407.382
22008.868
19775.591
17704.479
15791.662
14032.509
12421.682
10953.207
9620.5429
8416.675
7334.2092
6365.4737
5502.6233
4737.7417
4062.941
3470.4536
2952.7158
2502.441
2112.6807
1776.8738
1488.883
1243.0198
1034.0572
857.2331
708.24416
583.23207
478.76377
391.80696
319.70211
260.13252
211.09325
170.86007
137.95908
111.13759
89.336859
71.666703
57.382456
45.864141
36.597951
29.159866
23.201416
18.437289
14.634735
11.604529
9.1932953
7.2770986
5.7561127
35641.062
32468.294
29481.053
26678.344
24058.564
21619.176
19356.759
17267.046
15344.964
13584.692
11979.723
10522.945
9206.7323
8023.0487
6963.5534
6019.7142
5182.9172
4444.5743
3796.2232
3229.6187
2736.8126
2310.2206
1942.6774
1627.4767
1358.3989
1129.727
936.24981
773.25638
636.52166
522.28525
427.22491
348.42641
283.35086
229.80094
185.88696
149.99369
120.74851
96.991458
77.747504
62.201222
49.673955
39.603465
31.525976
25.060523
19.895358
15.776305
12.496859
9.8897483
7.8198865
6.1785905
38688.858
35246.202
32005.139
28964.433
26122.205
23475.598
21020.827
18753.219
16667.259
14756.637
13014.313
11432.605
10003.278
8717.6533
7566.7244
6541.2724
5631.9864
4829.5781
4124.8901
3508.9942
2973.2786
2509.5215
2109.9502
1767.2862
1474.7763
1226.2095
1015.9224
838.79318
690.2269
566.13276
462.8959
377.34483
306.71623
248.6184
200.99446
162.08635
130.40021
104.67382
83.846389
67.031007
53.489725
42.6114
33.892127
26.918137
21.351009
16.914984
13.386118
10.583152
8.3597985
6.5984195
41734.67
38022.485
34527.977
31249.655
28185.348
25331.858
22685.026
20239.771
17990.127
15929.299
14049.721
12343.141
10800.722
9413.1502
8170.7562
7063.6412
6081.8027
5215.257
4454.1554
3788.8905
3210.1898
2709.1955
2277.5295
1907.3423
1591.3471
1322.8394
1095.7033
904.40582
743.98149
610.00856
498.57885
406.26294
330.07241
267.42057
216.08282
174.15776
140.02988
112.33435
89.924322
71.84117
57.287478
45.603062
36.243771
28.76297
22.795524
18.044036
14.267128
11.269539
8.8937752
7.0132596
44758.434
40778.815
37032.887
33518.888
30234.331
27175.658
24338.323
21716.835
19304.782
17094.887
15079.061
13248.495
11593.756
10104.906
8771.6237
7583.3397
6529.3692
5599.0424
4781.8279
4067.4467
3445.9728
2907.9189
2444.3067
2046.7204
1707.3438
1418.9824
1175.0706
969.66662
797.43653
653.62919
534.0444
434.99588
353.27101
286.08881
231.0575
186.13287
149.57815
119.92622
95.944511
76.602898
61.044721
48.560937
38.567315
30.584503
24.220775
19.157207
15.13509
11.945235
9.41901
7.4209668
47741.519
43498.161
39504.362
35758.078
32256.455
28995.559
25970.452
23175.23
20603.042
18246.134
16095.909
14143.009
12377.421
10788.592
9365.5642
8097.1119
6971.8813
5978.5295
5105.8551
4342.9193
3679.1534
3104.4508
2609.2421
2184.5535
1822.0468
1514.0438
1253.5351
1034.175
850.26533
696.72939
569.07807
463.37096
376.17352
304.51242
245.83041
197.94182
158.98982
127.40599
101.87286
81.289522
64.740653
51.468858
40.850239
32.373068
25.619312
20.248783
15.985618
12.606884
9.9329489
7.8196031
50666.905
46164.954
41928.236
37954.381
34240.118
30781.11
27572.027
24606.556
21877.416
19376.388
17094.379
15021.498
13147.165
11460.232
9949.1199
8601.964
7406.7589
6351.5052
5424.3474
4613.7025
3908.3735
3297.6478
2771.3778
2320.0428
1934.793
1607.4758
1330.6462
1097.562
902.16722
739.06512
603.48266
491.22947
398.65274
322.58991
260.32085
209.5207
168.21445
134.734
107.6783
85.876781
68.356398
54.312185
43.081221
34.119934
26.984436
21.31362
16.814794
13.251498
10.433317
8.2074427
53519.268
48765.179
44291.777
40096.275
36174.907
32522.928
29134.617
26003.264
23121.168
20479.662
18069.17
15879.286
13898.884
12116.238
10519.169
9095.1916
7831.6701
6715.968
5735.5954
4878.343
4132.4034
3486.4748
2929.8463
2452.4648
2044.9819
1698.7823
1405.996
1159.4937
952.87016
780.41575
637.07998
518.42815
420.59396
340.22978
274.45614
220.81201
177.20674
141.87468
113.33299
90.342973
71.875104
57.077866
45.250181
35.81735
28.310196
22.347179
17.619149
13.876454
10.918129
8.582984
56284.942
51286.395
46583.762
42173.613
38051.658
34212.75
30650.793
27358.695
24328.351
21550.664
19015.594
16712.239
14628.945
12753.432
11072.943
9574.3958
8244.5452
7070.141
6038.0802
5135.5493
4350.1503
3670.0112
3083.8762
2581.1762
2152.0795
1787.5223
1479.222
1219.6736
1002.1325
820.58538
669.71194
544.83995
441.89554
357.35106
288.17207
231.765
185.92673
148.7967
118.81248
94.669066
75.282006
59.754494
47.348345
37.458582
29.591444
23.345532
18.3957
14.479483
11.385678
8.9449416
58951.723
53717.743
48794.51
44177.659
39862.473
35843.448
32114.141
28667.097
25493.826
22584.819
19929.593
17516.771
15334.195
13369.055
11608.038
10037.491
8643.5839
7412.4772
6330.4797
5384.1964
4560.6617
3847.4548
3232.7949
2705.616
2255.6203
1873.3112
1550.0081
1277.8431
1049.7439
859.4035
701.24103
570.35448
462.46926
373.88355
301.41298
242.33578
194.33995
155.47305
124.09571
98.838711
78.56445
62.332318
49.368215
39.037889
30.823808
24.305355
19.141936
15.058697
11.834537
9.292262
79840.968
73405.058
67295.132
61508.493
56050.277
50915.949
46101.087
41600.714
37409.024
33519.256
29923.616
26613.25
23578.257
20807.731
18289.847
16011.964
13960.767
12122.414
10482.705
9027.2553
7741.6608
6611.668
5623.326
4763.126
4018.1216
3376.0292
2825.3061
2355.2074
1955.8213
1618.0849
1333.782
1095.5251
896.7251
731.55035
594.87799
482.24025
389.76775
314.13181
252.48726
202.41727
161.88103
129.165
102.83821
81.711864
64.803201
51.303571
40.550519
32.003669
25.223911
19.855787
15.612544
12.26356
9.6240774
90033.515
82999.666
76309.765
69959.785
63948.601
58276.992
52941.56
47937.94
43260.965
38904.575
34861.715
31124.275
27683.06
24527.797
21647.184
19028.966
16660.048
14526.634
12614.382
10908.573
9394.2925
8056.6017
6880.712
5852.1436
4956.87
4181.4443
3513.1032
2939.8494
2450.5113
2034.7806
1683.2292
1387.3078
1139.3277
932.43005
760.54325
618.33303
501.14677
404.95467
326.28985
262.18899
210.13489
168.00206
134.00594
106.65641
84.715679
67.160588
53.14939
41.992673
33.128147
26.099031
20.535642
16.139817
12.671845
9.9397379
93287.157
86000.007
79069.158
72491.739
66266.526
60392.458
54866.27
49683.556
44838.979
40326.244
36138.03
32265.933
28700.437
25430.923
22445.71
19732.142
17276.695
15065.118
13082.597
11313.924
9743.6824
8356.4277
7136.8646
6070.0123
5141.354
4336.9677
3643.6351
3048.9274
2541.2678
2109.971
1745.2618
1438.2741
1181.0329
966.42233
788.14248
640.65782
519.13964
419.40534
337.85641
271.41692
217.47403
173.82154
138.60725
110.28466
87.569251
69.399397
54.901831
43.361435
34.195055
26.929081
21.18027
16.639617
13.058739
10.238765
96364.289
88836.622
81678.092
74885.788
68457.995
62392.659
56686.334
51334.484
46331.595
41671.155
37345.594
33346.236
29663.265
26285.736
23201.617
20397.873
17860.576
15575.051
13526.037
11697.867
10074.653
8640.4726
7379.5545
6276.4449
5316.1644
4484.3428
3767.3322
3152.296
2627.2741
2181.2252
1804.0455
1486.5692
1220.5499
998.62865
814.28925
661.80543
536.18161
433.09038
348.8084
280.153
224.42066
179.32865
142.9606
113.71656
90.267722
71.515967
56.558134
44.65474
35.202858
27.712917
21.788842
17.111337
13.423808
10.520857
99260.029
91505.728
84133.012
77138.552
70520.086
64274.888
58399.229
52888.388
47736.665
42937.342
38482.618
34363.561
30570.078
27090.92
23913.726
21025.107
18410.759
16055.609
13943.979
12059.771
10386.655
8908.2629
7608.3747
6471.0936
5481.0059
4623.3204
3883.9853
3249.7804
2708.3856
2248.4238
1859.4825
1532.1131
1257.8141
1028.9971
838.94199
681.74279
552.24656
445.98924
359.12978
288.38479
230.96518
184.51601
147.06039
116.94789
92.807904
73.507907
58.116529
45.871278
36.150602
28.449858
22.360866
17.554631
13.766821
10.785874
101971.74
94005.145
86431.902
79248.167
72451.162
66037.631
60003.535
54343.941
49052.958
44123.667
39548.055
35316.952
31420.006
27845.685
24581.325
21613.206
18926.675
16506.287
14335.977
12399.244
10679.347
9159.5018
7823.0694
6653.7394
5635.6921
4753.7428
3993.4617
3341.2702
2784.5104
2311.4915
1911.5109
1574.8559
1292.7851
1057.4952
862.07496
700.4496
567.31855
458.08954
368.811
296.10497
237.10204
189.37948
150.90351
119.97634
95.188138
75.37403
59.576161
47.010469
37.037883
29.139627
22.896164
17.9694
14.087729
11.033804
104498.6
96334.216
88574.168
81214.101
74250.768
67680.46
61498.832
55700.729
50280.067
45229.741
40541.533
36206.056
32212.716
28549.723
25204.127
22161.907
19408.083
16926.867
14701.834
12716.111
10952.575
9394.0533
8023.5202
6824.2799
5780.1354
4875.5355
4095.699
3426.7129
2855.6054
2370.3926
1960.1021
1614.7743
1325.4444
1084.1084
883.6768
717.91712
581.39097
469.38631
377.84839
303.31091
242.82939
193.91775
154.48911
122.8014
97.408125
77.114192
60.937006
48.072344
37.864776
29.782322
23.39484
18.355748
14.386641
11.264763
106841.34
98493.665
90560.487
83036.99
75919.499
69203.91
62885.583
56959.144
51418.324
46255.836
41463.277
37031.055
32948.357
29203.15
25782.225
22671.28
19855.036
17317.388
15041.579
13010.391
11206.35
9611.9255
8209.7318
6982.7177
5914.3368
4988.6988
4190.697
3506.1087
2921.6706
2425.1276
2005.2568
1651.8694
1355.7932
1108.8383
903.74912
734.14701
594.46548
479.88123
386.24356
310.00411
248.14862
198.13213
157.81837
125.42412
99.468782
78.729202
62.199766
49.057506
38.631788
30.378369
23.857249
18.71396
14.663804
11.478979
109002.06
100485.43
92392.658
84718.491
77458.879
70609.363
64165.027
58120.288
52468.7
47202.809
42314.037
37792.604
33627.496
29806.458
26316.043
23141.69
20267.846
17678.115
15355.436
13282.275
11440.834
9813.2534
8381.8176
7129.1477
6038.3758
5093.2993
4278.5112
3579.5037
2982.7448
2475.7288
2047.0017
1686.1635
1383.8504
1131.7004
922.30489
749.15009
606.5511
489.58179
394.00277
316.18978
253.06406
202.02619
160.89424
127.84693
101.37212
80.220699
63.365781
49.967041
39.339809
30.928485
24.283963
19.04449
14.919567
11.676762
110984
102312.52
94073.441
86261.143
78871.234
71898.933
65339.072
59185.872
53432.724
48072.018
43095.016
38491.767
34251.069
30360.466
26806.294
23573.755
20647.048
18009.51
15643.802
13532.103
11656.317
9998.2832
8539.986
7263.7458
6152.4003
5189.461
4359.2456
3646.9847
3038.8999
2522.256
2085.3866
1717.6977
1409.6497
1152.7226
939.36709
762.94523
617.66329
498.50062
401.1363
321.87629
257.58251
205.60545
163.72119
130.07345
103.12107
81.591047
64.43694
50.802476
39.990046
31.433622
24.675727
19.347922
15.154383
11.858468
112791.4
103978.82
95606.416
87668.235
80159.573
73075.361
66410.198
60158.128
54312.398
48865.252
43807.806
39129.953
34820.321
30866.27
27253.938
23968.315
20993.371
18312.204
15907.222
13760.342
11853.197
10167.356
8684.5267
7386.7573
6256.6173
5277.3576
4433.0456
3708.6731
3090.2373
2564.7931
2120.4808
1746.5292
1433.2381
1171.9434
954.96726
775.55814
627.82298
506.65472
407.65794
327.07479
261.71296
208.87716
166.30504
132.10833
104.71934
82.843213
65.415608
51.565681
40.583986
31.89496
25.033469
19.624949
15.36876
12.024484
114429.3
105488.98
96995.849
88943.678
81327.475
74141.906
67381.359
61039.725
55110.118
49584.657
44454.322
39708.865
35336.759
31325.2
27660.144
24326.392
21307.708
18586.972
16146.365
13967.567
12031.97
10320.894
8815.7985
7498.4861
6351.2832
5357.2051
4500.092
3764.7199
3136.8823
2603.4441
2152.3702
1772.7287
1454.6739
1189.4105
969.14415
787.02035
637.05573
514.06477
413.58436
331.7987
265.46619
211.84993
168.65269
133.95708
106.1713
83.98067
66.304552
52.258844
41.123354
32.313851
25.358224
19.876377
15.563269
12.175089
115903.41
106848.23
98246.562
90091.897
82378.99
75102.257
68255.901
61833.683
55828.605
50232.673
45036.746
40230.445
35802.106
31738.776
28026.251
24649.159
21591.081
18834.702
16362.001
14154.444
12193.205
10459.384
8934.2169
7599.2846
6436.6959
5429.2538
4560.5948
3815.3003
3178.9807
2638.3299
2181.1547
1796.3784
1474.0242
1205.1787
981.94254
797.36822
645.39098
520.75453
418.93469
336.06336
268.85448
214.53359
170.77195
135.6259
107.48191
85.007318
67.106838
52.884382
41.610053
32.691781
25.651171
20.103101
15.738538
12.310299
9.6220413
117219.95
108062.31
99363.821
91117.723
83318.536
75960.444
69037.482
62543.309
56470.838
50811.975
45557.469
40696.826
36218.257
32108.676
28353.736
24937.913
21844.623
19056.382
16554.984
14321.709
12337.537
10583.369
9040.2439
7689.5449
6513.1865
5493.7827
4614.7877
3860.6095
3216.6948
2669.5848
2206.945
1817.5694
1491.3637
1219.3091
993.41204
806.64197
652.86125
526.75021
423.72999
339.88565
271.89131
216.93887
172.67135
137.12157
108.65649
85.927389
67.8258
53.444916
42.046137
33.030369
25.913573
20.306103
15.895347
12.431219
9.7142055
118385.57
109137.33
100353.23
92026.299
84150.822
76720.76
69729.999
63172.129
57039.996
51325.42
46019.051
41110.29
36587.239
32436.694
28644.181
25194.042
22069.551
19253.069
16726.233
14470.156
12465.646
10693.432
9134.3774
7769.6898
6581.1127
5551.0926
4662.9229
3900.8581
3250.1998
2697.354
2229.8609
1836.4001
1506.773
1231.8674
1003.6061
814.8849
659.50149
532.07992
427.99281
343.28361
274.59108
219.07722
174.35999
138.45129
109.70074
86.745356
68.464968
53.943216
42.433778
33.331308
26.14674
20.486424
16.034537
12.538383
9.7964061
119407.19
110079.65
101220.64
92822.996
84880.765
77387.689
70337.521
63723.825
57539.403
51775.997
46424.17
41473.231
36911.181
32724.715
28899.25
25419.01
22267.143
19425.879
16876.715
14600.62
12578.253
10790.191
9217.1429
7840.1656
6640.8516
5601.5013
4705.267
3936.2685
3279.6806
2721.7905
2250.0288
1852.9743
1520.3371
1242.9227
1012.5809
822.14255
665.34844
536.77323
431.74685
346.2762
276.96888
220.96065
175.84737
139.62256
110.62059
87.465885
69.02799
54.382148
42.77522
33.596354
26.352067
20.645158
16.156978
12.632568
9.8685238
7.7036097
120291.96
110895.83
101972.07
93513.335
85513.425
77965.848
70864.24
64202.189
57972.48
52166.785
46775.588
41788.113
37192.277
32974.685
29120.66
25614.325
22438.72
19575.964
17007.431
14713.966
12676.102
10874.282
9289.0845
7901.4343
6692.7942
5645.338
4742.0959
3967.0713