/*--------------------------------*- C++ -*----------------------------------*\
| =========                 |                                                 |
| \\      /  F ield         | OpenFOAM: The Open Source CFD Toolbox           |
|  \\    /   O peration     | Version:  2312                                  |
|   \\  /    A nd           | Website:  www.openfoam.com                      |
|    \\/     M anipulation  |                                                 |
\*---------------------------------------------------------------------------*/
FoamFile
{
    version     2.0;
    format      ascii;
    arch        "LSB;label=32;scalar=64";
    class       volScalarField;
    location    "0.07";
    object      T;
}
// * * * * * * * * * * * * * * * * * * * * * * * * * * * * * * * * * * * * * //

dimensions      [0 0 0 1 0 0 0];

internalField   nonuniform List<scalar> 
3250
(
338.50157
338.32845
338.1388
337.93388
337.71435
337.48082
337.23391
336.97429
336.70265
336.41963
336.12589
335.82207
335.50878
335.18661
334.85614
334.51792
334.17247
333.82027
333.46176
333.09727
332.72699
332.35058
331.96592
331.5641
331.10924
330.45635
329.01621
324.38959
322.16213
319.22044
317.14752
315.05662
313.34288
312.06592
311.01545
310.14061
309.37897
308.71359
308.12464
307.60113
307.13236
306.71109
306.33068
305.98656
341.39857
341.15152
340.88934
340.6131
340.32344
340.02096
339.70629
339.38009
339.04301
338.69571
338.33882
337.97297
337.59877
337.21679
336.8276
336.43175
336.02973
335.62202
335.20904
334.79113
334.36855
333.94129
333.50865
333.06781
332.60916
332.10298
331.46932
330.56503
329.66261
328.5744
327.47916
326.29208
325.12832
324.05206
323.03214
322.06273
321.13153
320.23913
319.38384
318.56659
317.78667
317.04323
316.33554
315.66386
346.44385
346.0796
345.70166
345.31094
344.90811
344.4938
344.06866
343.63338
343.18862
342.73505
342.27333
341.8041
341.32797
340.84555
340.35743
339.86416
339.36625
338.8642
338.35846
337.84942
337.3374
336.82263
336.30511
335.78429
335.25826
334.72212
334.16611
333.57682
332.96258
332.30739
331.62251
330.90074
330.16088
329.41767
328.6698
327.91805
327.16229
326.40516
325.64909
324.8971
324.1517
323.41516
322.68964
321.97792
352.81115
352.31803
351.81164
351.29283
350.76234
350.22089
349.66924
349.10812
348.53828
347.96046
347.37537
346.78373
346.18623
345.58353
344.97629
344.36513
343.75063
343.13336
342.51383
341.89251
341.26986
340.64624
340.022
339.39731
338.77214
338.14597
337.51777
336.88603
336.25019
335.60828
334.96019
334.3046
333.64299
332.97673
332.30514
331.62788
330.94481
330.25658
329.5642
328.86897
328.17229
327.47556
326.78016
326.08791
359.7942
359.18217
358.55592
357.91635
357.26432
356.60068
355.92631
355.24206
354.54879
353.84734
353.13857
352.42328
351.70229
350.97638
350.24631
349.51281
348.77659
348.03832
347.29863
346.55812
345.81735
345.07686
344.33713
343.59865
342.86184
342.12706
341.39461
340.66471
339.93759
339.21328
338.4918
337.77284
337.05615
336.3413
335.62759
334.91441
334.20133
333.48822
332.77515
332.06243
331.35049
330.63979
329.93082
329.22424
366.9002
366.18804
365.45971
364.71619
363.95845
363.18748
362.40427
361.60982
360.80509
359.99108
359.16874
358.33904
357.50291
356.66127
355.81502
354.96504
354.11216
353.25719
352.4009
351.54403
350.6873
349.83136
348.97688
348.12449
347.2748
346.42841
345.58591
344.74788
343.91485
343.08727
342.26546
341.44956
340.63949
339.83501
339.0358
338.24147
337.45174
336.6664
335.88537
335.10866
334.33635
333.56859
332.80549
332.04718
373.84489
373.05109
372.23872
371.40883
370.56247
369.70075
368.82474
367.93554
367.03425
366.12195
365.19973
364.26868
363.32985
362.3843
361.43306
360.47713
359.5175
358.55511
357.59088
356.62568
355.66038
354.69579
353.73269
352.77186
351.81405
350.85999
349.91038
348.96591
348.02724
347.09494
346.16949
345.25122
344.34033
343.43688
342.54083
341.65211
340.77061
339.89628
339.02909
338.16904
337.31619
336.47062
335.63236
334.80145
380.49727
379.63596
378.75369
377.85152
376.93059
375.99204
375.03702
374.0667
373.08225
372.08485
371.07567
370.0559
369.0267
367.98923
366.94464
365.89405
364.83857
363.77926
362.71717
361.65332
360.58868
359.52421
358.46082
357.39941
356.34085
355.28596
354.23557
353.19044
352.15129
351.1188
350.09354
349.076
348.06654
347.06544
346.07288
345.08898
344.11384
343.14754
342.19014
341.24174
340.30243
339.37232
338.45147
337.53993
386.8171
385.89767
384.95508
383.99044
383.00489
381.99962
380.97581
379.93467
378.87741
377.80528
376.71951
375.62135
374.51205
373.39286
372.265
371.12969
369.98814
368.84152
367.69099
366.53767
365.38265
364.22701
363.07177
361.91793
360.76647
359.61832
358.47439
357.33552
356.20253
355.07616
353.95709
352.84591
351.74312
350.64915
349.56435
348.48899
347.4233
346.36749
345.32174
344.28622
343.26107
342.24646
341.24252
340.24931
394.67237
393.75349
392.80767
391.83582
390.83894
389.81815
388.77459
387.70943
386.62387
385.51914
384.39648
383.25717
382.10248
380.93372
379.75218
378.55917
377.356
376.14395
374.9243
373.69831
372.46723
371.23228
369.99463
368.75546
367.5159
366.27703
365.03993
363.80562
362.57508
361.34925
360.12903
358.91523
357.70863
356.50991
355.31969
354.13851
352.96683
351.80506
350.65355
349.51261
348.38251
347.2635
346.15579
345.0596
343.97509
342.9024
400.44411
399.47975
398.48681
397.46622
396.41901
395.34626
394.2491
393.1287
391.98626
390.823
389.6402
388.43914
387.22113
385.9875
384.7396
383.47877
382.20637
380.92375
379.63225
378.3332
377.02791
375.71768
374.40378
373.08745
371.7699
370.45231
369.13583
367.82155
366.51056
365.20385
363.9024
362.60711
361.31883
360.03833
358.76632
357.50344
356.25026
355.00728
353.77496
352.55369
351.34384
350.14571
348.95959
347.78573
346.62435
345.47564
405.91925
404.9116
403.87401
402.80737
401.71271
400.59108
399.4436
398.2714
397.0757
395.85771
394.61871
393.36001
392.08293
390.78883
389.47909
388.15508
386.81821
385.46988
384.11147
382.74438
381.36998
379.98964
378.60468
377.21642
375.82615
374.43511
373.04453
371.65559
370.26942
368.8871
367.50968
366.13812
364.77336
363.41625
362.06757
360.72805
359.39835
358.07905
356.77069
355.47376
354.18867
352.91582
351.65555
350.40814
349.17387
347.95297
411.11464
410.06573
408.98568
407.87535
406.73572
405.56783
404.37278
403.15169
401.90574
400.63618
399.34427
398.03132
396.69868
395.34773
393.97987
392.59651
391.19909
389.78905
388.36783
386.93686
385.49759
384.05142
382.59976
381.14397
379.68542
378.22542
376.76526
375.30618
373.84938
372.39601
370.94719
369.50395
368.06729
366.63813
365.21734
363.8057
362.40396
361.01279
359.63278
358.26449
356.90843
355.56502
354.23466
352.9177
351.61445
350.32517
416.04318
414.95508
413.83475
412.68301
411.5008
410.28915
409.04912
407.78182
406.48843
405.17017
403.82831
402.46418
401.07913
399.67455
398.25187
396.81254
395.35802
393.88979
392.40933
390.91814
389.41769
387.90945
386.39488
384.87542
383.35248
381.82743
380.30163
378.77639
377.25296
375.73257
374.21639
372.70552
371.20103
369.70389
368.21505
366.73537
365.26565
363.80661
362.35895
360.92327
359.50012
358.09002
356.69339
355.31063
353.94207
352.58805
420.71516
419.59002
418.43163
417.24079
416.01841
414.76547
413.48302
412.17215
410.83402
409.46984
408.08088
406.66847
405.23398
403.77881
402.30441
400.81225
399.30383
397.78066
396.24427
394.69618
393.13794
391.57106
389.99705
388.4174
386.83359
385.24705
383.65919
382.07138
380.48495
378.90118
377.3213
375.74648
374.17783
372.61642
371.06323
369.51919
367.98517
366.46195
364.95029
363.45085
361.96423
360.491
359.03163
357.58657
356.15619
354.74084
425.13959
423.97957
422.78537
421.55775
420.29759
419.00585
417.68352
416.33168
414.95147
413.5441
412.11083
410.65298
409.17193
407.6691
406.14595
404.60398
403.04471
401.4697
399.88051
398.2787
396.66586
395.04356
393.41335
391.77679
390.1354
388.49069
386.8441
385.19709
383.55102
381.90725
380.26706
378.63169
377.0023
375.38002
373.7659
372.16092
370.56602
368.98203
367.40976
365.84993
364.3032
362.77017
361.25138
359.7473
358.25833
356.78487
429.32498
428.13222
426.90442
425.64232
424.34676
423.01864
421.65894
420.26869
418.84903
417.40113
415.92626
414.42574
412.90094
411.3533
409.78429
408.19544
406.58829
404.96443
403.32545
401.67296
400.00859
398.33396
396.65067
394.96032
393.2645
391.56477
389.86263
388.15958
386.45707
384.7565
383.0592
381.36648
379.67957
377.99964
376.32781
374.66511
373.01252
371.37096
369.74127
368.12422
366.52054
364.93085
363.35575
361.79573
360.25125
358.72273
433.27978
432.05632
430.7971
429.50277
428.17411
426.81199
425.41734
423.99118
422.5346
421.04877
419.53494
417.99443
416.42861
414.83893
413.22686
411.59396
409.9418
408.27197
406.58613
404.8859
403.17297
401.44898
399.71561
397.97449
396.22726
394.47554
392.72089
390.96487
389.20897
387.45465
385.70331
383.95631
382.21494
380.48043
378.75393
377.03656
375.32935
373.63325
371.94917
370.27792
368.62028
366.97692
365.34846
363.73545
362.13837
360.55767
438.2275
437.01243
435.76039
434.47184
433.14743
431.78789
430.39404
428.96677
427.50708
426.01602
424.49475
422.9445
421.36658
419.76237
418.1333
416.48089
414.80667
413.11225
411.39926
409.66937
407.92425
406.16561
404.39516
402.61459
400.8256
399.02989
397.2291
395.42488
393.61881
391.81246
390.00735
388.20492
386.40658
384.6137
382.82754
381.04932
379.28021
377.52129
375.77356
374.03798
372.31542
370.60668
368.91249
367.2335
365.57031
363.92341
362.2933
441.77294
440.53184
439.2531
437.9372
436.58474
435.19642
433.77299
432.31533
430.82437
429.30116
427.74682
426.16257
424.54971
422.90961
421.24372
419.55353
417.84063
416.10661
414.35314
412.5819
410.79462
408.99303
407.17887
405.3539
403.51985
401.67846
399.83143
397.98046
396.12719
394.27323
392.42015
390.56947
388.72264
386.88107
385.04609
383.21898
381.40095
379.59312
377.79656
376.01227
374.24115
372.48407
370.74178
369.01498
367.30429
365.61026
363.93338
445.11242
443.84692
442.54323
441.20183
439.82324
438.40811
436.95715
435.47117
433.9511
432.39793
430.81277
429.19682
427.55136
425.87776
424.17746
422.45197
420.70287
418.93178
417.14039
415.33041
413.50358
411.66167
409.80647
407.93977
406.06335
404.17898
402.28843
400.39343
398.49568
396.59684
394.69854
392.80233
390.90974
389.02222
387.14115
385.26787
383.40362
381.54959
379.70689
377.87655
376.05955
374.25677
372.46901
370.69701
368.94142
367.20281
365.48172
448.25489
446.9665
445.63956
444.27439
442.87148
441.4314
439.95482
438.4425
436.89532
435.31427
433.7004
432.05491
430.37907
428.67422
426.94181
425.18335
423.40043
421.59468
419.76781
417.92155
416.05766
414.17796
412.28426
410.37839
408.46216
406.53741
404.60594
402.66952
400.72991
398.78882
396.84792
394.90883
392.9731
391.04225
389.11772
387.20087
385.29302
383.39538
381.50913
379.63534
377.77501
375.92907
374.09838
372.28369
370.48569
368.70497
366.9421
452.47949
451.20901
449.89941
448.55082
447.16353
445.73799
444.27469
442.77428
441.23746
439.66508
438.05808
436.4175
434.74451
433.04036
431.30639
429.54404
427.75482
425.94032
424.10219
422.24215
420.36195
418.46338
416.54828
414.6185
412.67589
410.72233
408.75966
406.78975
404.81442
402.83546
400.85463
398.87365
396.89419
394.91786
392.9462
390.98072
389.02283
387.07388
385.13514
383.20782
381.29304
379.39184
377.50521
375.634
373.77904
371.94102
370.12058
368.31829
455.27368
453.9838
452.6544
451.28563
449.87777
448.43117
446.9463
445.42373
443.86414
442.26833
440.6372
438.97178
437.2732
435.5427
433.78161
431.99135
430.17345
428.32949
426.46114
424.57011
422.65819
420.72719
418.77896
416.81539
414.83837
412.84981
410.8516
408.84562
406.83376
404.81784
402.79968
400.78103
398.76361
396.74909
394.73905
392.73503
390.7385
388.75085
386.77341
384.80741
382.85402
380.91433
378.98934
377.07996
375.18704
373.31131
371.45342
369.61398
457.89605
456.58794
455.24005
453.85249
452.42548
450.95931
449.45438
447.91123
446.33048
444.71289
443.05934
441.37083
439.64845
437.89344
436.1071
434.29087
432.44624
430.57482
428.67827
426.75832
424.81677
422.85546
420.87626
418.88109
416.87186
414.85051
412.81899
410.77921
408.73308
406.68249
404.62929
402.57528
400.52221
398.4718
396.42568
394.38544
392.35258
390.32854
388.31469
386.31229
384.32257
382.34665
380.38556
378.44025
376.5116
374.60036
372.70722
370.83279
460.35503
459.0298
457.66469
456.25966
454.81484
453.33048
451.80693
450.24465
448.64425
447.00645
445.33207
443.6221
441.87761
440.0998
438.28999
436.44957
434.58006
432.68305
430.76021
428.81329
426.84409
424.85447
422.84634
420.82162
418.78226
416.73025
414.66754
412.5961
410.51787
408.43478
406.34872
404.26153
402.17501
400.09092
398.01093
395.93666
393.86968
391.81145
389.76337
387.72678
385.7029
383.69291
381.69787
379.71878
377.75652
375.8119
373.88561
371.97829
463.95972
462.65854
461.31756
459.93645
458.51517
457.05382
455.55256
454.01171
452.43169
450.81305
449.15647
447.46276
445.73286
443.96783
442.16884
440.33719
438.47428
436.58161
434.66078
432.71345
430.74138
428.7464
426.73037
424.69522
422.6429
420.5754
418.49471
416.40283
414.30175
412.19347
410.07995
407.9631
405.84482
403.72695
401.61127
399.4995
397.39332
395.29431
393.20399
391.12379
389.05508
386.99913
384.95714
382.93021
380.91938
378.92555
376.94957
374.99214
373.05392
466.13052
464.81488
463.4592
462.06322
460.62684
459.15012
457.63317
456.07626
454.47977
452.84421
451.17021
449.45856
447.71017
445.92606
444.1074
442.25547
440.37165
438.45744
436.51444
434.54431
432.54883
430.52981
428.48916
426.42881
424.35073
422.25694
420.14945
418.03031
415.90153
413.76514
411.62313
409.47747
407.33008
405.18283
403.03756
400.89602
398.75992
396.63089
394.51047
392.40014
390.3013
388.21526
386.14324
384.0864
382.04577
380.02232
378.0169
376.03026
374.06308
468.16106
466.83181
465.46244
464.05261
462.6022
461.1112
459.57969
458.00788
456.39612
454.74486
453.05471
451.32642
449.56087
447.75906
445.92214
444.05137
442.14813
440.2139
438.25028
436.25894
434.24166
432.20026
430.13666
428.05281
425.95071
423.83239
421.69989
419.55529
417.40063
415.23797
413.06933
410.89672
408.72209
406.54736
404.37439
402.20498
400.04086
397.8837
395.73509
393.59653
391.46946
389.35521
387.25505
385.17014
383.10158
381.05035
379.01733
377.00332
375.00903
470.05879
468.71682
467.33467
465.91195
464.44849
462.94424
461.39922
459.81359
458.18766
456.52185
454.81673
453.07302
451.29156
449.47334
447.61948
445.73123
443.80995
441.85713
439.87435
437.86329
435.82572
433.7635
431.67853
429.5728
427.4483
425.30711
423.15129
420.98292
418.8041
416.61691
414.4234
412.22561
410.02553
407.8251
405.62623
403.43074
401.24041
399.05693
396.88193
394.71694
392.56343
390.42278
388.29625
386.18507
384.09033
382.01307
379.95418
377.91451
375.89488
471.8309
470.47704
469.08298
467.64827
466.17269
464.65613
463.09858
461.50015
459.86109
458.1818
456.46282
454.70481
452.90861
451.07518
449.20562
447.30115
445.36314
443.39305
441.39248
439.36309
437.30667
435.22508
433.12023
430.99412
428.84878
426.68628
424.50872
422.3182
420.11685
417.90676
415.69004
413.46874
411.24488
409.02045
406.79738
404.57753
402.36269
400.15461
397.95494
395.76524
393.587
391.42163
389.27045
387.13467
385.01544
382.91379
380.83067
378.7669
376.72318
374.70038
473.48426
472.11932
470.71417
469.26831
467.78148
466.2535
464.68433
463.07403
461.42282
459.73105
457.99923
456.22799
454.41814
452.57062
450.6865
448.767
446.81347
444.82737
442.81028
440.76388
438.68996
436.59036
434.46703
432.32197
430.15723
427.97489
425.77708
423.56593
421.34357
419.11215
416.87378
414.63055
412.38452
410.13769
407.89202
405.64942
403.41171
401.18065
398.95793
396.74514
394.5438
392.35534
390.1811
388.02233
385.88019
383.75574
381.64993
379.5636
377.49744
375.45207
475.02548
473.65022
472.23475
470.77852
469.28123
467.74267
466.16274
464.54145
462.87899
461.17568
459.43197
457.64849
455.826
453.96544
452.06785
450.13443
448.16652
446.16558
444.13317
442.07099
439.9808
437.86449
435.72399
433.56132
431.37853
429.17775
426.9611
424.73074
422.48883
420.23754
417.979
415.71534
413.44863
411.18091
408.91418
406.65036
404.3913
402.1388
399.89457
397.66023
395.43733
393.22731
391.03155
388.85131
386.68778
384.54202
382.41501
380.3076
378.22047
376.15427
476.46086
475.07598
473.65091
472.18505
470.67807
469.1297
467.53979
465.90835
464.23548
462.52149
460.76679
458.97199
457.13783
455.26519
453.35513
451.40883
449.42761
447.41291
445.36632
443.2895
441.18424
439.05241
436.89598
434.71695
432.51741
430.29948
428.06531
425.81709
423.557
421.28721
419.0099
416.72721
414.44125
412.15408
409.86772
407.58413
405.30518
403.0327
400.76841
398.51398
396.27096
394.04084
391.82501
389.62475
387.44126
385.27562
383.12884
381.00176
378.8951
376.80954
477.79641
476.40257
474.96857
473.49378
471.9778
470.42035
468.82123
467.18038
465.4979
463.77404
462.0092
460.20394
458.35898
456.47519
454.5536
452.59538
450.60184
448.57442
446.51468
444.4243
442.30507
440.15887
437.98765
435.79344
433.57835
431.3445
429.09407
426.82925
424.55226
422.26528
419.97051
417.67013
415.36625
413.06098
410.75636
408.45436
406.15689
403.8658
401.58284
399.30969
397.04794
394.7991
392.56456
390.34565
388.14356
385.95941
383.7942
381.64882
379.52398
377.42039
479.03785
477.63568
476.19337
474.71028
473.18598
471.62012
470.01248
468.36295
466.6716
464.93863
463.16442
461.3495
459.49457
457.60049
455.66825
453.69902
451.69409
449.65489
447.58299
445.48007
443.3479
441.18838
439.00346
436.79519
434.56568
432.31706
430.05154
427.77132
425.47862
423.17568
420.8647
418.54787
416.22735
413.90526
411.58365
409.26453
406.94984
404.64144
402.34111
400.05055
397.77138
395.50511
393.25317
391.01689
388.7975
386.59612
384.41378
382.25135
380.10961
377.98925
480.19062
478.78068
477.33066
475.83988
474.30788
472.73426
471.11875
469.46122
467.76167
466.0203
464.23745
462.41363
460.5495
458.64591
456.70384
454.72444
452.70899
450.65892
448.57579
446.46126
444.31713
442.14528
439.94768
437.72639
435.48351
433.22121
430.9417
428.6472
426.33994
424.02219
421.69616
419.36407
417.0281
414.69038
412.353
410.01799
407.68729
405.36281
403.04634
400.7396
398.44423
396.16176
393.89365
391.64123
389.40576
387.18837
384.9901
382.81185
380.6544
378.51845
481.25991
479.84272
478.38553
476.88763
475.34851
473.76774
472.14498
470.48006
468.77297
467.02387
465.23305
463.40102
461.52842
459.61607
457.66493
455.67615
453.651
451.59089
449.49737
447.37213
445.21694
443.03369
440.82437
438.59103
436.33579
434.06082
431.76835
429.46062
427.13988
424.8084
422.46842
420.12218
417.77188
415.41967
413.06766
410.7179
408.37236
406.03295
403.70149
401.37974
399.06933
396.77183
394.4887
392.22131
389.97091
387.73866
385.52561
383.33268
381.16064
379.01021
482.2506
480.82665
479.36279
477.85832
476.31265
474.72528
473.09585
471.42414
469.71011
467.95388
466.15574
464.31615
462.43575
460.51532
458.55584
456.55841
454.52431
452.45494
450.35186
448.21672
446.05132
443.85755
441.6374
439.39292
437.12625
434.83957
432.53512
430.21515
427.88193
425.53774
423.18485
420.82551
418.46194
416.0963
413.73074
411.3673
409.008
406.65476
404.30942
401.97374
399.6494
397.33796
395.04091
392.75963
390.4954
388.24937
386.02262
383.81608
381.63052
379.46668
483.16731
481.73704
480.26703
478.75651
477.20481
475.61138
473.97581
472.29786
470.57745
468.81468
467.0098
465.16327
463.27569
461.34784
459.38067
457.37529
455.33295
453.25505
451.14314
448.99889
446.82408
444.62061
442.39046
440.1357
437.85848
435.56099
433.24546
430.91418
428.56943
426.21349
423.84867
421.47721
419.10135
416.7233
414.34519
411.96911
409.59707
407.23102
404.87282
402.52426
400.18701
397.86266
395.55273
393.25859
390.98155
388.72278
386.48335
384.26421
382.06614
379.88988
484.01438
482.57823
481.10256
479.5865
478.02928
476.4303
474.7891
473.10543
471.37916
469.61038
467.79932
465.9464
464.05223
462.11756
460.14333
458.13063
456.08071
453.99497
451.87495
449.7223
447.53882
445.32641
443.08705
440.82282
438.53587
436.2284
433.90266
431.56094
429.20554
426.83876
424.46291
422.08026
419.69306
417.30353
414.91383
412.52605
410.14224
407.76436
405.39428
403.03379
400.68461
398.34834
396.02649
393.72047
391.43158
389.16103
386.90989
384.67911
382.46948
380.28173
484.79579
483.35427
481.8735
480.3524
478.79013
477.18607
475.53973
473.8508
472.11917
470.34488
468.52815
466.66938
464.76916
462.82824
460.84752
458.82811
456.77123
454.67828
452.55079
450.39043
448.19898
445.97834
443.7305
441.45755
439.16164
436.84499
434.50984
432.1585
429.79329
427.41651
425.03049
422.63751
420.23985
417.83973
415.43934
413.04077
410.6461
408.25728
405.87623
403.50475
401.14455
398.79726
396.46441
394.14742
391.84761
389.56618
387.30423
385.06272
382.84243
380.6441
489.62398
488.29219
486.92312
485.51509
484.06909
482.58376
481.05808
479.49123
477.88252
476.23147
474.53775
472.80121
471.02188
469.19996
467.33583
465.43007
463.48341
461.49676
459.47118
457.40792
455.30836
453.17403
451.00658
448.80781
446.57961
444.32399
442.04302
439.73887
437.41376
435.06996
432.70978
430.33553
427.94955
425.55416
423.15168
420.74438
418.33451
415.92426
413.51575
411.11106
408.71218
406.32101
403.93939
401.56904
399.2116
396.86861
394.54151
392.23163
389.94019
387.66829
385.4169
383.1868
380.97871
491.59879
490.29769
488.96141
487.58805
486.17648
484.72649
483.23707
481.70725
480.13622
478.52328
476.86794
475.16984
473.42881
471.64487
469.8182
467.94918
466.03836
464.08645
462.09436
460.06315
457.99404
455.88843
453.74782
451.57388
449.3684
447.13327
444.8705
442.58217
440.27046
437.9376
435.58585
433.21753
430.83498
428.44054
426.03655
423.62533
421.20917
418.79033
416.37101
413.95336
411.53946
409.13131
406.73084
404.33988
401.96019
399.59341
397.24109
394.90469
392.58555
390.2849
388.00385
385.74338
383.50427
381.28723
492.22138
490.91629
489.57594
488.19876
486.78371
485.33009
483.83696
482.30339
480.72856
479.11178
477.45252
475.75043
474.00531
472.21717
470.38618
468.51269
466.59724
464.64054
462.64348
460.60712
458.53267
456.42152
454.27517
452.09529
449.88366
447.64219
445.37288
443.07781
440.75917
438.41919
436.06016
433.68439
431.29423
428.89203
426.48014
424.0609
421.6366
419.20953
416.78189
414.35584
411.93348
409.51682
407.1078
404.70827
402.32
399.94463
397.58375
395.23881
392.91116
390.60206
388.31263
386.04384
383.79648
381.57124
492.79226
491.48329
490.13922
488.75856
487.34021
485.88326
484.38677
482.8498
481.27152
479.65125
477.98844
476.28271
474.53388
472.74191
470.90698
469.02941
467.10975
465.14868
463.1471
461.10604
459.02672
456.91051
454.75892
452.57362
450.35638
448.10911
445.83382
443.53259
441.20762
438.86113
436.49543
434.11283
431.7157
429.3064
426.88728
424.46069
422.02895
419.59433
417.15906
414.72532
412.2952
409.87074
407.45389
405.0465
402.65036
400.26713
397.89839
395.54562
393.21018
390.89334
388.59623
386.31984
384.06495
381.83223
493.31452
492.00193
490.65446
489.27059
487.84918
486.3892
484.88965
483.3496
481.7682
480.14476
478.47872
476.7697
475.01749
473.22205
471.38353
469.50227
467.57877
465.61374
463.60804
461.5627
459.47895
457.35813
455.20177
453.01153
450.78917
448.53662
446.25587
443.94902
441.61826
439.26584
436.89405
434.50522
432.10173
429.68593
427.2602
424.8269
422.38835
419.94683
417.50459
415.06381
412.6266
410.19501
407.77099
405.35641
402.95307
400.56264
398.18672
395.82679
393.48423
391.16031
388.85619
386.57287
384.31113
382.07161
493.79118
492.47526
491.12468
489.73788
488.31365
486.8509
485.34858
483.80573
482.22151
480.5952
478.92624
477.21424
475.45896
473.66038
471.81862
469.934
468.00703
466.03839
464.02895
461.97974
459.89195
457.76696
455.60626
453.41152
451.18452
448.92715
446.64144
444.32947
441.99345
439.63562
437.25828
434.86378
432.45448
430.03277
427.60102
425.1616
422.71683
420.26902
417.82042
415.37322
412.92954
410.49144
408.06088
405.63975
403.22983
400.83283
398.45035
396.08389
393.73483
391.40446
389.09396
386.80434
384.53639
382.29073
494.22507
492.90614
491.55272
490.16324
488.73645
487.27118
485.76635
484.22098
482.6342
481.0053
479.33371
477.61901
475.86097
474.05954
472.21485
470.3272
468.39708
466.42519
464.41236
462.35964
460.2682
458.13942
455.97479
453.77598
451.54475
449.28303
446.99281
444.6762
442.3354
439.97265
437.59028
435.19062
432.77605
430.34896
427.91173
425.46674
423.01632
420.56279
418.10841
415.65536
413.2058
410.76177
408.32525
405.89815
403.48225
401.07927
398.69082
396.31841
393.96343
391.6272
389.3109
387.01557
384.74201
382.49085
494.61892
493.29725
491.94127
490.54936
489.12024
487.65269
486.14559
484.59794
483.00887
481.37764
479.70367
477.98655
476.22602
474.42203
472.57469
470.68431
468.75136
466.77653
464.76065
462.70475
460.61002
458.47782
456.30964
454.10714
451.8721
449.60643
447.31213
444.99132
442.64619
440.279
437.89206
435.48773
433.06838
430.63642
428.19422
425.74418
423.28864
420.82992
418.37028
415.91194
413.45703
411.00762
408.5657
406.13318
403.71185
401.30344
398.90957
396.53175
394.17141
391.82986
389.5083
387.20781
384.92922
382.67316
494.97528
493.65116
492.29286
490.89876
489.46754
487.99793
486.48879
484.9391
483.34796
481.71464
480.03854
478.31924
476.55648
474.75019
472.90048
471.00764
469.07215
467.09467
465.07605
463.0173
460.91961
458.78432
456.61294
454.40713
452.16865
449.89942
447.60145
445.27685
442.92781
440.5566
438.16554
435.75699
433.33333
430.89696
428.45028
425.99567
423.5355
421.07209
418.6077
416.14456
413.68482
411.23055
408.78374
406.34631
403.92007
401.50675
399.10797
396.72526
394.36006
392.01369
389.68738
387.38223
385.09914
382.83879
495.29657
493.97025
492.60988
491.21381
489.7807
488.30925
486.79828
485.24676
483.65378
482.01859
480.34059
478.61934
476.85458
475.04624
473.1944
471.29937
469.3616
467.38176
465.36068
463.29937
461.19902
459.06097
456.88673
454.67793
452.43637
450.16395
447.86267
445.53466
443.18212
440.8073
438.41253
436.00018
433.57264
431.1323
428.68158
426.22287
423.75853
421.29089
418.82222
416.35476
413.89066
411.43201
408.98079
406.53894
404.10827
401.69051
399.28731
396.90019
394.5306
392.17988
389.84928
387.53995
385.25284
382.98877
495.58507
494.25679
492.89458
491.49676
490.06197
488.58887
487.07628
485.52312
483.9285
482.29165
480.61195
478.88897
477.12244
475.31226
473.45854
471.56155
469.62176
467.63981
465.61654
463.55295
461.45023
459.30971
457.13291
454.92145
452.67713
450.40185
448.09762
445.76656
443.41087
441.03282
438.63474
436.21898
433.78796
431.34407
428.88973
426.42733
423.95925
421.48781
419.01531
416.54398
414.07597
411.61337
409.1582
406.71238
404.27773
401.85599
399.44881
397.05773
394.6842
392.32957
389.99511
387.682
385.3913
383.12402
495.84293
494.51293
493.14908
491.74971
490.31343
488.83888
487.32484
485.77024
484.17416
482.53583
480.85464
479.13013
477.36202
475.55023
473.69484
471.79612
469.85453
467.87071
465.8455
463.77989
461.67506
459.53236
457.35327
455.13945
452.89268
450.61485
448.308
445.97422
443.61574
441.23481
438.83376
436.41498
433.98085
431.53379
429.07622
426.61053
424.13911
421.66429
419.18836
416.71356
414.24206
411.77595
409.31724
406.86787
404.42966
402.00436
399.59363
397.199
394.82194
392.4638
390.12587
387.80938
385.51543
383.24527
496.07218
494.74066
493.37538
491.97465
490.53706
489.06123
487.54592
485.99005
484.39269
482.75307
481.07055
479.3447
477.57521
475.762
473.90514
472.00489
470.06172
468.07626
466.04934
463.98195
461.87526
459.73062
457.54953
455.33362
453.08468
450.8046
448.49542
446.15924
443.79828
441.4148
439.01113
436.58966
434.15278
431.70291
429.24247
426.77386
424.29948
421.82165
419.34268
416.8648
414.3902
411.92096
409.45911
407.00658
404.56521
402.13675
399.72285
397.32506
394.94485
392.58359
390.24256
387.92301
385.62609
383.3529
381.1054
496.27472
494.94188
493.57536
492.17345
490.73472
489.25778
487.74137
486.18438
484.5859
482.94514
481.26148
479.53445
477.76376
475.94931
474.09117
472.1896
470.24504
468.25815
466.22972
464.16077
462.05246
459.90613
457.72327
455.50553
453.25468
450.97264
448.66141
446.32312
443.95997
441.57425
439.16827
436.74443
434.30513
431.85278
429.38982
426.91864
424.44164
421.96115
419.4795
416.99891
414.52156
412.04957
409.58494
407.12962
404.68546
402.2542
399.83749
397.43691
395.05392
392.68988
390.3461
388.0238
385.72418
383.44827
381.19691
496.45236
495.11838
493.75078
492.34787
490.90817
489.43027
487.91289
486.35495
484.7555
483.11376
481.4291
479.70106
477.92933
476.11381
474.25456
472.35184
470.40609
468.41795
466.38823
464.31793
462.2082
460.0604
457.87601
455.65667
453.40417
451.1204
448.80739
446.46726
444.10222
441.71453
439.30654
436.88063
434.43921
431.9847
429.51952
427.04609
424.5668
422.084
419.59999
417.11702
414.63727
412.16286
409.6958
407.23804
404.79142
402.3577
399.93854
397.5355
395.15006
392.78357
390.43735
388.11262
385.81054
383.53209
381.27799
496.60678
495.27183
493.90332
492.49956
491.05905
489.58034
488.06214
486.50336
484.90308
483.26051
481.575
479.8461
478.07348
476.25705
474.39685
472.49315
470.54638
468.55717
466.52634
464.45487
462.34394
460.19487
458.00917
455.78846
453.53452
451.24927
448.93473
446.59301
444.22632
441.83694
439.42721
436.99951
434.55625
432.09986
429.63277
427.15739
424.67611
422.1913
419.70525
417.22021
414.73838
412.26187
409.79269
407.3328
404.88405
402.4482
400.0269
397.62172
395.23414
392.86552
390.51715
388.19026
385.88598
383.60525
381.34862
379.117
496.73959
495.40381
494.03455
492.63008
491.18891
489.70953
488.19063
486.63115
485.03016
483.38688
481.70067
479.97104
478.19768
476.38048
474.51948
472.61496
470.66733
468.67722
466.64545
464.573
462.46104
460.3109
458.12407
455.9022
453.64705
451.36054
449.04468
446.70161
444.33351
441.94269
439.53147
437.10224
434.65741
432.19941
429.73068
427.25363
424.77065
422.28411
419.7963
417.3095
414.82588
412.34756
409.87657
407.41485
404.96426
402.52657
400.10343
397.69641
395.30697
392.9365
390.58628
388.2575
385.95129
383.66854
381.40981
379.17516
496.85228
495.51582
494.14593
492.74091
491.2992
489.81928
488.2998
486.73973
485.13816
483.4943
481.8075
480.07727
478.3033
476.48547
474.62382
472.71861
470.77027
468.77942
466.74686
464.6736
462.56079
460.40975
458.22199
455.99914
453.74298
451.45541
449.13845
446.79424
444.42496
442.03292
439.62045
437.18993
434.74378
432.28443
429.81431