/*--------------------------------*- C++ -*----------------------------------*\
| =========                 |                                                 |
| \\      /  F ield         | OpenFOAM: The Open Source CFD Toolbox           |
|  \\    /   O peration     | Version:  2312                                  |
|   \\  /    A nd           | Website:  www.openfoam.com                      |
|    \\/     M anipulation  |                                                 |
\*---------------------------------------------------------------------------*/
FoamFile
{
    version     2.0;
    format      ascii;
    arch        "LSB;label=32;scalar=64";
    class       volScalarField;
    location    "0.03";
    object      f_Bilger;
}
// * * * * * * * * * * * * * * * * * * * * * * * * * * * * * * * * * * * * * //

dimensions      [0 0 0 0 0 0 0];

internalField   nonuniform List<scalar> 
3251
(
0.032682158
0.03105229
0.02946649
0.027926799
0.026434786
0.024991585
0.023598036
0.022254747
0.020962118
0.019720353
0.018529463
0.017389278
0.016299451
0.015259468
0.014268661
0.013326217
0.012431196
0.011582536
0.010779077
0.010019566
0.0093026762
0.0086270164
0.0079911461
0.0073935864
0.0068328314
0.0063073581
0.0058156366
0.0053561382
0.0049273432
0.004527748
0.004155871
0.0038102578
0.0034894859
0.0031921687
0.0029169588
0.0026625503
0.0024276815
0.0022111365
0.0020117465
0.0018283907
0.0016599969
0.0015055419
0.0013640511
0.0012345985
0.0011163067
0.0010083457
0.00090993263
0.00082033099
0.0007388501
0.00066484378
0.00059771017
0.00053690536
0.00048195227
0.00043232132
0.0003875019
0.00034706803
0.00031063104
0.00027783216
0.032684387
0.031054382
0.029468604
0.027928873
0.026436789
0.024993503
0.023599866
0.022256487
0.020963768
0.019721914
0.018530938
0.017390669
0.016300761
0.0152607
0.014269819
0.013327305
0.012432216
0.011583493
0.010779973
0.010020406
0.0093034619
0.0086277513
0.0079918332
0.0073942284
0.0068334309
0.0063079176
0.0058161585
0.0053566246
0.0049277963
0.0045281698
0.0041562633
0.0038106223
0.0034898245
0.0031924829
0.0029172501
0.0026628202
0.0024279315
0.0022113678
0.0020119603
0.0018285883
0.0016601795
0.0015057105
0.0013642069
0.0012347428
0.0011164407
0.0010084708
0.00091005054
0.00082044353
0.0007389592
0.00066495159
0.00059781938
0.00053701563
0.0004820409
0.00043237871
0.00038753791
0.00034708869
0.00031064105
0.00027783844
0.032683636
0.031053541
0.029467862
0.027928215
0.026436195
0.024992962
0.023599369
0.02225603
0.020963347
0.019721525
0.018530578
0.017390336
0.016300453
0.015260416
0.014269556
0.013327063
0.012431993
0.011583289
0.010779787
0.010020236
0.0093033084
0.0086276129
0.0079917091
0.0073941178
0.0068333328
0.0063078313
0.0058160831
0.0053565594
0.0049277405
0.0045281226
0.004156224
0.0038105903
0.003489799
0.0031924634
0.0029172359
0.0026628108
0.0024279263
0.0022113664
0.0020119624
0.0018285933
0.0016601872
0.0015057206
0.0013642193
0.0012347573
0.0011164575
0.0010084902
0.0009100729
0.00082046959
0.00073898974
0.00066498747
0.00059786147
0.00053706036
0.00048207236
0.00043238963
0.00038753288
0.00034707209
0.00031061651
0.00027780684
0.032679705
0.031049672
0.029464197
0.027924764
0.026432948
0.024989908
0.023596498
0.022253331
0.020960812
0.019719146
0.018528346
0.017388244
0.016298494
0.015258583
0.014267843
0.013325464
0.012430503
0.011581901
0.010778497
0.010019038
0.009302197
0.0086265838
0.0079907576
0.0073932393
0.0068325231
0.0063070861
0.0058153984
0.0053559313
0.0049271653
0.0045275967
0.0041557441
0.0038101532
0.0034894016
0.0031921028
0.0029169094
0.0026625158
0.0024276603
0.0022111272
0.0020117477
0.0018284012
0.0016600158
0.0015055683
0.0013640844
0.0012346386
0.0011163539
0.0010084007
0.00090999693
0.00082040662
0.00073893936
0.00066494923
0.0005978345
0.00053703971
0.00048204618
0.00043235174
0.00038748481
0.00034701671
0.00031055619
0.00027773103
0.032672596
0.031042785
0.029457635
0.027918546
0.026427071
0.024984361
0.023591268
0.022248405
0.020956175
0.019714785
0.018524248
0.017384397
0.016294886
0.015255203
0.01426468
0.013322507
0.012427741
0.011579325
0.010776097
0.010016805
0.0093001218
0.0086246577
0.0079889721
0.0073915864
0.0068309949
0.0063056752
0.0058140975
0.0053547336
0.0049260641
0.0045265858
0.0041548175
0.0038093051
0.0034886266
0.0031913957
0.0029162654
0.0026619301
0.0024271287
0.0022106454
0.002011312
0.0018280079
0.0016596615
0.0015052499
0.001363799
0.0012343836
0.0011161269
0.0010081997
0.00090982003
0.0008202522
0.00073880583
0.0006648349
0.000597737
0.00053695346
0.00048196166
0.00043226323
0.00038739189
0.00034692127
0.00031046137
0.032662963
0.031033497
0.029448773
0.027910133
0.026419105
0.024976831
0.023584159
0.0222417
0.020949857
0.019708836
0.018518654
0.01737914
0.016289951
0.015250575
0.014260345
0.01331845
0.01242395
0.011575785
0.010772795
0.01001373
0.0092972608
0.0086219991
0.0079865047
0.0073892993
0.0068288776
0.0063037175
0.0058122899
0.0053530668
0.0049245292
0.0045251744
0.0041535213
0.0038081165
0.0034875383
0.0031904008
0.0029153571
0.0026611023
0.0024263754
0.002209961
0.0020106912
0.0018274459
0.0016591536
0.0015047917
0.0013633866
0.0012340133
0.0011157953
0.0010079037
0.00090955684
0.00082001922
0.00073860052
0.00066465452
0.00059757817
0.00053681052
0.00048182685
0.0004321312
0.00038726098
0.0003467928
0.00031034609
0.032651368
0.03102233
0.02943811
0.027900002
0.026409506
0.024967752
0.023575581
0.022233602
0.020942222
0.019701644
0.018511885
0.017372776
0.016283974
0.015244967
0.014255088
0.013313529
0.012419347
0.011571485
0.010768783
0.01000999
0.0092937795
0.0086187621
0.0079834984
0.0073865107
0.0068262941
0.0063013272
0.0058100812
0.0053510284
0.0049226506
0.0045234454
0.0041519322
0.003806658
0.0034862016
0.0031891774
0.0029142391
0.0026600822
0.002425446
0.0022091156
0.0020099234
0.0018267497
0.0016585234
0.0015042223
0.0013628731
0.0012335512
0.0011153803
0.001007532
0.00090922489
0.00081972366
0.00073833804
0.00066442168
0.00059737089
0.00053662312
0.00048165241
0.00043196453
0.00038709964
0.00034663718
0.00031020188
0.032636938
0.031008439
0.029424844
0.027887392
0.026397551
0.024956438
0.023564887
0.022223503
0.020932692
0.019692662
0.018503427
0.01736482
0.016276497
0.015237948
0.014248507
0.013307364
0.012413578
0.011566094
0.01076375
0.010005296
0.0092894076
0.0086146948
0.007979719
0.0073830031
0.0068230429
0.0062983173
0.0058072982
0.0053484587
0.0049202809
0.004521263
0.004149925
0.0038048146
0.0034845108
0.003187629
0.0029128231
0.0026587891
0.0024242669
0.0022080421
0.0020089476
0.001825864
0.0016577209
0.0015034964
0.0013622176
0.0012329603
0.0011148488
0.0010070549
0.00090879764
0.00081934184
0.00073799741
0.00066411785
0.00059709889
0.00053637676
0.00048142472
0.00043174993
0.0003868948
0.00034644071
0.00031001015
0.03261947
0.030991632
0.029408797
0.027872137
0.026383085
0.02494274
0.023551932
0.022211266
0.020921139
0.019681769
0.018493165
0.017355163
0.016267419
0.015229423
0.014240509
0.013299869
0.012406562
0.011559534
0.010757623
0.0099995807
0.0092840817
0.0086097379
0.0079751111
0.0073787249
0.0068190756
0.006294643
0.0058038995
0.0053453189
0.0049173842
0.004518594
0.0041474693
0.003802558
0.0034824402
0.0031857316
0.002911087
0.0026572028
0.0024228197
0.0022067237
0.0020077484
0.0018247749
0.0016567333
0.0015026023
0.0013614095
0.0012322312
0.0011141921
0.0010064646
0.00090826791
0.00081886732
0.00073757284
0.00066373788
0.00059675769
0.00053606754
0.0004811402
0.00043148403
0.00038664348
0.00034620095
0.032598727
0.030971695
0.029389774
0.027854054
0.026365933
0.024926495
0.023536563
0.02219674
0.020907427
0.019668831
0.018480974
0.017343686
0.016256625
0.015219283
0.014230993
0.013290949
0.01239821
0.011551722
0.010750325
0.00999277
0.0092777335
0.0086038278
0.0079696155
0.0073736208
0.0068143409
0.0062902565
0.0057998408
0.0053415682
0.0049139226
0.0045154036
0.0041445326
0.0037998586
0.0034799623
0.0031834602
0.0029090078
0.0026553023
0.002421085
0.0022051428
0.0020063096
0.0018234676
0.0016555472
0.0015015279
0.0013604378
0.0012313538
0.0011134012
0.0010057528
0.00090762829
0.00081829339
0.00073705831
0.00066327645
0.00059634264
0.00053569139
0.00048079515
0.00043116349
0.00038634312
0.00034591994
0.032574439
0.030948395
0.029367558
0.02783294
0.026345905
0.024907522
0.023518608
0.022179766
0.020891396
0.019653703
0.018466715
0.017330259
0.016243995
0.015207415
0.014219853
0.013280503
0.012388427
0.011542569
0.010741772
0.0099847866
0.0092702904
0.0085968967
0.0079631688
0.007367632
0.0068087843
0.0062851073
0.0057950751
0.0053371632
0.0049098562
0.0045116546
0.0041410809
0.003796685
0.0034770483
0.0031807883
0.0029065612
0.0026530653
0.0024190425
0.0022032806
0.0020046144
0.0018219266
0.0016541486
0.0015002604
0.0013592909
0.0012303176
0.0011124665
0.0010049108
0.000906871
0.00081761307
0.00073644759
0.00066272803
0.00059584893
0.00053524414
0.00048038583
0.00043078505
0.0003859911
0.032546307
0.03092148
0.029341919
0.027808579
0.026322795
0.024885626
0.023497883
0.022160168
0.020872882
0.01963623
0.018450242
0.017314744
0.016229398
0.015193695
0.014206972
0.013268424
0.012377111
0.011531981
0.010731875
0.0099755473
0.0092616749
0.0085888723
0.0079557039
0.007360696
0.0068023477
0.0062791415
0.0057895527
0.0053320577
0.0049051423
0.0045073079
0.0041370782
0.0037930038
0.0034736676
0.0031776877
0.0029037216
0.0026504683
0.0024166708
0.0022011178
0.0020026449
0.0018201358
0.0016525226
0.0014987864
0.0013579566
0.0012291116
0.001111378
0.0010039298
0.00090598794
0.00081681904
0.00073573411
0.00066208685
0.00059527157
0.00053472148
0.00047990843
0.00043034554
0.00038558858
0.032514039
0.030890685
0.02931261
0.027780737
0.026296383
0.024860598
0.02347419
0.022137761
0.020851711
0.019616251
0.018431397
0.017296992
0.016212693
0.015177992
0.014192228
0.013254594
0.012364154
0.011519855
0.01072054
0.0099649636
0.0092518045
0.0085796779
0.0079471496
0.0073527468
0.0067949698
0.0062723024
0.005783221
0.0053262033
0.0048997361
0.0045023221
0.0041324862
0.0037887803
0.0034697881
0.0031741292
0.002900462
0.0026474867
0.0024139473
0.0021986336
0.0020003823
0.001818078
0.0016506539
0.0014970918
0.0013564222
0.0012277243
0.0011101254
0.0010028003
0.00090497061
0.00081590368
0.00073491107
0.00066134689
0.0005946054
0.00053411907
0.0004793592
0.00042984142
0.032477354
0.030855737
0.029279368
0.027749166
0.026266434
0.024832215
0.023447318
0.022112343
0.020827692
0.019593577
0.018410012
0.017276845
0.016193732
0.015160167
0.014175488
0.013238891
0.01234944
0.011506084
0.010707666
0.009952942
0.009240592
0.0085692325
0.0079374303
0.0073437142
0.0067865857
0.0062645299
0.0057760245
0.0053195485
0.0048935903
0.0044966537
0.004127265
0.0037839775
0.0034653761
0.0031700816
0.002896754
0.0026440944
0.0024108483
0.0021958065
0.001997807
0.0018157354
0.0016485261
0.0014951619
0.0013546744
0.0012261435
0.0011086976
0.0010015124
0.00090381014
0.00081485897
0.00073397129
0.00066050185
0.00059384506
0.0005334326
0.00047873454
0.00042927346
0.032435973
0.030816348
0.029241918
0.027713603
0.026232697
0.024800242
0.023417044
0.022083704
0.020800626
0.019568021
0.018385908
0.017254135
0.016172357
0.015140071
0.014156615
0.013221186
0.012332849
0.011490554
0.010693147
0.0099393836
0.0092279454
0.0085574503
0.0079264667
0.0073335246
0.0067771271
0.0062557607
0.0057679046
0.0053120395
0.0048866551
0.0044902569
0.0041213724
0.0037785566
0.0034603959
0.0031655125
0.0028925677
0.0026402643
0.002407349
0.0021926139
0.0019948983
0.0018130893
0.0016461223
0.0014929813
0.0013526991
0.0012243568
0.0011070835
0.0010000559
0.00090249726
0.00081367657
0.00073290726
0.00065954511
0.0005929851
0.00053265797
0.00047803053
0.032389592
0.030772215
0.029199969
0.027673771
0.026194911
0.024764428
0.02338313
0.02205162
0.020770301
0.019539387
0.018358898
0.017228686
0.016148404
0.015117548
0.014135462
0.013201341
0.012314252
0.011473147
0.010676871
0.0099241843
0.0092137677
0.0085442414
0.007914175
0.0073221003
0.0067665221
0.0062459283
0.0057588001
0.0053036196
0.0048788783
0.0044830834
0.0041147642
0.0037724771
0.0034548103
0.0031603878
0.0028878721
0.0026359679
0.0024034233
0.002189032
0.0019916347
0.0018101199
0.0016434245
0.0014905339
0.0013504818
0.0012223508
0.001105271
0.00099842007
0.0009010223
0.00081234772
0.00073171105
0.00065846968
0.00059201984
0.00053179173
0.00047724844
0.032337874
0.03072302
0.029153215
0.027629379
0.026152797
0.024724511
0.023345329
0.022015855
0.020736496
0.019507466
0.018328782
0.017200312
0.016121696
0.015092435
0.014111875
0.013179212
0.012293515
0.011453735
0.010658722
0.0099072349
0.0091979574
0.0085295112
0.0079004676
0.0073093601
0.0067546953
0.0062349632
0.0057486465
0.0052942295
0.0048702053
0.0044750831
0.0041073941
0.0037656966
0.0034485805
0.0031546717
0.0028826346
0.0026311754
0.002399044
0.002185036
0.0019879936
0.0018068069
0.0016404144
0.0014878027
0.0013480073
0.0012201118
0.0011032477
0.00099659379
0.00089937525
0.00081086331
0.00073037431
0.00065726803
0.00059094333
0.00053083071
0.032280468
0.030668424
0.029101334
0.027580119
0.026106065
0.024680214
0.023303378
0.021976163
0.020698977
0.019472039
0.018295379
0.01716882
0.01609205
0.01506456
0.014085693
0.013154648
0.012270495
0.011432188
0.010638576
0.0098884208
0.009180408
0.0085131608
0.0078852526
0.0072952189
0.0067415682
0.0062227925
0.0057373767
0.0052838071
0.0048605789
0.0044662034
0.0040992139
0.0037581707
0.0034416658
0.0031483271
0.002876821
0.0026258557
0.002394183
0.0021806003
0.0019839517
0.001803129
0.0016370724
0.0014847704
0.0013452598
0.0012176257
0.001101001
0.00099456554
0.00089754569
0.00080921383
0.00072888816
0.00065593196
0.000589749
0.00052977972
0.032217003
0.030608076
0.029043989
0.027525673
0.026054412
0.02463125
0.023257005
0.021932284
0.0206575
0.019432871
0.018258428
0.017134002
0.016059274
0.015033741
0.014056747
0.013127492
0.012245047
0.011408367
0.010616305
0.0098676225
0.0091610082
0.0084950869
0.0078684343
0.0072795879
0.0067270585
0.0062093403
0.0057249206
0.0052722878
0.0048499396
0.0044563896
0.0040901733
0.0037498533
0.003434024
0.0031413154
0.0028703961
0.0026199766
0.0023888107
0.002175698
0.0019794844
0.001799064
0.0016333787
0.0014814187
0.0013422228
0.0012148776
0.0010985174
0.00099232342
0.00089552296
0.00080738947
0.00072724316
0.00065445217
0.00058842709
0.00052860856
0.032147086
0.030541603
0.02898083
0.027465706
0.025997517
0.024577317
0.023205923
0.021883949
0.020611808
0.019389722
0.018217721
0.017095644
0.016023168
0.014999792
0.014024861
0.013097578
0.012217015
0.011382129
0.010591774
0.0098447155
0.0091396422
0.0084751821
0.007849913
0.0072623748
0.0067110808
0.0061945278
0.0057112053
0.0052596046
0.0048382257
0.0044455849
0.0040802202
0.0037406967
0.0034256113
0.0031335964
0.0028633233
0.0026135047
0.0023828967
0.0021703013
0.0019745667
0.001794589
0.0016293123
0.0014777289
0.0013388794
0.0012118523
0.0010957834
0.00098985525
0.00089329615
0.00080538022
0.00072542933
0.00065281832
0.00058696706
0.00052730056
0.032070294
0.030468619
0.028911489
0.027399868
0.025935052
0.024518099
0.023149834
0.021830874
0.020561636
0.019342341
0.018173022
0.017053523
0.015983521
0.014962515
0.013989852
0.013064735
0.01218624
0.011353325
0.010564846
0.0098195702
0.0091161897
0.0084533346
0.0078295851
0.0072434838
0.0066935466
0.006178273
0.0056961555
0.0052456879
0.0048253732
0.0044337305
0.0040693005
0.0037306512
0.0034163823
0.0031251288
0.0028555647
0.0026064053
0.0023764095
0.0021643816
0.0019691724
0.0017896804
0.0016248519
0.0014736816
0.0013352121
0.001208534
0.0010927848
0.00098714856
0.00089085432
0.00080317614
0.0007234363
0.0006510192
0.00058536272
0.031986174
0.030388721
0.028835588
0.0273278
0.02586667
0.024453268
0.023088427
0.021772766
0.020506705
0.019290467
0.018124086
0.017007408
0.015940117
0.014921708
0.013951528
0.013028785
0.012152555
0.011321799
0.010535375
0.0097920522
0.009090526
0.0084294287
0.0078073434
0.0072228155
0.006674364
0.0061604913
0.0056796929
0.0052304658
0.004811316
0.0044207656
0.0040573586
0.0037196659
0.0034062902
0.0031158697
0.0028470812
0.0025986429
0.0023693166
0.0021579093
0.0019632747
0.0017843137
0.0016199753
0.0014692567
0.0013312029
0.0012049065
0.0010895073
0.0009841907
0.00088818667
0.00080076801
0.00072125368
0.00064904155
0.00058361994
0.031894234
0.030301497
0.028752736
0.027249125
0.025792013
0.024382486
0.02302138
0.02170932
0.020446727
0.019233828
0.018070656
0.016957055
0.015892731
0.01487716
0.013909694
0.012989544
0.012115789
0.011287391
0.010503212
0.0097620228
0.0090625221
0.0084033448
0.0077830772
0.0072002677
0.0066534385
0.0061410954
0.0056617372
0.0052138641
0.0047959859
0.0044066277
0.004044337
0.003707688
0.003395287
0.0031057751
0.0028378326
0.0025901808
0.0023615846
0.0021508541
0.0019568459
0.0017784639
0.0016146599
0.0014644338
0.0013268331
0.0012009532
0.0010859359
0.00098096884
0.00088528285
0.00079814854
0.00071887198
0.031793977
0.03020654
0.028662535
0.027163457
0.025710712
0.024305398
0.022948358
0.021640219
0.020381405
0.019172144
0.018012469
0.016902211
0.015841132
0.014828652
0.013864144
0.01294682
0.012075762
0.011249935
0.010468202
0.0097293387
0.0090320451
0.0083749598
0.0077566723
0.0071757348
0.0066306727
0.0061199954
0.0056422055
0.0051958068
0.0047793128
0.0043912524
0.0040301767
0.0036946637
0.0033833231
0.0030947999
0.0028277777
0.0025809815
0.0023531794
0.0021431849
0.0019498579
0.0017721054
0.0016088825
0.0014591918
0.0013220839
0.0011966569
0.0010820556
0.00097746987
0.00088213304
0.00079531494
0.031685076
0.030103474
0.028564579
0.027070396
0.025622382
0.02422164
0.022869015
0.021565136
0.02031043
0.019105126
0.017949261
0.016842695
0.015785086
0.014775962
0.013814669
0.012900418
0.012032293
0.011209261
0.010430188
0.0096938526
0.0089989582
0.0083441469
0.0077280118
0.0071491085
0.0066059665
0.0060970992
0.0056210129
0.0051762158
0.0047612251
0.004374574
0.0040148175
0.0036805377
0.0033703483
0.003082898
0.0028168746
0.0025710065
0.0023440659
0.0021348699
0.0019422817
0.001765212
0.0016026192
0.0014535092
0.0013169358
0.0011920003
0.0010778505
0.00097368001
0.00087872696
0.00079227405
0.033185529
0.031568223
0.029991951
0.02845844
0.026969525
0.025526626
0.024130834
0.022782994
0.021483735
0.020233484
0.019032473
0.017880741
0.016778159
0.015724339
0.014718856
0.013761051
0.012850135
0.011985192
0.011165193
0.010389006
0.0096554134
0.0089631216
0.0083107766
0.0076969755
0.007120278
0.0065792178
0.0060723125
0.0055980729
0.0051550114
0.0047416497
0.0043565254
0.0039981979
0.0036652538
0.0033563109
0.0030700225
0.0028050802
0.002560217
0.0023342088
0.0021258767
0.0019340881
0.0017577572
0.001595846
0.0014473642
0.0013113691
0.0011869653
0.0010733045
0.00096958412
0.00087504854
0.00078898553
0.033054286
0.031441988
0.029871391
0.028343649
0.02686041
0.025423032
0.024032592
0.022689928
0.021395668
0.020150241
0.018953876
0.017806615
0.016708316
0.01565863
0.014657096
0.01370307
0.012795765
0.011934269
0.011117553
0.010344491
0.009613867
0.0089243922
0.0082747166
0.0076634412
0.0070891305
0.0065503225
0.0060455395
0.0055732971
0.0051321124
0.004720512
0.0043370383
0.0039802554
0.0036487547
0.0033411588
0.0030561255
0.0027923513
0.0025485732
0.002323572
0.0021161728
0.0019252473
0.0017497138
0.0015885384
0.0014407346
0.0013053635
0.0011815337
0.0010684005
0.00096516589
0.00087107934
0.00078543065
0.032911566
0.031305544
0.029741217
0.028219717
0.026742599
0.025311178
0.023926514
0.022589439
0.021300581
0.020060365
0.018869022
0.017726592
0.016632929
0.015587704
0.014590441
0.0136405
0.012737098
0.011879326
0.011066159
0.010296473
0.0095690564
0.0088826248
0.0082358324
0.0076272848
0.0070555513
0.0065191749
0.006016683
0.0055465961
0.0051074368
0.0046977368
0.0043160436
0.0039609268
0.0036309828
0.0033248392
0.0030411591
0.0027786438
0.0025360354
0.0023121191
0.0021057251
0.0019157293
0.0017410548
0.0015806718
0.001433598
0.0012988988
0.0011756868
0.0010631215
0.00096040901
0.00086680316
0.00078159539
0.032757295
0.031158342
0.029600894
0.028086149
0.026615631
0.025190629
0.023812191
0.022481143
0.02119811
0.019963515
0.018777589
0.017640371
0.016551715
0.015511297
0.014518642
0.01357311
0.012673919
0.011820165
0.011010825
0.01024478
0.0095208228
0.0088376724
0.0081939881
0.0075883808
0.0070194247
0.0064856685
0.0059856447
0.0055178798
0.0050809018
0.0046732481
0.004293472
0.0039401485
0.0036118798
0.0033072991
0.0030250749
0.0027639137
0.0025225632
0.0022998137
0.0020945004
0.0019055042
0.0017317528
0.0015722213
0.001425932
0.0012919546
0.0011694061
0.0010574503
0.00095529754
0.00086220539
0.00077746746
0.032591162
0.03099989
0.029449902
0.027942447
0.026479036
0.025060944
0.023689207
0.022364649
0.021087887
0.019859347
0.018679254
0.017547649
0.016464384
0.015429143
0.014441451
0.013500668
0.012606013
0.011756585
0.010951366
0.010189241
0.0094690061
0.0087893867
0.0081490468
0.0075466028
0.0069806344
0.006449696
0.0059523263
0.0054870577
0.0050524244
0.0046469699
0.0042692537
0.0039178569
0.0035913877
0.0032884854
0.0030078243
0.002748117
0.0025081167
0.0022866194
0.0020824656
0.0018945417
0.0017217807
0.0015631624
0.0014177142
0.0012845106
0.0011626731
0.00105137
0.00094981593
0.00085727218
0.00077303503
0.032412724
0.030829674
0.029287715
0.027788105
0.026332337
0.024921672
0.023557141
0.022239558
0.020969541
0.019747509
0.018573689
0.017448118
0.01637065
0.015340969
0.014358618
0.013422941
0.012533163
0.011688385
0.010887595
0.010129681
0.0094134459
0.0087376196
0.0081008717
0.0075018245
0.0069390638
0.0064111504
0.0059166293
0.0054540395
0.0050219219
0.0046188264
0.0042433194
0.0038939885
0.0035694485
0.0032683453
0.0029893595
0.00273121
0.0024926562
0.0022725
0.002069588
0.0018828123
0.0017111113
0.0015534705
0.0014089224
0.0012765465
0.0011554693
0.0010448638
0.00094394907
0.00085199012
0.00076828659
0.032221428
0.030647137
0.029113794
0.02762261
0.02617505
0.024772362
0.023415566
0.022105473
0.020842696
0.019627652
0.018460566
0.017341473
0.016270224
0.015246499
0.014269891
0.013339697
0.012455152
0.011615363
0.010819324
0.010065927
0.009353982
0.0086822231
0.0080493263
0.0074539203
0.0068945975
0.0063699254
0.0058784562
0.0054187357
0.0049893121
0.0045887426
0.0042156005
0.0038684808
0.0035460052
0.0032468268
0.002969633
0.0027131495
0.0024761423
0.0022574199
0.0020558353
0.0018702866
0.0016997182
0.0015431216
0.0013995347
0.0012680425
0.0011477768
0.0010379155
0.00093768229
0.0008463462
0.0007632107
0.032016578
0.030451675
0.028927583
0.027445445
0.026006692
0.024612559
0.023264057
0.021961993
0.020706977
0.019499423
0.018339555
0.017227407
0.016162826
0.015145445
0.014175029
0.013250707
0.012371765
0.011537319
0.010746368
0.0099978087
0.009290456
0.0086230508
0.0079942757
0.0074027659
0.0068471211
0.0063259161
0.0058377105
0.0053810581
0.0049545143
0.0045566445
0.0041860295
0.0038412721
0.0035210017
0.0032238787
0.0029485983
0.0026938932
0.0024585367
0.0022413444
0.0020411758
0.0018569359
0.0016875755
0.0015320921
0.0013895298
0.0012589795
0.0011395783
0.0010305094
0.00093100136
0.00084032779
0.00075779637
0.031797398
0.030242665
0.028728523
0.02725609
0.025826777
0.024441807
0.023102186
0.021808718
0.020562008
0.019362472
0.01821033
0.01710562
0.016048206
0.015037826
0.01407382
0.013155746
0.01228279
0.011454056
0.010668544
0.0099251554
0.009222711
0.0085599584
0.0079355868
0.007348239
0.0067965222
0.0062790193
0.005794298
0.0053409201
0.0049174496
0.00452246
0.0041545406
0.0038123024
0.0034943832
0.0031994514
0.0029262101
0.0026734001
0.0024398022
0.0022242395
0.002025579
0.0018427325
0.0016746579
0.0015203593
0.0013788873
0.0012493387
0.0011308567
0.0010226301
0.00092389268
0.00083392278
0.00075203276
0.03156322
0.030019508
0.028516064
0.027054034
0.025634824
0.024259654
0.022929528
0.021645248
0.020407418
0.019216449
0.018072563
0.016975799
0.01592602
0.014922927
0.013965957
0.013054576
0.012188014
0.011365377
0.01058567
0.0098478
0.009150593
0.0084928037
0.0078731291
0.0072902196
0.006742691
0.0062291343
0.0057481263
0.0052982374
0.0048780408
0.0044861187
0.0041210696
0.0037815135
0.0034660967
0.0031734966
0.0029024248
0.0026516305
0.0024199028
0.0022060728
0.0020090152
0.0018276497
0.0016609414
0.0015079014
0.0013675872
0.0012391023
0.0011215961
0.0010142632
0.00091634321
0.00082711953
0.00074590966
0.031313515
0.029781655
0.028289674
0.026838767
0.025430351
0.024065647
0.022745659
0.021471186
0.020242831
0.019061005
0.017925927
0.016837636
0.015795992
0.014800681
0.013851201
0.012946967
0.012087224
0.011271088
0.010497567
0.0097655775
0.00907395
0.0084214473
0.0078067744
0.0072285903
0.0066855195
0.0061761626
0.0056991053
0.0052529279
0.0048362129
0.0044475525
0.0040855546
0.0037488487
0.0034360909
0.0031459677
0.0028772
0.0026285461
0.0023988038
0.0021868128
0.0019914563
0.001811662
0.0016464028
0.0014946975
0.0013556109
0.0012282533
0.001111781
0.0010053949
0.00090834064
0.00081990707
0.00073941719
0.0310478
0.029528578
0.028048826
0.026609785
0.025212879
0.023859333
0.022550151
0.02128613
0.020067873
0.018895788
0.017770094
0.016690827
0.015657844
0.014670832
0.013729312
0.01283269
0.011980209
0.011170994
0.010404058
0.0096783239
0.0089926314
0.0083457508
0.0077363959
0.0071632349
0.0066249019
0.0061200072
0.0056471467
0.005204911
0.0047918928
0.0044066947
0.0040479349
0.0037142534
0.0034043161
0.0031168198
0.0028504952
0.0026041101
0.0023764719
0.0021664295
0.001972875
0.0017947447
0.00163102
0.0014807277
0.0013429402
0.0012167756
0.001101397
0.00099601228
0.00089987326
0.00081227493
0.00073254617
0.030765553
0.029259736
0.027792985
0.026366567
0.024981912
0.023640243
0.022342563
0.021089669
0.019882159
0.018720439
0.017604728
0.016535059
0.015511288
0.014533101
0.013600035
0.012711511
0.011866757
0.011064899
0.010304961
0.0095858737
0.0089064852
0.0082655751
0.0076618664
0.0070940372
0.006560732
0.0060605715
0.0055921626
0.0051541067
0.0047450078
0.0043634794
0.004008151
0.0036776733
0.0033707234
0.0030860087
0.0028222703
0.0025782866
0.0023528749
0.0021448938
0.0019532452
0.0017768744
0.0016147718
0.0014659728
0.0013295582
0.0012046537
0.0010904302
0.00098610277
0.00089093
0.00080421325
0.00072528771
0.030466176
0.028974534
0.027521571
0.026108562
0.024736927
0.023407885
0.022122434
0.020881367
0.019685281
0.01853458
0.017429478
0.016370007
0.015356022
0.014387204
0.013463089
0.012583188
0.011746644
0.010952599
0.010200089
0.0094880542
0.0088153534
0.0081807756
0.0075830537
0.0070208768
0.0064929
0.0059977557
0.0055340623
0.0051004329
0.0046954835
0.0043178394
0.003966142
0.0036390538
0.0033352634
0.0030534898
0.0027924855
0.0025510395
0.0023279802
0.0021221766
0.0019325406
0.0017580275
0.0015976372
0.0014504141
0.0013154478
0.0011918725
0.0010788672
0.00097565435
0.00088150005
0.00079571239
0.00071763327
0.030148942
0.02867228
0.02723393
0.025835151
0.024477342
0.023161711
0.02188925
0.020660747
0.019476794
0.018337793
0.017243956
0.016195314
0.01519172
0.014232844
0.013318134
0.01244747
0.011619636
0.010833872
0.010089235
0.0093846765
0.0087190629
0.008091194
0.0074998137
0.0069436223
0.0064212868
0.0059314517
0.0054727478
0.0050438009
0.0046432397
0.0042697023
0.0039218427
0.003598336
0.0032978833
0.0030192158
0.002761098
0.0025223307
0.0023017537
0.0020982473
0.001910734
0.0017381797
0.0015795943
0.001434032
0.0013005917
0.0011784165
0.0010666939
0.00096465468
0.00087157243
0.0007867626
0.00070957426
0.029812927
0.028352135
0.026929287
0.025545609
0.024202478
0.022901085
0.021642414
0.020427249
0.019256176
0.018129594
0.017047713
0.016010565
0.015018012
0.014069764
0.013165454
0.012304152
0.011485467
0.01070846
0.0099721608
0.0092755194
0.0086174112
0.0079966456
0.007411978
0.0068621205
0.0063457531
0.0058615331
0.0054081048
0.0049841075
0.0045881834
0.0042189843
0.0038751777
0.0035554523
0.0032585224
0.0029831323
0.0027280592
0.0024921168
0.0022741567
0.0020730712
0.0018877945
0.0017173035
0.0015606187
0.0014168048
0.0012849705
0.0011642685
0.0010538953
0.00095309018
0.00086113512
0.00077735321
0.00070110099
0.029456961
0.028013053
0.026606679
0.025239042
0.023911495
0.022625219
0.021381189
0.020180182
0.01902278
0.017909378
0.016840185
0.015815233
0.014834386
0.013897356
0.013003714
0.012152684
0.011343746
0.010576026
0.0098485599
0.0091603045
0.0085101437
0.0078968978
0.0073193344
0.0067761786
0.0062661238
0.0057878414
0.0053399898
0.004921223
0.0045301976
0.00416558
0.0038260524
0.0035103177
0.0032171045
0.002945171
0.0026933083
0.0024603432
0.0022451406
0.0020466053
0.0018636837
0.0016953646
0.0015406801
0.0013987056
0.0012685605
0.0011494074
0.0010404525
0.00094094434
0.00085017345
0.00076747115
0.00069220229
0.029079612
0.027653716
0.026264874
0.024914287
0.023603301
0.022333085
0.021104608
0.01991864
0.018775757
0.017676351
0.016620629
0.01560862
0.014640186
0.01371503
0.012832693
0.011992535
0.011193977
0.010436121
0.0097180242
0.009038658
0.0083969183
0.0077916379
0.0072215976
0.0066855365
0.0061821624
0.0057101618
0.0052682083
0.0048549715
0.0044691235
0.0041093465
0.0037743381
0.0034628167
0.0031735261
0.0029052395
0.0026567625
0.0024269363
0.0022146396
0.0020187909
0.0018383496
0.0016723171
0.0015197375
0.0013796981
0.0012513294
0.0011338048
0.0010263405
0.00092819493
0.00083866778
0.00075709918
0.00068286239
0.028679083
0.027272393
0.025902219
0.024569779
0.023276413
0.022023284
0.020811352
0.01964138
0.018513941
0.01742942
0.01638802
0.01538977
0.014434527
0.013521985
0.012651671
0.011822896
0.011035483
0.010288125
0.0095799834
0.0089100555
0.0082772535
0.0076804247
0.0071183641
0.0065898258
0.0060935334
0.0056281892
0.0051924835
0.0047851022
0.0044047345
0.0040500792
0.0037198506
0.0034127837
0.0031276386
0.0028632045
0.0026183026
0.0023917895
0.0021825589
0.0019895435
0.0018117169
0.0016480939
0.0014977317
0.0013597299
0.0012332309
0.0011174197
0.0010115231
0.00091480993
0.00082658975
0.00074621198
0.00067305932
0.028252916
0.026866693
0.025516421
0.024203332
0.022928758
0.021693851
0.020499564
0.019346653
0.018235683
0.017167035
0.016140908
0.015157328
0.014216149
0.013317065
0.01245961
0.011643184
0.010867384
0.010131169
0.0094336208
0.0087737407