/*--------------------------------*- C++ -*----------------------------------*\
| =========                 |                                                 |
| \\      /  F ield         | OpenFOAM: The Open Source CFD Toolbox           |
|  \\    /   O peration     | Version:  2312                                  |
|   \\  /    A nd           | Website:  www.openfoam.com                      |
|    \\/     M anipulation  |                                                 |
\*---------------------------------------------------------------------------*/
FoamFile
{
    version     2.0;
    format      ascii;
    arch        "LSB;label=32;scalar=64";
    class       volScalarField;
    location    "0.03";
    object      Ma;
}
// * * * * * * * * * * * * * * * * * * * * * * * * * * * * * * * * * * * * * //

dimensions      [0 0 0 0 0 0 0];

internalField   nonuniform List<scalar> 
3251
(
0.002014862
0.0019508492
0.0018881415
0.0018267045
0.0017664958
0.0017074735
0.0016495918
0.0015928022
0.0015370548
0.0014822982
0.0014284791
0.0013755426
0.0013234327
0.0012720921
0.0012214629
0.0011714865
0.0011221043
0.0010732575
0.0010248875
0.00097693649
0.00092934727
0.00088206383
0.00083503146
0.00078819708
0.00074150945
0.00069491946
0.00064838031
0.00060184777
0.00055528036
0.00050863962
0.00046189021
0.00041500017
0.00036794102
0.00032068801
0.00027322017
0.00022552071
0.00017757731
0.00012938341
8.0943406e-05
3.2325179e-05
1.7204821e-05
6.6185973e-05
0.00011563284
0.00016533092
0.00021524578
0.00026535103
0.00031562204
0.00036603905
0.00041656247
0.00046716565
0.00051782616
0.00056849534
0.00061911047
0.00066961399
0.00071997268
0.00077015098
0.00082010882
0.00086979402
0.0020151903
0.0019511793
0.0018884728
0.001827037
0.0017668288
0.0017078061
0.0016499236
0.0015931325
0.0015373832
0.0014826242
0.0014288022
0.0013758624
0.0013237488
0.0012724042
0.0012217706
0.0011717896
0.0011224024
0.0010735502
0.0010251747
0.00097721782
0.00092962254
0.00088233281
0.00083529395
0.00078845289
0.00074175844
0.00069516148
0.00064861524
0.00060207551
0.00055550086
0.00050885283
0.00046209614
0.00041519882
0.00036813248
0.00032087236
0.00027339756
0.00022569134
0.00017774146
0.00012954153
8.1096343e-05
3.247627e-05
1.7085088e-05
6.6057568e-05
0.00011550775
0.0001652099
0.00021512888
0.00026523817
0.00031551255
0.00036593225
0.0004164566
0.00046705853
0.00051771389
0.00056837468
0.00061898389
0.00066948582
0.00071984547
0.00077002657
0.00081998831
0.00086967679
0.0020157858
0.0019517743
0.0018890672
0.0018276289
0.0017674174
0.0017083905
0.0016505029
0.0015937059
0.00153795
0.0014831837
0.0014293539
0.0013764059
0.0013242836
0.0012729298
0.0012222868
0.0011722961
0.001122899
0.0010740369
0.0010256512
0.00097768424
0.00093007887
0.00088277918
0.00083573058
0.00078888009
0.00074217661
0.00069557117
0.00064901716
0.00060247056
0.00055589019
0.00050923792
0.0004624789
0.00041558182
0.00036851921
0.00032126777
0.00027380908
0.00022613092
0.00017823049
0.00013012475
8.18973e-05
3.4145788e-05
1.9626077e-05
6.6634145e-05
0.00011577013
0.00016534781
0.00021520084
0.00026526964
0.00031551653
0.00036591308
0.00041641979
0.00046700518
0.00051764069
0.00056828085
0.00061887191
0.00066936093
0.00071971068
0.00076988339
0.00081983883
0.00086951914
0.0020166544
0.0019526385
0.0018899246
0.0018284787
0.0017682584
0.0017092213
0.0016513225
0.0015945134
0.0015387445
0.0014839646
0.0014301205
0.0013771577
0.0013250201
0.0012736508
0.001222992
0.0011729853
0.0011235721
0.001074694
0.0010262925
0.00097830992
0.00093068934
0.00088337494
0.00083631227
0.00078944855
0.00074273287
0.0006961165
0.00064955311
0.00060299906
0.00055641364
0.00050975936
0.00046300221
0.00041611213
0.00036906346
0.00032183583
0.00027441568
0.00022679979
0.0001790039
0.00013109077
8.3294677e-05
3.7113642e-05
2.4065833e-05
6.7956531e-05
0.00011647255
0.00016579789
0.00021551503
0.00026549877
0.00031568669
0.00036603753
0.00041650702
0.00046705987
0.00051766273
0.00056827051
0.00061883239
0.00066929738
0.00071962686
0.00076978238
0.00081972
0.00086937935
0.0020177816
0.0019537503
0.0018910207
0.0018295571
0.001769318
0.0017102611
0.0016523412
0.00159551
0.0015397183
0.0014849149
0.0014310468
0.0013780596
0.0013258973
0.001274503
0.0012238192
0.0011737876
0.0011243498
0.0010754473
0.0010270219
0.00097901604
0.00093137299
0.0008840371
0.00083695415
0.00079007157
0.00074333876
0.00069670731
0.00065013135
0.00060356775
0.0005569765
0.000510321
0.00046356857
0.00041669091
0.00036966512
0.0003224751
0.00027511456
0.00022759348
0.00017995495
0.00013232796
8.5157691e-05
4.1014239e-05
2.9620734e-05
7.0084677e-05
0.00011771473
0.00016666735
0.00021618148
0.00026603732
0.00031613614
0.00036641867
0.00041683345
0.00046733852
0.00051789612
0.00056846078
0.00061898334
0.00066941441
0.00071971392
0.00076984229
0.0008197547
0.0020191146
0.0019550565
0.0018922976
0.001830804
0.0017705336
0.0017114444
0.0016534917
0.0015966273
0.0015408018
0.0014859642
0.0014320614
0.0013790392
0.0013268419
0.0012754127
0.0012246941
0.0011746281
0.0011251564
0.0010762207
0.001027763
0.00097972578
0.00093205263
0.00088468809
0.00083757817
0.00079067061
0.00074391514
0.00069726377
0.00065067113
0.00060409472
0.00055749539
0.00051083764
0.00046409034
0.00041722739
0.00037022923
0.00032308496
0.0002757971
0.0002283917
0.00018094462
0.00013366328
8.7231813e-05
4.5232289e-05
3.5366095e-05
7.2784639e-05
0.00011940302
0.00016791215
0.000217182
0.00026688357
0.00031687535
0.00036707679
0.00041742648
0.00046787614
0.00051838285
0.00056890019
0.00061938003
0.00066977427
0.00072004207
0.00077014175
0.00082002408
0.002020771
0.0019566758
0.0018938798
0.001832347
0.0017720364
0.0017129059
0.0016549106
0.0015980028
0.0015421333
0.0014872514
0.0014333042
0.0013802374
0.0013279957
0.0012765224
0.0012257603
0.0011756514
0.0011261375
0.0010771606
0.0010286629
0.00098058715
0.00093287703
0.00088547736
0.00083833448
0.00079139641
0.00074461331
0.00069793765
0.00065132463
0.00060473253
0.00055812314
0.0005114623
0.00046472065
0.00041787475
0.00037090888
0.00032381833
0.00027661592
0.00022934646
0.00018212371
0.00013524395
8.9648185e-05
4.9805838e-05
4.1194814e-05
7.5889659e-05
0.00012139723
0.00016939855
0.00021838617
0.00026791006
0.00031777962
0.00036789076
0.00041817032
0.00046856217
0.0005190184
0.00056949089
0.00061993174
0.00067029343
0.00072053382
0.00077061058
0.0008204696
0.0020228747
0.0019587293
0.0018958802
0.0018342933
0.0017739272
0.0017147399
0.0016566869
0.0015997206
0.0015437922
0.001488851
0.0014348446
0.0013817188
0.0013294185
0.0012778872
0.0012270678
0.0011769027
0.0011273339
0.0010783034
0.0010297538
0.00098162804
0.00093387007
0.00088642502
0.00083923954
0.00079226206
0.0007454432
0.00069873598
0.00065209634
0.00060548341
0.0005588602
0.00051219408
0.00046545792
0.00041863139
0.00037170352
0.00032467699
0.00027757709
0.00023047102
0.00018351743
0.00013711511
9.2484841e-05
5.486959e-05
4.7394971e-05
7.9579593e-05
0.00012385456
0.00017126429
0.00021991898
0.00026923327
0.00031896012
0.00036896749
0.00041916819
0.00046949739
0.00051990123
0.00057032913
0.00062073325
0.0006710668
0.00072128592
0.00077134406
0.00082118286
0.0020254028
0.0019611875
0.0018982687
0.0018366097
0.0017761704
0.0017169087
0.0016587802
0.0016017379
0.0015457333
0.0014907158
0.0014366334
0.0013834321
0.001331057
0.0012794519
0.00122856
0.0011783237
0.0011286855
0.0010795876
0.0010309727
0.00098278409
0.0009349661
0.00088746415
0.0008402253
0.00079319841
0.00074633466
0.00069958772
0.00065291436
0.00060627476
0.0005596333
0.00051295922
0.00046622797
0.00041942293
0.00037253869
0.00032558668
0.00027860675
0.00023169224
0.00018505332
0.0001392037
9.5657078e-05
6.0293115e-05
5.3907157e-05
8.3871458e-05
0.00012684349
0.00017359125
0.00022186621
0.0002709402
0.00032050364
0.00037039355
0.00042050622
0.0004707667
0.00052111501
0.00057149767
0.00062186633
0.00067217405
0.00072237535
0.00077241904
0.0020283598
0.0019640593
0.0019010517
0.0018393032
0.001778773
0.0017194192
0.0016611979
0.0016040624
0.0015479645
0.0014928539
0.0014386789
0.0013853859
0.0013329201
0.0012812257
0.001230246
0.0011799239
0.0011302019
0.0010810227
0.0010323293
0.00098406523
0.00093617518
0.00088860499
0.00084130214
0.00079421607
0.00074729852
0.00070050399
0.00065379015
0.00060711847
0.00056045488
0.00051377085
0.00046704479
0.00042026447
0.00037343092
0.0003265658
0.00027972577
0.00023303427
0.00018675971
0.00014154189
9.9192314e-05
6.6077302e-05
6.0728618e-05
8.8744778e-05
0.00013037302
0.00017639472
0.00022424321
0.00027304475
0.00032242254
0.00037217938
0.00042219299
0.00047237747
0.00052266559
0.00057300044
0.00062333329
0.00067361644
0.00072380073
0.00077382953
0.0020317517
0.0019673484
0.001904238
0.0018423839
0.0017817468
0.0017222851
0.001663955
0.0016067105
0.0015505035
0.0014952844
0.0014410016
0.0013876018
0.0013350305
0.0012832322
0.0012321507
0.0011817289
0.00113191
0.0010826366
0.0010338523
0.00098550104
0.00093752775
0.00088987879
0.00084250215
0.00079534788
0.00074836846
0.00070151925
0.00065475906
0.00060805074
0.00056136213
0.00051466717
0.00046794778
0.00042119672
0.00037442253
0.0003276585
0.00028098059
0.00023454606
0.00018868806
0.00014418101
0.00010312798
7.2221581e-05
6.7835458e-05
9.4142606e-05
0.000134412
0.00017965164
0.00022702835
0.00027552453
0.00032469301
0.00037429971
0.00042420183
0.00047430101
0.00052452255
0.0005748056
0.0006251003
0.00067535832
0.0007255252
0.0020355773
0.0019710603
0.0019078316
0.0018458582
0.0017851004
0.0017255169
0.0016670642
0.0016096968
0.0015533671
0.0014980257
0.0014436215
0.0013901015
0.0013374116
0.0012854966
0.0012343006
0.001183767
0.0011338391
0.0010844602
0.0010355741
0.00098712502
0.00093905859
0.00089132157
0.0008438626
0.00079663237
0.00074958423
0.00070267453
0.00065586338
0.00060911523
0.00056240008
0.0005156947
0.00046898507
0.0004222696
0.00037556538
0.00032891889
0.00028242773
0.00023628674
0.00019089933
0.00014718002
0.00010750486
7.8731997e-05
7.521354e-05
0.00010000877
0.0001389205
0.0001833286
0.00023018885
0.00027834564
0.00032727947
0.000376717
0.00042649322
0.00047649639
0.00052664323
0.00057686871
0.00062712181
0.00067735082
0.00072749576
0.0020398263
0.0019751822
0.001911826
0.0018497219
0.0017888318
0.0017291147
0.0016705276
0.0016130255
0.0015565612
0.0015010857
0.0014465484
0.0013928966
0.0013400767
0.0012880338
0.0012367124
0.0011860563
0.0011360092
0.0010865148
0.0010375172
0.00098896148
0.00094079343
0.00089296057
0.00084541213
0.00079809966
0.0007509774
0.00070400291
0.00065713767
0.00061034808
0.00056360645
0.00051689294
0.00047019792
0.00042352637
0.00037690481
0.00033039463
0.00028411722
0.00023830857
0.00019344661
0.00015058757
0.00011235039
8.5608103e-05
8.2853652e-05
0.00010629661
0.00014386278
0.00018739576
0.00023369561
0.00028147778
0.00033014965
0.00037939714
0.00042903115
0.00047892548
0.00052898772
0.00057914779
0.00062935355
0.00067954925
0.0020444745
0.0019796969
0.0019162023
0.0018539584
0.0017929265
0.0017330663
0.0016743351
0.0016166884
0.0015600796
0.0015044601
0.0014497798
0.0013959866
0.0013430269
0.0012908466
0.0012393905
0.0011886029
0.0011384279
0.0010888096
0.0010396928
0.00099102282
0.0009427463
0.0008948113
0.00084716786
0.0007997684
0.00075256823
0.00070552621
0.00065860549
0.0006117745
0.00056500835
0.00051829079
0.00047161732
0.00042500008
0.00037847627
0.0003321235
0.00028608935
0.00024065377
0.00019637245
0.0001544403
0.00011768053
9.2848255e-05
9.0756092e-05
0.0001129757
0.00014921539
0.00019183447
0.00023753053
0.00028490141
0.00033328215
0.00038231628
0.00043178971
0.00048156051
0.00053152627
0.00058161175
0.00063176166
0.00068191439
0.0020494916
0.0019845714
0.0019209335
0.0018585424
0.0017973614
0.0017373503
0.001678467
0.0016206677
0.0015639062
0.0015081344
0.001453303
0.0013993601
0.0013462526
0.001293927
0.0012423285
0.0011914019
0.0011410917
0.0010913428
0.0010421003
0.00099331025
0.00094491988
0.00089687802
0.00084913558
0.00080164595
0.0007543657
0.00070725509
0.00066027916
0.00061340862
0.00056662168
0.00051990615
0.0004732632
0.00042671288
0.00038030415
0.00033413233
0.00028837318
0.00024335308
0.00019970686
0.00015876136
0.00012349873
0.0001004481
9.8924826e-05
0.00012002812
0.00015496552
0.0001966371
0.00024168685
0.00028860863
0.00033666701
0.00038546273
0.00043475504
0.00048438565
0.00053424117
0.00058424066
0.00063432503
0.0020548392
0.0019897744
0.0019259863
0.0018634429
0.0018021069
0.0017419388
0.0016828973
0.0016249389
0.0015680182
0.0015120877
0.0014570984
0.0014029992
0.0013497374
0.00129726
0.0012455129
0.0011944413
0.0011439904
0.0010941055
0.0010447324
0.00099581779
0.00094730969
0.00089915777
0.00085131384
0.00080373248
0.00075637152
0.00070919295
0.00066216375
0.00061525732
0.00056845518
0.00052174975
0.00047514831
0.00042867977
0.00038240571
0.00033644073
0.0002909904
0.00024642945
0.00020347157
0.00016356491
0.00012980232
0.00010840443
0.00010736834
0.00012744609
0.00016110957
0.00020180508
0.00024616723
0.00029260137
0.00034030457
0.00038883437
0.00043792331
0.00048739533
0.00053712576
0.00058702552
0.00063702965
0.0020604814
0.0019952668
0.0019313268
0.0018686271
0.001807132
0.0017468026
0.001687598
0.0016294756
0.0015723906
0.0015162961
0.0014611438
0.001406883
0.0013534617
0.0013008276
0.0012489271
0.0011977059
0.0011471099
0.0010970851
0.0010475778
0.00099853571
0.00094990745
0.00090164369
0.0008536973
0.0008060241
0.00075858342
0.00071133905
0.00066426025
0.00061732328
0.0005705134
0.000523828
0.00047728116
0.00043091129
0.00038479376
0.00033906356
0.00029395776
0.00024990033
0.00020768209
0.00016885834
0.00013658462
0.00011671464
0.00011609633
0.00013522746
0.00016764925
0.0002073454
0.00025098076
0.00029688821
0.00034420198
0.00039243721
0.00044129845
0.000490592
0.00054017989
0.00058996609
0.0020663808
0.0020010166
0.0019369218
0.0018740636
0.0018124067
0.0017519129
0.001692542
0.0016342521
0.0015769991
0.0015207369
0.0014654177
0.0014109914
0.0013574068
0.0013046124
0.0012525549
0.001201181
0.0011504369
0.0011002695
0.001050626
0.0010014547
0.00095270519
0.00090432921
0.00085628082
0.00080851716
0.00076099925
0.00071369285
0.00066656973
0.00061960928
0.00057280089
0.00052614735
0.00047967014
0.00043341793
0.00038748083
0.00034201541
0.00029729133
0.00025378215
0.00021235218
0.00017464739
0.00014383976
0.00012537992
0.00012512061
0.00014337475
0.00017458956
0.00021326843
0.00025613991
0.00030148198
0.00034837114
0.00039628092
0.00044488963
0.00049398234
0.00054340989
0.00059306457
0.0020725054
0.0020069915
0.0019427417
0.0018797242
0.0018179043
0.0017572444
0.0016977052
0.0016392456
0.0015818223
0.00152539
0.0014699012
0.0014153066
0.0013615563
0.0013085992
0.0012563827
0.0012048539
0.0011539602
0.0011036489
0.0010538682
0.0010045673
0.00095569689
0.00090720971
0.00085906114
0.00081120986
0.00076361866
0.00071625553
0.00066909494
0.00062211976
0.00057532381
0.00052871579
0.00048232513
0.00043621153
0.00039048066
0.00034531174
0.00030100769
0.00025809116
0.00021749473
0.0001809366
0.00015156287
0.00013440301
0.0001344529
0.00015189167
0.00018193621
0.00021958488
0.00026165835
0.0003063967
0.00035282528
0.00040037806
0.00044870579
0.00049757702
0.000546822
0.00059632546
0.0020788278
0.0020131637
0.001948761
0.0018855846
0.0018236017
0.0017627754
0.0017030673
0.0016444372
0.0015868425
0.0015302388
0.0014745791
0.0014198152
0.0013658979
0.0013127771
0.0012604005
0.0012087162
0.0011576723
0.0011072172
0.0010572997
0.0010078702
0.00095888048
0.00091028445
0.00086203893
0.00081410427
0.00076644522
0.00071903217
0.00067184256
0.00062486301
0.00057809218
0.00053154511
0.00048525978
0.00043930757
0.00039381055
0.0003489713
0.00030512639
0.00026284606
0.00022312451
0.00018773246
0.00015975294
0.00014379049
0.00014410645
0.00016078403
0.00018969557
0.00022630563
0.00026754964
0.00031164694
0.00035757805
0.00040474148
0.00045276219
0.00050138171
0.00055042371
0.00059975209
0.0020853192
0.0020195125
0.0019549568
0.0018916239
0.0018294794
0.0017684879
0.0017086116
0.0016498113
0.0015920455
0.0015352704
0.0014794401
0.0014245069
0.0013704227
0.0013171382
0.0012646019
0.0012127627
0.0011615696
0.0011109717
0.0010609193
0.0010113635
0.00096225739
0.00091355623
0.00086521839
0.000817206
0.000769486
0.00072203136
0.00067482275
0.00062785084
0.0005811195
0.00053465056
0.00048849109
0.00044272479
0.0003974908
0.00035301559
0.00030966916
0.00026806705
0.00022925702
0.00019504221
0.00016841088
0.00015355028
0.00015409396
0.00017005765
0.00019787319
0.0002334401
0.00027382629
0.00031724574
0.0003626444
0.00040938225
0.00045706312
0.00050541404
0.00055422229
0.0020919629
0.0020260116
0.0019613104
0.0018978238
0.0018355209
0.0017743665
0.0017143242
0.0016553556
0.0015974201
0.0015404752
0.0014844757
0.0014293746
0.001375125
0.0013216785
0.0012689842
0.0012169919
0.0011656517
0.0011149138
0.0010647295
0.001015051
0.00096583284
0.00091703169
0.00086860759
0.00082052464
0.0007727521
0.00072526576
0.00067804977
0.00063109916
0.00058442338
0.00053805149
0.00049204013
0.00044648592
0.00040154556
0.00035746965
0.00031466092
0.00027377697
0.00023590993
0.00020287552
0.00017754142
0.00016369334
0.00016442973
0.00017972012
0.00020647526
0.00024099766
0.0002805
0.0003232076
0.00036803388
0.00041431695
0.00046162873
0.00050966794
0.00055822682
0.0020987294
0.0020326478
0.0019678027
0.0019041682
0.001841711
0.0017803978
0.0017201931
0.0016610595
0.0016029574
0.0015458453
0.0014896792
0.0014344133
0.0013800018
0.0013263961
0.0012735466
0.0012214045
0.0011699208
0.0011190469
0.0010687351
0.0010189391
0.00096961468
0.00092072014
0.00087221733
0.00082407248
0.00077625736
0.0007287508
0.0006815407
0.00063462673
0.00058802426
0.00054177002
0.0004959307
0.00045061625
0.00040600131
0.00036236049
0.000320128
0.00027999938
0.00024310117
0.00021124253
0.00018715072
0.00017423132
0.00017512771
0.00018977918
0.0002155077
0.00024898645
0.00028758234
0.00032954265
0.00037376657
0.00041955043
0.00046645943
0.002105608
0.0020393957
0.0019744179
0.0019106412
0.001848036
0.0017865694
0.0017262074
0.0016669137
0.0016086496
0.0015513745
0.0014950456
0.0014396203
0.0013850521
0.001331291
0.0012782906
0.0012260033
0.0011743812
0.0011233767
0.0010729435
0.0010230366
0.00097361315
0.00092463335
0.00087606096
0.00082786447
0.00078001837
0.00073250475
0.00068531547
0.00063845518
0.00059194552
0.00054583125
0.00050018948
0.00045514387
0.00041088713
0.00036771743
0.00032609859
0.00028675928
0.00025084987
0.00022015518
0.00019724778
0.00018517826
0.00018620351
0.00020024472
0.00022497777
0.00025741582
0.00029508386
0.00033626764
0.0003798462
0.0004251101
0.0021125659
0.0020462426
0.0019811375
0.0019172276
0.0018544818
0.0017928692
0.0017323567
0.0016729094
0.0016144897
0.0015570577
0.001500572
0.0014449942
0.0013902749
0.0013363635
0.0012832181
0.001230792
0.0011790381
0.0011279102
0.0010773631
0.0010273534
0.00097783991
0.00092878461
0.00088015338
0.00083191718
0.00078405336
0.00073654751
0.00068939572
0.0006426079
0.00059621223
0.00055026187
0.00050484468
0.00046009822
0.00041623315
0.00037357042
0.00033260106
0.00029408128
0.00025917451
0.00022962531
0.00020784238
0.00019654843
0.00019767267
0.00021112714
0.00023489337
0.0002662945
0.00030301694
0.00034339049
0.00038629909
0.00043099315
0.0021872524
0.0021195972
0.0020531642
0.0019879456
0.0019239115
0.0018610347
0.0017992849
0.0017386307
0.0016790381
0.0016204709
0.001562891
0.0015062586
0.0014505323
0.0013956656
0.0013416136
0.0012883319
0.0012357752
0.001183898
0.0011326554
0.0010820037
0.001031901
0.00098230808
0.00093318872
0.00088451112
0.00083624883
0.00078838232
0.00074090085
0.00069380498
0.00064711013
0.00060085137
0.00055509048
0.00050992629
0.00046551035
0.00042207091
0.00037995046
0.00033966435
0.00030199026
0.00026809398
0.00023966598
0.00021894637
0.000208358
0.00020955239
0.0002224391
0.00024526425
0.00027563338
0.00031139239
0.00035092976
0.00039312425
0.00043722794
0.0021944083
0.002126665
0.0020601451
0.001994823
0.0019306773
0.0018676804
0.0018058044
0.0017450188
0.0016852911
0.0016265865
0.0015688681
0.001512097
0.0014562312
0.0014012278
0.0013470442
0.0012936359
0.0012409585
0.0011889681
0.0011376212
0.0010868759
0.0010366919
0.00098703177
0.00093786155
0.00088915178
0.00084087883
0.00079302641
0.00074558769
0.00069856794
0.00065198832
0.000605891
0.00056034663
0.00051546513
0.00047141188
0.00042843214
0.00038688835
0.00034731676
0.00031051011
0.00027762623
0.00025028994
0.00023057205
0.00022062325
0.0002218599
0.00023419395
0.00025610118
0.00028544313
0.00032022416
0.00035889285
0.00040034725
0.00044380951
0.002201561
0.0021337614
0.0020671619
0.0020017525
0.0019375083
0.001874405
0.0018124154
0.0017515108
0.00169166
0.0016328295
0.0015749838
0.0015180847
0.0014620912
0.001406963
0.0013526587
0.0012991349
0.0012463484
0.0011942566
0.0011428178
0.0010919916
0.0010417396
0.00099202644
0.00094282034
0.00089409444
0.00084582804
0.00079800832
0.00075063252
0.00070371084
0.00065727039
0.00061136065
0.00056606125
0.0005214932
0.0004778354
0.00043534924
0.00039441517
0.0003555865
0.00031966445
0.00028778926
0.00026151085
0.00024273332
0.00023336189
0.00023461389
0.00024640701
0.00026741679
0.00029573696
0.00032952453
0.00036729998
0.00040796937
0.00045076333
0.0022087014
0.0021408512
0.0020741967
0.0020087152
0.001944389
0.0018811943
0.001819106
0.0017580968
0.0016981369
0.0016391941
0.0015812341
0.0015242201
0.0014681126
0.0014128729
0.0013584609
0.0013048347
0.0012519525
0.0011997731
0.0011482564
0.0010973639
0.0010470591
0.00099730882
0.00094808366
0.00089935947
0.00085111865
0.00080335201
0.00075606107
0.00070926111
0.0006629854
0.00061729083
0.00057226606
0.00052804305
0.00048481374
0.00044285445
0.00040256137
0.00036450078
0.00032947573
0.00029860014
0.00027334222
0.0002554443
0.00024659165
0.00024783302
0.00025909416
0.00027922474
0.00030652801
0.00033930988
0.00037616075
0.00041601819
0.0004580934
0.0022157914
0.0021479239
0.0020812273
0.002015694
0.0019513036
0.0018880353
0.0018258653
0.0017647679
0.0017047149
0.0016456754
0.0015876164
0.0015305026
0.0014742964
0.0014189604
0.001364456
0.0013107426
0.0012577799
0.0012055284
0.0011539497
0.0011030073
0.0010526668
0.0010028972
0.00095367166
0.00090496885
0.00085677446
0.00080908308
0.00076190065
0.00071524772
0.00066916381
0.00062371331
0.00057899388
0.00053514809
0.00049238022
0.00045098015
0.00041135718
0.00037408627
0.00033996584
0.00031007585
0.0002857981
0.00026872016
0.00026033111
0.00026153687
0.00027227267
0.00029154009
0.00031783185
0.00034959466
0.00038549829
0.00042449976
0.00046582709
0.0022228218
0.002154947
0.0020882367
0.0020226716
0.0019582378
0.0018949156
0.0018326831
0.0017715162
0.0017113881
0.0016522696
0.001594129
0.0015369325
0.0014806446
0.0014252296
0.0013706505
0.0013168672
0.0012638412
0.0012115349
0.0011599121
0.0011089381
0.0010585808
0.0010088115
0.00095960604
0.00091094611
0.00086282076
0.0008152285
0.00076817988
0.00072170081
0.00067583712
0.00063066073
0.00058627807
0.00054284193
0.00050056802
0.0004597581
0.0004208318
0.00038436828
0.0003511553
0.00032223232
0.00029889215
0.00028257594
0.00027459852
0.00027574469
0.00028595985
0.00030437849
0.0003296636
0.0003603976
0.00039532493
0.00043344414
0.00047397489
0.0022297558
0.0021619114
0.0020952049
0.0020296327
0.001965178
0.0019018241
0.0018395506
0.001778335
0.0017181522
0.0016589745
0.0016007717
0.0015435116
0.0014871606
0.0014316869
0.0013770537
0.0013232192
0.0012701486
0.0012178068
0.0011661594
0.001115174
0.0010648207
0.0010150732
0.00096591011
0.00091731628
0.00086928429
0.00082181669
0.00077492869
0.00072865166
0.0006830378
0.0006381664
0.00059415242
0.00055115827
0.00050940998
0.00046921934
0.00043101328
0.0003953708
0.00036306336
0.00033508469
0.00031263778
0.00029702667
0.00028941188
0.00029047545
0.00030017323
0.00031775584
0.00034203997
0.0003717343
0.00040566563
0.00044286139
0.00048256569
0.0022365859
0.0021687861
0.0021021167
0.0020365621
0.0019721121
0.0019087507
0.0018464599
0.0017852189
0.0017250041
0.0016657893
0.0016075461
0.0015502437
0.0014938511
0.0014383423
0.0013836763
0.0013298106
0.0012767156
0.0012243592
0.0011727089
0.0011217341
0.0010714073
0.0010217049
0.00097260833
0.00092410555
0.00087619283
0.00082887688
0.00078217769
0.00073613208
0.00069079855
0.0006462636
0.00060265032
0.00056012998
0.00051893766
0.00047939312
0.00044192752
0.00040711542
0.00037570694
0.00034864613
0.00032704687
0.00031208591
0.00030478753
0.00030574648
0.00031492898
0.00033168734
0.00035497578
0.0003836238
0.00041653363
0.00045278149
0.00049161385
0.0022432762
0.002175564
0.002108954
0.0020434463
0.001979028
0.0019156862
0.0018534042
0.0017921632
0.0017319413
0.0016727143
0.0016144554
0.0015571358
0.0015007274
0.0014452056
0.0013905267
0.0013366515
0.0012835555
0.001231208
0.0011795783
0.0011286382
0.0010783625
0.0010287302
0.00097972576
0.00093134052
0.00088357446
0.00083643851
0.00078995745
0.00074417354
0.00069915147
0.00065498465
0.00061180378
0.00056978809
0.00052918031
0.00049030594
0.00045359728
0.0004196204
0.0003890998
0.00036292698
0.00034212885
0.00032776482
0.00032073925
0.00032157259
0.00033024109
0.00034618597
0.00036848529
0.00039607938
0.00042795196
0.0004632154
0.00050114644
0.00224982
0.0021822144
0.0021157019
0.0020502707
0.0019859144
0.001922621
0.0018603763
0.0017991631
0.0017389616
0.0016797495
0.0016215024
0.0015641943
0.0015077984
0.0014522799
0.001397605
0.0013437497
0.0012906805
0.0012383683
0.0011867853
0.0011359058
0.0010857073
0.0010361718
0.00098728682
0.00093904704
0.00089145629
0.00084452978
0.00079829703
0.00075280573
0.00070812647
0.00066435924
0.00062164168
0.00058016
0.00054016294
0.00050197957
0.00046604017
0.0004328987
0.0004032504
0.00037793268
0.00035788847
0.00034406987
0.00033727584
0.00033796361
0.00034611881
0.00036126067
0.00038257741
0.00040911484
0.00043992972
0.00047418734
0.00051117652
0.0022561793
0.0021887281
0.0021223405
0.0020570199
0.0019927575
0.0019295441
0.0018673673
0.0018062121
0.0017460605
0.0016868922
0.0016286848
0.0015714139
0.0015150523
0.0014595657
0.0014049298
0.0013511199
0.0012981042
0.0012458546
0.0011943457
0.0011435543
0.001093461
0.0010440504
0.00099531337
0.00094724813
0.00089986237
0.0008531755
0.00080722182
0.00076205415
0.00071774886
0.00067441193
0.00063218726
0.00059126679
0.00055190374
0.00051442832
0.00047926602
0.00044695525
0.00041815934
0.00039366085
0.00037432289
0.00036099979
0.00035439825
0.00035492144
0.00036256389
0.00037691272
0.00039725542
0.00042273285
0.00045247948
0.00048570145
0.00052172186
0.0022623417
0.0021950698
0.0021288493
0.0020636737
0.0019995399
0.0019364402
0.0018743644
0.0018132994
0.0017532292
0.0016941355
0.0016359975
0.0015787924
0.0015224938
0.0014670723
0.0014125054
0.0013587693
0.0013058351
0.0012536767
0.0012022706
0.0011515965
0.0011016372
0.0010523809
0.0010038215
0.00095596084
0.00090881033
0.00086239375
0.00081674987
0.00077193664
0.00072803559
0.00068515835
0.000643454
0.00060311921
0.00056440972
0.00052765487
0.00049327237
0.00046178259
0.00043381459
0.00041009687
0.00039141684
0.00037854087
0.00037209455
0.00037243529
0.00037956538
0.00039313176
0.00041250928
0.00043692922
0.00046559404
0.00049776403
0.00053278221
0.0022682578
0.0022012162
0.0021351963
0.002070204
0.0020062356
0.0019432858
0.0018813462
0.0018204058
0.0017604507
0.0017014642
0.0016434277
0.0015863197
0.0015301163
0.0014747915
0.001420325
0.0013666944
0.0013138723
0.0012618351
0.0012105619
0.0011600348
0.0011102399
0.001061168
0.0010128166
0.0009651908
0.00091830615
0.00087219022
0.0008268865
0.00078245733
0.00073898943
0.00069659891
0.00065543963
0.00061571112
0.00057767046
0.00054164339
0.00050803807
0.0004773538
0.00045018499
0.00042720641
0.00040913572
0.00039665933
0.00039033295
0.00039047406
0.00039709283
0.00040988744
0.00042831183
0.00045167689
0.0004792566
0.00051035416
0.00054434919
0.0022738915
0.0022071118
0.0021413372
0.0020765679
0.0020128041
0.0019500424
0.0018882765
0.0018274973
0.0017676929
0.0017088488
0.0016509476
0.0015939702
0.0015378945
0.0014826988
0.0014283671
0.0013748777
0.0013221994
0.0012703141
0.0012192043
0.0011688551
0.001119255
0.0010703982
0.0010222851
0.00097492478
0.00092833581
0.00088255037
0.00083761551
0.00079359854
0.00075058983
0.00070871032
0.00066811648
0.00062901058
0.00059164808
0.00055635047
0.00052351281
0.00049361323
0.00046720933
0.00044492593
0.00042741437
0.00041529154
0.0004090505
0.00040897647
0.00041508496
0.00042712044
0.00044460463
0.00046692484
0.00049341562
0.00052343313
0.00055638195
0.0022791576
0.0022126916
0.0021472025
0.0020826983
0.0020191805
0.0019566473
0.0018950947
0.0018345154
0.0017748996
0.0017162344
0.0016585049
0.0016016932
0.0015457803
0.001490749
0.0014365932
0.0013832797
0.0013307748
0.0012790706
0.0012281549
0.0011780141
0.0011286399
0.0010800284
0.001032184
0.00098511811
0.00093885401
0.00089342645
0.00084888753
0.00080530719
0.00076278085
0.00072143139
0.00068141905
0.00064294514
0.00060626442
0.0005716897
0.00053960414
0.0005104605
0.00048478316
0.00046314609
0.00044614358
0.00043432721
0.00042813934
0.00042783437
0.00043343584
0.00044472528
0.00046128765
0.00048257419
0.00050798402
0.00053691454
0.00056880777
0.0022839535
0.0022178412
0.0021526842
0.0020884896
0.0020252609
0.0019629988
0.0019017007
0.0018413619
0.0017819741
0.0017235271
0.0016660077
0.0016094011
0.0015536916
0.0014988678
0.0014449229
0.0013918119
0.0013395057
0.0012880141
0.0012373239
0.0011874233
0.0011383049
0.0010899688
0.0010424211
0.00099567791
0.00094976429
0.00090472021
0.00086059933
0.00081747701
0.0007754496
0.00073464473
0.00069522148
0.00065738306
0.00062137764
0.00058751268
0.00055615305
0.00052773121
0.00050273339
0.00048169221
0.00046514403
0.00045358935
0.00044742081
0.0004468725
0.00045196967
0.00046253096
0.0004781913
0.00049846631
0.00052280559
0.00055065624
0.00058148796
0.0022880983
0.0022223929
0.0021576136
0.0020937741
0.0020308795
0.0019689321
0.0019079314
0.0018478747
0.0017887561
0.0017305675
0.0016732987
0.0016169386
0.0015614767
0.0015069008
0.001453181
0.0014002873
0.0013482151
0.0012969763
0.0012465488
0.0011969201
0.0011480877