/*--------------------------------*- C++ -*----------------------------------*\
| =========                 |                                                 |
| \\      /  F ield         | OpenFOAM: The Open Source CFD Toolbox           |
|  \\    /   O peration     | Version:  2312                                  |
|   \\  /    A nd           | Website:  www.openfoam.com                      |
|    \\/     M anipulation  |                                                 |
\*---------------------------------------------------------------------------*/
FoamFile
{
    version     2.0;
    format      ascii;
    arch        "LSB;label=32;scalar=64";
    class       volScalarField;
    location    "0.03";
    object      N2;
}
// * * * * * * * * * * * * * * * * * * * * * * * * * * * * * * * * * * * * * //

dimensions      [0 0 0 0 0 0 0];

internalField   nonuniform List<scalar> 
3251
(
0.74480292
0.74605713
0.74727754
0.74846258
0.74961103
0.75072199
0.75179482
0.75282906
0.75382438
0.75478064
0.75569782
0.75657604
0.75741557
0.7582168
0.75898024
0.75970651
0.76039633
0.7610505
0.76166992
0.76225555
0.7628084
0.76332954
0.76382006
0.76428111
0.76471383
0.7651194
0.76549899
0.76585377
0.76618491
0.76649355
0.76678084
0.7670479
0.76729581
0.76752564
0.76773843
0.76793518
0.76811686
0.76828441
0.76843871
0.76858064
0.76871102
0.76883064
0.76894024
0.76904054
0.76913222
0.76921591
0.76929222
0.76936171
0.76942492
0.76948235
0.76953446
0.76958168
0.76962437
0.76966294
0.76969778
0.76972923
0.76975757
0.7697831
0.74480079
0.74605514
0.74727555
0.74846066
0.7496092
0.75072026
0.7517932
0.75282754
0.75382297
0.75477933
0.7556966
0.75657491
0.75741453
0.75821584
0.75897935
0.75970569
0.76039557
0.76104981
0.76166928
0.76225496
0.76280786
0.76332904
0.7638196
0.76428069
0.76471344
0.76511905
0.76549866
0.76585347
0.76618462
0.76649329
0.7667806
0.76704768
0.76729561
0.76752546
0.76773826
0.76793503
0.76811672
0.76828427
0.76843859
0.76858053
0.76871092
0.76883054
0.76894015
0.76904046
0.76913214
0.76921584
0.76929215
0.76936165
0.76942486
0.76948229
0.7695344
0.76958161
0.76962432
0.76966291
0.76969777
0.76972922
0.76975757
0.7697831
0.74480103
0.74605551
0.74727586
0.74846093
0.74960946
0.75072052
0.75179345
0.75282779
0.75382322
0.75477957
0.75569684
0.75657516
0.75741477
0.75821608
0.75897959
0.75970592
0.7603958
0.76105003
0.7616695
0.76225517
0.76280806
0.76332922
0.76381978
0.76428085
0.7647136
0.76511919
0.7654988
0.76585359
0.76618474
0.7664934
0.7667807
0.76704777
0.76729569
0.76752553
0.76773833
0.76793509
0.76811677
0.76828432
0.76843863
0.76858057
0.76871095
0.76883057
0.76894018
0.76904048
0.76913216
0.76921585
0.76929216
0.76936165
0.76942486
0.76948228
0.76953439
0.7695816
0.76962431
0.76966291
0.76969778
0.76972924
0.76975759
0.76978312
0.74480384
0.7460583
0.74727852
0.74846345
0.74961184
0.75072278
0.7517956
0.75282982
0.75382515
0.7547814
0.75569858
0.7565768
0.75741632
0.75821754
0.75898097
0.75970723
0.76039702
0.76105118
0.76167058
0.76225618
0.762809
0.76333011
0.7638206
0.76428162
0.76471431
0.76511985
0.76549941
0.76585416
0.76618526
0.76649388
0.76678115
0.76704818
0.76729606
0.76752587
0.76773864
0.76793537
0.76811703
0.76828455
0.76843884
0.76858076
0.76871112
0.76883072
0.76894031
0.7690406
0.76913227
0.76921595
0.76929224
0.76936172
0.76942492
0.76948233
0.76953443
0.76958163
0.76962434
0.76966295
0.76969783
0.76972929
0.76975764
0.76978318
0.74480918
0.74606351
0.74728348
0.74846818
0.74961632
0.75072702
0.75179962
0.75283363
0.75382874
0.7547848
0.75570178
0.75657982
0.75741917
0.75822022
0.75898349
0.75970959
0.76039924
0.76105326
0.76167252
0.762258
0.7628107
0.76333169
0.76382207
0.76428298
0.76471558
0.76512103
0.7655005
0.76585516
0.76618619
0.76649473
0.76678193
0.7670489
0.76729672
0.76752648
0.76773919
0.76793587
0.76811749
0.76828497
0.76843922
0.7685811
0.76871143
0.768831
0.76894057
0.76904083
0.76913247
0.76921613
0.7692924
0.76936187
0.76942505
0.76948244
0.76953452
0.76958171
0.76962442
0.76966303
0.76969791
0.76972937
0.76975772
0.74481654
0.74607062
0.74729028
0.74847464
0.74962246
0.75073284
0.75180512
0.75283883
0.75383366
0.75478944
0.75570616
0.75658394
0.75742305
0.75822387
0.75898692
0.75971281
0.76040226
0.76105608
0.76167516
0.76226046
0.762813
0.76333383
0.76382406
0.76428484
0.7647173
0.76512262
0.76550197
0.76585652
0.76618745
0.76649589
0.766783
0.76704988
0.76729762
0.7675273
0.76773995
0.76793656
0.76811812
0.76828554
0.76843974
0.76858157
0.76871186
0.76883139
0.76894091
0.76904114
0.76913275
0.76921638
0.76929263
0.76936207
0.76942522
0.7694826
0.76953466
0.76958184
0.76962454
0.76966314
0.76969801
0.76972947
0.76975781
0.74482545
0.74607922
0.7472985
0.74848246
0.74962988
0.75073987
0.75181178
0.75284513
0.7538396
0.75479505
0.75571145
0.75658893
0.75742774
0.75822829
0.75899106
0.75971669
0.7604059
0.76105949
0.76167835
0.76226344
0.76281577
0.76333641
0.76382647
0.76428707
0.76471937
0.76512454
0.76550375
0.76585817
0.76618896
0.76649729
0.76678428
0.76705106
0.76729871
0.7675283
0.76774086
0.7679374
0.76811888
0.76828624
0.76844037
0.76858214
0.76871238
0.76883186
0.76894134
0.76904153
0.7691331
0.76921669
0.76929291
0.76936231
0.76942544
0.76948279
0.76953483
0.76958199
0.76962468
0.76966328
0.76969814
0.7697296
0.76975793
0.74483657
0.74608993
0.74730875
0.74849221
0.74963914
0.75074864
0.75182008
0.75285298
0.75384702
0.75480206
0.75571806
0.75659515
0.7574336
0.75823379
0.75899623
0.75972155
0.76041045
0.76106374
0.76168233
0.76226715
0.76281923
0.76333964
0.76382947
0.76428986
0.76472196
0.76512694
0.76550597
0.76586022
0.76619086
0.76649904
0.7667859
0.76705254
0.76730007
0.76752955
0.767742
0.76793844
0.76811983
0.76828711
0.76844116
0.76858286
0.76871303
0.76883245
0.76894187
0.76904201
0.76913353
0.76921708
0.76929326
0.76936263
0.76942572
0.76948305
0.76953506
0.7695822
0.76962487
0.76966346
0.76969831
0.76972975
0.76975808
0.74485005
0.74610291
0.74732115
0.74850401
0.74965034
0.75075926
0.75183013
0.75286249
0.75385601
0.75481054
0.75572606
0.75660269
0.7574407
0.75824046
0.7590025
0.75972743
0.76041596
0.7610689
0.76168715
0.76227166
0.76282344
0.76334356
0.76383312
0.76429325
0.76472511
0.76512986
0.76550867
0.76586272
0.76619317
0.76650117
0.76678786
0.76705434
0.76730173
0.76753107
0.76774339
0.76793971
0.76812099
0.76828817
0.76844213
0.76858374
0.76871383
0.76883317
0.76894253
0.7690426
0.76913407
0.76921756
0.76929369
0.76936301
0.76942607
0.76948336
0.76953534
0.76958245
0.7696251
0.76966367
0.76969851
0.76972994
0.74486606
0.74611832
0.74733586
0.74851801
0.74966362
0.75077185
0.75184206
0.75287377
0.75386667
0.75482061
0.75573555
0.75661164
0.75744912
0.75824839
0.75900994
0.75973441
0.7604225
0.76107503
0.76169288
0.76227701
0.76282843
0.76334821
0.76383745
0.76429728
0.76472885
0.76513333
0.76551188
0.76586569
0.76619591
0.7665037
0.76679019
0.76705649
0.7673037
0.76753287
0.76774505
0.76794123
0.76812238
0.76828943
0.76844328
0.76858479
0.76871478
0.76883404
0.76894331
0.76904331
0.7691347
0.76921814
0.7692942
0.76936348
0.76942649
0.76948373
0.76953567
0.76958275
0.76962538
0.76966392
0.76969874
0.76973016
0.74488481
0.74613632
0.74735303
0.74853434
0.74967913
0.75078655
0.75185598
0.75288694
0.75387912
0.75483237
0.75574665
0.75662209
0.75745896
0.75825764
0.75901864
0.75974257
0.76043015
0.76108219
0.76169958
0.76228327
0.76283427
0.76335365
0.76384252
0.76430199
0.76473322
0.76513738
0.76551564
0.76586917
0.76619912
0.76650666
0.76679292
0.767059
0.76730601
0.76753499
0.76774699
0.76794301
0.768124
0.76829091
0.76844463
0.76858602
0.7687159
0.76883505
0.76894423
0.76904414
0.76913545
0.76921881
0.76929481
0.76936402
0.76942698
0.76948417
0.76953607
0.76958311
0.7696257
0.76966422
0.76969902
0.74490653
0.74615711
0.74737285
0.74855318
0.74969701
0.75080351
0.75187204
0.75290214
0.75389349
0.75484594
0.75575945
0.75663416
0.75747033
0.75826833
0.75902868
0.759752
0.76043899
0.76109047
0.76170732
0.7622905
0.76284102
0.76335994
0.76384837
0.76430743
0.76473828
0.76514207
0.76551998
0.76587319
0.76620284
0.76651009
0.76679608
0.76706191
0.76730868
0.76753744
0.76774924
0.76794506
0.76812588
0.76829263
0.76844619
0.76858744
0.76871719
0.76883622
0.76894529
0.7690451
0.76913632
0.76921959
0.76929552
0.76936466
0.76942755
0.76948468
0.76953653
0.76958352
0.76962608
0.76966457
0.76969933
0.74493145
0.7461809
0.74739551
0.74857471
0.74971745
0.75082289
0.7518904
0.75291951
0.75390991
0.75486144
0.75577409
0.75664796
0.75748332
0.75828055
0.75904016
0.75976277
0.76044909
0.76109993
0.76171617
0.76229877
0.76284874
0.76336714
0.76385507
0.76431366
0.76474406
0.76514744
0.76552495
0.76587778
0.76620709
0.76651401
0.76679969
0.76706523
0.76731174
0.76754025
0.76775181
0.76794742
0.76812803
0.76829459
0.76844798
0.76858907
0.76871867
0.76883757
0.76894651
0.7690462
0.76913732
0.76922049
0.76929633
0.76936539
0.7694282
0.76948527
0.76953706
0.769584
0.76962651
0.76966496
0.74495977
0.7462079
0.7474212
0.74859913
0.74974062
0.75084486
0.7519112
0.7529392
0.75392853
0.75487903
0.75579069
0.7566636
0.75749805
0.75829441
0.75905319
0.759775
0.76046055
0.76111066
0.76172621
0.76230815
0.76285749
0.7633753
0.76386266
0.76432072
0.76475062
0.76515352
0.76553059
0.765883
0.76621191
0.76651846
0.76680379
0.76706901
0.7673152
0.76754344
0.76775473
0.76795009
0.76813048
0.76829682
0.76845002
0.76859092
0.76872035
0.76883909
0.76894789
0.76904745
0.76913845
0.76922151
0.76929725
0.76936622
0.76942895
0.76948594
0.76953766
0.76958454
0.769627
0.76966541
0.74499172
0.74623832
0.74745014
0.74862662
0.74976671
0.7508696
0.75193464
0.75296138
0.75394951
0.75489885
0.75580938
0.75668123
0.75751465
0.75831002
0.75906786
0.75978877
0.76047346
0.76112275
0.76173752
0.76231872
0.76286735
0.76338449
0.76387122
0.76432868
0.76475801
0.76516038
0.76553695
0.76588888
0.76621734
0.76652347
0.76680841
0.76707326
0.76731911
0.76754702
0.76775802
0.7679531
0.76813323
0.76829934
0.76845231
0.76859301
0.76872225
0.76884082
0.76894945
0.76904886
0.76913972
0.76922267
0.76929829
0.76936715
0.76942979
0.7694867
0.76953834
0.76958516
0.76962755
0.74502752
0.74627241
0.74748255
0.74865741
0.74979593
0.7508973
0.75196089
0.75298623
0.753973
0.75492104
0.75583032
0.75670097
0.75753324
0.75832751
0.75908429
0.75980419
0.76048792
0.76113629
0.76175019
0.76233055
0.7628784
0.76339479
0.76388081
0.7643376
0.76476629
0.76516806
0.76554406
0.76589546
0.76622342
0.76652909
0.76681359
0.76707803
0.76732349
0.76755104
0.76776171
0.76795648
0.76813632
0.76830215
0.76845488
0.76859535
0.76872437
0.76884274
0.7689512
0.76905045
0.76914115
0.76922396
0.76929945
0.7693682
0.76943073
0.76948754
0.7695391
0.76958584
0.76962817
0.74506745
0.7463104
0.74751867
0.74869172
0.74982849
0.75092818
0.75199014
0.75301391
0.75399917
0.75494576
0.75585366
0.75672297
0.75755395
0.758347
0.7591026
0.75982138
0.76050404
0.76115138
0.7617643
0.76234374
0.76289071
0.76340626
0.76389149
0.76434753
0.76477552
0.76517661
0.76555199
0.7659028
0.7662302
0.76653534
0.76681935
0.76708333
0.76732837
0.76755552
0.76776581
0.76796024
0.76813975
0.76830529
0.76845774
0.76859795
0.76872674
0.76884489
0.76895315
0.76905221
0.76914275
0.7692254
0.76930075
0.76936937
0.76943179
0.76948849
0.76953995
0.76958659
0.74511177
0.74635256
0.74755875
0.74872978
0.74986462
0.75096243
0.75202259
0.75304462
0.75402822
0.7549732
0.75587954
0.75674738
0.75757694
0.75836862
0.75912292
0.75984044
0.76052191
0.76116812
0.76177996
0.76235837
0.76290436
0.76341898
0.76390333
0.76435854
0.76478574
0.7651861
0.76556078
0.76591093
0.76623771
0.76654228
0.76682574
0.76708922
0.76733378
0.76756049
0.76777036
0.7679644
0.76814356
0.76830877
0.76846091
0.76860084
0.76872937
0.76884728
0.76895531
0.76905417
0.76914452
0.76922699
0.76930219
0.76937067
0.76943296
0.76948954
0.76954089
0.76958742
0.74516076
0.74639916
0.74760305
0.74877185
0.74990454
0.75100029
0.75205845
0.75307857
0.75406032
0.75500352
0.75590816
0.75677435
0.75760234
0.75839251
0.75914537
0.75986151
0.76054166
0.76118662
0.76179726
0.76237453
0.76291944
0.76343304
0.76391642
0.76437071
0.76479704
0.76519658
0.76557048
0.76591991
0.76624601
0.76654993
0.7668328
0.76709571
0.76733975
0.76756597
0.76777539
0.767969
0.76814777
0.76831261
0.76846441
0.76860402
0.76873226
0.76884991
0.76895769
0.76905633
0.76914647
0.76922876
0.76930378
0.7693721
0.76943425
0.7694907
0.76954192
0.76958835
0.74521474
0.74645049
0.74765183
0.74881818
0.74994851
0.75104198
0.75209795
0.75311596
0.75409567
0.75503692
0.75593968
0.75680406
0.75763031
0.75841882
0.75917009
0.75988471
0.76056341
0.76120698
0.7618163
0.76239232
0.76293604
0.76344851
0.76393082
0.7643841
0.76480947
0.76520811
0.76558116
0.76592979
0.76625514
0.76655836
0.76684056
0.76710286
0.76734632
0.767572
0.76778092
0.76797406
0.7681524
0.76831683
0.76846826
0.76860753
0.76873545
0.7688528
0.76896032
0.7690587
0.76914862
0.76923069
0.76930553
0.76937368
0.76943567
0.76949198
0.76954307
0.76958937
0.74527402
0.74650684
0.74770538
0.74886904
0.74999678
0.75108775
0.75214132
0.753157
0.75413448
0.75507358
0.75597427
0.75683667
0.75766102
0.7584477
0.75919722
0.75991017
0.76058728
0.76122933
0.7618372
0.76241184
0.76295425
0.76346548
0.76394662
0.76439878
0.76482311
0.76522076
0.76559288
0.76594063
0.76626515
0.7665676
0.76684908
0.76711069
0.76735352
0.76757861
0.76778698
0.76797961
0.76815747
0.76832146
0.76847248
0.76861137
0.76873895
0.76885597
0.76896319
0.7690613
0.76915097
0.76923282
0.76930745
0.76937541
0.76943723
0.76949339
0.76954432
0.74533898
0.74656852
0.747764
0.74892471
0.75004961
0.75113785
0.75218879
0.75320193
0.75417697
0.75511372
0.75601214
0.75687237
0.75769463
0.75847931
0.75922691
0.75993803
0.76061339
0.76125378
0.76186006
0.76243319
0.76297417
0.76348404
0.76396389
0.76441484
0.76483802
0.76523458
0.76560568
0.76595247
0.7662761
0.76657769
0.76685838
0.76711925
0.76736139
0.76758583
0.7677936
0.76798567
0.76816301
0.76832652
0.76847709
0.76861557
0.76874276
0.76885944
0.76896633
0.76906415
0.76915354
0.76923514
0.76930954
0.76937729
0.76943893
0.76949493
0.76954569
0.74540999
0.74663586
0.74782797
0.74898547
0.75010728
0.75119254
0.75224061
0.75325098
0.75422335
0.75515752
0.75605348
0.75691133
0.75773131
0.7585138
0.75925931
0.75996844
0.76064188
0.76128045
0.761885
0.76245649
0.7629959
0.76350429
0.76398273
0.76443235
0.76485428
0.76524966
0.76561964
0.76596538
0.76628802
0.7665887
0.76686852
0.76712858
0.76736996
0.7675937
0.76780081
0.76799227
0.76816904
0.76833203
0.76848212
0.76862014
0.76874692
0.76886321
0.76896976
0.76906724
0.76915634
0.76923767
0.76931181
0.76937934
0.76944079
0.74548747
0.74670917
0.74789762
0.74905163
0.75017008
0.7512521
0.75229704
0.75330439
0.75427385
0.75520522
0.75609849
0.75695377
0.75777124
0.75855135
0.75929458
0.76000153
0.76067289
0.76130948
0.76191214
0.76248183
0.76301954
0.76352631
0.76400323
0.7644514
0.76487196
0.76526605
0.76563482
0.76597942
0.76630099
0.76660066
0.76687954
0.76713872
0.76737928
0.76760225
0.76780865
0.76799945
0.7681756
0.76833802
0.76848757
0.76862511
0.76875144
0.76886731
0.76897347
0.76907061
0.76915938
0.76924041
0.76931428
0.76938156
0.74557163
0.74678872
0.74797324
0.74912349
0.7502383
0.75131681
0.75235834
0.75336242
0.75432871
0.75525704
0.75614737
0.75699981
0.75781461
0.75859213
0.75933288
0.76003746
0.76070656
0.76134099
0.7619416
0.76250934
0.76304519
0.76355021
0.76402546
0.76447207
0.76489114
0.76528383
0.76565129
0.76599465
0.76631505
0.76661363
0.76689149
0.76714972
0.76738938
0.76761152
0.76781714
0.76800722
0.76818271
0.7683445
0.76849349
0.7686305
0.76875633
0.76887175
0.7689775
0.76907425
0.76916267
0.76924338
0.76931695
0.76938396
0.74441727
0.74566171
0.74687477
0.74805517
0.74920138
0.75031225
0.75138695
0.7524248
0.75342532
0.75438819
0.75531321
0.75620035
0.75704972
0.7578616
0.75863632
0.75937438
0.76007638
0.76074304
0.76137512
0.76197351
0.76253913
0.76307297
0.76357609
0.76404954
0.76449443
0.7649119
0.76530308
0.7656691
0.76601112
0.76633026
0.76662766
0.76690441
0.76716161
0.76740031
0.76762155
0.76782633
0.76801563
0.76819039
0.76835152
0.76849988
0.76863631
0.76876162
0.76887656
0.76898185
0.76907819
0.76916623
0.76924658
0.76931984
0.76938654
0.74451816
0.74575901
0.74696779
0.74814377
0.74928562
0.75039225
0.75146282
0.75249669
0.75349336
0.75445251
0.75537396
0.75625766
0.75710373
0.75791242
0.7586841
0.75941924
0.76011846
0.76078246
0.76141201
0.76200799
0.76257132
0.76310299
0.76360404
0.76407554
0.76451859
0.76493432
0.76532385
0.76568834
0.7660289
0.76634669
0.7666428
0.76691836
0.76717444
0.7674121
0.76763236
0.76783624
0.7680247
0.76819868
0.76835908
0.76850677
0.76864259
0.76876732
0.76888173
0.76898654
0.76908244
0.76917007
0.76925004
0.76932295
0.76938933
0.7446281
0.74586421
0.74706822
0.74823942
0.74937656
0.75047861
0.75154474
0.75257431
0.75356682
0.75452196
0.75543954
0.75631952
0.75716201
0.75796727
0.75873565
0.75946765
0.76016386
0.76082498
0.7614518
0.76204517
0.76260603
0.76313535
0.76363417
0.76410357
0.76454463
0.76495848
0.76534624
0.76570906
0.76604806
0.76636437
0.76665911
0.76693338
0.76718826
0.76742479
0.76764401
0.76784691
0.76803446
0.7682076
0.76836722
0.76851419
0.76864934
0.76877346
0.7688873
0.76899159
0.76908701
0.76917419
0.76925377
0.7693263
0.76939234
0.74474704
0.74597775
0.74717649
0.7483425
0.74947457
0.75057168
0.75163302
0.75265794
0.75364598
0.75459678
0.75551019
0.75638615
0.75722479
0.75802634
0.75879118
0.75951978
0.76021274
0.76087077
0.76149463
0.76208519
0.76264338
0.76317017
0.7636666
0.76413372
0.76457264
0.76498446
0.76537032
0.76573134
0.76606866
0.76638339
0.76667665
0.76694953
0.7672031
0.76743842
0.76765652
0.76785837
0.76804495
0.76821718
0.76837597
0.76852216
0.7686566
0.76878005
0.76889329
0.76899701
0.76909191
0.76917863
0.76925777
0.7693299
0.76939558
0.74487516
0.74609997
0.74729299
0.7484534
0.74958
0.75067179
0.75172797
0.7527479
0.75373111
0.75467725
0.75558616
0.75645781
0.75729229
0.75808986
0.75885086
0.7595758
0.76026527
0.76091996
0.76154065
0.76212818
0.7626835
0.76320757
0.76370141
0.76416609
0.7646027
0.76501235
0.76539616
0.76575525
0.76609075
0.76640378
0.76669545
0.76696684
0.76721902
0.76745305
0.76766993
0.76787066
0.76805619
0.76822745
0.76838534
0.7685307
0.76866437
0.76878712
0.7688997
0.76900282
0.76909717
0.76918338
0.76926205
0.76933376
0.76939906
0.74501278
0.74623128
0.74741812
0.7485725
0.74969322
0.75077929
0.75182993
0.75284449
0.7538225
0.75476363
0.75566772
0.75653471
0.75736473
0.75815801
0.7589149
0.75963591
0.76032162
0.76097272
0.76158999
0.76217428
0.76272651
0.76324765
0.76373872
0.76420078
0.76463492
0.76504223
0.76542384
0.76578086
0.76611442
0.76642562
0.76671558
0.76698537
0.76723607
0.7674687
0.76768428
0.7678838
0.76806822
0.76823844
0.76839536
0.76853984
0.76867268
0.76879467
0.76890656
0.76900904
0.7691028
0.76918846
0.76926664
0.7693379
0.76940277
0.74516031
0.74637208
0.7475523
0.74870019
0.7498146
0.75089453
0.75193922
0.75294801
0.75392045
0.7548562
0.7557551
0.7566171
0.75744233
0.75823102
0.75898349
0.75970027
0.76038194
0.7610292
0.76164281
0.76222361
0.76277253
0.76329054
0.76377864
0.76423789
0.76466937
0.76507418
0.76545343
0.76580823
0.76613971
0.76644896
0.76673709
0.76700518
0.76725427
0.76748541
0.76769961
0.76789784
0.76808106
0.76825017
0.76840607
0.76854959
0.76868156
0.76880274
0.76891387
0.76901567
0.7691088
0.76919389
0.76927154
0.76934231
0.76940675
0.7453183
0.74652284
0.74769595
0.74883689
0.74994451
0.75101787
0.75205616
0.75305878
0.75402524
0.75495523
0.75584856
0.75670522
0.75752531
0.75830911
0.75905681
0.75976906
0.76044642
0.76108955
0.76169924
0.76227632
0.76282169
0.76333634
0.76382126
0.7642775
0.76470614
0.76510828
0.76548501
0.76583744
0.76616669
0.76647386
0.76676004
0.7670263
0.76727369
0.76750324
0.76771595
0.76791281
0.76809475
0.76826268
0.76841747
0.76855998
0.76869101
0.76881133
0.76892167
0.76902274
0.7691152
0.76919967
0.76927676
0.76934702
0.76941098
0.74548732
0.74668405
0.74784951
0.74898297
0.75008333
0.75114964
0.7521811
0.7531771
0.75413716
0.75506097
0.75594836
0.75679929
0.75761386
0.75839227
0.75913502
0.75984246
0.7605152
0.76115394
0.76175943
0.76233252
0.76287411
0.76338517
0.76386669
0.76431972
0.76474533
0.76514461
0.76551865
0.76586855
0.76619543
0.76650037
0.76678447
0.76704878
0.76729435
0.76752221
0.76773334
0.76792873
0.76810931
0.76827598
0.76842961
0.76857104
0.76870107
0.76882047
0.76892997
0.76903026
0.769122
0.76920582
0.76928231
0.76935202
0.76941549
0.7456679
0.74685616
0.74801339
0.74913885
0.75023144
0.7512902
0.75231435
0.75330327
0.7542565
0.75517372
0.75605474
0.75689955
0.75770824
0.75848104
0.75921837
0.75992065
0.76058847
0.7612225
0.76182352
0.76239235
0.76292991
0.76343713
0.76391503
0.76436464
0.76478702
0.76518325
0.76555442
0.76590163
0.76622598
0.76652855
0.76681043
0.76707267
0.7673163
0.76754236
0.76775182
0.76794565
0.76812478
0.7682901
0.76844249
0.76858277
0.76871175
0.76883017
0.76893877
0.76903824
0.76912922
0.76921235
0.7692882
0.76935734
0.76942028
0.74586045
0.74703959
0.748188
0.74930491
0.75038919
0.75143989
0.75245624
0.75343761
0.75438355
0.75529372
0.75616797
0.75700625
0.75780867
0.75857547
0.75930704
0.76000381
0.76066637
0.7612954
0.76189164
0.76245594
0.76298919
0.76349234
0.76396638
0.76441235
0.76483128
0.76522427
0.76559239
0.76593674
0.7662584
0.76655846
0.76683797
0.76709801
0.76733959
0.76756373
0.76777141
0.76796358
0.76814117
0.76830507
0.76845615
0.76859521
0.76872306
0.76884045
0.7689481
0.76904669
0.76913688
0.76921927
0.76929445
0.76936297
0.76942535
0.74606534
0.74723475
0.74837376
0.74948153
0.75055696
0.75159907
0.7526071
0.75358043
0.75451859
0.75542127
0.75628828
0.75711962
0.75791537
0.75867578
0.75940121
0.76009212
0.76074908
0.76137277
0.76196394
0.76252342
0.76305209
0.7635509
0.76402084
0.76446293
0.76487821
0.76526776
0.76563264
0.76597394
0.76629275
0.76659013
0.76686714
0.76712484
0.76736424
0.76758635
0.76779214
0.76798256
0.76815852
0.76832092
0.76847059
0.76860837
0.76873503
0.76885133
0.76895797
0.76905563
0.76914497
0.76922659
0.76930106
0.76936893
0.76943072
0.74628296
0.74744206
0.74857107
0.74966913
0.75073512
0.7517681
0.75276728
0.75373204
0.75466193
0.75555662
0.75641595
0.75723989
0.75802855
0.75878216
0.75950107
0.76018574
0.76083675
0.76145477
0.76204055
0.7625949
0.76311871
0.76361292
0.76407851
0.76451648
0.76492788
0.76531377
0.76567522
0.7660133
0.76632908
0.76662362
0.76689799
0.76715321
0.7673903
0.76761026
0.76781405
0.76800261
0.76817685
0.76833765
0.76848585
0.76862227
0.76874767
0.76886281
0.76896839
0.76906508
0.76915352
0.76923431
0.76930804
0.76937522
0.76943639
0.74651377
0.74766197
0.74878038
0.74986812
0.7509241
0.75194735
0.75293712
0.75389277
0.75481386
0.75570007
0.75655124
0.75736732
0.75814844
0.75889483
0.75960686
0.76028488
0.76092956
0.76154156
0.76212161
0.76267053
0.76318919
0.76367851
0.76413948
0.76457309
0.76498039
0.7653624
0.76572021
0.76605487
0.76636745
0.76665899
0.76693055
0.76718316
0.76741781
0.76763549
0.76783717
0.76802376
0.76819619
0.7683553
0.76850194
0.76863692
0.768761
0.76887492
0.76897937
0.76907503
0.76916253
0.76924246
0.76931539
0.76938186
0.76944237
0.74675835
0.74789503
0.74900219
0.75007898
0.75112432
0.75213725
0.75311702
0.754063
0.75497475
0.75585195
0.75669444
0.75750219
0.7582753
0.75901404
0.75971882
0.76038972
0.76102769
0.76163331
0.76220729
0.76275045
0.76326364
0.76374779
0.76420387
0.76463287
0.76503581
0.76541373
0.76576769
0.76609873
0.76640792
0.7666963
0.76696489
0.76721473
0.7674468
0.76766208
0.76786152
0.76804605
0.76821655
0.76837389
0.76851889
0.76865235
0.76877503
0.76888766
0.76899093
0.76908551
0.76917201
0.76925103
0.76932313
0.76938884
0.76944866
0.74701739
0.74814186
0.7492371
0.75030227
0.75133631
0.75233829
0.75330744
0.75424316
0.75514499
0.75601263
0.75684591
0.75764481
0.75840942
0.75913997
0.75983673
0.76050043
0.76113135
0.76173022
0.76229778
0.76283483
0.76334224
0.76382091
0.76427181
0.76469592
0.76509426
0.76546785
0.76581773
0.76614496
0.76645057
0.76673559
0.76700106
0.76724797
0.76747732
0.76769007
0.76788716
0.7680695
0.76823798
0.76839344
0.76853671
0.76866858
0.76878979
0.76890106
0.76900309
0.76909652
0.76918198
0.76926004
0.76933127
0.76939618
0.76945527
0.74729181
0.74840329
0.74948585
0.75053869
0.75156073
0.75255107
0.75350895
0.75443378
0.75532508
0.75618258
0.75700609
0.75779559
0.75855119
0.75927309
0.75996164
0.76061742
0.76124084
0.76183255
0.7623933
0.76292388
0.76342516
0.76389804
0.76434346
0.76476241
0.76515587
0.76552488
0.76587047
0.76619365
0.76649548
0.76677697
0.76703913
0.76728296
0.76750944
0.76771952
0.76791412
0.76809416
0.76826051
0.768414
0.76855545
0.76868563
0.76880529
0.76891514
0.76901586
0.76910809
0.76919245
0.7692695
0.76933981
0.76940388
0.76946221
0.7475827
0.74868032
0.7497494
0.75078911
0.75179841
0.75277639
0.75372231
0.75463555
0.75551568
0.7563624
0.75717554
0.75795507
0.75870111
0.75941387
0.76009371
0.76074112
0.76135653
0.76194064
0.76249417
0.76301791
0.7635127
0.76397943
0.76441905
0.76483252
0.76522084
0.765585
0.76592603
0.76624495
0.76654278
0.76682053
0.7670792
0.76731978
0.76754323
0.76775049
0.76794248
0.76812009
0.76828419
0.7684356
0.76857513
0.76870354
0.76882157
0.76892992
0.76902926
0.76912023
0.76920343
0.76927943
0.76934878
0.76941197
0.7694695
0.74789144
0.7489743
0.75002902
0.75105476
0.7520505
0.75301534
0.75394851
0.75484944
0.75571768
0.75655294
0.75735505
0.75812399
0.75885987
0.75956292
0.7602335
0.76087213
0.76147896
0.76205498
0.76260084
0.7631173
0.7636052
0.76406542
0.76449889
0.76490656
0.76528941
0.76564844
0.76598465
0.76629905
0.76659265
0.76686644
0.76712142
0.76735856
0.7675788
0.76778309
0.76797231
0.76814736
0.76830909
0.76845831
0.76859581
0.76872236
0.76883867
0.76894545
0.76904334
0.76913298
0.76921497
0.76928986
0.76935818
0.76942045
0.76947714
0.74821995
0.74928706
0.75032647
0.75133732
0.7523186
0.75326941
0.754189
0.7550768
0.75593237
0.7567554
0.75754575
0.7583034
0.75902844
0.75972113
0.7603818
0.76101092
0.7616088
0.76217624
0.76271393
0.76322265
0.76370321
0.7641565
0.76458342
0.76498492
0.76536197
0.76571554
0.76604662
0.76635623
0.76664533
0.76691493
0.767166
0.76739949
0.76761634
0.76781747
0.76800377
0.76817611
0.76833533
0.76848223
0.7686176
0.76874217
0.76885667
0.76896178
0.76905815
0.76914639
0.76922709
0.76930081
0.76936807
0.76942937
0.76948517
0.74857094
0.74962123
0.75064426
0.75163919
0.75260499
0.75354078
0.75444583
0.75531956
0.75616155
0.7569715
0.75774925
0.7584948
0.75920824
0.75988979
0.76053979
0.76115859
0.76174709
0.7623054
0.76283437
0.76333481
0.76380753
0.7642534
0.76467333
0.76506823
0.76543907
0.76578681
0.76611243
0.76641691
0.76670123
0.76696636
0.76721325
0.76744285
0.76765609
0.76785386
0.76803705
0.76820651
0.76836307
0.76850751
0.76864061
0.76876309
0.76887567
0.76897902
0.76907376
0.76916052
0.76923987
0.76931236
0.76937849
0.76943876
0.76949363
0.74894831
0.74998054
0.75098597
0.75196375
0.75291288
0.75383251
0.7547219
0.75558048
0.75640784
0.75720368
0.75796787
0.75870037
0.7594013
0.76007087
0.76070943
0.76131743
0.76189567
0.76244398
0.76296352
0.76345503
0.7639193
0.76435719
0.76476958
0.76515738
0.76552155
0.76586302
0.76618276
0.76648173
0.7667609
0.76702123
0.76726364
0.76748907
0.76769844
0.76789262
0.76807248
0.76823885
0.76839256
0.76853437
0.76866504
0.7687853
0.76889583
0.76899729
0.76909032
0.7691755
0.76925341
0.76932458
0.76938951
0.76944869
0.76950258
0.74935756
0.75037024
0.75135658
0.75231578
0.75324685
0.75414894
0.75502133
0.75586347
0.75667494
0.75745546
0.75820489
0.75892322
0.75961054
0.76026709
0.76089319
0.76148928
0.76205588
0.76259396
0.76310327
0.76358509
0.76404018
0.76446939
0.76487359
0.76525368
0.76561059
0.76594525
0.7662586
0.7665516
0.76682519
0.7670803
0.76731786
0.76753878
0.76774395
0.76793424
0.7681105
0.76827354
0.76842417
0.76856314
0.7686912
0.76880906
0.76891738
0.76901682
0.769108
0.76919149
0.76926785
0.7693376
0.76940126
0.76945927
0.74980623
0.75079753
0.75176303
0.7527019
0.75361319
0.75449607
0.75534984
0.75617395
0.75696799
0.7577317
0.75846493
0.75916768
0.75984006
0.76048228
0.76109467
0.76167765
0.7622317
0.76275768
0.76325629
0.76372758
0.7641725
0.76459217
0.76498735
0.76535895
0.76570789
0.76603506
0.76634139
0.76662782
0.76689527
0.76714467
0.7673769
0.76759287
0.76779344
0.76797946
0.76815177
0.76831117
0.76845844
0.76859431
0.76871952
0.76883476
0.76894068
0.76903792
0.76912708
0.76920873
0.76928341
0.76935163
0.7694139
0.7503044
0.75127211
0.75221457
0.75313098
0.75402039
0.754882
0.75571513
0.75651924
0.75729394
0.75803897
0.7587542
0.75943963
0.76009536
0.76072163
0.76131875
0.76188714
0.7624273
0.76293982
0.76342558
0.76388524
0.76431936
0.7647285
0.76511363
0.76547571
0.76581575
0.76613458
0.76643309
0.76671219
0.76697279
0.76721581
0.76744211
0.76765257
0.76784802
0.76802931
0.76819724
0.76835259
0.76849612
0.76862856
0.76875061
0.76886295
0.76896621
0.76906102
0.76914795
0.76922757
0.7693004
0.76936695
0.75086505
0.75180645
0.75272319
0.75361447
0.75447941
0.75531718
0.75612715
0.75690881
0.75766176
0.75838578
0.75908074
0.75974665
0.76038362
0.76099188
0.76157177
0.76212368
0.76264813
0.76314569
0.76361703
0.76406291
0.76448415
0.76488141
0.76525551
0.76560717
0.76593722
0.76624662
0.76653628
0.76680707
0.76705991
0.76729571
0.76751531
0.76771953
0.76790921
0.76808514
0.76824812
0.7683989
0.76853822
0.76866679
0.76878529
0.76889436
0.76899464
0.76908672
0.76917116
0.7692485
0.76931926
0.76938393
0.75150416
0.7524159
0.75330359
0.75416648
0.75500368
0.75581444
0.75659813
0.75735426
0.75808248
0.75878256
0.75945442
0.76009806
0.76071361
0.76130132
0.7618615
0.76239458
0.76290105
0.76338149
0.76383654
0.7642669
0.76467331
0.76505656
0.76541745
0.76575679
0.76607537
0.76637404
0.76665368
0.76691514
0.76715925
0.76738683
0.76759874
0.76779583
0.76797888
0.76814869
0.768306
0.76845155
0.76858605
0.76871017
0.7688246
0.76892995
0.76902682
0.76911579
0.76919738
0.76927214
0.76934055
0.76940307
0.75224019
0.75311814
0.7539727
0.75480314
0.75560862
0.75638843
0.75714198
0.75786882
0.75856862
0.75924119
0.75988645