/*--------------------------------*- C++ -*----------------------------------*\
| =========                 |                                                 |
| \\      /  F ield         | OpenFOAM: The Open Source CFD Toolbox           |
|  \\    /   O peration     | Version:  2312                                  |
|   \\  /    A nd           | Website:  www.openfoam.com                      |
|    \\/     M anipulation  |                                                 |
\*---------------------------------------------------------------------------*/
FoamFile
{
    version     2.0;
    format      ascii;
    arch        "LSB;label=32;scalar=64";
    class       volScalarField;
    location    "0.03";
    object      O2;
}
// * * * * * * * * * * * * * * * * * * * * * * * * * * * * * * * * * * * * * //

dimensions      [0 0 0 0 0 0 0];

internalField   nonuniform List<scalar> 
3251
(
0.12649214
0.12980502
0.13320969
0.13669103
0.14023367
0.14382181
0.14743936
0.15107007
0.15469781
0.15830679
0.16188182
0.16540851
0.16887349
0.17226455
0.17557079
0.17878265
0.18189199
0.18489207
0.18777755
0.1905444
0.19318984
0.19571225
0.19811106
0.20038665
0.20254021
0.20457368
0.2064896
0.208291
0.20998138
0.21156452
0.21304451
0.21442558
0.21571214
0.21690862
0.21801953
0.21904933
0.22000246
0.22088329
0.22169608
0.22244499
0.22313405
0.22376714
0.224348
0.22488022
0.22536722
0.22581225
0.22621839
0.22658858
0.22692557
0.22723194
0.2275101
0.22776225
0.22799033
0.22819648
0.22838278
0.22855095
0.22870259
0.22883917
0.12649395
0.12980661
0.13321096
0.13669197
0.14023431
0.14382217
0.14743946
0.15106992
0.15469744
0.15830622
0.16188106
0.16540758
0.16887242
0.17226337
0.1755695
0.17878128
0.18189056
0.1848906
0.18777604
0.19054288
0.19318831
0.19571073
0.19810956
0.20038517
0.20253877
0.20457229
0.20648824
0.2082897
0.20998012
0.21156332
0.21304336
0.2144245
0.2157111
0.21690764
0.2180186
0.21904846
0.22000164
0.22088252
0.22169536
0.22244431
0.22313342
0.22376655
0.22434745
0.22487971
0.22536674
0.22581179
0.22621796
0.22658817
0.22692516
0.22723153
0.22750968
0.22776183
0.22798999
0.22819627
0.22838264
0.22855088
0.22870256
0.22883915
0.12650495
0.12981728
0.13322122
0.13670174
0.14024358
0.14383094
0.14744772
0.15107768
0.15470469
0.15831298
0.16188733
0.16541339
0.16887778
0.17226829
0.17557401
0.1787854
0.1818943
0.18489399
0.18777912
0.19054565
0.19319081
0.19571297
0.19811157
0.20038697
0.20254037
0.2045737
0.2064895
0.20829081
0.2099811
0.21156418
0.21304411
0.21442515
0.21571167
0.21690813
0.21801902
0.21904881
0.22000194
0.22088277
0.22169557
0.22244449
0.22313355
0.22376666
0.22434753
0.22487976
0.22536677
0.2258118
0.22621794
0.22658813
0.22692509
0.22723143
0.22750956
0.22776169
0.2279899
0.22819625
0.22838269
0.22855096
0.22870267
0.22883929
0.12652519
0.12983711
0.13324051
0.13672039
0.14026154
0.14384817
0.1474642
0.1510934
0.15471963
0.15832713
0.16190071
0.16542599
0.16888961
0.17227937
0.17558437
0.17879505
0.18190328
0.18490232
0.18778683
0.19055278
0.19319738
0.19571902
0.19811713
0.20039207
0.20254504
0.20457798
0.2064934
0.20829437
0.20998434
0.21156713
0.21304679
0.21442757
0.21571386
0.21691011
0.21802081
0.21905042
0.22000339
0.22088406
0.22169672
0.22244552
0.22313447
0.22376747
0.22434826
0.2248804
0.22536732
0.22581228
0.22621836
0.22658847
0.22692538
0.22723166
0.22750973
0.22776183
0.22799006
0.22819645
0.22838292
0.22855122
0.22870294
0.22883961
0.12655475
0.12986617
0.1332689
0.13674798
0.14028824
0.14387393
0.14748897
0.15111714
0.15474232
0.15834875
0.16192124
0.16544544
0.16890798
0.17229669
0.17560064
0.1788103
0.18191755
0.18491564
0.18779923
0.19056431
0.19320808
0.19572893
0.19812629
0.20040052
0.20255284
0.20458515
0.20649999
0.20830041
0.20998988
0.21157219
0.21305141
0.21443179
0.21571771
0.21691361
0.21802398
0.2190533
0.22000599
0.22088642
0.22169885
0.22244743
0.22313619
0.22376902
0.22434964
0.22488163
0.22536842
0.22581325
0.22621921
0.22658922
0.22692603
0.22723222
0.22751021
0.22776225
0.22799046
0.22819686
0.22838335
0.22855165
0.22870336
0.12659144
0.1299023
0.13330428
0.13678246
0.1403217
0.1439063
0.14752017
0.15114713
0.15477106
0.1583762
0.1619474
0.16547028
0.16893152
0.17231892
0.17562159
0.17883
0.18193603
0.18493293
0.18781539
0.19057936
0.19322209
0.19574194
0.19813835
0.20041169
0.20256316
0.20459467
0.20650876
0.20830848
0.20999729
0.21157899
0.21305764
0.21443749
0.21572291
0.21691836
0.2180283
0.21905723
0.22000956
0.22088966
0.22170178
0.22245008
0.22313858
0.22377117
0.22435157
0.22488337
0.22536997
0.22581464
0.22622044
0.22659031
0.22692699
0.22723306
0.22751095
0.22776292
0.22799109
0.22819747
0.22838394
0.22855222
0.22870388
0.12663382
0.1299441
0.13334526
0.13682243
0.14036055
0.14394392
0.1475565
0.1511821
0.15480462
0.15840831
0.16197803
0.16549942
0.16895916
0.17234508
0.17564628
0.17885325
0.18195786
0.1849534
0.18783453
0.19059723
0.19323874
0.19575742
0.19815273
0.20042501
0.20257549
0.20460606
0.20651927
0.20831817
0.2100062
0.21158718
0.21306515
0.21444437
0.2157292
0.2169241
0.21803354
0.219062
0.2200139
0.2208936
0.22170535
0.22245331
0.2231415
0.2237738
0.22435394
0.2248855
0.22537188
0.22581635
0.22622197
0.22659167
0.22692819
0.22723413
0.2275119
0.22776378
0.22799188
0.22819822
0.22838466
0.22855291
0.22870451
0.12668525
0.12999487
0.13339506
0.13687106
0.14040785
0.14398978
0.14760082
0.15122481
0.15484565
0.15844762
0.16201557
0.16553517
0.16899312
0.17237724
0.17567667
0.17888189
0.18198479
0.18497867
0.18785819
0.19061934
0.19325935
0.19577662
0.19817056
0.20044156
0.20259081
0.20462024
0.20653237
0.20833024
0.21001731
0.21159739
0.21307453
0.21445297
0.21573707
0.2169313
0.21804011
0.21906799
0.22001935
0.22089855
0.22170985
0.22245739
0.22314519
0.22377713
0.22435695
0.2248882
0.22537431
0.22581853
0.22622392
0.22659341
0.22692975
0.22723551
0.22751314
0.22776489
0.22799291
0.22819918
0.22838557
0.22855377
0.22870534
0.12674644
0.1300553
0.13345437
0.13692901
0.14046427
0.14404452
0.14765376
0.15127585
0.15489473
0.15849466
0.16206053
0.16557803
0.16903385
0.17241585
0.17571318
0.17891633
0.1820172
0.1850091
0.1878867
0.190646
0.19328423
0.1957998
0.19819212
0.20046158
0.20260937
0.20463741
0.20654823
0.20834487
0.2100308
0.2116098
0.21308593
0.21446342
0.21574665
0.21694006
0.21804812
0.21907529
0.220026
0.2209046
0.22171534
0.22246237
0.2231497
0.22378121
0.22436063
0.22489152
0.2253773
0.22582121
0.22622632
0.22659556
0.22693167
0.22723723
0.22751468
0.22776629
0.22799418
0.22820036
0.22838668
0.22855482
0.12681818
0.13012613
0.1335239
0.13699697
0.14053045
0.14410877
0.14771595
0.15133585
0.15495244
0.15855003
0.16211348
0.16562852
0.16908187
0.1724614
0.17575627
0.178957
0.18205549
0.18504507
0.18792042
0.19067755
0.1933137
0.19582726
0.19821767
0.20048531
0.20263138
0.20465779
0.20656707
0.20836227
0.21004683
0.21162456
0.21309949
0.21447587
0.21575806
0.2169505
0.21805766
0.21908401
0.22003394
0.22091183
0.22172191
0.22246833
0.2231551
0.2237861
0.22436504
0.2248955
0.22538088
0.22582443
0.22622921
0.22659815
0.22693399
0.22723931
0.22751655
0.22776797
0.22799573
0.22820179
0.228388
0.22855606
0.1269013
0.13020816
0.13360441
0.13707568
0.14060714
0.14418325
0.14778806
0.15140546
0.15501943
0.15861432
0.16217499
0.16568721
0.16913771
0.17251439
0.17580642
0.17900435
0.1821001
0.18508699
0.18795974
0.19071435
0.19334808
0.19585932
0.19824751
0.20051304
0.2026571
0.20468162
0.20658911
0.20838262
0.2100656
0.21164184
0.21311538
0.21449046
0.21577144
0.21696275
0.21806886
0.21909423
0.22004326
0.22092031
0.22172962
0.22247533
0.22316145
0.22379184
0.22437023
0.22490019
0.2253851
0.22582823
0.22623263
0.22660122
0.22693674
0.22724177
0.22751876
0.22776998
0.22799755
0.22820347
0.22838955
0.1269967
0.1303022
0.1336967
0.13716591
0.14069507
0.14426868
0.14787081
0.15148537
0.15509637
0.15868818
0.16224568
0.16575468
0.16920192
0.17257534
0.17586414
0.17905886
0.18215147
0.18513529
0.18800505
0.19075678
0.19338772
0.1958963
0.19828194
0.20054504
0.2026868
0.20470913
0.20661457
0.20840613
0.21008729
0.21166182
0.21313376
0.21450734
0.21578692
0.21697692
0.21808182
0.21910607
0.22005406
0.22093014
0.22173856
0.22248345
0.22316881
0.22379851
0.22437626
0.22490563
0.22539001
0.22583264
0.2262366
0.22660478
0.22693994
0.22724465
0.22752134
0.22777231
0.22799967
0.22820541
0.22839133
0.12710529
0.13040912
0.1338016
0.13726849
0.14079507
0.14436585
0.14796496
0.15157631
0.15518395
0.15877225
0.16232619
0.16583155
0.16927511
0.17264484
0.17592996
0.17912104
0.18221007
0.18519041
0.18805678
0.19080522
0.193433
0.19593854
0.19832129
0.20058162
0.20272075
0.2047406
0.20664368
0.20843304
0.21011211
0.21168468
0.21315479
0.21452666
0.21580464
0.21699316
0.21809668
0.21911963
0.22006644
0.22094142
0.22174882
0.22249276
0.22317726
0.22380616
0.22438318
0.22491188
0.22539564
0.22583772
0.22624116
0.22660889
0.22694362
0.22724796
0.22752432
0.22777499
0.22800211
0.22820764
0.12722797
0.13052983
0.13392001
0.13738429
0.14090796
0.14447559
0.1480713
0.15167905
0.15528292
0.1588673
0.16241723
0.16591848
0.16935789
0.17272346
0.17600443
0.17919143
0.18227643
0.18525282
0.18811536
0.19086009
0.1934843
0.19598641
0.19836588
0.20062309
0.20275925
0.20477628
0.20667671
0.20846355
0.21014027
0.21171062
0.21317866
0.21454859
0.21582476
0.2170116
0.21811354
0.21913504
0.22008049
0.22095423
0.22176047
0.22250335
0.22318686
0.22381486
0.22439105
0.22491899
0.22540206
0.2258435
0.22624637
0.22661356
0.22694783
0.22725173
0.22752771
0.22777805
0.22800488
0.22821014
0.12736566
0.13066528
0.13405286
0.13751422
0.14103465
0.14459875
0.14819067
0.15179442
0.15539407
0.15897408
0.1625195
0.16601616
0.16945093
0.17281184
0.17608817
0.17927057
0.18235105
0.18532303
0.18818127
0.19092184
0.19354204
0.19604029
0.19841608
0.20066978
0.2028026
0.20481647
0.2067139
0.20849793
0.21017199
0.21173986
0.21320556
0.21457331
0.21584744
0.21703238
0.21813256
0.21915242
0.22009635
0.22096867
0.22177362
0.2225153
0.2231977
0.22382468
0.22439993
0.22492701
0.2254093
0.22585003
0.22625225
0.22661885
0.22695258
0.227256
0.22753154
0.22778149
0.22800799
0.12751935
0.13081644
0.13420114
0.13765924
0.14117607
0.14473626
0.14832398
0.15192325
0.15551822
0.15909336
0.16263378
0.16612531
0.16955491
0.17291063
0.17618179
0.17935906
0.1824345
0.18540155
0.18825499
0.19099092
0.19360663
0.19610059
0.19847225
0.20072203
0.20285112
0.20486145
0.20675554
0.20853642
0.21020751
0.21177259
0.21323569
0.21460099
0.21587285
0.21705566
0.21815387
0.21917189
0.22011412
0.22098487
0.22178835
0.22252869
0.22320985
0.22383569
0.2244099
0.22493602
0.22541743
0.22585735
0.22625885
0.22662479
0.22695792
0.22726079
0.22753584
0.22778534
0.22801146
0.12769009
0.13098439
0.13436587
0.13782037
0.14133322
0.14488907
0.14847213
0.15206647
0.15565624
0.15922599
0.16276087
0.16624671
0.16967057
0.17302052
0.17628594
0.17945752
0.18252737
0.18548894
0.18833705
0.19106781
0.19367854
0.19616771
0.1985348
0.20078021
0.20290515
0.20491155
0.20680192
0.20857929
0.21024708
0.21180906
0.21326925
0.21463184
0.21590116
0.2170816
0.21817761
0.21919359
0.22013392
0.22100291
0.22180478
0.22254361
0.2232234
0.22384797
0.22442101
0.22494606
0.2254265
0.22586553
0.22626621
0.22663142
0.22696388
0.22726615
0.22754063
0.22778961
0.12787902
0.13117021
0.13454815
0.13799867
0.14150713
0.1450582
0.14863613
0.152225
0.15580904
0.15937283
0.1629015
0.16638114
0.16979867
0.17314225
0.17640131
0.1795666
0.18263025
0.18558576
0.18842797
0.19115301
0.19375824
0.19624211
0.19860413
0.2008447
0.20296505
0.20496709
0.20685334
0.20862681
0.21029095
0.2118495
0.21330646
0.21466604
0.21593255
0.21711037
0.21820394
0.21921765
0.22015588
0.22102293
0.221823
0.22256017
0.22323843
0.22386159
0.22443334
0.2249572
0.22543656
0.2258746
0.22627438
0.22663878
0.2269705
0.22727209
0.22754594
0.22779429
0.1280873
0.13137507
0.1347491
0.13819525
0.14169889
0.1452447
0.14881698
0.15239985
0.15597758
0.1595348
0.16305672
0.16652945
0.16993999
0.17327656
0.17652862
0.17968697
0.1827438
0.18569262
0.18852833
0.19124706
0.1938462
0.19632424
0.19868066
0.2009159
0.20303117
0.2050284
0.2069101
0.20867929
0.21033939
0.21189414
0.21334755
0.21470381
0.21596721
0.21714214
0.21823301
0.21924423
0.22018014
0.22104504
0.22184312
0.22257846
0.22325503
0.22387663
0.22444696
0.22496951
0.22544767
0.22588462
0.22628341
0.22664691
0.22697783
0.22727867
0.22755181
0.22779949
0.12831616
0.13160018
0.13496993
0.13841128
0.14190963
0.14544968
0.14901575
0.15259204
0.15616285
0.15971287
0.16322738
0.16669252
0.17009539
0.17342424
0.17666861
0.17981934
0.18286866
0.18581014
0.18863869
0.1913505
0.19394296
0.19641456
0.19876484
0.20099421
0.20310391
0.20509585
0.20697255
0.20873702
0.21039267
0.21194326
0.21339276
0.21474535
0.21600534
0.21717709
0.218265
0.21927347
0.22020683
0.22106936
0.22186526
0.22259859
0.22327329
0.22389319
0.22446194
0.22498306
0.2254599
0.22589565
0.22629335
0.22665587
0.2269859
0.22728593
0.22755829
0.22780529
0.12856689
0.13184681
0.13521186
0.13864797
0.14214053
0.14567427
0.14923357
0.15280265
0.15636588
0.15990801
0.16341441
0.16687126
0.17026571
0.17358611
0.17682205
0.17996444
0.18300554
0.18593897
0.18875969
0.1914639
0.19404903
0.19651359
0.19885713
0.20108007
0.20318365
0.20516979
0.20704101
0.2088003
0.21045109
0.2119971
0.21344232
0.2147909
0.21604715
0.21721541
0.21830007
0.21930552
0.22023608
0.22109603
0.22188953
0.22262065
0.22329332
0.22391134
0.22447837
0.22499791
0.22547331
0.22590774
0.22630425
0.22666569
0.22699475
0.22729391
0.2275654
0.12884083
0.13211628
0.1354762
0.13890658
0.14239282
0.14591969
0.14947158
0.15303279
0.15658775
0.16012127
0.1636188
0.16706659
0.17045185
0.17376302
0.17698975
0.18012302
0.18315514
0.18607978
0.18889193
0.19158784
0.19416496
0.19662183
0.198958
0.20117391
0.20327081
0.20525061
0.20711583
0.20886947
0.21051494
0.21205595
0.21349648
0.21484068
0.21609284
0.21725728
0.2183384
0.21934055
0.22026806
0.22112517
0.22191606
0.22264476
0.22331521
0.22393118
0.22449633
0.22501414
0.22548796
0.22592095
0.22631614
0.22667641
0.22700444
0.22730267
0.22757314
0.12913938
0.13240995
0.13576427
0.13918842
0.14266778
0.14618716
0.14973099
0.15328362
0.15682956
0.16035371
0.16384157
0.16727952
0.17065473
0.17395584
0.17717254
0.18029587
0.1833182
0.18623325
0.18903607
0.19172293
0.19429132
0.1967398
0.19906794
0.20127619
0.2033658
0.2053387
0.20719738
0.20894486
0.21058452
0.21212008
0.2135555
0.21489493
0.21614262
0.21730291
0.21838016
0.21937872
0.2203029
0.22115693
0.22194496
0.22267104
0.22333906
0.2239528
0.2245159
0.22503183
0.22550392
0.22593533
0.22632909
0.22668807
0.22701501
0.12946395
0.13272921
0.13607746
0.13949484
0.14296673
0.14647797
0.15001303
0.15355634
0.15709248
0.16060642
0.16408377
0.16751106
0.17087531
0.17416548
0.17737127
0.18048379
0.18349547
0.18640011
0.18919277
0.1918698
0.19442869
0.19686805
0.19918746
0.20138738
0.20346906
0.20543444
0.20728602
0.20902679
0.21066014
0.21218978
0.21361965
0.21495389
0.21619673
0.2173525
0.21842555
0.2194202
0.22034076
0.22119144
0.22197637
0.22269958
0.22336497
0.22397629
0.22453715
0.22505104
0.22552125
0.22595095
0.22634314
0.22670069
0.12981599
0.13307547
0.13641718
0.13982724
0.14329104
0.14679344
0.15031899
0.15385218
0.15737767
0.16088053
0.16434645
0.16776192
0.17111453
0.17439285
0.17758681
0.1806876
0.18368774
0.18658107
0.18936272
0.19202907
0.19457767
0.19700714
0.19931707
0.20150795
0.20358104
0.20553826
0.20738213
0.20911563
0.21074214
0.21226535
0.2136892
0.2150178
0.21625538
0.21740626
0.21847474
0.21946516
0.22038179
0.22122884
0.22201041
0.22273053
0.22339305
0.22400174
0.22456019
0.22507186
0.22554003
0.22596786
0.22635833
0.22671426
0.12703811
0.13019684
0.13345023
0.13678493
0.14018708
0.14364211
0.14713493
0.15065018
0.1541724
0.15768636
0.16117722
0.16463076
0.16803352
0.17137342
0.17463892
0.17782007
0.18090817
0.1838958
0.18677689
0.18954662
0.19220142
0.19473887
0.19715762
0.19945729
0.20163839
0.20370217
0.20565057
0.2074861
0.20921173
0.21083083
0.21234708
0.21376441
0.21508692
0.21631881
0.21746438
0.21852794
0.21951378
0.22042616
0.22126928
0.22204722
0.22276398
0.22342342
0.22402926
0.2245851
0.22509436
0.22556034
0.22598614
0.22637474
0.22672893
0.12745487
0.13060822
0.13385509
0.13718223
0.14057584
0.14402139
0.14750386
0.15100795
0.15451831
0.1580198
0.16149768
0.16493784
0.16832701
0.17165303
0.17490465
0.17807196
0.18114634
0.18412047
0.18698833
0.18974518
0.19238749
0.1949129
0.19732007
0.19960867
0.2017792
0.20383293
0.2057718
0.20759831
0.20931544
0.21092654
0.21243528
0.21384558
0.2151615
0.21638725
0.2175271
0.21858533
0.21956623
0.22047403
0.2213129
0.22208692
0.22280006
0.22345617
0.22405895
0.22461196
0.22511864
0.22558224
0.22600586
0.22639244
0.22674478
0.12790443
0.13105187
0.13429169
0.13761068
0.14099506
0.14443036
0.14790164
0.15139368
0.15489123
0.15837925
0.16184311
0.16526885
0.16864332
0.17195441
0.17519104
0.17834341
0.18140299
0.18436255
0.18721615
0.18995911
0.19258797
0.19510039
0.19749509
0.19977174
0.20193087
0.20397377
0.20590237
0.20771917
0.20942713
0.21102961
0.21253026
0.21393297
0.2152418
0.21646094
0.21759462
0.21864711
0.21962268
0.22052555
0.22135986
0.22212966
0.2228389
0.22349142
0.22409089
0.22464088
0.22514477
0.22560581
0.22602708
0.2264115
0.22676187
0.12838852
0.13152951
0.13476171
0.13807188
0.1414463
0.14487054
0.14832974
0.15180878
0.1552925
0.15876599
0.16221476
0.16562495
0.16898357
0.17227859
0.17549909
0.17863537
0.18167902
0.18462289
0.18746114
0.19018915
0.19280353
0.19530197
0.19768325
0.19994705
0.20209392
0.20412516
0.20604271
0.20784906
0.20954717
0.21114038
0.21263232
0.21402688
0.21532808
0.2165401
0.21766715
0.21871348
0.21968333
0.22058089
0.22141029
0.22217556
0.22288062
0.22352928
0.22412521
0.22467193
0.22517283
0.22563112
0.22604988
0.226432
0.22678026
0.12890884
0.13204288
0.13526685
0.13856751
0.14193117
0.14534348
0.14878965
0.15225466
0.1557235
0.15918135
0.16261386
0.16600733
0.16934889
0.17262664
0.17582979
0.17894877
0.1819753
0.18490232
0.18772407
0.19043603
0.19303484
0.19551828
0.19788514
0.20013514
0.20226885
0.20428757
0.20619325
0.20798839
0.20967592
0.21125917
0.21274177
0.21412758
0.2154206
0.21662498
0.21774492
0.21878464
0.21974835
0.22064022
0.22146435
0.22222475
0.22292533
0.22356986
0.22416198
0.22470521
0.2252029
0.22565826
0.22607433
0.22645398
0.2268
0.12946718
0.13259377
0.13580886
0.13909925
0.14245129
0.14585072
0.14928285
0.15273277
0.15618558
0.15962661
0.16304166
0.16641716
0.16974041
0.17299965
0.17618415
0.17928457
0.18229272
0.18520166
0.18800573
0.19070047
0.1932826
0.19574995
0.19810135
0.20033655
0.20245616
0.20446147
0.20635443
0.20813754
0.20981374
0.21138633
0.21285892
0.21423535
0.21551961
0.21671581
0.21782813
0.21886077
0.21981791
0.22070369
0.22152219
0.22227738
0.22297316
0.22361326
0.22420132
0.22474081
0.22523508
0.22568729
0.22610049
0.22647752
0.22682114
0.1300654
0.13318402
0.13638951
0.13966879
0.1430083
0.14639385
0.14981087
0.15324455
0.15668014
0.1601031
0.1634994
0.16685563
0.17015925
0.1733987
0.17656318
0.17964369
0.18263216
0.18552175
0.18830688
0.19098318
0.19354746
0.19599759
0.19833245
0.20055183
0.20265634
0.2046473
0.20652667
0.20829692
0.20996099
0.21152218
0.21298407
0.21435047
0.21562536
0.21681283
0.21791701
0.21894207
0.21989219
0.22077146
0.22158394
0.22233357
0.22302422
0.2236596
0.22424332
0.22477882
0.22526943
0.2257183
0.22612843
0.22650266
0.22684374
0.13070559
0.13381554
0.13701062
0.14027788
0.14360385
0.14697445
0.1503752
0.15379144
0.15720854
0.16061213
0.16398832
0.16732389
0.17060649
0.17382492
0.17696781
0.18002705
0.18299448
0.18586338
0.18862828
0.19128489
0.1938301
0.19626184
0.19857903
0.2007815
0.20286989
0.20484553
0.20671037
0.2084669
0.21011803
0.21166705
0.21311751
0.21447322
0.21573811
0.21691624
0.21801174
0.21902873
0.21997135
0.22084369
0.22164974
0.22239345
0.22307863
0.22370898
0.22428807
0.22481933
0.22530604
0.22575134
0.22615821
0.22652947
0.22686784
0.13138992
0.13449027
0.137674
0.14092824
0.1442396
0.1475941
0.15097737
0.15437488
0.15777215
0.16115498
0.16450964
0.16782309
0.17108308
0.17427813
0.17739888
0.18043554
0.18338055
0.18622737
0.18897068
0.19160629
0.19413115
0.19654327
0.19884163
0.20102608
0.20309728
0.20505659
0.20690595
0.20864785
0.21028519
0.21182124
0.21325953
0.21460384
0.21585808
0.21702628
0.21811253
0.21912093
0.22005557
0.22092052
0.22171974
0.22245714
0.2231365
0.2237615
0.22433567
0.22486241
0.22534498
0.22578649
0.22618989
0.22655799
0.22689348
0.13212047
0.13521015
0.13838148
0.14162162
0.14491722
0.1482544
0.15161889
0.15499631
0.15837234
0.16173295
0.1650646
0.16835442
0.17159034
0.17476127
0.17785758
0.18087008
0.18379118
0.1866145
0.18933481
0.19194804
0.19445124
0.19684248
0.19912079
0.20128606
0.20333897
0.2052809
0.20711379
0.20884013
0.2104628
0.21198505
0.2134104
0.21474259
0.21598551
0.21714315
0.21821957
0.21921883
0.220145
0.22100209
0.22179406
0.22252476
0.22319794
0.22381725
0.22438619
0.22490814
0.22538632
0.2258238
0.22622354
0.22658829
0.22692073
0.13289912
0.13597705
0.13913489
0.14235977
0.14563838
0.14895692
0.15230127
0.15565716
0.15901046
0.16234732
0.16565439
0.16891901
0.17212933
0.17527449
0.17834485
0.18133158
0.18422723
0.18702552
0.18972137
0.19231082
0.19479099
0.19716003
0.19941703
0.20156192
0.20359541
0.20551887
0.20733428
0.20904408
0.21065118
0.21215878
0.2135704
0.21488972
0.21612062
0.21726705
0.21833304
0.21932261
0.22023979
0.22108856
0.22187282
0.22259642
0.22326305
0.22387633
0.22443974
0.2249566
0.22543012
0.22586335
0.22625919
0.2266204
0.22694961
0.13372772
0.13679286
0.13993608
0.14314447
0.14640479
0.14970331
0.15302604
0.15635889
0.15968789
0.16299939
0.16628025
0.16951802
0.17270108
0.17581879
0.17886159
0.18182092
0.1846895
0.1874612
0.19013108
0.19269527
0.195151
0.19749649
0.19973087
0.20185414
0.20386702
0.20577091
0.20756776
0.20926005
0.21085063
0.21234271
0.21373976
0.21504545
0.21626362
0.21739818
0.21845311
0.21943242
0.22034007
0.22118003
0.22195615
0.22267222
0.22333192
0.22393883
0.22449637
0.22500786
0.22547646
0.22590519
0.22629692
0.22665437
0.22698017
0.13460825
0.13765957
0.14078698
0.14397759
0.14721821
0.15049524
0.15379481
0.157103
0.16040604
0.16369049
0.16694342
0.17015261
0.17330667
0.17639519
0.17940877
0.18233899
0.18517881
0.1879223
0.19056462
0.19310203
0.19553185
0.19785238
0.20006282
0.20216319
0.20415424
0.20603739
0.20781461
0.20948835
0.21106145
0.2125371
0.21391874
0.21521002
0.21641471
0.21753671
0.21857996
0.21954841
0.220446
0.22127664
0.22204414
0.22275227
0.22340465
0.22400482
0.22455617
0.22506199
0.22552539
0.22594936
0.22633675
0.22669025
0.22701245
0.13554295
0.13857936
0.1416897
0.14486113
0.14808056
0.15133451
0.15460926
0.15789109
0.16116641
0.164422
0.16764519
0.17082398
0.17394723
0.17700478
0.17998747
0.1828867
0.18569601
0.18840959
0.19102272
0.19353178
0.19593417
0.19822829
0.20041338
0.20248952
0.2044575
0.20631873
0.20807519
0.20972931
0.21128394
0.21274223
0.21410759
0.21538363
0.2165741
0.21768284
0.21871374
0.21967073
0.2205577
0.2213785
0.22213692
0.22283666
0.22348132
0.22407438
0.22461921
0.22511904
0.22557696
0.22599593
0.22637874
0.22672808
0.22704649
0.13653445
0.13955474
0.14264662
0.14579736
0.14899398
0.15222314
0.1554713
0.15872492
0.16197065
0.16519549
0.16838701
0.17153347
0.17462398
0.17764866
0.18059897
0.18346499
0.18624198
0.18892391
0.19150616
0.19398522
0.19635862
0.19862481
0.20078312
0.20283366
0.20477725
0.20661533
0.20834987
0.20998329
0.21151842
0.21295839
0.21430657
0.21556653
0.21674199
0.21783674
0.21885464
0.21979954
0.22067531
0.22148575
0.22223459
0.22292549
0.22356202
0.2241476
0.22468556
0.22517909
0.22563124
0.22604494
0.22642294
0.22676789
0.22708231
0.137586
0.14058875
0.1436606
0.14678897
0.149961
0.15316351
0.15638316
0.15960661
0.16282072
0.16601278
0.16917057
0.17228263
0.17533829
0.17832776
0.18124195
0.18407459
0.18681772
0.18946624
0.19201585
0.19446321
0.19680596
0.19904265
0.20117267
0.20319619
0.20511404
0.20692769
0.20863909
0.21025068
0.21176525
0.21318589
0.21451596
0.21575898
0.21691862
0.21799864
0.21900283
0.21993501
0.22079899
0.22159851
0.22233728
0.22301888
0.22364684
0.22422455
0.22475529
0.2252422
0.22568829
0.22609644
0.22646939
0.22680974
0.22711996
0.13870168
0.14168518
0.1447352
0.1478393
0.15098477
0.1541586
0.15734763
0.16053875
0.16371908
0.16687615
0.16999802
0.17307348
0.17609213
0.17904443
0.18192183
0.18471766
0.18742472
0.19003786
0.19255294
0.19496679
0.19727716
0.19948269
0.20158285
0.20357784
0.20546853
0.2072564
0.20894341
0.21053198
0.21202487
0.21342515
0.21473614
0.21596131
0.2171043
0.2181688
0.21915856
0.22007735
0.22092892
0.22171697
0.22244513
0.22311696
0.22373592
0.22430536
0.2248285
0.22530845
0.22574818
0.22615051
0.22651815
0.22685366
0.22715949
0.13988665
0.14284887
0.145875
0.14895271
0.15206942
0.15521229
0.15836837
0.1615248
0.16466896
0.16778862
0.17087217
0.17390866
0.17688798
0.17980093
0.18263934
0.18539622
0.18806487
0.19064047
0.193119
0.1954974
0.19777353
0.19994613
0.20201474
0.2039796
0.20584163
0.2076023
0.20926357
0.21082786
0.21229789
0.21367671
0.21496759
0.21617397
0.21729941
0.21834757
0.21932215
0.22022685
0.22106536
0.22184133
0.22255835
0.2232199
0.22382941
0.22439015
0.22490532
0.22537796
0.225811
0.22620723
0.2265693
0.22689974
0.22720095
0.1411476
0.14408628
0.14708618
0.15013506
0.15322051
0.15632986
0.15945038
0.16256947
0.16567477
0.16875437
0.17179692
0.17479181
0.17772923
0.18060029
0.18339718
0.18611339
0.18874077
0.19127645
0.1937162
0.19605702
0.1982969
0.20043465
0.20246988
0.20440289
0.20623461
0.20796654
0.20960063
0.21113927
0.21258518
0.21394136
0.21521102
0.21639757
0.21750452
0.21853547
0.21949405
0.2203839
0.22120867
0.22197194
0.22267722
0.22332797
0.22392753
0.22447914
0.22498592
0.22545089
0.22587691
0.22626673
0.22662295
0.22694806
0.22724443
0.14249363
0.14540622
0.1483772
0.15139448
0.15444578
0.15751866
0.16060063
0.16367935
0.16674275
0.16977923
0.17277778
0.17572808
0.17862064
0.1814469
0.18419929
0.18687121
0.18945573
0.19194911
0.19434764
0.19664855
0.19884992
0.20095069
0.20295051
0.20484974
0.20664935
0.20835082
0.20995613
0.21146763
0.21288802
0.21422024
0.21546748
0.21663308
0.21772049
0.21873325
0.21967494
0.22054913
0.2213594
0.22210927
0.22280219
0.22344155
0.22403063
0.22457262
0.22507058
0.22552747
0.2259461
0.22632918
0.22667926
0.22699878
0.22729007
0.14393745
0.14682097
0.14975988
0.15274227
0.15575605
0.15878901
0.16182892
0.16486374
0.1678817
0.17087154
0.17382257
0.1767248
0.17956907
0.18234706
0.18505133
0.18767502
0.19021479
0.19266327
0.19501786
0.19727618
0.19943649
0.20149782
0.20345991
0.20532317
0.2070886
0.20875768
0.21033238
0.21181503
0.2132083
0.21451508
0.21573852
0.21688189
0.21794858
0.21894206
0.21986585
0.22072346
0.22151838
0.22225406
0.22293391
0.22356122
0.22413923
0.22467106
0.22515971
0.22560807
0.22601892
0.22639489
0.2267385
0.22705213
0.22733806
0.14549677
0.14834761
0.15125065
0.15419422
0.15716644
0.16015536
0.16314904
0.16613574
0.16910406
0.17204307
0.17494242
0.17779248
0.18058443
0.18331027
0.18596294
0.18853642
0.19102704
0.19342631
0.19573346
0.19794599
0.20006221
0.20208123
0.20400288
0.20582759
0.2075564
0.20919081
0.21073276
0.21218456
0.21354883
0.21482844
0.21602646
0.21714609
0.21819068
0.21916361
0.22006833
0.22090826
0.22168684
0.22240744
0.22307337
0.22368789
0.22425414
0.22477517
0.22525394
0.22569326
0.22609584
0.22646428
0.22680104
0.22710844
0.22738873
0.14719588
0.15000958
0.1528721
0.15577204
0.15869778
0.16163766
0.16458004
0.16751355
0.17042713
0.17331023
0.17615287
0.17894581
0.18168056
0.18434948
0.18694583
0.18946379
0.19189842
0.19424777
0.1965036
0.19866664
0.20073511
0.20270837
0.20458627
0.20636932
0.20805858
0.20965555
0.21116216
0.21258068
0.21391371
0.21516404
0.21633468
0.21742877
0.21844958
0.21940041
0.22028463
0.22110559
0.22186663
0.22257104
0.22322207
0.22382287
0.22437653
0.22488601
0.22535421
0.22578386
0.22617763
0.22653803
0.22686747
0.22716824
0.14906737
0.15183836
0.15465461
0.15750501
0.16037824
0.16326292
0.1661478
0.16902186
0.17187445
0.17469541
0.17747518
0.1802049
0.18287647
0.1854826
0.18801687
0.19047371
0.19284832
0.1951383
0.1973409
0.19945043
0.20146633
0.2033896
0.20521966
0.20695719
0.2086033
0.21015943
0.21162749
0.21300973
0.2143087
0.21552714
0.21666799
0.2177343
0.21872925
0.21965607
0.22051803
0.22131838
0.22206039
0.22274726
0.22338213
0.22396809
0.22450812
0.22500513
0.2254619
0.22588112
0.22626536
0.22661709
0.22693866
0.15115354
0.15387495
0.15663781
0.15943136
0.16224459
0.16506649
0.16788618
0.17069306
0.17347693
0.17622806
0.17893733
0.1815963
0.18419729
0.1867334
0.18919856
0.19158753
0.19389592
0.19612021
0.19825887
0.20030973
0.20227035
0.20413891
0.20591612
0.2076031
0.20920157
0.21071264
0.21213815
0.21348032
0.2147417
0.21592499
0.217033
0.21806871
0.21903519
0.21993558
0.22077304
0.22155074
0.22227184
0.22293944
0.22355658
0.22412626
0.22465136
0.22513469
0.22557896
0.22598677
0.22636061
0.22670286
0.15350725
0.15617056
0.15887123
0.16159887
0.16434284
0.16709255
0.16983756
0.17256773
0.17527334
0.17794513
0.18057449
0.18315344
0.18567474
0.18813191
0.19051928
0.19283196
0.19506588
0.19721779
0.1992853
0.20126707
0.20316224
0.20496979
0.2066897
0.20832203
0.20986759
0.21132842
0.21270643
0.21400376
0.21522298
0.21636701
0.21743838
0.21843994
0.21937465
0.22024555
0.2210557
0.22180814
0.22250592
0.22315204
0.22374946
0.22430102
0.22480952
0.22527767
0.22570806
0.2261032
0.22646551
0.22679728
0.15619103
0.15878575
0.16141335
0.16406394
0.1667273
0.1693933
0.172052
0.17469379
0.17730948
0.17989036
0.18242833
0.18491593
0.18734642
0.18971377
0.19201273
0.19423883
0.19638834
0.19845831
0.20044654
0.20235144
0.20417226
0.20590866
0.2075608
0.20912933
0.21061508
0.21201953
0.21334457
0.21459232
0.21576497
0.21686482
0.21789482
0.21885781
0.21975665
0.22059426
0.22137357
0.2220975
0.22276894
0.22339075
0.22396589
0.22449702
0.22498681
0.22543784
0.2258526
0.22623349
0.22658281
0.22690279
0.15927388
0.16178709
0.16432837
0.16688836
0.16945733
0.17202569
0.17458408
0.17712346
0.17963524
0.18211131
0.18454416