/*--------------------------------*- C++ -*----------------------------------*\
| =========                 |                                                 |
| \\      /  F ield         | OpenFOAM: The Open Source CFD Toolbox           |
|  \\    /   O peration     | Version:  2312                                  |
|   \\  /    A nd           | Website:  www.openfoam.com                      |
|    \\/     M anipulation  |                                                 |
\*---------------------------------------------------------------------------*/
FoamFile
{
    version     2.0;
    format      ascii;
    arch        "LSB;label=32;scalar=64";
    class       volScalarField;
    location    "0.03";
    object      omega;
}
// * * * * * * * * * * * * * * * * * * * * * * * * * * * * * * * * * * * * * //

dimensions      [0 0 -1 0 0 0 0];

internalField   nonuniform List<scalar> 
3251
(
339.09853
334.81404
330.59576
326.44989
322.38268
318.40036
314.50912
310.71504
307.02402
303.44165
299.97319
296.62342
293.39663
290.29651
287.32612
284.48782
281.78327
279.21336
276.77825
274.47733
272.30925
270.27196
268.36272
266.57813
264.91425
263.36655
261.93008
260.59946
259.36897
258.23264
257.18428
256.21759
255.32619
254.50368
253.74375
253.04018
252.3869
251.77805
251.20803
250.67149
250.16339
249.67945
249.21537
248.7672
248.33139
247.90479
247.4846
247.06841
246.65409
246.23977
245.82391
245.40564
244.98032
244.54867
244.11469
243.6777
243.23768
242.7949
339.0939
334.8096
330.59164
326.44603
322.37903
318.3969
314.50581
310.71185
307.02091
303.4386
299.97016
296.6204
293.39358
290.2934
287.32293
284.48454
281.77987
279.20982
276.77456
274.47347
272.30522
270.26774
268.3583
266.57352
264.90943
263.36152
261.92485
260.59402
259.36332
258.22679
257.17824
256.21135
255.31975
254.49706
253.73695
253.0332
252.37975
251.77074
251.20056
250.66387
250.15562
249.67153
249.20731
248.759
248.32303
247.89624
247.47585
247.05942
246.64482
246.23021
245.81397
245.39484
244.97014
244.54015
244.10696
243.67058
243.23127
242.78862
339.07982
334.79598
330.5786
326.43354
322.36706
318.3854
314.49475
310.70118
307.01061
303.42862
299.96046
296.61095
293.38434
290.28436
287.31405
284.47578
281.77121
279.20125
276.76604
274.46499
272.29676
270.25929
268.34985
266.56505
264.90093
263.35299
261.91627
260.58539
259.35465
258.21806
257.16945
256.20251
255.31086
254.48811
253.72795
253.02415
252.37065
251.7616
251.19138
250.65464
250.14636
249.66224
249.19798
248.74962
248.3136
247.88674
247.46625
247.04969
246.63495
246.22019
245.8038
245.38442
244.96033
244.53156
244.09922
243.66359
243.2253
242.78408
339.05628
334.77326
330.55676
326.41255
322.34688
318.36598
314.47604
310.68315
306.9932
303.41179
299.94418
296.59516
293.36901
290.26945
287.29952
284.4616
281.75735
279.18768
276.75273
274.45192
272.2839
270.24662
268.33734
266.55269
264.88871
263.3409
261.90429
260.57352
259.34287
258.20637
257.15784
256.19098
255.2994
254.47672
253.71663
253.01289
252.35946
251.75048
251.18032
250.64365
250.13544
249.65139
249.18719
248.73889
248.30292
247.87609
247.45561
247.03905
246.6243
246.20954
245.79319
245.37391
244.95047
244.52274
244.0913
243.65656
243.21957
242.78224
339.02341
334.74157
330.52626
326.3832
322.31863
318.33878
314.44983
310.65788
306.96881
303.38824
299.92141
296.57312
293.34767
290.24874
287.27942
284.44206
281.73833
279.16914
276.73465
274.43425
272.26662
270.2297
268.32076
266.53642
264.87273
263.32519
261.88883
260.5583
259.32787
258.19159
257.14327
256.1766
255.28521
254.46272
253.7028
252.99924
252.34599
251.73717
251.16718
250.63068
250.12264
249.63875
249.17471
248.72657
248.29075
247.86405
247.44369
247.02724
246.61259
246.19796
245.78182
245.36289
244.94016
244.51341
244.08295
243.64921
243.21348
338.98374
334.70336
330.48947
326.34777
322.28451
318.30591
314.41815
310.62733
306.93934
303.35979
299.89392
296.54655
293.32195
290.22384
287.25528
284.41864
281.71558
279.14702
276.71312
274.41328
272.24617
270.20974
268.30126
266.51735
264.85407
263.30692
261.87093
260.54074
259.31064
258.17467
257.12665
256.16027
255.26916
254.44695
253.6873
252.984
252.33099
251.72243
251.15269
250.61644
250.10864
249.62498
249.16119
248.71328
248.27769
247.85121
247.43106
247.01481
246.60038
246.186
245.77019
245.35172
244.92973
244.50393
244.07449
243.64184
243.20587
338.93872
334.65999
330.4477
326.30753
322.24575
318.26856
314.38215
310.59262
306.90585
303.32746
299.8627
296.51637
293.29277
290.1956
287.22793
284.39213
281.68987
279.12206
276.68886
274.38968
272.2232
270.18736
268.27944
266.49606
264.83327
263.28659
261.85105
260.52129
259.29161
258.15603
257.10838
256.14236
255.25161
254.42973
253.67041
252.96744
252.31475
251.7065
251.13707
250.60113
250.09363
249.61028
249.14678
248.69917
248.26386
247.83767
247.4178
247.00183
246.58769
246.17365
245.75825
245.34034
244.91911
244.49426
244.06593
243.63458
243.19926
338.88483
334.60808
330.39768
326.25935
322.19931
318.22381
314.33901
310.55102
306.86572
303.28873
299.8253
296.48025
293.25785
290.16182
287.19523
284.36046
281.65917
279.09227
276.65994
274.36159
272.19589
270.16078
268.25355
266.47084
264.80868
263.26259
261.82762
260.4984
259.26923
258.13414
257.08698
256.12142
255.23111
254.40966
253.65077
252.94821
252.29593
251.68807
251.11904
250.58348
250.07637
249.5934
249.13029
248.68305
248.24812
247.8223
247.4028
246.9872
246.57346
246.15985
245.74498
245.32773
244.90735
244.48357
244.05657
243.62704
243.19444
338.82143
334.54699
330.33882
326.20262
322.14465
318.17112
314.28822
310.50203
306.81846
303.24313
299.78127
296.43772
293.21675
290.12208
287.15678
284.32324
281.62311
279.05732
276.62604
274.32867
272.16391
270.12969
268.22331
266.4414
264.78
263.23464
261.80035
260.47179
259.24326
258.10878
257.0622
256.09721
255.20744
254.38653
253.62815
252.9261
252.27432
251.66696
251.0984
250.56332
250.05668
249.57418
249.11154
248.66477
248.2303
247.80494
247.38591
246.97079
246.55755
246.14449
245.73024
245.31376
244.89435
244.47178
244.04639
243.61919
338.74781
334.47604
330.27044
326.13673
322.08113
318.10989
314.22918
310.4451
306.76355
303.19013
299.73012
296.38832
293.16902
290.07595
287.11216
284.28006
281.5813
279.01681
276.58676
274.29057
272.12692
270.09376
268.18838
266.40742
264.74694
263.20244
261.76898
260.44122
259.21344
258.07969
257.03381
256.0695
255.18039
254.36011
253.60236
252.90091
252.24973
251.64295
251.07498
250.54047
250.03439
249.55246
249.09038
248.64417
248.21026
247.78546
247.367
246.95247
246.53983
246.12743
245.71392
245.29832
244.88
244.45884
244.03539
243.6103
338.6632
334.3945
330.19184
326.06097
322.00811
318.03949
314.1613
310.37964
306.70039
303.1292
299.6713
296.33153
293.11416
290.02293
287.06091
284.23047
281.53331
278.97033
276.54173
274.2469
272.08455
270.05263
268.14843
266.36859
264.70917
263.16569
261.73321
260.40637
259.17949
258.0466
257.00154
256.03803
255.1497
254.33018
253.57315
252.87243
252.22194
251.61586
251.04857
250.51473
250.00933
249.52806
249.06664
248.62109
248.18785
247.76373
247.34594
246.9321
246.52019
246.10855
245.69589
245.28128
244.86421
244.44473
244.02361
338.56678
334.30156
330.10225
325.9746
321.92485
317.95921
314.0839
310.30499
306.62839
303.05972
299.60425
296.26679
293.05164
289.96253
287.00252
284.17401
281.47867
278.91745
276.4905
274.19726
272.03641
270.00592
268.10308
266.32454
264.66636
263.12406
261.69271
260.36695
259.14111
258.00922
256.96513
256.00254
255.11511
254.29647
253.5403
252.84041
252.19075
251.58547
251.01897
250.48592
249.98129
249.50081
249.04016
248.59538
248.16291
247.73957
247.32258
246.90956
246.49848
246.08772
245.67602
245.26254
244.84693
244.42942
244.01033
338.45767
334.19637
330.00085
325.87684
321.83059
317.86834
313.99626
310.22047
306.54686
302.98106
299.52834
296.19351
292.98089
289.89418
286.93646
284.11015
281.41691
278.85767
276.43263
274.14119
271.98207
269.95322
268.05195
266.2749
264.61813
263.0772
261.64715
260.32263
259.09798
257.96724
256.92426
255.96275
255.07636
254.25872
253.50354
252.80461
252.1559
251.55155
250.98597
250.45382
249.95008
249.47049
249.01073
248.56685
248.13527
247.71284
247.29677
246.88469
246.47457
246.0648
245.65417
245.24196
244.82809
244.41299
338.33494
334.07804
329.88676
325.76684
321.72453
317.76606
313.89764
310.12535
306.45511
302.89255
299.44292
296.11107
292.90129
289.8173
286.86219
284.03836
281.34748
278.79051
276.36762
274.07824
271.92108
269.8941
267.9946
266.21925
264.56411
263.02472
261.59615
260.27306
259.04978
257.92035
256.87863
255.91835
255.03314
254.21666
253.4626
252.76478
252.11714
251.51385
250.94931
250.41819
249.91548
249.43691
248.97817
248.5353
248.10475
247.68335
247.26834
246.85733
246.4483
246.03964
245.63019
245.21942
244.80765
244.39461
338.19758
333.94559
329.75905
325.64369
321.60579
317.65156
313.78721
310.01885
306.35238
302.79344
299.3473
296.01878
292.81219
289.73126
286.77908
283.95804
281.26984
278.71542
276.29496
274.0079
271.85295
269.82808
267.9306
266.15717
264.50386
262.96623
261.53934
260.21786
258.99612
257.86818
256.8279
255.86901
254.98515
254.16997
253.41719
252.72061
252.0742
251.47211
250.90875
250.37881
249.87725
249.39983
248.94224
248.50053
248.07114
247.65092
247.2371
246.8273
246.4195
246.01206
245.6039
245.19477
244.78566
338.04455
333.79801
329.61672
325.50645
321.47344
317.52393
313.66413
309.90014
306.23788
302.68298
299.24072
295.91593
292.71291
289.6354
286.6865
283.86859
281.18339
278.63183
276.2141
273.92965
271.77718
269.75468
267.85946
266.08819
264.43696
262.9013
261.4763
260.15663
258.93664
257.81038
256.77171
255.81438
254.93204
254.11834
253.367
252.67182
252.02678
251.42605
250.86403
250.3354
249.83515
249.35903
248.90273
248.46232
248.03423
247.61534
247.20287
246.79444
246.38799
245.98191
245.57512
245.16775
244.76125
337.87471
333.6342
329.45874
325.35409
321.32651
317.38223
313.52747
309.76833
306.11074
302.56034
299.1224
295.80175
292.60271
289.52902
286.58376
283.76936
281.08749
278.53912
276.12444
273.84291
271.69322
269.67338
267.78069
266.01184
264.36292
262.82947
261.40659
260.08896
258.87092
257.74653
256.70969
255.75411
254.87346
254.06142
253.31169
252.61809
251.97459
251.37537
250.81484
250.28769
249.7889
249.31424
248.85939
248.42043
247.99381
247.5764
247.16544
246.75853
246.35361
245.949
245.54365
245.138
337.68688
333.45303
329.284
325.18555
321.16396
317.22546
313.37627
309.6225
305.97008
302.42465
298.9915
295.67545
292.48082
289.41136
286.47016
283.65963
280.98148
278.43667
276.02538
273.74709
271.60049
269.58361
267.69375
265.9276
264.28125
262.75027
261.32976
260.01439
258.79853
257.67624
256.64142
255.68779
254.80905
253.99885
253.25091
252.55907
251.91729
251.31977
250.76091
250.23539
249.73823
249.26519
248.81196
248.37461
247.94962
247.53386
247.12458
246.71938
246.31617
245.91319
245.50926
245.10357
337.47981
333.25327
329.09131
324.9997
320.98469
317.05256
313.20951
309.46166
305.81494
302.275
298.84713
295.53616
292.34641
289.28163
286.34491
283.53869
280.86466
278.32378
275.91626
273.64156
271.4984
269.4848
267.59807
265.83491
264.19143
262.6632
261.24531
259.93246
258.71902
257.59906
256.56649
255.61504
254.7384
253.93025
253.18431
252.49442
251.85456
251.25891
250.70189
250.17821
249.68286
249.21161
248.76017
248.32461
247.90142
247.48748
247.08006
246.67677
246.27551
245.87442
245.47212
245.06726
337.25217
333.03364
328.87944
324.79532
320.78756
316.86241
313.0261
309.28476
305.64431
302.11042
298.68836
295.38298
292.19861
289.13899
286.20723
283.40575
280.73627
278.19973
275.79637
273.52565
271.3863
269.37632
267.49306
265.73322
264.09291
262.56771
261.15273
259.84268
258.63191
257.51454
256.48445
255.53541
254.66111
253.85523
253.1115
252.42377
251.78602
251.19245
250.63748
250.11582
249.62246
249.1532
248.70373
248.27014
247.84893
247.437
247.03164
246.63051
246.23154
245.83271
245.43237
245.03031
337.00255
332.79281
328.64708
324.57117
320.57133
316.65383
312.82491
309.0907
305.45714
301.92987
298.51421
295.21498
292.03652
288.98257
286.05626
283.26001
280.59553
278.06379
275.66501
273.39867
271.26351
269.25754
267.37811
265.62193
263.98512
262.46327
261.0515
259.74452
258.53672
257.4222
256.39486
255.44848
254.57675
253.77337
253.03208
252.34673
251.71132
251.12004
250.56733
250.04789
249.55674
249.08966
248.64236
248.21094
247.7919
247.38216
246.97907
246.5804
246.18425
245.78824
245.3898
336.72948
332.52934
328.39288
324.32591
320.33472
316.42559
312.60474
308.87833
305.2523
301.7323
298.32362
295.03113
291.85915
288.81144
285.89111
283.1006
280.44162
277.91514
275.52141
273.25989
271.12934
269.12777
267.25256
265.5004
263.86744
262.34928
260.94104
259.63746
258.43291
257.32153
256.29722
255.35376
254.48487
253.68425
252.94564
252.26291
251.63007
251.04131
250.49108
249.97408
249.48535
249.02067
248.57575
248.14669
247.73002
247.32267
246.92206
246.52622
246.13379
245.74155
245.34215
336.43137
332.24176
328.11537
324.05815
320.07639
316.17636
312.36433
308.64643
305.02862
301.51655
298.11553
294.8304
291.66552
288.62463
285.71085
282.92662
280.27367
277.75297
275.36476
273.10854
270.98304
268.98631
267.11572
265.36799
263.73926
262.22515
260.82079
259.52093
258.31996
257.21202
256.19103
255.25079
254.38501
253.58741
252.85175
252.1719
251.54187
250.95588
250.40836
249.89405
249.40797
248.94591
248.50359
248.07711
247.663
247.25822
246.86031
246.46771
246.08059
336.10654
331.9285
327.81307
323.76644
319.79491
315.9048
312.10235
308.39372
304.78486
301.28144
297.88877
294.61169
291.45455
288.42111
285.51449
282.73714
280.09077
277.5764
275.19424
272.9438
270.82384
268.83241
266.96689
265.224
263.59991
262.09023
260.69013
259.39434
258.1973
257.09313
256.07578
255.13905
254.27668
253.48239
252.74996
252.07326
251.44631
250.86334
250.31881
249.80742
249.32424
248.86505
248.42555
248.00188
247.59054
247.18852
246.79341
246.4041
335.75335
331.58798
327.4844
323.44923
319.48881
315.60946
311.81742
308.11887
304.51975
301.02574
297.64214
294.37382
291.22513
288.19981
285.30101
282.53116
279.89199
277.38451
275.00897
272.76486
270.65095
268.66531
266.80532
265.06773
263.4487
261.94388
260.54842
259.2571
258.06434
256.96429
255.95092
255.01804
254.1594
253.36872
252.63981
251.96655
251.34297
250.7633
250.22201
249.71383
249.2338
248.77773
248.34132
247.92068
247.51234
247.11324
246.72091
246.33309
339.57891
335.37105
331.21856
327.12771
323.10493
319.15654
315.28883
311.50809
307.82047
304.23192
300.74814
297.37442
294.11562
290.97611
287.95964
285.06934
282.30766
279.67633
277.17638
274.80804
272.57083
270.46352
268.4842
266.63025
264.89844
263.28494
261.78541
260.39502
259.10857
257.92048
256.82494
255.81591
254.88722
254.03263
253.24591
252.52084
251.85132
251.23141
250.65534
250.11758
249.61288
249.13629
248.68361
248.25055
247.83321
247.42809
247.03214
246.64275
246.25708
339.15121
334.95692
330.81837
326.74126
322.73187
318.79647
314.94137
311.17285
307.49707
303.91999
300.44729
297.08428
293.83583
290.70629
287.69942
284.81836
282.06557
279.44278
276.95101
274.59051
272.36081
270.2607
268.28825
266.44088
264.71536
263.10789
261.61412
260.22926
258.94811
257.76511
256.67447
255.67016
254.74603
253.89587
253.11344
252.39254
251.7271
251.11118
250.53902
250.00511
249.50419
249.03134
248.58234
248.15291
247.73914
247.33753
246.94497
246.55881
246.176
338.68772
334.50889
330.38552
326.32325
322.3283
318.40693
314.56544
310.81013
307.14715
303.58247
300.12178
296.77038
293.53314
290.41442
287.41797
284.54694
281.80379
279.19027
276.70739
274.35541
272.13388
270.04158
268.07661
266.2364
264.51772
262.91679
261.4293
260.05045
258.77505
257.59759
256.51227
255.5131
254.59393
253.74857
252.9708
252.25444
251.59342
250.98183
250.41391
249.88417
249.38736
248.91856
248.47355
248.04805
247.63816
247.24035
246.85149
246.46891
246.0895
338.18697
334.02502
329.91809
325.87182
321.89242
317.98617
314.15937
310.41831
306.76916
303.21789
299.77017
296.43133
293.20622
290.0992
287.11405
284.25389
281.5212
278.91772
276.44448
274.10175
271.88907
269.80526
267.84841
266.01596
264.30471
262.71089
261.2302
259.85787
258.58873
257.41728
256.33774
255.34413
254.43034
253.59019
252.81747
252.10603
251.44981
250.8429
250.27958
249.75436
249.26199
248.79757
248.35689
247.93565
247.52995
247.13626
246.75145
246.37281
245.99725
337.64705
333.50333
329.41409
325.38504
321.42238
317.53241
313.72143
309.99573
306.36149
302.82468
299.39097
296.06569
292.85369
289.75933
286.78639
283.93799
281.21662
278.62402
276.16122
273.82851
271.62543
269.55081
267.60275
265.77872
264.07552
262.48941
261.0161
259.65083
258.38847
257.22352
256.15024
255.16266
254.2547
253.42018
252.65293
251.9468
251.29577
250.69394
250.13559
249.61525
249.12768
248.668
248.23199
247.81536
247.41421
247.02499
246.64458
246.27026
245.89898
337.06591
332.94173
328.87151
324.86095
320.91629
317.04381
313.24985
309.54068
305.9225
302.40127
298.98267
295.67201
292.47416
289.39347
286.43371
283.59802
280.88888
278.30804
275.85654
273.53466
271.34197
269.27729
267.33876
265.52383
263.82935
262.25157
260.78624
259.42862
258.17358
257.01568
255.94916
254.9681
254.06643
253.23801
252.47666
251.77629
251.13086
250.5345
249.98151
249.46644
248.98406
248.52949
248.09852
247.68687
247.29062
246.90626
246.53062
246.16102
245.79443
336.44136
332.33814
328.2883
324.29758
320.37222
316.51853
312.74284
309.05145
305.45054
301.94607
298.54373
295.24882
292.06621
289.00025
286.05472
283.23275
280.53681
277.96868
275.52937
273.2192
271.03772
268.98379
267.05554
265.25045
263.56539
261.99662
260.53991
259.19055
257.94343
256.79312
255.73391
254.75989
253.86501
253.04316
252.28819
251.594
250.95461
250.36415
249.81695
249.30755
248.83076
248.38169
247.95616
247.54986
247.15892
246.77978
246.40933
246.04485
245.68336
335.77126
331.69044
327.6624
323.69293
319.78826
315.95471
312.19863
308.52632
304.94395
301.4575
298.07264
294.79467
291.62846
288.57836
285.64815
282.84097
280.15927
277.60482
275.17867
272.88112
270.71175
268.6694
266.75225
264.95778
263.28288
261.72383
260.27641
258.93596
257.69738
256.55526
255.50393
254.53749
253.64993
252.83515
252.08704
251.39953
250.76663
250.18252
249.64153
249.13823
248.66745
248.2243
247.8046
247.40408
247.01883
246.64534
246.28048
245.92154
245.56557
335.05343
330.99653
326.99181
323.04505
319.16252
315.35054
311.61547
307.96361
304.40113
300.93401
297.56792
294.30815
291.15957
288.12651
285.21279
282.42152
279.75514
277.21543
274.80345
272.51949
270.36315
268.3333
266.4281
264.64507
262.98111
261.43253
259.99513
258.66427
257.43488
256.30158
255.25872
254.30044
253.42075
252.61358
251.87284
251.19249
250.56657
249.98927
249.45495
248.95821
248.49386
248.05707
247.64364
247.24931
246.87019
246.50276
246.14391
245.79094
245.4409
334.2858
330.25441
326.27457
322.35207
318.4932
314.70429
310.99169
307.36172
303.82056
300.37415
297.02818
293.78794
290.65829
287.64357
284.74754
281.97334
279.32343
276.79957
274.40281
272.13348
269.99116
267.97474
266.0824
264.31168
262.65949
261.12216
259.69554
258.37498
257.15547
256.03165
254.99789
254.04837
253.17713
252.37812
251.64529
250.97262
250.35418
249.78418
249.25702
248.76729
248.30984
247.87985
247.47313
247.08543
246.71287
246.35195
245.99954
245.65297
245.30929
333.46644
329.46222
325.50889
321.61227
317.77864
314.01436
310.32579
306.71923
303.20085
299.77662
296.4522
293.23289
290.12353
287.12846
284.25141
281.49554
278.86329
276.35645
273.97605
271.72242
269.59516
267.59317
265.71464
263.95713
262.31757
260.79234
259.37727
258.06778
256.85887
255.74521
254.72122
253.78109
252.91889
252.12863
251.40426
250.73981
250.12938
249.56719
249.04767
248.56543
248.11537
247.69264
247.29309
246.91247
246.54692
246.19295
245.84743
245.5077
245.17082
332.59368
328.61836
324.69325
320.82418
317.01747
313.27945
309.61651
306.03493
302.54091
299.14038
295.83902
292.64209
289.55445
286.58041
283.72371
280.98747
278.37417
275.88556
273.52269
271.2859
269.17479
267.18827
265.32456
263.58122
261.95521
260.44292
259.04025
257.74261
256.54505
255.44227
254.42872
253.49863
252.64612
251.86519
251.14988
250.4942
249.89231
249.33846
248.82709
248.35285
247.91064
247.49566
247.10374
246.73067
246.3726
246.02602
245.68785
245.35541
245.02577
331.66626
327.72163
323.82652
319.98676
316.20868
312.49864
308.86301
305.30808
301.84004
298.46482
295.18807
292.01507
288.95064
285.99909
283.16415
280.44893
277.8559
275.38681
273.04271
270.82395
268.73013
266.76017
264.91231
263.18414
261.57263
260.0742
258.68478
257.39981
256.21438
255.12323
254.12083
253.20146
252.35926
251.5883
250.88262
250.2363
249.6435
249.09852
248.59582
248.13008
247.69623
247.28948
246.90568
246.54063
246.19048
245.85177
245.52139
245.19668
244.87473
330.68358
326.77151
322.90823
319.09961
315.35197
311.67168
308.06511
304.53857
301.09821
297.74996
294.49948
291.352
288.31235
285.38481
282.57311
279.88035
277.30898
274.86076
272.53673
270.33724
268.2619
266.30964
264.47872
262.76674
261.17072
259.68709
258.3118
257.04036
255.86786
254.78909
253.79856
252.8906
252.05939
251.29903
250.60359
249.96719
249.38404
248.84847
248.35496
247.89824
247.47324
247.0752
246.69999
246.34342
246.00167
245.67127
245.34914
245.0326
244.71877
329.64606
325.76846
321.93893
318.16334
314.44801
310.79933
307.22366
303.7273
300.3164
296.99688
293.77436
290.65408
287.64083
284.73889
281.95197
279.28318
276.73494
274.309
272.00639
269.82745
267.77183
265.83845
264.02559
262.33088
260.75135
259.28348
257.92325
256.66619
255.50744
254.44183
253.46391
252.56806
251.74849
250.99934
250.31475
249.68886
249.11591
248.59027
248.10647
247.65925
247.24359
246.85474
246.48858
246.14095
245.80803
245.48639
245.17293
244.86499
244.55969
328.55564
324.71452
320.92073
317.18013
313.49907
309.88392
306.34106
302.87676
299.49717
296.20819
293.01543
289.92409
286.93895
284.06426
281.30372
278.66049
276.1369
273.73469
271.45489
269.29786
267.26322
265.34994
263.5563
261.87995
260.31796
258.86682
257.52256
256.28075
255.13657
254.08489
253.12032
252.23725
251.42997
250.69266
250.01949
249.40465
248.84243
248.32723
247.85362
247.41638
247.0105
246.63128
246.27459
245.93631
245.61264
245.30014
244.99574
244.69678
244.40039
327.41667
323.6141
319.85812
316.15456
312.50979
308.93019
305.42212
301.99185
298.64551
295.38898
292.22784
289.16727
286.21204
283.36638
280.63398
278.01786
275.52045
273.14345
270.88791
268.75415
266.74182
264.84988
263.07663
261.41975
259.87633
258.44291
257.11554
255.88984
254.76102
253.72402
252.77348
251.90385
251.10947
250.38456
249.72334
249.12005
248.56903
248.06472
247.60172
247.17484
246.77914
246.4099
246.06304
245.73445
245.42036
245.11733
244.82231
244.53263
244.24546
326.23705
322.47521
318.75919
315.09482
311.48848
307.94654
304.47536
301.08119
297.77013
294.54804
291.42048
288.39261
285.46915
282.65432
279.95177
277.36451
274.8949
272.54468
270.31487
268.2058
266.2171
264.34776
262.59609
260.95978
259.43596
258.02121
256.71161
255.50282
254.39012
253.36847
252.43259
251.57698
250.79601
250.08397
249.43514
248.84381
248.30434
247.81124
247.35916
246.94294
246.55766
246.19866
245.86186
245.54317
245.23885
244.94548
244.66002
244.37979
244.102
325.0301
321.31127
317.63751
314.01462
310.44896
306.94693
303.51485
300.15897
296.88535
293.69983
290.60793
287.61478
284.72506
281.94296
279.2721
276.71549
274.27532
271.95349
269.75094
267.66799
265.70428
263.85878
262.12984
260.51517
259.01193
257.61673
256.3257
255.13455
254.03861
253.03289
252.11216
251.27099
250.50381
249.80496
249.16877
248.5896
248.06187
247.58012
247.13906
246.73357
246.35877
246.01003
245.68328
245.37449
245.07991
244.79616
244.52019
244.24935
243.98089
323.81707
320.14373
316.51472
312.93576
309.41325
305.95355
302.56298
299.24775
296.0139
292.86724
289.81323
286.85697
284.00309
281.25572
278.6184
276.09407
273.68535
271.39362
269.2199
267.16452
265.22712
263.40669
261.70159
260.10956
258.62778
257.2529
255.9811
254.80814
253.72941
252.73998
251.83468
251.00813
250.25484
249.56922
248.94566
248.37857
247.86243
247.39184
246.96156
246.56653
246.2019
245.8631
245.54605
245.24676
244.96152
244.68695
244.42005
244.15814
243.89856
322.63078
319.00567
315.42417
311.89189
308.41524
305.00058
301.65419
298.38225
295.19076
292.08547
289.0718
286.1548
283.33904
280.62858
278.02695
275.5371
273.16141
270.90144
268.75812
266.73175
264.82197
263.02776
261.34751
259.77896
258.31935
256.96535
255.71321
254.55873
253.49736
252.52424
251.63428
250.82216
250.08246
249.40966
248.79823
248.24264
247.73745
247.27731
246.85705
246.47165
246.11633
245.78654
245.47823
245.18746
244.91055
244.64413
244.38523
244.13118
243.87942
321.52013
317.94641
314.41561
310.93318
307.50554
304.13903
300.83988
297.61424
294.46806
291.40701
288.43646
285.56138
282.78629
280.11518
277.55154
275.09824
272.7575
270.53102
268.41968
266.42375
264.5428
262.77586
261.12128
259.57685
258.13984
256.80697
255.57453
254.43839
253.39406
252.43677
251.56149
250.76299
250.03593
249.37487
248.77436
248.22895
247.73328
247.28207
246.87022
246.49278
246.14501
245.82243
245.521
245.23684
244.9663
244.70606
244.45312
244.2049
243.95905
320.55536
317.03682
313.56052
310.13172
306.75682
303.44215
300.19388
297.01809
293.92066
290.9072
287.98299
285.1529
282.42138
279.79234
277.26916
274.85463
272.55092
270.35976
268.28202
266.31789
264.46686
262.72799
261.09965
259.57964
258.16525
256.85328
255.64003
254.52146
253.49317
252.55046
251.68839
250.90183
250.18551
249.53411
248.94225
248.4046
247.91588
247.4709
247.06464
246.69221
246.34897
246.03047
245.73272
245.45191
245.18441
244.92693
244.67652
244.43079
319.83271
316.37391
312.95671
309.5861
306.26846
303.01004
299.81699
296.69528
293.65069
290.68875
287.81463
285.03309
282.34847
279.76457
277.28468
274.91148
272.64707
270.49297
268.45029
266.5192
264.69885
262.98856
261.38663
259.8908
258.49847
257.20648
256.01116
254.90854
253.89431
252.9639
252.11246
251.33495
250.62622
249.98105
249.39417
248.86037
248.37446
247.9314
247.52623
247.15417
246.81066
246.49133
246.19222
245.90962
245.63994
245.3799
245.12661
319.4755
316.08191
312.72927
309.42224
306.16715
302.9702
299.83742
296.77468
293.78765
290.88173
288.06194
285.33294
282.6989
280.16351
277.72993
275.40073
273.17791
271.06283
269.05627
267.15855
265.36962
263.68802
262.11216
260.63951
259.26789
257.99409
256.81448
255.72511
254.72179
253.80012
252.95537
252.1826
251.47676
250.83277
250.24549
249.70982
249.22073
248.77329
248.3627
247.98428
247.63356
247.30628
246.99854
246.70672
246.42728
246.15696
319.62727
316.30492
313.02281
309.78522
306.59841
303.46848
300.40134
297.40273
294.47817
291.63288
288.87175
286.19926
283.61943
281.13579
278.75136
276.46857
274.28929
272.21479
270.2457
268.38217
266.62386
264.96973
263.41815
261.96732
260.61417
259.3557
258.18848
257.10864
256.1118
255.19402
254.35062
253.57679
252.86763
252.21818
251.62346
251.07849
250.57839
250.11836
249.69381
249.30022
248.93321
248.58866
248.2627
247.95188
247.65278
247.36302
320.43019
317.18458
313.97834
310.81539
307.70186
304.64373
301.64677
298.71655
295.85843
293.07745
290.3783
287.7653
285.24227
282.81258
280.47907
278.24404
276.10922
274.07576
272.14422
270.3146
268.58636
266.95844
265.42927
263.99687
262.65855
261.41133
260.25188
259.17653
258.18144
257.26191
256.41359
255.63191
254.91218
254.24962
253.63939
253.07669
252.55676
252.07484
251.62666
251.20784
250.81414
250.44158
250.08638
249.74523
249.41485
249.09328
321.98498
318.81897
315.69119
312.60525
309.56714
306.5827
303.65756
300.7971
298.00651
295.29065
292.65401
290.10072
287.63444
285.25836
282.97514
280.78693
278.69532
276.70135
274.80548
273.00763
271.30718
269.70299
268.19345
266.7765
265.44959
264.20981
263.05388
261.97821
260.97892
260.05176
259.19241
258.39642
257.65925
256.97628
256.34289
255.75448
255.20649
254.69453
254.21398
253.76066
253.33059
252.91993
252.52507
252.14277
251.76993
251.40489
324.29659
321.20748
318.15506
315.14283
312.17663
309.26219
306.40498
303.61025
300.88302
298.22796
295.64943
293.15138
290.73735
288.41036
286.17293
284.02704
281.97415
280.0152
278.15055
276.38006
274.70306
273.11837
271.62438
270.21911
268.89998
267.66405
266.50808
265.42851
264.42154
263.48312
262.60906
261.79502
261.03659
260.32928
259.6686
259.05007
258.46926
257.92184
257.40348
256.91011
256.43782
255.98292
255.54191
255.11154
254.68891
254.27256
327.2236
324.20046
321.21211
318.26222
315.35656
312.50078
309.70022
306.96003
304.28508
301.67996
299.14887
296.6957
294.32414
292.03692
289.83634
287.72425
285.70202
283.77047
281.92995
280.18024
278.52066
276.95001
275.46661
274.06827
272.75259
271.51676
270.3576
269.27166
268.25522
267.30434
266.41491
265.58269
264.80332
264.07242
263.38554
262.73828
262.12628
261.54525
260.99103
260.45959
259.9471
259.44989
258.96451
258.4877
258.01656
257.54966
330.4593
327.48242
324.53833
321.6312
318.76703
315.95128
313.18914
310.48568
307.84571
305.27376
302.77397
300.35005
298.00501
295.74188
293.56312
291.47067
289.4659
287.54965
285.72226
283.98352
282.33274
280.76875
279.2899
277.89411
276.57894
275.34157
274.17884
273.08732
272.06333
271.10296
270.20215
269.35666
268.5622
267.81436
267.10874
266.44094
265.80661
265.20147
264.62135
264.06223
263.52022
262.99165
262.47306
261.96114
261.4528
260.94643
333.56654
330.61027
327.68513
324.79574
321.94748
319.14613
316.39729
313.70621
311.07785
308.51679
306.02722
303.6129
301.27711
299.0227
296.85204
294.76698
292.76887
290.85852
289.03626
287.30186
285.65463
284.0934
282.61654
281.22199
279.90731
278.6697
277.50602
276.41286
275.38654
274.42316
273.51866
272.66882
271.86931
271.11573
270.40364
269.72861
269.08623
268.47218
267.88222
267.31222
266.75825
266.21652
265.68347
265.1557
264.62985
264.10366
336.05194
333.08755
330.1537
327.25583
324.39976
321.59123
318.8358
316.13877
313.50513
310.93948
308.44604
306.02857
303.69038
301.43427
299.26257
297.17708
295.1791
293.2694
291.44826
289.71542
288.07017
286.51132
285.03724
283.64586
282.33476
281.10113
279.94186
278.85353
277.83248
276.87483
275.97649
275.13325
274.34074
273.59456
272.89022
272.22323
271.58914
270.98352
270.40204
269.84048
269.29478
268.76104
268.23554
267.71463
267.1944
337.50035
334.51057