/*--------------------------------*- C++ -*----------------------------------*\
| =========                 |                                                 |
| \\      /  F ield         | OpenFOAM: The Open Source CFD Toolbox           |
|  \\    /   O peration     | Version:  2312                                  |
|   \\  /    A nd           | Website:  www.openfoam.com                      |
|    \\/     M anipulation  |                                                 |
\*---------------------------------------------------------------------------*/
FoamFile
{
    version     2.0;
    format      ascii;
    arch        "LSB;label=32;scalar=64";
    class       surfaceScalarField;
    location    "0.03";
    object      phi;
}
// * * * * * * * * * * * * * * * * * * * * * * * * * * * * * * * * * * * * * //

dimensions      [1 0 -1 0 0 0 0];

oriented        oriented;

internalField   nonuniform List<scalar> 
6378
(
4.0104421e-08
1.4236748e-10
3.8840663e-08
1.2328217e-10
3.7605025e-08
1.0521045e-10
3.6396555e-08
8.8111285e-11
3.521421e-08
7.1995886e-11
3.4056895e-08
5.6851252e-11
3.2923471e-08
4.2670027e-11
3.181276e-08
2.945324e-11
3.0723539e-08
1.7171001e-11
2.965454e-08
5.8265248e-12
2.8604464e-08
-4.6159907e-12
2.7571976e-08
-1.4157225e-11
2.6555713e-08
-2.2836611e-11
2.5554286e-08
-3.0656976e-11
2.4566288e-08
-3.7660361e-11
2.3590291e-08
-4.3850884e-11
2.2624857e-08
-4.9272303e-11
2.1668539e-08
-5.3929337e-11
2.0719885e-08
-5.7866456e-11
1.9777443e-08
-6.1087398e-11
1.8839767e-08
-6.363583e-11
1.7905416e-08
-6.5513992e-11
1.6972963e-08
-6.6763961e-11
1.6041e-08
-6.7385284e-11
1.5108135e-08
-6.7417306e-11
1.4173002e-08
-6.6856778e-11
1.3234264e-08
-6.573989e-11
1.2290616e-08
-6.405977e-11
1.1340788e-08
-6.1848587e-11
1.0383551e-08
-5.9096017e-11
9.4177182e-09
-5.5830065e-11
8.4421519e-09
-5.203653e-11
7.4557655e-09
-4.7739318e-11
6.4575279e-09
-4.2919461e-11
5.4464674e-09
-3.7598447e-11
4.4216764e-09
-3.1756773e-11
3.3823143e-09
-2.5412703e-11
2.3276132e-09
-1.8548861e-11
1.2568802e-09
-1.1185784e-11
1.6950363e-10
-3.3099972e-12
-9.3504529e-10
5.0504648e-12
-2.0572079e-09
1.3902264e-11
-3.1973392e-09
2.3213509e-11
-4.355702e-09
3.298045e-11
-5.5324742e-09
4.3161769e-11
-6.7277527e-09
5.3755646e-11
-7.9415309e-09
6.4682075e-11
-9.1737702e-09
7.5953212e-11
-1.0424472e-08
8.8008069e-11
-1.1693333e-08
1.0048211e-10
-1.2979984e-08
1.1424022e-10
-1.4283724e-08
1.2973988e-10
-1.5603471e-08
1.4715855e-10
-1.6938397e-08
1.6542609e-10
-1.8287945e-08
1.840162e-10
-1.9651436e-08
2.0261455e-10
-2.1027921e-08
2.2092651e-10
2.3870309e-10
4.0110855e-08
9.2364407e-10
3.8847164e-08
8.7731268e-10
3.7611591e-08
8.3284615e-10
3.640318e-08
7.9018985e-10
3.5220879e-08
7.4939961e-10
3.4063592e-08
7.1047657e-10
3.293018e-08
6.7342971e-10
3.181947e-08
6.3827065e-10
3.0730235e-08
6.0498849e-10
2.9661214e-08
5.735954e-10
2.8611104e-08
5.4406695e-10
2.7578573e-08
5.1640412e-10
2.6562258e-08
4.9057477e-10
2.5560771e-08
4.6657353e-10
2.4572704e-08
4.4436231e-10
2.3596632e-08
4.2393052e-10
2.2631115e-08
4.0523523e-10
2.1674709e-08
3.8826183e-10
2.0725959e-08
3.7296388e-10
1.9783418e-08
3.5932477e-10
1.8845635e-08
3.4729651e-10
1.7911175e-08
3.3686151e-10
1.6978608e-08
3.2797133e-10
1.6046528e-08
3.206089e-10
1.5113541e-08
3.1472675e-10
1.4178286e-08
3.1030876e-10
1.3239423e-08
3.0730899e-10
1.2295649e-08
3.057132e-10
1.1345693e-08
3.0547795e-10
1.0388329e-08
3.0659085e-10
9.422368e-09
3.0901108e-10
8.4466761e-09
3.1272844e-10
7.4601647e-09
3.1770412e-10
6.4618055e-09
3.2393242e-10
5.4506253e-09
3.3137426e-10
4.4257196e-09
3.4002181e-10
3.3862463e-09
3.4983889e-10
2.3314404e-09
3.6081358e-10
1.2606072e-09
3.729062e-10
1.7313816e-10
3.8610012e-10
-9.3149768e-10
4.0034784e-10
-2.0537397e-09
4.1562562e-10
-3.1939447e-09
4.3188179e-10
-4.3523738e-09
4.4908293e-10
-5.5292048e-09
4.6717006e-10
-6.7245235e-09
4.8611178e-10
-7.9383435e-09
5.0581005e-10
-9.1706113e-09
5.2625608e-10
-1.0421241e-08
5.479009e-10
-1.1689979e-08
5.7026288e-10
-1.2976433e-08
5.9416902e-10
-1.4279931e-08
6.1995221e-10
-1.5599493e-08
6.4778929e-10
-1.6934325e-08
6.767168e-10
-1.8283838e-08
7.0615371e-10
-1.9647326e-08
7.3568988e-10
-2.1023825e-08
7.6497392e-10
7.938261e-10
4.012071e-08
1.7060247e-09
3.8857127e-08
1.63247e-09
3.7621645e-08
1.5616201e-09
3.6413297e-08
1.4934352e-09
3.5231035e-08
1.4279898e-09
3.4073766e-08
1.3653085e-09
3.2940347e-08
1.3054192e-09
3.1829609e-08
1.2483361e-09
3.0740325e-08
1.1940749e-09
2.9671238e-08
1.1426479e-09
2.8621042e-08
1.0940515e-09
2.7588413e-08
1.0482789e-09
2.6571982e-08
1.0053146e-09
2.5570369e-08
9.651412e-10
2.458216e-08
9.2773386e-10
2.3605937e-08
8.9306623e-10
2.2640257e-08
8.6110547e-10
2.1683681e-08
8.3181773e-10
2.073475e-08
8.0516408e-10
1.9792023e-08
7.8110558e-10
1.8854047e-08
7.5959944e-10
1.791939e-08
7.4060316e-10
1.6986619e-08
7.2407159e-10
1.6054335e-08
7.0996052e-10
1.512114e-08
6.9822396e-10
1.4185678e-08
6.8881678e-10
1.3246605e-08
6.8169294e-10
1.2302625e-08
6.7680747e-10
1.1352462e-08
6.7411514e-10
1.0394897e-08
6.7357133e-10
9.4287381e-09
6.7513177e-10
8.4528555e-09
6.7875263e-10
7.4661586e-09
6.8439153e-10
6.4676239e-09
6.9200148e-10
5.4562755e-09
7.015422e-10
4.4312144e-09
7.1296726e-10
3.3915956e-09
7.2623105e-10
2.3366594e-09
7.4128364e-10
1.2657083e-09
7.5807461e-10
1.7813869e-10
7.7654883e-10
-9.2658343e-10
7.9664753e-10
-2.0488926e-09
8.1830827e-10
-3.1891497e-09
8.4146834e-10
-4.3476109e-09
8.6605605e-10
-5.5244559e-09
8.9200225e-10
-6.7197613e-09
9.1923641e-10
-7.9335398e-09
9.4765407e-10
-9.1657385e-09
9.7723212e-10
-1.0416211e-08
1.0083778e-09
-1.1684718e-08
1.0405726e-09
-1.2970852e-08
1.0745619e-09
-1.4273978e-08
1.1105602e-09
-1.5593208e-08
1.1487108e-09
-1.6927786e-08
1.1881413e-09
-1.8277086e-08
1.22823e-09
-1.9640379e-08
1.2684861e-09
-2.1016674e-08
1.3084983e-09
1.3482289e-09
4.0134064e-08
2.4896808e-09
3.8870574e-08
2.3889424e-09
3.7635152e-08
2.2917347e-09
3.6426837e-08
2.1980524e-09
3.5244574e-08
2.1079784e-09
3.4087273e-08
2.0215707e-09
3.2953789e-08
1.9388679e-09
3.1842958e-08
1.8598875e-09
3.0753554e-08
1.7846737e-09
2.9684323e-08
1.7132346e-09
2.8633961e-08
1.6455913e-09
2.7601144e-08
1.5817263e-09
2.6584505e-08
1.5216436e-09
2.5582667e-08
1.465311e-09
2.4594217e-08
1.4127197e-09
2.3617739e-08
1.3638248e-09
2.265179e-08
1.3186063e-09
2.1694934e-08
1.2770084e-09
2.0745714e-08
1.2390023e-09
1.9802688e-08
1.2045244e-09
1.8864406e-08
1.1735391e-09
1.7929439e-08
1.1459773e-09
1.6996354e-08
1.1217986e-09
1.6063752e-08
1.1009303e-09
1.5130239e-08
1.0833292e-09
1.419446e-08
1.0689199e-09
1.3255072e-08
1.0576574e-09
1.2310781e-08
1.0494649e-09
1.1360314e-08
1.0442961e-09
1.040245e-08
1.0420736e-09
9.4360013e-09
1.04275e-09
8.4598396e-09
1.0462473e-09
7.4728755e-09
1.0525174e-09
6.4740876e-09
1.0614795e-09
5.4625017e-09
1.0730841e-09
4.4372204e-09
1.087249e-09
3.3974007e-09
1.1039183e-09
2.3422842e-09
1.1230051e-09
1.2711759e-09
1.1444468e-09
1.8347268e-10
1.168151e-09
-9.2135695e-10
1.1940462e-09
-2.0437475e-09
1.222033e-09
-3.1840572e-09
1.2520353e-09
-4.3425415e-09
1.2839449e-09
-5.5193762e-09
1.3176797e-09
-6.7146337e-09
1.3531311e-09
-7.9283261e-09
1.3901946e-09
-9.1603953e-09
1.4288323e-09
-1.0410628e-08
1.4693497e-09
-1.1678825e-08
1.5112988e-09
-1.2964553e-08
1.5552604e-09
-1.426721e-08
1.6013656e-09
-1.5585991e-08
1.6496989e-09
-1.6920179e-08
1.6994584e-09
-1.8269133e-08
1.7499914e-09
-1.9632064e-08
1.8007035e-09
-2.1007931e-08
1.8511609e-09
4.0150548e-08
3.2748812e-09
3.8887038e-08
3.1469904e-09
3.7651566e-08
3.0234452e-09
3.6443157e-08
2.9042893e-09
3.5260768e-08
2.7896284e-09
3.4103305e-08
2.6795392e-09
3.2969624e-08
2.5740447e-09
3.1858562e-08
2.4731989e-09
3.0768897e-08
2.3770585e-09
2.9699376e-08
2.285633e-09
2.8648698e-08
2.1989625e-09
2.761554e-08
2.1170256e-09
2.659854e-08
2.0398388e-09
2.559632e-08
1.9673622e-09
2.4607471e-08
1.8995957e-09
2.3630578e-08
1.8364833e-09
2.2664201e-08
1.7780102e-09
2.1706902e-08
1.7241065e-09
2.0757232e-08
1.6747454e-09
1.9813747e-08
1.6298466e-09
1.8875001e-08
1.5893742e-09
1.7939563e-08
1.5532397e-09
1.7006008e-08
1.5214004e-09
1.6072934e-08
1.4937622e-09
1.5138952e-08
1.4702773e-09
1.4202706e-08
1.4508476e-09
1.3262859e-08
1.4354214e-09
1.2318114e-08
1.4238977e-09
1.1367204e-08
1.4162218e-09
1.0408908e-08
1.4122904e-09
9.4420422e-09
1.4120459e-09
8.4654775e-09
1.4153833e-09
7.4781296e-09
1.4222417e-09
6.4789765e-09
1.4325126e-09
5.4670491e-09
1.4461312e-09
4.441449e-09
1.4629857e-09
3.4013385e-09
1.4830034e-09
2.3459583e-09
1.5060664e-09
1.2746184e-09
1.5320937e-09
1.8671507e-10
1.560962e-09
-9.182784e-10
1.5925803e-09
-2.0407975e-09
1.6268184e-09
-3.1811956e-09
1.663581e-09
-4.3397289e-09
1.7027287e-09
-5.516566e-09
1.7441591e-09
-6.7117782e-09
1.7877329e-09
-7.925371e-09
1.8333415e-09
-9.1572729e-09
1.8809279e-09
-1.0407245e-08
1.9306858e-09
-1.1675079e-08
1.9822508e-09
-1.2960346e-08
2.0360441e-09
-1.4262476e-08
2.0921133e-09
-1.5580736e-08
2.1504708e-09
-1.6914441e-08
2.2103554e-09
-1.8262927e-08
2.2710799e-09
-1.962541e-08
2.3320088e-09
2.3927238e-09
3.5567576e-08
3.9717473e-09
3.4448636e-08
3.8198494e-09
3.3354483e-08
3.6730207e-09
3.2284259e-08
3.5313279e-09
3.1237045e-08
3.3949093e-09
3.0211869e-08
3.2638462e-09
2.9207733e-08
3.1382105e-09
2.8223595e-08
3.0180317e-09
2.7258379e-08
2.9033835e-09
2.631097e-08
2.7942835e-09
2.5380225e-08
2.6907805e-09
2.4464968e-08
2.5928582e-09
2.3564002e-08
2.5005355e-09
2.2676103e-08
2.4137746e-09
2.1800032e-08
2.3325744e-09
2.093453e-08
2.2568779e-09
2.0078333e-08
2.186666e-09
1.9230163e-08
2.1218653e-09
1.8388742e-08
2.0624419e-09
1.7552791e-08
2.0083096e-09
1.6721036e-08
1.9594231e-09
1.5892207e-08
1.9156861e-09
1.5065048e-08
1.8770444e-09
1.4238316e-08
1.8433943e-09
1.3410787e-08
1.8146748e-09
1.2581257e-08
1.7907766e-09
1.174855e-08
1.7716331e-09
1.0911514e-08
1.7571309e-09
1.0069033e-08
1.7471987e-09
9.220025e-09
1.7417194e-09
8.3634468e-09
1.7406173e-09
7.4982967e-09
1.743772e-09
6.6236205e-09
1.751103e-09
5.7385114e-09
1.7624852e-09
4.8421172e-09
1.7778322e-09
3.9336403e-09
1.7970139e-09
3.0123449e-09
1.8199345e-09
2.0775568e-09
1.8464567e-09
1.1286706e-09
1.8764754e-09
1.6514976e-10
1.9098469e-09
-8.1346675e-10
1.9464562e-09
-1.8075666e-09
1.9861527e-09
-2.8174568e-09
2.028816e-09
-3.8433654e-09
2.0742862e-09
-4.8854355e-09
2.1224358e-09
-5.9437331e-09
2.1731078e-09
-7.0182517e-09
2.2261771e-09
-8.1089081e-09
2.2815628e-09
-9.2154878e-09
2.3393758e-09
-1.0337794e-08
2.3993138e-09
-1.1475455e-08
2.4616642e-09
-1.2627995e-08
2.526409e-09
-1.3794823e-08
2.5934886e-09
-1.4975362e-08
2.6621556e-09
-1.6169004e-08
2.7316784e-09
-1.737503e-08
2.8014196e-09
2.8710817e-09
3.6573167e-08
4.6897049e-09
3.5422978e-08
4.5131596e-09
3.4298227e-08
4.3424299e-09
3.3198026e-08
4.1776233e-09
3.2121433e-08
4.0188864e-09
3.1067451e-08
3.8663108e-09
3.0035054e-08
3.719977e-09
2.9023175e-08
3.5799559e-09
2.8030711e-08
3.4463118e-09
2.7056524e-08
3.3190664e-09
2.6099437e-08
3.1982795e-09
2.5158246e-08
3.0839409e-09
2.4231723e-08
2.9760718e-09
2.3318613e-08
2.8746367e-09
2.2417643e-08
2.7796331e-09
2.1527525e-08
2.6910033e-09
2.0646958e-08
2.6087235e-09
1.9774634e-08
2.5327169e-09
1.8909242e-08
2.4629423e-09
1.8049468e-08
2.3993075e-09
1.7194005e-08
2.3417573e-09
1.634155e-08
2.2901876e-09
1.5490816e-08
2.2445323e-09
1.4640525e-08
2.204678e-09
1.3789423e-08
2.1705498e-09
1.2936274e-08
2.1420273e-09
1.2079871e-08
2.1190284e-09
1.1219033e-08
2.1014269e-09
1.0352615e-08
2.0891343e-09
9.4795056e-09
2.0820196e-09
8.598636e-09
2.0799882e-09
7.7089781e-09
2.0829042e-09
6.8095533e-09
2.0906664e-09
5.8994312e-09
2.1031329e-09
4.9777382e-09
2.120195e-09
4.0436559e-09
2.1417037e-09
3.0964303e-09
2.1675396e-09
2.1353698e-09
2.1975451e-09
1.1598542e-09
2.2315902e-09
1.6933312e-10
2.2695109e-09
-8.3666545e-10
2.3111665e-09
-1.8585387e-09
2.3563859e-09
-2.8966008e-09
2.4050227e-09
-3.9510848e-09
2.4568959e-09
-5.0221355e-09
2.5118518e-09
-6.1098176e-09
2.5697139e-09
-7.2141192e-09
2.6303398e-09
-8.3349469e-09
2.6936206e-09
-9.4720788e-09
2.7595884e-09
-1.0625295e-08
2.8279839e-09
-1.1794227e-08
2.8989774e-09
-1.2978415e-08
2.9724821e-09
-1.4177299e-08
3.0483606e-09
-1.5390297e-08
3.1258453e-09
-1.661679e-08
3.2041855e-09
-1.7856005e-08
3.282757e-09
3.3615296e-09
3.7613676e-08
5.4296412e-09
3.643117e-08
5.2278132e-09
3.527475e-08
5.0325717e-09
3.4143518e-08
4.8440495e-09
3.3036499e-08
4.6624148e-09
3.1952676e-08
4.4877719e-09
3.0890998e-08
4.3202174e-09
2.9850368e-08
4.1598076e-09
2.882966e-08
4.0066687e-09
2.7827704e-08
3.8607961e-09
2.6843298e-08
3.7222616e-09
2.5875207e-08
3.5910639e-09
2.492217e-08
3.4672251e-09
2.3982902e-08
3.3507133e-09
2.3056097e-08
3.2415236e-09
2.2140434e-08
3.1395984e-09
2.123458e-08
3.0449085e-09
2.0337191e-08
2.9573745e-09
1.9446924e-08
2.8769465e-09
1.856243e-08
2.8035274e-09
1.768237e-08
2.7370509e-09
1.6805406e-08
2.6774059e-09
1.5930217e-08
2.6245128e-09
1.5055493e-08
2.5782496e-09
1.4179948e-08
2.538526e-09
1.3302313e-08
2.5052113e-09
1.2421349e-08
2.4782061e-09
1.1535846e-08
2.4573726e-09
1.0644629e-08
2.4426034e-09
9.7465571e-09
2.4337542e-09
8.8405343e-09
2.4307098e-09
7.9255054e-09
2.4333196e-09
7.0004672e-09
2.4414601e-09
6.0644648e-09
2.4549732e-09
5.1166024e-09
2.4737261e-09
4.1560401e-09
2.4975515e-09
3.1820049e-09
2.5263044e-09
2.1937869e-09
2.5598078e-09
1.1907503e-09
2.597905e-09
1.7233031e-10
2.6404117e-09
-8.6195711e-10
2.6871604e-09
-1.9125197e-09
2.7379595e-09
-2.9796792e-09
2.7926352e-09
-4.0636745e-09
2.8509852e-09
-5.1646536e-09
2.9128284e-09
-6.2826822e-09
2.9779694e-09
-7.4177417e-09
3.0462416e-09
-8.5697285e-09
3.1175071e-09
-9.738421e-09
3.1917277e-09
-1.0923581e-08
3.2686652e-09
-1.2124839e-08
3.3483762e-09
-1.3341758e-08
3.4307168e-09
-1.4573817e-08
3.5154666e-09
-1.582043e-08
3.6018024e-09
-1.7080924e-08
3.6889511e-09
-1.835446e-08
3.776356e-09
3.8689821e-08
6.1925414e-09
3.7473822e-08
5.9647685e-09
3.6284588e-08
5.7443794e-09
3.512118e-08
5.5315431e-09
3.3982608e-08
5.3264203e-09
3.2867824e-08
5.1291424e-09
3.1775759e-08
4.9398111e-09
3.0705286e-08
4.7585084e-09
2.9655252e-08
4.5853353e-09
2.862446e-08
4.4203417e-09
2.761168e-08
4.263581e-09
2.6615643e-08
4.1150703e-09
2.5635062e-08
3.9748235e-09
2.4668613e-08
3.8428211e-09
2.3714964e-08
3.7190472e-09
2.2772756e-08
3.6034534e-09
2.1840625e-08
3.4959958e-09
2.091719e-08
3.3966012e-09
2.0001077e-08
3.3052023e-09
1.90909e-08
3.2217056e-09
1.8185286e-08
3.1460249e-09
1.7282863e-08
3.0780501e-09
1.6382278e-08
3.0176801e-09
1.5482184e-08
2.9647916e-09
1.4581263e-08
2.9192711e-09
1.3678213e-08
2.8809846e-09
1.2771765e-08
2.849808e-09
1.1860675e-08
2.8255982e-09
1.0943739e-08
2.808222e-09
1.0019785e-08
2.7975278e-09
9.0876918e-09
2.7933732e-09
8.1463732e-09
2.7955984e-09
7.1948031e-09
2.8040514e-09
6.231999e-09
2.8185624e-09
5.2570444e-09
2.8389694e-09
4.2690752e-09
2.8650909e-09
3.2673004e-09
2.896751e-09
2.2509896e-09
2.9337573e-09
1.2194921e-09
2.9759213e-09
1.7222608e-10
3.0230424e-09
-8.9130331e-10
3.0749211e-09
-1.9715166e-09
3.1313489e-09
-3.0687425e-09
3.1921201e-09
-4.1832282e-09
3.2570144e-09
-5.3151238e-09
3.3258188e-09
-6.4644974e-09
3.3983209e-09
-7.6313257e-09
3.4743248e-09
-8.8155003e-09
3.5536633e-09
-1.0016794e-08
3.6362263e-09
-1.1234958e-08
3.7217829e-09
-1.2469627e-08
3.8102825e-09
-1.3720396e-08
3.9015285e-09
-1.4986769e-08
3.9951983e-09
-1.6268161e-08
4.0904062e-09
-1.7563842e-08
4.1863573e-09
4.2826959e-09
3.9802885e-08
6.9793808e-09
3.8552196e-08
6.725022e-09
3.7328941e-08
6.4788638e-09
3.6132177e-08
6.2410898e-09
3.4960879e-08
6.0118802e-09
3.3813981e-08
5.7913832e-09
3.2690382e-08
5.5797101e-09
3.1588936e-08
5.3769635e-09
3.0508458e-08
5.1832365e-09
2.9447725e-08
4.9986159e-09
2.8405477e-08
4.8231415e-09
2.7380414e-08
4.6568482e-09
2.6371215e-08
4.4997452e-09
2.5376528e-08
4.3518224e-09
2.4394985e-08
4.2130564e-09
2.3425193e-08
4.083404e-09
2.2465754e-08
3.962811e-09
2.1515255e-08
3.8512059e-09
2.0572283e-08
3.7485085e-09
1.9635419e-08
3.6546239e-09
1.8703256e-08
3.5694507e-09
1.7774385e-08
3.492875e-09
1.6847419e-08
3.4247784e-09
1.5920977e-08
3.3650315e-09
1.4993707e-08
3.3135018e-09
1.4064274e-08
3.2700472e-09
1.3131376e-08
3.2345233e-09
1.2193736e-08
3.2067767e-09
1.125012e-08
3.1866524e-09
1.0299327e-08
3.1739866e-09
9.3402039e-09
3.1686141e-09
8.371639e-09
3.1703604e-09
7.392577e-09
3.1790494e-09
6.4020127e-09
3.1944946e-09
5.3990028e-09
3.2165087e-09
4.3826633e-09
3.2448908e-09
3.3521799e-09
3.2794384e-09
2.3068053e-09
3.319938e-09
1.2458691e-09
3.366174e-09
1.6877631e-10
3.4179238e-09
-9.2498395e-10
3.4749604e-09
-2.0358413e-09
3.5370528e-09
-3.164136e-09
3.6039674e-09
-4.3101198e-09
3.6754609e-09
-5.4739501e-09
3.7512926e-09
-6.6556948e-09
3.8312274e-09
-7.8553301e-09
3.9150408e-09
-9.0727396e-09
4.0025291e-09
-1.0307701e-08
4.0935198e-09
-1.1559953e-08
4.187763e-09
-1.2829141e-08
4.2851092e-09
-1.4114894e-08
4.3853119e-09
-1.5416746e-08
4.4879349e-09
-1.6734087e-08
4.5920084e-09
-1.8066139e-08
4.6967688e-09
4.0954173e-08
7.7911857e-09
3.966758e-08
7.509587e-09
3.8409118e-08
7.2370182e-09
3.7177807e-08
6.973691e-09
3.5972605e-08
6.7197903e-09
3.4792425e-08
6.4754816e-09
3.3636137e-08
6.2408949e-09
3.2502572e-08
6.0161458e-09
3.1390517e-08
5.8013419e-09
3.0298722e-08
5.5965656e-09
2.9225893e-08
5.4018795e-09
2.8170703e-08
5.2173211e-09
2.7131797e-08
5.0429038e-09
2.6107792e-08
4.8786171e-09
2.5097282e-08
4.7244403e-09
2.4098847e-08
4.5803257e-09
2.3111047e-08
4.4462184e-09
2.2132439e-08
4.3220391e-09
2.1161571e-08
4.2077037e-09
2.0196993e-08
4.1031068e-09
1.9237256e-08
4.0081407e-09
1.8280922e-08
3.9226785e-09
1.7326563e-08
3.8465931e-09
1.6372769e-08
3.7797402e-09
1.5418148e-08
3.7219765e-09
1.4461335e-08
3.6731431e-09
1.3500991e-08
3.633083e-09
1.2535812e-08
3.6016243e-09
1.1564526e-08
3.5785976e-09
1.0585906e-08
3.5638192e-09
9.598765e-09
3.5571074e-09
8.6019668e-09
3.5582663e-09
7.5944253e-09
3.5671014e-09
6.5751123e-09
3.5834029e-09
5.5430569e-09
3.6069635e-09
4.4973548e-09
3.637557e-09
3.4371676e-09
3.6749586e-09
2.3617307e-09
3.7189288e-09
1.2703534e-09
3.7692286e-09
1.6242688e-10
3.8256084e-09
-9.6257596e-10
3.8878175e-09
-2.1050946e-09
3.9555976e-09
-3.2654809e-09
4.0286911e-09
-4.4439924e-09
4.1068268e-09
-5.6407932e-09
4.1897396e-09
-6.8559519e-09
4.2771668e-09
-8.0894467e-09
4.3688573e-09
-9.3411569e-09
4.4645634e-09
-1.0610862e-08
4.5640513e-09
-1.1898293e-08
4.6670341e-09
-1.3203117e-08
4.7732714e-09
-1.4524992e-08
4.8824548e-09
-1.5863494e-08
4.9940445e-09
-1.7217973e-08
5.1069673e-09
5.2206204e-09
4.2144958e-08
8.6289486e-09
4.0821263e-08
8.3194873e-09
3.9526382e-08
8.0198825e-09
3.8259336e-08
7.7303662e-09
3.7019054e-08
7.4511585e-09
3.5804424e-08
7.1824391e-09
3.4614292e-08
6.9243552e-09
3.3447461e-08
6.6770396e-09
3.2302694e-08
6.4406085e-09
3.1178708e-08
6.2151549e-09
3.0074182e-08
6.0007478e-09
2.8987757e-08
5.7974357e-09
2.7918046e-08
5.6052319e-09
2.6863631e-08
5.4241314e-09
2.5823076e-08
5.2541102e-09
2.4794921e-08
5.0951225e-09
2.3777697e-08
4.9471065e-09
2.276992e-08
4.8099812e-09
2.1770106e-08
4.6836524e-09
2.0776766e-08
4.5680104e-09
1.9788419e-08
4.4629346e-09
1.8803586e-08
4.3682912e-09
1.7820808e-08
4.2839382e-09
1.6838636e-08
4.2097219e-09
1.5855646e-08
4.1454823e-09
1.4870435e-08
4.0910491e-09
1.3881634e-08
4.0462466e-09
1.2887901e-08
4.01089e-09
1.1887938e-08
3.9847894e-09
1.0880481e-08
3.9677461e-09
9.8643164e-09
3.9595565e-09
8.8382764e-09
3.9600078e-09
7.8012493e-09
3.9688816e-09
6.7521782e-09
3.985949e-09
5.6900692e-09
4.0109784e-09
4.613992e-09
4.0437215e-09
3.5230888e-09
4.0839265e-09
2.4165724e-09
4.1313316e-09
1.2937358e-09
4.1856696e-09
1.5395153e-10
4.2466678e-09
-1.0033196e-09
4.3140469e-09
-2.1785315e-09
4.3875248e-09
-3.372044e-09
4.4668152e-09
-4.5841241e-09
4.5516227e-09
-5.8149398e-09
4.6416537e-09
-7.0645657e-09
4.7366209e-09
-8.3329783e-09
4.8362387e-09
-9.6200598e-09
4.9402186e-09
-1.0925592e-08
5.0482584e-09
-1.2249306e-08
5.1600209e-09
-1.3590887e-08
5.2751708e-09
-1.4950036e-08
5.3933385e-09
-1.6326342e-08
5.5138627e-09
-1.7719132e-08
5.6356292e-09
4.3376244e-08
9.4937313e-09
4.2014251e-08
9.155751e-09
4.0681787e-08
8.82846e-09
3.9377832e-08
8.5121339e-09
3.8101302e-08
8.2070014e-09
3.6851061e-08
7.9132691e-09
3.5625932e-08
7.631101e-09
3.4424692e-08
7.360648e-09
3.3246075e-08
7.1020371e-09
3.2088772e-08
6.8553768e-09
3.0951432e-08
6.6207266e-09
2.9832661e-08
6.3981632e-09
2.8731041e-08
6.1876933e-09
2.7645121e-08
5.9893179e-09
2.6573432e-08
5.8030105e-09
2.5514478e-08
5.6287271e-09
2.4466754e-08
5.466399e-09
2.3428741e-08
5.3159433e-09
2.2398919e-08
5.1772562e-09
2.1375762e-08
5.0502228e-09
2.0357752e-08
4.9347101e-09
1.9343376e-08
4.8305768e-09
1.8331137e-08
4.7376661e-09
1.731955e-08
4.6558146e-09
1.6307156e-08
4.5848453e-09
1.5292517e-08
4.5245761e-09
1.427423e-08
4.4748129e-09
1.3250919e-08
4.4353567e-09
1.2221253e-08
4.4059975e-09
1.1183938e-08
4.3865209e-09
1.0137727e-08
4.3767012e-09
9.0814248e-09
4.376308e-09
8.01389e-09
4.3850995e-09
6.9340401e-09
4.4028284e-09
5.8408539e-09
4.4292316e-09
4.7333786e-09
4.464045e-09
3.6107332e-09
4.506988e-09
2.4721103e-09
4.5577749e-09
1.3167838e-09
4.6161105e-09
1.4410999e-10
4.6816977e-09
-1.0464657e-09
4.754229e-09
-2.2554089e-09
4.8333969e-09
-3.48309e-09
4.9188868e-09
-4.7297836e-09
5.0103779e-09
-5.995664e-09
5.1075483e-09
-7.2808096e-09
5.2100839e-09
-8.5852028e-09
5.3176665e-09
-9.9087279e-09
5.4299589e-09
-1.1251173e-08
5.5465886e-09
-1.2612272e-08
5.6671513e-09
-1.3991732e-08
5.7912106e-09
-1.5389296e-08
5.9183379e-09
-1.6804579e-08
6.0477516e-09
6.1784118e-09
4.4648814e-08
1.038655e-08
4.3247354e-08
1.0019409e-08
4.1876118e-08
9.6638031e-09
4.0534091e-08
9.320023e-09
3.9220154e-08
8.988347e-09
3.7933154e-08
8.6689924e-09
3.6671883e-08
8.362151e-09
3.5435097e-08
8.0679835e-09
3.4221499e-08
7.7866358e-09
3.3029754e-08
7.5182177e-09
3.185848e-08
7.2628135e-09
3.0706252e-08
7.0204935e-09
2.9571617e-08
6.7912727e-09
2.8453096e-08
6.5751511e-09
2.7349178e-08
6.3721094e-09
2.625834e-08
6.1820965e-09
2.5179035e-08
6.0050456e-09
2.4109712e-08
5.8408632e-09
2.3048811e-08
5.6894441e-09
2.1994774e-08
5.5506601e-09
2.0946041e-08
5.4243737e-09
1.9901067e-08
5.3104281e-09
1.8858314e-08
5.2086592e-09
1.7816265e-08
5.1188859e-09
1.6773422e-08
5.0409217e-09
1.5728315e-08
4.9745652e-09
1.4679501e-08
4.9196101e-09
1.3625577e-08
4.8758369e-09
1.2565172e-08
4.8430212e-09
1.1496965e-08
4.8209263e-09
1.0419675e-08
4.8093102e-09
9.3320791e-09
4.8079187e-09
8.2330048e-09
4.8164912e-09
7.121344e-09
4.8347545e-09
5.9960486e-09
4.8624257e-09
4.8561428e-09
4.8992126e-09
3.7007211e-09
4.9448115e-09
2.5289571e-09
4.9989084e-09
1.3401039e-09
5.0611838e-09
1.3350238e-10
5.1313117e-09
-1.0914182e-09
5.2089591e-09
-2.3351346e-09
5.2937899e-09
-3.5980287e-09
5.3854632e-09
-4.8803814e-09
5.4836294e-09
-6.1823753e-09
5.5879411e-09
-7.5040936e-09
5.6980545e-09
-8.8455251e-09
5.8136177e-09
-1.0206564e-08
5.9342442e-09
-1.158701e-08
6.0594866e-09
-1.2986601e-08
6.1888498e-09
-1.4405067e-08
6.3217991e-09
-1.5842174e-08
6.45782e-09
-1.7297584e-08
6.5960716e-09
4.5963166e-08
1.1308474e-08
4.452107e-08
1.0911507e-08
4.3109928e-08
1.052693e-08
4.1728676e-08
1.0155076e-08
4.0376188e-08
9.7962345e-09
3.9051282e-08
9.4506547e-09
3.7752733e-08
9.1185461e-09
3.6479265e-08
8.8000898e-09
3.5229559e-08
8.4954421e-09
3.4002246e-08
8.2047271e-09
3.2795922e-08
7.9280391e-09
3.1609122e-08
7.6654539e-09
3.0440366e-08
7.4169855e-09
2.9288139e-08
7.1826438e-09
2.8150899e-08
6.9624078e-09
2.7027082e-08
6.7562278e-09
2.5915112e-08
6.5640303e-09
2.4813396e-08
6.3857199e-09
2.3720341e-08
6.2211811e-09
2.2634349e-08
6.0702808e-09
2.1553827e-08
5.9328689e-09
2.0477189e-08
5.8087807e-09
1.9402863e-08
5.6978368e-09
1.8329293e-08
5.5998464e-09
1.7254948e-08
5.5146052e-09
1.6178319e-08
5.4418996e-09
1.5097933e-08
5.3815041e-09
1.4012346e-08
5.3331848e-09
1.292016e-08
5.2966962e-09
1.1820015e-08
5.2717855e-09
1.0710606e-08
5.2581875e-09
9.5906735e-09
5.25563e-09
8.4590204e-09
5.2638273e-09
7.3145076e-09
5.282486e-09
6.1560642e-09
5.3112964e-09
4.9826868e-09
5.3499439e-09
3.7934494e-09
5.3980959e-09
2.5875023e-09
5.4554145e-09
1.3640815e-09
5.5215506e-09
1.2250881e-10
5.5961532e-09
-1.1377995e-09
5.6788593e-09
-2.4173345e-09
5.7693071e-09
-3.7164859e-09
5.8671252e-09
-5.0355448e-09
5.9719387e-09
-6.374698e-09
6.0833696e-09
-7.7340382e-09
6.2010483e-09
-9.1135655e-09
6.3245875e-09
-1.0513189e-08
6.4535491e-09
-1.1932723e-08
6.5874039e-09
-1.3371914e-08
6.7255501e-09
-1.4830509e-08
6.8673482e-09
-1.6308303e-08
7.0121993e-09
7.1592622e-09
4.7319633e-08
1.2260523e-08
4.5835767e-08
1.1833085e-08
4.438356e-08
1.1418908e-08
4.2961946e-08
1.1018344e-08
4.1569769e-08
1.0631719e-08
4.0205824e-08
1.025931e-08
3.8868864e-08
9.9013422e-09
3.7557586e-08
9.558022e-09
3.6270647e-08
9.2295125e-09
3.5006647e-08
8.9159583e-09
3.3764154e-08
8.617457e-09
3.2541669e-08
8.3340922e-09
3.1337682e-08
8.0658748e-09
3.0150644e-08
7.8128324e-09
2.8978981e-08
7.5749374e-09
2.782109e-08
7.3521449e-09
2.6675362e-08
7.1443709e-09
2.5540166e-08
6.9515213e-09
2.4413873e-08
6.7734673e-09
2.3294846e-08
6.610074e-09
2.2181458e-08
6.4611755e-09
2.1072083e-08
6.3266019e-09
1.9965115e-08
6.2061561e-09
1.8858959e-08
6.099639e-09
1.7752048e-08
6.006827e-09
1.6642837e-08
5.9274956e-09
1.5529818e-08
5.8613981e-09
1.4411513e-08
5.8082874e-09
1.328649e-08
5.7678956e-09
1.2153357e-08
5.739954e-09
1.1010775e-08
5.7241736e-09
9.8574573e-09
5.7202639e-09
8.6921755e-09
5.7279138e-09
7.5137634e-09
5.7468087e-09
6.3211236e-09
5.7766125e-09
5.113228e-09
5.8169871e-09
3.8891272e-09
5.8675712e-09
2.6479508e-09
5.9280015e-09
1.3889147e-09
5.9979e-09
1.1132449e-10
6.0768888e-09
-1.1854194e-09
6.1645759e-09
-2.5018191e-09
6.2605713e-09
-3.8382755e-09
6.3644745e-09
-5.1950855e-09
6.4758816e-09
-6.5724453e-09
6.5943874e-09
-7.9704553e-09
6.7195922e-09
-9.3891304e-09
6.8510741e-09
-1.0828404e-08
6.9883465e-09
-1.2288125e-08
7.1308011e-09
-1.3768038e-08
7.2776941e-09
-1.5267884e-08
7.4282801e-09
-1.678748e-08
7.5819091e-09
4.8718404e-08
1.324377e-08
4.7191633e-08
1.278521e-08
4.5697248e-08
1.2340788e-08
4.4234145e-08
1.1910897e-08
4.280115e-08
1.1495879e-08
4.1397041e-08
1.109604e-08
4.0020541e-08
1.0711628e-08
3.867033e-08
1.0342867e-08
3.7345032e-08
9.9899384e-09
3.6043226e-08
9.652998e-09
3.4763447e-08
9.3321591e-09
3.350416e-08
9.0274927e-09
3.226383e-08
8.7390233e-09
3.1040876e-08
8.4667922e-09
2.9833682e-08
8.2107721e-09
2.8640619e-08
7.9709127e-09
2.7460032e-08
7.7471286e-09
2.6290262e-08
7.5393178e-09
2.5129639e-08
7.3473477e-09
2.3976491e-08
7.1710722e-09
2.2829151e-08
7.0103186e-09
2.1685959e-08
6.8649031e-09
2.0545269e-08
6.7346192e-09
1.9405451e-08
6.6192513e-09
1.82649e-08
6.5185637e-09
1.7122037e-08
6.4323136e-09
1.5975316e-08
6.3602401e-09
1.4823228e-08
6.3020757e-09
1.3664303e-08
6.2575361e-09
1.2497119e-08
6.2263304e-09
1.1320304e-08
6.2081514e-09
1.0132542e-08
6.2026842e-09
8.9325724e-09
6.2095972e-09
7.7192042e-09
6.2285497e-09
6.4913115e-09
6.2591821e-09
5.2478425e-09
6.3011299e-09
3.9878233e-09
6.3540052e-09
2.7103635e-09
6.4174157e-09
1.4146583e-09
6.4909572e-09
9.9997244e-11
6.5742215e-09
-1.2342349e-09
6.6667895e-09
-2.5885515e-09
6.76824e-09
-3.963363e-09
6.8781438e-09
-5.3589738e-09
6.9960665e-09
-6.7755865e-09
7.1215738e-09
-8.2133132e-09
7.2542356e-09
-9.6721944e-09
7.393601e-09
-1.1152191e-08
7.5391252e-09
-1.2653202e-08
7.6901416e-09
-1.4174945e-08
7.8457066e-09
-1.5717197e-08
8.0050549e-09
8.1674706e-09
5.0159609e-08
1.4259252e-08
4.8588827e-08
1.376894e-08
4.7051143e-08
1.3293652e-08
4.5545436e-08
1.2833816e-08
4.4070509e-08
1.2389804e-08
4.2625115e-08
1.1961943e-08
4.1207959e-08
1.1550505e-08
3.9817696e-08
1.1155733e-08
3.8452923e-08
1.0777826e-08
3.7112187e-08
1.0416959e-08
3.5794004e-08
1.0073273e-08
3.4496802e-08
9.746761e-09
3.3219019e-08
9.4375367e-09
3.1959037e-08
9.1456315e-09
3.0715207e-08
8.871015e-09
2.9485863e-08
8.6136327e-09
2.8269317e-08
8.3733968e-09
2.7063871e-08
8.150199e-09
2.586782e-08
7.9439014e-09
2.4679455e-08
7.7543487e-09
2.3497071e-08
7.5813595e-09
2.2318971e-08
7.424738e-09
2.1143471e-08
7.2842659e-09
1.9968906e-08
7.1597133e-09
1.8793632e-08
7.0508303e-09
1.7616036e-08
6.9573574e-09
1.6434536e-08
6.8790172e-09
1.5247586e-08
6.8155236e-09
1.4053685e-08
6.7665737e-09
1.2851378e-08
6.7318562e-09
1.1639259e-08
6.711043e-09
1.0415981e-08
6.7037968e-09
9.1802564e-09
6.7097631e-09
7.930864e-09
6.7285766e-09
6.6666533e-09
6.7598547e-09
5.3865452e-09
6.8031992e-09
4.0895442e-09
6.8582019e-09
2.7747374e-09
6.9244405e-09
1.4413015e-09
7.001482e-09
8.8507962e-11
7.0888892e-09
-1.2842721e-09
7.1862133e-09
-2.6775643e-09
7.2930024e-09
-4.091788e-09
7.4087968e-09
-5.5272536e-09
7.5331293e-09
-6.9841719e-09
7.6655356e-09
-8.4626709e-09
7.8055557e-09
-9.9628109e-09
7.9526976e-09
-1.148462e-08
8.1063933e-09
-1.3028008e-08
8.2658623e-09
-1.4592731e-08
8.4300346e-09
-1.6178519e-08
8.5981013e-09
8.7694895e-09
5.1643332e-08
1.5308034e-08
5.0027452e-08
1.4785354e-08
4.8445376e-08
1.4278592e-08
4.6895965e-08
1.3788211e-08
4.5378001e-08
1.3314612e-08
4.3890215e-08
1.2858146e-08
4.2431293e-08
1.2419108e-08
4.0999864e-08
1.1997761e-08
3.9594504e-08
1.159432e-08
3.8213735e-08
1.1208971e-08
3.6856017e-08
1.0841846e-08
3.5519789e-08
1.0493034e-08
3.4203441e-08
1.0162564e-08
3.2905319e-08
9.8505005e-09
3.1623742e-08
9.5568144e-09
3.0357007e-08
9.2814501e-09
2.9103393e-08
9.0243156e-09
2.7861166e-08
8.7852992e-09
2.6628582e-08
8.5642558e-09
2.5403897e-08
8.3610228e-09
2.4185369e-08
8.1754085e-09
2.2971262e-08
8.0072066e-09
2.1759856e-08
7.8561857e-09
2.0549449e-08
7.7221025e-09
1.9338361e-08
7.6046916e-09
1.8124941e-08
7.5036778e-09
1.6907572e-08
7.418766e-09
1.5684674e-08
7.349652e-09
1.4454712e-08
7.2960137e-09
1.3216196e-08
7.2575191e-09
1.196769e-08
7.233819e-09
1.0707816e-08
7.2245534e-09
9.4352572e-09
7.2293443e-09
8.1487632e-09
7.2478016e-09
6.8471564e-09
7.2795165e-09
5.5293341e-09
7.3240654e-09
4.1942765e-09
7.3810109e-09
2.8410495e-09
7.4499025e-09
1.4688101e-09
7.5302787e-09
7.6812987e-11
7.6216719e-09
-1.3355853e-09
7.7236036e-09
-2.7689218e-09
7.8355898e-09
-4.2236233e-09
7.9571377e-09
-5.7000077e-09
8.0877466e-09
-7.1982929e-09
8.226918e-09
-8.7186211e-09
8.3741557e-09
-1.0261091e-08