/*--------------------------------*- C++ -*----------------------------------*\
| =========                 |                                                 |
| \\      /  F ield         | OpenFOAM: The Open Source CFD Toolbox           |
|  \\    /   O peration     | Version:  2312                                  |
|   \\  /    A nd           | Website:  www.openfoam.com                      |
|    \\/     M anipulation  |                                                 |
\*---------------------------------------------------------------------------*/
FoamFile
{
    version     2.0;
    format      ascii;
    arch        "LSB;label=32;scalar=64";
    class       volScalarField;
    location    "0.03";
    object      T;
}
// * * * * * * * * * * * * * * * * * * * * * * * * * * * * * * * * * * * * * //

dimensions      [0 0 0 1 0 0 0];

internalField   nonuniform List<scalar> 
3251
(
708.85127
709.67746
710.35975
710.89193
711.2686
711.48481
711.53603
711.41802
711.12695
710.65928
710.01185
709.18184
708.16675
706.96445
705.57312
703.99126
702.21769
700.25151
698.09213
695.73925
693.19283
690.45312
687.52066
684.39623
681.08094
677.57619
673.88365
670.00536
665.94367
661.70129
657.28129
652.68714
647.92271
642.99227
637.90054
632.65267
627.25424
621.71128
616.03026
610.21811
604.28213
598.23008
592.07007
585.81055
579.46032
573.02845
566.52421
559.95701
553.33634
546.67165
539.97227
533.24647
526.50114
519.7483
513.00039
506.26684
499.55644
492.87769
708.84218
709.66902
710.35167
710.88417
711.26117
711.47775
711.52934
711.41172
711.12103
710.65376
710.00674
709.17713
708.16245
706.96056
705.56964
703.98819
702.21502
700.24925
698.09027
695.73778
693.19175
690.45242
687.52032
684.39625
681.08131
677.57688
673.88466
670.00668
665.94527
661.70316
657.28342
652.6895
647.92529
642.99506
637.90351
632.6558
627.25751
621.71468
616.03377
610.2217
604.2858
598.23379
592.0738
585.81427
579.46399
573.03202
566.52762
559.96019
553.33922
546.67416
539.97433
533.24822
526.50392
519.75264
513.00576
506.27288
499.56279
492.88379
708.82283
709.65006
710.33283
710.86537
711.24242
711.45907
711.51073
711.39322
711.10265
710.63552
709.98865
709.15921
708.14473
706.94306
705.55237
703.97116
702.19826
700.23277
698.07409
695.72191
693.17621
690.43722
687.50548
684.38177
681.06721
677.56316
673.87134
669.99375
665.93275
661.69105
657.27171
652.67821
647.91441
642.98459
637.89345
632.64615
627.24827
621.70583
616.02532
610.21363
604.2781
598.22645
592.0668
585.80759
579.45761
573.02589
566.52169
559.95441
553.33354
546.66853
539.96874
533.24293
526.49987
519.7502
513.00467
506.27283
499.56349
492.88512
708.79349
709.62075
710.30336
710.83567
711.21248
711.42889
711.48035
711.36265
711.07193
710.60468
709.95772
709.12823
708.11372
706.91206
705.52142
703.94031
702.16753
700.2022
698.04372
695.69178
693.14635
690.40767
687.47627
684.35294
681.03878
677.53518
673.84383
669.96673
665.90626
661.6651
657.24633
652.65342
647.89022
642.96103
637.87053
632.62388
627.22666
621.68489
616.00505
610.19404
604.25919
598.20822
592.04924
585.79068
579.44133
573.01021
566.50658
559.93984
553.31946
546.65494
539.95566
533.23066
526.48908
519.74119
512.99729
506.26683
499.55863
492.88224
708.75431
709.58125
710.2634
710.79518
711.17145
711.38734
711.43831
711.32014
711.029
710.56137
709.91408
709.0843
708.06956
706.86772
705.47695
703.89577
702.12298
700.15769
697.99932
695.64754
693.10233
690.36393
687.43286
684.30992
680.99621
677.4931
673.80229
669.92579
665.86596
661.62548
657.20745
652.6153
647.85291
642.92455
637.83492
632.58917
627.19286
621.65204
615.97317
610.16313
604.22927
598.17929
592.0213
585.76373
579.41535
572.98519
566.48249
559.91665
553.29717
546.63356
539.93525
533.2115
526.47167
519.72578
512.98379
506.255
499.54811
708.70817
709.53448
710.21591
710.74691
711.1224
711.33752
711.38775
711.26889
710.9771
710.50887
709.86104
709.03078
708.01563
706.81343
705.42239
703.84099
702.06806
700.10271
697.94434
695.59265
693.0476
690.30943
687.37867
684.25611
680.94285
677.44026
673.75004
669.8742
665.81508
661.57539
657.15819
652.56694
647.80549
642.87812
637.78953
632.54485
627.14966
621.60999
615.93228
610.12345
604.19081
598.14206
591.98531
585.72899
579.38185
572.95292
566.45144
559.88681
553.26853
546.60616
539.90919
533.187
526.44909
519.70531
512.9654
506.23842
499.53232
708.65648
709.48194
710.16244
710.69247
711.06698
711.28115
711.33046
711.21071
710.9181
710.4491
709.80056
708.96967
707.95395
706.75127
705.35982
703.7781
702.00493
700.03943
697.88099
695.52932
692.98438
690.24641
687.31594
684.19376
680.88096
677.37891
673.68932
669.81418
665.75585
661.51701
657.10073
652.51047
647.75008
642.82383
637.7364
632.49294
627.09902
621.56066
615.8843
610.07684
604.1456
598.09828
591.94297
585.6881
579.34241
572.91493
566.4149
559.85171
553.2349
546.57402
539.87864
533.15825
526.42241
519.68085
512.94314
506.21814
499.5134
708.59523
709.41955
710.09883
710.62761
711.00088
711.21383
711.26196
711.14108
710.84739
710.3774
709.72794
708.89621
707.87974
706.6764
705.28439
703.70221
701.92868
699.96293
697.80435
695.45264
692.90778
690.16999
687.23981
684.11803
680.80573
677.30429
673.61541
669.74108
665.68365
661.44581
657.03062
652.44153
647.68239
642.75746
637.67143
632.42943
627.03703
621.50023
615.8255
610.01971
604.09016
598.04457
591.89101
585.63791
579.294
572.8683
566.37005
559.80866
553.19366
546.53464
539.84123
533.12299
526.38953
519.65049
512.91529
506.19266
499.49043
708.52375
709.34661
710.02438
710.55161
710.92333
711.13477
711.18143
711.05917
710.76414
710.2929
709.64229
708.8095
707.79209
706.58791
705.19516
703.61238
701.83837
699.87226
697.71345
695.36165
692.81681
690.07919
687.1493
684.02795
680.7162
677.21545
673.52736
669.65396
665.59756
661.36087
656.94694
652.35921
647.60153
642.67815
637.59376
632.35348
626.96286
621.42793
615.75511
609.95129
604.02376
597.98022
591.82875
585.57775
579.23597
572.81242
566.31632
559.75709
553.14428
546.48751
539.79644
533.08072
526.34998
519.61378
512.8814
506.16154
708.44133
709.26241
709.93831
710.46366
710.83353
711.04314
711.08804
710.96409
710.66747
710.1947
709.54269
708.70861
707.69003
706.48481
705.09117
703.50762
701.73299
699.76641
697.60728
695.25531
692.71047
689.97299
687.0434
683.92249
680.61135
677.11135
673.42417
669.55181
665.49659
661.26122
656.84873
652.26257
647.50656
642.58498
637.50248
632.26419
626.87566
621.34289
615.67231
609.87079
603.94561
597.90448
591.75545
585.50693
579.16766
572.74662
566.25306
559.69639
553.08617
546.43205
539.74372
533.03091
526.30324
519.57021
512.84093
506.12392
708.34724
709.16615
709.83982
710.36295
710.7306
710.93806
710.98088
710.85493
710.55641
710.08184
709.42815
708.59254
707.57256
706.36609
704.97135
703.38687
701.61148
699.6443
697.48476
695.13256
692.58765
689.8503
686.92101
683.80059
680.4901
676.99094
673.30476
669.43357
665.37969
661.1458
656.73496
652.15058
647.3965
642.47697
637.39665
632.16065
626.77451
621.24423
615.57622
609.77735
603.8549
597.81655
591.67035
585.4247
579.08833
572.67022
566.17962
559.62593
553.01872
546.36766
539.6825
532.97298
526.24877
519.51922
512.79332
708.24069
709.05701
709.72806
710.24858
710.61366
710.8186
710.85899
710.7307
710.42995
709.95327
709.29764
708.46022
707.43859
706.23064
704.83461
703.24902
701.4727
699.50481
697.34475
694.99223
692.44722
689.70997
686.78098
683.66107
680.35131
676.85306
673.168
669.29812
665.24574
661.01353
656.60454
652.02219
647.27029
642.35309
637.27525
632.04185
626.65845
621.131
615.46593
609.6701
603.75076
597.71558
591.57262
585.33026
578.99722
572.58249
566.09529
559.54503
552.94128
546.29372
539.61214
532.90633
526.18595
519.46021
512.73772
708.12084
708.93412
709.60212
710.11962
710.48173
710.68378
710.72135
710.59037
710.28706
709.808
709.15006
708.31054
707.28699
706.07733
704.67978
703.09288
701.31548
699.34673
697.18604
694.83312
692.28795
689.55077
686.6221
683.50274
680.19376
676.69652
673.0127
669.14428
665.09357
660.86325
656.45634
651.87626
647.12682
642.21226
637.1372
631.90676
626.52643
621.0022
615.34047
609.54807
603.63226
597.60069
591.46141
585.22279
578.89354
572.48265
565.99932
559.45297
552.85315
546.20955
539.53199
532.83029
526.11413
519.39257
707.98678
708.79654
709.46105
709.97508
710.3338
710.53254
710.56691
710.43285
710.1266
709.64477
708.98423
708.14231
707.11656
705.90492
704.50562
702.91721
701.13855
699.16879
697.00736
694.65395
692.10856
689.37143
686.44309
683.32431
680.01618
676.52005
672.8376
668.97079
664.92195
660.69373
656.28915
651.71161
646.96493
642.05331
636.9814
631.75426
626.3774
620.85679
615.1988
609.41027
603.49843
597.47094
591.33581
585.10141
578.77644
572.36988
565.89093
559.34899
552.7536
546.11445
539.44134
532.74415
526.03261
519.31535
707.83754
708.64329
709.30381
709.81393
710.16879
710.36378
710.39452
710.25697
709.9474
709.46241
708.79892
707.95427
706.92603
705.71214
704.31084
702.7207
700.94059
698.96966
696.80735
694.45337
691.9077
689.1706
686.24258
683.12443
679.81722
676.32231
672.64136
668.77635
664.72957
660.50368
656.10169
651.52699
646.78337
641.87505
636.80663
631.58319
626.21022
620.69365
615.03986
609.25565
603.34827
597.32533
591.19485
584.96518
578.64502
572.24333
565.7693
559.23231
552.64188
546.00766
539.33944
532.64716
525.94066
707.6721
708.47332
709.12936
709.63505
709.98558
710.17634
710.203
710.06153
709.74821
709.25967
708.59285
707.74513
706.71407
705.49762
704.09406
702.50196
700.7202
698.74793
696.58462
694.22996
691.68395
688.94684
686.01915
682.90167
679.59547
676.10189
672.4226
668.55956
664.51507
660.29175
655.89263
651.32107
646.58087
641.6762
636.61167
631.39234
626.02368
620.51162
614.8625
609.08312
603.18069
597.16283
591.03753
584.81315
578.49834
572.10208
565.63354
559.10208
552.51718
545.88841
539.22552
532.53844
525.83721
707.48939
708.28554
708.93655
709.43729
709.78297
709.96901
709.9911
709.84523
709.52772
709.03521
708.36463
707.5135
706.47927
705.25996
703.85385
702.25954
700.47591
698.50213
696.33767
693.98223
691.43581
688.69867
685.77133
682.65456
679.34945
675.85733
672.17985
668.31898
664.27699
660.05652
655.66056
651.09248
646.35604
641.45542
636.39521
631.18043
625.81655
620.30947
614.66553
608.8915
602.99457
596.98235
590.8628
584.64427
578.33541
571.94518
565.48274
558.95743
552.37865
545.75589
539.09874
532.41712
707.28831
708.07879
708.7242
709.21942
709.5597
709.74048
709.75749
709.60673
709.28456
708.78764
708.11304
707.25794
706.22016
704.99764
703.58869
701.99191
700.20619
698.23071
696.06495
693.70862
691.16172
688.42452
685.49753
682.38153
679.0776
675.58706
671.91157
668.05308
664.01385
659.79651
655.40403
650.83977
646.10749
641.21132
636.15586
630.94611
625.58751
620.08593
614.44771
608.67959
602.78874
596.78274
590.66954
584.45748
578.15519
571.77163
565.31594
558.79743
552.22544
545.60928
538.95829
532.28187
707.06767
707.85188
708.49106
708.98016
709.31446
709.48942
709.50079
709.34462
709.01728
708.51547
707.83626
706.97689
705.93519
704.70913
703.29702
701.69748
699.90942
697.93205
695.76483
693.40749
690.86005
688.12275
685.19613
682.08095
678.7783
675.28949
671.61617
667.76027
663.72406
659.51015
655.12149
650.56144
645.83371
640.94245
635.89221
630.68799
625.33519
619.83967
614.20774
608.44612
602.56195
596.5628
590.4566
584.25165
577.9566
571.58037
565.13212
558.62112
552.05663
545.44773
538.80345
532.13317
706.82625
707.60351
708.23582
708.71817
709.04587
709.21441
709.21956
709.05742
708.72437
708.21716
707.53285
706.66879
705.62276
704.39277
702.97717
701.37458
699.58394
697.60446
695.43561
693.07715
690.52908
687.79166
684.86541
681.75113
678.44985
674.96292
671.29196
667.4389
663.406
659.19583
654.81136
650.2559
645.53317
640.64728
635.60277
630.4046
625.05817
619.5693
613.94427
608.18977
602.31294
596.3213
590.22277
584.02563
577.73849
571.3703
564.9302
558.42747
551.87128
545.2704
538.6335
531.97073
706.56276
707.33238
707.95711
708.43203
708.75248
708.91396
708.91229
708.74358
708.40426
707.89111
707.2012
706.33196
705.28117
704.04688
702.62743
701.02148
699.22799
697.24618
695.07553
692.71582
690.16704
687.42946
684.50362
681.39028
678.0905
674.60561
670.93722
667.08726
663.05795
658.85188
654.47197
649.92154
645.20426
640.32424
635.28599
630.09444
624.75496
619.27336
613.65588
607.90919
602.04038
596.05695
589.9668
583.77817
577.49969
571.14027
564.70907
558.21539
551.66837
545.0764
538.44744
706.27588
707.03707
707.65348
708.12027
708.43277
708.58653
708.57739
708.40149
708.05531
707.53565
706.83962
705.96467
704.90869
703.66967
702.24601
700.63638
698.83975
696.85537
694.68275
692.32165
689.77208
687.03432
684.1089
680.99658
677.69843
674.21575
670.55015
666.70354
662.67815
658.47653
654.1016
649.55664
644.84531
639.97169
634.94027
629.75594
624.42405
618.95037
613.34112
607.60293
601.74287
595.7684
589.68738
583.50804
577.23897
570.88907
564.46752
557.98369
551.44684
544.86481
538.24367
705.9642
706.71611
707.32342
707.78134
708.08519
708.23052
708.21322
708.02948
707.67581
707.14904
706.44632
705.56512
704.50349
703.25932
701.83105
700.21739
698.41734
696.43016
694.25536
691.89273
689.34229
686.60432
683.67934
680.56813
677.27172
673.79144
670.12887
666.28592
662.26478
658.068
653.69848
649.15946
644.45461
639.58795
634.56394
629.38747
624.06383
618.59878
612.99849
607.26955
601.419
595.45427
589.38317
583.21392
576.95505
570.61545
564.20429
557.73105
551.20547
705.62624
706.36793
706.96535
707.41364
707.70807
707.84424
707.81808
707.6258
707.26398
706.72948
706.01949
705.13138
704.06371
702.81392
701.38062
699.76258
697.95879
695.96855
693.79139
691.4271
688.8757
686.13749
683.21298
680.10295
676.80844
673.33075
669.67147
665.83247
661.81594
657.62442
653.26076
648.7282
644.03036
639.17125
634.1553
628.98736
623.67268
618.21699
612.62642
606.90752
601.0673
595.11313
589.0528
582.89447
576.64663
570.31812
563.91805
557.45595
705.2603
705.99081
706.57761
707.01548
707.29972
707.42596
707.39018
707.18865
706.81798
706.27511
705.55728
704.66216
703.58744
702.3315
700.89275
699.26993
697.4621
695.46854
693.2888
690.9227
688.37026
685.63178
682.70777
679.59903
676.30657
672.83168
669.17595
665.34123
661.3297
657.14386
652.78655
648.26098
643.57075
638.71982
633.71259
628.55388
623.24892
617.80336
612.22331
606.5153
600.68625
594.74353
588.69485
582.54831
576.31237
569.99578
563.60748
557.15656
704.00612
704.86373
705.58301
706.15847
706.58513
706.85836
706.97387
706.92768
706.71614
706.33591
705.78398
705.05767
704.15474
703.07262
701.81002
700.36536
698.73739
696.92517
694.92802
692.7455
690.37743
687.82387
685.08509
682.16164
679.05427
675.76403
672.29218
668.64028
664.81019
660.80406
656.62436
652.27392
647.75591
643.07388
638.2318
633.23401
628.08528
622.7908
617.3562
611.78754
606.09128
600.27432
594.34395
588.30785
582.17406
575.95095
569.64716
563.27146
556.83282
703.58934
704.43565
705.14291
705.70622
706.12081
706.38218
706.48611
706.4287
706.20635
705.81579
705.25408
704.51858
703.60699
702.5171
701.24738
699.79634
698.16281
696.34587
694.34484
692.15932
689.78914
687.23436
684.49528
681.57242
678.46655
675.17869
671.71012
668.06237
664.23727
660.23697
656.0639
651.72086
647.21101
642.53785
637.70531
632.71769
627.57973
622.29657
616.8738
611.31741
605.63383
599.8299
593.91286
587.89033
581.77027
575.561
569.27103
562.90897
556.48383
703.14122
703.97464
704.66885
705.21907
705.62067
705.86927
705.96074
705.89124
705.65726
705.25559
704.68334
703.93793
703.0171
701.91878
700.64139
699.18352
697.54401
695.72198
693.7168
691.52806
689.15562
686.59954
683.86013
680.93792
677.83367
674.54839
671.08335
667.44007
663.62037
659.62634
655.46042
651.12536
646.62429
641.96068
637.13841
632.16175
627.03539
621.76442
616.35438
610.81121
605.14129
599.35139
593.4487
587.44078
581.33551
575.14114
568.86608
562.51885
556.10848
702.65972
703.47897
704.15904
704.69516
705.08281
705.31769
705.39577
705.31329
705.06681
704.6532
704.06963
703.31358
702.38284
701.27545
699.98985
698.52465
696.87874
695.05127
693.04163
690.84945
688.47459
685.91713
683.17739
680.25589
677.1534
673.87091
670.40968
666.77122
662.95731
658.97004
654.81181
650.48534
645.99371
641.34037
636.52915
631.56427
626.45038
621.19252
615.79616
610.2672
604.61195
598.83714
592.94988
586.95765
580.8683
574.68996
568.43099
562.09984
555.70554
702.14285
702.94678
703.61159
704.13256
704.50524
704.72542
704.78914
704.69274
704.43287
704.00647
703.41077
702.64332
701.70197
700.58485
699.29046
697.81743
696.16469
694.33141
692.31702
690.12117
687.74374
685.18484
682.44476
679.52404
676.42345
673.14398
669.68686
666.05358
662.24591
658.2659
654.11593
649.79868
645.3172
640.67488
635.87552
630.9233
625.82278
620.57898
615.1973
609.68359
604.04409
598.28547
592.41476
586.43939
580.36713
574.20603
567.96438
561.6506
555.2737
701.58859
702.3761
703.02455
703.52928
703.88592
704.09034
704.1387
704.02742
703.75323
703.31315
702.70448
701.92485
700.97216
699.84461
698.54089
697.05953
695.39951
693.56004
691.5406
689.34086
686.96072
684.40029
681.65988
678.74004
675.64152
672.3653
668.9126
665.28489
661.48392
657.51172
653.37061
649.06325
644.59265
639.96215
635.17551
630.23683
625.15065
619.92191
614.55596
609.05858
603.43596
597.69467
591.8417
585.8844
579.83046
573.68786
567.46484
561.16975
554.81161
700.99491
701.76489
702.39583
702.88318
703.22268
703.41028
703.44224
703.31508
703.0256
702.57093
701.94845
701.15584
700.19104
699.05228
697.73872
696.24853
694.58077
692.73475
690.70995
688.50609
686.1231
683.56108
680.82037
677.9015
674.80523
671.53252
668.08458
664.46287
660.66909
656.70525
652.57364
648.27688
643.81792
639.20008
634.42703
629.50285
624.43201
619.21938
613.87026
608.39035
602.78576
597.06302
591.22902
585.29105
579.25672
573.13394
566.93089
560.65587
554.31786
700.35975
701.11101
701.72325
702.19206
702.51325
702.68292
702.69741
702.55333
702.24759
701.7774
701.14023
700.33383
699.3562
698.20523
696.88154
695.38196
693.70599
691.85302
689.82256
687.61438
685.22839
682.66473
679.92375
677.00598
673.91215
670.64324
667.20043
663.58515
659.79908
655.8442
651.72276
647.43733
642.99082
638.3865
633.62799
628.7193
623.66484
618.46942
613.13826
607.67699
602.09167
596.38873
590.575
584.65767
578.64429
572.54271
566.36102
560.10748
553.79102
699.68091
700.41217
701.00446
701.4535
701.75522
701.90582
701.90173
701.73967
701.41667
700.93001
700.27727
699.45632
698.46535
697.30323
695.96704
694.45726
692.77257
690.91225
688.87584
686.66311
684.27401
681.70869
678.96748
676.05093
672.95978
669.69497
666.25768
662.6493
658.8715
654.9262
650.81563
646.54232
642.10911
637.51922
632.77622
627.88405
622.84706
617.66999
612.35798
606.9166
601.35181
595.66998
589.87785
583.98254
577.99152
571.91254
565.75365
559.52305
553.2296
698.95593
699.66582
700.23688
700.66491
700.94595
701.0763
701.05251
700.87141
700.53012
700.02603
699.35681
698.52045
697.51522
696.33972
694.99194
693.47158
691.77772
689.90968
687.86704
685.64957
683.25725
680.69023
677.94888
675.03372
671.94549
668.68512
665.25375
661.65279
657.88383
653.94879
649.84984
645.58945
641.17043
636.59593
631.86945
626.99489
621.9765
616.81897
611.52735
606.10714
600.56421
594.90484
589.13571
583.26384
577.29662
571.24173
565.10712
558.90095
552.63201
698.18188
698.86906
699.41759
699.82334
700.08248
700.1914
700.14677
699.94554
699.58492
699.06242
698.37582
697.52318
696.50284
695.31335
693.95324
692.42185
690.71841
688.84231
686.79317
684.57078
682.17515
679.60646
676.86505
673.95147
670.86643
667.61086
664.18589
660.59287
656.83339
652.90931
648.82275
644.57615
640.17225
635.61414
630.90526
626.04943
621.05084
615.91408
610.64414
605.24643
599.72674
594.09126
588.34657
582.49962
576.55769
570.52841
564.41962
558.23943
551.99654
697.35535
698.01852
698.54321
698.92543
699.16142
699.24772
699.1811
698.95863
698.57764
698.03575
697.33084
696.46106
695.42481
694.22071
692.84756
691.30465
689.59123
687.70675
685.65086
683.42342
681.02443
678.45409
675.71275
672.80097
669.71945
666.46909
663.05101
659.46652
655.71718
651.80481
647.73148
643.49957
639.11178
634.57111
629.88095
625.04503
620.06747
614.95278
609.70588
604.33206
598.83704
593.22691
587.50818
581.68767
575.77261
569.7705
563.68913
557.53651
551.32127
696.47226
697.11011
697.60969
697.96708
698.17869
698.24116
698.1514
697.90659
697.50419
696.94193
696.21779
695.33001
694.27707
693.05767
691.67079
690.11592
688.39217
686.49902
684.43619
682.20357
679.80119
677.22928
674.4882
671.57848
668.50083
665.25614
661.84549
658.27017
654.5317
650.63184
646.57263
642.35639
637.98573
633.46362
628.79336
623.9786
619.02338
613.93213
608.70966
603.36119
597.89234
592.30911
586.61789
580.82544
574.93885
568.96556
562.91326
556.78986
550.60392
695.52749
696.13874
696.6119
696.94321
697.12918
697.16662
697.05255
696.78431
696.35946
695.77585
695.03157
694.12497
693.05459
691.81917
690.41773
688.85065
687.11627
685.2142
683.14426
680.90638
678.50066
675.9273
673.18669
670.27936
667.20601
663.9675
660.56489
656.99944
653.27262
649.38616
645.34203
641.14248
636.79009
632.28772
627.63861
622.84634
617.91484
612.84846
607.65192
602.33034
596.88924
591.33452
585.67247
579.90973
574.05333
568.11056
562.08905
555.99661
549.84169
694.51441
695.09776
695.5432
695.84712
696.00621
696.0174
695.87788
695.5851
695.13677
694.53086
693.76557
692.83936
691.75084
690.49876
689.08135
687.50246
685.75714
683.8459
681.76871
679.52556
677.11656
674.54194
671.8021
668.89756
665.829
662.59726
659.20339
655.64859
651.93431
648.06221
644.03421
639.8525
635.51958
631.03825
626.41165
621.64327
616.73698
611.69701
606.52799
601.23494
595.82327
590.29877
584.66763
578.9364
573.11197
567.20155
561.21264
555.15298
549.0309
693.42407
693.97816
694.39453
694.66976
694.8007
694.78443
694.6183
694.2999
693.82707
693.19791
692.41076
691.4642
690.35704
689.08844
687.65849
686.06347
684.30613
682.38536
680.30082
678.05244
675.64033
673.06474
670.32605
667.42478
664.36161
661.13736
657.75302
654.20978
650.50903
646.65238
642.64169
638.47908
634.16697
629.70809
625.1055
620.36258
615.48312
610.47124
605.33147
600.06872
594.6883
589.19589
583.59756
577.89974
572.10922
566.23309
560.27875
554.25382
548.16654
692.24399
692.76735
693.15326
693.39845
693.49993
693.45497
693.26106
692.91593
692.41759
691.76426
690.95441
689.98675
688.86024
687.57412
686.12794
684.51952
682.75042
680.82008
678.72821
676.47475
674.0598
671.48362
668.7466
665.84924
662.79219
659.57627
656.20243
652.67181
648.98576
645.14582
641.15379
637.01173
632.72197
628.28715
623.71024
618.99455
614.14373
609.16182
604.05324
598.82277
593.47562
588.01735
582.45392
576.79164
571.03716
565.19749
559.27987
553.29184
547.24149
690.95629
691.44733
691.80129
692.01501
692.08568
692.01074
691.78783
691.41486
690.88997
690.21152
689.37813
688.38861
687.24202
685.93757
684.47459
682.85221
681.07161
679.13188
677.03288
674.77463
672.35726
669.78104
667.04635
664.1537
661.10372
657.89719
654.53502
651.01831
647.34836
643.52664
639.55489
635.43508
631.16947
626.76061
622.21136
617.52493
612.70487
607.7551
602.67993
597.48404
592.17248
586.75073
581.22459
575.60026
569.88428
564.08351
558.20509
552.2564
546.24543
689.53499
689.99201
690.31238
690.49307
690.53146
690.42515
690.17195
689.76993
689.21739
688.51285
687.65504
686.6429
685.47554
684.15219
682.67205
681.03356
679.24284
677.29407
675.18828
672.92569
670.5065
667.93099
665.19955
662.31267
659.27096
656.07516
652.72615
649.22498
645.57287
641.77125
637.82177
633.72632
629.48706
625.10645
620.58725
615.93255
611.1458
606.23081
601.19173
596.03314
590.75997
585.37755
579.89157
574.30809
568.63352
562.87458
557.03828
551.13185
545.16316
687.9423
688.36334
688.64825
688.79412
688.79851
688.65922
688.37425
687.94183
687.36042
686.6287
685.74553
684.70997
683.52124
682.17862
680.68145
679.02925
677.22536
675.26731
673.15508
670.88877
668.46859
665.89482
663.16785
660.28814
657.25628
654.07297
650.73905
647.25551
643.62351
639.84438
635.91971
631.8513
627.64119
623.29176
618.80563
614.1858
609.43558
604.55864
599.55903
594.44117
589.20987
583.87031
578.42805
572.88902
567.25948
561.54603
555.7555
549.89499
543.97218
686.12324
686.50585
686.75298
686.8618
686.8301
686.65587
686.33731
685.87283
685.26107
684.50085
683.59122
682.53138
681.32067
679.95865
678.44517
676.78125
674.96107
672.99317
670.87493
668.60576
666.18572
663.61508
660.89422
658.02357
655.00369
651.83523
648.51897
645.05584
641.44692
637.69347
633.79697
629.75911
625.58186
621.26743
616.81836
612.23749
607.528
602.69343
597.73768
592.66503
587.48013
582.18803
576.79413
571.30422
565.72444
560.06121
554.32122
548.51139
542.63923
683.99812
684.33908
684.54534
684.61418
684.54361
684.33185
683.97731
683.47859
682.83452
682.04413
681.1066
680.02132
678.78777
677.40561
675.87454
674.19401
672.35922
670.3846
668.26182
665.99105
663.57273
661.00711
658.29458
655.43555
652.43051
649.28007
645.98496
642.54601
638.96421
635.24072
631.37693
627.37441
623.235
618.96077
614.55413
610.01775
605.35469
600.56831
595.66236
590.64095
585.50858
580.27013
574.93084
569.49637
563.97267
558.36603
552.683
546.93031
541.11539
681.45262
681.74743
681.90855
681.93332
681.82004
681.56716
681.17331
680.63732
679.95825
679.13531
678.16789
677.05555
675.79795
674.39488
672.84619
671.15171
669.31146
667.31815
665.19165
662.92035
660.50592
657.94779
655.24666
652.40272
649.41639
646.28831
643.01911
639.60952
636.06037
632.37273
628.54787
624.58724
620.49253
616.26567
611.90886
607.42463
602.81583
598.08567
593.23771
588.27588
583.20449
578.02824
572.75219
567.38182
561.92291
556.38162
550.76436
545.07787
678.32518
678.56744
678.67734
678.65228
678.49082
678.1917
677.75382
677.17626
676.45831
675.59943
674.59923
673.45747
672.17405
670.74894
669.18223
667.47416
665.62532
663.63047
661.48836
659.21532
656.80929
654.2618
651.57628
648.75232
645.78992
642.69001
639.45325
636.08018
632.57133
628.92762
625.15026
621.24057
617.20005
613.03045
608.73376
604.3123
599.7687
595.10594
590.32738
585.43673
580.4381
575.33596
570.13518
564.84098
559.45896
553.9951
548.4559
674.39245
674.57318
674.62328
674.54021
674.32287
673.97029
673.48169
672.85645
672.09413
671.19447
670.15734
668.98277
667.67087
666.22187
664.63609
662.91391
661.05581
659.06215
656.92743
654.65198
652.24227
649.70631
647.04157
644.24575
641.31404
638.24994
635.0544
631.72784
628.26994
624.68119
620.96297
617.11654
613.14321
609.04448
604.82211
600.47811
596.01485
591.43503
586.74168
581.93831
577.02879
572.01733
566.90851
561.7073
556.41896
551.04918
669.3552
669.46202
669.44053
669.28825
669.00442
668.58848
668.04
667.3587
666.54447
665.59739
664.51763
663.30551
661.96142
660.48587
658.87937
657.14252
655.27595
653.2803
651.15553
648.89936
646.50995
643.99032
641.34155
638.56841
635.67399
632.65503
629.51166
626.24507
622.85407
619.33502
615.69147
611.92475
608.03597
604.02636
599.89738
595.65075
591.28857
586.81308
582.22654
577.53238
572.73427
567.83612
562.84217
557.75702
552.58559
547.33366
662.82838
662.84505
662.73649
662.50029
662.13615
661.64395
661.0237
660.27551
659.3997
658.39669
657.26703
656.01138
654.63045
653.125
651.49581
649.74365
647.86927
645.87326
643.75607
641.51831
639.159
636.67804
634.07557
631.35142
628.50806
625.54568
622.46412
619.26302
615.94474
612.51259
608.96373
605.29813
601.51637
597.61939
593.60834
589.48475
585.25075
580.90935
576.45815
571.90218
567.24501
562.49019
557.64156
552.70328
547.67984
542.57705
654.34182
654.24837
654.03381
653.69586
653.23474
652.65087
651.94476
651.11701
650.16838
649.09974
647.91205
646.60634
645.18367
643.64512
641.99172
640.22445
638.34419
636.35169
634.2475
632.03207
629.70555
627.26845
624.72074
622.06236
619.2937
616.41479
613.4255
610.32581
607.11589
603.79664
600.36798
596.82994
593.18277
589.42694
585.56312
581.59219
577.51503
573.33229
569.05028
564.66885
560.19007
555.61679
550.95231
546.20025
541.36461
536.451
643.35912
643.13342
642.79206
642.33303
641.75715
641.06543
640.25895
639.33886
638.30644
637.16304
635.91007
634.54896
633.08116
631.50804
629.83093
628.05101
626.16937
624.18688
622.10425
619.92201
617.64051
615.26002
612.78061
610.20233
607.5252
604.74917
601.87406
598.89949
595.82529
592.65128
589.37722
586.00286
582.52811
578.95303
575.27789
571.50316
567.62948
563.65787
559.59013
555.42775
551.17262
546.82705
542.39375
537.8757
533.27629
528.60068
629.32075
628.94183
628.45443
627.85692
627.15075
626.33762
625.4192
624.39724
623.27354
622.04995
620.72835
619.31058
617.79844
616.19361
614.49767
612.71204
610.83797
608.87648
606.8284
604.69432
602.47467
600.16966
597.77936
595.30368
592.74242
590.09526
587.36173
584.54129
581.63335
578.63731
575.55251
572.37834
569.11428
565.7599
562.31497
558.77943
555.15343
551.43742
547.63217
543.73869
539.75833
535.69282
531.5442
527.31479
523.00727
518.62625
611.71148
611.16472
610.51869
609.77228
608.9276
607.98697
606.95271
605.82711
604.6125
603.31119
601.92547
600.45755
598.90952
597.28335
595.58081
593.80349
591.95275
590.02973
588.03531
585.97013
583.83459
581.62887
579.35294
577.00658
574.58939
572.1008
569.5401
566.90646
564.19895
561.41657
558.55831
555.62312
552.61003
549.51814
546.34668
543.09504
539.76281
536.34979
532.8561
529.28212
525.62858
521.89654
518.08738
514.20268
510.24441
506.21661
590.14395
589.42731
588.62281
587.72998
586.75152
585.69032
584.54923
583.33101
582.0384
580.6741
579.24069
577.74064
576.17625
574.54963
572.86269
571.11706
569.31416
567.45513
565.54084
563.5719
561.54865
559.47117
557.33932
555.15271
552.91076
550.61269
548.25753
545.8442
543.37145
540.83798
538.24241
535.58333
532.85936
530.06916
527.21147
524.28519
521.28937
518.22326
515.08637
511.8785
508.59972
505.25046
501.83139
498.34343
494.78804
491.16957
564.44443
563.5744
562.63003
561.6115
560.52196
559.3647
558.14294
556.85974
555.51809
554.12088
552.67083
551.1705
549.62225
548.02818
546.39018
544.70985
542.98851
541.22724
539.4268
537.58769
535.71014
533.79409
531.83926
529.84511
527.81088
525.73559
523.6181
521.45708
519.25108
516.99854
514.69781
512.34719
509.94499
507.48952
504.97917
502.41243
499.78791
497.10441
494.36095
491.55677
488.69141
485.76463
482.77642
479.7269
476.61655
534.72522
533.74055