/*--------------------------------*- C++ -*----------------------------------*\
| =========                 |                                                 |
| \\      /  F ield         | OpenFOAM: The Open Source CFD Toolbox           |
|  \\    /   O peration     | Version:  2312                                  |
|   \\  /    A nd           | Website:  www.openfoam.com                      |
|    \\/     M anipulation  |                                                 |
\*---------------------------------------------------------------------------*/
FoamFile
{
    version     2.0;
    format      ascii;
    arch        "LSB;label=32;scalar=64";
    class       volVectorField;
    location    "0.03";
    object      U;
}
// * * * * * * * * * * * * * * * * * * * * * * * * * * * * * * * * * * * * * //

dimensions      [0 1 -1 0 0 0 0];

internalField   nonuniform List<vector> 
3251
(
(1.0678823 -0.0026003651 0)
(1.0342787 -0.0026572443 0)
(1.0012595 -0.0027076931 0)
(0.96881153 -0.0027516834 0)
(0.93691838 -0.0027894095 0)
(0.90556387 -0.0028210998 0)
(0.87473017 -0.0028468726 0)
(0.84439799 -0.0028668281 0)
(0.81454755 -0.0028812506 0)
(0.78515835 -0.0028902892 0)
(0.75620905 -0.0028942189 0)
(0.72767762 -0.0028932381 0)
(0.69954144 -0.0028876228 0)
(0.67177748 -0.0028775985 0)
(0.64436238 -0.0028634437 0)
(0.61727268 -0.002845397 0)
(0.59048489 -0.0028237317 0)
(0.5639757 -0.0027986913 0)
(0.53772208 -0.0027705352 0)
(0.5117015 -0.0027394951 0)
(0.48589206 -0.0027058045 0)
(0.46027265 -0.0026696781 0)
(0.43482308 -0.0026313165 0)
(0.4095243 -0.0025909055 0)
(0.38435847 -0.0025486054 0)
(0.35930914 -0.0025045728 0)
(0.33436136 -0.0024589244 0)
(0.30950184 -0.0024117807 0)
(0.28471897 -0.0023632102 0)
(0.26000302 -0.0023133009 0)
(0.23534614 -0.0022620731 0)
(0.21074246 -0.0022095805 0)
(0.18618814 -0.0021557997 0)
(0.1616814 -0.0021007447 0)
(0.13722252 -0.002044366 0)
(0.11281388 -0.0019866794 0)
(0.088459867 -0.0019276059 0)
(0.064166943 -0.0018671896 0)
(0.039943496 -0.0018053738 0)
(0.015799834 -0.0017422477 0)
(-0.0082519353 -0.0016778264 0)
(-0.032198016 -0.0016122624 0)
(-0.05602313 -0.0015456093 0)
(-0.079710609 -0.001478106 0)
(-0.10324247 -0.0014099206 0)
(-0.12659948 -0.0013412828 0)
(-0.14976278 -0.0012724757 0)
(-0.17271621 -0.0012039467 0)
(-0.19543497 -0.001131443 0)
(-0.21790124 -0.0010586648 0)
(-0.24010005 -0.00097797868 0)
(-0.26200498 -0.00088642345 0)
(-0.28358394 -0.00078252514 0)
(-0.30480984 -0.00067590137 0)
(-0.32566843 -0.00056996915 0)
(-0.34614492 -0.00046711932 0)
(-0.36622354 -0.00036903032 0)
(-0.38588435 -0.00027716642 0)
(1.0680387 0.0055851552 0)
(1.0344384 0.0052413163 0)
(1.0014217 0.0049120367 0)
(0.96897614 0.0045966783 0)
(0.93708491 0.0042958843 0)
(0.90573179 0.0040095482 0)
(0.87489908 0.0037378158 0)
(0.84456745 0.0034808135 0)
(0.8147172 0.0032383982 0)
(0.78532782 0.0030107673 0)
(0.75637801 0.0027976023 0)
(0.72784575 0.0025990288 0)
(0.69970845 0.0024146145 0)
(0.67194306 0.0022444346 0)
(0.64452629 0.0020879657 0)
(0.61743466 0.0019452376 0)
(0.5906447 0.0018156536 0)
(0.56413311 0.0016992056 0)
(0.5378769 0.0015952373 0)
(0.51185353 0.0015037202 0)
(0.48604112 0.0014239622 0)
(0.46041857 0.0013559226 0)
(0.43496573 0.0012988835 0)
(0.40966353 0.0012528058 0)
(0.38449418 0.0012169642 0)
(0.35944123 0.0011913243 0)
(0.33448975 0.0011751583 0)
(0.30962645 0.0011684456 0)
(0.28483978 0.0011704691 0)
(0.26011998 0.0011812219 0)
(0.23545925 0.0011999978 0)
(0.21085173 0.0012268078 0)
(0.1862936 0.0012609577 0)
(0.1617831 0.0013024918 0)
(0.13732052 0.0013507079 0)
(0.11290826 0.0014056362 0)
(0.08855074 0.0014665892 0)
(0.064254428 0.0015335654 0)
(0.040027734 0.0016058419 0)
(0.015880976 0.0016833796 0)
(-0.0081737271 0.0017653916 0)
(-0.032122577 0.001851784 0)
(-0.055950303 0.0019417533 0)
(-0.079640204 0.002035125 0)
(-0.10317433 0.0021310725 0)
(-0.12653348 0.0022294084 0)
(-0.14969855 0.0023290082 0)
(-0.17265337 0.0024303789 0)
(-0.19537261 0.0025359309 0)
(-0.2178383 0.0026429793 0)
(-0.2400346 0.0027568315 0)
(-0.26193544 0.0028812613 0)
(-0.28351172 0.0030165313 0)
(-0.30473714 0.003154831 0)
(-0.3255964 0.0032916056 0)
(-0.34607437 0.003424475 0)
(-0.36615495 0.0035509717 0)
(-0.38581731 0.0036688573 0)
(1.0682662 0.013779239 0)
(1.0346704 0.013149257 0)
(1.0016577 0.012541287 0)
(0.96921504 0.011955117 0)
(0.93732598 0.011391496 0)
(0.90597432 0.010850849 0)
(0.87514237 0.010333399 0)
(0.84481087 0.0098395397 0)
(0.81496014 0.0093693648 0)
(0.78556974 0.0089232356 0)
(0.75661839 0.008501063 0)
(0.7280841 0.0081029733 0)
(0.69994432 0.0077287444 0)
(0.67217604 0.0073783469 0)
(0.64475599 0.0070514493 0)
(0.61766072 0.0067478862 0)
(0.59086681 0.0064672236 0)
(0.56435097 0.006209178 0)
(0.53809024 0.0059732302 0)
(0.51206214 0.0057590046 0)
(0.48624479 0.0055659172 0)
(0.46061713 0.0053935163 0)
(0.43515903 0.0052411702 0)
(0.40985148 0.0051083714 0)
(0.38467668 0.004994457 0)
(0.35961823 0.0048988731 0)
(0.33466123 0.0048209371 0)
(0.30979242 0.0047600625 0)
(0.28500027 0.0047155595 0)
(0.26027507 0.004686813 0)
(0.23560902 0.0046731333 0)
(0.21099631 0.0046738852 0)
(0.18643315 0.0046883853 0)
(0.1619178 0.0047159746 0)
(0.13745058 0.0047559743 0)
(0.11303392 0.0048076948 0)
(0.088672269 0.0048704488 0)
(0.064372114 0.0049434979 0)
(0.040141889 0.0050261303 0)
(0.015991932 0.0051175628 0)
(-0.0080656232 0.0052170333 0)
(-0.032016973 0.0053237135 0)
(-0.055846822 0.0054368379 0)
(-0.079538485 0.0055555463 0)
(-0.10307398 0.0056790325 0)
(-0.12643422 0.0058065068 0)
(-0.14960005 0.0059368516 0)
(-0.17255386 0.0060696183 0)
(-0.19527214 0.0062090508 0)
(-0.21773582 0.0063488531 0)
(-0.23992736 0.0064963546 0)
(-0.26182228 0.0066527198 0)
(-0.28339339 0.0068191171 0)
(-0.3046158 0.0069879064 0)
(-0.3254731 0.0071545768 0)
(-0.3459496 0.007315659 0)
(-0.36602948 0.007468443 0)
(-0.38569019 0.0076125439 0)
(1.0685676 0.021998708 0)
(1.0349767 0.021082808 0)
(1.0019673 0.020196415 0)
(0.96952706 0.019339485 0)
(0.93763947 0.01851326 0)
(0.90628826 0.017718391 0)
(0.87545588 0.016955484 0)
(0.84512309 0.01622493 0)
(0.81527033 0.015527285 0)
(0.78587719 0.01486286 0)
(0.75692243 0.014231921 0)
(0.7283841 0.013634499 0)
(0.70023971 0.013070637 0)
(0.6724663 0.012540176 0)
(0.64504065 0.01204297 0)
(0.61793935 0.011578685 0)
(0.59113903 0.011147003 0)
(0.56461644 0.010747432 0)
(0.53834868 0.010379505 0)
(0.51231329 0.010042597 0)
(0.48648845 0.0097361206 0)
(0.46085315 0.0094593405 0)
(0.43538729 0.0092115686 0)
(0.4100719 0.008991983 0)
(0.38488923 0.0087998174 0)
(0.35982293 0.0086341783 0)
(0.33485814 0.0084942343 0)
(0.30998162 0.0083790382 0)
(0.2851819 0.0082877098 0)
(0.2604493 0.0082192585 0)
(0.23577608 0.008172763 0)
(0.21115645 0.0081472027 0)
(0.18658665 0.0081416298 0)
(0.16206501 0.008154974 0)
(0.13759186 0.0081862701 0)
(0.11316967 0.0082344332 0)
(0.088802934 0.0082984365 0)
(0.064498156 0.0083771611 0)
(0.040263803 0.0084695352 0)
(0.016110239 0.0085744132 0)
(-0.0079503855 0.0086906713 0)
(-0.031904248 0.0088171387 0)
(-0.055736043 0.0089527034 0)
(-0.079429049 0.0090961644 0)
(-0.1029653 0.0092464332 0)
(-0.12632572 0.0094023648 0)
(-0.14949108 0.0095627627 0)
(-0.17244302 0.0097271128 0)
(-0.19515855 0.0098975407 0)
(-0.21761838 0.010070499 0)
(-0.23980374 0.010250304 0)
(-0.26169103 0.010438184 0)
(-0.28325496 0.01063433 0)
(-0.30447183 0.010832268 0)
(-0.32532472 0.011027009 0)
(-0.34579775 0.011214732 0)
(-0.36587356 0.011391886 0)
(-0.38552892 0.011559939 0)
(1.0689353 0.030224297 0)
(1.035346 0.029023263 0)
(1.0023376 0.027858807 0)
(0.96989673 0.026731644 0)
(0.93800757 0.025643151 0)
(0.90665376 0.024594427 0)
(0.87581771 0.023586262 0)
(0.84548032 0.022619282 0)
(0.8156221 0.021694416 0)
(0.78622271 0.020811924 0)
(0.75726095 0.019972452 0)
(0.72871495 0.019175882 0)
(0.70056226 0.01842258 0)
(0.67278 0.017712175 0)
(0.645345 0.017044801 0)
(0.61823393 0.016419848 0)
(0.59142345 0.015837228 0)
(0.5648904 0.015296118 0)
(0.53861191 0.01479623 0)
(0.5125656 0.014336562 0)
(0.48672969 0.013916656 0)
(0.46108323 0.013535357 0)
(0.43560618 0.013192061 0)
(0.41027962 0.012885491 0)
(0.38508587 0.01261492 0)
(0.3600086 0.012378972 0)
(0.33503302 0.012176813 0)
(0.31014596 0.012006989 0)
(0.28533596 0.011868578 0)
(0.26059342 0.011760062 0)
(0.23591063 0.011680444 0)
(0.21128186 0.01162816 0)
(0.1867034 0.01160215 0)
(0.16217359 0.011600797 0)
(0.13769284 0.011622989 0)
(0.11326365 0.011667084 0)
(0.088890536 0.01173189 0)
(0.064580053 0.01181573 0)
(0.040340698 0.011917354 0)
(0.016182862 0.012035073 0)
(-0.0078812777 0.012167585 0)
(-0.031837878 0.012313195 0)
(-0.055671607 0.01247062 0)
(-0.07936573 0.012638166 0)
(-0.10290225 0.012814572 0)
(-0.12626214 0.012998265 0)
(-0.14942599 0.013187953 0)
(-0.17237483 0.013382713 0)
(-0.19508635 0.013584197 0)
(-0.21754057 0.013788811 0)
(-0.23971807 0.014000301 0)
(-0.26159614 0.014218563 0)
(-0.28315097 0.014443793 0)
(-0.30436004 0.014669599 0)
(-0.32520604 0.01489099 0)
(-0.34567278 0.015103212 0)
(-0.36574258 0.015304057 0)
(1.0693615 0.037954381 0)
(1.0357694 0.036483897 0)
(1.0027563 0.035057192 0)
(0.97031 0.033675248 0)
(0.93841416 0.03233988 0)
(0.90705268 0.03105228 0)
(0.87620814 0.029813343 0)
(0.84586153 0.02862384 0)
(0.8159933 0.027484854 0)
(0.78658313 0.026396846 0)
(0.75760984 0.025360634 0)
(0.72905165 0.024376224 0)
(0.70088618 0.023444054 0)
(0.67309065 0.022563819 0)
(0.64564194 0.021735659 0)
(0.61851681 0.020958976 0)
(0.59169198 0.020233632 0)
(0.56514436 0.019558763 0)
(0.53885114 0.018933988 0)
(0.51279001 0.018358212 0)
(0.48693927 0.01783084 0)
(0.46127801 0.017350583 0)
(0.43578627 0.016916662 0)
(0.41044517 0.016527625 0)
(0.3852371 0.016182537 0)
(0.36014579 0.015879809 0)
(0.3351565 0.015618371 0)
(0.31025612 0.015396523 0)
(0.28543324 0.01521308 0)
(0.26067831 0.015066251 0)
(0.23598367 0.01495475 0)
(0.21134363 0.014876714 0)
(0.18675452 0.014830772 0)
(0.16221475 0.014814994 0)
(0.13772475 0.014827934 0)
(0.11328706 0.014867611 0)
(0.088906231 0.014932497 0)
(0.06458886 0.015020565 0)
(0.040343466 0.015130223 0)
(0.016180465 0.015259436 0)
(-0.0078879472 0.015406569 0)
(-0.031847912 0.015569595 0)
(-0.05568408 0.01574691 0)
(-0.079379686 0.015936502 0)
(-0.10291673 0.016136807 0)
(-0.12627619 0.016345936 0)
(-0.14943861 0.016562457 0)
(-0.17238436 0.016785277 0)
(-0.19509148 0.017015125 0)
(-0.21753985 0.017248929 0)
(-0.23970949 0.017488962 0)
(-0.26157844 0.017734981 0)
(-0.28312421 0.017986305 0)
(-0.30432541 0.018237091 0)
(-0.32516474 0.018481961 0)
(-0.34562529 0.018716051 0)
(-0.36568734 0.018936564 0)
(1.0699126 0.045371918 0)
(1.0363138 0.043646297 0)
(1.0032934 0.041970687 0)
(0.97083814 0.040346754 0)
(0.93893228 0.038776446 0)
(0.90755955 0.037261371 0)
(0.87670257 0.035802714 0)
(0.8463425 0.034401606 0)
(0.81645992 0.03305909 0)
(0.78703461 0.031775874 0)
(0.75804551 0.030552739 0)
(0.72947088 0.029389976 0)
(0.70128844 0.028287884 0)
(0.67347548 0.027246404 0)
(0.64600898 0.02626548 0)
(0.61886574 0.02534472 0)
(0.59202259 0.024483735 0)
(0.56545651 0.023681825 0)
(0.53914475 0.022938307 0)
(0.51306508 0.022252211 0)
(0.48719586 0.021622596 0)
(0.46151625 0.021048259 0)
(0.43600636 0.020528037 0)
(0.41064737 0.020060527 0)
(0.38542173 0.01964438 0)
(0.36031323 0.019278018 0)
(0.33530719 0.018959932 0)
(0.31039054 0.018688399 0)
(0.28555194 0.018461773 0)
(0.26078188 0.018278208 0)
(0.23607274 0.018135941 0)
(0.21141889 0.018033025 0)
(0.1868167 0.017967594 0)
(0.16226459 0.017937612 0)
(0.13776306 0.017941127 0)
(0.11331467 0.017976028 0)
(0.088923993 0.018040276 0)
(0.064597654 0.0181317 0)
(0.040344194 0.018248203 0)
(0.01617404 0.018387602 0)
(-0.0079005977 0.01854777 0)
(-0.031865853 0.018726541 0)
(-0.055706367 0.018921831 0)
(-0.079405377 0.019131496 0)
(-0.10294488 0.019353514 0)
(-0.12630587 0.01958592 0)
(-0.14946875 0.019826883 0)
(-0.17241366 0.020075141 0)
(-0.19511898 0.020330582 0)
(-0.2175642 0.020590722 0)
(-0.23972916 0.02085681 0)
(-0.26159253 0.021127983 0)
(-0.28313288 0.021403066 0)
(-0.30432975 0.021676172 0)
(-0.32516571 0.021941481 0)
(-0.34562375 0.022194799 0)
(-0.36568198 0.022434696 0)
(1.0706313 0.053020094 0)
(1.0370213 0.051031909 0)
(1.0039875 0.049100829 0)
(0.97151765 0.047228614 0)
(0.93959574 0.04541764 0)
(0.90820565 0.043669464 0)
(0.87733008 0.041985663 0)
(0.84695036 0.040367351 0)
(0.81704716 0.038816114 0)
(0.78760041 0.037332417 0)
(0.75858916 0.035917439 0)
(0.72999177 0.034571369 0)
(0.70178605 0.0332948 0)
(0.67394939 0.03208749 0)
(0.64645887 0.030949636 0)
(0.61929139 0.0298806 0)
(0.59242387 0.028880201 0)
(0.56583336 0.027947439 0)
(0.53949721 0.027081794 0)
(0.51339326 0.026281952 0)
(0.48749996 0.025547089 0)
(0.46179655 0.024875618 0)
(0.43626318 0.024266454 0)
(0.41088114 0.023717776 0)
(0.38563292 0.023228272 0)
(0.36050238 0.02279592 0)
(0.3354749 0.02241921 0)
(0.31053748 0.022095954 0)
(0.28567881 0.021824468 0)
(0.26088944 0.021602423 0)
(0.23616181 0.021427984 0)
(0.21149031 0.021298706 0)
(0.18687136 0.021212625 0)
(0.16230343 0.021167194 0)
(0.13778702 0.021160334 0)
(0.11332472 0.021189418 0)
(0.088921144 0.021252257 0)
(0.064582916 0.021346166 0)
(0.040318589 0.021468889 0)
(0.016138594 0.021617739 0)
(-0.0079448642 0.021790433 0)
(-0.031917924 0.021984316 0)
(-0.055765236 0.022197157 0)
(-0.07947005 0.02242634 0)
(-0.10301438 0.022669715 0)
(-0.12637926 0.022924867 0)
(-0.14954503 0.023189923 0)
(-0.17249158 0.023463126 0)
(-0.19519755 0.023743997 0)
(-0.21764243 0.024029917 0)
(-0.2398058 0.02432139 0)
(-0.26166686 0.024616956 0)
(-0.28320539 0.024915038 0)
(-0.30440203 0.025209399 0)
(-0.3252391 0.025494196 0)
(-0.34569806 0.025764785 0)
(-0.36575522 0.026023697 0)
(1.0715011 0.060886155 0)
(1.037872 0.058629182 0)
(1.0048185 0.056436089 0)
(0.97232682 0.054309184 0)
(0.94038176 0.052251065 0)
(0.90896708 0.050263575 0)
(0.87806562 0.048348558 0)
(0.84765893 0.046507243 0)
(0.81772779 0.044741508 0)
(0.78825224 0.043051974 0)
(0.75921154 0.041439875 0)
(0.73058412 0.039905542 0)
(0.70234793 0.038449608 0)
(0.67448046 0.037071909 0)
(0.6469589 0.03577262 0)
(0.61976027 0.034551143 0)
(0.59286158 0.033407209 0)
(0.56623999 0.032339823 0)
(0.53987295 0.031348314 0)
(0.51373837 0.030431337 0)
(0.4878148 0.029587866 0)
(0.46208156 0.028816252 0)
(0.43651889 0.028115155 0)
(0.41110815 0.027482664 0)
(0.38583189 0.026917168 0)
(0.36067406 0.026416532 0)
(0.33562008 0.025978905 0)
(0.31065702 0.025601962 0)
(0.28577364 0.025283643 0)
(0.26096053 0.025021462 0)
(0.23621016 0.02481318 0)
(0.21151698 0.024656174 0)
(0.18687744 0.024548046 0)
(0.16229003 0.024486056 0)
(0.13775529 0.024467675 0)
(0.11327582 0.024490065 0)
(0.088856256 0.024550569 0)
(0.064503215 0.02464629 0)
(0.040225258 0.024774499 0)
(0.016032804 0.024932303 0)
(-0.0080619523 0.025116952 0)
(-0.032045171 0.025325598 0)
(-0.055901522 0.025555553 0)
(-0.079614288 0.025804021 0)
(-0.10316552 0.026068407 0)
(-0.12653627 0.026346164 0)
(-0.14970686 0.026635004 0)
(-0.1726571 0.026932994 0)
(-0.19536583 0.027238834 0)
(-0.21781241 0.027550204 0)
(-0.23997651 0.027866609 0)
(-0.26183795 0.028186276 0)
(-0.28337762 0.028506802 0)
(-0.30457703 0.028821405 0)
(-0.32541835 0.029124584 0)
(-0.3458813 0.029412747 0)
(1.0725178 0.068995319 0)
(1.0388642 0.066462321 0)
(1.0057834 0.064000518 0)
(0.97326325 0.061612649 0)
(0.94128804 0.059301154 0)
(0.90984179 0.057068468 0)
(0.87890739 0.054916262 0)
(0.84846664 0.052846402 0)
(0.81850046 0.050860356 0)
(0.78898906 0.048959618 0)
(0.75991183 0.047144973 0)
(0.73124734 0.045417343 0)
(0.70297367 0.043776978 0)
(0.67506846 0.042224217 0)
(0.647509 0.04075881 0)
(0.62027246 0.039380592 0)
(0.59333594 0.03808883 0)
(0.56667672 0.036882896 0)
(0.54027236 0.03576162 0)
(0.51410087 0.034723958 0)
(0.4881409 0.033768361 0)
(0.46237186 0.032893416 0)
(0.43677409 0.03209724 0)
(0.411329 0.031378101 0)
(0.38601926 0.030733829 0)
(0.36082887 0.030162407 0)
(0.33574334 0.029661419 0)
(0.31074977 0.029228602 0)
(0.28583699 0.028861328 0)
(0.26099566 0.02855712 0)
(0.23621828 0.028313169 0)
(0.21149935 0.02812681 0)
(0.18683534 0.027995081 0)
(0.16222479 0.027915153 0)
(0.13766824 0.02788394 0)
(0.11316831 0.02789847 0)
(0.088729651 0.027955542 0)
(0.064358872 0.028052095 0)
(0.040064529 0.028184877 0)
(0.015857025 0.028350811 0)
(-0.0082514668 0.028546654 0)
(-0.032247136 0.028769367 0)
(-0.056114682 0.029015797 0)
(-0.079837428 0.029282958 0)
(-0.10339747 0.029567824 0)
(-0.12677591 0.029867665 0)
(-0.14995308 0.030179819 0)
(-0.17290874 0.030502051 0)
(-0.19562192 0.030832491 0)
(-0.21807209 0.031168702 0)
(-0.24023896 0.031509287 0)
(-0.26210292 0.031852219 0)
(-0.28364625 0.032194274 0)
(-0.30485121 0.032528262 0)
(-0.32569902 0.032847852 0)
(-0.34616706 0.033153029 0)
(1.0736781 0.077357306 0)
(1.0399936 0.074541771 0)
(1.0068809 0.071804682 0)
(0.97432638 0.06914908 0)
(0.94231519 0.066577794 0)
(0.91083133 0.064093382 0)
(0.87985789 0.061697923 0)
(0.84937688 0.059393366 0)
(0.81936945 0.057181439 0)
(0.78981592 0.055063698 0)
(0.76069586 0.053041231 0)
(0.73198801 0.0511149 0)
(0.70367057 0.049285209 0)
(0.67572133 0.047552356 0)
(0.64811776 0.04591631 0)
(0.62083711 0.0443767 0)
(0.59385665 0.042932963 0)
(0.56715377 0.041584208 0)
(0.54070615 0.040329388 0)
(0.51449193 0.039167145 0)
(0.48848984 0.038096005 0)
(0.46267941 0.037114202 0)
(0.43704107 0.036219884 0)
(0.41155635 0.035410927 0)
(0.38620797 0.03468515 0)
(0.36098003 0.034040116 0)
(0.33585811 0.033473359 0)
(0.31082939 0.03298217 0)
(0.28588276 0.032563833 0)
(0.26100892 0.032215404 0)
(0.23620043 0.031933953 0)
(0.21145184 0.031716333 0)
(0.18675965 0.031559428 0)
(0.16212241 0.03145991 0)
(0.13754071 0.031414519 0)
(0.11301717 0.031419773 0)
(0.088556431 0.031472269 0)
(0.064165117 0.031568443 0)
(0.039851764 0.031704829 0)
(0.015626758 0.031877862 0)
(-0.0084977612 0.032084085 0)
(-0.032508013 0.032319986 0)
(-0.056388738 0.032582206 0)
(-0.080123303 0.032867308 0)
(-0.10369387 0.033172066 0)
(-0.12708157 0.033493343 0)
(-0.15026681 0.033828254 0)
(-0.17322938 0.034174115 0)
(-0.19594849 0.034528539 0)
(-0.21840365 0.034888777 0)
(-0.24057486 0.035252827 0)
(-0.26244319 0.035618122 0)
(-0.28399217 0.035980503 0)
(-0.30520497 0.036332347 0)
(-0.32606105 0.036668439 0)
(1.0749746 0.0859821 0)
(1.0412564 0.082877253 0)
(1.0081066 0.079858335 0)
(0.97551336 0.076928497 0)
(0.9434615 0.074091084 0)
(0.91193529 0.071348671 0)
(0.88091794 0.068703851 0)
(0.85039167 0.066158562 0)
(0.82033785 0.063714979 0)
(0.79073701 0.061374514 0)
(0.76156887 0.059138697 0)
(0.73281234 0.057008287 0)
(0.70444579 0.054984087 0)
(0.67644717 0.053066124 0)
(0.64879411 0.051254611 0)
(0.62146402 0.049548963 0)
(0.5944343 0.04794879 0)
(0.56768248 0.046452943 0)
(0.54118639 0.045060482 0)
(0.51492426 0.043769759 0)
(0.48887499 0.042579343 0)
(0.46301819 0.041487147 0)
(0.43733442 0.040491306 0)
(0.4118053 0.039589348 0)
(0.38641365 0.038779026 0)
(0.36114366 0.038057536 0)
(0.33598099 0.037422294 0)
(0.31091291 0.036870206 0)
(0.28592837 0.036398397 0)
(0.26101812 0.036003522 0)
(0.23617481 0.035682448 0)
(0.21139299 0.035431618 0)
(0.18666923 0.035247674 0)
(0.1620021 0.035126871 0)
(0.13739221 0.035065678 0)
(0.1128422 0.035060185 0)
(0.088356701 0.035106691 0)
(0.06394234 0.035201214 0)
(0.039607638 0.035339975 0)
(0.015362956 0.035519008 0)
(-0.0087795965 0.035734536 0)
(-0.032806278 0.03598267 0)
(-0.056701868 0.036259741 0)
(-0.080449792 0.036561946 0)
(-0.10403226 0.036885781 0)
(-0.1274305 0.037227744 0)
(-0.15062497 0.037584703 0)
(-0.17359555 0.037953439 0)
(-0.19632166 0.038331134 0)
(-0.21878304 0.038714555 0)
(-0.24095986 0.039100998 0)
(-0.26283404 0.039487394 0)
(-0.28439051 0.039869036 0)
(-0.30561236 0.040236931 0)
(-0.32647695 0.040588688 0)
(1.0763946 0.094879219 0)
(1.0426389 0.09147854 0)
(1.0094502 0.088170929 0)
(0.97681506 0.084960323 0)
(0.94471933 0.081850041 0)
(0.91314728 0.078843348 0)
(0.88208236 0.075942693 0)
(0.85150703 0.073150705 0)
(0.82140289 0.070469309 0)
(0.79175065 0.06790054 0)
(0.76253026 0.065445544 0)
(0.73372081 0.063105779 0)
(0.70530082 0.06088161 0)
(0.67724845 0.058773598 0)
(0.64954149 0.056781515 0)
(0.62215751 0.054905242 0)
(0.59507409 0.053143892 0)
(0.56826891 0.051496718 0)
(0.54171992 0.049962242 0)
(0.51540554 0.04853915 0)
(0.48930475 0.047225443 0)
(0.46339733 0.046019305 0)
(0.43766395 0.044918279 0)
(0.41208633 0.043920101 0)
(0.38664741 0.043021915 0)
(0.36133149 0.042221065 0)
(0.33612432 0.041514346 0)
(0.31101323 0.040898758 0)
(0.28598727 0.040370794 0)
(0.26103726 0.039927152 0)
(0.2361559 0.039564064 0)
(0.2113378 0.039277966 0)
(0.18657956 0.039064864 0)
(0.1618798 0.038920964 0)
(0.13723915 0.038842084 0)
(0.11266024 0.038824239 0)
(0.088147741 0.038863101 0)
(0.063708252 0.03895456 0)
(0.039350285 0.03909424 0)
(0.015084173 0.039278027 0)
(-0.0090780027 0.039501577 0)
(-0.033122543 0.039760847 0)
(-0.057034274 0.040051627 0)
(-0.080796668 0.040369973 0)
(-0.10439202 0.04071185 0)
(-0.1278016 0.041073662 0)
(-0.15100603 0.04145166 0)
(-0.17398535 0.041842516 0)
(-0.19671919 0.042242475 0)
(-0.2191875 0.042648081 0)
(-0.24137084 0.043055683 0)
(-0.26325182 0.043461879 0)
(-0.28481707 0.043860957 0)
(-0.30604917 0.044244494 0)
(1.0779175 0.10405874 0)
(1.0441242 0.10035551 0)
(1.0108941 0.09675271 0)
(0.97821553 0.09325461 0)
(0.94607391 0.089865071 0)
(0.91445385 0.086587532 0)
(0.88333898 0.083424908 0)
(0.85271201 0.080379896 0)
(0.82255478 0.077454819 0)
(0.7928482 0.074651697 0)
(0.76357249 0.071971996 0)
(0.73470693 0.069417159 0)
(0.7062302 0.066987798 0)
(0.67812069 0.064684333 0)
(0.65035637 0.062506792 0)
(0.62291501 0.060454834 0)
(0.59577435 0.058527767 0)
(0.56891225 0.056724555 0)
(0.54230682 0.055043866 0)
(0.51593662 0.053484045 0)
(0.48978081 0.05204319 0)
(0.46381929 0.050719097 0)
(0.43803287 0.049509358 0)
(0.4124034 0.048411285 0)
(0.38691394 0.047422026 0)
(0.36154889 0.046538467 0)
(0.33629411 0.045757367 0)
(0.31113703 0.04507524 0)
(0.28606679 0.044488505 0)
(0.26107428 0.043993351 0)
(0.23615226 0.043585902 0)
(0.2112954 0.043262064 0)
(0.18650036 0.043017704 0)
(0.1617658 0.04284849 0)
(0.13709235 0.042750048 0)
(0.11248269 0.042717863 0)
(0.087941475 0.042747409 0)
(0.063475307 0.042834023 0)
(0.03909268 0.042973127 0)
(0.014803907 0.043160067 0)
(-0.0093789694 0.043390299 0)
(-0.033442286 0.043659258 0)
(-0.057370912 0.043962544 0)
(-0.081148387 0.044295706 0)
(-0.10475704 0.044654566 0)
(-0.12817832 0.045034976 0)
(-0.15139293 0.045433134 0)
(-0.17438116 0.045844852 0)
(-0.19712296 0.046266128 0)
(-0.21959861 0.046692596 0)
(-0.24178893 0.04711997 0)
(-0.26367749 0.047544416 0)
(-0.285252 0.04795877 0)
(-0.30649343 0.048356886 0)
(1.079519 0.11353052 0)
(1.0456869 0.1095177 0)
(1.0124162 0.10561302 0)
(0.97969353 0.10182076 0)
(0.94750531 0.098145489 0)
(0.91583619 0.094590641 0)
(0.88467007 0.091159768 0)
(0.85398994 0.087855509 0)
(0.82377789 0.084680717 0)
(0.79401508 0.081637281 0)
(0.76468198 0.078727176 0)
(0.7357581 0.075951657 0)
(0.70722229 0.073311655 0)
(0.67905319 0.07080743 0)
(0.65122899 0.0684393 0)
(0.62372765 0.066206687 0)
(0.5965271 0.064109093 0)
(0.56960538 0.062145212 0)
(0.54294079 0.060313824 0)
(0.51651206 0.058612976 0)
(0.49029851 0.057040807 0)
(0.46428019 0.05559479 0)
(0.43843807 0.054272488 0)
(0.41275413 0.053070871 0)
(0.38721158 0.051986996 0)
(0.36179493 0.051017389 0)
(0.33649015 0.050158659 0)
(0.31128479 0.049406949 0)
(0.28616807 0.048758475 0)
(0.26113097 0.048209045 0)
(0.23616633 0.047754529 0)
(0.2112689 0.047390448 0)
(0.18643536 0.04711237 0)
(0.16166442 0.046915569 0)
(0.13695677 0.046795339 0)
(0.11231508 0.046746773 0)
(0.08774402 0.046764971 0)
(0.063250198 0.046844894 0)
(0.03884209 0.046981573 0)
(0.014529981 0.047169995 0)
(-0.0096741125 0.047405223 0)
(-0.033756569 0.047682354 0)
(-0.057702308 0.047996594 0)
(-0.081494903 0.048343197 0)
(-0.1051168 0.048717573 0)
(-0.12854948 0.049115381 0)
(-0.15177397 0.049532221 0)
(-0.17477086 0.049963742 0)
(-0.19752039 0.050405027 0)
(-0.2200033 0.050850968 0)
(-0.24220065 0.051296554 0)
(-0.26409711 0.051736797 0)
(-0.28568089 0.052165823 0)
(1.0811698 0.12330415 0)
(1.0473015 0.1189756 0)
(1.0139901 0.11476217 0)
(0.98122416 0.11066935 0)
(0.9489896 0.10670159 0)
(0.91727147 0.10286319 0)
(0.88605389 0.099157532 0)
(0.85532014 0.095588012 0)
(0.82505259 0.092157227 0)
(0.79523263 0.088867735 0)
(0.76584107 0.085721244 0)
(0.7368576 0.082719535 0)
(0.7082613 0.079863161 0)
(0.68003109 0.077152958 0)
(0.65214537 0.074588841 0)
(0.62458232 0.072170663 0)
(0.59732007 0.069897472 0)
(0.57033687 0.067768311 0)
(0.54361122 0.065781479 0)
(0.51712203 0.063935298 0)
(0.4908488 0.062227393 0)
(0.46477176 0.060655443 0)
(0.43887204 0.059216478 0)
(0.41313177 0.0579076 0)
(0.38753431 0.056725317 0)
(0.36206429 0.055666226 0)
(0.33670783 0.054726374 0)
(0.31145258 0.053901914 0)
(0.28628786 0.053188493 0)
(0.26120476 0.052581872 0)
(0.2361962 0.052077352 0)
(0.21125698 0.051670351 0)
(0.18638387 0.051355866 0)
(0.16157562 0.051129021 0)
(0.13683295 0.050984546 0)
(0.11215856 0.050917341 0)
(0.087557128 0.050921949 0)
(0.06303526 0.0509931 0)
(0.038601422 0.0511253 0)
(0.014265875 0.051313286 0)
(-0.0099593938 0.051551621 0)
(-0.034060806 0.051835142 0)
(-0.058023308 0.052158594 0)
(-0.081830557 0.052516958 0)
(-0.10546501 0.052905268 0)
(-0.12890841 0.053318828 0)
(-0.1521419 0.053752979 0)
(-0.17514653 0.054202766 0)
(-0.19790322 0.054662569 0)
(-0.22039296 0.055126452 0)
(-0.24259736 0.055588328 0)
(-0.2645011 0.056043006 0)
(-0.28609247 0.05648437 0)
(1.0828413 0.13339017 0)
(1.048938 0.12873799 0)
(1.0155889 0.12420946 0)
(0.98278113 0.1198094 0)
(0.95050162 0.11554289 0)
(0.91873549 0.11141447 0)
(0.88746717 0.10742791 0)
(0.85668026 0.10358684 0)
(0.82635741 0.099894147 0)
(0.79648033 0.096352555 0)
(0.76703009 0.092964053 0)
(0.73798662 0.089730273 0)
(0.70932926 0.086652057 0)
(0.68103726 0.083730307 0)
(0.65308922 0.080965056 0)
(0.62546355 0.078356046 0)
(0.5981386 0.075902395 0)
(0.57109285 0.073602981 0)
(0.54430501 0.071456127 0)
(0.5177542 0.069459932 0)
(0.49142012 0.067612001 0)
(0.46528318 0.065909732 0)
(0.43932467 0.064350093 0)
(0.41352692 0.062929859 0)
(0.38787342 0.061645433 0)
(0.36234897 0.060493044 0)
(0.33693981 0.0594686 0)
(0.31163372 0.058567847 0)
(0.28642014 0.057786261 0)
(0.26129026 0.057119166 0)
(0.23623709 0.056561661 0)
(0.21125552 0.056108698 0)
(0.18634239 0.055755049 0)
(0.16149647 0.055495346 0)
(0.13671855 0.055324072 0)
(0.11201137 0.055235623 0)
(0.087379591 0.055224272 0)
(0.062829838 0.055284238 0)
(0.038370559 0.055409761 0)
(0.014012 0.055595068 0)
(-0.010233889 0.05583446 0)
(-0.034353554 0.056122281 0)
(-0.058332 0.056453011 0)
(-0.082152886 0.056821184 0)
(-0.10579884 0.057221547 0)
(-0.1292516 0.057649063 0)
(-0.15249278 0.058098696 0)
(-0.17550405 0.058564999 0)
(-0.19826677 0.059041562 0)
(-0.22076264 0.059521741 0)
(-0.24297324 0.059998068 0)
(-0.26488394 0.060465823 0)
(1.0845038 0.14379627 0)
(1.0505694 0.1388157 0)
(1.017185 0.13396524 0)
(0.98433817 0.12925152 0)
(0.95201594 0.12467986 0)
(0.92020376 0.12025503 0)
(0.88888636 0.11598137 0)
(0.85804768 0.11186253 0)
(0.82767067 0.10790192 0)
(0.79773736 0.10410227 0)
(0.76822908 0.10046604 0)
(0.739126 0.096994317 0)
(0.71040788 0.093688656 0)
(0.68205425 0.090549868 0)
(0.65404389 0.087578166 0)
(0.62635547 0.084773102 0)
(0.59896761 0.082133929 0)
(0.57185899 0.079659312 0)
(0.54500859 0.077347635 0)
(0.51839574 0.075196753 0)
(0.49200034 0.073204259 0)
(0.46580301 0.071367275 0)
(0.43978524 0.06968269 0)
(0.41392953 0.068146973 0)
(0.38821954 0.066756391 0)
(0.36264024 0.065506841 0)
(0.33717801 0.06439404 0)
(0.31182077 0.063413384 0)
(0.28655809 0.062560107 0)
(0.26138126 0.061829169 0)
(0.2362834 0.06121538 0)
(0.21125949 0.060713316 0)
(0.18630642 0.060317417 0)
(0.16142306 0.060021931 0)
(0.13661021 0.059820978 0)
(0.11187066 0.059708545 0)
(0.087209083 0.059678528 0)
(0.062632107 0.05972476 0)
(0.038148172 0.059841065 0)
(0.013767503 0.060021305 0)
(-0.010497976 0.060259364 0)
(-0.034634752 0.060549229 0)
(-0.058627842 0.060884976 0)
(-0.082461002 0.061260783 0)
(-0.10611683 0.061671058 0)
(-0.12957738 0.062110382 0)
(-0.15282455 0.062573433 0)
(-0.17584071 0.063053976 0)
(-0.19860812 0.063546593 0)
(-0.22110907 0.064039838 0)
(-0.24332506 0.064529458 0)
(-0.26524079 0.065008282 0)
(1.086129 0.1545349 0)
(1.0521682 0.14921717 0)
(1.0187524 0.14403877 0)
(0.98587004 0.13900509 0)
(0.95350828 0.13412198 0)
(0.92165289 0.12939469 0)
(0.89028894 0.12482767 0)
(0.85940069 0.12042512 0)
(0.82897149 0.11619048 0)
(0.79898373 0.11212692 0)
(0.76941879 0.10823686 0)
(0.74025728 0.10452173 0)
(0.71147953 0.100983 0)
(0.68306521 0.097621807 0)
(0.65499331 0.094438207 0)
(0.62724278 0.091431927 0)
(0.5997925 0.088602015 0)
(0.57262145 0.085947254 0)
(0.54570882 0.083465785 0)
(0.5190342 0.081155509 0)
(0.49257772 0.079013737 0)
(0.46632021 0.077037568 0)
(0.44024336 0.075223573 0)
(0.41432986 0.073568141 0)
(0.38856358 0.072067186 0)
(0.36292964 0.070716474 0)
(0.33741458 0.069511341 0)
(0.31200647 0.068447003 0)
(0.28669503 0.067518295 0)
(0.26147166 0.066719948 0)
(0.23632958 0.066046356 0)
(0.21126387 0.065491826 0)
(0.18627151 0.065050369 0)
(0.16135141 0.064715925 0)
(0.13650446 0.064482184 0)
(0.11173344 0.064342768 0)
(0.087043087 0.064291157 0)
(0.062440004 0.06432082 0)
(0.037932632 0.064425148 0)
(0.013531175 0.064597634 0)
(-0.010752469 0.064831746 0)
(-0.034904812 0.065121099 0)
(-0.058910925 0.065459351 0)
(-0.082754542 0.065840335 0)
(-0.10641845 0.066258024 0)
(-0.12988472 0.066706769 0)
(-0.15313594 0.067180533 0)
(-0.17615459 0.067674294 0)
(-0.1989255 0.06817742 0)
(-0.2214305 0.068684306 0)
(-0.24364986 0.069183916 0)
(-0.26556771 0.069674871 0)
(1.0876915 0.16561129 0)
(1.0537079 0.1599532 0)
(1.0202662 0.15444017 0)
(0.98735276 0.14908042 0)
(0.95495556 0.14387977 0)
(0.92306067 0.13884384 0)
(0.89165354 0.13397748 0)
(0.86071883 0.12928513 0)
(0.83024023 0.12477054 0)
(0.8002005 0.12043704 0)
(0.77058128 0.11628722 0)
(0.74136348 0.11232315 0)