/*--------------------------------*- C++ -*----------------------------------*\
| =========                 |                                                 |
| \\      /  F ield         | OpenFOAM: The Open Source CFD Toolbox           |
|  \\    /   O peration     | Version:  2312                                  |
|   \\  /    A nd           | Website:  www.openfoam.com                      |
|    \\/     M anipulation  |                                                 |
\*---------------------------------------------------------------------------*/
FoamFile
{
    version     2.0;
    format      ascii;
    arch        "LSB;label=32;scalar=64";
    class       volScalarField;
    location    "0.09";
    object      CO2;
}
// * * * * * * * * * * * * * * * * * * * * * * * * * * * * * * * * * * * * * //

dimensions      [0 0 0 0 0 0 0];

internalField   nonuniform List<scalar> 
3272
(
0.01224145
0.012434682
0.01262244
0.012804558
0.012980929
0.013151463
0.013316075
0.01347469
0.013627238
0.013773655
0.013913886
0.014047879
0.014175588
0.014296974
0.014412001
0.014520639
0.014622862
0.014718649
0.014807984
0.014890855
0.014967255
0.015037181
0.015100639
0.015157635
0.015207227
0.015250474
0.015287684
0.015318846
0.015343599
0.015361643
0.015373445
0.015379114
0.015378538
0.015371814
0.015358814
0.01533969
0.015314504
0.015283321
0.015246214
0.01520326
0.015154544
0.015100154
0.015040186
0.014974741
0.014903928
0.014827859
0.014746655
0.014660441
0.01456935
0.01447352
0.014373097
0.01426824
0.014159129
0.012335361
0.012528795
0.012716667
0.012898817
0.013075146
0.013245566
0.013409996
0.013568364
0.013720603
0.013866653
0.014006459
0.014139974
0.014267155
0.014387964
0.014502369
0.014610341
0.014711859
0.014806901
0.014895455
0.01497751
0.01505306
0.015122105
0.01518465
0.015240707
0.015289349
0.015331624
0.015367939
0.015398075
0.015421785
0.015438795
0.015449558
0.015454168
0.015452531
0.015444699
0.015430601
0.015410371
0.015384071
0.015351768
0.015313536
0.015269452
0.015219602
0.015164074
0.015102966
0.01503638
0.014964423
0.01488721
0.014804861
0.014717501
0.014625263
0.014528281
0.014426698
0.014320664
0.014210393
0.012512879
0.012706529
0.012894471
0.01307655
0.013252672
0.013422754
0.013586722
0.013744509
0.013896054
0.014041302
0.014180205
0.01431272
0.01443881
0.014558442
0.014671589
0.014778228
0.014878339
0.014971909
0.015058926
0.015139383
0.015213277
0.015280608
0.015341381
0.015395616
0.015442438
0.015482879
0.015517439
0.015545622
0.015567329
0.015582377
0.015591197
0.015593797
0.015590157
0.015580241
0.015564078
0.015541772
0.015513386
0.015478987
0.015438652
0.015392458
0.015340493
0.015282847
0.015219618
0.01515091
0.01507683
0.014997495
0.014913025
0.014823547
0.014729193
0.0146301
0.014526411
0.01441828
0.014305923
0.012765289
0.012959034
0.013146869
0.013328646
0.013504278
0.013673691
0.013836819
0.013993603
0.014143991
0.014287936
0.014425398
0.014556342
0.014680739
0.014798564
0.014909796
0.01501442
0.015112424
0.015203799
0.01528854
0.015366646
0.015438115
0.015502943
0.015561121
0.015612635
0.015656818
0.015694764
0.015726712
0.015752133
0.015770807
0.015783125
0.015789201
0.015788944
0.015782449
0.015769587
0.015750507
0.015725271
0.015693943
0.015656594
0.015613302
0.015564147
0.015509217
0.015448604
0.015382409
0.015310734
0.015233692
0.015151397
0.015063974
0.014971548
0.014874254
0.01477223
0.014665622
0.014554585
0.014439337
0.013084974
0.013278555
0.013465973
0.013647091
0.013821834
0.013990139
0.014151951
0.014307221
0.014455909
0.014597979
0.014733402
0.014862153
0.014984212
0.015099565
0.0152082
0.015310112
0.015405296
0.015493755
0.015575492
0.015650514
0.015718832
0.015780448
0.015835342
0.01588285
0.01592381
0.015958724
0.015987238
0.016008847
0.016024024
0.016032848
0.016035348
0.016031512
0.016021314
0.016004783
0.015982023
0.015953098
0.015918075
0.015877026
0.015830031
0.015777173
0.01571854
0.015654228
0.015584337
0.015508973
0.015428248
0.015342279
0.015251191
0.015155113
0.015054179
0.014948531
0.014838314
0.014723686
0.014604868
0.01346519
0.013658207
0.013844768
0.014024751
0.014198093
0.014364747
0.014524671
0.014677831
0.0148242
0.014963756
0.015096482
0.015222366
0.015341401
0.015453584
0.015558915
0.015657399
0.015749043
0.015833858
0.01591186
0.01598307
0.016047523
0.016105286
0.016155428
0.016198909
0.016236057
0.01626693
0.016291161
0.016308517
0.016319465
0.016324081
0.016322289
0.016314129
0.016299545
0.016278665
0.01625155
0.016218266
0.016178884
0.016133479
0.01608213
0.016024924
0.015961951
0.015893307
0.015819094
0.015739421
0.015654399
0.015564149
0.015468795
0.015368468
0.015263304
0.015153445
0.015039039
0.014920247
0.01479729
0.013899862
0.014091783
0.014276923
0.014455177
0.0146265
0.014790863
0.01494824
0.015098614
0.015241975
0.015378315
0.015507633
0.015629933
0.015745221
0.015853507
0.015954805
0.016049131
0.016136504
0.016216945
0.016290475
0.016357118
0.016416893
0.016469803
0.01651512
0.016553872
0.016586543
0.016612547
0.016631621
0.016644184
0.016650349
0.016650042
0.016643356
0.016630167
0.016610623
0.016584784
0.016552713
0.01651448
0.016470157
0.01641982
0.016363553
0.016301441
0.016233578
0.016160061
0.016080993
0.015996483
0.015906645
0.0158116
0.015711473
0.015606397
0.015496509
0.015381953
0.015262877
0.015139443
0.015011877
0.014383435
0.014573602
0.01475664
0.014932465
0.015101054
0.015262397
0.015416488
0.01556333
0.01570293
0.015835299
0.015960454
0.016078414
0.016189202
0.016292843
0.016389365
0.016478797
0.016561171
0.016636518
0.016704871
0.016766263
0.016820726
0.016867572
0.016907671
0.016941528
0.01696875
0.016988962
0.017002612
0.0170098
0.017010476
0.017004719
0.016992428
0.016973716
0.016948659
0.01691732
0.016879764
0.016836063
0.01678629
0.016730525
0.01666885
0.016601355
0.016528133
0.016449283
0.016364908
0.016275118
0.016180029
0.016079762
0.015974443
0.015864204
0.015749185
0.015629529
0.015505386
0.015376922
0.015244366
0.014910748
0.015098389
0.015278539
0.015451141
0.015616194
0.015773711
0.015923709
0.016066213
0.016201249
0.01632885
0.01644905
0.016561888
0.016667403
0.016765637
0.016856633
0.016940434
0.017017085
0.017086632
0.017149119
0.01720459
0.017252339
0.01729328
0.017327851
0.01735577
0.017376604
0.017390825
0.017398529
0.017399689
0.017394369
0.017382484
0.017364135
0.017339399
0.017308341
0.017271026
0.017227521
0.0171779
0.017122239
0.017060617
0.016993119
0.016919835
0.016840859
0.016756289
0.016666231
0.016570795
0.016470096
0.016364256
0.016253401
0.016137665
0.016017185
0.015892106
0.015762578
0.015628768
0.015490994
0.015476947
0.015661189
0.015837575
0.016006076
0.016166719
0.016319541
0.016464584
0.016601897
0.016731529
0.016853532
0.016967964
0.01707488
0.017174339
0.017266399
0.017351121
0.017428562
0.017498782
0.017561837
0.017617786
0.017665909
0.017707154
0.017741933
0.017770039
0.017790994
0.01780529
0.017813023
0.01781418
0.017808824
0.017796873
0.017778432
0.017753577
0.017722372
0.017684883
0.017641176
0.017591322
0.017535394
0.017473469
0.017405628
0.017331957
0.017252545
0.017167486
0.017076879
0.016980831
0.01687945
0.016772852
0.016661158
0.016544496
0.016422997
0.0162968
0.016166045
0.016030875
0.01607742
0.016257304
0.016428973
0.01659243
0.01674773
0.01689494
0.017034127
0.017165364
0.017288725
0.017404285
0.017512121
0.017612311
0.017704931
0.01779006
0.017867772
0.01793814
0.018001237
0.018057134
0.018105105
0.018146131
0.018180622
0.018208395
0.018228971
0.01824285
0.018250137
0.01825081
0.018244959
0.01823248
0.018213503
0.018188101
0.018156337
0.018118275
0.018073981
0.018023526
0.01796698
0.017904417
0.017835915
0.017761555
0.017681421
0.017595604
0.017504197
0.017407299
0.017305015
0.017197454
0.017084731
0.016966967
0.016844288
0.016716826
0.016584719
0.016448115
0.016307217
0.016707748
0.016882246
0.017048187
0.017205607
0.017354592
0.017495239
0.017627643
0.017751902
0.017868116
0.017976382
0.018076798
0.018169464
0.018254475
0.01833193
0.018401918
0.018464527
0.018519842
0.018567136
0.018607407
0.018641115
0.018668036
0.018687735
0.018700706
0.018707074
0.018706788
0.01869998
0.018686519
0.018666573
0.018640202
0.018607472
0.018568447
0.018523194
0.018471782
0.018414278
0.018350755
0.018281286
0.01820595
0.018124825
0.018037998
0.017945556
0.017847593
0.017744206
0.017635499
0.01752158
0.017402563
0.017278568
0.017149721
0.017016152
0.016878001
0.016735416
0.016588606
0.017363677
0.017531712
0.017690872
0.017841229
0.017982904
0.018116021
0.018240706
0.018357084
0.018465277
0.018565408
0.018657594
0.018741954
0.018818609
0.018887676
0.018949259
0.019003458
0.019049563
0.019088569
0.019120923
0.019146485
0.01916481
0.019176385
0.019181349
0.019179655
0.019171396
0.019156522
0.019135171
0.019107413
0.019073314
0.019032941
0.01898636
0.018933638
0.018874843
0.018810044
0.018739312
0.018662721
0.018580347
0.018492269
0.01839857
0.018299338
0.018194663
0.018084642
0.017969377
0.017848974
0.017723546
0.017593211
0.017458093
0.017318323
0.017174038
0.017025387
0.016872573
0.0180411
0.018201562
0.018352867
0.018495123
0.018628484
0.018753106
0.018869143
0.018976747
0.019076066
0.019167241
0.01925041
0.019325711
0.019393294
0.019453299
0.019505843
0.019550223
0.019587472
0.019618134
0.019641402
0.019658022
0.019667718
0.019670788
0.01966722
0.019657043
0.019640304
0.019617117
0.019587553
0.019551683
0.019509576
0.019461298
0.019406916
0.019346498
0.01928011
0.019207822
0.019129702
0.019045823
0.018956258
0.018861086
0.018760388
0.018654247
0.018542755
0.018426003
0.018304093
0.018177128
0.018045218
0.01790848
0.017767036
0.017621015
0.017470552
0.017315793
0.017156938
0.018736052
0.018887821
0.019030192
0.01916331
0.019287364
0.019402541
0.019509022
0.019606986
0.019696605
0.019778042
0.019851444
0.019916956
0.019974796
0.020025123
0.020067287
0.020102153
0.020130496
0.020151402
0.020165469
0.020172838
0.020173494
0.020167587
0.020155018
0.020135963
0.020110502
0.020078711
0.020040665
0.019996435
0.019946089
0.019889696
0.019827321
0.019759031
0.01968489
0.019604966
0.019519326
0.01942804
0.01933118
0.019228821
0.019121041
0.019007921
0.018889549
0.018766015
0.018637416
0.018503853
0.018365433
0.018222271
0.018074486
0.017922203
0.017765557
0.017604692
0.017439803
0.019444709
0.019586672
0.019719044
0.019842009
0.019955788
0.020060598
0.020156651
0.020244146
0.020323282
0.020394249
0.020457191
0.02051217
0.020559665
0.020599021
0.02063139
0.020656365
0.020674483
0.020685649
0.020690119
0.02068789
0.020679078
0.02066368
0.020641848
0.020613669
0.020579224
0.020538592
0.020491847
0.02043906
0.020380298
0.020315629
0.020245117
0.020168826
0.020086819
0.01999916
0.019905915
0.019807149
0.019702933
0.019593336
0.019478434
0.019358305
0.019233033
0.019102705
0.018967412
0.018827255
0.018682335
0.018532765
0.01837866
0.018220143
0.018057345
0.017890408
0.017719523
0.020163398
0.020294465
0.020415803
0.020527634
0.02063021
0.020723778
0.020808576
0.020884822
0.02095273
0.021012577
0.021064549
0.021107979
0.021144032
0.021173195
0.021194698
0.021209444
0.021217138
0.021218139
0.021212555
0.021200313
0.021181611
0.021156539
0.021125194
0.021087663
0.02104403
0.020994372
0.020938762
0.02087727
0.020809964
0.020736906
0.02065816
0.020573785
0.020483844
0.020388395
0.020287501
0.020181225
0.020069631
0.019952786
0.019830762
0.019703633
0.019571477
0.019434378
0.019292424
0.01914571
0.018994335
0.018838405
0.018678034
0.018513341
0.018344453
0.018171508
0.017994697
0.020888603
0.021007725
0.02111704
0.021216803
0.0213073
0.021388806
0.02146159
0.021525873
0.021581788
0.021629902
0.021669553
0.02170177
0.021726497
0.021744279
0.021754873
0.021758717
0.021755776
0.021746221
0.021730112
0.021707612
0.02167883
0.021643864
0.021602809
0.021555753
0.021502777
0.021443959
0.021379369
0.021309075
0.021233141
0.021151628
0.021064595
0.020972099
0.020874196
0.020770944
0.020662398
0.020548618
0.020429664
0.020305598
0.020176486
0.020042398
0.019903409
0.019759596
0.019611043
0.019457841
0.019300084
0.019137876
0.018971322
0.01880054
0.01862565
0.018446786
0.018264132
0.021616979
0.021723163
0.021819522
0.021906345
0.02198395
0.022052626
0.022112733
0.022164517
0.022207429
0.022242666
0.02227074
0.022290918
0.022303954
0.022310092
0.022309346
0.022301983
0.022287924
0.022267453
0.022240672
0.022207704
0.022168658
0.022123635
0.022072728
0.022016025
0.021953605
0.021885542
0.021811905
0.021732757
0.021648158
0.021558167
0.021462837
0.02136222
0.02125637
0.021145337
0.021029173
0.020907932
0.020781668
0.02065044
0.020514307
0.020373335
0.020227591
0.02007715
0.019922091
0.019762497
0.01959846
0.019430076
0.01925745
0.019080691
0.018899915
0.018715239
0.022345365
0.022437682
0.022520227
0.022593297
0.022657284
0.022712363
0.022759193
0.022797055
0.022827381
0.022849815
0.022865243
0.022873154
0.022874123
0.022868368
0.022855852
0.02283686
0.022811507
0.022779951
0.022742318
0.022698727
0.022649288
0.022594099
0.022533253
0.022466833
0.022394915
0.02231757
0.022234863
0.022146853
0.022053595
0.021955142
0.021851544
0.021742847
0.021629098
0.021510343
0.021386628
0.021258
0.02112451
0.020986208
0.02084315
0.020695394
0.020543003
0.020386045
0.020224594
0.020058729
0.019888535
0.019714105
0.019535536
0.019352937
0.019166422
0.018976145
0.023070795
0.023148383
0.023216354
0.02327489
0.023324757
0.023365256
0.023397831
0.023422269
0.023439323
0.023448702
0.02345105
0.023446403
0.023434914
0.023416831
0.023392334
0.023361597
0.023324766
0.023281985
0.023233381
0.023179072
0.023119163
0.023053753
0.022982928
0.022906769
0.022825347
0.022738729
0.022646973
0.022550134
0.022448262
0.022341403
0.022229601
0.022112897
0.021991332
0.021864945
0.021733776
0.021597867
0.021457259
0.021312
0.021162136
0.021007722
0.020848814
0.020685473
0.020517768
0.020345772
0.020169565
0.019989233
0.019804872
0.019616583
0.01942448
0.019228719
0.02379052
0.023852543
0.023905407
0.023948362
0.023983003
0.024009134
0.02402754
0.024038012
0.024041201
0.024037205
0.024026261
0.024008554
0.023984345
0.023953827
0.02391718
0.023874573
0.023826156
0.023772066
0.02371243
0.023647361
0.023576961
0.023501322
0.023420529
0.023334654
0.023243766
0.023147923
0.02304718
0.022941584
0.022831178
0.022716004
0.022596097
0.022471492
0.022342223
0.022208323
0.022069824
0.021926762
0.021779173
0.021627094
0.021470569
0.021309643
0.021144367
0.020974797
0.020800993
0.020623024
0.020440964
0.020254894
0.020064902
0.019871086
0.019673551
0.019472448
0.024502092
0.024547425
0.024584007
0.024611602
0.024631101
0.024642315
0.024645951
0.024642162
0.024631232
0.024613368
0.024588889
0.024558001
0.024520922
0.024477846
0.024428954
0.024374408
0.024314356
0.024248931
0.024178255
0.024102436
0.02402157
0.023935745
0.023845038
0.023749515
0.023649239
0.023544261
0.023434628
0.023320381
0.023201557
0.023078188
0.022950304
0.022817933
0.022681099
0.02253983
0.022394151
0.022244089
0.022089674
0.021930936
0.021767911
0.021600639
0.021429162
0.021253531
0.0210738
0.020890031
0.020702292
0.020510658
0.020315212
0.020116044
0.019913246
0.025202109
0.025230949
0.025251341
0.025262998
0.025266728
0.025262736
0.025251343
0.025232808
0.025207495
0.025175644
0.025137513
0.025093326
0.025043291
0.024987601
0.024926429
0.024859933
0.024788255
0.024711522
0.02462985
0.02454334
0.024452082
0.024356156
0.024255631
0.024150568
0.024041019
0.02392703
0.02380864
0.023685881
0.023558783
0.02342737
0.023291664
0.023151685
0.023007451
0.022858979
0.02270629
0.0225494
0.022388334
0.022223114
0.022053768
0.02188033
0.021702835
0.021521326
0.021335852
0.021146467
0.020953235
0.020756223
0.020555511
0.020351185
0.02014336
0.025889673
0.025901531
0.025905069
0.025900513
0.025888219
0.025868528
0.025841843
0.025808449
0.025768646
0.025722697
0.025670846
0.025613315
0.025550306
0.025482006
0.02540858
0.025330179
0.025246937
0.025158975
0.025066399
0.024969303
0.024867769
0.024761867
0.02465166
0.024537199
0.024418528
0.024295685
0.0241687
0.024037596
0.023902396
0.023763115
0.023619766
0.023472361
0.02332091
0.023165423
0.02300591
0.022842384
0.022674857
0.022503346
0.022327873
0.022148462
0.021965142
0.02177795
0.021586926
0.021392121
0.021193589
0.020991395
0.02078561
0.020576317
0.020363634
0.026562591
0.026557164
0.026543593
0.026522304
0.026493738
0.02645824
0.02641616
0.026367804
0.026313457
0.026253379
0.026187806
0.026116953
0.026041015
0.025960168
0.02587457
0.025784361
0.025689668
0.025590602
0.025487258
0.025379723
0.025268067
0.025152354
0.025032634
0.024908952
0.024781341
0.024649829
0.024514438
0.024375183
0.024232076
0.024085124
0.023934332
0.023779702
0.023621237
0.023458937
0.023292805
0.023122845
0.022949062
0.022771466
0.022590069
0.022404889
0.022215948
0.022023275
0.021826905
0.021626881
0.021423251
0.021216073
0.021005413
0.020791346
0.02057398
0.027219312
0.027196017
0.027165105
0.027126975
0.02708203
0.027030632
0.026973114
0.026909779
0.026840902
0.026766734
0.026687502
0.026603411
0.026514645
0.026421371
0.026323733
0.026221865
0.026115879
0.026005876
0.025891942
0.025774152
0.025652566
0.025527238
0.025398208
0.025265509
0.025129167
0.024989198
0.024845615
0.024698424
0.024547626
0.02439322
0.024235202
0.024073565
0.023908303
0.023739407
0.023566873
0.023390695
0.023210872
0.023027404
0.022840296
0.022649559
0.022455208
0.022257264
0.022055757
0.02185072
0.021642198
0.021430242
0.021214909
0.020996263
0.027858017
0.027816739
0.027768371
0.027713312
0.027651954
0.027584651
0.027511724
0.027433465
0.02735014
0.027261986
0.027169219
0.027072031
0.026970594
0.026865061
0.026755567
0.026642229
0.02652515
0.026404418
0.026280108
0.026152282
0.026020991
0.025886274
0.025748163
0.02560668
0.025461838
0.025313647
0.025162105
0.025007212
0.024848957
0.024687331
0.024522319
0.024353907
0.024182077
0.024006815
0.023828106
0.023645936
0.023460295
0.023271177
0.023078579
0.022882504
0.022682959
0.022479959
0.022273526
0.022063689
0.021850484
0.021633957
0.021414163
0.021191174
0.028477468
0.028418127
0.02835227
0.02828029
0.028202561
0.028119424
0.028031189
0.027938132
0.027840504
0.027738529
0.027632406
0.027522315
0.027408413
0.027290838
0.027169711
0.027045136
0.026917202
0.026785985
0.026651545
0.026513933
0.026373186
0.026229335
0.026082396
0.025932382
0.025779296
0.025623133
0.025463886
0.02530154
0.025136078
0.024967478
0.024795717
0.024620772
0.024442616
0.024261224
0.024076575
0.023888646
0.023697418
0.023502878
0.023305015
0.023103823
0.022899305
0.022691466
0.022480323
0.022265898
0.022048221
0.021827333
0.021603283
0.021376142
0.029076554
0.028999165
0.028915875
0.028827061
0.028733079
0.028634255
0.028530879
0.028423212
0.028311486
0.028195909
0.028076664
0.027953912
0.027827795
0.027698436
0.02756594
0.027430396
0.027291879
0.027150449
0.027006155
0.026859033
0.026709108
0.026556397
0.026400906
0.026242634
0.026081573
0.025917709
0.025751023
0.025581488
0.025409079
0.025233763
0.025055508
0.02487428
0.024690045
0.02450277
0.024312422
0.024118971
0.023922392
0.023722661
0.023519761
0.023313678
0.023104408
0.022891951
0.022676314
0.022457514
0.022235575
0.022010533
0.021782431
0.021551334
0.029654353
0.02955902
0.029458434
0.029352952
0.029242909
0.02912861
0.029010324
0.028888293
0.028762728
0.028633819
0.028501729
0.028366602
0.028228562
0.028087715
0.027944148
0.027797935
0.027649136
0.027497795
0.027343947
0.027187613
0.027028807
0.026867531
0.026703779
0.026537538
0.026368789
0.026197505
0.026023657
0.025847209
0.025668122
0.025486357
0.02530187
0.025114618
0.024924558
0.024731647
0.024535846
0.024337116
0.024135422
0.023930734
0.023723027
0.02351228
0.023298481
0.023081623
0.022861708
0.022638746
0.022412755
0.022183764
0.021951812
0.021716957
0.03021012
0.030097032
0.029979366
0.029857453
0.029731607
0.029602107
0.029469199
0.029333102
0.029194007
0.029052081
0.028907467
0.02876029
0.028610654
0.028458645
0.028304336
0.028147782
0.027989026
0.027828099
0.027665018
0.027499791
0.027332418
0.027162887
0.026991181
0.026817273
0.026641132
0.026462721
0.026281999
0.026098919
0.025913432
0.025725489
0.025535037
0.025342024
0.025146396
0.024948104
0.024747097
0.02454333
0.02433676
0.02412735
0.023915065
0.02369988
0.023481774
0.023260734
0.023036755
0.022809841
0.022580005
0.02234727
0.022111668
0.021873249
0.030743284
0.030612706
0.030478245
0.030340207
0.030198876
0.030054505
0.029907315
0.029757499
0.029605226
0.029450638
0.029293858
0.029134988
0.028974113
0.0288113
0.028646602
0.028480058
0.028311693
0.028141522
0.027969547
0.027795761
0.027620149
0.027442687
0.027263343
0.02708208
0.026898854
0.026713616
0.026526313
0.026336889
0.026145285
0.025951441
0.025755294
0.025556784
0.025355848
0.025152427
0.024946464
0.024737904
0.024526697
0.024312797
0.024096165
0.023876765
0.023654572
0.023429566
0.023201735
0.022971078
0.022737601
0.02250132
0.022262265
0.022020477
0.03125343
0.0311057
0.030954797
0.030800996
0.030644553
0.030485692
0.030324605
0.03016146
0.029996398
0.029829539
0.029660982
0.029490807
0.029319077
0.02914584
0.028971129
0.028794965
0.028617356
0.028438299
0.028257782
0.028075784
0.027892273
0.027707212
0.027520557
0.027332258
0.027142258
0.026950497
0.026756912
0.026561436
0.026364
0.026164533
0.025962964
0.025759222
0.025553238
0.025344942
0.02513427
0.024921159
0.024705552
0.024487394
0.02426664
0.024043249
0.023817186
0.023588427
0.023356953
0.023122756
0.022885837
0.022646209
0.022403892
0.022158923
0.031740295
0.031575814
0.031408879
0.031239734
0.031068601
0.030895674
0.030721117
0.030545068
0.030367641
0.030188932
0.030009013
0.029827944
0.029645765
0.029462503
0.029278172
0.029092774
0.028906299
0.028718729
0.028530034
0.028340177
0.028149115
0.027956795
0.02776316
0.027568148
0.02737169
0.027173716
0.02697415
0.026772915
0.026569932
0.02636512
0.026158401
0.025949693
0.025738918
0.025526
0.025310864
0.025093443
0.024873669
0.024651483
0.024426831
0.024199666
0.023969947
0.023737643
0.02350273
0.023265194
0.02302503
0.022782245
0.022536855
0.02228889
0.032203753
0.032022984
0.031840479
0.031656452
0.031471094
0.031284565
0.031096998
0.030908501
0.030719162
0.030529047
0.030338206
0.030146674
0.029954469
0.029761598
0.029568053
0.029373819
0.029178867
0.028983162
0.02878666
0.028589307
0.028391046
0.028191811
0.027991532
0.027790133
0.027587535
0.027383656
0.027178409
0.026971708
0.026763463
0.026553586
0.026341985
0.026128574
0.025913265
0.025695973
0.025476618
0.025255122
0.025031412
0.024805422
0.024577092
0.024346366
0.0241132
0.023877556
0.023639403
0.023398724
0.023155506
0.022909751
0.022661471
0.022410688
0.03264381
0.032447264
0.032249694
0.032051291
0.031852209
0.031652574
0.031452487
0.031252025
0.031051246
0.030850192
0.030648886
0.030447338
0.030245544
0.03004349
0.029841148
0.029638484
0.029435451
0.029231998
0.029028064
0.028823581
0.028618476
0.028412671
0.028206083
0.027998624
0.027790204
0.027580728
0.027370101
0.027158225
0.026945001
0.026730332
0.026514118
0.026296263
0.026076671
0.025855252
0.025631915
0.025406577
0.025179157
0.024949584
0.024717789
0.024483713
0.024247303
0.024008517
0.02376732
0.023523686
0.023277601
0.023029058
0.022778064
0.022524637
0.033692498
0.033482663
0.033271939
0.033060615
0.032848819
0.032636727
0.032424487
0.032212213
0.031999995
0.031787901
0.031575978
0.031364253
0.031152741
0.030941439
0.030730334
0.030519398
0.030308596
0.03009788
0.029887198
0.029676485
0.029465672
0.029254683
0.029043436
0.028831844
0.028619815
0.028407253
0.02819406
0.027980132
0.027765366
0.027549654
0.027332891
0.027114968
0.026895778
0.026675213
0.026453169
0.026229544
0.026004237
0.025777152
0.025548199
0.025317291
0.025084348
0.024849297
0.024612074
0.024372619
0.024130885
0.023886832
0.023640429
0.023391655
0.023140499
0.022886963
0.022631059
0.034134944
0.033908049
0.033681124
0.033454365
0.033227906
0.033001871
0.032776361
0.032551453
0.032327198
0.03210363
0.031880764
0.0316586
0.031437123
0.031216306
0.030996109
0.030776484
0.030557374
0.030338712
0.030120425
0.029902433
0.02968465
0.029466984
0.029249339
0.029031613
0.028813703
0.0285955
0.028376894
0.028157771
0.027938016
0.027717513
0.027496146
0.027273798
0.027050353
0.026825696
0.026599713
0.026372296
0.026143336
0.025912732
0.025680385
0.025446203
0.0252101
0.024971997
0.024731823
0.024489515
0.02424502
0.023998293
0.023749299
0.023498011
0.023244413
0.0229885
0.022730279
0.034552715
0.034309412
0.034066919
0.033825372
0.033584873
0.033345501
0.033107314
0.032870347
0.032634617
0.032400122
0.032166846
0.031934758
0.031703817
0.031473969
0.031245151
0.031017294
0.030790317
0.030564137
0.030338659
0.030113789
0.029889423
0.029665455
0.029441774
0.029218267
0.028994815
0.028771299
0.028547597
0.028323585
0.028099138
0.027874132
0.027648439
0.027421934
0.027194494
0.026965996
0.026736319
0.026505346
0.026272962
0.02603906
0.025803534
0.025566286
0.025327225
0.025086267
0.024843333
0.024598359
0.024351283
0.024102059
0.023850645
0.023597013
0.023341136
0.023083004
0.02282262
0.034946112
0.034687092
0.034429706
0.034174038
0.033920146
0.033668065
0.03341781
0.033169377
0.032922744
0.032677878
0.03243473
0.03219324
0.031953339
0.031714949
0.031477983
0.031242349
0.031007947
0.030774673
0.030542417
0.030311066
0.030080501
0.029850602
0.029621243
0.029392299
0.029163639
0.028935132
0.028706646
0.028478047
0.028249199
0.028019969
0.027790221
0.027559823
0.027328642
0.027096547
0.026863412
0.026629113
0.026393528
0.026156542
0.025918046
0.025677934
0.025436111
0.025192486
0.024946978
0.024699515
0.024450033
0.02419848
0.023944814
0.023688999
0.023431002
0.023170802
0.022908402
0.035315532
0.035041518
0.034769944
0.03450084
0.03423422
0.033970073
0.033708371
0.033449073
0.03319212
0.032937444
0.032684965
0.032434597
0.032186241
0.031939796
0.031695152
0.031452194
0.031210804
0.030970859
0.030732231
0.030494791
0.030258406
0.03002294
0.029788256
0.029554214
0.029320673
0.029087491
0.028854525
0.028621632
0.028388667
0.028155486
0.027921948
0.027687911
0.027453234
0.027217782
0.026981419
0.026744015
0.026505443
0.026265582
0.026024316
0.025781536
0.025537139
0.025291031
0.025043125
0.024793345
0.024541624
0.024287905
0.024032145
0.023774305
0.023514341
0.023252212
0.022987938
0.035661461
0.035373199
0.03508816
0.034806322
0.03452765
0.034252088
0.033979569
0.033710011
0.033443321
0.033179398
0.032918132
0.032659406
0.032403099
0.032149082
0.031897226
0.031647394
0.031399448
0.031153247
0.030908647
0.030665504
0.030423669
0.030182994
0.029943328
0.02970452
0.029466418
0.029228868
0.028991719
0.028754817
0.02851801
0.028281145
0.028044072
0.027806643
0.02756871
0.027330129
0.02709076
0.026850466
0.026609114
0.026366579
0.026122737
0.025877475
0.025630686
0.02538227
0.025132137
0.024880205
0.024626404
0.024370675
0.024112972
0.02385326
0.035984455
0.035682711
0.035384944
0.035091081
0.034801039
0.03451472
0.034232015
0.033952804
0.03367696
0.03340435
0.033134835
0.03286827
0.032604508
0.032343398
0.032084788
0.031828523
0.031574445
0.031322396
0.031072217
0.030823747
0.030576826
0.03033129
0.030086978
0.029843726
0.029601373
0.029359756
0.029118711
0.028878078
0.028637694
0.028397402
0.028157042
0.027916459
0.027675499
0.027434012
0.027191851
0.026948874
0.026704942
0.026459924
0.026213693
0.025966129
0.025717122
0.025466567
0.025214369
0.024960443
0.024704716
0.024447124
0.024187619
0.036285138
0.035970684
0.035660933
0.035355759
0.035055032
0.034758613
0.034466351
0.034178091
0.033893673
0.033612931
0.033335698
0.033061804
0.032791077
0.032523344
0.032258432
0.031996166
0.031736371
0.031478873
0.031223497
0.030970068
0.030718412
0.030468355
0.030219722
0.029972341
0.029726038
0.029480641
0.029235979
0.028991882
0.028748181
0.028504709
0.0282613
0.028017794
0.027774028
0.027529849
0.027285101
0.027039639
0.026793319
0.026546003
0.02629756
0.026047868
0.025796808
0.025544275
0.025290169
0.025034401
0.024776892
0.024517577
0.024256396
0.036564182
0.036237799
0.035916809
0.035601037
0.035290308
0.034984441
0.034683247
0.034386535
0.034094113
0.033805786
0.03352136
0.033240638
0.032963425
0.032689529
0.032418754
0.032150909
0.031885802
0.031623243
0.031363041
0.031105011
0.030848963
0.030594712
0.030342075
0.030090866
0.029840903
0.029592006
0.029343996
0.029096693
0.028849922
0.028603508
0.028357281
0.028111072
0.027864714
0.027618046
0.02737091
0.027123153
0.026874627
0.02662519
0.026374707
0.02612305
0.025870098
0.025615741
0.025359875
0.025102407
0.024843258
0.024582354
0.024319629
0.036822307
0.036484774
0.036153287
0.035827625
0.03550757
0.035192899
0.034883388
0.034578813
0.034278948
0.033983573
0.033692464
0.033405404
0.033122175
0.032842562
0.032566354
0.03229334
0.032023313
0.031756068
0.031491402
0.031229114
0.030969005
0.030710879
0.03045454
0.030199795
0.029946454
0.029694326
0.029443224
0.029192964
0.028943361
0.028694235
0.02844541
0.028196709
0.027947962
0.027699002
0.027449665
0.027199795
0.026949239
0.02669785
0.02644549
0.026192025
0.025937333
0.025681298
0.025423814
0.025164785
0.024904126
0.024641763
0.024377621
0.037060269
0.036712358
0.036371108
0.036036256
0.03570754
0.035384699
0.035067475
0.034755611
0.034448853
0.034146952
0.033849661
0.033556739
0.033267948
0.032983054
0.032701827
0.032424041
0.032149474
0.031877907
0.031609124
0.031342911
0.03107906
0.030817364
0.030557616
0.030299617
0.030043165
0.029788064
0.029534119
0.029281138
0.029028932
0.028777313
0.028526099
0.02827511
0.028024169
0.027773103
0.027521747
0.027269937
0.027017518
0.026764338
0.026510255
0.026255133
0.025998845
0.025741272
0.025482305
0.025221845
0.024959803
0.024696101
0.024430664
0.03727885
0.036921323
0.036571033
0.036227676
0.035890951
0.035560561
0.035236213
0.034917622
0.034604504
0.034296585
0.033993597
0.033695275
0.033401362
0.033111607
0.032825763
0.032543589
0.032264848
0.031989309
0.031716743
0.031446926
0.031179639
0.030914665
0.03065179
0.030390804
0.0301315
0.029873673
0.029617122
0.029361648
0.029107056
0.028853154
0.028599753
0.028346668
0.028093718
0.027840726
0.027587521
0.027333937
0.027079813
0.026824995
0.026569338
0.026312701
0.026054954
0.025795975
0.025535653
0.025273885
0.02501058
0.024745657
0.024479037
0.037478854
0.037112457
0.036753834