/*--------------------------------*- C++ -*----------------------------------*\
| =========                 |                                                 |
| \\      /  F ield         | OpenFOAM: The Open Source CFD Toolbox           |
|  \\    /   O peration     | Version:  2312                                  |
|   \\  /    A nd           | Website:  www.openfoam.com                      |
|    \\/     M anipulation  |                                                 |
\*---------------------------------------------------------------------------*/
FoamFile
{
    version     2.0;
    format      ascii;
    arch        "LSB;label=32;scalar=64";
    class       volScalarField;
    location    "0.09";
    object      f_Bilger;
}
// * * * * * * * * * * * * * * * * * * * * * * * * * * * * * * * * * * * * * //

dimensions      [0 0 0 0 0 0 0];

internalField   nonuniform List<scalar> 
3272
(
0.039190595
0.039725106
0.04023891
0.040731477
0.041202513
0.041651771
0.042079033
0.0424841
0.0428668
0.043226978
0.043564499
0.043879248
0.044171128
0.044440062
0.044685991
0.044908874
0.045108688
0.04528543
0.045439114
0.045569772
0.045677455
0.045762235
0.045824201
0.045863463
0.045879835
0.045874166
0.045846388
0.045796213
0.045724134
0.045632055
0.045518928
0.045383182
0.045228754
0.045053638
0.044855981
0.044638612
0.044401917
0.044146306
0.043872218
0.043580111
0.04327047
0.042943799
0.042600626
0.042241499
0.041866985
0.041477672
0.041074165
0.040657085
0.04022707
0.039784777
0.039330879
0.038866086
0.03839119
0.039500434
0.04003515
0.040548881
0.041041128
0.041511612
0.041960099
0.042386382
0.042790274
0.043171609
0.043530241
0.043866044
0.044178911
0.044468754
0.044735503
0.044979107
0.045199531
0.04539676
0.045570798
0.045721664
0.045849398
0.045954055
0.046035714
0.046094468
0.046130436
0.046143497
0.046134454
0.046103127
0.046049418
0.045973764
0.045878107
0.045761326
0.045621644
0.045463565
0.045283997
0.045082484
0.044861202
0.044620548
0.044360946
0.044082838
0.043786689
0.043472987
0.043142241
0.042794981
0.042431759
0.042053146
0.041659731
0.041252122
0.040830941
0.040396825
0.039950422
0.039492391
0.039023418
0.0385444
0.040085897
0.040620446
0.041133565
0.041624769
0.042093797
0.042540433
0.042964487
0.043365789
0.043744192
0.044099566
0.044431801
0.044740807
0.045026511
0.045288857
0.045527809
0.045743347
0.04593547
0.046104192
0.046249546
0.046371582
0.046470368
0.046545989
0.046598549
0.046628174
0.046634878
0.046619363
0.046581259
0.046520842
0.046438518
0.046336093
0.046212025
0.046065252
0.045900195
0.045712486
0.045503668
0.045275012
0.045026931
0.044759856
0.044474237
0.044170546
0.043849275
0.043510941
0.043156079
0.042785247
0.042399021
0.041997997
0.041582786
0.041154017
0.040712331
0.040258382
0.039792835
0.03931639
0.038829954
0.040917874
0.041451496
0.041963072
0.042452142
0.04291847
0.043361866
0.043782165
0.044179224
0.044552919
0.044903146
0.045229819
0.04553287
0.04581225
0.046067925
0.046299878
0.046508111
0.046692641
0.046853501
0.046990741
0.047104427
0.047194641
0.04726148
0.047305057
0.0473255
0.047323031
0.047298072
0.047250196
0.047180003
0.047089021
0.046976533
0.046841071
0.046686036
0.04651021
0.046311241
0.046092031
0.045852948
0.045594398
0.045316811
0.045020644
0.044706374
0.044374501
0.044025549
0.043660061
0.0432786
0.042881752
0.042470118
0.042044318
0.041604988
0.041152776
0.040688345
0.040212369
0.039725556
0.039228829
0.041970774
0.04250229
0.043010999
0.043496478
0.043958524
0.044396985
0.044811728
0.045202643
0.045569641
0.04591265
0.046231613
0.046526495
0.046797273
0.047043943
0.047266515
0.047465016
0.047639485
0.047789981
0.047916575
0.048019355
0.048098422
0.048153892
0.048185881
0.048194452
0.048180253
0.048142958
0.048082656
0.048001202
0.047897935
0.047772665
0.047624232
0.047457029
0.047266766
0.0470549
0.046822691
0.046570545
0.04629888
0.046008141
0.04569879
0.045371315
0.045026223
0.044664045
0.044285334
0.043890661
0.043480619
0.043055818
0.042616887
0.042164469
0.041699223
0.041221821
0.040732946
0.040233316
0.039723866
0.043221811
0.043749626
0.044253758
0.044733831
0.045189691
0.045621224
0.046028344
0.046410982
0.046769089
0.047102632
0.047411594
0.047695973
0.047955784
0.048191055
0.048401827
0.048588157
0.048750113
0.048887782
0.049001259
0.049090659
0.049156115
0.049197786
0.049215498
0.0492101
0.049181566
0.049129642
0.049054884
0.048959034
0.048841038
0.048699501
0.048538204
0.048354526
0.048148115
0.047920937
0.047673375
0.047405835
0.047118746
0.046812558
0.046487744
0.046144798
0.045784238
0.045406602
0.04501245
0.044602364
0.044176944
0.04373681
0.043282598
0.042814962
0.042334569
0.0418421
0.041338251
0.040823748
0.040299538
0.044650358
0.045172479
0.045669958
0.046142478
0.046589937
0.047012278
0.047409464
0.047781477
0.048128313
0.048449987
0.048746526
0.049017971
0.049264374
0.049485802
0.049682332
0.049854054
0.050001069
0.050123489
0.050221439
0.050295057
0.050344488
0.050369887
0.0503714
0.050349673
0.05030418
0.050235428
0.050145013
0.050032153
0.049895512
0.049738575
0.049559896
0.049357266
0.049133499
0.048888941
0.048623977
0.048339018
0.048034501
0.047710882
0.047368644
0.047008289
0.046630341
0.046235349
0.04582388
0.045396523
0.044953888
0.044496602
0.04402531
0.043540675
0.043043373
0.042534094
0.042013544
0.041482462
0.040941806
0.046237456
0.046751521
0.047239933
0.047702444
0.048139017
0.048549655
0.048934382
0.049293234
0.049626265
0.049933538
0.050215131
0.050471131
0.050701635
0.05090675
0.051086592
0.051241287
0.05137097
0.051475783
0.051555882
0.051611428
0.051642595
0.051649483
0.05163277
0.051592127
0.051527804
0.051441472
0.051332435
0.051199908
0.051043956
0.050868657
0.050668832
0.050447136
0.050204227
0.049940501
0.049656362
0.049352236
0.049028568
0.048685824
0.048324492
0.047945084
0.047548131
0.047134188
0.04670383
0.046257654
0.045796276
0.045320333
0.044830476
0.044327376
0.043811718
0.0432842
0.042745535
0.042196475
0.041638014
0.047965433
0.048468748
0.048945379
0.049395157
0.04981812
0.05021434
0.050583904
0.050926914
0.051243482
0.051533728
0.051797783
0.052035783
0.052247873
0.052434204
0.052594933
0.052730223
0.052840244
0.052925169
0.052985182
0.053020474
0.053031092
0.053017798
0.052980376
0.052918927
0.052835157
0.052728362
0.052597989
0.052443616
0.052269322
0.052070626
0.051849691
0.051607191
0.051343507
0.051059034
0.050754186
0.050429394
0.050085111
0.049721808
0.049339981
0.048940146
0.048522842
0.048088629
0.047638089
0.047171826
0.046690461
0.046194637
0.045685013
0.045162268
0.04462709
0.044080185
0.043522269
0.042954118
0.042377037
0.049817622
0.050307205
0.050769087
0.051203188
0.051609627
0.051988549
0.052340116
0.052664495
0.052961862
0.053232398
0.053476289
0.053693724
0.053884897
0.054050004
0.054189243
0.054302816
0.054390926
0.054453778
0.054491584
0.054504356
0.054492919
0.054457134
0.05439703
0.054314378
0.054208487
0.05407878
0.053924717
0.053750466
0.053551464
0.053330022
0.053086752
0.052822003
0.052536149
0.052229585
0.051902725
0.051556006
0.051189882
0.050804831
0.050401352
0.049979966
0.049541216
0.049085666
0.048613904
0.048126537
0.047624194
0.047107523
0.046577188
0.046033872
0.045478271
0.044911089
0.044333024
0.051778156
0.052250791
0.052694756
0.053110066
0.053496925
0.05385556
0.054186208
0.054489107
0.0547645
0.055012629
0.055233737
0.055428068
0.055595864
0.055737367
0.055852817
0.055942453
0.056006512
0.05604523
0.056058613
0.056047505
0.056011802
0.055951521
0.055868488
0.055762055
0.055631883
0.055476867
0.05530147
0.055100913
0.054877837
0.054632708
0.054365863
0.054077659
0.053768471
0.053438694
0.053088745
0.05271906
0.052330097
0.051922335
0.051496276
0.051052442
0.050591379
0.050113655
0.049619861
0.049110607
0.048586527
0.048048271
0.047496512
0.046931935
0.046355244
0.045767173
0.045168654
0.053831832
0.054284129
0.054706865
0.055100155
0.055464294
0.055799593
0.056106366
0.056384925
0.056635579
0.056858633
0.057054387
0.057223137
0.057365174
0.057480786
0.057570253
0.057633851
0.05767185
0.057684294
0.057672045
0.057634901
0.057572977
0.057488121
0.057379561
0.057246467
0.057091375
0.056912975
0.056709549
0.056483728
0.056235706
0.055965795
0.055674333
0.055361677
0.055028201
0.054674302
0.054300396
0.053906918
0.053494327
0.053063102
0.052613743
0.052146775
0.051662744
0.051162219
0.050645792
0.050114077
0.049567707
0.04900734
0.048433649
0.047847328
0.047249088
0.046639675
0.046020053
0.055964023
0.056392481
0.056790593
0.05715858
0.057496829
0.057805738
0.058085698
0.058337093
0.058560298
0.058755679
0.058923591
0.059064381
0.059178389
0.059265944
0.059327366
0.059362967
0.059372843
0.059357886
0.059318005
0.059252935
0.059164925
0.059053102
0.058916262
0.058757861
0.058575531
0.058368668
0.058139109
0.057887222
0.057613323
0.05731774
0.057000814
0.056662904
0.056304385
0.055925651
0.055527116
0.055109215
0.054672402
0.054217155
0.053743973
0.053253378
0.052745916
0.052222154
0.051682684
0.051128121
0.050559099
0.049976277
0.049380331
0.048771959
0.048151876
0.047520833
0.046879794
0.058160641
0.05856171
0.058931784
0.05927119
0.059580409
0.059859921
0.060110194
0.060331683
0.060524826
0.060690045
0.06082775
0.060938334
0.061022181
0.061079661
0.061111134
0.061116806
0.061097434
0.061052753
0.060984407
0.060891135
0.060774737
0.060632828
0.060469854
0.060282019
0.060070516
0.05983625
0.059579557
0.059300775
0.059000232
0.058678261
0.058335207
0.057971426
0.057587291
0.057183194
0.056759543
0.056316769
0.055855322
0.055375675
0.054878324
0.054363786
0.053832604
0.053285344
0.052722595
0.052144968
0.051553099
0.050947646
0.050329286
0.049698719
0.049056661
0.048403866
0.047741296
0.060408126
0.060778274
0.061116937
0.061424547
0.061701674
0.061948879
0.062166705
0.062355671
0.062516275
0.062648993
0.062754279
0.06283257
0.062884297
0.062909852
0.062909586
0.062884386
0.06283343
0.06275892
0.062660241
0.062537673
0.062389252
0.062220453
0.062025916
0.061808486
0.061568373
0.06130587
0.061021286
0.060714939
0.06038715
0.06003825
0.059668576
0.059278481
0.058868332
0.058438514
0.05798943
0.057521502
0.057035175
0.056530915
0.056009211
0.055470576
0.054915547
0.054344684
0.053758572
0.05315782
0.052543061
0.05191495
0.051274165
0.050621403
0.049957384
0.049282861
0.048598796
0.062693468
0.063029241
0.063333216
0.063605929
0.063848032
0.064060166
0.064242938
0.064396929
0.064522689
0.064620743
0.064691584
0.064735674
0.064753537
0.064745576
0.064712297
0.064654375
0.06457205
0.064465688
0.064334287
0.064181098
0.064003087
0.063801255
0.063576638
0.063329507
0.063060126
0.062768775
0.062455749
0.062121349
0.061765888
0.061389683
0.060993065
0.060576377
0.060139979
0.059684243
0.059209566
0.058716359
0.058205059
0.057676123
0.057130032
0.056567291
0.055988428
0.055393999
0.054784582
0.054160781
0.053523224
0.052872563
0.052209471
0.051534645
0.050848803
0.0501527
0.0494473
0.065004233
0.065302311
0.065568474
0.06580335
0.066007674
0.066182155
0.066327462
0.066444224
0.066533031
0.066594468
0.066629059
0.066637169
0.066620002
0.066576987
0.066510302
0.066417718
0.066303186
0.066161841
0.066000196
0.065812857
0.06560256
0.065369616
0.065114334
0.064836999
0.064537885
0.06421727
0.063875435
0.063512671
0.063129274
0.062725553
0.062301824
0.06185842
0.061395685
0.060913984
0.060413698
0.05989523
0.059359003
0.058805464
0.058235085
0.057648359
0.057045807
0.056427976
0.055795435
0.055148783
0.05448864
0.053815652
0.053130489
0.052433843
0.051726426
0.051008993
0.050282515
0.067328606
0.067585855
0.067811276
0.068005584
0.068169586
0.068304053
0.068409708
0.06848722
0.068537173
0.068560268
0.068556851
0.068527993
0.068474344
0.06839562
0.068293726
0.068166017
0.068016978
0.067842795
0.067645369
0.067425255
0.067182761
0.066918184
0.066631811
0.066323918
0.065994775
0.065644647
0.065273807
0.064882528
0.064471094
0.064039796
0.063588937
0.063118833
0.062629817
0.062122237
0.06159646
0.061052876
0.060491894
0.059913949
0.0593195
0.058709029
0.058083047
0.057442088
0.056786715
0.056117516
0.055435105
0.05474012
0.054033223
0.053315099
0.052586452
0.051848019
0.051100775
0.069655436
0.069868951
0.070050937
0.070202185
0.070323566
0.070415901
0.070479971
0.070516513
0.070525849
0.070509507
0.070466668
0.070400002
0.070308514
0.070192972
0.070054431
0.069892474
0.069705819
0.069496799
0.069265475
0.069012131
0.068737054
0.068440521
0.068122804
0.067784162
0.067424851
0.067045124
0.066645236
0.066225444
0.065786013
0.065327219
0.064849347
0.064352695
0.063837579
0.06330433
0.062753299
0.062184861
0.061599409
0.060997364
0.06037917
0.059745297
0.059096242
0.05843253
0.057754711
0.057063364
0.056359093
0.05564253
0.054914327
0.054175161
0.053425721
0.052666695
0.071974274
0.072141418
0.072277546
0.072383508
0.072460238
0.072508576
0.072529359
0.07252341
0.072491132
0.072434398
0.072351133
0.072246113
0.072114447
0.071962727
0.071785484
0.071585896
0.071363859
0.071119921
0.070854392
0.070567559
0.070259697
0.069931067
0.069581919
0.069212496
0.068823034
0.068413768
0.067984934
0.067536769
0.06706952
0.06658344
0.066078795
0.065555865
0.065014945
0.064456348
0.063880408
0.063287481
0.062677944
0.0620522
0.06141068
0.060753838
0.060082157
0.05939615
0.058696354
0.057983338
0.057257696
0.056520049
0.055771045
0.055011355
0.054241688
0.053462921
0.074275417
0.074393843
0.07448199
0.074540717
0.074571077
0.074573808
0.074550052
0.074500967
0.074425521
0.074327467
0.074202941
0.074057993
0.073887504
0.073695039
0.07348029
0.073243791
0.072985827
0.072706752
0.072406873
0.072086468
0.071745792
0.071385085
0.071004578
0.070604491
0.070185039
0.069746433
0.069288888
0.068812618
0.068317848
0.067804809
0.067273745
0.066724914
0.066158591
0.065575067
0.064974658
0.064357698
0.063724547
0.063075592
0.062411245
0.061731945
0.061038161
0.060330389
0.059609156
0.058875018
0.058128557
0.057370386
0.056601143
0.055821494
0.055032153
0.054234041
0.076549935
0.076617592
0.076655988
0.076665751
0.076648351
0.076604994
0.07653513
0.076441954
0.076322668
0.076182179
0.076016533
0.075828651
0.075618637
0.075387158
0.075134484
0.074860975
0.07456694
0.07425268
0.073918474
0.073564574
0.073191213
0.072798606
0.072386958
0.071956464
0.071507314
0.071039694
0.070553794
0.070049803
0.069527921
0.068988356
0.068431326
0.067857068
0.067265832
0.066657889
0.066033531
0.065393075
0.06473686
0.064065252
0.063378647
0.062677467
0.061962164
0.061233221
0.06049115
0.059736493
0.058969821
0.058191734
0.057402861
0.056603854
0.055795408
0.054978437
0.078789722
0.078804757
0.078791845
0.078752252
0.078685621
0.078595139
0.078478627
0.078340333
0.078177094
0.077991406
0.077783749
0.077554738
0.077304769
0.077034292
0.076743652
0.076433172
0.076103142
0.075753831
0.075385484
0.074998324
0.074592555
0.074168364
0.073725928
0.073265411
0.072786977
0.072290785
0.071776994
0.07124577
0.070697284
0.070131717
0.069549265
0.068950136
0.068334558
0.067702779
0.067055068
0.066391719
0.065713051
0.065019412
0.064311177
0.06358875
0.062852568
0.062103097
0.061340834
0.060566307
0.059780076
0.058982728
0.058174877
0.05735716
0.056530217
0.080987093
0.080949196
0.080883498
0.080793493
0.080677145
0.080538624
0.080375071
0.080189014
0.079981087
0.079751906
0.079501994
0.079231854
0.078941909
0.078632545
0.078304095
0.077956854
0.077591084
0.07720702
0.076804873
0.076384834
0.075947071
0.075491743
0.075018991
0.074528953
0.074021758
0.073497536
0.072956418
0.072398539
0.071824043
0.071233082
0.070625826
0.070002457
0.069363177
0.068708209
0.0680378
0.06735222
0.066651767
0.065936768
0.065207578
0.064464585
0.063708205
0.06293889
0.062157121
0.061363412
0.060558308
0.059742386
0.058916251
0.05808055
0.057236084
0.083136162
0.083044286
0.082925431
0.082784177
0.082617466
0.082428287
0.082217232
0.081985031
0.081732312
0.081459644
0.081167529
0.080856418
0.080526702
0.080178729
0.079812798
0.07942917
0.079028072
0.078609704
0.078174239
0.077721831
0.077252615
0.076766711
0.07626423
0.075745272
0.075209937
0.07465832
0.074090522
0.073506648
0.07290681
0.072291134
0.071659759
0.071012841
0.070350556
0.069673102
0.0689807
0.068273599
0.067552072
0.066816427
0.066066998
0.065304153
0.064528292
0.063739848
0.062939288
0.062127112
0.06130385
0.060470066
0.059626354
0.058773359
0.057911927
0.085231689
0.085084999
0.084912208
0.084717015
0.084499803
0.08426153
0.084002917
0.083724628
0.083427252
0.083111313
0.082777271
0.082425529
0.082056438
0.0816703
0.081267376
0.080847886
0.080412016
0.079959927
0.079491752
0.079007606
0.078507585
0.077991773
0.077460242
0.076913059
0.076350288
0.075771991
0.075178235
0.074569093
0.073944647
0.073304993
0.07265024
0.071980518
0.071295973
0.070596779
0.069883132
0.069155256
0.068413403
0.067657857
0.066888934
0.066106981
0.06531238
0.064505548
0.063686936
0.062857027
0.062016339
0.061165419
0.060304846
0.059435236
0.058557414
0.087268246
0.08706392
0.086837375
0.086589809
0.086322013
0.086034788
0.085728823
0.085404733
0.085063056
0.084704263
0.084328763
0.08393691
0.083529006
0.083105305
0.082666021
0.082211328
0.081741371
0.081256264
0.0807561
0.080240951
0.079710873
0.07916591
0.078606096
0.07803146
0.07744203
0.076837834
0.076218904
0.075585281
0.074937014
0.074274169
0.073596825
0.072905083
0.072199064
0.071478912
0.070744799
0.069996926
0.06923552
0.068460845
0.067673194
0.066872897
0.066060317
0.065235853
0.064399941
0.063553048
0.062695679
0.061828366
0.060951666
0.060066135
0.089239589
0.088979251
0.088698794
0.088399108
0.088080996
0.087745183
0.087392305
0.087022914
0.086637489
0.086236446
0.085820134
0.085388854
0.084942851
0.084482328
0.084007447
0.083518334
0.083015086
0.082497772
0.081966438
0.081421112
0.080861809
0.080288531
0.079701271
0.079100023
0.078484773
0.077855516
0.077212249
0.076554978
0.075883721
0.075198512
0.074499401
0.073786458
0.073059778
0.072319477
0.071565703
0.070798631
0.070018466
0.06922545
0.068419855
0.06760199
0.066772202
0.065930873
0.06507842
0.064215301
0.063342004
0.062459051
0.061567003
0.060666544
0.09114357
0.090827595
0.090493541
0.090142188
0.08977428
0.08939047
0.088991323
0.088577326
0.088148893
0.087706371
0.087250052
0.086780171
0.086296919
0.08580044
0.085290842
0.0847682
0.084232558
0.083683938
0.083122337
0.08254774
0.081960115
0.081359424
0.080745618
0.080118651
0.079478472
0.078825039
0.078158313
0.077478266
0.076784885
0.07607817
0.075358142
0.074624842
0.073878337
0.073118716
0.072346102
0.071560644
0.070762527
0.069951968
0.06912922
0.068294572
0.067448353
0.066590928
0.065722699
0.064844109
0.063955636
0.063057793
0.062151137
0.061236383
0.092977406
0.092606342
0.092219295
0.091816958
0.091399996
0.090968982
0.090524403
0.090066671
0.089596129
0.089113054
0.088617669
0.088110147
0.087590614
0.087059155
0.086515821
0.085960631
0.085393578
0.08481463
0.084223739
0.08362084
0.083005858
0.082378709
0.081739306
0.08108756
0.080423383
0.079746694
0.07905742
0.078355499
0.077640884
0.076913545
0.076173471
0.075420676
0.074655196
0.073877097
0.073086474
0.072283453
0.071468196
0.070640898
0.069801791
0.068951146
0.068089273
0.06721652
0.066333276
0.065439968
0.064537063
0.063625066
0.062704523
0.061776143
0.094738889
0.09431352
0.093874324
0.093421903
0.092956829
0.092479587
0.091990583
0.091490145
0.090978539
0.090455968
0.089922584
0.08937849
0.088823746
0.088258378
0.087682374
0.087095697
0.086498285
0.085890056
0.085270908
0.084640732
0.083999405
0.083346799
0.082682786
0.082007235
0.081320021
0.080621025
0.079910139
0.079187266
0.078452327
0.077705259
0.076946023
0.076174603
0.075391008
0.074595278
0.073787482
0.072967724
0.07213614
0.071292906
0.070438233
0.069572373
0.068695619
0.067808301
0.066910795
0.066003514
0.065086912
0.064161484
0.063227766
0.062286451
0.096426398
0.095947738
0.09545745
0.094956036
0.09444397
0.093921644
0.09338937
0.092847392
0.092295894
0.091734999
0.091164786
0.090585286
0.089996491
0.089398362
0.088790826
0.088173789
0.08754713
0.086910715
0.086264394
0.085608006
0.084941384
0.084264355
0.083576748
0.082878393
0.082169126
0.081448791
0.080717243
0.079974354
0.07922001
0.078454119
0.077676612
0.076887443
0.076086595
0.075274082
0.074449948
0.073614274
0.072767174
0.071908801
0.071039349
0.07015905
0.069268177
0.068367049
0.067456023
0.0665355
0.065605925
0.064667779
0.063721587
0.062768026
0.098038864
0.097508132
0.096967998
0.096418857
0.095861078
0.09529495
0.094720694
0.094138462
0.09354835
0.092950402
0.092344619
0.091730958
0.091109342
0.090479666
0.089841795
0.089195574
0.088540827
0.087877366
0.087204989
0.086523488
0.085832648
0.085132253
0.08442209
0.083701949
0.082971626
0.08223093
0.081479682
0.080717718
0.079944894
0.079161087
0.078366198
0.077560155
0.076742913
0.075914461
0.075074819
0.074224045
0.07336223
0.072489509
0.071606053
0.070712078
0.06980784
0.068893641
0.067969824
0.06703678
0.066094938
0.065144772
0.064186794
0.063221666
0.099575725
0.098994325
0.098405757
0.097810304
0.097208224
0.096599704
0.095984862
0.09536376
0.094736404
0.094102755
0.093462733
0.092816222
0.092163075
0.091503117
0.090836152
0.090161964
0.089480322
0.088790983
0.088093695
0.0873882
0.086674238
0.08595155
0.085219881
0.084478979
0.083728607
0.082968534
0.082198547
0.081418451
0.08062807
0.079827252
0.079015867
0.078193818
0.077361034
0.076517478
0.075663148
0.074798078
0.073922339
0.073036045
0.072139349
0.071232448
0.070315583
0.069389037
0.068453144
0.067508278
0.066554862
0.065593356
0.064624265
0.063648235
0.10103688
0.10040638
0.099770932
0.099130709
0.098485857
0.097836454
0.097182518
0.096524013
0.095860856
0.095192922
0.094520051
0.09384205
0.093158703
0.092469768
0.091774983
0.091074075
0.090366755
0.089652727
0.088931688
0.088203333
0.087467356
0.086723454
0.085971332
0.085210701
0.084441283
0.083662815
0.082875049
0.082077759
0.081270737
0.080453803
0.0796268
0.078789603
0.077942116
0.07708428
0.076216068
0.075337493
0.074448606
0.073549501
0.072640312
0.071721219
0.070792445
0.069854261
0.068906985
0.067950981
0.066986661
0.066014479
0.065034928
0.064048644
0.10242264
0.10174475
0.1010641
0.10038075
0.099694753
0.099006062
0.098314596
0.097620221
0.096922763
0.096222011
0.095517723
0.094809633
0.09409745
0.093380868
0.092659562
0.091933197
0.091201431
0.090463913
0.089720292
0.088970214
0.088213331
0.087449296
0.086677774
0.085898438
0.085110975
0.084315086
0.083510493
0.082696935
0.081874178
0.081042012
0.080200254
0.079348753
0.07848739
0.07761608
0.076734777
0.075843471
0.074942195
0.074031021
0.073110068
0.072179497
0.071239517
0.070290382
0.069332398
0.068365917
0.067391344
0.066409126
0.065419751
0.064423841
0.10373373
0.10301026
0.10228616
0.10156143
0.10083598
0.10010966
0.099382288
0.098653627
0.09792341
0.097191343
0.096457102
0.095720345
0.094980712
0.094237829
0.093491311
0.092740763
0.091985787
0.091225982
0.090460948
0.089690284
0.088913599
0.088130506
0.087340628
0.086543604
0.085739084
0.084926738
0.084106254
0.083277343
0.082439741
0.081593211
0.080737545
0.079872567
0.078998135
0.078114141
0.077220518
0.076317236
0.075404309
0.07448179
0.073549782
0.072608428
0.071657921
0.070698502
0.069730462
0.068754145
0.067769946
0.066778312
0.065779726
0.064774798
0.10728355
0.10651095
0.10574013
0.10497126
0.10420402
0.10343832
0.102674
0.10191085
0.10114862
0.100387
0.099625674
0.098864271
0.098102415
0.097339702
0.096575717
0.095810029
0.095042199
0.09427178
0.093498321
0.092721371
0.091940478
0.091155192
0.090365071
0.089569678
0.088768588
0.087961387
0.087147677
0.086327075
0.085499217
0.084663763
0.083820394
0.08296882
0.082108776
0.081240029
0.080362381
0.079475667
0.078579757
0.077674565
0.076760041
0.07583618
0.074903019
0.073960642
0.073009178
0.072048804
0.071079745
0.07010228
0.069116741
0.068123519
0.067123062
0.066115857
0.065102502
0.10858808
0.10776657
0.10694941
0.10613645
0.1053274
0.104522
0.10371995
0.10292091
0.1021245
0.10133034
0.10053798
0.099746979
0.098956871
0.098167177
0.097377405
0.096587057
0.09579563
0.095002619
0.094207516
0.093409817
0.092609021
0.091804633
0.090996167
0.090183146
0.089365106
0.088541596
0.087712183
0.086876453
0.086034012
0.085184488
0.084327537
0.08346284
0.08259011
0.081709089
0.080819556
0.079921324
0.079014245
0.078098211
0.077173156
0.076239056
0.075295932
0.074343851
0.073382926
0.072413321
0.071435245
0.070448962
0.069454792
0.068453121
0.067444409
0.066429155
0.065407943
0.10981537
0.10894715
0.10808575
0.10723083
0.106382
0.10553886
0.10470096
0.10386785
0.10303905
0.10221404
0.1013923
0.1005733
0.099756477
0.098941287
0.098127164
0.097313544
0.096499862
0.095685553
0.094870057
0.094052819
0.093233291
0.092410933
0.091585217
0.090755626
0.089921661
0.089082835
0.088238682
0.087388757
0.086532636
0.08566992
0.084800238
0.083923246
0.083038633
0.08214612
0.081245463
0.080336454
0.079418928
0.078492757
0.077557857
0.076614189
0.075661757
0.074700612
0.073730855
0.072752632
0.071766138
0.070771621
0.069769384
0.068759809
0.067743378
0.066720626
0.065692111
0.11096701
0.11005437
0.10915092
0.10825619
0.10736963
0.10649072
0.10561889
0.10475355
0.10389412
0.10303998
0.10219051
0.10134509
0.10050309
0.09966388
0.098826829
0.097991309
0.097156694
0.096322365
0.095487708
0.09465212
0.093815007
0.092975788
0.092133893
0.091288768
0.090439878
0.089586705
0.088728749
0.087865536
0.086996614
0.086121558
0.085239972
0.084351488
0.083455771
0.082552521
0.081641475
0.080722407
0.07979513
0.078859501
0.077915418
0.076962827
0.076001718
0.075032127
0.07405414
0.073067889
0.072073554
0.071071363
0.0700616
0.069044628
0.068020977
0.06699127
0.065955988
0.11204487
0.11109011
0.11014686
0.10921446
0.10829226
0.10737957
0.10647572
0.10558
0.1046917
0.10381012
0.10293456
0.1020643
0.10119864
0.10033686
0.09947829
0.09862222
0.097767973
0.096914875
0.096062264
0.09520949
0.094355914
0.093500915
0.092643885
0.091784236
0.090921395
0.090054815
0.089183966
0.088308345
0.087427474
0.086540904
0.085648212
0.08474901
0.083842941
0.082929686
0.08200896
0.08108052
0.080144164
0.079199729
0.078247101
0.077286208
0.076317027
0.075339582
0.074353943
0.073360231
0.07235861
0.071349287
0.070332513
0.069308607
0.068278188
0.067242106
0.066200571
0.11305101
0.11205646
0.11107565
0.11010776
0.10915198
0.10820751
0.10727354
0.10634926
0.10543385
0.10452653
0.10362649
0.10273294
0.1018451
0.1009622
0.10008347
0.099208176
0.098335568
0.097464926
0.096595539
0.095726712
0.094857767
0.09398804
0.09311689
0.092243693
0.091367846
0.09048877
0.089605909
0.088718731
0.087826735
0.086929445
0.086026419
0.085117245
0.084201549
0.08327899
0.082349267
0.081412119
0.080467326
0.079514713
0.078554149
0.07758555
0.076608878
0.075624145
0.07463141
0.07363078
0.072622405
0.071606474
0.070583192
0.069552754
0.11398763
0.11295565
0.11193953
0.11093829
0.109951
0.10897672
0.10801452
0.10706349
0.10612271
0.10519129
0.10426836
0.10335304
0.10244449
0.10154185
0.10064433
0.099751093
0.098861365
0.09797437
0.097089352
0.096205573
0.095322316
0.094438883
0.093554595
0.092668797
0.091780856
0.090890165
0.08999614
0.089098226
0.088195896
0.087288654
0.086376035
0.085457609
0.08453298
0.083601792
0.082663726
0.081718504
0.080765893
0.079805702
0.078837786
0.077862049
0.076878441
0.075886962
0.07488766
0.073880631
0.072866015
0.071843986
0.070814714
0.11485709
0.11379003
0.11274083
0.11170838
0.11069162
0.10968947
0.1087009
0.10772488
0.10676043
0.10580654
0.10486227
0.10392667
0.10299883
0.10207783
0.10116281
0.10025289
0.099347246
0.098445052
0.097545512
0.096647847
0.095751304
0.094855148
0.09395867
0.093061184
0.092162029
0.09126057
0.0903562
0.089448338
0.088536437
0.087619978
0.086698478
0.085771487
0.084838593
0.083899421
0.082953638
0.082000951
0.081041111
0.080073915
0.079099206
0.078116874
0.07712686
0.076129151
0.075123787
0.074110854
0.073090486
0.072062856
0.071028213
0.11566185
0.11456202
0.11348195
0.1124204
0.11137616
0.11034805
0.10933493
0.10833568
0.1073492
0.10637443
0.10541034
0.10445591
0.10351015
0.10257211
0.10164086
0.10071548
0.09979508
0.098878804
0.097965813
0.097055291
0.096146448
0.09523852
0.094330764
0.093422468
0.092512944
0.091601532
0.090687599
0.089770547
0.088849804
0.087924834
0.086995134
0.086060237
0.085119714
0.084173176
0.083220274
0.082260701
0.081294196
0.080320543
0.079339572
0.078351163
0.077355246
0.076351799
0.075340853
0.074322487
0.07329683
0.072264056
0.071224463
0.11640445
0.11527412
0.11416535
0.11307675
0.112007
0.1109548
0.10991891
0.10889811
0.10789122
0.10689711
0.10591466
0.1049428
0.10398048
0.10302668
0.10208042
0.10114074
0.10020672
0.099277434
0.098352023
0.097429632
0.09650944
0.09559065
0.094672493
0.093754229
0.092835146
0.091914559
0.090991817
0.090066297
0.089137411
0.088204603
0.087267354
0.08632518
0.085377637
0.084424322
0.083464871
0.082498965
0.081526331
0.08054674
0.079560014
0.07856602
0.07756468
0.076555962
0.07553989
0.074516536
0.073486025
0.072448533
0.071404376
0.11708746
0.11592888
0.11479353
0.11367989
0.11258654
0.11151206
0.11045512
0.10941441
0.10838869
0.10737672
0.10637733
0.10538939
0.1044118
0.10344348
0.10248339
0.10153055
0.10058397
0.099642716
0.098705876
0.097772566
0.096841934
0.095913156
0.094985437
0.094058011
0.093130142
0.092201127
0.091270292
0.090336997
0.089400633
0.08846063
0.087516451
0.0865676
0.085613616
0.084654083
0.083688626
0.082716913
0.08173866
0.080753627
0.079761625
0.078762514
0.077756205
0.07674266
0.075721893
0.074693973
0.073659019
0.072617207
0.071568857
0.11771351
0.11652886
0.11536898
0.11423226
0.11311716
0.11202216
0.11094584
0.10988682
0.10884376
0.10781537
0.10680042
0.10579771
0.10480608
0.10382442
0.10285165
0.10188672
0.10092863
0.09997639
0.099029067
0.098085746
0.097145545
0.096207613
0.095271132
0.094335314
0.0933994
0.092462667
0.091524423
0.09058401
0.089640803
0.088694217
0.087743699
0.086788739
0.085828865
0.084863648
0.083892699
0.082915678
0.081932289
0.080942283
0.079945462
0.078941676
0.077930829
0.076912875
0.075887824
0.074855735
0.073816726
0.072770969
0.071718782
0.11828522
0.11707661
0.11589421
0.1147363
0.11360123
0.11248742
0.11139334
0.11031753
0.10925858
0.10821516
0.10718596
0.10616972
0.10516526
0.10417139
0.10318702
0.10221104
0.10124242
0.10028015
0.099323249