/*--------------------------------*- C++ -*----------------------------------*\
| =========                 |                                                 |
| \\      /  F ield         | OpenFOAM: The Open Source CFD Toolbox           |
|  \\    /   O peration     | Version:  2312                                  |
|   \\  /    A nd           | Website:  www.openfoam.com                      |
|    \\/     M anipulation  |                                                 |
\*---------------------------------------------------------------------------*/
FoamFile
{
    version     2.0;
    format      ascii;
    arch        "LSB;label=32;scalar=64";
    class       volScalarField;
    location    "0.09";
    object      O2;
}
// * * * * * * * * * * * * * * * * * * * * * * * * * * * * * * * * * * * * * //

dimensions      [0 0 0 0 0 0 0];

internalField   nonuniform List<scalar> 
3272
(
0.20319675
0.20279311
0.20240216
0.20202425
0.20165962
0.20130847
0.20097097
0.20064728
0.20033754
0.20004188
0.19976041
0.19949323
0.19924044
0.19900211
0.1987783
0.19856907
0.19837445
0.19819449
0.1980292
0.19787859
0.19774266
0.19762139
0.19751477
0.19742276
0.19734677
0.19728506
0.19723721
0.19720329
0.19718373
0.19717851
0.1971872
0.19721001
0.19724619
0.19729607
0.19736024
0.19743785
0.19752872
0.19763265
0.19774944
0.19787888
0.19802072
0.19817472
0.19834063
0.19851816
0.19870703
0.19890694
0.19911758
0.19933861
0.19956969
0.19981047
0.20006057
0.20031959
0.2005871
0.20298859
0.20258457
0.20219345
0.20181555
0.2014511
0.20110028
0.20076326
0.20044019
0.20013121
0.19983643
0.19955597
0.19928991
0.19903835
0.19880136
0.19857898
0.19837128
0.19817828
0.19800002
0.19783651
0.19768776
0.19755376
0.1974345
0.19732994
0.19724005
0.1971662
0.19710669
0.19706096
0.19702935
0.19701212
0.19700923
0.19702028
0.19704554
0.1970841
0.19713662
0.19720328
0.19728341
0.19737681
0.19748329
0.19760265
0.19773466
0.19787909
0.19803569
0.1982042
0.19838434
0.19857583
0.19877836
0.19899161
0.19921526
0.19944897
0.1996924
0.19994518
0.20020692
0.20047709
0.20259529
0.20219098
0.20179987
0.2014223
0.20105847
0.20070855
0.2003727
0.20005106
0.19974375
0.19945088
0.19917254
0.19890883
0.1986598
0.19842552
0.19820604
0.1980014
0.19781162
0.19763672
0.19747671
0.19733159
0.19720135
0.19708597
0.19698542
0.19689963
0.1968299
0.19677454
0.19673292
0.1967057
0.19669292
0.19669445
0.19671
0.19673982
0.19678291
0.19684033
0.19691169
0.19699653
0.19709468
0.19720594
0.19733009
0.19746691
0.19761617
0.19777761
0.19795096
0.19813595
0.19833228
0.19853966
0.19875776
0.19898626
0.1992248
0.19947306
0.19973065
0.19999718
0.20027211
0.20203625
0.201632
0.20124138
0.20086472
0.2005022
0.20015399
0.19982021
0.19950099
0.19919644
0.19890663
0.19863166
0.19837159
0.19812647
0.19789635
0.19768126
0.19748122
0.19729625
0.19712635
0.19697151
0.19683173
0.19670699
0.19659727
0.19650256
0.19642285
0.19635906
0.19630951
0.19627394
0.19625298
0.19624662
0.19625444
0.19627661
0.19631249
0.19636221
0.19642652
0.19650451
0.19659603
0.19670087
0.19681885
0.19694974
0.19709331
0.19724933
0.19741753
0.19759766
0.19778942
0.19799252
0.19820665
0.1984315
0.19866673
0.19891199
0.19916694
0.1994312
0.19970436
0.19998588
0.20132848
0.20092493
0.20053555
0.20016065
0.1998004
0.19945492
0.19912432
0.1988087
0.19850814
0.19822271
0.19795247
0.19769746
0.19745771
0.19723325
0.19702409
0.19683023
0.19665167
0.19648839
0.19634037
0.19620758
0.19608998
0.19598755
0.19590028
0.19582913
0.19577273
0.19573043
0.19570272
0.1956899
0.19569146
0.1957073
0.19573766
0.19578156
0.19584
0.19591261
0.19599896
0.19609885
0.1962121
0.19633849
0.19647781
0.19662982
0.19679427
0.19697091
0.19715947
0.19735965
0.19757116
0.19779368
0.1980269
0.19827047
0.19852404
0.19878726
0.19905976
0.19934111
0.19963077
0.20048705
0.20008515
0.19969805
0.19932603
0.19896921
0.19862771
0.19830159
0.19799093
0.19769578
0.19741618
0.19715215
0.19690371
0.19667087
0.19645364
0.19625199
0.19606591
0.19589537
0.19574033
0.19560076
0.19547659
0.19536775
0.19527409
0.19519702
0.19513495
0.19508739
0.19505434
0.19503618
0.19503287
0.19504397
0.19506969
0.19510926
0.19516324
0.19523178
0.19531425
0.19541047
0.19552026
0.1956434
0.1957797
0.19592892
0.19609082
0.19626516
0.19645167
0.19665008
0.19686009
0.1970814
0.19731369
0.19755664
0.19780991
0.19807315
0.19834598
0.19862803
0.19891888
0.19921797
0.19952557
0.19912655
0.19874303
0.19837524
0.19802327
0.1976872
0.19736706
0.19706288
0.19677468
0.19650247
0.19624624
0.19600599
0.19578168
0.19557328
0.19538077
0.19520409
0.19504319
0.19489803
0.19476853
0.19465463
0.19455627
0.19447342
0.1944071
0.19435566
0.19431852
0.19429642
0.19428938
0.19429696
0.19431931
0.19435573
0.19440643
0.19447209
0.19455185
0.19464554
0.19475298
0.19487398
0.19500833
0.19515582
0.19531621
0.19548927
0.19567474
0.19587234
0.19608181
0.19630284
0.19653513
0.19677836
0.19703221
0.19729631
0.19757032
0.19785388
0.19814658
0.19844802
0.19875762
0.1984565
0.19806186
0.19768346
0.19732149
0.19697599
0.19664698
0.19633447
0.19603844
0.19575888
0.19549574
0.195249
0.19501859
0.19480448
0.19460658
0.19442485
0.1942592
0.19410956
0.19397585
0.19385798
0.19375588
0.19366945
0.19359967
0.19354513
0.19350517
0.19348029
0.19347067
0.1934758
0.19349573
0.19353051
0.19357909
0.19364282
0.1937209
0.19381309
0.1939192
0.19403904
0.19417241
0.19431911
0.1944789
0.19465156
0.19483685
0.19503449
0.19524423
0.19546577
0.19569882
0.19594308
0.19619822
0.1964639
0.19673978
0.1970255
0.19732069
0.19762495
0.19793786
0.19825882
0.19729143
0.19690292
0.19653141
0.19617704
0.19583979
0.19551965
0.19521657
0.19493048
0.19466133
0.19440903
0.19417352
0.1939547
0.19375247
0.19356676
0.19339745
0.19324445
0.19310765
0.19298695
0.19288223
0.1927934
0.19272146
0.19266492
0.19262319
0.19259665
0.19258554
0.19258934
0.19260804
0.19264176
0.19268949
0.19275238
0.19282977
0.19292141
0.19302712
0.1931467
0.19327997
0.19342671
0.19358672
0.19375978
0.19394563
0.19414405
0.19435475
0.19457748
0.19481195
0.19505785
0.19531488
0.19558271
0.19586101
0.19614943
0.1964476
0.19675516
0.19707171
0.19739679
0.1977296
0.19604127
0.19566085
0.19529819
0.19495337
0.19462632
0.19431697
0.19402522
0.19375095
0.19349407
0.19325444
0.19303194
0.19282645
0.19263785
0.19246598
0.19231074
0.19217198
0.19204957
0.19194338
0.19185328
0.19178032
0.19172291
0.19168051
0.1916534
0.19164187
0.19164536
0.19166387
0.19169755
0.19174533
0.19180839
0.19188605
0.19197806
0.19208423
0.1922044
0.19233836
0.19248594
0.19264691
0.19282107
0.19300818
0.193208
0.1934203
0.1936448
0.19388123
0.1941293
0.19438872
0.19465916
0.19494032
0.19523184
0.19553339
0.1958446
0.1961651
0.19649451
0.1947164
0.19434619
0.1939945
0.19366132
0.19334653
0.19305
0.19277156
0.19251106
0.19226834
0.19204322
0.19183555
0.19164515
0.19147186
0.19131551
0.19117592
0.19105295
0.19094643
0.1908562
0.19078332
0.19072617
0.19068418
0.1906576
0.19064671
0.19065095
0.19067023
0.19070483
0.19075361
0.19081781
0.19089663
0.19098987
0.19109736
0.19121891
0.19135434
0.19150347
0.1916661
0.19184201
0.192031
0.19223283
0.19244726
0.19267404
0.19291291
0.1931636
0.19342583
0.19369928
0.19398365
0.19427861
0.19458382
0.19489895
0.19522361
0.19555742
0.19589984
0.19332674
0.19296902
0.19263053
0.19231118
0.19201079
0.19172915
0.19146606
0.1912213
0.19099465
0.1907859
0.19059485
0.19042127
0.19026496
0.19012572
0.19000334
0.18989764
0.18980843
0.18973675
0.18968097
0.18964045
0.1896155
0.18960632
0.18961237
0.18963366
0.18966969
0.18972056
0.18978686
0.18986773
0.18996306
0.19007266
0.19019637
0.19033401
0.19048539
0.19065033
0.19082862
0.19102006
0.19122443
0.1914415
0.19167103
0.19191278
0.19216649
0.19243187
0.19270865
0.19299652
0.19329518
0.1936043
0.19392355
0.19425256
0.19459098
0.1949384
0.19529427
0.19188184
0.191539
0.19121601
0.19091274
0.19062892
0.1903643
0.19011859
0.18989153
0.18968285
0.18949229
0.1893196
0.18916453
0.18902682
0.18890622
0.18880251
0.18871548
0.18864613
0.18859281
0.1885549
0.18853265
0.1885262
0.18853504
0.18855925
0.18859809
0.18865198
0.18872113
0.18880492
0.18890316
0.18901568
0.18914231
0.18928287
0.18943719
0.18960508
0.18978634
0.18998079
0.19018821
0.1904084
0.19064111
0.19088613
0.1911432
0.19141206
0.19169244
0.19198407
0.19228664
0.19259984
0.19292336
0.19325685
0.19359996
0.19395234
0.19431356
0.1946831
0.19039093
0.19006538
0.18976026
0.18947533
0.18921027
0.18896476
0.18873844
0.18853101
0.18834215
0.18817154
0.18801891
0.18788395
0.18776637
0.18766586
0.18758219
0.18751632
0.18746657
0.18743223
0.18741408
0.18741132
0.18742395
0.18745208
0.18749471
0.18755266
0.1876256
0.18771315
0.18781513
0.18793135
0.18806165
0.18820585
0.18836378
0.18853524
0.18872007
0.18891807
0.18912905
0.1893528
0.18958911
0.18983776
0.19009852
0.19037115
0.19065539
0.19095098
0.19125763
0.19157506
0.19190295
0.19224099
0.19258885
0.19294617
0.19331259
0.19368771
0.19407099
0.18886289
0.18855708
0.18827216
0.18800783
0.18776368
0.18753932
0.18733436
0.18714842
0.18698114
0.18683217
0.18670119
0.1865879
0.18649186
0.18641277
0.18635149
0.18630656
0.18627703
0.18626373
0.18626594
0.18628338
0.18631652
0.1863639
0.18642688
0.18650455
0.18659676
0.18670332
0.18682405
0.18695878
0.18710733
0.18726953
0.18744521
0.18763418
0.18783627
0.1880513
0.18827907
0.18851938
0.18877203
0.1890368
0.18931347
0.1896018
0.18990153
0.19021242
0.19053418
0.19086653
0.19120916
0.19156176
0.19192401
0.19229555
0.19267602
0.19306503
0.19346204
0.18730627
0.18702262
0.18676021
0.18651866
0.1862975
0.18609627
0.18591454
0.18575186
0.18560784
0.18548206
0.18537421
0.1852841
0.1852109
0.18515547
0.18511602
0.185093
0.18508555
0.18509375
0.18511744
0.18515588
0.1852096
0.18527838
0.18536175
0.18545953
0.18557153
0.18569759
0.18583752
0.18599115
0.18615831
0.18633883
0.18653254
0.18673927
0.18695884
0.18719108
0.1874358
0.18769281
0.18796191
0.18824289
0.18853553
0.1888396
0.18915486
0.18948105
0.18981791
0.19016516
0.19052249
0.19088961
0.19126618
0.19165187
0.19204632
0.19244913
0.19285978
0.18572927
0.18547013
0.18523245
0.18501579
0.1848196
0.18464338
0.18448662
0.18434887
0.18422966
0.18412848
0.18404492
0.18397987
0.18393136
0.18389882
0.18388286
0.18388268
0.18389781
0.18392883
0.1839741
0.18403496
0.18411049
0.18420049
0.18430475
0.18442308
0.18455529
0.18470121
0.18486066
0.18503347
0.18521949
0.18541854
0.18563046
0.1858551
0.18609227
0.18634182
0.18660355
0.1868773
0.18716287
0.18746005
0.18776863
0.1880884
0.18841913
0.18876055
0.18911242
0.18947447
0.18984639
0.1902279
0.19061867
0.19101837
0.19142664
0.19184311
0.19226723
0.18413972
0.18390733
0.18369651
0.18350671
0.18333736
0.18318788
0.18305771
0.18294638
0.18285355
0.18277824
0.18272134
0.18268109
0.18265745
0.18264967
0.18265767
0.18268143
0.18271995
0.18277388
0.18284269
0.182926
0.1830236
0.18313527
0.1832608
0.18340001
0.18355272
0.18371875
0.18389793
0.18409011
0.18429512
0.18451281
0.18474303
0.18498562
0.18524042
0.18550727
0.185786
0.18607644
0.18637841
0.18669171
0.18701614
0.18735149
0.18769755
0.18805406
0.18842078
0.18879745
0.18918378
0.18957948
0.18998425
0.19039775
0.19081965
0.19124957
0.19168698
0.18254505
0.18234153
0.18215952
0.18199845
0.18185764
0.18173651
0.18163433
0.18155059
0.18148601
0.1814385
0.1814075
0.18139346
0.18139552
0.18141314
0.18144606
0.18149399
0.18155734
0.18163515
0.18172727
0.18183346
0.18195348
0.18208712
0.18223419
0.18239451
0.18256789
0.18275417
0.18295319
0.1831648
0.18338886
0.18362521
0.18387371
0.18413422
0.18440658
0.18469065
0.18498627
0.18529328
0.1856115
0.18594077
0.18628087
0.18663162
0.18699281
0.18736419
0.18774554
0.1881366
0.1885371
0.18894675
0.18936525
0.1897923
0.19022755
0.19067067
0.18095224
0.18077955
0.18062818
0.18049751
0.18038678
0.18029553
0.18022262
0.18016889
0.18013219
0.18011258
0.18010927
0.18012189
0.18015073
0.18019397
0.18025291
0.18032641
0.18041431
0.18051628
0.18063205
0.18076139
0.18090406
0.18105987
0.18122863
0.18141016
0.18160428
0.18181086
0.18202973
0.18226076
0.18250381
0.18275874
0.18302542
0.18330373
0.18359351
0.18389465
0.18420698
0.18453036
0.18486464
0.18520963
0.18556518
0.18593108
0.18630714
0.18669313
0.18708883
0.18749399
0.18790836
0.18833166
0.18876359
0.18920385
0.18965209
0.19010788
0.17936785
0.17922778
0.17910863
0.17900996
0.17893042
0.17887086
0.17882892
0.17880464
0.17879716
0.17880604
0.17883124
0.17887131
0.1789272
0.17899773
0.17908272
0.17918179
0.17929465
0.17942102
0.17956065
0.17971329
0.17987874
0.18005679
0.18024728
0.18045002
0.18066487
0.18089168
0.18113031
0.18138064
0.18164255
0.18191591
0.1822006
0.18249651
0.1828035
0.18312147
0.18345027
0.18378977
0.18413983
0.18450028
0.18487097
0.18525172
0.18564234
0.18604262
0.18645235
0.18687129
0.18729919
0.18773579
0.1881808
0.18863393
0.18909482
0.18956302
0.17779792
0.17769215
0.17760641
0.17754166
0.17749525
0.17746718
0.17745645
0.17746261
0.17748538
0.17752347
0.17757745
0.17764639
0.17772987
0.17782746
0.17793884
0.17806368
0.17820169
0.1783526
0.17851616
0.17869216
0.17888038
0.17908064
0.17929279
0.17951665
0.1797521
0.17999899
0.18025722
0.18052667
0.18080722
0.18109877
0.18140122
0.18171447
0.1820384
0.1823729
0.18271787
0.18307318
0.18343869
0.18381427
0.18419977
0.18459502
0.18499984
0.18541405
0.18583744
0.18626979
0.18671085
0.18716037
0.18761809
0.18808371
0.1885569
0.1890372
0.17624786
0.17617846
0.1761282
0.17609714
0.17608407
0.17608853
0.17611
0.17614729
0.17620069
0.17626935
0.17635267
0.17645023
0.17656162
0.17668644
0.17682436
0.17697506
0.17713827
0.17731373
0.1775012
0.17770047
0.17791137
0.17813371
0.17836735
0.17861215
0.17886799
0.17913474
0.17941231
0.1797006
0.17999952
0.18030897
0.18062886
0.18095912
0.18129965
0.18165036
0.18201114
0.18238189
0.18276249
0.18315282
0.18355274
0.18396211
0.18438075
0.18480849
0.18524514
0.18569049
0.18614431
0.18660635
0.18707637
0.18755407
0.18803918
0.1747244
0.17469116
0.17467657
0.17468028
0.17470157
0.1747392
0.17479335
0.17486306
0.17494766
0.17504665
0.17515955
0.17528591
0.17542533
0.17557744
0.17574191
0.17591845
0.17610678
0.17630668
0.17651791
0.1767403
0.17697366
0.17721786
0.17747275
0.17773821
0.17801415
0.17830045
0.17859704
0.17890384
0.17922077
0.17954776
0.17988473
0.18023163
0.18058837
0.18095488
0.18133108
0.18171686
0.18211215
0.18251682
0.18293075
0.18335381
0.18378585
0.1842267
0.18467618
0.18513411
0.18560025
0.18607439
0.18655626
0.1870456
0.18754202
0.17323018
0.17323404
0.1732562
0.17329527
0.17335144
0.17342355
0.17351086
0.17361279
0.17372876
0.17385826
0.17400082
0.17415601
0.17432344
0.17450277
0.17469368
0.1748959
0.17510917
0.17533329
0.17556804
0.17581327
0.17606881
0.17633454
0.17661035
0.17689613
0.1771918
0.17749728
0.17781251
0.17813742
0.17847196
0.17881607
0.17916971
0.17953282
0.17990535
0.18028723
0.1806784
0.18107879
0.18148831
0.18190687
0.18233437
0.18277068
0.18321566
0.18366918
0.18413105
0.1846011
0.18507912
0.1855649
0.1860582
0.18655873
0.1870661
0.17176959
0.1718112
0.17187063
0.17194644
0.1720379
0.17214429
0.17226492
0.17239921
0.1725466
0.1727066
0.17287876
0.17306266
0.17325795
0.1734643
0.17368142
0.17390906
0.17414698
0.174395
0.17465294
0.17492064
0.17519799
0.17548487
0.17578119
0.17608687
0.17640185
0.17672608
0.1770595
0.17740207
0.17775377
0.17811455
0.17848438
0.17886324
0.17925109
0.17964787
0.18005356
0.18046808
0.18089137
0.18132336
0.18176394
0.18221303
0.1826705
0.18313621
0.18361
0.18409172
0.18458116
0.18507812
0.18558238
0.18609367
0.18661162
0.17034614
0.17042699
0.170524
0.17063635
0.17076326
0.17090402
0.171058
0.17122461
0.17140332
0.17159366
0.17179521
0.17200759
0.17223047
0.17246353
0.17270652
0.17295921
0.1732214
0.17349291
0.1737736
0.17406335
0.17436205
0.17466962
0.17498598
0.17531109
0.1756449
0.17598737
0.1763385
0.17669824
0.1770666
0.17744355
0.17782909
0.1782232
0.17862586
0.17903706
0.17945676
0.17988491
0.18032149
0.18076641
0.1812196
0.18168099
0.18215045
0.18262787
0.18311312
0.18360602
0.18410641
0.18461409
0.18512884
0.18565045
0.16896391
0.16908379
0.16921859
0.16936754
0.16952989
0.16970496
0.16989213
0.17009086
0.17030064
0.17052104
0.17075166
0.17099216
0.17124222
0.17150157
0.17177
0.17204728
0.17233325
0.17262778
0.17293073
0.17324201
0.17356155
0.17388928
0.17422516
0.17456916
0.17492127
0.17528146
0.17564975
0.17602613
0.17641062
0.17680321
0.17720393
0.17761277
0.17802973
0.17845481
0.17888801
0.17932929
0.17977863
0.18023598
0.18070129
0.18117447
0.18165544
0.18214409
0.18264029
0.1831439
0.18365476
0.18417267
0.18469744
0.18522878
0.16762518
0.16778412
0.16795668
0.16814212
0.16833973
0.16854887
0.16876894
0.16899945
0.16923993
0.16948996
0.16974921
0.17001734
0.1702941
0.17057924
0.17087256
0.17117389
0.1714831
0.17180008
0.17212472
0.17245696
0.17279676
0.17314408
0.1734989
0.17386122
0.17423105
0.1746084
0.17499329
0.17538574
0.17578579
0.17619347
0.17660881
0.17703183
0.17746255
0.17790099
0.17834715
0.17880103
0.17926262
0.17973189
0.18020879
0.18069327
0.18118524
0.18168462
0.1821913
0.18270513
0.18322597
0.18375365
0.18428795
0.1848286
0.16633221
0.16653007
0.16674017
0.16696182
0.16719434
0.16743715
0.16768969
0.1679515
0.16822216
0.16850131
0.16878862
0.16908383
0.16938669
0.16969701
0.17001462
0.17033939
0.17067122
0.17101001
0.17135572
0.1717083
0.17206774
0.17243403
0.17280717
0.1731872
0.17357414
0.17396803
0.17436893
0.17477686
0.1751919
0.17561409
0.17604347
0.17648011
0.17692403
0.17737527
0.17783386
0.17829981
0.17877311
0.17925377
0.17974176
0.18023702
0.1807395
0.18124912
0.18176578
0.18228935
0.1828197
0.18335666
0.18390004
0.18444956
0.16508685
0.16532329
0.16557054
0.16582794
0.16609489
0.16637083
0.16665527
0.1669478
0.16724803
0.16755565
0.16787038
0.16819199
0.16852029
0.16885511
0.16919634
0.16954387
0.16989762
0.17025757
0.17062367
0.17099592
0.17137433
0.17175892
0.17214974
0.17254683
0.17295025
0.17336006
0.17377633
0.17419914
0.17462856
0.17506466
0.17550751
0.17595719
0.17641374
0.17687723
0.17734769
0.17782516
0.17830966
0.17880119
0.17929973
0.17980527
0.18031776
0.18083712
0.18136327
0.1818961
0.18243549
0.18298127
0.18353327
0.18409122
0.16389055
0.16416507
0.1644489
0.16474147
0.1650422
0.16535062
0.16566628
0.16598881
0.16631789
0.16665325
0.16699467
0.16734195
0.16769494
0.16805353
0.16841763
0.16878718
0.16916214
0.16954251
0.16992828
0.17031949
0.17071618
0.17111839
0.1715262
0.17193968
0.17235892
0.172784
0.17321502
0.17365207
0.17409526
0.17454467
0.1750004
0.17546253
0.17593114
0.17640631
0.1768881
0.17737655
0.1778717
0.17837357
0.17888217
0.17939748
0.17991946
0.18044808
0.18098324
0.18152486
0.18207281
0.18262696
0.18318712
0.18375307
0.16274439
0.16305631
0.16337603
0.16370302
0.1640368
0.16437691
0.164723
0.16507474
0.16543186
0.16579416
0.16616145
0.16653359
0.16691047
0.16729203
0.16767821
0.168069
0.16846439
0.16886442
0.16926912
0.16967855
0.17009279
0.17051191
0.17093601
0.1713652
0.17179958
0.17223927
0.17268438
0.17313505
0.17359138
0.17405348
0.17452149
0.17499549
0.17547559
0.17596188
0.17645443
0.17695332
0.1774586
0.17797029
0.17848843
0.179013
0.179544
0.18008138
0.18062508
0.18117502
0.18173108
0.18229314
0.18286103
0.18343452
0.16164909
0.16199761
0.16235238
0.16271294
0.16307888
0.16344982
0.16382545
0.16420551
0.1645898
0.16497815
0.16537044
0.16576658
0.1661665
0.16657018
0.16697761
0.16738882
0.16780385
0.16822275
0.1686456
0.16907249
0.16950353
0.16993882
0.1703785
0.17082269
0.17127153
0.17172516
0.17218372
0.17264735
0.17311619
0.17359039
0.17407007
0.17455535
0.17504637
0.17554321
0.17604599
0.17655478
0.17706965
0.17759065
0.17811782
0.17865117
0.17919069
0.17973637
0.18028814
0.18084593
0.18140965
0.18197918
0.18255436
0.18313498
0.16060507
0.16098923
0.16137809
0.16177127
0.16216841
0.1625692
0.16297341
0.16338085
0.16379135
0.16420482
0.16462119
0.16504041
0.16546247
0.16588739
0.16631522
0.166746
0.16717982
0.16761678
0.16805698
0.16850056
0.16894764
0.16939837
0.1698529
0.17031139
0.17077399
0.17124089
0.17171223
0.17218819
0.17266892
0.17315459
0.17364535
0.17414134
0.17464269
0.17514954
0.175662
0.17618015
0.1767041
0.1772339
0.17776961
0.17831124
0.17885882
0.17941231
0.1799717
0.1805369
0.18110784
0.18168441
0.18226646
0.18285379
0.15961243
0.16003117
0.16045307
0.16087781
0.16130509
0.1617347
0.16216647
0.16260025
0.16303597
0.16347358
0.16391305
0.16435441
0.16479768
0.16524294
0.16569026
0.16613974
0.16659151
0.1670457
0.16750245
0.16796192
0.16842428
0.16888969
0.16935834
0.16983042
0.17030611
0.17078559
0.17126906
0.17175671
0.17224871
0.17274524
0.17324649
0.1737526
0.17426374
0.17478004
0.17530164
0.17582864
0.17636116
0.17689926
0.17744302
0.17799246
0.17854762
0.17910849
0.17967504
0.18024722
0.18082495
0.18140814
0.18199664
0.18259028
0.15867099
0.15912315
0.15957695
0.16003211
0.16048843
0.16094576
0.16140399
0.16186306
0.16232295
0.16278366
0.16324525
0.16370776
0.16417129
0.16463595
0.16510186
0.16556917
0.16603803
0.16650861
0.16698109
0.16745566
0.16793252
0.16841187
0.16889392
0.16937887
0.16986694
0.17035835
0.17085329
0.17135199
0.17185465
0.17236145
0.1728726
0.17338827
0.17390863
0.17443385
0.17496407
0.17549941
0.17603999
0.17658591
0.17713724
0.17769404
0.17825633
0.17882412
0.17939741
0.17997614
0.18056025
0.18114965
0.18174421
0.18234376
0.1563296
0.15681245
0.15729616
0.15778026
0.15826467
0.15874916
0.15923356
0.15971773
0.16020162
0.16068518
0.16116843
0.16165141
0.16213419
0.16261686
0.16309953
0.16358235
0.16406547
0.16454905
0.16503329
0.16551837
0.1660045
0.1664919
0.16698078
0.16747138
0.16796391
0.16845863
0.16895576
0.16945554
0.1699582
0.17046398
0.17097311
0.1714858
0.17200229
0.17252276
0.17304743
0.17357649
0.17411009
0.17464842
0.1751916
0.17573976
0.17629302
0.17685147
0.17741516
0.17798414
0.17855843
0.17913803
0.17972291
0.180313
0.18090822
0.18150846
0.18211354
0.15538618
0.15590508
0.15642301
0.1569397
0.15745505
0.15796896
0.15848133
0.15899213
0.15950138
0.16000912
0.16051542
0.16102039
0.16152416
0.16202687
0.1625287
0.16302982
0.16353045
0.16403079
0.16453106
0.16503149
0.16553234
0.16603384
0.16653624
0.16703981
0.16754479
0.16805146
0.16856007
0.16907088
0.16958415
0.17010013
0.17061907
0.17114122
0.1716668
0.17219605
0.17272918
0.17326639
0.17380787
0.1743538
0.17490434
0.17545961
0.17601976
0.17658486
0.17715501
0.17773026
0.17831064
0.17889615
0.17948678
0.18008247
0.18068313
0.18128867
0.18189892
0.1544964
0.1550499
0.15560064
0.15614849
0.15669342
0.1572354
0.15777446
0.15831063
0.15884403
0.15937475
0.15990295
0.16042879
0.16095247
0.16147418
0.16199414
0.16251259
0.16302977
0.16354594
0.16406136
0.16457629
0.16509101
0.16560581
0.16612096
0.16663674
0.16715345
0.16767136
0.16819077
0.16871195
0.16923518
0.16976074
0.1702889
0.17081992
0.17135404
0.17189151
0.17243257
0.17297742
0.17352628
0.17407934
0.17463675
0.17519868
0.17576526
0.1763366
0.17691279
0.17749389
0.17807995
0.17867099
0.17926698
0.1798679
0.18047365
0.18108412
0.18169919
0.15365947
0.15424604
0.1548281
0.15540565
0.15597874
0.15654743
0.15711184
0.15767211
0.1582284
0.15878091
0.15932985
0.15987544
0.16041793
0.16095759
0.16149467
0.16202947
0.16256226
0.16309335
0.16362303
0.16415161
0.16467939
0.16520669
0.16573381
0.16626107
0.16678878
0.16731725
0.16784679
0.16837769
0.16891027
0.16944481
0.1699816
0.17052091
0.17106303
0.1716082
0.17215666
0.17270867
0.17326442
0.17382413
0.17438797
0.17495611
0.1755287
0.17610585
0.17668767
0.17727424
0.1778656
0.17846178
0.17906278
0.17966856
0.18027905
0.18089413
0.18151368
0.15287437
0.15349243
0.15410428
0.15471004
0.15530983
0.15590385
0.15649227
0.15707533
0.15765327
0.15822636
0.15879486
0.15935908
0.15991931
0.16047587
0.16102907
0.16157924
0.16212672
0.16267182
0.1632149
0.16375628
0.16429631
0.16483533
0.16537368
0.16591169
0.16644971
0.16698805
0.16752707
0.16806707
0.16860838
0.16915131
0.16969616
0.17024323
0.1707928
0.17134515
0.17190054
0.17245921
0.17302139
0.17358729
0.17415712
0.17473105
0.17530923
0.1758918
0.17647886
0.17707051
0.17766679
0.17826776
0.17887341
0.17948374
0.18009864
0.18071798
0.18134168
0.15213993
0.15278786
0.15342793
0.15406037
0.15468542
0.15530334
0.15591443
0.15651898
0.15711731
0.15770977
0.15829668
0.15887841
0.15945531
0.16002774
0.16059606
0.16116065
0.16172188
0.16228012
0.16283574
0.16338911
0.1639406
0.16449058
0.16503941
0.16558747
0.16613511
0.16668268
0.16723054
0.16777903
0.16832848
0.16887923
0.16943159
0.16998589
0.17054241
0.17110144
0.17166326
0.17222813
0.17279629
0.17336796
0.17394336
0.17452267
0.17510604
0.17569364
0.17628557
0.17688192
0.17748278
0.17808819
0.17869816
0.17931271
0.15145483
0.15213098
0.15279768
0.15345528
0.15410411
0.15474453
0.15537692
0.15600167
0.15661915
0.15722978
0.15783396
0.1584321
0.1590246
0.15961188
0.16019435
0.16077242
0.16134651
0.16191701
0.16248433
0.16304889
0.16361106
0.16417127
0.16472988
0.1652873
0.16584389
0.16640005
0.16695614
0.16751252
0.16806955
0.16862757
0.16918691
0.16974792
0.17031089
0.17087613
0.17144393
0.17201455
0.17258826
0.17316528
0.17374584
0.17433013
0.17491832
0.17551057
0.17610701
0.17670773
0.17731282
0.17792234
0.1785363
0.15081763
0.15152032
0.15221206
0.15289328
0.15356444
0.15422596
0.15487832
0.15552196
0.15615737
0.15678499
0.1574053
0.15801876
0.15862583
0.15922697
0.15982263
0.16041326
0.16099932
0.16158124
0.16215946
0.16273442
0.16330654
0.16387624
0.16444394
0.16501005
0.16557497
0.16613909
0.16670282
0.16726652
0.16783057
0.16839533
0.16896115
0.16952837
0.17009732
0.17066831
0.17124164
0.17181759
0.17239643
0.1729784
0.17356373
0.17415263
0.17474528
0.17534183
0.17594243
0.17654719
0.17715619
0.17776949
0.17838712
0.15022677
0.15095435
0.15166953
0.15237286
0.15306488
0.15374612
0.15441711
0.15507839
0.1557305
0.15637396
0.15700929
0.15763701
0.15825763
0.15887165
0.15947957
0.16008188
0.16067905
0.16127157
0.1618599
0.16244451
0.16302584
0.16360434
0.16418046
0.16475462
0.16532725
0.16589875
0.16646954
0.16704002
0.16761056
0.16818156
0.16875336
0.16932633
0.1699008
0.1704771
0.17105553
0.1716364
0.17221998
0.17280651
0.17339625
0.17398939
0.17458614
0.17518667
0.17579111
0.17639958
0.17701218
0.17762896
0.17824997
0.14968064
0.15043143
0.15116848
0.15189242
0.15260387
0.15330345
0.15399178
0.15466945
0.15533708
0.15599524
0.15664451
0.15728546
0.15791864
0.15854459
0.15916387
0.15977698
0.16038444
0.16098677
0.16158445
0.16217797
0.16276782
0.16335446
0.16393835
0.16451994
0.16509967
0.16567799
0.1662553
0.16683202
0.16740855
0.16798529
0.1685626
0.16914087
0.16972042
0.17030161
0.17088475
0.17147014
0.17205808
0.17264881
0.1732426
0.17383965
0.17444018
0.17504435
0.17565231
0.1762642
0.1768801
0.17750009
0.1781242
0.14917752
0.14994991
0.15070727
0.15145033
0.1521798
0.15289639
0.15360077
0.15429363
0.15497562
0.15564737
0.15630953
0.1569627
0.15760748
0.15824446
0.15887421
0.15949729
0.16011424
0.16072561
0.1613319
0.16193364
0.16253133
0.16312546
0.1637165
0.16430494
0.16489121
0.16547579
0.16605909
0.16664155
0.16722359
0.16780561
0.16838799
0.16897111
0.16955533
0.17014101
0.17072846
0.17131801
0.17190994
0.17250453
0.17310203
0.17370267
0.17430665
0.17491417
0.17552536
0.17614038
0.17675931
0.17738223
0.17800918
0.14871569
0.14950806
0.1502842
0.15104494
0.15179106
0.15252335
0.15324255
0.15394941
0.15464463
0.15532892
0.15600294
0.15666736
0.15732282
0.15796993
0.15860932
0.15924155
0.15986723
0.16048689
0.1611011
0.16171039
0.16231527
0.16291627
0.16351388
0.16410858
0.16470085
0.16529116
0.16587996
0.16646768
0.16705476
0.16764161
0.16822862
0.1688162
0.16940469
0.16999448
0.17058588
0.17117922
0.17177481
0.17237292
0.17297382
0.17357773
0.17418487
0.17479544
0.17540959
0.17602746
0.17664916
0.17727476
0.1779043
0.14829337
0.14910415
0.14989759
0.1506746
0.15143603
0.15218275
0.15291557
0.15363527
0.15434265
0.15503842
0.15572333
0.15639807
0.15706331
0.15771971
0.15836791
0.15900854
0.15964219
0.16026945
0.1608909
0.16150708
0.16211855
0.16272582
0.16332942
0.16392986
0.16452761
0.16512316
0.16571697
0.16630949
0.16690117
0.16749243
0.16808367
0.1686753
0.1692677
0.16986122
0.17045622
0.17105303
0.17165195
0.17225327
0.17285725
0.17346415
0.17407417
0.17468752
0.17530436
0.17592482
0.17654904
0.17717707
0.17780898
0.14345686
0.14439279
0.1453048
0.14619406
0.1470617
0.14790875
0.14873643
0.14954573
0.15033763
0.15111309
0.15187301
0.15261828
0.15334973
0.15406821
0.15477448
0.15546933
0.15615348
0.15682764
0.15749252
0.15814877
0.15879704
0.15943796
0.16007214
0.16070018
0.16132264
0.1619401
0.16255309
0.16316215
0.16376779
0.16437053
0.16497084
0.16556921
0.1661661
0.16676196
0.16735722
0.16795231
0.16854762
0.16914356
0.16974048
0.17033875
0.1709387
0.17154064
0.17214487
0.17275166
0.17336126
0.1739739
0.17458977
0.17520904
0.17583187
0.17645836
0.1770886
0.17772265
0.14301352
0.14397109
0.14490325
0.14581131
0.14669653
0.14756006
0.14840316
0.14922692
0.1500324
0.15082063
0.15159257
0.15234916
0.15309131
0.15381988
0.1545357
0.15523957
0.15593227
0.15661455
0.15728711
0.15795066
0.15860587
0.15925339
0.15989385
0.16052786
0.16115602
0.1617789
0.16239707
0.16301107
0.16362144
0.16422868
0.16483331
0.16543581
0.16603665
0.16663629
0.16723518
0.16783374
0.16843239
0.16903153
0.16963152
0.17023275
0.17083553
0.17144021
0.17204707
0.1726564
0.17326844
0.17388344
0.17450158
0.17512306
0.17574801
0.17637656
0.1770088
0.17764478
0.14261299
0.14359023
0.14454071
0.14546587
0.14636704
0.14724553
0.14810261
0.14893948
0.14975727
0.15055707
0.15133989
0.15210674
0.15285856
0.15359626
0.15432071
0.15503274
0.15573317
0.15642277
0.15710228
0.15777242
0.15843389
0.15908736
0.15973349
0.16037289
0.16100619
0.16163397
0.16225681
0.16287526
0.16348988
0.1641012
0.16470971
0.16531592
0.16592032
0.16652337
0.16712552
0.16772721
0.16832887
0.16893088
0.16953364
0.17013752
0.17074287
0.17135
0.17195923
0.17257083
0.17318508
0.17380219
0.17442238
0.17504584
0.1756727
0.1763031
0.17693713
0.17757485
0.14225321
0.14324823
0.14421526
0.14515584
0.14607142
0.14696338
0.14783307
0.14868176
0.14951064
0.15032085
0.15111347
0.15188955
0.15265007
0.15339597
0.15412818
0.15484755
0.15555493
0.1562511
0.15693685
0.15761291
0.15828
0.15893882
0.15959002
0.16023426
0.16087217