/*--------------------------------*- C++ -*----------------------------------*\
| =========                 |                                                 |
| \\      /  F ield         | OpenFOAM: The Open Source CFD Toolbox           |
|  \\    /   O peration     | Version:  2312                                  |
|   \\  /    A nd           | Website:  www.openfoam.com                      |
|    \\/     M anipulation  |                                                 |
\*---------------------------------------------------------------------------*/
FoamFile
{
    version     2.0;
    format      ascii;
    arch        "LSB;label=32;scalar=64";
    class       volScalarField;
    location    "0.09";
    object      omega;
}
// * * * * * * * * * * * * * * * * * * * * * * * * * * * * * * * * * * * * * //

dimensions      [0 0 -1 0 0 0 0];

internalField   nonuniform List<scalar> 
3272
(
340.05978
339.6107
339.12476
338.60067
338.0373
337.43368
336.78904
336.10277
335.37442
334.60368
333.79038
332.93445
332.03594
331.09496
330.11174
329.08657
328.01979
326.9118
325.76307
324.5741
323.34542
322.07759
320.77123
319.42696
318.04541
316.62723
315.17311
313.68376
312.15989
310.60224
309.01154
307.38856
305.73406
304.04884
302.33369
300.58942
298.81684
297.0168
295.19018
293.33783
291.46068
289.55962
287.63562
285.68962
283.72262
281.73562
279.72965
277.70577
275.66504
273.60858
271.53747
269.45287
267.35588
341.34774
340.88916
340.39251
339.85659
339.28034
338.66287
338.00349
337.30168
336.55707
335.76941
334.93861
334.06467
333.1477
332.18788
331.18549
330.14088
329.05443
327.92662
326.75793
325.5489
324.30012
323.01219
321.68574
320.32143
318.91991
317.48187
316.00802
314.49908
312.95579
311.37889
309.76914
308.12731
306.45419
304.75058
303.01726
301.25506
299.46481
297.64736
295.80357
293.93433
292.04054
290.12313
288.18302
286.2212
284.23864
282.23635
280.21537
278.17675
276.12156
274.05092
271.96594
269.86776
267.75744
343.77375
343.29499
342.77589
342.21542
341.61268
340.96695
340.27771
339.54459
338.76735
337.94593
337.08033
336.1707
335.21727
334.22034
333.18031
332.0976
330.97272
329.80622
328.59867
327.3507
326.06296
324.73611
323.37084
321.96787
320.52792
319.05169
317.53996
315.99348
314.41302
312.79935
311.15327
309.47555
307.76702
306.02847
304.26074
302.46463
300.641
298.79071
296.91462
295.01363
293.08864
291.14058
289.17039
287.17904
285.16751
283.13681
281.08797
279.02204
276.9401
274.84325
272.73262
270.60932
268.4744
347.21262
346.70187
346.1477
345.54933
344.90611
344.21756
343.48339
342.70345
341.87772
341.00632
340.08948
339.1275
338.12078
337.06981
335.97511
334.83725
333.65689
332.43467
331.1713
329.8675
328.52401
327.14158
325.721
324.26304
322.76849
321.23812
319.67276
318.0732
316.44026
314.77475
313.07748
311.34929
309.591
307.80344
305.98743
304.14383
302.2735
300.37729
298.45609
296.51078
294.54229
292.55153
290.53944
288.507
286.45517
284.38498
282.29744
280.19361
278.07454
275.94134
273.79512
271.637
269.468
351.54868
350.99285
350.38994
349.73952
349.04124
348.29494
347.5006
346.65836
345.76848
344.83131
343.84731
342.81703
341.74107
340.6201
339.45483
338.24601
336.99443
335.7009
334.36625
332.99132
331.57696
330.12405
328.63343
327.10596
325.54252
323.94395
322.31113
320.64491
318.94615
317.2157
315.45442
313.66315
311.84276
309.99408
308.11796
306.21528
304.28688
302.33365
300.35646
298.35622
296.33382
294.2902
292.22629
290.14304
288.04145
285.92249
283.78719
281.6366
279.47176
277.29376
275.10371
272.9027
270.69177
356.67609
356.06092
355.3947
354.67737
353.90898
353.08972
352.21992
351.30004
350.33063
349.31236
348.24594
347.13217
345.97189
344.76599
343.51538
342.22099
340.88379
339.50475
338.08483
336.62502
335.12628
333.58959
332.0159
330.40614
328.76128
327.08223
325.36993
323.62528
321.84918
320.04254
318.20623
316.34114
314.44813
312.52806
310.58181
308.61024
306.61423
304.59464
302.55237
300.48829
298.40332
296.29838
294.17438
292.03228
289.87305
287.69766
285.50713
283.30247
281.08474
278.855
276.61434
274.36385
272.10452
362.49654
361.80684
361.06203
360.26249
359.40867
358.50118
357.54074
356.52815
355.46431
354.35019
353.18681
351.97522
350.71653
349.41185
348.06229
346.669
345.23312
343.75577
342.23806
340.68112
339.08604
337.45388
335.7857
334.08252
332.34537
330.57525
328.77314
326.93999
325.07676
323.18436
321.26372
319.31572
317.34126
315.34121
313.31645
311.26785
309.19628
307.10261
304.98773
302.8525
300.69783
298.52462
296.33378
294.12625
291.90297
289.66491
287.41306
285.14843
282.87203
280.58493
278.28819
275.98287
273.66997
368.91749
368.13747
367.2984
366.40111
365.44655
364.43575
363.36982
362.24996
361.07742
359.85349
358.57949
357.25675
355.88663
354.47048
353.00963
351.50541
349.95913
348.37209
346.74554
345.08072
343.37885
341.64107
339.86855
338.06238
336.22368
334.35348
332.45283
330.52271
328.56411
326.57798
324.56526
322.52685
320.46364
318.37654
316.2664
314.13411
311.98051
309.80649
307.6129
305.40061
303.17049
300.92343
298.66033
296.3821
294.08966
291.78396
289.46596
287.13664
284.79701
282.44809
280.09093
277.72659
275.35602
375.851
374.96463
374.01556
373.00516
371.93485
370.8061
369.62046
368.3795
367.08482
365.73806
364.34082
362.89472
361.40136
359.86231
358.27913
356.65331
354.98634
353.27966
351.53466
349.75269
347.93506
346.08303
344.19782
342.28063
340.3326
338.35483
336.34839
334.31431
332.2536
330.16722
328.05611
325.9212
323.76337
321.58353
319.38253
317.16123
314.92048
312.66113
310.38403
308.09001
305.77995
303.45468
301.11509
298.76207
296.39649
294.01929
291.6314
289.23377
286.82738
284.41323
281.99233
279.5657
277.13419
383.21307
382.20444
381.12997
379.99156
378.7911
377.53053
376.2118
374.83687
373.4077
371.92621
370.39432
368.8139
367.18679
365.51478
363.79959
362.04291
360.24637
358.41154
356.53993
354.63299
352.69211
350.71864
348.71387
346.67905
344.61536
342.52394
340.40588
338.26224
336.09404
333.90223
331.68778
329.45159
327.19456
324.91756
322.62145
320.30705
317.97521
315.62675
313.26248
310.88323
308.48981
306.08306
303.66382
301.23294
298.79128
296.33972
293.87918
291.41056
288.93482
286.4529
283.96579
390.92332
389.77709
388.56251
387.282
385.93793
384.53267
383.06858
381.54799
379.97317
378.34636
376.66974
374.94542
373.17544
371.36179
369.50636
367.611
365.67745
363.7074
361.70246
359.66415
357.59395
355.49327
353.36344
351.20576
349.02143
346.81162
344.57743
342.31992
340.04011
337.73896
335.41742
333.07639
330.71674
328.33933
325.94498
323.53451
321.10873
318.66841
316.21436
313.74735
311.26817
308.77762
306.2765
303.76563
301.24583
298.71794
296.18284
293.6414
291.09453
288.54314
285.98804
398.90507
397.60679
396.23841
394.80282
393.30285
391.74131
390.12091
388.44432
386.71411
384.93281
383.1028
381.22643
379.30592
377.34343
375.34098
373.30055
371.22399
369.11307
366.96946
364.79478
362.59056
360.35824
358.09919
355.8147
353.50603
351.17433
348.82071
346.44622
344.05186
341.6386
339.20735
336.75899
334.29438
331.81434
329.31966
326.81113
324.28951
321.75555
319.21001
316.65363
314.08716
311.51135
308.92696
306.33477
303.73557
301.13014
298.51933
295.90396
293.28491
290.66304
288.03912
407.08553
405.62201
404.08743
402.48516
400.81845
399.09046
397.30428
395.46285
393.56903
391.62554
389.63501
387.59994
385.52272
383.40563
381.25083
379.06038
376.83619
374.58012
372.2939
369.97918
367.63753
365.2704
362.87919
360.46519
358.02965
355.57373
353.0985
350.60501
348.09424
345.56713
343.02456
340.46739
337.89644
335.31248
332.71629
330.10858
327.49011
324.86156
322.22365
319.57708
316.92255
314.26078
311.59247
308.91835
306.23917
303.55568
300.86866
298.1789
295.48724
292.7945
290.1014
415.3962
413.75575
412.04414
410.26515
408.42242
406.51945
404.55959
402.54607
400.48195
398.37016
396.21349
394.01457
391.77593
389.49995
387.18888
384.84482
382.46977
380.0656
377.63409
375.17692
372.69565
370.19175
367.6666
365.1215
362.55766
359.97621
357.37823
354.76473
352.13665
349.4949
346.84033
344.17375
341.49594
338.80762
336.10953
333.40234
330.68674
327.9634
325.23296
322.49608
319.75342
317.00563
314.25337
311.49734
308.73822
305.97672
303.21357
300.44953
297.68537
294.92188
292.15975
423.77326
421.9459
420.04815
418.08412
416.0578
413.97295
411.83318
409.64192
407.40242
405.11777
402.79086
400.42443
398.02109
395.58332
393.11341
390.61351
388.08563
385.53167
382.95342
380.35254
377.7306
375.08904
372.42924
369.75246
367.05987
364.35259
361.63165
358.89802
356.15261
353.39628
350.62983
347.85403
345.06959
342.27721
339.47755
336.67126
333.85896
331.04126
328.21876
325.39206
322.56177
319.72849
316.89284
314.05544
311.21693
308.37799
305.53929
302.70153
299.86545
297.03179
294.2012
432.158
430.1356
428.04438
425.88877
423.67301
421.4011
419.07684
416.70381
414.28541
411.82483
409.32506
406.7889
404.21897
401.61784
398.98782
396.33108
393.64961
390.94531
388.21996
385.4752
382.71256
379.93348
377.13926
374.33114
371.51026
368.67769
365.83441
362.98135
360.11936
357.24925
354.37176
351.48761
348.59747
345.70197
342.80172
339.8973
336.98929
334.07824
331.16469
328.24919
325.3323
322.41455
319.49651
316.57876
313.66189
310.74651
307.83324
304.92276
302.01574
299.11286
296.21476
440.49711
438.27342
435.98325
433.6313
431.22199
428.75951
426.24779
423.69053
421.09121
418.45309
415.77922
413.07242
410.33534
407.57053
404.78032
401.96686
399.13213
396.278
393.4062
390.51835
387.61593
384.70032
381.77278
378.83451
375.8866
372.93004
369.96578
366.99468
364.01753
361.03509
358.04804
355.05704
352.06269
349.06557
346.06623
343.06519
340.06297
337.06006
334.05694
331.05412
328.05208
325.0513
322.05231
319.05562
316.06177
313.07132
310.08484
307.10296
304.12631
301.15552
298.19117
448.74289
446.31352
443.82075
441.26943
438.66414
436.00918
433.30858
430.56611
427.78527
424.96936
422.12144
419.24433
416.34069
413.41302
410.46362
407.49461
404.50794
401.50542
398.48874
395.45944
392.41896
389.36861
386.30963
383.24312
380.1701
377.09153
374.00828
370.92114
367.83085
364.7381
361.6435
358.54765
355.45109
352.35433
349.25787
346.16216
343.06765
339.97479
336.88399
333.7957
330.71033
327.62833
324.55015
321.47626
318.40714
315.3433
312.28527
309.23361
306.18891
303.15178
300.12273
456.85332
454.21572
451.5184
448.76636
445.96424
443.11642
440.22695
437.29963
434.33798
431.34525
428.32451
425.27855
422.21001
419.12129
416.01467
412.89219
409.75577
406.60713
403.44789
400.27955
397.10347
393.92089
390.73296
387.54073
384.34516
381.14712
377.94741
374.74677
371.54585
368.34527
365.14559
361.94734
358.75099
355.55698
352.36575
349.17769
345.99319
342.81262
339.63635
336.46475
333.29819
330.13706
326.98176
323.83268
320.69027
317.55497
314.42728
311.3077
308.19677
305.09507
464.79206
461.94537
459.04321
456.09061
453.09227
450.05256
446.97555
443.86499
440.72437
437.55693
434.36566
431.15331
427.92243
424.67538
421.41434
418.14128
414.85802
411.56625
408.2675
404.96316
401.65454
398.34279
395.02899
391.71411
388.39902
385.08453
381.77136
378.46017
375.15155
371.84604
368.54414
365.24629
361.95291
358.66438
355.38106
352.10327
348.83135
345.5656
342.30634
339.05387
335.80851
332.57059
329.34044
326.11842
322.9049
319.7003
316.50504
313.31957
310.14439
306.97992
472.52825
469.4732
466.36736
463.21578
460.02314
456.79376
453.53167
450.24058
446.92391
443.58482
440.22621
436.85078
433.46097
430.05904
426.64708
423.22699
419.80049
416.36919
412.93451
409.49778
406.06019
402.62284
399.1867
395.75265
392.32151
388.89398
385.47072
382.0523
378.63925
375.23203
371.83106
368.43673
365.04937
361.6693
358.29681
354.93217
351.57565
348.22748
344.88793
341.55723
338.23565
334.92346
331.62094
328.32838
325.04613
321.77452
318.51395
315.26481
312.02754
308.80249
480.03632
476.77504
473.46803
470.12027
466.73638
463.32064
459.87698
456.40902
452.92007
449.41322
445.89126
442.35676
438.81208
435.25938
431.70063
428.13763
424.57201
421.00527
417.43874
413.87365
410.3111
406.75209
403.19751
399.64816
396.10475
392.56792
389.03823
385.5162
382.00225
378.49679
375.00017
371.51268
368.03461
364.56621
361.10769
357.65927
354.22113
350.79348
347.3765
343.97038
340.57531
337.19153
333.81924
330.45871
327.11021
323.77403
320.45052
317.14003
313.84296
310.5596
487.29563
483.83149
480.32694
476.78688
473.21583
469.61796
465.99708
462.3567
458.70003
455.03
451.34929
447.66036
443.96545
440.2666
436.56568
432.86435
429.16416
425.46647
421.77254
418.08349
414.40031
410.72391
407.05508
403.39454
399.74292
396.10076
392.46856
388.84673
385.23564
381.63561
378.04692
374.4698
370.90445
367.35107
363.80981
360.2808
356.7642
353.26012
349.7687
346.29007
342.82438
339.37178
335.93245
332.50659
329.09442
325.6962
322.31222
318.94279
315.58826
494.29007
490.62751
486.93006
483.20249
479.4492
475.67421
471.8812
468.07352
464.25424
460.42617
456.59186
452.75362
448.91358
445.07363
441.23553
437.40083
433.57094
429.74713
425.93053
422.12217
418.32295
414.53366
410.755
406.98761
403.23202
399.4887
395.75804
392.0404
388.33606
384.64527
380.96824
377.30512
373.65606
370.02117
366.40055
362.79428
359.20243
355.62508
352.0623
348.51417
344.98077
341.46221
337.95863
334.47015
330.99697
327.53929
324.09735
320.6714
317.26169
501.0077
497.15206
493.26717
489.35765
485.42773
481.48125
477.52174
473.5524
469.57615
465.59564
461.61327
457.63123
453.65148
449.67582
445.70583
441.74296
437.78851
433.84361
429.90931
425.9865
422.07599
418.17848
414.29457
410.4248
406.56962
402.72941
398.90449
395.09513
391.30154
387.5239
383.76233
380.01693
376.28778
372.57493
368.87841
365.19825
361.53445
357.88703
354.25602
350.64143
347.0433
343.46169
339.89667
336.34834
332.81683
329.30231
325.80496
322.32501
318.86261
507.4403
503.39765
499.33146
495.24612
491.14569
487.03385
482.91394
478.78901
474.66179
470.53477
466.41022
462.29016
458.17641
454.07061
449.97425
445.88862
441.8149
437.75412
433.7072
429.67494
425.65802
421.65706
417.67257
413.70499
409.75468
405.82194
401.90701
398.01008
394.13129
390.27074
386.4285
382.60459
378.79902
375.01178
371.24285
367.49219
363.75976
360.04551
356.34941
352.67143
349.01157
345.36981
341.7462
338.14079
334.55366
330.98492
327.43474
323.9033
320.39071
513.58293
509.35991
505.11903
500.86448
496.60012
492.32944
488.05558
483.7814
479.50949
475.24216
470.98149
466.72938
462.48748
458.25732
454.04021
449.83735
445.64977
441.4784
437.32404
433.18738
429.069
424.96943
420.88907
416.82828
412.78733
408.76645
404.76579
400.78546
396.82555
392.88606
388.96701
385.06835
381.19004
377.33201
373.49416
369.6764
365.87864
362.10079
358.34275
354.60446
350.88584
347.18686
343.50749
339.84775
336.20769
332.58737
328.98691
325.40648
519.43346
515.03716
510.62862
506.21183
501.79041
497.36766
492.94653
488.52969
484.11954
479.71822
475.32766
470.94957
466.5855
462.2368
457.90466
453.59014
449.29417
445.01753
440.76093
436.52495
432.31008
428.11672
423.94522
419.79582
415.66873
411.56408
407.48196
403.4224
399.38541
395.37094
391.37893
387.40928
383.46188
379.5366
375.6333
371.75183
367.89204
364.05379
360.23694
356.44136
352.66696
348.91363
345.18132
341.47
337.77966
334.11035
330.46213
326.83506
524.99226
520.43009
515.8612
511.28936
506.71797
502.15011
497.58853
493.03571
488.49387
483.96498
479.4508
474.95289
470.47264
466.01125
461.5698
457.14922
452.7503
448.37372
444.02007
439.68983
435.38339
431.10107
426.84311
422.60968
418.4009
414.21682
410.05746
405.92279
401.81273
397.72718
393.66602
389.62908
385.61621
381.6272
377.66187
373.72002
369.80144
365.90595
362.03337
358.18351
354.35624
350.55141
346.76893
343.00873
339.27075
335.555
331.86151
328.19028
530.26179
525.54137
520.81962
516.10007
511.3859
506.67997
501.98484
497.30278
492.63584
487.9858
483.35428
478.74268
474.15222
469.58399
465.03893
460.51782
456.02135
451.5501
447.10454
442.68504
438.29192
433.92538
429.58558
425.27262
420.98654
416.72731
412.49487
408.28914
404.10996
399.95718
395.8306
391.73003
387.65522
383.60593
379.58194
375.58297
371.6088
367.65918
363.73388
359.83269
355.95541
352.10188
348.27195
344.4655
340.68246
336.92279
333.18648
329.47351
535.24629
530.37535
525.50831
520.64845
515.79873
510.96179
506.13999
501.33543
496.54994
491.78516
487.04253
482.3233
477.62856
472.95925
468.31618
463.70002
459.11134
454.5506
450.01817
445.51434
441.03931
436.59322
432.17613
427.78806
423.42897
419.09877
414.79734
410.5245
406.28007
402.06381
397.87548
393.71482
389.58154
385.47536
381.39598
377.34311
373.31645
369.31573
365.34067
361.39101
357.46653
353.56702
349.69228
345.84218
342.0166
338.21547
334.43874
330.68636
539.95142
534.93774
529.93299
524.94021
519.96214
515.00122
510.05959
505.13917
500.24161
495.3684
490.52081
485.69994
480.90673
476.14201
471.40644
466.70059
462.02491
457.37976
452.76541
448.18205
443.62979
439.10869
434.61874
430.15987
425.73197
421.33489
416.96842
412.63235
408.32643
404.05035
399.80384
395.58656
391.39819
387.23839
383.10683
379.00315
374.92704
370.87816
366.85621
362.86089
358.89192
354.94907
351.03212
347.14088
343.27521
339.435
335.62017
331.83066
544.38406
539.23536
534.10041
528.98204
523.88274
518.80476
513.75004
508.72031
503.71707
498.74161
493.79507
488.8784
483.99242
479.13781
474.31513
469.52482
464.76723
460.04261
455.35115
450.69294
446.06801
441.47633
436.91782
432.39233
427.8997
423.43969
419.01205
414.6165
410.25273
405.92039
401.61914
397.34861
393.10842
388.89819
384.71754
380.56608
376.44345
372.34928
368.28322
364.24494
360.23413
356.25051
352.29385
348.36391
344.46052
340.58354
336.73288
332.90842
548.55198
543.2759
538.01818
532.78141
527.56789
522.37963
517.21842
512.08579
506.98307
501.91141
496.87179
491.86503
486.89181
481.9527
477.04812
472.17843
467.34387
462.54459
457.78068
453.05215
448.35895
443.70098
439.07807
434.49002
429.93659
425.41749
420.93242
416.48101
412.06292
407.67775
403.3251
399.00457
394.71572
390.45814
386.2314
382.03508
377.86876
373.73206
369.62457
365.54595
361.49585
357.47396
353.47999
349.5137
345.57489
341.66338
337.77906
333.92179
552.4637
547.06774
541.69452
536.3464
531.02547
525.73357
520.47229
515.24298
510.04684
504.88485
499.75784
494.66652
489.61143
484.59302
479.61161
474.66745
469.76068
464.89137
460.05952
455.26505
450.50784
445.78771
441.10443
436.45774
431.84731
427.27282
422.73389
418.23013
413.76112
409.32643
404.92561
400.5582
396.22374
391.92178
387.65183
383.41345
379.20619
375.02961
370.8833
366.76686
362.67992
358.62213
354.5932
350.59283
346.62081
342.67693
338.76104
334.873
556.12827
550.61975
545.1381
539.68549
534.2638
528.87469
523.51956
518.19963
512.91591
507.66926
502.46038
497.28983
492.15804
487.06536
482.01201
476.99812
472.02375
467.08887
462.19341
457.33722
452.5201
447.74179
443.00201
438.30042
433.63666
429.01033
424.42101
419.86825
415.35159
410.87056
406.42466
402.01339
397.63625
393.29274
388.98236
384.70463
380.45904
376.24515
372.0625
367.91066
363.78924
359.69787
355.6362
351.60394
347.60083
343.62665
339.68121
335.76437
559.55513
553.94116
548.35795
542.80747
537.29145
531.81134
526.36839
520.96366
515.59802
510.27218
504.98672
499.74209
494.5386
489.37648
484.25587
479.1768
474.13924
469.1431
464.1882
459.27433
454.40122
449.56856
444.77598
440.02311
435.30952
430.63476
425.99836
421.39983
416.83866
412.31434
407.82632
403.37407
398.95706
394.57475
390.2266
385.91209
381.6307
377.38194
373.16534
368.98043
364.8268
360.70404
356.61179
352.54972
348.51756
344.51506
340.54201
336.59825
580.07653
574.27409
568.49898
562.754
557.0414
551.36325
545.72133
540.11716
534.55205
529.02708
523.54315
518.10102
512.70125
507.34431
502.03052
496.76011
491.5332
486.34982
481.20994
476.11344
471.06013
466.04978
461.08211
456.15678
451.27342
446.4316
441.6309
436.87083
432.1509
427.4706
422.82938
418.2267
413.66199
409.1347
404.64424
400.19004
395.77153
391.38815
387.03934
382.72456
378.44329
374.19502
369.97926
365.79557
361.64353
357.52275
353.43289
349.37362
345.3447
341.3459
337.37701
583.35594
577.44991
571.57531
565.73464
559.93002
554.16331
548.4361
542.74974
537.10538
531.50394
525.94621
520.43278
514.96413
509.54058
504.16237
498.82961
493.54235
488.30051
483.10399
477.95259
472.84605
467.78407
462.7663
457.79234
452.86176
447.9741
443.12886
438.32552
433.56354
428.84236
424.1614
419.52007
414.91777
410.3539
405.82786
401.33904
396.88683
392.47065
388.08991
383.74404
379.43248
375.15472
370.91024
366.69857
362.51926
358.37191
354.25615
350.17165
346.11813
342.09533
338.10305
586.40639
580.40388
574.43661
568.50686
562.61657
556.76743
550.96084
545.19799
539.47989
533.80732
528.18092
522.60118
517.06845
511.58296
506.14484
500.75411
495.41073
490.11454
484.86536
479.66292
474.50689
469.39691
464.33257
459.31342
454.33896
449.40869
444.52206
439.6785
434.87743
430.11826
425.40035
420.7231
416.08587
411.48801
406.9289
402.4079
397.92437
393.4777
389.06727
384.6925
380.3528
376.04763
371.77644
367.53876
363.33411
359.16206
355.02223
350.91427
346.83787
342.79277
338.77874
589.23852
583.14632
577.09294
571.08043
565.11056
559.18484
553.30452
547.47065
541.68407
535.94544
530.25529
524.61399
519.02178
513.47879
507.98506
502.54053
497.14506
491.79843
486.50039
481.25058
476.04864
470.89412
465.78657
460.72548
455.71031
450.7405
445.81547
440.9346
436.09727
431.30284
426.55067
421.84009
417.17044
412.54105
407.95126
403.4004
398.88781
394.41285
389.97489
385.5733
381.20749
376.87687
372.58091
368.31909
364.09092
359.89595
355.73378
351.60405
347.50643
343.44064
339.40641
591.86284
585.68749
579.55425
573.46502
567.42138
561.42467
555.47602
549.57631
543.72626
537.92643
532.17721
526.47886
520.83154
515.23528
509.69004
504.19566
498.75194
493.3586
488.01529
482.72162
477.47715
472.28139
467.13382
462.03389
456.98102
451.97459
447.01399
442.09857
437.22766
432.4006
427.61669
422.87524
418.17558
413.51699
408.89878
404.32027
399.78077
395.27962
390.81615
386.38972
381.99972
377.64555
373.32664
369.04246
364.7925
360.5763
356.39344
352.24355
348.12628
344.04131
339.98837
594.28973
588.03743
581.83033
575.67011
569.55823
563.49587
557.484
551.52341
545.61467
539.75823
533.95438
528.20328
522.50501
516.8595
511.26662
505.72617
500.23784
494.80131
489.41616
484.08194
478.79816
473.56427
468.37971
463.24388
458.15616
453.1159
448.12243
443.17507
438.27312
433.41589
428.60265
423.83268
419.10527
414.41969
409.77522
405.17115
400.60678
396.08141
391.59437
387.14498
382.73263
378.35668
374.01656
369.71171
365.4416
361.20578
357.00379
352.83525
596.52934
590.20602
583.93072
577.70499
571.53012
565.40716
559.33696
553.32017
547.35727
541.44859
535.59433
529.79457
524.04927
518.35832
512.7215
507.13853
501.60906
496.13268
490.70893
485.3373
480.01725
474.7482
469.52952
464.36058
459.24071
454.16923
449.14544
444.16862
439.23805
434.35298
429.51269
424.71641
419.9634
415.25293
410.58424
405.9566
401.36928
396.82157
392.31278
387.84222
383.40924
379.01321
374.65352
370.32959
366.04091
361.78697
357.56733
598.59158
592.20285
585.86475
579.57869
573.34581
567.16705
561.04313
554.9746
548.96182
543.00505
537.10438
531.2598
525.47122
519.73843
514.06115
508.43904
502.87169
497.35863
491.89935
486.49329
481.13986
475.83843
470.58834
465.38892
460.23947
455.13926
450.08756
445.08363
440.12671
435.21603
430.35083
425.53033
420.75377
416.02038
411.32939
406.68005
402.07162
397.50335
392.97454
388.48449
384.03253
379.618
375.24029
370.89882
366.59303
362.32242
358.08651
600.48606
594.03724
587.64145
581.29996
575.0138
568.78378
562.61051
556.49445
550.43586
544.4349
538.49159
532.60586
526.77751
521.0063
515.29186
509.63381
504.03166
498.48492
492.993
487.55532
482.17123
476.84007
471.56114
466.33373
461.1571
456.03051
450.95318
445.92435
440.94323
436.00903
431.12096
426.27822
421.48003
416.7256
412.01414
407.34487
402.71704
398.12989
393.5827
389.07475
384.60535
380.17384
375.77959
371.42199
367.10049
362.81456
358.56372
602.22209
595.7182
589.26955
582.87728
576.54229
570.2653
564.04682
557.88719
551.78663
545.74519
539.76282
533.83937
527.97459
522.16817
516.41969
510.7287
505.09468
499.51707
493.99526
488.52861
483.11643
477.75803
472.45268
467.19963
461.99811
456.84734
451.74654
446.69489
441.6916
436.73586
431.82684
426.96373
422.14573
417.37201
412.64179
407.95427
403.30867
398.70423
394.1402
389.61585
385.13047
380.68341
376.27399
371.90163
367.56573
363.26577
359.00125
603.80862
597.25443
590.75748
584.31879
577.93919
571.61927
565.35947
559.16005
553.02113
546.94269
540.92463
534.96672
529.06865
523.23005
517.45047
511.72938
506.06624
500.46043
494.9113
489.41817
483.98034
478.59705
473.26755
467.99107
462.76681
457.59396
452.4717
447.39922
442.37568
437.40025
432.47209
427.59037
422.75426
417.96293
413.21557
408.51137
403.84954
399.2293
394.64988
390.11054
385.61057
381.14929
376.72603
372.34017
367.99112
363.67833
359.40131
605.2543
598.65429
592.11333
585.63236
579.2121
572.85308
566.55563
560.31995
554.14607
548.03393
541.98334
535.99403
530.06564
524.19773
518.3898
512.64129
506.95162
501.32011
495.74609
490.22885
484.76763
479.36168
474.01019
468.71236
463.46738
458.27441
453.13261
448.04114
442.99915
438.00578
433.06018
428.1615
423.3089
418.50153
413.73856
409.01917
404.34255
399.70791
395.11447
390.56148
386.04822
381.57398
377.1381
372.73995
368.37891
364.05445
359.76604
606.56741
599.92579
593.34486
586.8255
580.36832
573.97378
567.64215
561.37353
555.16791
549.02516
542.94503
536.9272
530.97126
525.07673
519.24306
513.46965
507.75587
502.10103
496.50442
490.96527
485.48282
480.05627
474.68481
469.3676
464.1038
458.89256
453.73301
448.6243
443.56555
438.5559
433.59447
428.68039
423.81281
418.99087
414.21372
409.48053
404.79048
400.14276
395.5366
390.97121
386.44588
381.95988
377.51254
373.10322
368.7313
364.39623
360.09748
642.04066
635.07118
628.15583
621.29692
614.49639
607.75591
601.07661
594.45952
587.90541
581.41483
574.98815
568.62557
562.32714
556.0928
549.92234
543.81549
537.77185
531.79098
525.87235
520.01539
514.21945
508.48386
502.8079
497.19083
491.63186
486.1302
480.68501
475.29547
469.96072
464.67989
459.45212
454.27651
449.1522
444.07829
439.05389
434.07813
429.15012
424.26899
419.43386
414.64388
409.89821
405.19601
400.53646
395.91877
391.34217
386.80591
382.30927
377.85157
373.43214
369.05038
364.7057
360.3976
643.3051
636.29361
629.33806
622.44065
615.60325
608.82735
602.1141
595.46441
588.87898
582.35829
575.90264
569.51217
563.18688
556.92664
550.73121
544.60025
538.53335
532.53001
526.58967
520.7117
514.89545
509.1402
503.4452
497.80969
492.23286
486.71387
481.25189
475.84606
470.49549
465.19932
459.95664
454.76656
449.62818
444.5406
439.50292
434.51424
429.57367
424.68032
419.83331
415.03177
410.27484
405.56169
400.89148
396.26341
391.6767
387.13059
382.62436
378.1573
373.72877
369.33813
364.98481
360.66827
644.43983
637.39067
630.39905
623.46712
616.59662
609.78897
603.04525
596.36632
589.75278
583.20506
576.72341
570.30792
563.95852
557.67504
551.4572
545.30462
539.21684
533.19333
527.2335
521.33668
515.5022
509.72931
504.01723
498.36517
492.7723
487.23777
481.76072
476.34026
470.9755
465.66555
460.4095
455.20643
450.05543
444.95558
439.90598
434.90571
429.95387
425.04956
420.19188
415.37997
410.61294
405.88995
401.21018
396.57279
391.97701
387.42207
382.90723
378.43179
373.99508
369.59648
365.23539
360.91129
645.453
638.37022
631.34643
624.38368
617.48364
610.64765
603.87674
597.17169
590.53306
583.96122
577.45636
571.01852
564.64759
558.34336
552.10551
545.93362
539.8272
533.78568
527.80844
521.8948
516.04404
510.25539
504.52806
498.86122
493.25404
487.70563
482.21511
476.7816
471.40417
466.08192
460.81392
455.59925
450.43699
445.32619
440.26595
435.25533
430.29342
425.37932
420.51213
415.69094
410.9149
406.18314
401.49482
396.84912
392.24524
387.68241
383.15988
378.67696
374.23296
369.82725
365.45923
361.12837
646.35236
639.23977
632.18744
625.19734
618.27109
611.40995
604.6149
597.88667
591.22577
584.63252
578.10706
571.64938
565.25934
558.9367
552.68108
546.49205
540.36908
534.31158
528.31889
522.39031
516.52509
510.72246
504.98158
499.30163
493.68173
488.121
482.61854
477.17343
471.78476
466.45159
461.17299
455.94802
450.77575
445.65523
440.58554
435.56574
430.5949
425.67211
420.79646
415.96705
411.18301
406.44346
401.74756
397.09447
392.48341
387.91357
383.38423
378.89466
374.44419
370.03217
365.658
361.32115
647.1453
640.00644
632.92895
625.91476
618.9654
612.08209
605.26577
598.51711
591.83658
585.22445
578.68082
572.20565
565.79877
559.45988
553.18861
546.98446
540.8469
534.7753
528.76899
522.82723
516.94927
511.1343
505.38149
499.68997
494.05886
488.48727
482.97427
477.51894
472.12035
466.77755
461.48961
456.25556
451.07447
445.94538
440.86736
435.83946
430.86074
425.93029
421.04719
416.21054
411.41944
406.67302
401.97044
397.31085
392.69344
388.11744
383.58208
379.08666
374.63048
370.2129
365.83331
361.49117
647.83881
640.67698
633.57751
626.54224
619.57268
612.67
605.83508
599.06855
592.37085
585.7422
579.18269
572.69222
566.2706
559.91751
553.63254
547.41517
541.26485
535.18092
529.16269
523.20941
517.32031
511.49455
505.73129
500.02965
494.38874
488.80764
483.28543
477.82116
472.4139
467.06268
461.76655
456.52457
451.33576
446.19918
441.11387
436.07888
431.09328
426.15613
421.26652
416.42352
411.62625
406.87383
402.1654
397.50012
392.87717
388.29578
383.75517
379.25462
374.79345
370.37101
365.98669
361.63993
648.43953
641.25781
634.1393
627.08579
620.09874
613.17927
606.32824
599.54624
592.83366
586.19072
579.61744
573.11372
566.67934
560.31395
554.0171
547.78829
541.6269
535.53229
529.50374
523.54048
517.64172
511.80662
506.03431
500.32391
494.6745
489.08517
483.55497
478.08296
472.66818
467.30967
462.00646
456.75759
451.5621
446.41903
441.3274
436.28628
431.29472
426.35177
421.45651
416.60802
411.80541
407.04779
402.3343
397.66409
393.03635
388.45027
383.90511
379.40014
374.93465
370.508
366.11957
361.76881
648.95372
641.75499
634.62019
627.55107
620.54905
613.61522
606.7504
599.95515
593.22985
586.57466
579.9896
573.47455
567.02924
560.65331
554.3463
548.10768
541.93683
535.83308
529.79569
523.82388
517.91685
512.07375
506.2937
500.57579
494.91911
489.32273
483.7857
478.30706
472.88584
467.52108
462.21181
456.95706
451.75585
446.60721
441.51019
436.46381