/*--------------------------------*- C++ -*----------------------------------*\
| =========                 |                                                 |
| \\      /  F ield         | OpenFOAM: The Open Source CFD Toolbox           |
|  \\    /   O peration     | Version:  2312                                  |
|   \\  /    A nd           | Website:  www.openfoam.com                      |
|    \\/     M anipulation  |                                                 |
\*---------------------------------------------------------------------------*/
FoamFile
{
    version     2.0;
    format      ascii;
    arch        "LSB;label=32;scalar=64";
    class       volScalarField;
    location    "0.09";
    object      Qdot;
}
// * * * * * * * * * * * * * * * * * * * * * * * * * * * * * * * * * * * * * //

dimensions      [1 -1 -3 0 0 0 0];

internalField   nonuniform List<scalar> 
3272
(
118.3908
133.60272
149.97862
167.48484
186.07359
205.67914
226.21708
247.58426
269.65928
292.3034
315.36186
338.66554
362.03302
385.27295
408.1867
430.57119
452.22203
472.93654
492.51707
510.77412
527.52946
542.61905
555.89578
567.23183
576.34394
583.35517
588.24482
590.94896
591.40577
589.66129
585.75917
579.67728
571.66149
561.70245
549.78605
536.19314
521.0765
504.60007
486.93598
468.26173
448.75739
428.60288
407.97548
387.04739
365.98362
344.94015
324.06228
303.48338
283.32394
263.69101
244.6779
226.36439
208.81712
126.51656
142.68635
160.07407
178.64136
198.33471
219.08154
240.78958
263.34691
286.62261
310.46778
334.71701
359.19023
383.69495
408.02876
431.9822
455.34179
477.89324
499.42476
519.73039
538.61333
555.88909
571.38868
584.96142
596.47772
605.65107
612.60983
617.34767
619.77482
619.8486
617.62774
613.155
606.3979
597.64985
586.8399
574.04011
559.50858
543.40803
525.9121
507.20232
487.46532
466.88986
445.66416
423.97315
401.99613
379.90452
357.8599
336.01248
314.49966
293.44507
272.95789
253.13261
234.05014
215.78478
143.28164
161.39132
180.82536
201.53411
223.45132
246.48981
270.54088
295.47454
321.1404
347.36897
373.97346
400.75191
427.48984
453.96312
479.94109
505.19005
529.4767
552.57179
574.2537
594.31187
612.55026
628.79045
642.87503
654.67147
663.894
670.68166
675.04152
676.85383
676.10747
672.88439
667.20914
659.08012
648.83186
636.3052
621.71779
605.29647
587.22287
567.6892
546.89525
525.0453
502.34504
478.99861
455.2058
431.15952
407.04343
383.02998
359.27873
335.93502
313.12896
290.97484
269.57107
249.00158
229.34321
170.62753
191.82905
214.51261
238.60932
264.03143
290.66749
318.38182
347.01519
376.38602
406.29219
436.51335
466.81359
496.94458
526.64902
555.66434
583.72664
610.57464
635.95377
659.62004
681.34378
700.91286
718.13547
732.84205
744.88792
754.02295
760.41127
764.01423
764.72591
762.59679
757.68542
749.96982
739.73395
727.01582
711.76426
694.34209
674.94347
653.77752
631.06426
607.03088
581.90814
555.92701
529.31541
502.29512
475.07909
447.86897
420.85303
394.20441
368.07983
342.61858
317.9421
294.15397
271.34155
249.58435
212.08426
237.83346
265.27345
294.3048
324.80614
356.62868
389.59601
423.50526
458.12902
493.21787
528.5033
563.70132
598.51625
632.64502
665.78153
697.62136
727.86632
756.22918
782.43809
806.24077
827.40806
845.73583
861.04197
873.01588
881.78197
887.35091
889.59241
888.50793
884.17415
876.64124
865.90544
852.40283
835.93526
816.78046
795.2324
771.52657
745.91219
718.6484
690.00027
660.23489
629.6176
598.40832
566.85832
535.20721
503.68033
472.48658
441.81666
411.84176
382.71268
354.55945
327.49155
301.59987
276.96618
273.25256
305.46116
339.61691
375.57326
413.15809
452.16734
492.36537
533.48695
575.24019
617.30998
659.3621
701.04775
742.0085
781.88146
820.30468
856.92266
891.39173
923.38549
952.60006
978.7595
1001.6221
1020.9898
1036.3951
1048.0163
1055.8296
1059.7552
1059.7054
1055.7782
1048.0493
1036.4948
1021.5486
1003.1305
981.37667
956.69722
929.36247
899.66098
867.89465
834.37414
799.41415
763.32898
726.42822
689.01278
651.37126
613.7767
576.48389
539.72702
503.71801
468.64517
434.67252
401.93957
370.56177
340.63294
312.23612
362.60355
403.81913
447.27316
492.74819
539.9973
588.73668
638.6469
689.37608
740.54426
791.74821
842.56697
892.56774
941.31213
988.3626
1033.2889
1075.6744
1115.1228
1151.2635
1183.7571
1212.3004
1236.6289
1256.516
1271.5365
1281.9458
1287.749
1288.7566
1285.0519
1276.7265
1263.7584
1246.6333
1225.3858
1199.9498
1170.9105
1138.5831
1103.3071
1065.4406
1025.3537
983.42269
940.02541
895.53542
850.31746
804.72292
759.08597
713.71999
668.91475
624.9341
582.01425
540.36264
500.15744
461.54761
424.6538
389.57125
356.38232
492.66516
546.28223
602.434
660.79857
721.02129
782.706
845.41757
908.68693
972.01723
1034.8905
1096.7752
1157.1333
1215.4289
1271.1351
1323.7426
1372.7666
1417.7541
1458.2899
1494.0033
1524.5721
1549.7271
1568.9604
1582.5075
1590.3972
1592.4394
1588.6979
1579.2953
1564.2625
1543.7421
1518.4984
1488.0528
1453.0835
1414.0158
1371.2603
1325.249
1276.4293
1225.2575
1172.1924
1117.6897
1062.1956
1006.1413
949.93896
893.97644
838.61419
784.18211
730.97731
679.2625
629.26515
581.1773
535.15611
491.32539
449.77959
410.59847
681.69213
752.18835
825.46087
901.03756
978.41252
1057.0354
1136.3156
1215.6302
1294.3319
1371.7585
1447.2422
1520.1195
1589.7401
1655.477
1716.735
1772.9587
1823.641
1868.3295
1906.6325
1938.2244
1962.4663
1979.6712
1989.8527
1992.8071
1988.5934
1977.363
1959.1845
1934.16
1903.2255
1865.9006
1822.9313
1774.8425
1722.1343
1665.3336
1604.9871
1541.6529
1475.8935
1408.2686
1339.3274
1269.6028
1199.605
1129.8162
1060.6861
992.62827
926.01688
861.18473
798.42186
737.97506
680.04818
624.80333
572.36369
522.82146
476.27411
955.93341
1049.11
1145.1438
1243.3528
1343.025
1443.4046
1543.6994
1643.0907
1740.7451
1835.8264
1927.5072
2014.981
2097.4731
2174.2516
2244.6368
2308.0103
2363.8233
2411.6031
2450.9595
2481.0969
2502.4299
2514.9734
2518.5096
2513.1125
2498.9772
2476.1818
2444.8351
2406.1253
2359.4293
2305.7062
2245.5913
2179.6958
2108.6662
2033.1744
1953.9073
1871.5584
1786.818
1700.3653
1612.8604
1524.9368
1437.1948
1350.1965
1264.4601
1180.4569
1098.6078
1019.2821
942.79595
869.41264
799.34346
732.74951
669.74416
1352.6103
1475.7937
1601.5812
1729.0073
1857.0885
1984.8061
2111.1155
2234.9607
2355.2886
2471.064
2581.2839
2684.9911
2781.2872
2869.3436
2948.412
3017.8325
3077.0422
3125.5807
3162.474
3188.2667
3202.9896
3206.4013
3198.6342
3179.9458
3150.5095
3110.3043
3060.9278
3001.5225
2933.3938
2857.2901
2773.9696
2684.2313
2588.905
2488.8397
2384.8921
2277.9162
2168.7531
2058.2211
1947.1071
1836.1585
1726.0766
1617.5102
1511.0513
1407.2311
1306.5176
1209.3143
1115.96
1026.7292
941.83505
861.43525
785.65724
1923.692
2085.826
2249.7117
2414.0154
2577.412
2738.5608
2896.1183
3048.7559
3195.1773
3334.1362
3464.4531
3585.0302
3694.8656
3793.0639
3878.844
3951.5473
4010.6443
4054.9697
4085.2351
4101.5028
4103.4988
4091.4762
4065.7182
4026.3066
3974.416
3910.1845
3833.5302
3746.1218
3648.8002
3542.5059
3428.2306
3307.0026
3179.873
3047.9019
2912.1461
2773.6466
2633.4168
2492.4327
2351.6225
2211.8589
2073.9515
1938.6407
1806.5936
1678.4008
1554.5737
1435.5448
1321.6679
1213.2202
1110.4057
1013.3643
922.20219
2740.4967
2952.017
3163.4561
3373.026
3578.9935
3779.6478
3973.3138
4158.373
4333.2845
4496.6031
4646.9977
4783.268
4904.3599
5009.371
5097.5529
5168.3159
5220.3047
5254.4461
5270.8894
5269.2498
5250.0836
5213.706
5160.0955
5091.1661
5006.6114
4906.8881
4793.7476
4668.328
4531.8116
4385.4358
4230.4782
4068.2413
3900.0366
3727.17
3550.9273
3372.5606
3193.276
3014.222
2836.4797
2661.0539
2488.866
2320.7487
2157.4413
1999.5876
1847.7349
1702.3342
1563.7423
1432.225
1307.9622
1191.0581
1081.5777
3899.0447
4171.3921
4440.3315
4703.5468
4958.8521
5204.1437
5437.4135
5656.7719
5860.4685
6046.9097
6214.6752
6362.5389
6489.4942
6594.7335
6677.6413
6736.6909
6773.057
6787.0069
6778.3498
6747.4381
6695.2099
6621.2241
6528.5411
6415.9336
6285.079
6137.6675
5975.1237
5798.9473
5610.6892
5411.9399
5204.3129
4989.4284
4768.896
4544.2986
4317.1766
4089.0136
3861.2229
3635.1358
3411.9917
3192.9291
2978.9791
2771.0603
2569.9757
2376.4108
2190.9346
2014.0005
1845.9508
1687.0208
1537.3459
1396.974
1265.9072
5525.9544
5870.5511
6206.2684
6530.2249
6839.7826
7132.4729
7406.0069
7658.2968
7887.4738
8091.9022
8270.1809
8421.1715
8544.1176
8638.4418
8702.5685
8737.893
8744.7587
8723.3395
8674.3259
8598.607
8495.445
8369.781
8218.7972
8045.9687
7852.9088
7641.3955
7413.2984
7170.5511
6915.1277
6649.0224
6374.2299
6092.7266
5806.4519
5517.2907
5227.0567
4937.4777
4650.1816
4366.6851
4088.3833
3816.542
3552.2918
3296.6238
3050.3878
2814.2926
2588.9073
2374.6655
2171.8704
1980.7018
1801.2249
1633.4057
1477.158
7784.5031
8210.9914
8620.2181
9008.7707
9373.6361
9712.0872
10021.685
10300.291
10546.086
10757.588
10933.568
11072.996
11175.993
11240.846
11269.624
11262.011
11219.376
11142.26
11030.944
10889.297
10715.99
10513.325
10284.079
10030.365
9754.4021
9458.512
9145.0889
8816.5685
8475.4022
8124.0334
7764.8752
7400.2893
7032.5669
6663.9094
6296.4124
5932.0499
5572.6614
5219.9405
4875.4255
4540.4931
4216.3531
3904.0462
3604.4439
3318.2502
3046.0055
2788.0927
2544.745
2316.0544
2101.9844
1902.3873
1717.0593
10880.283
11393.839
11878.017
12329.018
12743.644
13119.126
13453.109
13743.644
13989.203
14188.859
14341.917
14446.064
14504.423
14516.938
14484.542
14406.879
14288.723
14126.142
13928.285
13690.361
13417.798
13113.162
12779.185
12418.691
12034.575
11629.795
11207.34
10770.206
10321.364
9863.7402
9400.1904
8933.4769
8466.2495
8001.0273
7540.181
7085.9196
6640.2768
6205.1019
5782.0512
5372.5832
4977.9556
4599.2248
4237.2481
3892.6875
3566.0165
3257.5286
2967.347
2695.4372
2441.6214
2205.6015
1987.0232
15065.739
15663.313
16214.876
16716.541
17165.265
17558.594
17894.645
18171.973
18389.41
18547.619
18644.139
18682.582
18663.602
18588.466
18460.136
18276.862
18046.767
17766.459
17441.053
17074.19
16669.173
16229.435
15758.521
15260.037
14737.624
14194.937
13635.61
13063.234
12481.327
11893.312
11302.49
10712.02
10124.9
9543.947
8971.7835
8410.8236
7863.2625
7331.0674
6815.9727
6319.4761
5842.8385
5387.086
4953.0143
4541.1962
4151.9903
3785.5525
3441.849
3120.6712
2821.6532
2544.2992
2288.0666
20642.772
21308.182
21905.84
22432.254
22885.066
23262.62
23564.194
23789.502
23935.686
24008.308
24006.735
23934.389
23792.201
23583.758
23312.758
22981.344
22589.357
22144.968
21651.643
21113.566
20535.058
19920.52
19274.403
18601.163
17905.234
17190.998
16462.759
15724.71
14980.914
14235.277
13491.524
12753.182
12023.56
11305.734
10602.531
9916.5221
9250.0103
8605.0264
7983.3256
7386.3871
6815.4159
6271.3489
5754.8616
5266.3787
4806.0863
4373.9465
3969.7131
3592.9496
3243.048
2919.2503
27962.565
28660.501
29263.634
29769.507
30177.286
30486.346
30698.538
30812.023
30831.887
30761.995
30600.741
30360.048
30031.414
29634.723
29159.167
28617.015
28012.117
27350.26
26636.772
25877.057
25076.557
24240.715
23374.938
22484.562
21574.823
20650.83
19717.535
18779.708
17841.919
16908.51
15983.578
15070.96
14174.211
13296.599
12441.085
11610.325
10806.657
10032.101
9288.3575
8576.8136
7898.5453
7254.3273
6644.644
6069.7028
5529.4502
5023.5894
4551.6006
4112.7632
3706.1888
3330.9037
37421.955
38091.058
38633.513
39048.273
39338.284
39501.304
39545.562
39474.157
39287.363
38998.342
38599.208
38112.8
37526.87
36857.834
36109.96
35290.329
34405.406
33462.027
32466.942
31426.837
30348.32
29237.89
28101.906
26946.561
25777.854
24601.565
23423.233
22248.135
21081.265
19927.319
18790.677
17675.39
16585.168
15523.371
14493.001
13496.702
12536.749
11615.057
10733.182
9892.3271
9093.3503
8336.7794
7622.8246
6951.3965
6322.1252
5734.382
5187.3034
4679.8186
4210.6895
3778.6158
49455.899
50001.039
50385.268
50605.384
50672.9
50592.259
50365.393
50007.442
49512.098
48904.327
48173.096
47336.288
46401.054
45376.631
44270.994
43092.569
41849.648
40550.501
39203.255
37815.849
36396.013
34951.243
33488.775
32015.57
30538.286
29063.268
27596.522
26143.709
24710.122
23300.683
21919.924
20571.983
19260.595
17989.09
16760.384
15576.986
14440.994
13354.103
12317.612
11332.434
10399.108
9517.8168
8688.4024
7910.3892
7183.0062
6505.2118
5875.7211
5293.0364
4755.4915
4261.3817
64526.38
64808.804
64894.852
64790.624
64499.364
64041.038
63410.398
62636.336
61708.611
60647.917
59465.233
58171.751
56778.025
55294.898
53732.741
52101.779
50411.982
48673.069
46894.45
45085.202
43254.041
41409.313
39558.975
37710.587
35871.297
34047.835
32246.501
30473.158
28733.227
27031.677
25373.026
23761.33
22200.189
20692.743
19241.674
17849.21
16517.132
15246.782
14039.076
12894.516
11813.206
10794.873
9838.8916
8944.3007
8109.8366
7333.9583
6614.8779
5950.5918
5338.912
83098.044
82944.544
82551.005
81945.473
81121.691
80116.749
78919.198
77556.008
76042.047
74391.441
72618.21
70736.135
68758.474
66698.152
64567.571
62378.674
60142.928
57871.319
55574.336
53261.961
50943.656
48628.372
46324.534
44040.053
41782.317
39558.197
37374.044
35235.692
33148.457
31117.14
29146.029
27238.899
25399.018
23629.151
21931.569
20308.052
18759.905
17287.967
15892.628
14573.845
13331.162
12163.736
11070.356
10049.477
9099.2438
8217.5273
7401.9574
6649.971
5958.9283
105644.33
104821.34
103719.97
102392.02
100820.44
99044.387
97082.189
94952.756
92674.581
90265.388
87742.237
85121.497
82418.759
79648.88
76825.947
73963.306
71073.576
68168.666
65259.79
62357.476
59471.577
56611.288
53785.162
51001.118
48266.457
45587.875
42971.469
40422.754
37946.664
35547.566
33229.268
30995.024
28847.548
26789.018
24821.092
22944.918
21161.147
19469.95
17871.038
16363.68
14946.725
13618.633
12377.494
11221.069
10146.812
9151.9126
8233.3313
7387.8585
6612.2638
132608.29
130824.54
128731.49
126387.9
123814.41
121037.65
118081.87
114970.28
111724.97
108366.83
104915.56
101389.72
97806.721
94182.869
90533.403
86872.542
83213.528
79568.68
75949.423
72366.334
68829.177
65346.928
61927.818
58579.35
55308.333
52120.901
49022.536
46018.086
43111.78
40307.246
37607.526
35015.086
32531.831
30159.122
27897.785
25748.129
23709.966
21782.622
19964.965
18255.424
16652.016
15152.37
13753.764
12453.15
11247.191
10132.298
9104.6692
8160.3514
7295.4169
164377.54
161247.76
157835.63
154178.11
150306.72
146252.39
142043.92
137708.23
133270.4
128753.72
124179.79
119568.58
114938.53
110306.64
105688.5
101098.48
96549.712
92054.218
87622.977
83265.98
78992.292
74810.102
70726.776
66748.894
62882.294
59132.101
55502.761
51998.064
48621.169
45374.627
42260.395
39279.859
36433.846
33722.644
31146.016
28703.219
26393.022
24213.726
22163.188
20238.842
18437.727
16756.517
15191.551
13738.865
12394.231
11153.187
10011.082
8963.1095
201236
196371.7
191255.92
185928.59
180427.34
174787.17
169040.24
163216
157341.34
151440.79
145536.67
139649.23
133796.83
127996.07
122261.93
116607.9
111046.1
105587.39
100241.48
95017.01
89921.624
84962.053
80144.172
75473.056
70953.027
66587.702
62380.023
58332.294
54446.206
50722.863
47162.803
43766.017
40531.967
37459.605
34547.39
31793.302
29194.868
26749.175
24452.898
22302.321
20293.364
18421.614
16682.354
15070.599
13581.132
12208.537
10947.259
9791.733
243426.92
236369.01
229122.61
221731.51
214236.98
206676.44
199083.57
191488.57
183918.45
176397.3
168946.56
161585.26
154330.24
147196.36
140196.69
133342.69
126644.34
120110.32
113748.1
107564.09
101563.7
95751.43
90130.972
84705.25
79476.481
74446.223
69615.417
64984.42
60553.034
56320.53
52285.673
48446.737
44801.525
41347.383
38081.218
34999.513
32098.345
29373.405
26820.016
24433.158
22207.496
20137.402
18216.992
16440.157
14800.597
13291.865
11907.416
10640.774
291074.6
281317.76
271476.97
261597.59
251721.68
241886.48
232124.65
222464.74
212931.57
203546.66
194328.58
185293.24
176454.24
167823.07
159409.39
151221.25
143265.23
135546.64
128069.66
120837.45
113852.3
107115.67
100628.3
94390.266
88401.054
82659.592
77164.293
71913.089
66903.458
62132.445
57596.681
53292.399
49215.442
45361.286
41725.04
38301.47
35085.005
32069.756
29249.534
26617.868
24168.033
21893.071
19785.821
17838.955
16045.005
14396.409
12885.561
11504.976
344188.83
331192.47
318265.82
305452.4
292790.6
280314.36
268052.08
256027.61
244260.79
232767.97
221562.42
210654.78
200053.33
189764.37
179792.48
170140.72
160810.86
151803.58
143118.59
134754.78
126710.3
118982.72
111569.03
104465.75
97668.976
91174.418
84977.425
79073.023
73455.928
68120.564
63061.072
58271.317
53744.9
49475.157
45455.168
41677.767
38135.545
34820.861
31725.861
28842.487
26162.497
23677.494
21378.944
19258.207
17306.574
15515.295
13875.636
12379.037
402662.19
385862.51
369341.78
353135.97
337276.64
321789.36
306694.69
292007.43
277739.55
263899.2
250491.66
237519.76
224984.26
212884.22
201217.27
189979.84
179167.39
168774.59
158795.46
149223.48
140051.73
131272.94
122879.57
114863.84
107217.8
99933.355
93002.258
86416.152
80166.563
74244.906
68642.487
63350.496
58360.007
53661.973
49247.219
45106.448
41230.233
37609.027
34233.163
31092.871
28178.284
25479.463
22986.413
20689.108
18577.524
16641.666
14871.615
13257.686
466268.26
445091.83
424464.22
404408.21
384942.25
366078.96
347825.8
330185.95
313159.36
296741.88
280928.21
265710.68
251080.12
237026.17
223537.57
210602.36
198208.15
186342.17
174991.52
164143.15
153784.04
143901.2
134481.74
125512.87
116981.95
108876.5
101184.17
93892.747
86990.166
80464.465
74303.787
68496.355
63030.457
57894.428
53076.636
48565.468
44349.319
40416.588
36755.673
33354.976
30202.908
27287.901
24598.422
22122.994
19850.219
17768.805
15867.605
14135.773
534668.39
508546.39
483307.1
458953.28
435484.11
412893.65
391171.64
370304.36
350275.43
331066.41
312657.76
295027.71
278155.05
262017.75
246593.68
231860.72
217797.02
204381.02
191591.6
179408.1
167810.4
156778.92
146294.63
136339.05
126894.23
117942.75
109467.67
101452.51
93881.203
86738.083
80007.826
73675.421
67726.133
62145.473
56919.164
52033.115
47473.4
43226.237
39277.981
35615.108
32224.223
29092.055
26205.471
23551.488
21117.288
18890.243
16857.945
15008.356
607421.37
575803.93
545468.53
516390.71
488543.65
461896.85
436416.99
412068.74
388815.54
366620.2
345445.33
325253.78
306009.25
287675.05
270216.57
253599.82
237791.9
222761.09
208476.86
194909.87
182031.97
169816.12
158236.45
147268.11
136887.29
127071.11
117797.59
109045.59
100794.71
93025.249
85718.159
78854.952
72417.667
66388.802
60751.277
55488.384
50583.752
46021.315
41785.287
37860.144
34230.613
30881.663
27798.511
24966.627
22371.738
19999.853
17837.277
15870.762
683997.2
646367.04
610483.06
576286.45
543717.37
512714.49
483215.86
455159.72
428485.12
403132.35
379043.34
356161.87
334433.77
313807.38
294232.1
275660.76
258047.99
241350.6
225527.49
210539.65
196350
182923.32
170226.17
158226.78
146894.92
136201.84
126120.09
116623.52
107687.09
99286.812
91399.667
84003.492
77076.915
70599.275
64550.55
58911.302
53662.614
48786.05
44263.614
40077.715
36211.152
32647.092
29369.064
26360.962
23607.039
21091.921
18800.618
16718.655
763794.48
719678.45
677835.62
638165.7
600568.53
564945.55
531200.68
499240.88
468976.63
440322.1
413195.36
387518.38
363217.09
340221.29
318464.94
297884.46
278421.05
260018.85
242625.2
226190.45
210667.83
196013.23
182185.08
169144.12
156853.28
145277.5
134383.57
124139.98
114516.82
105485.59
97019.092
89091.326
81677.368
74753.268
68295.963
62283.19
56693.413
51505.763
46699.976
42256.356
38155.735
34379.448
30909.317
27727.642
24817.193
22161.209
19743.402
17548.067
1018101.9
957474.28
900214.03
846163.64
795137.47
746976.22
701526.16
658639.1
618172.9
579991.93
543967.29
509976.86
477905.28
447643.76
419089.94
392147.61
366726.49
342741.89
320114.85
298770.19
278638.77
259655.41
241759.06
224892.55
209002.31
194038.08
179952.7
166701.85
154243.85
142539.42
131551.5
121245.04
111586.87
102545.47
94090.865
86194.471
78828.958
71968.142
65586.874
59660.947
54167.014
49082.514
44385.617
40055.169
36070.659
32412.192
29060.47
25996.781
23202.992
20661.52
18355.436
1128724.2
1058462.8
992440.57
930407.22
872114.84
817334.66
765851.33
717461.53
671973.61
629207.34
588993.61
551174.06
515600.57
482134.86
450647.88
421019.33
393137.12
366896.85
342201.33
318960.43
297089.06
276509.2
257147.73
238936.51
221811.96
205714.77
190589.49
176384.27
163050.52
150542.68
138817.93
127835.98
117558.8
107950.46
98976.927
90605.87
82806.525
75549.537
68806.834
62551.509
56757.717
51400.586
46456.141
41901.242
37713.53
33871.393
30353.943
27141.001
24213.083
21551.342
19137.622
1241751.5
1161366.2
1086169.5
1015813.7
949970.66
888335.17
830623.17
776569.9
725928.8
678470.43
633981.62
592264.42
553135.25
516423.88
481972.59
449635.26
419276.57
390771.15
364002.93
338864.33
315256.05
293084.88
272265.52
252718.39
234369.58
217150.33
200996.67
185848.96
171651.55
158352.44
145902.9
134257.29
123372.66
113208.6
103726.94
94891.584
86668.299
79024.542
71929.304
65352.972
59267.204
53644.821
48459.712
43686.759
39301.77
35281.43
31603.274
28245.677
25187.85
22409.722
19891.912
1356195.5
1265298.6
1180609.5
1101673.6
1028070.1
959409.89
895333.77
835509.97
779632.26
727418.02
678606.64
632957.79
590249.99
550279.11
512857.08
477810.56
444979.78
414217.45
385387.77
358365.41
333034.71
309289.18
287029.32
266164.19
246609.26
228286.13
211122.1
195049.61
180005.83
165932.19
152774.04
140480.29
129003.07
118297.42
108321.06
99034.097
90398.84
82379.559
74942.323
68054.829
61686.258
55807.144
50389.266
45405.555
40830.007
36637.629
32804.398
29307.264
26124.204
23234.011
20616.029
1471073.6
1369385.8
1274983.1
1187294.5
1105797.1
1030010.8
959495.57
893847.95
832698.04
775706.72
722563.13
672982.29
626702.9
583485.38
543109.94
505374.95
470095.34
437101.13
406236.19
377356.94
350331.34
325038.2
301364.63
279207.8
258472.36
239070.18
220919.71
203945.42
188077.23
173250
159403.13
146480.08
134428.04
123197.55
112742.22
103018.4
93984.954
85603.008
77835.739
70648.191
64007.105
57880.769
52238.889
47052.481
42293.772
37936.121
33953.967
30322.84
27019.6
24022.076
21308.136
1585429.9
1472782.7
1368543.1
1272015.1
1182566.3
1099619.8
1022650
951177.82
884766.6
823018.09
765569.06
712088.1
662272.71
615846.64
572557.51
532174.65
494487.03
459301.56
426441.37
395744.38
367061.91
340257.46
315206.01
291791.37
269907.78
249457.34
230349.67
212501.25
195834.78
180278.6
165766.15
152235.52
139629
127892.69
116976.13
106831.97
97415.681
88685.305
80601.183
73125.76
66223.391
59860.169
54003.782
48623.383
43689.476
39173.819
35049.342
31290.097
1698355.4
1574689.8
1460586.1
1355216.4
1257832.7
1167756.9
1084374.2
1007127
935509.62
869062.71
807369.24
750050.2
696760.94
647187.87
601045.44
558073.5
518034.81
480712.9
445910.04
413445.52
383153.99
354884.04
328497.28
303865.46
280872.04
259409.39
239378.39
220687.62
203252.62
186995.29
171843.23
157729.22
144590.76
132369.56
121011.2
110464.69
100682.22
91618.797
83232.008
75481.771
68330.122
61741.027
55680.218
50115.048
45014.361
40348.379
36088.584
1809003.1
1674366.7
1550464.4
1436331.2
1331099.5
1233986.7
1144286.5
1061360.9
984633.47
913582.95
847737.6
786670.17
729993.46
677356.21
628439.56
582953.76
540635.35
501244.47
464562.64
430390.59
398546.43
368863.95
341191.09
315389.01
291329.21
268894.93
247978.45
228480.57
210309.86
193381.88
177618.53
162947.42
149301.34
136617.78
124838.42
113908.78
103777.84
94397.673
85723.207
77711.914
70323.595
63520.167
57265.48
51525.157
46266.453
41458.14
37070.472
1916601.5
1771142.3
1637593.6
1514850.4
1401923
1297922.5
1202049.6
1113585.1
1031881.4
956354.71
886478.47
821777.19
761821.1
706221.44
654626.17
606716.21
562202.05
520820.77
482333.33
446522.22
413189.24
382153.66
353250.43
326329.1
301250.69
277889.15
256128.32
235861.48
216990.38
199424.45
183080.04
167879.75
153751.85
140629.69
128451.24
117158.63
106697.74
97017.849
88071.304
79813.24
72201.314
65195.481
58757.789
52852.213
47444.495
42502.025
37993.846
2020462.7
1864421.7
1721458.9
1590328
1469916.7
1359229
1257372.8
1163547.5
1077034.5
997188.05
923427.06
855228.24
792119.79
733675.93
679511.96
629279.94
582664.83
539381.09
499169.6
461795
427043.21
394719.34
364645.72
336660.19
310614.92
286373.51
263812.14
242816.78
223282.6
205113.12
188219.36
172519.1
157936.25
144400.22
131845.4
120210.67
109438.95
99476.844
90274.247
81784.058
73961.894
66765.838
60156.233
54095.482
48547.893
43479.545
38858.294
2119988.9
1953690.8
1801617.8
1662383.2
1534752.4
1417623.7
1310012.4
1211038.1
1119911.9
1035927.1
958449.09
886907.69
820790
759634.07
703023.33
650581.75
601969.46
556878.97
515031.68
476174.94
440079.35
406536.32
375356
346365.35
319406.86
294335.37
271019.28
249337.56
229179.1
210441.75
193031.43
176861.33
161851.18
147926.65
135018.72
123063.17
112000.13
101773.63
92331.272
83623.818
75604.955
68231.001
61460.68
55254.917
49576.663
44390.756
39663.913
2214675
2038517.9
1877701.3
1730700.3
1596160.5
1472875.9
1359771.6
1255888.5
1160369.9
1072449.1
991439.84
916726.33
847755.81
784031.32
725105.52
670575.27
620076.77
573281.38
529891.81
489638.81
452278.25
417588.47
385367.94
355433.24
327617.6
301767.5
277743.95
255419.25
234676.32
215407.62
197514.23
180904.98
165495.67
151208.39
137970.91
125716.09
114381.41
103908.52
94242.782
85332.998
77131.028
69591.527
62671.701
56331.085
50531.359
45236.192
40411.224
2304108.7
2118553.5
1949413
1795028.6
1653928.5
1524805.8
1406498.1
1297970.4
1198300
1106663
1022322.8
944619.99
872963.57
806822.99
745721.45
689229.85
636961.56
588567.77
543733.34
502173.24
463629.34
427867.52
394675.22
363859.14
335243.31
308667.62
283984.76
261061.19
239774.17
220011.09
201668.48
184651.05
168870.89
154246.76
140703.38
128170.9
116584.3
105882.95
96010.211
86912.986
78541.44
70848.677
63790.484
57325.098
51413.013
46016.807
41101.109
3703402.9
3385166.7
3097691.8
2837587.2
2601880.3
2387970
2193527.1
2016526.7
1855178.7
1707898.5
1573282
1450082.8
1337193.3
1233627.7
1138507.2
1051047.6
970547.78
896380.3
827982.73
764850.29
706529.31
652611.51
602728.99
556549.76
513773.89
474130.03
437372.34
403277.83
371643.95
342286.45
315037.86
289744.26
266266.2
244475.66
224255.29
205497.34
188102.68
171979.95
157044.77
143219.05
130430.37
118611.41
107699.44
97635.898
88365.964
79838.218
72004.325
64818.753
58238.537
52223.068
46733.914
41734.767
3843750.2
3509571.8
3208152.9
2935826.4
2689385.2
2466019.8
2263243.7
2078882.4
1911019.8
1757963.9
1618218.1
1490456.2
1373501.7
1266309.1
1167947.7
1077588.2
994490.23
917991.94
847500.92
782486.07
722470.59
667025.91
615766.2
568343.7
524444.51
483784.9
446108.11
411181.39
378793.55
348752.63
320884.29
295028.45
271040.17
248786.52
228145.73
209006.09
191264.91
174827.61
159606.91
145522.11
132498.43
120466.4
109361.35
99122.956
89694.796
81023.99
73060.871
65758.694
59073.386
52963.321
47389.135
42313.66
3973935.8
3624859.2
3310424.4
3026701.7
2770261.1
2538100.5
2327578.5
2136381.6
1962475
1804065.6
1659569.3
1527585.4
1406872.4
1296328.7
1194975.3
1101940.4
1016447.1
937801.45
865382.96
798636.02
737062.32
680214.36
627689.68
579125.83
534195.95
492604.86
454085.61
418396.47
385318.2
354651.73
326216.38
299846.34
275391.65
252714.82
231690.01
212201.86
194144.37
177420.04
161938.9
147617.87
134379.96
122153.76
110872.81
100475.16
90902.924
82101.885
74021.155
66612.878
59831.964
53635.859
47984.347
42839.469
4093659.1
3730791.3
3404320.1
3110069.1
2844399.2
2604129.6
2386471.6
2188982.4
2009516.9
1846187.3
1697328.7
1561470.3
1437310.7
1323696.3
1219602.8
1124119.5
1036435.4
955826.84
881647.5
813319.08
750323.41
692195.55
638517.69
588913.88
543045.31
500606.27
461320.45
424937.86
391231.9
359996.94
331046.5
304209.55
279331.47
256270.64
234897.48
215093.29
196749.08
179764.62
164047.55
149512.54
136080.67
123678.7
112238.56
101696.82
91994.266
83075.45
74888.381
67384.192
60516.868
54243.012
48521.634
43314.059
4202759.7
3827251.7
3489758.5
3185875.1
2911768.1
2664092.4
2439921.4
2236693.5
2052161.8
1884351.4
1731522.5
1592140.3
1464847.9
1348443.9
1241862.8
1144157.9
1054487
972099.28
896324.73
826564.3
762281.67
702995.97
648275.38
597731.6
551014.97
507810.15
467832.34
430823.98
396551.81
364804.24
335389.07
308131.81
282872.35
259465.71
237778.95
217690.33
199088.15
181869.73
165940.48
151213.13
137606.92
125047.01
113463.86
102792.71
92973.125
83948.568
75666.045
68075.775
61130.913
54787.299
49003.245
43739.433
4301203.5
3914232.4
3566751.6
3254146.3
2972405.5
2718033.8
2487978.1
2279568.5
2090465.1
1918613.6
1762206.3
1619649.9
1489537
1370623
1261804.6
1162102.7
1070646.7
986661.19
909454.67
838409.34
772972.45
712648.7
656993.64
605607.82
558131.76
514241.43
473644.37
436076.25
401297.74
369091.9
339261.78
311628.63
286028.53
262313.12
240346.42
220003.98
201171.63
183744.51
167626.06
152727.2
138965.6
126264.94
114554.36
103767.92
93844.101
84725.379
76357.865
68690.963
61677.082
55271.383
49431.554
44117.703
4389069
3991821.6
3635393.6
3314980
3026409.5
2766051
2530737
2317699.6
2124515.6
1949059
1789461
1644075.6
1511450.4
1390301.4
1279491.9
1178013.5
1084970.1
999564.42
921085.59
848899.04
782437.34
721192.3
664708.16
612575.52
564426.12
519928.19
478782.45
440718.47
405491.58
372880.05
342682.67
314716.92
288815.5
264827.02
242612.81
222045.99
203010.24
185398.72
169113.13
154062.81
140163.99
127339.06
115516
104627.82
94612.019
85410.217
76967.727
69233.232
62158.482
55698.034
49809.025
44451.055
4466532.1
4060190.9
3695849.8
3368534.4
3073930.5
2808286.1
2568331.6
2351212.2
2154430.5
1975797
1813388.5
1665512.3
1530675.9
1407560.8
1295000.3
1191960.1
1097521.9
1010868.6
931272.44
858084.06
790723.01
728669.72
671458.44
618671
569931.4
524901.05
483274.63
444776.37
409156.87
376190.21
345671.42
317414.67
291249.65
267022.36
244591.74
223828.77
204615.23
186842.58
170410.96
155228.33
141209.66
128276.21
116354.95
105377.94
95281.855
86007.544
77499.627
69706.154
62578.297
56070.088
50138.179
44741.727
4533852.3
4119582.5
3748345.9
3415019.2
3115162.6
2844918.6
2600927.7
2380259.3
2180350.8
1998957.4
1834108.2
1684069.7
1547314.5
1422493.8
1308414.8
1204020.7
1108373.6
1020639.4
940075.51
866019.67
797880.09
735127.33
677286.94
623933.11
574683.13
529192.48
487150.59
448277.06
412318.38
379044.96
348248.61
319740.61
293348.06
268914.66
246297.29
225365.1