/*--------------------------------*- C++ -*----------------------------------*\
| =========                 |                                                 |
| \\      /  F ield         | OpenFOAM: The Open Source CFD Toolbox           |
|  \\    /   O peration     | Version:  2312                                  |
|   \\  /    A nd           | Website:  www.openfoam.com                      |
|    \\/     M anipulation  |                                                 |
\*---------------------------------------------------------------------------*/
FoamFile
{
    version     2.0;
    format      ascii;
    arch        "LSB;label=32;scalar=64";
    class       volScalarField;
    location    "0.09";
    object      T;
}
// * * * * * * * * * * * * * * * * * * * * * * * * * * * * * * * * * * * * * //

dimensions      [0 0 0 1 0 0 0];

internalField   nonuniform List<scalar> 
3272
(
397.90701
399.21412
400.47497
401.68873
402.85507
403.97373
405.04454
406.06738
407.04215
407.96879
408.8473
409.67768
410.45998
411.19426
411.88061
412.51915
413.11002
413.65336
414.14936
414.59822
415.00015
415.35539
415.6642
415.92687
416.13961
416.30751
416.43185
416.51243
416.54832
416.54004
416.4886
416.39308
416.2565
416.07748
415.85393
415.58889
415.28289
414.93651
414.55036
414.12509
413.66137
413.1599
412.62143
412.04673
411.43661
410.79192
410.11353
409.40237
408.65939
407.8856
407.08205
406.24989
405.39036
398.61554
399.92175
401.18106
402.39276
403.55655
404.67223
405.73964
406.7587
407.72932
408.65149
409.52521
410.3505
411.12744
411.8561
412.53659
413.16905
413.75363
414.2905
414.77985
415.22188
415.61683
415.96493
416.26648
416.52177
416.72713
416.88757
417.00465
417.07751
417.10564
417.08969
417.03051
416.927
416.78269
416.59512
416.3636
416.09054
415.7765
415.42206
415.02783
414.59446
414.12264
413.61307
413.06649
412.48369
411.86547
411.21268
410.5262
409.80694
409.05585
408.2739
407.46209
406.62151
405.75374
399.95187
401.25495
402.51021
403.71699
404.87502
405.98416
407.04431
408.0554
409.01743
409.93041
410.79437
411.60939
412.37557
413.09303
413.76192
414.38239
414.95464
415.47885
415.95524
416.38404
416.76549
417.09985
417.3874
417.62848
417.81976
417.96607
418.06916
418.1274
418.14083
418.11038
418.03641
417.91807
417.75917
417.55574
417.30923
417.02115
416.69206
416.32256
415.91327
415.46484
414.97795
414.45332
413.89171
413.29388
412.66067
411.99291
411.2915
410.55733
409.79137
408.99458
408.16798
407.31268
406.43031
401.84604
403.14306
404.39103
405.58933
406.73777
407.83627
408.8848
409.88336
410.83201
411.73081
412.57987
413.37932
414.12931
414.83001
415.48161
416.08433
416.63838
417.144
417.60145
418.01099
418.37287
418.68734
418.95463
419.17495
419.34598
419.47252
419.55521
419.59262
419.58527
419.53413
419.43837
419.30067
419.12033
418.89477
418.62712
418.3179
417.96769
417.57708
417.1467
416.6772
416.16928
415.62366
415.0411
414.42237
413.76831
413.07977
412.35763
411.60281
410.81627
409.99898
409.15197
408.27639
407.37387
404.23524
405.52247
406.75915
407.94474
409.07914
410.16236
411.19446
412.17552
413.10567
413.98507
414.8139
415.59234
416.32063
416.99899
417.62769
418.20698
418.73714
419.21847
419.65127
420.03585
420.37252
420.66158
420.90321
421.095
421.24092
421.34271
421.3992
421.41014
421.37684
421.29947
421.17714
421.01373
420.80533
420.55334
420.25925
419.92363
419.54705
419.13012
418.67349
418.1778
417.64377
417.0721
416.46358
415.81898
415.13914
414.42491
413.67719
412.8969
412.085
411.24248
410.37038
409.46984
408.54253
407.06255
408.33549
409.55618
410.72418
411.83953
412.90232
413.91274
414.87096
415.77721
416.63174
417.43482
418.18672
418.88775
419.53822
420.13844
420.68876
421.1895
421.64103
422.0437
422.3979
422.70406
422.96274
423.17038
423.33151
423.4475
423.51842
423.54348
423.52341
423.45907
423.34956
423.198
423.00218
422.76158
422.47844
422.1533
421.7867
421.37926
420.93157
420.44428
419.91805
419.3536
418.75164
418.11295
417.43832
416.72858
415.98459
415.20725
414.3975
413.55629
412.68462
411.78354
410.85421
409.89831
410.27582
411.52922
412.72855
413.87352
414.96427
416.00106
416.98417
417.91392
418.79062
419.61464
420.38635
421.10611
421.77433
422.39138
422.95767
423.4736
423.93958
424.35601
424.72329
425.04183
425.312
425.53411
425.70568
425.83127
425.91233
425.94723
425.93649
425.881
425.78004
425.63651
425.44946
425.21642
424.94049
424.62218
424.26201
423.86055
423.41841
422.93619
422.41453
421.85412
421.25566
420.61987
419.94753
419.23943
418.4964
417.71931
416.90905
416.06657
415.19282
414.28882
413.35561
412.39438
411.40681
413.82671
415.0547
416.22673
417.34271
418.40292
419.40777
420.35767
421.25306
422.09441
422.88218
423.61683
424.29887
424.92876
425.50698
426.03402
426.51035
426.93645
427.31278
427.6398
427.91796
428.1477
428.3267
428.4589
428.54598
428.58683
428.58169
428.53158
428.43622
428.29551
428.1135
427.88506
427.61305
427.29832
426.9414
426.54285
426.10326
425.6232
425.10331
424.54422
423.94661
423.31119
422.63868
421.92984
421.18549
420.40643
419.59355
418.74773
417.86991
416.96105
416.02217
415.05433
414.05873
413.03713
417.67008
418.86621
420.00456
421.0852
422.10861
423.07531
423.9859
424.84095
425.64106
426.3868
427.07877
427.71755
428.30373
428.83788
429.32056
429.75232
430.1337
430.46524
430.74745
430.98083
431.16301
431.29812
431.38764
431.43078
431.42763
431.37929
431.28562
431.1462
430.96504
430.73769
430.4665
430.15237
429.79583
429.39742
428.95769
428.47723
427.95662
427.39648
426.79746
426.16022
425.48546
424.77392
424.02634
423.24353
422.42631
421.57553
420.69209
419.77691
418.83095
417.85522
416.85078
415.81895
414.76218
421.76344
422.92087
424.01881
425.0575
426.03761
426.95985
427.82495
428.63364
429.38663
430.08465
430.7284
431.31857
431.85586
432.34091
432.77437
433.15688
433.48903
433.77142
434.00461
434.18623
434.32049
434.40885
434.45072
434.44618
434.39632
434.30101
434.15974
433.97667
433.74721
433.47391
433.15759
432.79875
432.39792
431.95563
431.47243
430.94889
430.3856
429.78317
429.14224
428.46346
427.74753
426.99517
426.20713
425.38419
424.52717
423.63692
422.71433
421.76031
420.7758
419.76179
418.71928
426.06662
427.17825
428.22884
429.21885
430.14912
431.02054
431.834
432.59037
433.29052
433.93529
434.52549
435.06193
435.54539
435.97662
436.35634
436.68524
436.964
437.19326
437.37067
437.50051
437.58422
437.62131
437.61197
437.55732
437.45747
437.31131
437.12345
436.88896
436.61081
436.28968
435.92605
435.52042
435.07331
434.58524
434.05677
433.48843
432.88082
432.23453
431.55018
430.82843
430.06996
429.27546
428.4457
427.58143
426.68346
425.75264
424.78984
423.79598
422.77199
421.71894
420.63836
430.54162
431.60022
432.59646
433.53104
434.40497
435.21932
435.97514
436.67345
437.31525
437.90148
438.4331
438.91099
439.33603
439.70906
440.03087
440.30223
440.52384
440.69347
440.8154
440.89108
440.92
440.90259
440.83979
440.73126
440.57935
440.38323
440.1408
439.85519
439.52675
439.15595
438.74328
438.28923
437.79431
437.25903
436.6839
436.06949
435.41635
434.72506
433.99624
433.23051
432.42855
431.59104
430.71872
429.81233
428.87268
427.9006
426.89694
425.86263
424.7986
423.70594
422.58622
435.15243
436.15079
437.08579
437.95832
438.76959
439.52085
440.21329
440.84807
441.42631
441.94908
442.41741
442.83231
443.19472
443.50559
443.76576
443.97604
444.13437
444.24495
444.30926
444.3267
444.29815
444.22435
444.10462
443.94226
443.73525
443.48285
443.18731
442.84919
442.46896
442.04711
441.58411
441.08044
440.53658
439.95304
439.33033
438.66896
437.96948
437.23246
436.45848
435.64817
434.80216
433.92112
433.00578
432.05686
431.07515
430.06146
429.01665
427.94161
426.83729
425.70475
424.54554
439.86504
440.79614
441.6632
442.46733
443.20994
443.8924
444.51606
445.08222
445.5921
446.04688
446.44767
446.79554
447.09156
447.33675
447.53202
447.67551
447.7713
447.82095
447.82373
447.78076
447.69303
447.55913
447.38355
447.16255
446.8975
446.58968
446.23959
445.84775
445.41465
444.94074
444.4265
443.87239
443.27887
442.64642
441.97553
441.2667
440.52044
439.7373
438.91785
438.06268
437.1724
436.24766
435.28917
434.29762
433.2738
432.21848
431.13252
430.01678
428.87221
427.69985
426.50122
444.64744
445.50455
446.29734
447.02711
447.69542
448.3038
448.85375
449.34664
449.78383
450.16656
450.496
450.77326
450.99961
451.17612
451.30134
451.37888
451.41031
451.39531
451.33506
451.23038
451.0792
450.88768
450.65
450.36963
450.04703
449.68267
449.27706
448.83068
448.34397
447.81738
447.25136
446.64635
446.00278
445.32112
444.60181
443.84533
443.05218
442.22286
441.35792
440.45792
439.52345
438.55515
437.55366
436.51968
435.45397
434.35727
433.23043
432.07429
430.88978
429.67792
428.4402
449.46968
450.24652
450.95915
451.60905
452.19793
452.72747
453.19924
453.61475
453.97541
454.28259
454.53742
454.7408
454.89478
454.99805
455.05456
455.06395
455.02815
454.94729
454.82114
454.65316
454.44052
454.18427
453.88596
453.5461
453.16516
452.74361
452.28191
451.7805
451.23981
450.66026
450.04226
449.38622
448.69254
447.96166
447.194
446.39
445.55012
444.67485
443.76469
442.82017
441.84186
440.83036
439.78629
438.71033
437.60318
436.4656
435.29838
434.10236
432.87844
431.62762
430.35139
454.30392
454.99474
455.62187
456.18696
456.69184
457.13831
457.52803
457.86258
458.14342
458.37214
458.55001
458.6758
458.7541
458.78568
458.77098
458.71006
458.60654
458.45613
458.26625
458.03089
457.75358
457.43488
457.07536
456.67555
456.2359
455.75686
455.23887
454.68232
454.08761
453.45512
452.78524
452.07833
451.33478
450.55497
449.73929
448.88815
448.00198
447.08122
446.12634
445.13785
444.11627
443.06217
441.97616
440.85886
439.71096
438.53319
437.3263
436.09111
434.82849
433.53944
432.22542
459.12451
459.72416
460.26107
460.73701
461.15394
461.51373
461.81816
462.06879
462.26684
462.4147
462.51121
462.56034
462.5628
462.51977
462.43281
462.3002
462.12686
461.90906
461.64909
461.34801
461.00643
460.62491
460.20396
459.74407
459.24568
458.7092
458.13503
457.52353
456.87506
456.18996
455.46858
454.71125
453.9183
453.09009
452.22697
451.32931
450.39749
449.43193
448.43305
447.40133
446.33726
445.24137
444.11422
442.95642
441.76863
440.55153
439.30584
438.03237
436.73192
435.40546
434.05448
463.908
464.41202
464.85465
465.23777
465.56343
465.83355
466.05011
466.2148
466.32683
466.39098
466.40757
466.37816
466.30342
466.18499
466.02409
465.821
465.57407
465.28672
464.95925
464.59228
464.18637
463.74204
463.25977
462.74001
462.18316
461.58959
460.95965
460.29367
459.59197
458.85484
458.08259
457.27551
456.43388
455.55803
454.64825
453.70488
452.72826
451.71877
450.6768
449.60277
448.49714
447.36041
446.1931
444.9958
443.76911
442.51369
441.23024
439.9195
438.58227
437.21938
468.63322
469.03786
469.38286
469.67013
469.9019
470.07982
470.2065
470.28155
470.30866
470.28952
470.22365
470.11575
469.96132
469.76876
469.53156
469.25417
468.93675
468.58029
468.18543
467.75276
467.28279
466.77602
466.23287
465.65374
465.03899
464.38896
463.70393
462.9842
462.23004
461.44169
460.61942
459.76346
458.87408
457.95151
456.99605
456.00796
454.98756
453.93517
452.85114
451.73587
450.58976
449.41328
448.20692
446.97122
445.70675
444.41415
443.09408
441.74727
440.37454
438.97708
473.28124
473.58346
473.82823
474.01724
474.15346
474.23667
474.27128
474.25847
474.19857
474.09581
473.9468
473.75909
473.52684
473.25492
472.94342
472.59334
472.20534
471.78013
471.31834
470.82049
470.28707
469.71851
469.1152
468.47748
467.80567
467.10003
466.36083
465.5883
464.78265
463.9441
463.07284
462.16907
461.233
460.26484
459.26481
458.23314
457.1701
456.07598
454.95107
453.79574
452.61035
451.39532
450.15111
448.87823
447.5772
446.24863
444.89317
443.5115
442.10447
440.67333
477.83539
478.03277
478.17573
478.26395
478.30232
478.29221
478.23445
478.13295
477.98537
477.79828
477.56716
477.29611
476.98583
476.63753
476.25192
475.82977
475.37175
474.87847
474.35049
473.78829
473.1923
472.56289
471.9004
471.20511
470.47728
469.71714
468.92488
468.10068
467.24472
466.35714
465.43809
464.48773
463.50621
462.49368
461.45033
460.37634
459.27193
458.13734
456.97284
455.77872
454.55533
453.30305
452.02228
450.7135
449.37721
448.01396
446.62438
445.20911
443.76895
442.30515
482.28137
482.37142
482.41022
482.39928
482.33964
482.23546
482.08505
481.89442
481.65996
481.38535
481.07188
480.7207
480.33273
479.9089
479.44998
478.95665
478.42953
477.86917
477.27605
476.65059
475.99316
475.30408
474.58361
473.83198
473.04939
472.23601
471.39199
470.51744
469.61247
468.67719
467.7117
466.71608
465.69045
464.63491
463.54959
462.43464
461.29022
460.11653
458.91378
457.68224
456.42221
455.13402
453.81804
452.47471
451.1045
449.70792
448.28556
446.83802
445.36598
486.60468
486.58919
486.52375
486.41302
486.25537
486.05698
485.81448
485.5318
485.21045
484.85166
484.45656
484.0262
483.56147
483.0632
482.53209
481.96876
481.37377
480.74759
480.09063
479.40325
478.68574
477.93836
477.16131
476.35476
475.51884
474.65366
473.75931
472.83584
471.88333
470.9018
469.8913
468.85188
467.78359
466.68648
465.56064
464.40615
463.22315
462.01177
460.77221
459.50466
458.20939
456.88669
455.53691
454.16042
452.75767
451.32914
449.87538
448.39703
446.89501
490.79765
490.67636
490.50703
490.29665
490.04136
489.74594
489.41186
489.04056
488.63337
488.19146
487.7159
487.20761
486.66742
486.09607
485.49418
484.86231
484.20093
483.51043
482.79116
482.04339
481.26736
480.46324
479.63118
478.77127
477.88359
476.96818
476.02506
475.05425
474.05573
473.0295
471.97554
470.89385
469.78441
468.64725
467.48239
466.28986
465.06976
463.82218
462.54725
461.24514
459.91608
458.56031
457.17814
455.76992
454.33604
452.87696
451.39319
449.88537
448.35449
494.85211
494.62527
494.3524
494.03949
493.68769
493.29882
492.87439
492.41573
491.92409
491.40052
490.84598
490.26133
489.64728
489.00449
488.3335
487.63476
486.90868
486.15558
485.3757
484.56927
483.73643
482.87728
481.99191
481.08034
480.14259
479.17862
478.18841
477.1719
476.12902
475.05971
473.9639
472.84153
471.69254
470.51688
469.31454
468.08552
466.82983
465.54755
464.23875
462.90357
461.54218
460.15479
458.74168
457.30314
455.83955
454.35132
452.83892
451.30293
449.74433
498.76077
498.42533
498.05071
497.63908
497.19208
496.71129
496.1981
495.65377
495.07938
494.47591
493.84421
493.18502
492.49898
491.78662
491.04839
490.28468
489.49579
488.68196
487.84336
486.98011
486.09231
485.17998
484.24312
483.28169
482.29564
481.28489
480.24932
479.18883
478.1033
476.99259
475.85659
474.69518
473.50825
472.2957
471.05747
469.79351
468.50379
467.18832
465.84716
464.4804
463.08815
461.67061
460.22799
458.76058
457.26869
455.75272
454.21308
452.65025
502.5151
502.07518
501.60012
501.0916
500.55121
499.98038
499.38039
498.75236
498.09725
497.41593
496.70913
495.97747
495.2215
494.44164
493.63825
492.81162
491.96195
491.08941
490.19408
489.27601
488.3352
487.37161
486.38517
485.37577
484.34328
483.28757
482.20845
481.10576
479.97932
478.82894
477.65444
476.45566
475.23244
473.98462
472.7121
471.41477
470.09256
468.74545
467.37344
465.97658
464.55496
463.10871
461.63803
460.14316
458.62439
457.08208
455.51666
453.92876
506.1136
505.57136
504.99786
504.39459
503.763
503.10436
502.41982
501.71035
500.9768
500.21991
499.44028
498.63842
497.81477
496.96965
496.10331
495.21594
494.30767
493.37855
492.4286
491.45777
490.466
489.45316
488.41911
487.36368
486.28667
485.18786
484.06704
482.92396
481.75838
480.57008
479.35881
478.12434
476.86648
475.58503
474.27981
472.95069
471.59756
470.22033
468.81898
467.3935
465.94396
464.47045
462.97313
461.45221
459.90795
458.34069
456.75083
455.13906
509.55404
508.91189
508.24238
507.54683
506.82652
506.08258
505.31599
504.52759
503.7181
502.88811
502.0381
501.16848
500.27954
499.37152
498.44457
497.49877
496.53414
495.55067
494.54828
493.52684
492.48621
491.42618
490.34655
489.24706
488.12746
486.98747
485.82681
484.64517
483.44225
482.21778
480.97146
479.703
478.41217
477.0987
475.76239
474.40305
473.02052
471.6147
470.18549
468.73286
467.25684
465.75749
464.23493
462.68934
461.12095
459.53008
457.9171
456.28267
512.83529
512.09597
511.3332
510.54812
509.74185
508.91534
508.06944
507.20481
506.32204
505.42158
504.5038
503.56897
502.61727
501.64882
500.66367
499.66182
498.64317
497.60764
496.55504
495.48518
494.39782
493.2927
492.16953
491.028
489.86778
488.68853
487.48989
486.27153
485.03307
483.77419
482.49453
481.19377
479.8716
478.52774
477.16192
475.77392
474.36352
472.93059
471.47499
469.99666
468.49558
466.97178
465.42535
463.85643
462.26524
460.65205
459.01723
457.36137
515.95729
515.12382
514.27081
513.39921
512.50995
511.60382
510.68149
509.74349
508.79025
507.82209
506.83924
505.84184
504.82998
503.80366
502.76281
501.70733
500.63705
499.55177
498.45124
497.33517
496.20326
495.05517
493.89053
492.70896
491.51008
490.29348
489.05876
487.80549
486.53328
485.24173
483.93044
482.59905
481.24718
479.87452
478.48075
477.0656
475.62884
474.17026
472.68971
471.18709
469.66233
468.11544
466.54648
464.95555
463.34285
461.70862
460.0532
458.37714
518.92093
517.9966
517.05659
516.10165
515.13254
514.14988
513.15417
512.14577
511.12497
510.09196
509.04682
507.9896
506.92023
505.83863
504.74461
503.63798
502.51848
501.3858
500.23962
499.07958
497.90529
496.71633
495.51228
494.2927
493.05711
491.80508
490.53612
489.24977
487.94557
486.62308
485.28184
483.92145
482.54149
481.14159
479.7214
478.28061
476.81894
475.33616
473.83207
472.30652
470.75944
469.19079
467.60059
465.98893
464.35597
462.70193
461.02711
459.33204
521.72793
520.71622
519.69261
518.65769
517.61202
516.55603
515.49006
514.41433
513.32897
512.23401
511.12944
510.01515
508.89099
507.75672
506.6121
505.4568
504.29049
503.11277
501.92324
500.72145
499.50694
498.27922
497.03781
495.78219
494.51185
493.22625
491.9249
490.60725
489.27281
487.92106
486.55153
485.16375
483.75727
482.33167
480.88656
479.42159
477.93645
476.43085
474.90458
473.35746
471.78936
470.20023
468.59005
466.9589
465.30689
463.63423
461.94119
460.22826
524.38072
523.28527
522.18162
521.07018
519.95131
518.82528
517.69227
516.55232
515.40543
514.25149
513.09036
511.92179
510.74553
509.56125
508.36857
507.16709
505.95638
504.73597
503.50535
502.26402
501.01144
499.74705
498.4703
497.18061
495.87741
494.56012
493.22817
491.88098
490.518
489.13867
487.74246
486.32886
484.89739
483.44758
481.97901
480.49128
478.98405
477.457
475.90988
474.34248
472.75463
471.14626
469.51733
467.86787
466.19798
464.50785
462.79772
461.06804
526.88235
525.70693
524.52687
523.34243
522.15381
520.96109
519.76427
518.56327
517.3579
516.14796
514.93313
513.71309
512.48745
511.25576
510.01758
508.77239
507.51968
506.25888
504.98943
503.71074
502.4222
501.12319
499.81308
498.49126
497.15708
495.80991
494.44912
493.07411
491.68424
490.27895
488.85763
487.41976
485.96479
484.49222
483.0016
481.4925
479.96452
478.41733
476.85064
475.26421
473.65784
472.03143
470.38491
468.71829
467.03166
465.32516
463.59903
461.85367
529.23643
527.98485
526.73206
525.47821
524.2233
522.96726
521.7099
520.45099
519.19022
517.92722
516.66158
515.39284
514.1205
512.84402
511.56284
510.27638
508.98402
507.68513
506.37906
505.06515
503.74272
502.4111
501.06959
499.71751
498.35418
496.9789
495.59101
494.18983
492.77471
491.34502
489.90013
488.43946
486.96244
485.46852
483.95722
482.42807
480.88066
479.3146
477.72957
476.12531
474.50161
472.85831
471.19533
469.51266
467.81035
466.08855
464.34746
462.58746
535.43349
534.10238
532.77342
531.44713
530.12308
528.80125
527.48158
526.16387
524.84786
523.53323
522.21956
520.90643
519.59332
518.2797
516.965
515.64861
514.3299
513.00822
511.68288
510.35319
509.01844
507.67791
506.33088
504.97659
503.61431
502.2433
500.86281
499.4721
498.07045
496.65712
495.2314
493.7926
492.34003
490.87305
489.39102
487.89334
486.37944
484.84878
483.30087
481.73526
480.15155
478.54938
476.92847
475.28855
473.62948
471.95112
470.25345
468.5365
466.8004
465.04536
463.2717
537.73244
536.32169
534.91707
533.51859
532.12592
530.73878
529.35688
527.97983
526.60721
525.23853
523.87322
522.51073
521.15041
519.79161
518.43365
517.07583
515.7174
514.35763
512.99576
511.63101
510.26259
508.88972
507.5116
506.12743
504.7364
503.33773
501.93061
500.51426
499.08789
497.65074
496.20205
494.74108
493.26712
491.77948
490.27748
488.76048
487.2279
485.67915
484.11372
482.53113
480.93094
479.31277
477.67631
476.02128
474.34748
472.65478
470.94312
469.21252
467.4631
465.69505
463.90869
539.88427
538.39816
536.92197
535.45538
533.99794
532.5492
531.10863
529.67569
528.24976
526.83021
525.41634
524.00744
522.60276
521.20153
519.80296
518.40624
517.01056
515.61508
514.21895
512.82134
511.42138
510.01822
508.61099
507.19885
505.78093
504.35638
502.92436
501.48404
500.03457
498.57517
497.10502
495.62335
494.12941
492.62248
491.10184
489.56683
488.01682
486.45121
484.86944
483.27102
481.65547
480.02241
478.37146
476.70235
475.01485
473.3088
471.58411
469.84079
468.07896
466.29883
464.50067
541.8938
540.33662
538.79297
537.26227
535.7439
534.23722
532.74151
531.25606
529.78008
528.31279
526.85336
525.40095
523.95469
522.5137
521.0771
519.64398
518.21343
516.78454
515.35638
513.92805
512.49861
511.06715
509.63274
508.19448
506.75145
505.30275
503.8475
502.3848
500.9138
499.43364
497.94349
496.44253
494.92998
493.40508
491.86708
490.3153
488.74907
487.16776
485.5708
483.95765
482.32783
480.6809
479.0165
477.33431
475.63408
473.91561
472.17881
470.42365
468.65028
466.85895
465.04986
543.76612
542.14213
540.53509
538.94422
537.36869
535.80768
534.2603
532.72564
531.2028
529.69083
528.18878
526.69568
525.21055
523.73241
522.26028
520.79316
519.33007
517.87
516.41196
514.95497
513.49805
512.0402
510.58047
509.11787
507.65145
506.18027
504.70338
503.21987
501.72883
500.22936
498.7206
497.20171
495.67185
494.13025
492.57613
491.00876
489.42746
487.83158
486.22051
484.59369
482.95061
481.29083
479.61394
477.91962
476.20758
474.47761
472.72957
470.9634
469.17931
467.37765
465.55845
545.50649
543.81987
542.15347
540.50628
538.87729
537.26548
535.66979
534.08918
532.52258
530.96891
529.42708
527.89603
526.37467
524.86191
523.35668
521.8579
520.36449
518.8754
517.38956
515.90591
514.42342
512.94105
511.45776
509.97254
508.48439
506.99232
505.49534
503.9925
502.48284
500.96546
499.43944
497.9039
496.35799
494.80089
493.23182
491.65
490.05474
488.44535
486.8212
485.18172
483.52637
481.85469
480.16624
478.46069
476.73772
474.99711
473.23867
471.46228
547.12027
545.37514
543.65331
541.95356
540.2747
538.61553
536.97484
535.35142
533.74407
532.15158
530.57276
529.00641
527.45135
525.90641
524.37042
522.84222
521.32067
519.80463
518.29298
516.7846
515.27838
513.77325
512.26813
510.76194
509.25365
507.74221
506.22661
504.70586
503.17897
501.64499
500.10298
498.55204
496.99127
495.41984
493.83693
492.24175
490.63357
489.01169
487.37546
485.72427
484.05759
482.3749
480.67578
478.95986
477.22681
475.47639
473.70837
548.61287
546.81325
545.03982
543.29118
541.56595
539.86276
538.18025
536.51707
534.87189
533.24337
531.63022
530.03113
528.44483
526.87006
525.30557
523.75012
522.2025
520.6615
519.12595
517.59468
516.06651
514.54033
513.015
511.48942
509.9625
508.43316
506.90036
505.36306
503.82025
502.27093
500.71416
499.14898
497.5745
495.98984
494.39416
492.78665
491.16655
489.53315
487.88577
486.22379
484.54665
482.85382
481.14487
479.41939
477.67706
475.91761
474.14086
549.98972
548.13951
546.31822
544.52423
542.75602
541.01204
539.29079
537.5908
535.9106
534.24874
532.60383
530.97447
529.35928
527.75694
526.1661
524.58547
523.01378
521.44974
519.89213
518.33971
516.7913
515.24569
513.70172
512.15825
510.61415
509.06831
507.51965
505.96709
504.4096
502.84617
501.27579
499.69751
498.11039
496.51355
494.90611
493.28725
491.65618
490.01218
488.35454
486.68264
484.99588
483.29373
481.57573
479.84147
478.09061
476.32288
474.5381
551.25623
549.35923
547.49366
545.65777
543.84983
542.06818
540.31116
538.57719
536.86467
535.17206
533.49786
531.84058
530.19877
528.57101
526.95591
525.35209
523.75822
522.17297
520.59504
519.02318
517.45612
515.89263
514.33153
512.7716
511.21171
509.65069
508.08744
506.52087
504.94989
503.37347
501.7906
500.20028
498.60156
496.99353
495.37529
493.74601
492.10488
490.45114
488.7841
487.10308
485.4075
483.6968
481.97051
480.2282
478.46952
476.6942
474.90206
552.41776
550.47762
548.57126
546.69675
544.85223
543.0359
541.24597
539.48073
537.73849
536.0176
534.31648
532.63354
530.96727
529.31617
527.67877
526.05366
524.43942
522.8347
521.23814
519.64842
518.06426
516.48438
514.90755
513.33254
511.75816
510.18323
508.60662
507.02719
505.44385
503.85554
502.26122
500.65987
499.05053
497.43225
495.80413
494.16531
492.51496
490.85232
489.17667
487.48732
485.78366
484.06515
482.33127
480.5816
478.81578
477.03352
475.23463
553.47959
551.49983
549.55601
547.64606
545.76798
543.91983
542.09972
540.30581
538.53633
536.78953
535.06374
533.3573
531.66863
529.99615
528.33836
526.69375
525.06089
523.43834
521.82473
520.21869
518.61888
517.02402
515.43281
513.84401
512.25639
510.66875
509.07992
507.48876
505.89413
504.29496
502.69018
501.07877
499.45972
497.83209
496.19495
494.54742
492.88867
491.2179
489.53439
487.83744
486.12643
484.40078
482.65999
480.90361
479.13128
477.34269
475.53766
554.44692
552.4309
550.45281
548.51045
546.60169
544.72447
542.87678
541.0567
539.26234
537.49189
535.74358
534.0157
532.30658
530.61461
528.9382
527.27583
525.62597
523.98719
522.35803
520.73711
519.12306
517.51453
515.91023
514.30886
512.70919
511.10998
509.51002
507.90817
506.30327
504.69421
503.07992
501.45934
499.83147
498.19532
496.54998
494.89453
493.22813
491.54998
489.85932
488.15546
486.43776
484.70563
482.95856
481.19609
479.41784
477.62351
475.81289
566.25745
563.97024
561.73618
559.55239
557.41611
555.32484
553.27575
551.26644
549.29457
547.35788
545.4542
543.58142
541.73752
539.92054
538.12857
536.3598
534.61243
532.88474
531.17505
529.48173
527.80321
526.13793
524.48439
522.84112
521.20669
519.5797
517.95878
516.34259
514.72983
513.11922
511.5095
509.89946
508.28791
506.67369
505.05567
503.43274
501.80386
500.16799
498.52413
496.87135
495.20872
493.5354
491.85055
490.15343
488.44331
486.71955
484.98155
483.22879
481.46081
479.6772
477.87766
476.06198
567.23123
564.9033
562.63105
560.41138
558.24137
556.11824
554.03915
552.00153
550.00291
548.04091
546.11325
544.21775
542.35228
540.51481
538.70338
536.91607
535.15106
533.40656
531.68085
529.97224
528.27911
526.59988
524.933
523.27697
521.63033
519.99165
518.35952
516.73259
515.10953
513.48903
511.86983
510.25067
508.63037
507.00773
505.38161
503.7509
502.11451
500.47142
498.8206
497.1611
495.492
493.81242
492.12154
490.41858
488.70282
486.97359
485.23031
483.47242
481.69945
479.91102
478.1068
476.28655
568.10777
565.74306
563.43631
561.18424
558.98375
556.83189
554.72573
552.66257
550.63982
548.65499
546.70572
544.78973
542.90483
541.0489
539.21992
537.41593
535.63503
533.8754
532.13525
530.41287
528.7066
527.01481
525.33593
523.66842
522.01079
520.36159
518.71938
517.08279
515.45046
513.82108
512.19334
510.56599
508.93781
507.30761
505.67421
504.0365
502.39337
500.74378
499.08671
497.42119
495.74627
494.06107
492.36477
490.65657
488.93574
487.20161
485.45357
483.69108
481.91365
480.12089
478.31245
476.48812
568.89257
566.4948
564.15707
561.8759
559.64805
557.47041
555.33997
553.25389
551.20949
549.2042
547.23556
545.3012
543.39888
541.52641
539.68171
537.86277
536.06764
534.29445
532.54138
530.80667
529.08863
527.3856
525.69597
524.01818
522.35072
520.6921
519.04088
517.39564
515.75502
514.11768
512.48232
510.84764
509.21242
507.57545
505.93555
504.29157
502.64242
500.98703
499.32437
497.65345
495.97334
494.28313
492.58198
490.86909
489.14374
487.40523
485.65295
483.88634
482.10493
480.3083
478.49611
476.66812
569.59093
567.16366
564.79827
562.49114
560.23889
558.03826
555.88617
553.77967
551.71598
549.69245
547.70654
545.75583
543.83799
541.95079
540.0921
538.25984
536.45204
534.66678
532.90221
531.15653
529.42801
527.71498
526.01579
524.32886
522.65265
520.98565
519.32641
517.67348
516.0255
514.38109
512.73893
511.09774
509.45626
507.81328
506.16759
504.51805
502.86355
501.203
499.53537
497.85967
496.17494
494.48027
492.77482
491.05778
489.3284
487.586
485.82995
484.0597
482.27475
480.47469
478.65917
476.82793
570.208
567.75458
565.36469
563.03458
560.76071
558.53974
556.36848
554.24391
552.16315
550.12349
548.12231
546.15713
544.22557
542.32534
540.45428
538.61025
536.79126
534.99533
533.22059
531.46521
529.72744
528.00557
526.29793
524.60292
522.91899
521.24459
519.57826
517.91855
516.26405
514.6134
512.96525
511.31831
509.67131
508.02301
506.37222
504.71777
503.05855
501.39345
499.72144
498.04151
496.3527
494.65411
492.94486
491.22415
489.49123
487.74541
485.98604
484.21258
482.42451
480.62142
478.80296
476.96887
570.74873
568.27234
565.86094
563.51064
561.2178
558.97898
556.7909
554.65047
552.55474
550.50092
548.48634
546.50847
544.56488
542.65324
540.77132
538.91698
537.08816
535.28289
533.49923
531.73536
529.98948
528.25986
526.54482
524.84274
523.15203
521.47116
519.79862
518.13296
516.47276
514.81664
513.16325
511.51127
509.85943
508.20648
506.55123
504.89248
503.22912
501.56004
499.8842
498.20057
496.5082
494.80617
493.0936
491.36969
489.63367
487.88485
486.12258
484.34631
482.55552
480.74979
478.92876
477.09217
571.21789
568.72154
566.29143
563.92358
561.61426
559.35993
557.15724
555.00303
552.89429
550.82817
548.80197
546.81308
544.85904
542.93748
541.04614
539.18285
537.34551
535.53212
533.74074
531.96949
530.21657
528.48023
526.75877
525.05055
523.35397
521.66747
519.98955
518.31873
516.65359
514.99273
513.33479
511.67844
510.02241
508.36543
506.7063
505.04383
503.37688
501.70436
500.02519
498.33837
496.64291
494.9379
493.22246
491.49577
489.75707
488.00565
486.24087
484.46217
482.66902
480.861
479.03775
477.19901
571.62006
569.10656
566.66039
564.27748
561.95401
559.68636
557.47114
555.3051
553.1852
551.10854
549.07235
547.07401
545.11101
543.18095
541.28154
539.41056
537.56592
535.74557
533.94756
532.16999
530.41103
528.66893
526.94197
525.22848
523.52687
521.83555
520.15302
518.47778
516.8084
515.14348
513.48164
511.82155
510.16193
508.5015
506.83905
505.17339