/*--------------------------------*- C++ -*----------------------------------*\
| =========                 |                                                 |
| \\      /  F ield         | OpenFOAM: The Open Source CFD Toolbox           |
|  \\    /   O peration     | Version:  2312                                  |
|   \\  /    A nd           | Website:  www.openfoam.com                      |
|    \\/     M anipulation  |                                                 |
\*---------------------------------------------------------------------------*/
FoamFile
{
    version     2.0;
    format      ascii;
    arch        "LSB;label=32;scalar=64";
    class       volVectorField;
    location    "0.09";
    object      U;
}
// * * * * * * * * * * * * * * * * * * * * * * * * * * * * * * * * * * * * * //

dimensions      [0 1 -1 0 0 0 0];

internalField   nonuniform List<vector> 
3272
(
(1.1452484 -0.59073841 0)
(1.1487388 -0.61033817 0)
(1.1520074 -0.62980053 0)
(1.1550377 -0.64910331 0)
(1.1578097 -0.66822618 0)
(1.1603052 -0.68715039 0)
(1.1625078 -0.70585806 0)
(1.1644025 -0.72433199 0)
(1.1659752 -0.74255564 0)
(1.1672132 -0.76051306 0)
(1.1681048 -0.77818884 0)
(1.1686395 -0.79556809 0)
(1.1688081 -0.81263639 0)
(1.1686024 -0.82937976 0)
(1.1680153 -0.84578464 0)
(1.167041 -0.86183784 0)
(1.1656746 -0.87752658 0)
(1.1639125 -0.89283839 0)
(1.1617518 -0.90776117 0)
(1.1591909 -0.92228312 0)
(1.1562291 -0.93639276 0)
(1.1528671 -0.95007879 0)
(1.1491059 -0.96332988 0)
(1.1449452 -0.97613521 0)
(1.1403859 -0.98848705 0)
(1.1354352 -1.000378 0)
(1.1301011 -1.0117971 0)
(1.1243881 -1.0227342 0)
(1.1183012 -1.0331804 0)
(1.1118473 -1.0431278 0)
(1.1050337 -1.0525683 0)
(1.0978689 -1.0614952 0)
(1.0903632 -1.0699009 0)
(1.0825228 -1.0777779 0)
(1.0743546 -1.085123 0)
(1.065871 -1.0919329 0)
(1.057085 -1.0982034 0)
(1.0480076 -1.1039304 0)
(1.0386504 -1.1091112 0)
(1.0290254 -1.1137435 0)
(1.019145 -1.117826 0)
(1.009022 -1.1213581 0)
(0.99866914 -1.1243399 0)
(0.98809977 -1.1267723 0)
(0.97732722 -1.1286569 0)
(0.966365 -1.1299962 0)
(0.95522673 -1.1307934 0)
(0.94392611 -1.1310525 0)
(0.93247683 -1.1307781 0)
(0.92089267 -1.1299758 0)
(0.90918724 -1.1286518 0)
(0.89737419 -1.1268128 0)
(0.88546784 -1.1244663 0)
(1.1543436 -0.56480421 0)
(1.1579639 -0.58401762 0)
(1.1613478 -0.60305834 0)
(1.1644801 -0.62190822 0)
(1.1673406 -0.64054985 0)
(1.1699116 -0.65896673 0)
(1.1721768 -0.67714314 0)
(1.1741214 -0.6950641 0)
(1.1757317 -0.71271528 0)
(1.1769953 -0.73008292 0)
(1.1779011 -0.74715384 0)
(1.1784389 -0.7639153 0)
(1.1785999 -0.78035505 0)
(1.1783763 -0.79646123 0)
(1.1777617 -0.81222237 0)
(1.1767505 -0.82762733 0)
(1.1753383 -0.8426653 0)
(1.1735219 -0.85732579 0)
(1.171299 -0.87159858 0)
(1.1686684 -0.88547373 0)
(1.1656298 -0.89894157 0)
(1.1621842 -0.9119927 0)
(1.1583335 -0.92461804 0)
(1.1540772 -0.93680893 0)
(1.1494165 -0.94855729 0)
(1.1443595 -0.95985527 0)
(1.1389148 -0.97069467 0)
(1.1330868 -0.98106755 0)
(1.1268807 -0.99096662 0)
(1.1203041 -1.0003848 0)
(1.1133644 -1.0093153 0)
(1.1060703 -1.017752 0)
(1.0984323 -1.0256892 0)
(1.0904569 -1.0331221 0)
(1.0821517 -1.0400466 0)
(1.0735294 -1.0464585 0)
(1.064603 -1.0523545 0)
(1.0553838 -1.0577317 0)
(1.0458836 -1.0625878 0)
(1.0361146 -1.0669213 0)
(1.0260894 -1.0707312 0)
(1.0158209 -1.0740171 0)
(1.0053223 -1.0767793 0)
(0.99460687 -1.0790191 0)
(0.98368827 -1.080738 0)
(0.97258014 -1.0819387 0)
(0.96129626 -1.0826242 0)
(0.94985046 -1.0827985 0)
(0.9382566 -1.0824662 0)
(0.92652852 -1.0816324 0)
(0.91468005 -1.0803033 0)
(0.90272476 -1.0784854 0)
(0.89067727 -1.0761862 0)
(1.1714851 -0.54899307 0)
(1.1752994 -0.56794868 0)
(1.1788535 -0.58670702 0)
(1.1821326 -0.60525167 0)
(1.1851171 -0.62356699 0)
(1.1877895 -0.64163809 0)
(1.1901345 -0.65945088 0)
(1.1921376 -0.67699194 0)
(1.1937859 -0.69424851 0)
(1.1950677 -0.7112084 0)
(1.1959726 -0.72785994 0)
(1.1964913 -0.74419194 0)
(1.1966157 -0.76019364 0)
(1.1963388 -0.77585466 0)
(1.1956549 -0.79116496 0)
(1.1945594 -0.80611482 0)
(1.1930487 -0.82069482 0)
(1.1911202 -0.8348958 0)
(1.1887725 -0.84870884 0)
(1.186005 -0.86212528 0)
(1.1828183 -0.87513668 0)
(1.1792139 -0.88773493 0)
(1.1751943 -0.89991237 0)
(1.1707603 -0.91166173 0)
(1.1659137 -0.92297509 0)
(1.1606632 -0.93384468 0)
(1.1550177 -0.94426381 0)
(1.1489821 -0.95422589 0)
(1.1425625 -0.96372444 0)
(1.1357669 -0.97275321 0)
(1.1286035 -0.98130682 0)
(1.1210812 -0.98937919 0)
(1.1132101 -0.99696527 0)
(1.1049973 -1.0040621 0)
(1.0964521 -1.0106655 0)
(1.0875879 -1.0167714 0)
(1.078417 -1.0223767 0)
(1.0689513 -1.0274792 0)
(1.0592029 -1.0320771 0)
(1.0491844 -1.036169 0)
(1.0389088 -1.0397543 0)
(1.0283891 -1.042833 0)
(1.017639 -1.0454056 0)
(1.0066719 -1.0474733 0)
(0.99550187 -1.0490381 0)
(0.98414267 -1.0501025 0)
(0.97260838 -1.0506696 0)
(0.96091304 -1.0507435 0)
(0.94907072 -1.0503287 0)
(0.93709547 -1.0494304 0)
(0.92500127 -1.0480544 0)
(0.91280189 -1.0462075 0)
(0.9005121 -1.0438968 0)
(1.195942 -0.53500826 0)
(1.1999897 -0.55370129 0)
(1.2037448 -0.57217237 0)
(1.2071929 -0.59040666 0)
(1.2103154 -0.60839019 0)
(1.2130956 -0.62610978 0)
(1.215519 -0.64355298 0)
(1.2175721 -0.66070803 0)
(1.219243 -0.67756379 0)
(1.2205211 -0.69410968 0)
(1.221397 -0.71033561 0)
(1.2218625 -0.72623195 0)
(1.2219106 -0.74178946 0)
(1.2215356 -0.75699924 0)
(1.2207328 -0.77185272 0)
(1.2194986 -0.78634161 0)
(1.2178306 -0.80045785 0)
(1.2157274 -0.81419363 0)
(1.2131885 -0.82754134 0)
(1.2102144 -0.84049355 0)
(1.2068066 -0.853043 0)
(1.2029674 -0.86518266 0)
(1.1986996 -0.87690621 0)
(1.1940061 -0.88820788 0)
(1.1888909 -0.8990805 0)
(1.1833623 -0.9095163 0)
(1.1774289 -0.91950965 0)
(1.1710972 -0.92905531 0)
(1.1643741 -0.93814755 0)
(1.1572677 -0.94678097 0)
(1.1497876 -0.95495095 0)
(1.1419444 -0.96265256 0)
(1.1337459 -0.96988156 0)
(1.1252002 -0.97663538 0)
(1.1163196 -0.98290999 0)
(1.1071174 -0.98870185 0)
(1.097606 -0.99400851 0)
(1.0877974 -0.99882807 0)
(1.0777044 -1.003159 0)
(1.0673399 -1.0070005 0)
(1.0567173 -1.0103521 0)
(1.0458503 -1.0132139 0)
(1.0347527 -1.0155869 0)
(1.0234384 -1.0174722 0)
(1.0119216 -1.0188721 0)
(1.0002165 -1.019789 0)
(0.98833755 -1.0202264 0)
(0.97629898 -1.020188 0)
(0.96411516 -1.0196785 0)
(0.9518004 -1.0187031 0)
(0.93936892 -1.0172675 0)
(0.92683472 -1.0153782 0)
(0.91421279 -1.0130423 0)
(1.2270575 -0.52283189 0)
(1.2313566 -0.5412459 0)
(1.2353231 -0.55941319 0)
(1.2389435 -0.57732064 0)
(1.2422002 -0.59495602 0)
(1.2450778 -0.61230791 0)
(1.2475627 -0.6293656 0)
(1.2496431 -0.64611905 0)
(1.2513083 -0.66255879 0)
(1.252549 -0.67867591 0)
(1.2533572 -0.69446194 0)
(1.2537262 -0.70990883 0)
(1.2536504 -0.72500887 0)
(1.2531255 -0.73975467 0)
(1.2521483 -0.75413912 0)
(1.2507165 -0.76815533 0)
(1.2488291 -0.78179662 0)
(1.2464859 -0.7950565 0)
(1.2436879 -0.80792866 0)
(1.240437 -0.82040688 0)
(1.2367359 -0.83248497 0)
(1.2325874 -0.84415686 0)
(1.2279947 -0.85541787 0)
(1.2229627 -0.86626314 0)
(1.2174992 -0.87668587 0)
(1.2116124 -0.88667951 0)
(1.2053098 -0.89623926 0)
(1.198599 -0.90536074 0)
(1.1914888 -0.91403911 0)
(1.1839879 -0.92226984 0)
(1.1761062 -0.93004823 0)
(1.1678548 -0.9373708 0)
(1.1592423 -0.94423516 0)
(1.1502785 -0.95063791 0)
(1.1409768 -0.95657517 0)
(1.1313504 -0.96204435 0)
(1.121412 -0.96704346 0)
(1.1111744 -0.97157094 0)
(1.1006506 -0.97562566 0)
(1.0898544 -0.97920697 0)
(1.0787996 -0.98231474 0)
(1.0675001 -0.9849494 0)
(1.0559703 -0.98711192 0)
(1.0442245 -0.98880385 0)
(1.0322773 -0.9900273 0)
(1.0201433 -0.990785 0)
(1.0078371 -0.99108029 0)
(0.99537345 -0.99091709 0)
(0.98276694 -0.99029993 0)
(0.9700322 -0.98923395 0)
(0.95718372 -0.9877249 0)
(0.94423578 -0.9857791 0)
(0.93120361 -0.98340347 0)
(1.2642319 -0.5125511 0)
(1.2687801 -0.53066153 0)
(1.2729493 -0.54850084 0)
(1.276727 -0.56605778 0)
(1.280097 -0.58332199 0)
(1.2830455 -0.60028389 0)
(1.2855606 -0.61693459 0)
(1.2876319 -0.63326581 0)
(1.2892505 -0.64926985 0)
(1.2904089 -0.66493946 0)
(1.2911008 -0.68026783 0)
(1.2913211 -0.69524849 0)
(1.2910661 -0.70987528 0)
(1.290333 -0.72414229 0)
(1.2891202 -0.73804383 0)
(1.2874274 -0.75157441 0)
(1.2852548 -0.76472867 0)
(1.2826041 -0.77750141 0)
(1.2794776 -0.78988753 0)
(1.275879 -0.80188202 0)
(1.2718124 -0.81347997 0)
(1.2672808 -0.82467668 0)
(1.2622881 -0.83546796 0)
(1.2568434 -0.84584927 0)
(1.2509561 -0.85581469 0)
(1.2446338 -0.86535946 0)
(1.2378844 -0.8744796 0)
(1.230717 -0.88317116 0)
(1.2231415 -0.89143055 0)
(1.2151683 -0.89925349 0)
(1.2068078 -0.90663567 0)
(1.1980696 -0.91357491 0)
(1.1889642 -0.92006945 0)
(1.1795045 -0.92611563 0)
(1.1697042 -0.93171034 0)
(1.1595763 -0.93685152 0)
(1.1491338 -0.94153758 0)
(1.1383903 -0.94576726 0)
(1.1273596 -0.94953974 0)
(1.1160559 -0.95285464 0)
(1.1044934 -0.95571208 0)
(1.0926867 -0.95811268 0)
(1.0806505 -0.96005756 0)
(1.0683997 -0.96154842 0)
(1.0559491 -0.96258747 0)
(1.0433137 -0.96317751 0)
(1.0305087 -0.96332191 0)
(1.017549 -0.96302459 0)
(1.0044495 -0.96229008 0)
(0.99122532 -0.96112344 0)
(0.97789114 -0.95953034 0)
(0.96446154 -0.95751697 0)
(0.95095201 -0.95509011 0)
(1.3069163 -0.50407178 0)
(1.3116924 -0.52184575 0)
(1.3160374 -0.53932497 0)
(1.3199403 -0.55650024 0)
(1.3233869 -0.57336319 0)
(1.3263651 -0.58990616 0)
(1.3288651 -0.60612216 0)
(1.3308785 -0.62200476 0)
(1.3323984 -0.63754802 0)
(1.3334193 -0.65274643 0)
(1.333937 -0.66759481 0)
(1.3339483 -0.6820883 0)
(1.3334515 -0.69622226 0)
(1.3324459 -0.70999223 0)
(1.3309317 -0.72339393 0)
(1.3289104 -0.73642318 0)
(1.3263842 -0.74907594 0)
(1.3233562 -0.7613482 0)
(1.3198307 -0.77323601 0)
(1.3158127 -0.7847355 0)
(1.3113075 -0.79584311 0)
(1.3063203 -0.80655586 0)
(1.3008568 -0.81686937 0)
(1.2949277 -0.82677861 0)
(1.2885435 -0.83627979 0)
(1.2817126 -0.84536942 0)
(1.2744437 -0.85404404 0)
(1.2667467 -0.86230034 0)
(1.2586333 -0.87013542 0)
(1.2501161 -0.87754574 0)
(1.2412041 -0.88452819 0)
(1.2319072 -0.89108123 0)
(1.222239 -0.89720209 0)
(1.2122138 -0.90288781 0)
(1.201845 -0.90813625 0)
(1.191146 -0.91294576 0)
(1.1801308 -0.91731504 0)
(1.1688134 -0.92124312 0)
(1.1572084 -0.92472944 0)
(1.1453304 -0.92777384 0)
(1.1331942 -0.93037665 0)
(1.1208149 -0.93253865 0)
(1.1082077 -0.93426111 0)
(1.0953878 -0.93554582 0)
(1.0823706 -0.93639507 0)
(1.0691715 -0.93681171 0)
(1.0558059 -0.93679911 0)
(1.0422891 -0.93636121 0)
(1.0286365 -0.93550246 0)
(1.0148634 -0.9342279 0)
(1.0009849 -0.93254305 0)
(0.98701574 -0.93045397 0)
(0.97297167 -0.92796743 0)
(1.3546035 -0.49726402 0)
(1.3595683 -0.51466173 0)
(1.3640454 -0.53174233 0)
(1.3680258 -0.54849877 0)
(1.3714974 -0.56492478 0)
(1.3744507 -0.58101474 0)
(1.3768779 -0.59676362 0)
(1.3787732 -0.61216688 0)
(1.380132 -0.62722037 0)
(1.380951 -0.64192032 0)
(1.3812284 -0.65626321 0)
(1.3809633 -0.67024574 0)
(1.3801563 -0.68386476 0)
(1.3788088 -0.69711723 0)
(1.3769231 -0.71000021 0)
(1.3745027 -0.72251082 0)
(1.3715518 -0.73464622 0)
(1.3680754 -0.74640355 0)
(1.3640797 -0.75777995 0)
(1.359571 -0.76877272 0)
(1.3545557 -0.77937978 0)
(1.3490411 -0.78959868 0)
(1.3430373 -0.79942515 0)
(1.3365552 -0.80885481 0)
(1.3296049 -0.81788521 0)
(1.3221961 -0.82651382 0)
(1.3143394 -0.8347379 0)
(1.3060456 -0.8425548 0)
(1.2973276 -0.84996129 0)
(1.2881985 -0.85695533 0)
(1.2786683 -0.86353568 0)
(1.2687487 -0.86969957 0)
(1.2584548 -0.87544407 0)
(1.247801 -0.88076722 0)
(1.2368012 -0.88566743 0)
(1.2254696 -0.89014336 0)
(1.2138209 -0.89419396 0)
(1.2018697 -0.89781853 0)
(1.1896312 -0.90101671 0)
(1.1771207 -0.90378857 0)
(1.1643533 -0.90613458 0)
(1.1513448 -0.90805564 0)
(1.1381108 -0.90955314 0)
(1.1246669 -0.91062893 0)
(1.1110289 -0.91128537 0)
(1.0972126 -0.9115253 0)
(1.0832338 -0.9113521 0)
(1.0691082 -0.91076965 0)
(1.0548514 -0.90978238 0)
(1.0404791 -0.90839523 0)
(1.0260068 -0.90661352 0)
(1.0114494 -0.90444346 0)
(0.99682288 -0.90189154 0)
(1.4068202 -0.49198531 0)
(1.4119178 -0.50896171 0)
(1.4164677 -0.52560036 0)
(1.4204632 -0.5418965 0)
(1.423895 -0.55784606 0)
(1.4267561 -0.57344552 0)
(1.4290417 -0.58869185 0)
(1.4307485 -0.60358241 0)
(1.4318745 -0.61811488 0)
(1.4324193 -0.6322872 0)
(1.4323834 -0.64609748 0)
(1.4317687 -0.65954395 0)
(1.4305779 -0.6726249 0)
(1.4288149 -0.68533864 0)
(1.4264845 -0.69768348 0)
(1.423592 -0.70965776 0)
(1.4201439 -0.72125976 0)
(1.4161474 -0.73248768 0)
(1.41161 -0.74333985 0)
(1.4065393 -0.75381517 0)
(1.4009436 -0.76391215 0)
(1.3948345 -0.77362758 0)
(1.3882234 -0.78295818 0)
(1.3811212 -0.79190158 0)
(1.3735387 -0.80045569 0)
(1.3654872 -0.8086186 0)
(1.3569784 -0.81638845 0)
(1.3480255 -0.82376259 0)
(1.3386418 -0.83073848 0)
(1.3288393 -0.83731529 0)
(1.3186308 -0.84349169 0)
(1.3080309 -0.84926465 0)
(1.2970542 -0.854632 0)
(1.2857155 -0.85959222 0)
(1.2740295 -0.86414402 0)
(1.2620111 -0.86828632 0)
(1.2496756 -0.87201829 0)
(1.2370384 -0.87533943 0)
(1.2241153 -0.87824958 0)
(1.2109218 -0.88074894 0)
(1.197474 -0.8828381 0)
(1.1837878 -0.88451807 0)
(1.1698793 -0.88579029 0)
(1.1557647 -0.88665666 0)
(1.1414601 -0.88711955 0)
(1.1269816 -0.88718179 0)
(1.1123454 -0.88684673 0)
(1.0975676 -0.88611818 0)
(1.0826641 -0.88500051 0)
(1.067651 -0.88349847 0)
(1.0525437 -0.8816176 0)
(1.0373573 -0.87936405 0)
(1.0221099 -0.87674199 0)
(1.4631201 -0.4880783 0)
(1.4682792 -0.50458455 0)
(1.4728281 -0.52073468 0)
(1.4767631 -0.53652628 0)
(1.480078 -0.55195755 0)
(1.4827689 -0.56702709 0)
(1.484834 -0.58173389 0)
(1.4862731 -0.59607721 0)
(1.4870872 -0.61005652 0)
(1.4872785 -0.62367146 0)
(1.4868506 -0.63692171 0)
(1.4858079 -0.649807 0)
(1.484156 -0.66232694 0)
(1.4819012 -0.67448108 0)
(1.4790505 -0.6862689 0)
(1.4756117 -0.69768981 0)
(1.4715935 -0.70874315 0)
(1.4670048 -0.71942829 0)
(1.4618542 -0.72974522 0)
(1.4561515 -0.73969341 0)
(1.4499094 -0.74927051 0)
(1.4431408 -0.75847408 0)
(1.4358574 -0.76730272 0)
(1.4280713 -0.77575488 0)
(1.4197947 -0.7838286 0)
(1.4110396 -0.79152285 0)
(1.4018202 -0.79883587 0)
(1.3921506 -0.80576552 0)
(1.3820435 -0.81231105 0)
(1.3715128 -0.81847108 0)
(1.3605738 -0.82424336 0)
(1.3492416 -0.82962592 0)
(1.3375312 -0.83461721 0)
(1.3254579 -0.83921596 0)
(1.3130372 -0.84342104 0)
(1.3002848 -0.84723157 0)
(1.2872165 -0.85064691 0)
(1.2738484 -0.85366672 0)
(1.2601967 -0.85629094 0)
(1.2462776 -0.85851989 0)
(1.2321074 -0.86035424 0)
(1.2177027 -0.86179504 0)
(1.2030799 -0.86284377 0)
(1.1882556 -0.86350234 0)
(1.1732462 -0.86377309 0)
(1.1580684 -0.86365883 0)
(1.1427384 -0.86316284 0)
(1.1272728 -0.86228889 0)
(1.1116879 -0.86104121 0)
(1.0959995 -0.85942455 0)
(1.0802233 -0.8574443 0)
(1.5230789 -0.48537425 0)
(1.5282138 -0.50135926 0)
(1.532675 -0.5169725 0)
(1.5364621 -0.53221401 0)
(1.5395723 -0.54708423 0)
(1.5420054 -0.56158391 0)
(1.5437628 -0.57571401 0)
(1.5448476 -0.58947566 0)
(1.5452641 -0.60287007 0)
(1.5450174 -0.61589848 0)
(1.5441142 -0.62856214 0)
(1.5425619 -0.64086216 0)
(1.5403688 -0.65279941 0)
(1.5375438 -0.66437445 0)
(1.5340965 -0.67558776 0)
(1.5300369 -0.68643978 0)
(1.5253756 -0.69693101 0)
(1.5201226 -0.70706251 0)
(1.514289 -0.71683478 0)
(1.507889 -0.72624632 0)
(1.5009367 -0.73529544 0)
(1.4934452 -0.74398156 0)
(1.4854277 -0.75230402 0)
(1.4768983 -0.76026191 0)
(1.4678697 -0.76785371 0)
(1.4583556 -0.77507767 0)
(1.4483716 -0.78193336 0)
(1.4379314 -0.7884202 0)
(1.4270498 -0.79453684 0)
(1.415743 -0.80028109 0)
(1.4040265 -0.80565137 0)
(1.3919161 -0.81064631 0)
(1.3794273 -0.81526468 0)
(1.3665763 -0.81950534 0)
(1.3533792 -0.82336734 0)
(1.3398523 -0.82684994 0)
(1.326012 -0.82995262 0)
(1.3118749 -0.83267512 0)
(1.2974577 -0.83501748 0)
(1.2827771 -0.83698006 0)
(1.2678499 -0.83856357 0)
(1.252693 -0.83976908 0)
(1.2373232 -0.84059806 0)
(1.2217574 -0.84105239 0)
(1.2060124 -0.84113437 0)
(1.1901051 -0.84084676 0)
(1.1740522 -0.84019276 0)
(1.1578703 -0.83917602 0)
(1.141576 -0.83780069 0)
(1.1251855 -0.83607144 0)
(1.1087157 -0.83399318 0)
(1.5862898 -0.48369696 0)
(1.591302 -0.49910881 0)
(1.5955773 -0.51413646 0)
(1.5991187 -0.52878238 0)
(1.6019275 -0.54304926 0)
(1.6040071 -0.55693992 0)
(1.6053628 -0.57045722 0)
(1.606001 -0.58360405 0)
(1.6059293 -0.59638328 0)
(1.6051563 -0.6087977 0)
(1.6036915 -0.62085002 0)
(1.6015454 -0.63254272 0)
(1.5987297 -0.64387773 0)
(1.5952558 -0.65485634 0)
(1.5911356 -0.66547983 0)
(1.5863811 -0.67574982 0)
(1.5810039 -0.6856686 0)
(1.5750167 -0.69523771 0)
(1.5684351 -0.70445645 0)
(1.561275 -0.71332406 0)
(1.5535505 -0.72184063 0)
(1.5452762 -0.73000612 0)
(1.5364667 -0.73782042 0)
(1.5271379 -0.74528273 0)
(1.5173054 -0.7523921 0)
(1.506982 -0.75914771 0)
(1.4961825 -0.76554935 0)
(1.4849244 -0.7715962 0)
(1.4732244 -0.77728627 0)
(1.4610986 -0.7826182 0)
(1.4485632 -0.78759079 0)
(1.4356345 -0.7922029 0)
(1.422329 -0.79645342 0)
(1.4086635 -0.80034135 0)
(1.3946545 -0.80386584 0)
(1.3803191 -0.80702624 0)
(1.3656741 -0.80982209 0)
(1.3507366 -0.81225318 0)
(1.3355237 -0.81431958 0)
(1.3200526 -0.81602166 0)
(1.3043403 -0.81736011 0)
(1.2884041 -0.81833599 0)
(1.2722613 -0.81895073 0)
(1.2559288 -0.81920614 0)
(1.239424 -0.81910447 0)
(1.2227639 -0.81864838 0)
(1.2059654 -0.81784095 0)
(1.1890454 -0.81668574 0)
(1.1720207 -0.81518673 0)
(1.1549079 -0.81334833 0)
(1.1377243 -0.81117536 0)
(1.6523601 -0.48286617 0)
(1.6571403 -0.49765353 0)
(1.6611215 -0.51204793 0)
(1.664311 -0.52605419 0)
(1.6667142 -0.53967714 0)
(1.6683385 -0.55292156 0)
(1.6691932 -0.56579213 0)
(1.6692882 -0.57829338 0)
(1.6686346 -0.59042966 0)
(1.6672442 -0.60220519 0)
(1.6651297 -0.61362408 0)
(1.662305 -0.62469018 0)
(1.658785 -0.63540625 0)
(1.6545842 -0.64577391 0)
(1.6497159 -0.65579523 0)
(1.644193 -0.66547362 0)
(1.6380297 -0.6748121 0)
(1.6312435 -0.68381098 0)
(1.6238518 -0.69247006 0)
(1.6158705 -0.7007903 0)
(1.6073155 -0.70877243 0)
(1.5982026 -0.71641689 0)
(1.5885487 -0.72372329 0)
(1.578371 -0.73069102 0)
(1.5676844 -0.73732077 0)
(1.5565038 -0.74361255 0)
(1.5448464 -0.74956452 0)
(1.5327304 -0.7551753 0)
(1.5201728 -0.76044394 0)
(1.5071905 -0.76536943 0)
(1.4938004 -0.76995071 0)
(1.4800195 -0.7741867 0)
(1.465865 -0.77807637 0)
(1.4513541 -0.78161881 0)
(1.4365041 -0.78481321 0)
(1.4213324 -0.78765893 0)
(1.4058563 -0.79015555 0)
(1.3900932 -0.79230284 0)
(1.3740606 -0.79410087 0)
(1.357776 -0.79554996 0)
(1.3412569 -0.79665078 0)
(1.3245207 -0.79740431 0)
(1.307585 -0.7978119 0)
(1.2904671 -0.79787529 0)
(1.2731843 -0.79759662 0)
(1.2557541 -0.79697844 0)
(1.2381936 -0.79602369 0)
(1.2205198 -0.79473579 0)
(1.2027497 -0.79311856 0)
(1.1849 -0.79117622 0)
(1.1669886 -0.78891343 0)
(1.7209086 -0.48270076 0)
(1.7253382 -0.49681434 0)
(1.7289095 -0.51053014 0)
(1.7316341 -0.52385523 0)
(1.7335219 -0.5367965 0)
(1.7345847 -0.54936054 0)
(1.7348356 -0.56155367 0)
(1.7342883 -0.57338189 0)
(1.7329575 -0.58485087 0)
(1.730858 -0.59596602 0)
(1.7280054 -0.60673273 0)
(1.7244173 -0.61715618 0)
(1.7201127 -0.62723977 0)
(1.7151085 -0.63698535 0)
(1.7094183 -0.64639615 0)
(1.7030565 -0.65547628 0)
(1.6960423 -0.66422785 0)
(1.6883955 -0.67265176 0)
(1.6801337 -0.68074955 0)
(1.6712742 -0.68852188 0)
(1.6618345 -0.69597055 0)
(1.6518325 -0.70309584 0)
(1.6412866 -0.7098972 0)
(1.6302131 -0.71637582 0)
(1.6186285 -0.72253205 0)
(1.606551 -0.72836469 0)
(1.5939984 -0.73387224 0)
(1.5809888 -0.73905382 0)
(1.5675399 -0.7439086 0)
(1.5536692 -0.74843565 0)
(1.5393945 -0.75263392 0)
(1.5247333 -0.75650238 0)
(1.5097034 -0.76004004 0)
(1.4943224 -0.76324598 0)
(1.4786081 -0.76611939 0)
(1.4625781 -0.76865963 0)
(1.4462503 -0.77086621 0)
(1.4296423 -0.77273889 0)
(1.412772 -0.77427765 0)
(1.395657 -0.77548277 0)
(1.3783151 -0.77635481 0)
(1.360764 -0.77689468 0)
(1.3430214 -0.77710361 0)
(1.3251048 -0.77698324 0)
(1.3070319 -0.77653556 0)
(1.28882 -0.77576299 0)
(1.2704865 -0.77466835 0)
(1.2520486 -0.77325485 0)
(1.2335235 -0.77152617 0)
(1.2149281 -0.76948636 0)
(1.1962801 -0.76713988 0)
(1.7915642 -0.48302181 0)
(1.7955175 -0.49641546 0)
(1.7985571 -0.50941079 0)
(1.8006992 -0.52201695 0)
(1.8019583 -0.53424265 0)
(1.8023505 -0.54609615 0)
(1.8018931 -0.55758522 0)
(1.8006035 -0.56871714 0)
(1.7985 -0.57949876 0)
(1.7956003 -0.58993636 0)
(1.7919226 -0.60003609 0)
(1.7874882 -0.60980421 0)
(1.7823206 -0.61924487 0)
(1.7764384 -0.62836109 0)
(1.7698561 -0.63715627 0)
(1.762591 -0.64563367 0)
(1.7546645 -0.65379533 0)
(1.7460976 -0.66164401 0)
(1.7369104 -0.66918204 0)
(1.7271207 -0.67640984 0)
(1.7167472 -0.68332833 0)
(1.7058107 -0.68993914 0)
(1.6943283 -0.69624269 0)
(1.682318 -0.70223951 0)
(1.6697994 -0.7079287 0)
(1.6567907 -0.71330947 0)
(1.6433103 -0.71838098 0)
(1.6293768 -0.72314238 0)
(1.6150083 -0.72759278 0)
(1.6002232 -0.7317312 0)
(1.5850397 -0.73555657 0)
(1.5694759 -0.73906784 0)
(1.5535498 -0.74226397 0)
(1.5372796 -0.74514401 0)
(1.5206832 -0.7477071 0)
(1.5037788 -0.74995251 0)
(1.4865843 -0.75187969 0)
(1.4691178 -0.75348831 0)
(1.4513971 -0.75477825 0)
(1.4334402 -0.75574969 0)
(1.4152651 -0.75640307 0)
(1.3968895 -0.75673918 0)
(1.3783313 -0.75675912 0)
(1.3596082 -0.75646439 0)
(1.3407379 -0.75585683 0)
(1.3217379 -0.75493869 0)
(1.3026257 -0.75371264 0)
(1.2834186 -0.75218172 0)
(1.2641338 -0.75034941 0)
(1.2447884 -0.74821959 0)
(1.2254002 -0.74579654 0)
(1.8639648 -0.48365517 0)
(1.8673111 -0.49628717 0)
(1.8696934 -0.50852469 0)
(1.8711326 -0.52037875 0)
(1.8716478 -0.53185969 0)
(1.8712597 -0.54297719 0)
(1.8699893 -0.55374027 0)
(1.8678581 -0.56415732 0)
(1.8648876 -0.57423628 0)
(1.8610989 -0.58398393 0)
(1.8565125 -0.59340648 0)
(1.8511525 -0.60251046 0)
(1.8450462 -0.61130183 0)
(1.838215 -0.61978446 0)
(1.8306754 -0.62796115 0)
(1.8224462 -0.63583543 0)
(1.8135499 -0.64340928 0)
(1.8040084 -0.65068639 0)
(1.7938442 -0.6576688 0)
(1.7830782 -0.6643575 0)
(1.7717282 -0.67075372 0)
(1.7598144 -0.67685862 0)
(1.7473579 -0.68267298 0)
(1.7343778 -0.68819594 0)
(1.7208937 -0.69342722 0)
(1.7069244 -0.69836632 0)
(1.6924892 -0.70301243 0)
(1.6776069 -0.70736465 0)
(1.6622964 -0.71142198 0)
(1.6465764 -0.71518333 0)
(1.6304654 -0.71864757 0)
(1.613982 -0.72181355 0)
(1.5971445 -0.72468016 0)
(1.5799713 -0.72724633 0)
(1.5624807 -0.7295111 0)
(1.5446909 -0.73147363 0)
(1.5266201 -0.73313328 0)
(1.5082864 -0.73448956 0)
(1.489708 -0.73554226 0)
(1.4709028 -0.73629139 0)
(1.4518889 -0.73673727 0)
(1.4326843 -0.73688054 0)
(1.4133067 -0.73672214 0)
(1.3937741 -0.7362634 0)
(1.374104 -0.735506 0)
(1.3543142 -0.73445201 0)
(1.3344221 -0.73310391 0)
(1.3144451 -0.73146457 0)
(1.2944004 -0.72953726 0)
(1.2743053 -0.7273257 0)
(1.2541777 -0.72483395 0)
(1.9377568 -0.48443406 0)
(1.9403628 -0.49626799 0)
(1.9419606 -0.50771575 0)
(1.9425757 -0.51878992 0)
(1.9422322 -0.52950223 0)
(1.9409547 -0.53986352 0)
(1.9387684 -0.5498837 0)
(1.9356982 -0.55957194 0)
(1.9317693 -0.56893726 0)
(1.9270062 -0.57798689 0)
(1.9214319 -0.58672748 0)
(1.9150716 -0.59516456 0)
(1.9079558 -0.60330446 0)
(1.9001101 -0.6111528 0)
(1.8915516 -0.6187126 0)
(1.8823013 -0.62598732 0)
(1.8723823 -0.63297954 0)
(1.8618178 -0.63969134 0)
(1.8506325 -0.64612574 0)
(1.838847 -0.65228435 0)
(1.8264811 -0.65816853 0)
(1.813557 -0.66377773 0)
(1.8000955 -0.6691125 0)
(1.7861168 -0.67417266 0)
(1.7716408 -0.67895792 0)
(1.7566873 -0.68346764 0)
(1.7412758 -0.68770094 0)
(1.7254255 -0.69165679 0)
(1.7091559 -0.69533405 0)
(1.6924857 -0.69873149 0)
(1.675434 -0.70184786 0)
(1.6580193 -0.70468187 0)
(1.6402604 -0.70723225 0)
(1.6221757 -0.7094978 0)
(1.6037836 -0.71147743 0)
(1.5851024 -0.71317014 0)
(1.5661506 -0.71457514 0)
(1.5469461 -0.71569181 0)
(1.5275073 -0.71651975 0)
(1.5078521 -0.71705883 0)
(1.4879986 -0.71730922 0)
(1.4679649 -0.71727135 0)
(1.4477686 -0.71694603 0)
(1.4274277 -0.71633438 0)
(1.4069599 -0.7154379 0)
(1.3863827 -0.71425848 0)
(1.3657138 -0.71279838 0)
(1.3449703 -0.71106026 0)
(1.3241697 -0.70904719 0)
(1.3033291 -0.70676267 0)
(1.2824666 -0.70421056 0)
(2.0125959 -0.48520112 0)
(2.0143277 -0.49620674 0)
(2.0150141 -0.50683886 0)
(2.0146854 -0.51711137 0)
(2.0133701 -0.52703701 0)
(2.0110972 -0.53662755 0)
(2.0078957 -0.54589347 0)
(2.0037932 -0.55484425 0)
(1.9988183 -0.56348977 0)
(1.9929987 -0.57183824 0)
(1.9863607 -0.57989621 0)
(1.9789322 -0.5876679 0)
(1.9707432 -0.59515942 0)
(1.9618216 -0.60237785 0)
(1.9521885 -0.6093272 0)
(1.941865 -0.61600925 0)
(1.9308769 -0.62242803 0)
(1.919247 -0.62858535 0)
(1.9069999 -0.63448308 0)
(1.8941593 -0.64012334 0)
(1.8807464 -0.64550598 0)
(1.8667832 -0.6506313 0)
(1.8522909 -0.65549954 0)
(1.8372903 -0.66011048 0)
(1.8218019 -0.6644636 0)
(1.8058459 -0.66855807 0)
(1.7894421 -0.67239287 0)
(1.7726102 -0.67596678 0)
(1.7553695 -0.6792785 0)
(1.7377393 -0.6823266 0)
(1.7197386 -0.68510965 0)
(1.7013861 -0.68762617 0)
(1.6827006 -0.68987474 0)
(1.6637006 -0.69185396 0)
(1.6444046 -0.69356257 0)
(1.6248309 -0.6949994 0)
(1.6049977 -0.69616348 0)
(1.5849233 -0.697054 0)
(1.5646258 -0.69767041 0)
(1.5441232 -0.6980124 0)
(1.5234335 -0.69807992 0)
(1.5025746 -0.69787325 0)
(1.4815644 -0.69739299 0)
(1.4604206 -0.69664008 0)
(1.4391608 -0.69561582 0)
(1.4178026 -0.69432189 0)
(1.3963635 -0.69276035 0)
(1.3748609 -0.69093364 0)
(1.3533118 -0.68884456 0)
(1.3317335 -0.68649644 0)
(1.3101441 -0.68389321 0)
(2.0881471 -0.48581031 0)
(2.0888725 -0.49596414 0)
(2.0885233 -0.5057614 0)
(2.0871342 -0.51521688 0)
(2.084738 -0.52434397 0)
(2.0813678 -0.53315513 0)
(2.0770562 -0.54166136 0)
(2.0718335 -0.54987261 0)
(2.0657302 -0.5577986 0)
(2.0587781 -0.56544674 0)
(2.0510075 -0.57282444 0)
(2.042447 -0.57993564 0)
(2.0331261 -0.58678692 0)
(2.0230746 -0.59338439 0)
(2.0123173 -0.59973236 0)
(2.0008764 -0.60583409 0)
(1.9887763 -0.61169166 0)
(1.9760434 -0.61730753 0)
(1.9627031 -0.62268189 0)
(1.9487787 -0.62781652 0)
(1.9342926 -0.63271184 0)
(1.919267 -0.63736803 0)
(1.9037236 -0.64178495 0)
(1.8876835 -0.64596211 0)
(1.8711677 -0.64989872 0)
(1.8541964 -0.65359372 0)
(1.8367898 -0.65704584 0)
(1.8189676 -0.66025366 0)
(1.8007493 -0.66321563 0)
(1.7821541 -0.66593012 0)
(1.763201 -0.66839547 0)
(1.7439088 -0.67061 0)
(1.7242963 -0.67257206 0)
(1.7043818 -0.67428006 0)
(1.6841838 -0.67573252 0)
(1.6637205 -0.6769281 0)
(1.6430101 -0.67786561 0)
(1.6220707 -0.67854406 0)
(1.6009202 -0.67896269 0)
(1.5795767 -0.67912099 0)
(1.5580579 -0.67901874 0)
(1.5363818 -0.678656 0)
(1.5145659 -0.67803318 0)
(1.4926279 -0.67715102 0)
(1.4705854 -0.67601062 0)
(1.4484559 -0.67461346 0)
(1.4262568 -0.67296139 0)
(1.4040052 -0.67105666 0)
(1.3817183 -0.66890198 0)
(1.3594129 -0.6665004 0)
(2.1640863 -0.48612833 0)
(2.1636769 -0.49541418 0)
(2.162172 -0.50436429 0)
(2.159611 -0.51299414 0)
(2.1560302 -0.52131741 0)
(2.1514663 -0.52934663 0)
(2.1459552 -0.53709403 0)
(2.1395297 -0.5445686 0)
(2.1322243 -0.55177961 0)
(2.1240719 -0.55873342 0)
(2.1151051 -0.5654381 0)
(2.1053544 -0.57189928 0)
(2.0948492 -0.5781211 0)
(2.0836213 -0.58411064 0)
(2.0716957 -0.58987176 0)
(2.059097 -0.59540767 0)
(2.0458522 -0.60071927 0)
(2.031987 -0.60580762 0)
(2.0175268 -0.610674 0)
(2.0024953 -0.61531943 0)
(1.9869157 -0.6197442 0)
(1.9708103 -0.62394815 0)
(1.9542012 -0.62793079 0)
(1.9371097 -0.6316913 0)
(1.9195567 -0.63522856 0)
(1.9015627 -0.63854124 0)
(1.8831478 -0.64162779 0)
(1.8643318 -0.64448652 0)
(1.8451339 -0.64711561 0)
(1.8255735 -0.64951319 0)
(1.8056693 -0.65167733 0)
(1.7854401 -0.65360611 0)
(1.7649043 -0.65529766 0)
(1.7440804 -0.65675016 0)
(1.7229864 -0.65796192 0)
(1.7016405 -0.65893136 0)
(1.6800607 -0.65965708 0)
(1.6582649 -0.6601379 0)
(1.6362709 -0.66037284 0)
(1.6140964 -0.66036119 0)
(1.5917591 -0.66010251 0)
(1.5692768 -0.65959669 0)
(1.5466668 -0.6588439 0)
(1.5239467 -0.65784468 0)
(1.5011338 -0.65659993 0)
(1.4782456 -0.65511092 0)
(1.4552991 -0.6533793 0)
(1.4323116 -0.65140715 0)
(1.4092999 -0.64919698 0)
(1.3862815 -0.64675153 0)
(2.2401014 -0.4860358 0)
(2.2384343 -0.4944449 0)
(2.23566 -0.50254289 0)
(2.2318216 -0.51034516 0)
(2.2269595 -0.51786651 0)
(2.2211122 -0.52511782 0)
(2.2143197 -0.53211168 0)
(2.2066178 -0.53885654 0)
(2.1980425 -0.54536097 0)
(2.1886287 -0.55163276 0)
(2.1784091 -0.55767716 0)
(2.1674176 -0.56350249 0)
(2.1556831 -0.5691116 0)
(2.1432366 -0.5745097 0)
(2.1301071 -0.57970118 0)
(2.1163205 -0.58468705 0)
(2.1019034 -0.58946903 0)
(2.0868819 -0.5940479 0)
(2.0712812 -0.59842452 0)
(2.0551255 -0.6025993 0)
(2.038438 -0.60657214 0)
(2.0212414 -0.61034248 0)
(2.0035576 -0.61390945 0)
(1.985408 -0.61727186 0)
(1.9668135 -0.62042825 0)
(1.9477944 -0.62337693 0)
(1.9283707 -0.62611606 0)
(1.9085619 -0.62864363 0)
(1.8883873 -0.63095753 0)
(1.8678658 -0.6330556 0)
(1.847016 -0.63493566 0)
(1.8258565 -0.63659551 0)
(1.8044053 -0.63803304 0)
(1.7826807 -0.63924619 0)
(1.7607005 -0.64023302 0)
(1.7384826 -0.64099174 0)
(1.7160448 -0.64152073 0)
(1.6934045 -0.64181857 0)
(1.6705795 -0.64188409 0)
(1.6475872 -0.64171635 0)
(1.6244451 -0.64131472 0)
(1.6011706 -0.64067885 0)
(1.5777809 -0.63980873 0)
(1.5542934 -0.63870468 0)
(1.5307252 -0.63736739 0)
(1.5070934 -0.63579789 0)
(1.4834151 -0.63399762 0)
(1.4597072 -0.6319684 0)
(1.4359866 -0.62971243 0)
(1.4122712 -0.62723223 0)
(2.3158936 -0.48542814 0)
(2.312853 -0.49295913 0)
(2.3087032 -0.50020784 0)
(2.3034895 -0.50718772 0)
(2.2972567 -0.51391382 0)
(2.2900464 -0.52039663 0)
(2.2818995 -0.52664713 0)
(2.2728548 -0.53267525 0)
(2.2629491 -0.53848735 0)
(2.2522199 -0.54409306 0)
(2.2406996 -0.54949647 0)
(2.2284222 -0.55470368 0)
(2.2154202 -0.55971908 0)
(2.2017238 -0.56454473 0)
(2.1873625 -0.56918467 0)
(2.1723632 -0.57364022 0)
(2.1567528 -0.57791255 0)
(2.1405573 -0.58200214 0)
(2.1238019 -0.5859092 0)
(2.1065106 -0.58963358 0)
(2.0887069 -0.59317467 0)
(2.0704131 -0.59653149 0)
(2.051651 -0.59970272 0)
(2.032442 -0.60268676 0)
(2.0128065 -0.60548177 0)
(1.9927647 -0.60808571 0)
(1.9723363 -0.61049636 0)
(1.9515404 -0.61271139 0)
(1.9303961 -0.61472839 0)
(1.9089218 -0.61654489 0)
(1.8871359 -0.61815842 0)
(1.8650564 -0.61956653 0)
(1.8427014 -0.62076683 0)
(1.8200884 -0.621757 0)
(1.7972352 -0.62253488 0)
(1.7741591 -0.62309843 0)
(1.7508775 -0.62344581 0)
(1.7274079 -0.62357538 0)
(1.7037674 -0.62348575 0)
(1.6799732 -0.62317578 0)
(1.6560425 -0.62264461 0)
(1.6319924 -0.62189169 0)
(1.60784 -0.6209168 0)