/*--------------------------------*- C++ -*----------------------------------*\
| =========                 |                                                 |
| \\      /  F ield         | OpenFOAM: The Open Source CFD Toolbox           |
|  \\    /   O peration     | Version:  2312                                  |
|   \\  /    A nd           | Website:  www.openfoam.com                      |
|    \\/     M anipulation  |                                                 |
\*---------------------------------------------------------------------------*/
FoamFile
{
    version     2.0;
    format      ascii;
    arch        "LSB;label=32;scalar=64";
    class       volScalarField;
    location    "0.04";
    object      CH4;
}
// * * * * * * * * * * * * * * * * * * * * * * * * * * * * * * * * * * * * * //

dimensions      [0 0 0 0 0 0 0];

internalField   nonuniform List<scalar> 
3250
(
0.10533755
0.10407968
0.10276734
0.10145251
0.10013962
0.09882645
0.097510796
0.096190547
0.094863676
0.093528184
0.092181902
0.090822144
0.089506221
0.088143807
0.086741587
0.08532399
0.083889909
0.082438529
0.080969274
0.079481766
0.077975805
0.076451362
0.074908573
0.073347732
0.071769296
0.070173881
0.068562261
0.066935373
0.065294309
0.063640313
0.061974766
0.060299151
0.058614989
0.056923774
0.055278355
0.053587158
0.051888684
0.050190731
0.048495415
0.046851062
0.045189988
0.043520744
0.041864315
0.04022289
0.038600049
0.036999116
0.035456942
0.033911616
0.032386182
0.10531802
0.10406015
0.10274802
0.10143416
0.10012218
0.098809864
0.097495005
0.0961755
0.094849339
0.093514545
0.092169
0.090810048
0.089494842
0.088132321
0.086730749
0.085313717
0.083880168
0.082429297
0.080960532
0.079473498
0.077967997
0.076444
0.074901645
0.073341226
0.0717632
0.070168185
0.068556955
0.066930447
0.065289753
0.06363612
0.06197093
0.060295669
0.058611865
0.056921012
0.055275928
0.053585037
0.051886884
0.050189248
0.048494251
0.046850206
0.045189395
0.043520481
0.04186443
0.040223631
0.038601192
0.036999924
0.035457747
0.033912438
0.032387408
0.10527878
0.10402056
0.10270875
0.10139672
0.10008648
0.098775777
0.097462421
0.096144326
0.094819503
0.093486026
0.092141882
0.090784493
0.089470593
0.088107757
0.086707336
0.085291334
0.083858744
0.082408784
0.080940889
0.079454691
0.077949996
0.076426777
0.074885173
0.073325482
0.071748163
0.070153832
0.068543267
0.066917403
0.065277336
0.063624315
0.06195973
0.06028508
0.058601905
0.056911703
0.05526721
0.053576831
0.051879231
0.050182136
0.048487683
0.046844161
0.04518375
0.043515382
0.041859907
0.040219795
0.038597881
0.036996741
0.03545479
0.033909667
0.032385102
0.10522067
0.10396058
0.10264953
0.10134023
0.10003253
0.098724197
0.09741305
0.096097021
0.094774154
0.093442595
0.092100504
0.090745493
0.089433429
0.088070113
0.086671329
0.085256809
0.083825601
0.082376948
0.0809103
0.079425296
0.077921748
0.076399634
0.074859097
0.073300437
0.071724114
0.070130749
0.068521119
0.066896161
0.065256974
0.06360481
0.061941073
0.060267284
0.058585011
0.056895747
0.055252102
0.053562439
0.051865618
0.050169286
0.048475597
0.04683281
0.045172936
0.043505324
0.041850621
0.040211321
0.038590103
0.036989433
0.035447949
0.033903185
0.032379194
0.10514555
0.10387937
0.10257042
0.10126473
0.099960385
0.098655168
0.097346927
0.096033615
0.09471331
0.093384243
0.092044832
0.090693138
0.089383338
0.08801944
0.086622759
0.085210165
0.083780755
0.082333803
0.080868775
0.079385321
0.077883261
0.076362579
0.074823421
0.073266093
0.071691058
0.070098938
0.068490513
0.066866722
0.065228664
0.063577601
0.061914951
0.060242271
0.058561171
0.056873145
0.055230609
0.053541859
0.051846041
0.05015069
0.048457982
0.046816139
0.045156941
0.043490293
0.041836557
0.040198233
0.038577906
0.036977989
0.035437206
0.033892967
0.032369706
0.10505193
0.10378233
0.10247724
0.10117571
0.099875281
0.098573705
0.097268854
0.09595871
0.094641379
0.093315166
0.091978811
0.090631365
0.08932393
0.087959451
0.086565175
0.085154805
0.08372748
0.0822825
0.08081935
0.079337692
0.077837355
0.076318329
0.074780767
0.073224978
0.07165143
0.070060748
0.068453713
0.066831267
0.06519451
0.06354471
0.061883306
0.060211897
0.058532161
0.056845606
0.055204363
0.053516655
0.051821985
0.050127763
0.048436185
0.046795431
0.045136999
0.043471455
0.041818816
0.040181583
0.03856229
0.036963326
0.035423422
0.033879824
0.032357417
0.10494471
0.10367304
0.10237284
0.10107598
0.099779898
0.09848237
0.097181291
0.095874668
0.09456063
0.093237519
0.091904402
0.09056232
0.089257054
0.087892067
0.086500427
0.085092515
0.083667498
0.082224704
0.080763636
0.079283968
0.077785539
0.076268347
0.074732551
0.073178466
0.071606564
0.070017472
0.068411974
0.066791014
0.065155693
0.063507285
0.061847247
0.060177231
0.058499011
0.05681414
0.055174334
0.053487762
0.051794351
0.050101373
0.048411041
0.046771489
0.045113897
0.043449566
0.041798129
0.040162086
0.038543948
0.036946086
0.035407199
0.033864347
0.032342912
0.10481606
0.10354326
0.10224909
0.10095776
0.099666806
0.098374045
0.09707741
0.095774934
0.094464757
0.093145197
0.0918155
0.090481017
0.089177385
0.087812033
0.086423467
0.085018434
0.083596128
0.082155903
0.080697282
0.079219954
0.077723768
0.076208732
0.074675012
0.073122929
0.071552959
0.069965735
0.068362043
0.066742826
0.065109188
0.063462407
0.061803957
0.060135552
0.058459116
0.056776324
0.055138207
0.053452941
0.051760994
0.05006947
0.048380599
0.046742457
0.045085846
0.043422932
0.041772894
0.040138238
0.038521469
0.036924947
0.035387288
0.03384533
0.03232505
0.10466466
0.10339175
0.10210468
0.10081977
0.099534763
0.098247531
0.096956052
0.095658391
0.094352688
0.093037131
0.091710461
0.0903874
0.089083747
0.087718436
0.086333423
0.084931715
0.083512547
0.0820753
0.080619517
0.079144903
0.077651318
0.076138781
0.074607468
0.073057705
0.071489977
0.069904918
0.068303318
0.066686122
0.065054432
0.063409526
0.061752893
0.060086315
0.058411933
0.056731732
0.05509556
0.053411762
0.051721486
0.050031639
0.048344459
0.04670795
0.045052476
0.043391196
0.041742767
0.040109709
0.038494542
0.036899622
0.03536342
0.033822509
0.032303581
0.10448885
0.1032172
0.10193822
0.10066067
0.09938247
0.098101571
0.096816005
0.09552387
0.094223312
0.09291231
0.091586876
0.090282308
0.088974535
0.087610328
0.086229374
0.084831464
0.083415889
0.081982055
0.080529526
0.079058023
0.077567421
0.076057752
0.074529198
0.072982098
0.07141694
0.069834364
0.068235165
0.066620285
0.064990826
0.06334806
0.06169348
0.060028928
0.058356849
0.056679955
0.055045953
0.053363762
0.051675371
0.049987439
0.048302199
0.046667562
0.045013392
0.043353977
0.041707381
0.040076144
0.03846283
0.036869812
0.035335306
0.033795608
0.032278234
0.10428653
0.1030182
0.10174831
0.10047907
0.099208567
0.097934851
0.096655998
0.095370147
0.09407548
0.092770025
0.091449908
0.090159146
0.088847327
0.08748684
0.086110356
0.084716741
0.083305241
0.081875283
0.08042645
0.078958483
0.077471271
0.07596486
0.074439444
0.072895369
0.071333133
0.069753382
0.068156912
0.066544667
0.064917742
0.063277399
0.061625112
0.059962751
0.058293133
0.056620642
0.054988933
0.053308449
0.05162216
0.049936399
0.048253367
0.04662086
0.044968178
0.043310874
0.041666342
0.040037158
0.038425965
0.036835209
0.03530265
0.03376433
0.032248724
0.10405463
0.10279338
0.10153346
0.10027349
0.09901164
0.097745999
0.096474703
0.095195937
0.093907944
0.092609084
0.091297209
0.090017189
0.088702001
0.087346753
0.085975341
0.084586557
0.083179646
0.081754054
0.080309388
0.078845407
0.077362019
0.075859282
0.074337405
0.072796744
0.071237805
0.069661241
0.068067852
0.066458582
0.064834519
0.063196901
0.061547161
0.059887106
0.058219846
0.056553603
0.05492402
0.053245285
0.05156133
0.049878018
0.048197485
0.046567384
0.044916392
0.043261458
0.041619235
0.039992334
0.038383534
0.03679551
0.035265145
0.033728367
0.032214748
0.10379164
0.1025411
0.1012921
0.10004243
0.098790212
0.097533584
0.096270735
0.09499989
0.093719348
0.092427918
0.091127246
0.089855433
0.088537968
0.087188941
0.085823254
0.084439878
0.083038099
0.081617393
0.080177392
0.078717876
0.077238771
0.075740152
0.074222241
0.072685406
0.071130164
0.069557175
0.067967243
0.066361313
0.064740462
0.063105902
0.061458986
0.059801304
0.058135633
0.056479027
0.054850667
0.053173675
0.051492318
0.049811764
0.048134049
0.046506652
0.044857573
0.043205282
0.041565615
0.039941215
0.038335054
0.036750447
0.035222482
0.03368739
0.032175984
0.10349715
0.10225948
0.10102259
0.099784301
0.098542749
0.097296121
0.096042654
0.094780606
0.093508249
0.092224469
0.090939399
0.089672493
0.088354331
0.087012286
0.085652985
0.084275622
0.08287955
0.08146428
0.080029471
0.078574926
0.077100592
0.075606561
0.074093069
0.072560499
0.071009379
0.069440377
0.067854304
0.066252104
0.064634846
0.06300371
0.061359952
0.059704765
0.058038238
0.056397994
0.054768106
0.053092946
0.051414517
0.049737073
0.048062526
0.046438157
0.044791234
0.043141876
0.041505019
0.039883301
0.038279896
0.036699869
0.035174341
0.033641047
0.032132089
0.10317007
0.10194676
0.10072321
0.099497455
0.09826766
0.097032066
0.095788966
0.094536643
0.093273223
0.091995708
0.090734587
0.089466218
0.088150053
0.086815637
0.085463379
0.084092661
0.082702901
0.081293648
0.079864588
0.07841555
0.076946503
0.075457556
0.073948965
0.072421125
0.070874578
0.069310002
0.067728216
0.066130164
0.064516909
0.062889606
0.061249434
0.059597376
0.05793326
0.056303741
0.054674935
0.053002341
0.051327286
0.049653348
0.047982359
0.046361367
0.044716868
0.043070751
0.041436966
0.039818051
0.038217082
0.036643967
0.035120372
0.033588952
0.032082692
0.10280899
0.10160117
0.10039222
0.099180197
0.0979633
0.096739824
0.095508129
0.094266539
0.093013196
0.091748084
0.090504763
0.089233219
0.087924137
0.086597791
0.085253234
0.08388982
0.082507007
0.081104381
0.079681658
0.078238694
0.076775478
0.075292143
0.073788961
0.072266345
0.070724849
0.069165166
0.06758812
0.065994663
0.064385855
0.062762835
0.061126748
0.059478544
0.057818479
0.056196969
0.054570428
0.052901131
0.051229953
0.049559964
0.047892964
0.046275728
0.044633946
0.042991402
0.041360977
0.039744953
0.038144715
0.036583916
0.035060061
0.033530657
0.032027396
0.10241167
0.10122082
0.10002782
0.098830777
0.097627971
0.096417746
0.095198549
0.093968746
0.09272604
0.091479201
0.09024765
0.088974727
0.087674946
0.08635744
0.085021293
0.083665873
0.082290675
0.080895319
0.079479552
0.078043257
0.076586449
0.075109281
0.073612046
0.072095175
0.070559238
0.06900494
0.067433119
0.065844734
0.064240847
0.062622597
0.06099113
0.059347475
0.057692369
0.056077645
0.054453948
0.052788607
0.051121829
0.049456267
0.047793736
0.046180662
0.044541919
0.042903308
0.041276595
0.039663847
0.038066131
0.036515619
0.034992455
0.03346566
0.031965773
0.10197619
0.10080381
0.099628136
0.098447401
0.097259929
0.096064132
0.094858585
0.093641777
0.092408284
0.091189216
0.089960694
0.08869042
0.087401088
0.086093239
0.084766252
0.08341955
0.082052666
0.080665254
0.079257095
0.077828096
0.076378301
0.074907887
0.073417166
0.071906591
0.070376748
0.06882836
0.067262276
0.065679466
0.064081005
0.062468042
0.060841755
0.059203283
0.057553739
0.055945343
0.054324837
0.052664071
0.051002199
0.049341571
0.047684053
0.046075573
0.044440215
0.042805929
0.041183358
0.039574515
0.037980705
0.036438475
0.034916966
0.033393473
0.031897379
0.10150057
0.10034819
0.099191295
0.09802823
0.096857386
0.095677231
0.094486527
0.093284728
0.092066991
0.090868892
0.089639708
0.088379562
0.087101197
0.0858038
0.084486757
0.083149531
0.081791694
0.080412934
0.079013064
0.077592022
0.076149878
0.074686833
0.073203225
0.071699526
0.070176343
0.068634415
0.06707461
0.065497912
0.063905411
0.062298279
0.060677739
0.059045042
0.057401552
0.055799431
0.054182363
0.052526841
0.050870323
0.049215152
0.047563284
0.04595985
0.044328238
0.042698695
0.041080737
0.03947644
0.037887486
0.036352327
0.034833057
0.033313657
0.031821752
0.10210974
0.1009829
0.099851991
0.098715368
0.097571391
0.096418519
0.095255238
0.094080402
0.092895651
0.091699371
0.090513954
0.089287705
0.088040273
0.086773788
0.085487688
0.084181407
0.082854451
0.081506428
0.080137062
0.078746197
0.077333803
0.075899978
0.074444951
0.072969084
0.071472872
0.069956944
0.068422059
0.066869103
0.06529908
0.063713102
0.062112369
0.060498154
0.058871804
0.057234836
0.055639162
0.054025822
0.052376131
0.05072541
0.049076227
0.047430812
0.045832864
0.044205361
0.042581
0.040968157
0.039369013
0.037785571
0.036256924
0.034740332
0.03322568
0.031738408
0.1015235
0.100421
0.099313199
0.098198406
0.097074983
0.095941486
0.094796337
0.093637865
0.092471551
0.091306271
0.090119875
0.088905079
0.087671049
0.086417342
0.085143422
0.083848761
0.082532903
0.081195495
0.079836296
0.078455185
0.077052163
0.075627359
0.07418103
0.072713563
0.07122548
0.069717432
0.068190202
0.066644696
0.065081942
0.063503077
0.061909332
0.060302033
0.0586826
0.057052638
0.055463722
0.053854469
0.052211119
0.050566614
0.048923914
0.047286087
0.045693973
0.04407092
0.042452194
0.040844986
0.039251569
0.037674154
0.036151886
0.034638379
0.033129019
0.031646842
0.10088901
0.099812775
0.098729777
0.097638447
0.096537084
0.095424441
0.094298869
0.09315615
0.092022137
0.090870494
0.089689854
0.088489962
0.087270284
0.086030301
0.084769483
0.083487334
0.082183439
0.080857482
0.079509259
0.078138683
0.07674579
0.07533074
0.073893819
0.072435444
0.070956163
0.069456652
0.067937718
0.066400293
0.06484543
0.063274292
0.06168815
0.060088372
0.058476439
0.056854003
0.055272249
0.053667512
0.052030976
0.050393035
0.048757111
0.047128771
0.045542508
0.043924201
0.042311584
0.040710549
0.039123418
0.037552507
0.036036742
0.034526746
0.033023155
0.031546523
0.10020425
0.099156128
0.098099687
0.097033537
0.095955743
0.094865515
0.09376176
0.092643839
0.091533135
0.090389139
0.089224573
0.088040636
0.086836334
0.085611068
0.084364313
0.083095608
0.081804576
0.08049094
0.079154534
0.077795309
0.076413333
0.075008802
0.073582033
0.072133473
0.070663697
0.06917341
0.067663445
0.066134761
0.064588437
0.06302567
0.061447767
0.05985614
0.058252311
0.056637958
0.055063842
0.053464121
0.05183488
0.05020374
0.048574163
0.046959127
0.045377684
0.043764416
0.042158427
0.040564128
0.038983849
0.037419935
0.035910956
0.03440494
0.032907551
0.031436879
0.10047684
0.099467327
0.098448995
0.097420875
0.096381775
0.095328972
0.094262615
0.093181955
0.092099723
0.090995604
0.089868584
0.088722117
0.087555364
0.086367529
0.085158017
0.083926327
0.082672033
0.081394799
0.080094388
0.078770674
0.077423646
0.07605341
0.074660195
0.073244352
0.071806361
0.070346825
0.06886648
0.067366186
0.065846931
0.064309825
0.062756099
0.061187096
0.05960427
0.058009181
0.056403514
0.054837574
0.053243449
0.051622049
0.049997934
0.048371903
0.046779138
0.045198256
0.043590689
0.04199194
0.040404976
0.038832141
0.037275768
0.035773962
0.034272446
0.03278166
0.031317247
0.09965219
0.09867613
0.097689283
0.096691244
0.095681408
0.094654752
0.093613654
0.092569954
0.091501872
0.090414738
0.089307959
0.088180781
0.087032421
0.085862182
0.084669504
0.083453917
0.082215036
0.080952568
0.079666318
0.078356203
0.077022252
0.075664609
0.074283539
0.072879429
0.071452791
0.070004262
0.068534606
0.067044715
0.065535607
0.064008424
0.062464433
0.060905017
0.059331672
0.05774599
0.056149657
0.054592489
0.053004631
0.05139178
0.049775768
0.048157522
0.04657968
0.045002485
0.043402155
0.041811319
0.040232317
0.038667554
0.037119347
0.035625181
0.034128741
0.032644944
0.03118671
0.098769304
0.097828772
0.096874874
0.095908525
0.094931089
0.093930972
0.092929547
0.091901873
0.090855681
0.089790781
0.088705476
0.08759883
0.086470085
0.085318606
0.084143874
0.082945462
0.081723028
0.080476326
0.079205206
0.077909629
0.076589664
0.075245497
0.073877432
0.072485891
0.071071422
0.069634695
0.068176506
0.066697779
0.065199564
0.063683036
0.0621495
0.060600384
0.059037226
0.057461655
0.055875356
0.054327605
0.052746758
0.051143241
0.04953641
0.04792772
0.046361949
0.044789762
0.043198001
0.04161575
0.040045345
0.038489317
0.036950041
0.035464038
0.033973325
0.032497044
0.097826588
0.096923678
0.096003588
0.095069857
0.094130608
0.093168069
0.092184668
0.091183488
0.090162793
0.089121805
0.088059344
0.086974525
0.08586664
0.084735112
0.083579471
0.082399335
0.081194414
0.079964507
0.078709514
0.077429442
0.076124403
0.074794626
0.073440454
0.072062349
0.070660894
0.069236795
0.067790881
0.066324108
0.064837558
0.063332443
0.061810106
0.060272023
0.058719788
0.057155074
0.055579558
0.054041915
0.052468871
0.050875482
0.049278767
0.047680569
0.046125939
0.044559639
0.042977379
0.041404405
0.039843216
0.038296598
0.036767294
0.035289959
0.033805734
0.032338562
0.09682278
0.095959905
0.095073205
0.094188143
0.093273542
0.092340841
0.091388074
0.09041529
0.089421536
0.088406013
0.087367807
0.086306143
0.085220389
0.08411003
0.082974649
0.081813919
0.080627601
0.079415546
0.078177706
0.076914133
0.075624987
0.074310542
0.07297118
0.071607405
0.070219838
0.06880922
0.067376416
0.065922415
0.064448331
0.062955411
0.061445038
0.059918742
0.058378189
0.05682512
0.055261202
0.053734395
0.052169973
0.050587488
0.049001716
0.047414717
0.045871146
0.044311538
0.042739513
0.041176466
0.039625031
0.038088387
0.036570759
0.035102334
0.033625224
0.032167493
0.095757286
0.094937923
0.09409255
0.093237094
0.092358686
0.091459279
0.090538354
0.089595574
0.088630256
0.087641699
0.086629167
0.085592007
0.084529673
0.083441719
0.08232779
0.081187616
0.080021014
0.078827892
0.077608252
0.076362198
0.075089938
0.07379179
0.072468182
0.071119659
0.069746881
0.068350626
0.066931795
0.065491409
0.064030617
0.062550697
0.061053073
0.059539332
0.058011238
0.056470646
0.054919229
0.053404016
0.051849041
0.050278209
0.048704159
0.047129064
0.045596866
0.044044786
0.042483651
0.040931141
0.039389848
0.037863151
0.036360748
0.034900436
0.033431004
0.031983082
0.094623672
0.093846954
0.093046643
0.092227733
0.091386124
0.090521671
0.089634017
0.088722766
0.087787371
0.086827248
0.085841803
0.084830501
0.083792885
0.082728585
0.081637314
0.080518863
0.07937311
0.078200019
0.076999648
0.075772153
0.074517794
0.073236933
0.071930047
0.070597721
0.069240658
0.067859674
0.066455705
0.065029806
0.063583157
0.062117065
0.06063299
0.05913258
0.05761772
0.056090481
0.054552615
0.053049759
0.051505034
0.049946568
0.048385017
0.046822649
0.045302331
0.043758653
0.042209058
0.040667724
0.039136867
0.03761766
0.036139687
0.034682936
0.033222253
0.031784694
0.093425412
0.092693241
0.091936935
0.091157821
0.090354503
0.089526556
0.088673648
0.08779541
0.086891402
0.085961151
0.08500419
0.084020091
0.083008492
0.081969101
0.080901701
0.079806151
0.078682391
0.077530444
0.076350427
0.07514255
0.073907123
0.072644561
0.071355384
0.070040224
0.068699825
0.067335043
0.065946851
0.064536336
0.063104706
0.061653295
0.060183586
0.058697277
0.057196399
0.055683395
0.054160432
0.052670634
0.051136889
0.049591443
0.048043171
0.046494646
0.044986773
0.043452375
0.041915009
0.040385677
0.038866539
0.03735909
0.035898347
0.034448156
0.032998291
0.031571702
0.092160777
0.091474967
0.090763315
0.090026039
0.089262603
0.088472672
0.087655968
0.086812191
0.085940997
0.085042024
0.084114916
0.083159351
0.082175057
0.081161825
0.080119511
0.079048043
0.077947425
0.076817746
0.075659178
0.074471989
0.073256542
0.072013304
0.070742843
0.069445836
0.068123071
0.066775445
0.065403967
0.064009758
0.062594053
0.061158202
0.0597037
0.058232257
0.056746015
0.055247992
0.053742032
0.052265676
0.050743514
0.049211635
0.047677328
0.046144512
0.04464946
0.043125156
0.041600729
0.040084285
0.038578066
0.037084031
0.035638136
0.03419607
0.032758279
0.031343457
0.090828917
0.090191098
0.089525296
0.088831479
0.088109435
0.087358966
0.086579881
0.085771961
0.084934964
0.08406863
0.083172711
0.082246982
0.081291263
0.080305426
0.079289402
0.078243193
0.077166868
0.076060579
0.074924561
0.073759138
0.072564729
0.071341853
0.070091127
0.068813277
0.067509134
0.066179636
0.064825832
0.063448875
0.062050027
0.060630652
0.059192236
0.057736436
0.056265306
0.054782257
0.053297648
0.051833851
0.050323774
0.048805849
0.047285547
0.045772549
0.044289632
0.042776128
0.041265377
0.039762694
0.038270425
0.036790785
0.035359173
0.033926446
0.032501609
0.031099348
0.089429521
0.088841129
0.088222468
0.087573528
0.086894272
0.086184628
0.085444504
0.084673775
0.083872297
0.083039912
0.08217647
0.081281842
0.080355936
0.079398706
0.078410161
0.077390373
0.076339482
0.075257703
0.074145334
0.073002757
0.071830448
0.070628978
0.069399017
0.068141338
0.066856817
0.065546436
0.064211283
0.062852547
0.061471517
0.060069577
0.058648193
0.057208906
0.055753214
0.054281682
0.052830707
0.051373443
0.049876562
0.04837295
0.046863533
0.04538195
0.043905934
0.042404287
0.040908048
0.039419981
0.0379426
0.036478366
0.035061166
0.033638896
0.032227739
0.030838805
0.087962721
0.087424989
0.086854681
0.086251879
0.085616676
0.084949116
0.084249207
0.083516922
0.082752212
0.081955017
0.081125282
0.08026297
0.079368074
0.078440631
0.077480725
0.0764885
0.075464166
0.074408003
0.073320372
0.072201716
0.071052567
0.06987355
0.068665386
0.067428899
0.06616501
0.064874747
0.063559236
0.062219708
0.060857484
0.059473975
0.058070661
0.056649055
0.055210594
0.053756278
0.052328355
0.05088231
0.049401322
0.047913828
0.046420829
0.044961592
0.043495328
0.042008673
0.040527848
0.039055178
0.037593517
0.036146266
0.034743731
0.033332939
0.031936138
0.030561282
0.086429079
0.085943031
0.085422134
0.084866568
0.084276539
0.083652198
0.082993648
0.08230096
0.081574178
0.080813336
0.080018467
0.079189624
0.078326883
0.077430358
0.076500212
0.07553666
0.07453998
0.073510519
0.0724487
0.071355026
0.070230087
0.069074564
0.067889229
0.066674955
0.065432713
0.064163572
0.062868706
0.061549383
0.060206967
0.05884291
0.057458734
0.056056009
0.054636298
0.053201111
0.051793244
0.05036043
0.048897209
0.047427498
0.04595292
0.044513245
0.043058436
0.041588487
0.040123975
0.03866729
0.037221637
0.035794857
0.034406433
0.033008021
0.03162627
0.030266256
0.084829614
0.084396048
0.083925427
0.083418018
0.082874121
0.082293986
0.081677811
0.081025758
0.080337959
0.079614536
0.078855609
0.078061312
0.077231803
0.076367273
0.075467958
0.074534144
0.073566179
0.072564474
0.071529514
0.070461864
0.069362171
0.068231169
0.067069685
0.065878641
0.064659055
0.063412044
0.062138824
0.060840709
0.059519107
0.058175521
0.05681154
0.055428821
0.054029071
0.052614042
0.051225749
0.049807641
0.048363442
0.046912842
0.045457904
0.044037216
0.042595407
0.041143193
0.039695869
0.038255516
0.036823273
0.03542739
0.034048242
0.032663473
0.031297589
0.02995323
0.083165817
0.082785299
0.082365613
0.081907081
0.08141009
0.080874983
0.080302049
0.079691533
0.07904365
0.078358603
0.077636593
0.076877831
0.076082551
0.075251021
0.074383546
0.073480482
0.072542244
0.071569308
0.070562221
0.069521607
0.068448168
0.067342696
0.066206069
0.065039258
0.063843331
0.062619449
0.061368874
0.060092962
0.058793171
0.05747106
0.056128292
0.054766632
0.053387908
0.051993951
0.050625602
0.049223541
0.047799287
0.046368885
0.044934956
0.043533432
0.042106077
0.040672466
0.039243418
0.037821083
0.036407119
0.035033963
0.033666739
0.032298738
0.030949604
0.029621759
0.081439648
0.081112549
0.080744239
0.080335083
0.079885562
0.079396119
0.078867123
0.078298894
0.077691721
0.07704588
0.076361646
0.075639304
0.074879159
0.074081548
0.073246848
0.072375481
0.071467924
0.070524719
0.069546471
0.068533863
0.067487656
0.066408692
0.065297903
0.06415631
0.062985026
0.06178526
0.060558314
0.059305589
0.058028588
0.056728925
0.055408344
0.054068731
0.052712067
0.051340194
0.049992468
0.048607707
0.047204065
0.045794683
0.044383965
0.043001743
0.041590125
0.040175944
0.038766249
0.037363329
0.035969268
0.034616541
0.033263047
0.031913272
0.030581905
0.029271479
0.079653316
0.079380142
0.079063408
0.078703871
0.078302144
0.077858791
0.077374244
0.076848882
0.076283057
0.075677111
0.075031383
0.074346226
0.073622013
0.072859146
0.072058066
0.071219261
0.07034327
0.069430692
0.068482195
0.067498517
0.066480473
0.065428959
0.064344956
0.063229535
0.062083855
0.060909168
0.059706817
0.058478245
0.05722499
0.055948712
0.054651231
0.053334587
0.052001021
0.050652489
0.049326184
0.047959911
0.046577336
0.045189049
0.043805758
0.042441705
0.041047096
0.039653211
0.038263875
0.036881502
0.035508385
0.034175719
0.032837558
0.031506928
0.030194256
0.028902138
0.077807037
0.077589243
0.077325861
0.07701586
0.076661959
0.076264901
0.075825115
0.075343016
0.074819007
0.074253485
0.073646848
0.072999509
0.072311901
0.07158449
0.070817776
0.070012306
0.069168679
0.068287553
0.067369651
0.066415763
0.06542676
0.064403588
0.063347277
0.062258945
0.061139796
0.059991124
0.058814312
0.057610833
0.056382256
0.055130268
0.053856734
0.052563854
0.051254362
0.049931016
0.048626846
0.047280287
0.045919427
0.044549887
0.04320377
0.041850963
0.040476418
0.039103859
0.037735818
0.036374988
0.035024212
0.033711802
0.032390408
0.031079685
0.029786554
0.028513609
0.075912251
0.075743334
0.075531551
0.075274061
0.074967639
0.074616893
0.074221976
0.073783338
0.073301427
0.072776685
0.072209563
0.071600525
0.07095006
0.07025869
0.06952697
0.068755505
0.067944946
0.067096007
0.066209462
0.065286155
0.064327005
0.063333008
0.062305242
0.061244869
0.060153137
0.05903138
0.057881016
0.056703551
0.055500572
0.054273764
0.05302497
0.051756406
0.050471377
0.049176973
0.047894569
0.046568988
0.04523164
0.043886123
0.042566813
0.041230115
0.039878056
0.038527748
0.037181675
0.035842917
0.034517653
0.033225086
0.031921685
0.030631592
0.029358819
0.02810589
0.073969316
0.073852498
0.073688655
0.073476437
0.073222105
0.072917822
0.072567658
0.072172462
0.071732728
0.071248936
0.070721576
0.070151159
0.069538223
0.068883338
0.068187113
0.067450201
0.066673305
0.065857187
0.065002671
0.06411065
0.063182089
0.06221803
0.061219598
0.060187997
0.059124515
0.058030526
0.056907486
0.055756929
0.054580461
0.053379757
0.052156541
0.050912501
0.049648672
0.048395665
0.04712856
0.045825765
0.04451335
0.043193538
0.041899028
0.040580826
0.039252363
0.037925142
0.036601283
0.035282079
0.033993207
0.03271525
0.031431454
0.030162778
0.028911193
0.02767912
0.07198253
0.071916706
0.071801432
0.071637391
0.071425364
0.071170702
0.070865633
0.070513618
0.070115928
0.069673053
0.069185512
0.068653857
0.068078669
0.067460562
0.066800189
0.066098247
0.065355486
0.06457271
0.06375079
0.062890662
0.061993337
0.061059899
0.060091513
0.059089426
0.058054965
0.056989543
0.05589465
0.054771856
0.053622802
0.052449184
0.051252735
0.050035162
0.048798009
0.047575016
0.046328018
0.045050684
0.043764356
0.042471959
0.041202046
0.039904144
0.03860011
0.037297076
0.035997227
0.034702393
0.033441024
0.03218096
0.030919792
0.029673492
0.028443974
0.027233604
0.069958667
0.069941384
0.069874406
0.069757222
0.069591081
0.069376607
0.069119124
0.068810687
0.068454695
0.068052493
0.067604625
0.067111681
0.06657428
0.065993075
0.065368755
0.064702055
0.063993764
0.063244727
0.062455852
0.061628118
0.060762573
0.059860343
0.05892263
0.057950718
0.056945972
0.055909841
0.054843854
0.053749618
0.052628819
0.051483207
0.050314586
0.049124785
0.04791565
0.0467202
0.04549527
0.044244399
0.042984732
0.041723102
0.04047687
0.039200847
0.037922065
0.036644258
0.035369727
0.034100593
0.032864655
0.031624485
0.030387204
0.02916426
0.027957686
0.026769851
0.067904383
0.067933736
0.067912755
0.067841551
0.067719988
0.067549239
0.067329895
0.067067385
0.066753416
0.066391417
0.065982848
0.065528354
0.065028589
0.06448423
0.063895997
0.063264654
0.062591022
0.06187598
0.061120472
0.060325509
0.059492176
0.058621633
0.057715118
0.056773948
0.055799523
0.054793324
0.053756915
0.052691944
0.051600146
0.050483337
0.049343409
0.048182291
0.047001909
0.045833864
0.044632591
0.043408544
0.042172862
0.040952914
0.039722856
0.038471703
0.037219079
0.035967444
0.03471924
0.033476682
0.032265998
0.031047358
0.029834721
0.028635947
0.027453121
0.026288609
0.065826712
0.065900907
0.065923781
0.065896272
0.065818214
0.06568978
0.065512006
0.065285585
0.065016825
0.064694755
0.064324841
0.063908317
0.063445833
0.062938078
0.062385788
0.061789749
0.061150807
0.060469867
0.059747903
0.058985956
0.058185139
0.057346644
0.056471738
0.05556177
0.054618168
0.053642441
0.052636185
0.051601083
0.050538913
0.049451563
0.048341027
0.047209349
0.046058475
0.044918338
0.043742401
0.042546865
0.041339997
0.040150934
0.038941986
0.037718035
0.036492434
0.035267734
0.034046704
0.032831903
0.031646754
0.030450995
0.029263606
0.028089696
0.026931344
0.025790885
0.063733633
0.063850352
0.063915292
0.063928902
0.06389236
0.063804924
0.063667053
0.06347917
0.063247858
0.06296815
0.062636004
0.062256758
0.061831006
0.061359421
0.060842746
0.06028178
0.059677388
0.059030497
0.058342102
0.057613267
0.056845133
0.056038914
0.055195905
0.054317478
0.053405086
0.052460263
0.051484624
0.050479876
0.049447832
0.048390437
0.047309805
0.046208211
0.045087853
0.043976098
0.04282674
0.04166062
0.04048382
0.039323397
0.038137868
0.036941942
0.035744004
0.034546686
0.033353234
0.032168647
0.031008678
0.029836888
0.028675311
0.027526909
0.026393704
0.025277974
0.061425885
0.061634294
0.061790635
0.061895131
0.061948152
0.061950081
0.06190227
0.061803207
0.061654267
0.061456453
0.061214575
0.060922473
0.06057967
0.060189913
0.059753873
0.059272293
0.058745986
0.058175827
0.057562759
0.056907792
0.056212011
0.055476573
0.054702715
0.053891751
0.053045073
0.052164153
0.051250541
0.050305869
0.049331849
0.048330295
0.047303152
0.046252585
0.045181285
0.044093837
0.043010086
0.041887841
0.040751364
0.039606913
0.038474117
0.037313542
0.036146112
0.03497634
0.033806412
0.032638068
0.03149309
0.030352783
0.029206684
0.028071533
0.026949289
0.025841867
0.024751482
0.059293271
0.059538024
0.059731013
0.059872329
0.05996224
0.060001048
0.059989429
0.059927873
0.0598156
0.059653999
0.059443584
0.059189401
0.058883958
0.058529253
0.058127926
0.057680725
0.057188467
0.056652037
0.056072385