/*--------------------------------*- C++ -*----------------------------------*\
| =========                 |                                                 |
| \\      /  F ield         | OpenFOAM: The Open Source CFD Toolbox           |
|  \\    /   O peration     | Version:  2312                                  |
|   \\  /    A nd           | Website:  www.openfoam.com                      |
|    \\/     M anipulation  |                                                 |
\*---------------------------------------------------------------------------*/
FoamFile
{
    version     2.0;
    format      ascii;
    arch        "LSB;label=32;scalar=64";
    class       volScalarField;
    location    "0.04";
    object      CO2;
}
// * * * * * * * * * * * * * * * * * * * * * * * * * * * * * * * * * * * * * //

dimensions      [0 0 0 0 0 0 0];

internalField   nonuniform List<scalar> 
3250
(
0.051753924
0.051964501
0.052211583
0.052485303
0.052783518
0.05310529
0.053449619
0.053815447
0.054201654
0.054607075
0.055030563
0.055471093
0.055907675
0.056368172
0.056848719
0.057338908
0.057836952
0.058340918
0.058848745
0.059358263
0.059867195
0.060373167
0.06087371
0.061366268
0.061848204
0.062316802
0.062769279
0.063202788
0.063614431
0.064001267
0.064360322
0.064688612
0.064983159
0.065241011
0.065452661
0.065627352
0.065757268
0.065839035
0.06586997
0.065848127
0.065770778
0.065634534
0.06543824
0.065179971
0.064857664
0.064470302
0.064027383
0.063510052
0.062923395
0.051744448
0.05195555
0.052203173
0.052477211
0.052775708
0.053097736
0.053442301
0.053808342
0.054194738
0.054600319
0.055023925
0.055464525
0.055901176
0.056362006
0.056842622
0.057332872
0.057830969
0.058334977
0.058842836
0.059352375
0.059861318
0.06036729
0.060867825
0.061360367
0.061842278
0.062310844
0.062763283
0.063196748
0.063608342
0.063995123
0.06435412
0.064682348
0.064976827
0.065234612
0.065446191
0.065620817
0.06575067
0.065832372
0.065863247
0.065841344
0.065763938
0.065627639
0.065431273
0.065172886
0.064850582
0.064463222
0.064020296
0.063502891
0.062916138
0.051726232
0.05193843
0.052187077
0.052461756
0.052760832
0.053083391
0.05342844
0.053794924
0.054181715
0.054587634
0.055011487
0.055452231
0.055889045
0.056350551
0.056831314
0.0573217
0.057819912
0.058324013
0.058831942
0.059341527
0.059850494
0.06035647
0.060856988
0.061349493
0.06183135
0.062299845
0.062752197
0.063185561
0.063597042
0.063983697
0.064342557
0.064670635
0.064964951
0.065222565
0.065433973
0.065608435
0.065738119
0.065819651
0.06585036
0.065828295
0.065750722
0.065614263
0.06541772
0.065159147
0.064836753
0.064449312
0.064006304
0.063488732
0.062901813
0.051699137
0.051913216
0.052163301
0.052438932
0.052738882
0.053062243
0.053408027
0.053775179
0.054162572
0.054569008
0.054993242
0.055434179
0.055871263
0.056333777
0.056814768
0.057305361
0.057803751
0.058307994
0.058816029
0.059325686
0.05983469
0.06034067
0.06084116
0.061333609
0.06181538
0.062283764
0.062735981
0.063169187
0.063580489
0.063966946
0.06432559
0.06465343
0.064947487
0.065204825
0.065415963
0.065590161
0.065719571
0.065800828
0.065831264
0.065808935
0.06573109
0.065594367
0.065397552
0.065138719
0.064816143
0.064428541
0.06398538
0.063467574
0.062880451
0.051662897
0.051880086
0.05213188
0.052408777
0.052709893
0.053034325
0.053381092
0.05374914
0.054137343
0.054544482
0.054969237
0.055410375
0.055847866
0.056311698
0.056793005
0.057283882
0.057782511
0.058286945
0.058795124
0.059304876
0.059813929
0.060319914
0.060820367
0.061312738
0.061794394
0.062262627
0.062714658
0.06314765
0.063558708
0.063944896
0.064303244
0.064630761
0.064924462
0.065181419
0.065392185
0.065566019
0.065695052
0.065775929
0.065805987
0.065783293
0.065705069
0.065567981
0.065370804
0.065111631
0.064788782
0.064400939
0.063957559
0.063439455
0.062852098
0.051621214
0.051841536
0.052095081
0.05237348
0.052675971
0.053001667
0.053349591
0.053718698
0.054107862
0.054515851
0.054941246
0.055382499
0.055820564
0.056285907
0.0567676
0.057258815
0.057757729
0.058262391
0.058770739
0.059280605
0.059789717
0.060295707
0.060796115
0.061288393
0.061769911
0.062237964
0.062689775
0.06312251
0.063533278
0.063919145
0.064277141
0.064604273
0.064897547
0.065154042
0.065364363
0.065537762
0.065666341
0.065746763
0.065776365
0.065753231
0.06567455
0.065537024
0.065339419
0.065079849
0.064756659
0.064368515
0.063924865
0.063406418
0.062818813
0.051575081
0.05179864
0.052054033
0.052334106
0.052638136
0.052965246
0.053314467
0.053684761
0.054075006
0.054483972
0.054910141
0.055351313
0.055790174
0.05625716
0.056739294
0.057230893
0.057730127
0.058235045
0.058743584
0.059253576
0.059762753
0.060268749
0.060769107
0.06126128
0.061742642
0.06221049
0.062662053
0.063094498
0.063504939
0.063890444
0.064248043
0.064574742
0.064867535
0.065123498
0.065333314
0.065506221
0.065634288
0.065714194
0.065743279
0.065719646
0.065640445
0.065502425
0.06530434
0.065044324
0.064720741
0.064332251
0.063888291
0.06336947
0.06278161
0.051520857
0.051748034
0.052005557
0.052287605
0.052593455
0.052922238
0.053272996
0.053644695
0.054036229
0.054446387
0.054873605
0.055314259
0.055754373
0.056223224
0.056705888
0.057197947
0.057697564
0.058202785
0.05871155
0.059221693
0.059730947
0.060236949
0.060737245
0.061229293
0.061710469
0.062178074
0.06262934
0.06306144
0.06347149
0.063856563
0.064213693
0.064539877
0.064832096
0.06508741
0.065296622
0.065468946
0.065596403
0.065675693
0.06570416
0.065679927
0.065600106
0.065461492
0.065262837
0.06500229
0.064678235
0.064289327
0.063844994
0.063325729
0.062737575
0.051457972
0.051689161
0.051949142
0.052233484
0.052541454
0.052872188
0.053224736
0.053598074
0.053991113
0.054402702
0.05483146
0.055270642
0.055712866
0.056183732
0.056667019
0.057159618
0.057659682
0.058165259
0.058674288
0.059184606
0.059693949
0.060199958
0.060700182
0.061192082
0.061673039
0.062140358
0.062591276
0.063022969
0.063432561
0.063817129
0.06417371
0.064499298
0.064790844
0.065045371
0.065253875
0.065425519
0.065552262
0.065630829
0.065658569
0.065633632
0.065553079
0.065413769
0.065214445
0.064953274
0.064628662
0.064239266
0.063794492
0.063274707
0.062686214
0.051385878
0.051621447
0.051884249
0.05217123
0.052481639
0.052814618
0.053169225
0.053544449
0.053939217
0.054352466
0.054783745
0.055219428
0.05566547
0.056138288
0.056622299
0.057115525
0.057616108
0.058122095
0.058631427
0.059141946
0.059651391
0.060157406
0.060657545
0.061149272
0.061629975
0.062096962
0.062547476
0.062978698
0.06338776
0.063771744
0.064127693
0.064452598
0.064743374
0.064996939
0.065204632
0.065375498
0.065501418
0.065579148
0.065606045
0.06558029
0.065498888
0.065358769
0.065158669
0.064896775
0.064571517
0.064181563
0.063736275
0.063215888
0.062627004
0.051304079
0.051544301
0.051810319
0.052100306
0.052413494
0.052749029
0.053105981
0.053483349
0.053880072
0.054295088
0.054727934
0.055162014
0.055612246
0.056086436
0.056571323
0.05706527
0.057566445
0.058072899
0.058582577
0.059093324
0.059602883
0.060108903
0.060608942
0.061100471
0.06158088
0.062047485
0.062497535
0.062928217
0.063336669
0.063719984
0.064075214
0.064399354
0.06468927
0.064941637
0.065148425
0.065318415
0.065443396
0.065520168
0.065546098
0.065519404
0.065437026
0.065295978
0.065094987
0.06483226
0.064506261
0.064115688
0.063669808
0.06314873
0.062559395
0.051212218
0.051457084
0.051726773
0.05202016
0.052336484
0.052674905
0.053034503
0.05341429
0.053813207
0.054230103
0.054663963
0.05509783
0.055552431
0.056027803
0.05651367
0.057008433
0.057510277
0.058017258
0.058527326
0.059038329
0.059548015
0.060054038
0.060553961
0.061045262
0.061525336
0.061991505
0.062441025
0.062871091
0.063278849
0.063661404
0.064015822
0.064339116
0.064628117
0.064878936
0.065084759
0.06525378
0.065377701
0.065453383
0.065478212
0.06545045
0.065366961
0.065224857
0.065022847
0.064759167
0.064432325
0.064041089
0.063594529
0.063072661
0.06248281
0.051109642
0.051359186
0.051633018
0.051930218
0.052250056
0.052591709
0.05295427
0.053336766
0.053738147
0.054157134
0.054591453
0.055026361
0.055485383
0.055961952
0.056448896
0.056944574
0.057447168
0.05795474
0.058465243
0.058976529
0.059486355
0.059992378
0.060492168
0.060983208
0.061462901
0.061928576
0.062377495
0.062806864
0.063213838
0.063595533
0.063949039
0.064271409
0.064559535
0.064808217
0.065013122
0.065181081
0.065303807
0.06537826
0.065401846
0.065372877
0.065288134
0.065144834
0.064941672
0.064676901
0.064349094
0.063957201
0.063509849
0.062987081
0.062396642
0.05099547
0.051250014
0.051528449
0.051829892
0.052153641
0.052498888
0.052864744
0.053250256
0.053654413
0.054075933
0.05450968
0.054947189
0.055410528
0.055888401
0.056376539
0.056873234
0.057376663
0.05788489
0.058395874
0.058907474
0.059417451
0.059923469
0.060423105
0.060913849
0.061393111
0.061858229
0.062306472
0.062735056
0.063141146
0.063521875
0.063874354
0.064195708
0.064483245
0.064728702
0.064933001
0.065099785
0.065221169
0.065294238
0.065316429
0.065286106
0.065199957
0.065055315
0.064850851
0.064584835
0.064255896
0.063863467
0.063415155
0.062891358
0.062300254
0.050868901
0.051128931
0.051412445
0.051718579
0.052046651
0.052395873
0.05276537
0.053154215
0.053561481
0.05398655
0.054417348
0.054860131
0.055327299
0.055806646
0.056296108
0.05679393
0.057298283
0.057807234
0.058318748
0.05883069
0.059340829
0.059846835
0.060346295
0.060836704
0.061315481
0.061779972
0.062227458
0.062655161
0.063060261
0.063439904
0.063791225
0.06411139
0.064397763
0.064640755
0.064843945
0.06500934
0.065129209
0.065200731
0.065221364
0.06518953
0.065101813
0.064955674
0.064749751
0.064482306
0.064151943
0.063759389
0.063309803
0.062784828
0.062192981
0.050729166
0.050995279
0.051284372
0.051595662
0.051928487
0.052282078
0.052655574
0.05304807
0.053458675
0.053885768
0.054316167
0.054765406
0.055235078
0.055716161
0.056207098
0.056706163
0.057211531
0.057721276
0.058233369
0.058745683
0.059255992
0.059761979
0.060261235
0.060751266
0.0612295
0.061693291
0.06213993
0.062566652
0.062970646
0.063349074
0.063699088
0.064017872
0.064302742
0.064543584
0.064745373
0.064909158
0.065027326
0.065097124
0.065116025
0.065082514
0.064993058
0.064845259
0.064637714
0.064368638
0.064036185
0.063644686
0.063193096
0.062666793
0.062074125
0.05057564
0.050848401
0.051143588
0.051460514
0.051798536
0.052156904
0.052534768
0.052931245
0.053345645
0.053773318
0.054205917
0.054661576
0.055133438
0.055616421
0.056108983
0.056609411
0.057115889
0.057626499
0.058139221
0.058651934
0.059162424
0.05966838
0.060167403
0.060657008
0.061134634
0.061597645
0.062043342
0.062468972
0.062871737
0.063248811
0.06359736
0.06391457
0.064197702
0.064436475
0.064636658
0.064798616
0.064914885
0.06498277
0.064999756
0.064964393
0.064873019
0.064723391
0.064514061
0.064243218
0.063908934
0.063517707
0.063064154
0.062536509
0.061942956
0.050407631
0.050687624
0.050989438
0.051312496
0.051656174
0.052019744
0.052402353
0.052803111
0.053222479
0.053648013
0.054086455
0.054547695
0.055021832
0.055506882
0.056001218
0.056503133
0.05701082
0.057522368
0.058035768
0.058548908
0.059059584
0.059565494
0.06006425
0.060553378
0.061030326
0.06149247
0.061937123
0.062361542
0.062762945
0.063138516
0.063485433
0.06380088
0.064082078
0.064318741
0.06451714
0.064677055
0.064791221
0.064856996
0.064871872
0.064834474
0.064740994
0.064589363
0.064378091
0.064105372
0.063769388
0.063377734
0.062922206
0.062393218
0.061798721
0.050224459
0.050512267
0.050821267
0.051150967
0.051500772
0.051869984
0.052257727
0.052662809
0.053085565
0.053511881
0.053958207
0.054422925
0.05489967
0.055386977
0.055883243
0.056386771
0.056895765
0.057408325
0.057922451
0.058436044
0.058946909
0.059452755
0.059951206
0.060439799
0.060915993
0.061377176
0.061820674
0.062243758
0.062643655
0.063017567
0.063362676
0.06367617
0.063955249
0.064189693
0.064386137
0.06454378
0.064655638
0.064719096
0.064731661
0.064692031
0.064596249
0.064442438
0.064229069
0.063954366
0.063616664
0.063224066
0.062766465
0.062236156
0.061640636
0.049750447
0.050025489
0.050321675
0.05063842
0.050975281
0.051331694
0.051707007
0.052100362
0.05250982
0.052934638
0.053365332
0.053818973
0.054286811
0.054766372
0.055256125
0.055754479
0.056259748
0.056770149
0.057283793
0.057798693
0.058312762
0.058823815
0.059329576
0.059827679
0.060315672
0.060791029
0.061251151
0.061693375
0.062114987
0.062513229
0.062885313
0.063228434
0.063539782
0.063816553
0.064048627
0.06424293
0.064398077
0.064507411
0.064568337
0.064578377
0.064536312
0.064438025
0.064281847
0.06406622
0.06378941
0.063449881
0.063055967
0.062596161
0.062064505
0.061467894
0.049525238
0.049810037
0.050115202
0.05044025
0.050784798
0.051148301
0.051530187
0.051929846
0.052343982
0.052768103
0.053208888
0.053667423
0.054138735
0.054621341
0.055113732
0.055614333
0.056121471
0.056633377
0.057148177
0.057663896
0.058178461
0.058689699
0.059195347
0.059693051
0.060180375
0.060654805
0.061113756
0.061554579
0.061974575
0.062371
0.06274108
0.063082023
0.063391025
0.063665291
0.063894818
0.064086779
0.064239202
0.064345786
0.064403955
0.06441125
0.064366534
0.064265528
0.064106792
0.063888733
0.063609671
0.063268163
0.062872651
0.062410498
0.061877428
0.061279661
0.049282212
0.049577462
0.04989221
0.050226116
0.050578883
0.05094995
0.051338832
0.05174591
0.052160501
0.052590949
0.053040203
0.053503029
0.05397809
0.05446397
0.054959191
0.055462196
0.05597133
0.056484839
0.057000864
0.057517444
0.058032519
0.058543933
0.059049435
0.059546685
0.060033263
0.060506667
0.060964328
0.061403615
0.061821841
0.062216278
0.062584169
0.062922733
0.063229182
0.063500734
0.063727515
0.063916915
0.064066382
0.064169981
0.064225159
0.064229481
0.064181884
0.064077938
0.063916443
0.06369577
0.063414291
0.063070632
0.062673289
0.062208646
0.061674072
0.061075082
0.049020791
0.049327147
0.049652089
0.049995387
0.050356918
0.05073601
0.051132035
0.051544129
0.051963201
0.052403127
0.052857771
0.053325192
0.053804264
0.054293643
0.054791883
0.055297448
0.055808703
0.056323909
0.056841223
0.057358701
0.057874299
0.058385873
0.058891188
0.059387922
0.059873667
0.060345938
0.060802184
0.061239786
0.061656078
0.062048348
0.062413853
0.062749831
0.063053508
0.063322123
0.063545943
0.063732547
0.063878816
0.063979185
0.064031128
0.064032251
0.063981519
0.063874408
0.063709943
0.063486462
0.063202388
0.062856397
0.06245702
0.061989746
0.061453558
0.060853281
0.048440597
0.048740483
0.049058541
0.049394264
0.049747435
0.050118321
0.050505947
0.050909624
0.051323508
0.051754277
0.052201008
0.052661045
0.053133309
0.053616643
0.054109739
0.054611182
0.055119459
0.055632954
0.056149946
0.056668611
0.057187019
0.057703142
0.058214854
0.058719936
0.059216081
0.059700898
0.060171921
0.060626613
0.061062376
0.06147656
0.06186647
0.062229383
0.062562554
0.062863231
0.063128673
0.063349303
0.06353286
0.063675679
0.063772562
0.063821014
0.063818726
0.063764561
0.063654063
0.063486411
0.063259916
0.062973059
0.062624556
0.062222954
0.061752911
0.061214989
0.060613348
0.04812761
0.048440685
0.048771132
0.049118224
0.049481611
0.049862548
0.050259244
0.050666254
0.051091067
0.051530539
0.051983638
0.052449395
0.052926768
0.053414605
0.053911629
0.054416454
0.05492759
0.055443439
0.055962301
0.056482368
0.05700173
0.057518376
0.058030195
0.058534988
0.059030464
0.05951425
0.059983898
0.060436889
0.060870645
0.061282534
0.061669883
0.062029987
0.062360121
0.062657555
0.062919576
0.06313677
0.063317014
0.063456121
0.063549253
0.063593948
0.063588018
0.06353012
0.063416016
0.06324494
0.063015217
0.062725384
0.062374196
0.061970188
0.061497236
0.060957443
0.060354311
0.047793921
0.048120857
0.048464485
0.048823581
0.04919715
0.049589136
0.049990323
0.050409819
0.050843565
0.051290594
0.051750425
0.052222212
0.052704957
0.053197531
0.053698687
0.054207064
0.054721195
0.055239505
0.055760312
0.056281828
0.056802159
0.057319314
0.057831202
0.058335639
0.058830354
0.059312994
0.059781129
0.060232262
0.060663832
0.061073231
0.061457806
0.061814871
0.062141725
0.062435661
0.062693998
0.062907501
0.063084149
0.063219271
0.063308378
0.063349043
0.063339217
0.063277295
0.063159353
0.062984607
0.062751426
0.062458421
0.0621044
0.061697802
0.061221807
0.060680008
0.047439095
0.04778045
0.048138284
0.048510251
0.048892902
0.049292616
0.049708029
0.050136902
0.050579087
0.051033922
0.051500798
0.051978903
0.052467272
0.052964807
0.053470286
0.053982375
0.05449963
0.055020497
0.055543314
0.056066312
0.056587619
0.05710526
0.057617165
0.05812117
0.058615023
0.05909639
0.059562863
0.060011966
0.060441161
0.060847861
0.061229436
0.061583224
0.061906543
0.062196714
0.062451088
0.062660627
0.062833386
0.06296424
0.063049039
0.063085393
0.063071402
0.063005173
0.062883138
0.062704466
0.062467586
0.062171206
0.061814261
0.061404876
0.060925703
0.060381895
0.047062637
0.047418759
0.047792355
0.048171788
0.048570218
0.04898204
0.049407584
0.049846068
0.050297068
0.050759995
0.051234201
0.051718891
0.052213123
0.052715826
0.053225807
0.053741754
0.054262248
0.054785755
0.055310635
0.055835139
0.056357415
0.056875508
0.057387367
0.05789085
0.058383725
0.058863681
0.05932833
0.05977522
0.060201838
0.060605619
0.060983958
0.061334217
0.061653736
0.061939859
0.062189975
0.062395266
0.062563829
0.062690123
0.062770324
0.062802078
0.062783644
0.062712823
0.062586429
0.062403565
0.062162718
0.061862727
0.061502929
0.06109048
0.060607971
0.060062014
0.046663894
0.047034598
0.047421859
0.047818094
0.048228636
0.04865217
0.049088412
0.049536842
0.049996992
0.050468297
0.050950101
0.051441619
0.051941934
0.052449997
0.05296464
0.053484577
0.054008409
0.054534626
0.055061607
0.055587626
0.05611085
0.056629345
0.057141083
0.057643941
0.05813571
0.058614101
0.059076752
0.059521233
0.059945057
0.060345687
0.060720543
0.061067011
0.061382453
0.061664233
0.061909774
0.062110521
0.062274569
0.062396006
0.062471311
0.06249817
0.06247501
0.062399307
0.06226828
0.062080951
0.061835829
0.061531845
0.061169722
0.060753662
0.060267679
0.059719438
0.04624493
0.046631949
0.047032355
0.047443548
0.047867093
0.048302698
0.048750064
0.04920878
0.049678388
0.050158341
0.050647988
0.051146558
0.051653152
0.052166744
0.052686191
0.053210229
0.053737482
0.05426646
0.054795566
0.055323092
0.055847227
0.056366061
0.056877586
0.0573797
0.05787022
0.05834688
0.058807343
0.059249204
0.059670006
0.060067238
0.060438352
0.060780759
0.06109184
0.061368965
0.061609588
0.061805482
0.061964692
0.062080969
0.062151075
0.062172738
0.062144563
0.062063687
0.061927759
0.061735698
0.061485967
0.06117701
0.060814514
0.06039331
0.059903883
0.05935326
0.045803655
0.046207304
0.046622476
0.047048318
0.047485295
0.047933327
0.048392173
0.048861484
0.049340828
0.049829674
0.050327385
0.050833204
0.051346249
0.051865518
0.052389887
0.052918116
0.053448851
0.053980623
0.054511855
0.055040863
0.055565857
0.056084947
0.056596149
0.057097387
0.057586498
0.058061244
0.058519313
0.05895833
0.059375866
0.059769443
0.060136543
0.06047461
0.060781042
0.061053194
0.061288502
0.061479236
0.061633285
0.061744095
0.061808694
0.061824856
0.061791372
0.061705035
0.061563944
0.06136693
0.061112496
0.060799216
0.060434294
0.06000827
0.059515696
0.058962587
0.045340484
0.045761013
0.046191716
0.046632338
0.047083052
0.047543817
0.048014441
0.048494616
0.048983938
0.049481892
0.049987858
0.050501092
0.051020732
0.051545796
0.05207518
0.052607666
0.05314192
0.053676495
0.054209836
0.054740279
0.055266057
0.055785303
0.056296056
0.056796264
0.057283791
0.057756423
0.058211878
0.05864781
0.059061822
0.059451469
0.059814273
0.060147714
0.060449214
0.060716087
0.060945571
0.061130874
0.061279447
0.061384479
0.061443259
0.061453615
0.06141452
0.061322432
0.061175924
0.060973751
0.060714499
0.060396917
0.060028657
0.05959785
0.059102183
0.058546546
0.044855685
0.045293301
0.045739943
0.046195556
0.046660249
0.047133998
0.047616641
0.048107904
0.048607402
0.049114642
0.049629016
0.050149799
0.050676146
0.051207092
0.051741554
0.052278334
0.052816119
0.053353482
0.053888889
0.054420698
0.054947165
0.055466445
0.055976603
0.056475609
0.056961357
0.057431659
0.057884262
0.058316852
0.058727064
0.059112494
0.059470702
0.05979922
0.060095528
0.060356923
0.060579739
0.06075951
0.060902305
0.06100124
0.061053881
0.061058132
0.061013102
0.060914982
0.060762806
0.060555259
0.060291033
0.059969009
0.059596932
0.059161319
0.058662513
0.058104314
0.044349547
0.044804404
0.045267216
0.045737999
0.046216857
0.046703778
0.047198625
0.047701144
0.048210972
0.048727631
0.049250529
0.049778955
0.050312082
0.050848964
0.051388534
0.051929615
0.052470912
0.053011019
0.053548423
0.054081504
0.05460854
0.055127711
0.055637104
0.056134718
0.056618472
0.057086208
0.057535704
0.057964679
0.058370802
0.058751707
0.059105002
0.059428279
0.059719148
0.059975377
0.060189531
0.060364374
0.060501029
0.060593524
0.060639694
0.060637578
0.06058623
0.060481819
0.060323721
0.060110573
0.059841196
0.059514599
0.059138397
0.058697944
0.058195918
0.057635125
0.043822451
0.044294632
0.044773731
0.045259796
0.045752938
0.046253155
0.046760327
0.047274215
0.047794472
0.048320634
0.048852124
0.049388246
0.049928188
0.050471019
0.051015691
0.051561044
0.052105803
0.05264858
0.053187884
0.053722115
0.054249575
0.054768468
0.055276905
0.055772914
0.05625444
0.056719357
0.057165473
0.057590542
0.057992269
0.058368327
0.058716367
0.059034032
0.059318991
0.059568997
0.059775887
0.059944847
0.060074818
0.060160514
0.06019987
0.060191148
0.060133052
0.060022145
0.059857849
0.05963885
0.05936412
0.059032965
0.058652362
0.058207024
0.057701696
0.057138289
0.043274892
0.043764396
0.044259802
0.044761181
0.045268653
0.045782221
0.046301772
0.04682708
0.047357807
0.047893504
0.048433604
0.048977426
0.049524171
0.050072923
0.050622652
0.051172212
0.051720346
0.052265686
0.05280676
0.053341991
0.053869703
0.054388123
0.054895389
0.055389557
0.0558686
0.056330425
0.056772871
0.057193728
0.057590738
0.057961613
0.058304043
0.058615714
0.058894325
0.059137614
0.059337491
0.059500048
0.0596229
0.059701438
0.059733649
0.05971803
0.059652847
0.059535202
0.059364437
0.05913929
0.058858885
0.058523667
0.058138184
0.05768791
0.057179218
0.056613194
0.042707494
0.043214225
0.043725858
0.044242498
0.044764269
0.045291169
0.045823085
0.046359795
0.046900972
0.047446174
0.047994848
0.048546322
0.049099811
0.049654412
0.050209108
0.050762769
0.051314154
0.051861914
0.052404597
0.052940645
0.053468406
0.053986133
0.054491989
0.054984056
0.055460341
0.055918781
0.05635725
0.056773573
0.057165533
0.057530878
0.057867338
0.058172638
0.058444511
0.058680713
0.058873446
0.059029174
0.059144545
0.059215583
0.059240328
0.05921752
0.059144955
0.059020322
0.058842838
0.058611206
0.058324121
0.057987065
0.05759513
0.057140007
0.056627942
0.056059328
0.042121034
0.042644779
0.043172443
0.043704199
0.044240159
0.044780298
0.045324492
0.045872519
0.046424057
0.046978674
0.047535825
0.048094849
0.048654971
0.049215298
0.049774825
0.050332438
0.05088691
0.05143691
0.051981003
0.052517654
0.053045233
0.053562016
0.054066196
0.054555882
0.055029111
0.055483854
0.055918022
0.056329477
0.05671604
0.057075502
0.057405632
0.057704192
0.057968952
0.058197718
0.058383046
0.058531533
0.058639094
0.058702314
0.05871929
0.058689008
0.058608795
0.058476954
0.058292589
0.058054478
0.057761506
0.057420428
0.057022233
0.056562881
0.056047446
0.0554763
0.041516557
0.042056854
0.0426002
0.043146839
0.043696814
0.044250028
0.044806336
0.045365519
0.04592726
0.046491133
0.047056602
0.047623014
0.048189601
0.048755479
0.049319656
0.049881025
0.050438378
0.050990397
0.051535667
0.052072672
0.052599805
0.053115368
0.053617578
0.054104577
0.054574433
0.05502515
0.055454678
0.055860917
0.05624173
0.056594951
0.05691839
0.057209847
0.057467127
0.057688093
0.057865706
0.058006555
0.058105997
0.0581611
0.058170027
0.058131993
0.058043893
0.057904648
0.057713265
0.057468638
0.057169833
0.056823904
0.056419585
0.055956167
0.055437442
0.054863862
0.040895853
0.04145131
0.042009824
0.04257107
0.043134849
0.043700905
0.044269087
0.044839185
0.045410892
0.045983792
0.046557354
0.04713093
0.047703757
0.048274959
0.048843549
0.049408435
0.049968417
0.050522194
0.051068369
0.051605445
0.052131837
0.052645871
0.053145795
0.053629778
0.054095922
0.054542267
0.0549668
0.055367465
0.055742168
0.056088788
0.05640518
0.056689179
0.056938612
0.057151387
0.057320967
0.057453797
0.057544829
0.057591537
0.057592176
0.057546093
0.0574499
0.057303073
0.057104538
0.056853321
0.056548624
0.056197487
0.05578719
0.055319752
0.054797825
0.054221937
0.04026788
0.040832708
0.041401953
0.041977634
0.042555049
0.043133631
0.043713348
0.044294033
0.044875391
0.045457013
0.046038373
0.046618825
0.047197608
0.04777385
0.048346569
0.048914681
0.049476996
0.050032229
0.050578998
0.051115825
0.051641149
0.052153321
0.052650614
0.053131231
0.053593305
0.054034914
0.054454087
0.054848808
0.055217033
0.055556692
0.055865689
0.056141896
0.056383129
0.056587249
0.056748504
0.056872971
0.056955316
0.056993354
0.056985597
0.056931019
0.056826637
0.056672053
0.056466223
0.056208333
0.055897805
0.055541259
0.055125131
0.05465371
0.054128685
0.053550639
0.039614468
0.040204302
0.040784658
0.041367428
0.041958492
0.042549084
0.043139874
0.043730719
0.044321327
0.044911291
0.045500083
0.046087058
0.046671454
0.047252396
0.047828905
0.048399904
0.048964212
0.049520556
0.050067569
0.050603795
0.051127692
0.051637638
0.052131933
0.052608811
0.05306644
0.053502937
0.05391637
0.054304772
0.054666146
0.05499848
0.055299742
0.055567861
0.055800637
0.055995373
0.056148172
0.056263979
0.056337379
0.056366503
0.056350156
0.056286807
0.056174114
0.056011601
0.055798299
0.055533576
0.05521776
0.054855465
0.054433653
0.053958314
0.053430323
0.052850303
0.038947486
0.039550533
0.0401512
0.040754665
0.041347108
0.041948271
0.042549549
0.043150042
0.043749415
0.044347261
0.044943052
0.045536134
0.046125738
0.046710984
0.047290894
0.047864392
0.048430306
0.048987375
0.049534247
0.050069484
0.050591565
0.051098894
0.051589801
0.052062549
0.052515344
0.052946339
0.053353646
0.053735344
0.05408949
0.05441413
0.05470731
0.054967105
0.055191717
0.055375106
0.055520131
0.055626948
0.055691152
0.055711133
0.055685997
0.05561369
0.055492557
0.055321982
0.055100975
0.054828554
0.054509988
0.054140356
0.053713195
0.053234061
0.052703279
0.052121507
0.038274743
0.038886126
0.039501677
0.040116968
0.040731463
0.041333642
0.041943375
0.042552949
0.043160522
0.043765715
0.044368004
0.044966717
0.045561068
0.046150169
0.046733038
0.047308599
0.047875689
0.048433057
0.048979364
0.049513192
0.050033042
0.050537341
0.051024448
0.051492659
0.051940216
0.052365313
0.052766103
0.053140712
0.053487249
0.053803815
0.054088519
0.054339499
0.054554951
0.054728561
0.054864883
0.054962239
0.055016996
0.055027632
0.054993526
0.054912134
0.054782487
0.05460385
0.054375336
0.054096178
0.053772636
0.053396196
0.052964444
0.052481708
0.051948361
0.051365101
0.037598516
0.038217062
0.038839727
0.03946657
0.040091662
0.04071476
0.041324361
0.041940595
0.04255568
0.043167608
0.043775836
0.04437965
0.044978237
0.045570692
0.046156028
0.046733172
0.047300966
0.047858168
0.048403454
0.048935424
0.049452599
0.049953433
0.050436313
0.050899568
0.051341477
0.051760272
0.052154153
0.052521293
0.05285985
0.053167978
0.053443839
0.053685621
0.053891548
0.054055614
0.054182797
0.054270419
0.054315523
0.054316674
0.054273418
0.054182871
0.054044681
0.053858021
0.053622134
0.053336419
0.053007306
0.052624445
0.052188404
0.051702327
0.05116669
0.050582247
0.036903168
0.037545235
0.03817292
0.038805313
0.039440299
0.040072509
0.040701691
0.041316074
0.041936067
0.042554049
0.043167634
0.043775986
0.044378249
0.044973509
0.045560776
0.046138978
0.046706963
0.047263499
0.047807277
0.048336912
0.048850949
0.049347865
0.049826078
0.05028395
0.050719795
0.051131889
0.051518475
0.051877776
0.052207998
0.052507349
0.052774044
0.053006325
0.053202476
0.053356907
0.053474627
0.053552334
0.053587625
0.053579324
0.053526588
0.053426964
0.053280227
0.053085592
0.052842446
0.0525503
0.052215518
0.051826616
0.051386507
0.050897359
0.05035974
0.049774454
0.03620228
0.036855079
0.037504816
0.038139318
0.03877922
0.039419721
0.040056757
0.040689454
0.041303761
0.041926274
0.04254471
0.043157021
0.043762359
0.044359825
0.044948438
0.045527132
0.04609476
0.0466501
0.047191856
0.047718659
0.048229077
0.048721611
0.049194708
0.049646765
0.050076134
0.050481132
0.05086005
0.051211157
0.051532716
0.051822985
0.05208023
0.052302747
0.052488895
0.05263354
0.052741536
0.05280921
0.052834594
0.052816808
0.05275448
0.052645836
0.052490575
0.05228803
0.05203776
0.051739447
0.051399057
0.051004495
0.050560552
0.050068631
0.049529367
0.048943614
0.03549799
0.03616048
0.036819399
0.037474331
0.038113069
0.03875813
0.03940274
0.04004469
0.040667036
0.041285883
0.041908737
0.04252437
0.043132113
0.04373113
0.044320458
0.044899039
0.04546573
0.046019317
0.046558515
0.047081973
0.047588279
0.048075959
0.048543492
0.048989306
0.049411793
0.049809313
0.050180205
0.050522791
0.050835386
0.051116304
0.051363863
0.051576397
0.0517523
0.051887025
0.05198511
0.052042685
0.052058128
0.052030838
0.051958932
0.051841331
0.051677616
0.051467223
0.05120993
0.050906135
0.05056006
0.050160223
0.049712736
0.049218381
0.048677851
0.048092038
0.034118357
0.034792785
0.035463702
0.036130746
0.036793372
0.037450821
0.038089767
0.03873914
0.039384277
0.040022618
0.040642683
0.041261997
0.041880032
0.042489385
0.043089229
0.043678599
0.04425643
0.044821579
0.045372836
0.045908926
0.046428516
0.046930212
0.047412568
0.04787409
0.048313243
0.048728457
0.049118137
0.049480669
0.049814431
0.050117798
0.050389147
0.050626859
0.050829278
0.05099452
0.051119313
0.051207394
0.051254868
0.051260399
0.051223618
0.05114223
0.0510158
0.050843765
0.050625551
0.050360642
0.050054066
0.049700803
0.049296381
0.048845702
0.048349308
0.047807933
0.0472225
0.033407356
0.034089072
0.034767071
0.035441065
0.036110914
0.036777382
0.0374237
0.038070212
0.038719171
0.039361163
0.039995525
0.040610837
0.041226252