/*--------------------------------*- C++ -*----------------------------------*\
| =========                 |                                                 |
| \\      /  F ield         | OpenFOAM: The Open Source CFD Toolbox           |
|  \\    /   O peration     | Version:  2312                                  |
|   \\  /    A nd           | Website:  www.openfoam.com                      |
|    \\/     M anipulation  |                                                 |
\*---------------------------------------------------------------------------*/
FoamFile
{
    version     2.0;
    format      ascii;
    arch        "LSB;label=32;scalar=64";
    class       volScalarField;
    location    "0.04";
    object      f_Bilger;
}
// * * * * * * * * * * * * * * * * * * * * * * * * * * * * * * * * * * * * * //

dimensions      [0 0 0 0 0 0 0];

internalField   nonuniform List<scalar> 
3250
(
0.12420477
0.12302372
0.1218015
0.1205865
0.11938237
0.11818655
0.11699646
0.1158096
0.11462356
0.11343589
0.11224401
0.11104487
0.10988813
0.10869361
0.1074666
0.10622771
0.10497521
0.10370756
0.10242343
0.10112167
0.099801242
0.098461247
0.097100922
0.095719632
0.094316871
0.092892266
0.091445577
0.089976702
0.088485677
0.086972675
0.085437995
0.083882029
0.082305216
0.080707972
0.079139683
0.077512144
0.075861005
0.074192839
0.072508783
0.070856453
0.069167172
0.067448254
0.065720262
0.063984703
0.062244353
0.06050209
0.058798362
0.057064356
0.055324956
0.12418175
0.12300091
0.12177908
0.12056516
0.11936204
0.11816716
0.11697794
0.11579191
0.11460663
0.11341972
0.11222862
0.11103031
0.1098743
0.1086798
0.10745345
0.10621515
0.10496319
0.10369606
0.10241243
0.10111115
0.099791176
0.098451622
0.097091724
0.095710845
0.094308481
0.092884259
0.091437941
0.089969425
0.088478748
0.086966085
0.085431735
0.083876097
0.082299612
0.080702703
0.079134717
0.077507457
0.075856612
0.074188735
0.072504972
0.070852924
0.06916388
0.067445266
0.065717619
0.063982623
0.062242665
0.060500099
0.058796379
0.057062377
0.055323337
0.12413582
0.12295504
0.1217339
0.12052205
0.11932087
0.11812779
0.11694025
0.11575578
0.11457198
0.11338651
0.1121969
0.1110002
0.10984555
0.10865097
0.10742582
0.10618859
0.10493763
0.10367144
0.10238871
0.10108827
0.099769107
0.098430327
0.097071169
0.095691
0.094289317
0.092865749
0.091420059
0.089952146
0.08846205
0.086949949
0.085416149
0.083861063
0.082285144
0.080688818
0.079121358
0.077494546
0.075844188
0.074176786
0.072493502
0.070841914
0.069153206
0.067435074
0.065707932
0.063973543
0.062234071
0.060491623
0.05878811
0.057054248
0.055315614
0.12406779
0.12288583
0.12166598
0.12045719
0.11925887
0.11806844
0.11688338
0.11570122
0.11451959
0.11333622
0.1121488
0.11095454
0.10980182
0.10860713
0.10738369
0.10614802
0.1048985
0.10363366
0.10235221
0.10105299
0.099734979
0.098397301
0.097039194
0.09566003
0.094259309
0.092836661
0.091391851
0.089924783
0.088435496
0.086924175
0.08539114
0.083836825
0.082261708
0.080666215
0.079099502
0.077473305
0.075823624
0.07415688
0.072474256
0.070823302
0.069135028
0.067417551
0.065691078
0.063957399
0.062218554
0.060476528
0.058773436
0.057039861
0.055301734
0.12397943
0.12279251
0.12157537
0.12037065
0.11917611
0.11798919
0.11680738
0.11562826
0.11444949
0.11326886
0.1120843
0.11089343
0.10974312
0.10854832
0.1073271
0.10609345
0.10484581
0.10358274
0.10230296
0.10100531
0.099688809
0.098352559
0.096995814
0.095617949
0.094218468
0.092797006
0.09135333
0.089887345
0.088399095
0.086888772
0.085356712
0.083803383
0.082229306
0.080634908
0.079069164
0.077443744
0.075794924
0.07412902
0.072447235
0.070797088
0.069109348
0.067392699
0.065667056
0.063934226
0.06219617
0.060454816
0.058752354
0.057019206
0.055281732
0.1238706
0.12268139
0.12146874
0.12026873
0.11907859
0.11789577
0.11671777
0.1155422
0.11436675
0.11318928
0.11200801
0.11082143
0.10967369
0.10847886
0.10726018
0.10602887
0.10478341
0.10352239
0.10224454
0.10094874
0.099633971
0.098299375
0.096944205
0.095567842
0.094169793
0.092749699
0.091307328
0.08984259
0.088355531
0.086846351
0.085315405
0.083763202
0.082190331
0.080597231
0.079032614
0.077408074
0.075760233
0.074095289
0.072414464
0.070765242
0.069078098
0.067362389
0.065637686
0.063905798
0.062168652
0.060428146
0.058726469
0.056993846
0.055257145
0.12374654
0.12255643
0.12134935
0.1201546
0.11896938
0.11779112
0.11661736
0.11544574
0.11427398
0.11309996
0.11192221
0.11074096
0.10959567
0.10840092
0.10718504
0.10595632
0.10471329
0.10345454
0.10217884
0.10088507
0.099572229
0.098239466
0.09688604
0.095511338
0.094114874
0.092696291
0.091255364
0.089792002
0.088306256
0.086798332
0.085268604
0.083717632
0.082146098
0.080554485
0.078991118
0.077367531
0.075720761
0.074056869
0.072377098
0.070728894
0.069042397
0.067327718
0.065604039
0.063873177
0.062137043
0.060397517
0.058696748
0.05696474
0.055228921
0.1235981
0.12240816
0.1212079
0.1200194
0.11883996
0.11766707
0.11649832
0.11533135
0.11416391
0.11299388
0.11181993
0.11064608
0.10950289
0.10830845
0.10709583
0.10587016
0.10462997
0.1033739
0.10210072
0.10080934
0.099498767
0.098168158
0.096816781
0.095444031
0.094049428
0.092632621
0.091193387
0.089731638
0.088247429
0.08674097
0.085212656
0.083663105
0.082093141
0.080503367
0.078941466
0.07731897
0.075673436
0.074010771
0.072332233
0.070685217
0.068999473
0.067285992
0.065563502
0.063833831
0.062098895
0.060360559
0.058660888
0.056929615
0.05519485
0.12342376
0.12223517
0.12104288
0.11986165
0.11868892
0.11752227
0.11635932
0.11519776
0.11403535
0.11286984
0.11169947
0.1105365
0.10939405
0.10820038
0.10699154
0.10576939
0.1045325
0.10327953
0.10200928
0.10072067
0.099412732
0.098084621
0.09673562
0.095365133
0.093972687
0.092557937
0.091120664
0.089660784
0.088178353
0.086673581
0.08514688
0.083598934
0.082030776
0.080443303
0.078883085
0.077261805
0.07561768
0.073956426
0.072279312
0.070633669
0.068948791
0.067236688
0.065515561
0.06378726
0.062053723
0.060316815
0.058618442
0.056888032
0.055154498
0.12322165
0.1220359
0.12085274
0.11967982
0.11851478
0.11735528
0.11619899
0.11504365
0.113887
0.11272665
0.11155843
0.11041268
0.1092675
0.10807564
0.10687111
0.10565299
0.10441987
0.10317046
0.10190358
0.10061815
0.099313223
0.097987977
0.096641701
0.095273809
0.093883837
0.092471445
0.091036421
0.089578683
0.088098285
0.086595437
0.085070554
0.083524382
0.081958242
0.080373722
0.078815376
0.077195417
0.075552872
0.073893225
0.07221774
0.070573669
0.068889783
0.067179249
0.065459669
0.063732925
0.062001006
0.060265799
0.058568938
0.056839525
0.055107406
0.12298948
0.12180875
0.12063584
0.11947232
0.118316
0.11716461
0.11601588
0.1148676
0.11371756
0.11256339
0.11140106
0.11026852
0.10912082
0.10793318
0.10673344
0.10551986
0.10429104
0.10304567
0.1017826
0.10050079
0.099199292
0.097877301
0.096534123
0.09516918
0.093782018
0.092372307
0.09093984
0.089484535
0.088006445
0.086505772
0.084982917
0.083438654
0.081874658
0.080294101
0.078737714
0.077119139
0.075478352
0.073820523
0.07214689
0.070504604
0.068821848
0.067113084
0.065395244
0.063670247
0.061940179
0.060207011
0.058511884
0.056783601
0.055053088
0.12272407
0.12155211
0.12039051
0.1192375
0.11809096
0.11694869
0.11580849
0.11466817
0.11352559
0.1123787
0.11122498
0.11010311
0.10895363
0.10777165
0.10657733
0.10536888
0.10414488
0.10290407
0.10164531
0.10036757
0.099069939
0.09775162
0.096411934
0.095050317
0.093666327
0.09225964
0.090830057
0.089377498
0.087902013
0.086403785
0.084883177
0.083340907
0.081778933
0.080204055
0.07864944
0.077032257
0.075393415
0.073737634
0.072066096
0.070425824
0.068744352
0.06703757
0.065321665
0.063598605
0.061870623
0.060139947
0.058446769
0.056719743
0.054991031
0.12242367
0.12126411
0.12011494
0.11897361
0.11783799
0.11670591
0.11557523
0.11444381
0.11330958
0.11217088
0.11102852
0.10991523
0.10876508
0.10758976
0.10640156
0.10519885
0.10398025
0.10274454
0.10149059
0.10021742
0.098924115
0.09760991
0.096274137
0.094916247
0.093535811
0.092132514
0.090706166
0.089256689
0.087784126
0.086288638
0.084770518
0.083230281
0.081669573
0.08010355
0.07854982
0.07693399
0.075297306
0.073643833
0.071974657
0.070336647
0.068656628
0.066952052
0.065238282
0.063517325
0.061791631
0.060064135
0.058373068
0.056647404
0.054920694
0.12208753
0.12094267
0.11980728
0.11867888
0.11755534
0.11643457
0.11531446
0.11419294
0.11306791
0.11193778
0.11081081
0.10970337
0.10855409
0.10738622
0.10620484
0.10500851
0.10379592
0.10256587
0.10131729
0.1000492
0.09876072
0.097451096
0.096119682
0.094765946
0.09338947
0.091989954
0.090567213
0.089121176
0.08765188
0.08615946
0.08464412
0.083106004
0.081544221
0.079993382
0.0784379
0.07682347
0.075189222
0.073538351
0.071871832
0.070236354
0.068557977
0.066855843
0.065144408
0.063425678
0.061702327
0.059979221
0.05829024
0.056566002
0.054841499
0.12171429
0.12058578
0.11946558
0.11835142
0.11724121
0.11613292
0.11502451
0.11391392
0.11279895
0.11167638
0.11057228
0.1094653
0.10831941
0.1071597
0.10598584
0.10479656
0.10359061
0.10236685
0.10112421
0.09986174
0.098578601
0.097274054
0.095947472
0.09459834
0.093226256
0.091830934
0.090412199
0.088969985
0.087504328
0.086015342
0.084503161
0.082967736
0.081407936
0.07986692
0.078312113
0.07669974
0.075068311
0.073420379
0.071756848
0.070124194
0.068447666
0.066748227
0.065039331
0.063322884
0.061601448
0.059885216
0.058197701
0.056474911
0.054752837
0.12130225
0.12019144
0.11908788
0.11798932
0.11689374
0.11579915
0.1147036
0.11360508
0.1125014
0.11139196
0.11030551
0.10919771
0.10805981
0.1069088
0.10574317
0.10456165
0.10336302
0.10214616
0.10091007
0.099653802
0.098376554
0.097077607
0.095756356
0.094412305
0.093045071
0.091654382
0.090240075
0.088802095
0.087340478
0.085855327
0.084346751
0.082814675
0.081258373
0.07972458
0.078171523
0.076561857
0.074933682
0.073289068
0.071628891
0.06999938
0.068324934
0.066628461
0.064922333
0.063208185
0.061486711
0.059783189
0.058094686
0.056373427
0.054654054
0.12084895
0.11975753
0.11867212
0.1175906
0.116511
0.11543141
0.11434994
0.11326465
0.11217299
0.11108203
0.11000816
0.10890131
0.1077735
0.10663203
0.1054754
0.10430236
0.10311174
0.10190247
0.10067355
0.0994241
0.098153321
0.096860526
0.095545133
0.094206668
0.092844766
0.091459175
0.090049746
0.088616435
0.087159286
0.085678408
0.084173915
0.08264581
0.08109383
0.079566065
0.078015264
0.076408885
0.074784415
0.073143528
0.071487121
0.069861094
0.068188986
0.066495778
0.064792711
0.063081196
0.061361578
0.059668437
0.057979918
0.05626078
0.05454446
0.12035221
0.11928188
0.11821622
0.11715323
0.11609103
0.11502775
0.11396166
0.11289093
0.11181029
0.11074632
0.1096776
0.10857543
0.1074589
0.10632783
0.105181
0.10401722
0.10283535
0.10163436
0.1004133
0.099171294
0.097907591
0.096621529
0.095312549
0.093980201
0.092624143
0.091244141
0.089840064
0.088411884
0.086959661
0.085483519
0.083983607
0.082460038
0.080912912
0.079390703
0.077842439
0.076239887
0.074619554
0.072982829
0.071330663
0.069708487
0.068038995
0.066349381
0.064649747
0.062941452
0.061225126
0.059540107
0.05785253
0.056136205
0.054423334
0.11980981
0.11876231
0.11771804
0.11667515
0.1156318
0.11458622
0.11353685
0.11248269
0.11141904
0.11037632
0.10930981
0.10821903
0.10711442
0.10599462
0.10485843
0.10370471
0.10253236
0.10134039
0.10012788
0.09889399
0.097638003
0.096359283
0.095057301
0.09373163
0.092381953
0.091008057
0.089609834
0.088187275
0.08674046
0.08526954
0.083774712
0.082256203
0.080714355
0.079197609
0.077652068
0.076053928
0.074438106
0.07280599
0.071158629
0.069540684
0.067874097
0.06618843
0.064492645
0.062788172
0.06107608
0.059397787
0.057711696
0.055998986
0.054289932
0.12024618
0.11921958
0.11819661
0.11717543
0.11615424
0.11513127
0.11410478
0.11307332
0.1120378
0.11099635
0.10996791
0.108907
0.10783007
0.10673836
0.10563074
0.10450608
0.10336326
0.10220123
0.10101905
0.099815814
0.098590745
0.097343143
0.096072406
0.094778033
0.093459628
0.092116897
0.090749652
0.089357811
0.087941387
0.086500487
0.085035297
0.083546065
0.082033118
0.080496947
0.078985781
0.077443184
0.075849963
0.074239014
0.072611962
0.07097013
0.069356782
0.06769339
0.066012041
0.064320547
0.062620459
0.060913215
0.059240957
0.057556743
0.055848293
0.054143477
0.1195778
0.11857911
0.11758253
0.11658621
0.11558836
0.11458735
0.11358139
0.11256858
0.11155321
0.11054251
0.10951676
0.10846908
0.10740681
0.10632899
0.10523451
0.10412228
0.10299123
0.10184037
0.10066877
0.099475586
0.098260067
0.097021549
0.095759464
0.094473343
0.093162819
0.091827627
0.090467606
0.089082701
0.087672953
0.086238499
0.084779564
0.08329645
0.081789561
0.080259481
0.078754141
0.077214775
0.075626898
0.074021161
0.072399584
0.070764337
0.069155856
0.067495921
0.065819274
0.064132528
0.062437346
0.060735411
0.059068951
0.057386971
0.055683301
0.053983159
0.11885469
0.11788608
0.11691779
0.11594816
0.11497537
0.11399797
0.11301413
0.11201978
0.11103687
0.11004211
0.1090252
0.10799398
0.10694744
0.10588452
0.10480418
0.10370534
0.10258698
0.10144815
0.10028796
0.099105623
0.097900415
0.096671711
0.095418978
0.09414178
0.092839782
0.091512749
0.090160551
0.088783162
0.087380656
0.085953203
0.084501068
0.083024606
0.081524283
0.080000735
0.078501553
0.076965767
0.075383625
0.073783361
0.072167467
0.070540621
0.068936939
0.067280678
0.065609132
0.063927606
0.062237829
0.060541615
0.058880994
0.057201623
0.055503179
0.053808141
0.11807462
0.11713815
0.11620014
0.11525912
0.11431309
0.11336103
0.11240161
0.11143388
0.11047591
0.10949225
0.10849338
0.10747979
0.10645007
0.10540315
0.10433797
0.1032535
0.10214877
0.10102288
0.099874975
0.098704311
0.097510208
0.096292078
0.095049425
0.09378185
0.092489049
0.091170824
0.089827076
0.08845781
0.087063135
0.08564326
0.084198491
0.082729233
0.081236001
0.079719462
0.078226837
0.076695044
0.075119028
0.073524384
0.071913658
0.070298948
0.068698941
0.067046563
0.065380562
0.063704748
0.062020878
0.060330813
0.058676239
0.056999896
0.055307075
0.053617535
0.11813569
0.11723549
0.11633308
0.11542732
0.11451694
0.11359932
0.11267424
0.1117407
0.11080931
0.10986219
0.10889798
0.10791917
0.10692452
0.10591283
0.10488301
0.10383406
0.10276499
0.10167487
0.10056285
0.099428129
0.098269998
0.097087822
0.095881056
0.094649241
0.093392016
0.092109115
0.090800372
0.089465726
0.088105215
0.086718987
0.085307288
0.083870471
0.082408989
0.080923399
0.079414387
0.077928772
0.076401462
0.074832027
0.073243135
0.07163468
0.070040996
0.068440297
0.066792383
0.06513246
0.063462882
0.061785442
0.060102003
0.058453795
0.056780949
0.055094114
0.053410354
0.11719691
0.11633498
0.11546857
0.11459704
0.11371965
0.11283184
0.11193532
0.11103996
0.1101267
0.10919973
0.10825808
0.10730064
0.10632625
0.10533379
0.10432224
0.10329062
0.102238
0.1011635
0.10006632
0.098945709
0.097800999
0.096631603
0.095437018
0.094216827
0.092970708
0.091698434
0.090399876
0.08907501
0.087723911
0.086346766
0.084943866
0.08351561
0.082062498
0.08058513
0.079084203
0.077606104
0.076083851
0.074521609
0.072939451
0.071337408
0.069757319
0.068158944
0.06651695
0.064863692
0.063200898
0.061530444
0.059854194
0.058212752
0.05654393
0.054863424
0.053185356
0.11619235
0.11537101
0.11454236
0.1137069
0.11286562
0.11200837
0.11115316
0.11027837
0.10939026
0.10848828
0.10757056
0.10663585
0.10568303
0.10471105
0.10371895
0.10270579
0.10167071
0.10061287
0.099531527
0.098425977
0.097295605
0.096139868
0.094958308
0.093750554
0.092516324
0.091255431
0.089967786
0.088653403
0.087312398
0.085944997
0.084551538
0.083132469
0.081688348
0.080219813
0.078727573
0.077257544
0.075740988
0.074186625
0.072612179
0.07101822
0.069448781
0.067853946
0.06621912
0.064573106
0.062917649
0.061254773
0.059586421
0.057952198
0.056288
0.054614299
0.11512027
0.11434181
0.11355215
0.11275399
0.11195421
0.11113736
0.11030536
0.10946048
0.10860094
0.10772572
0.1068334
0.10592282
0.10499291
0.10404269
0.10307125
0.10207772
0.10106129
0.10002118
0.098956687
0.09786718
0.096752086
0.095610914
0.094443252
0.093248772
0.092027239
0.090778506
0.089502528
0.088199355
0.086869148
0.085512173
0.084128817
0.082719584
0.081285093
0.079826041
0.078343137
0.076881769
0.075371596
0.073825803
0.072259899
0.070674859
0.069115041
0.06752452
0.065897702
0.064259533
0.062611941
0.060957244
0.059297797
0.057671224
0.05601235
0.05434697
0.11397922
0.11324618
0.11249565
0.11174889
0.1109795
0.1101969
0.10939923
0.10858625
0.10775686
0.10691005
0.10604466
0.10515963
0.10425399
0.10332682
0.10237728
0.10140456
0.1004079
0.099386607
0.09834002
0.097267559
0.096168709
0.09504303
0.093890159
0.092709817
0.091501812
0.090266044
0.089002508
0.087711298
0.086392613
0.085046767
0.083674192
0.082275458
0.080851262
0.079402376
0.077929515
0.076477434
0.07497435
0.073437797
0.071881158
0.070305637
0.068755258
0.067169753
0.065551579
0.063921807
0.062282521
0.060636479
0.058987665
0.057368882
0.055715898
0.054059132
0.11276836
0.11208415
0.11137993
0.11066889
0.10994012
0.10919508
0.10843315
0.1076538
0.10685618
0.10603939
0.10520244
0.1043444
0.10346439
0.10256158
0.10163519
0.10068448
0.099708757
0.098707377
0.097679755
0.096625362
0.095543741
0.094434504
0.09329734
0.092132019
0.090938397
0.08971642
0.088466125
0.087187651
0.085881237
0.084547239
0.083186141
0.081798579
0.080385352
0.078947358
0.077485328
0.076043182
0.074547898
0.073021225
0.071474522
0.069909118
0.068368387
0.066788629
0.065179654
0.063558789
0.061928085
0.060290531
0.058656092
0.057044099
0.055397518
0.053749702
0.11148202
0.1108464
0.11019203
0.10952299
0.10883576
0.10813007
0.10740547
0.10666139
0.10589715
0.10511194
0.10430494
0.10347532
0.10262232
0.10174518
0.10084319
0.099915699
0.098962069
0.097981725
0.096974144
0.095938858
0.094875467
0.093783639
0.092663116
0.091513719
0.090335355
0.089128015
0.087891782
0.086626838
0.085333463
0.084012053
0.082663137
0.081287422
0.079885839
0.078459498
0.077009224
0.075577665
0.074090865
0.072574675
0.071038573
0.069484001
0.06795332
0.066380075
0.064780852
0.063169436
0.061547484
0.059915605
0.058305455
0.056695144
0.055056046
0.05341771
0.1101229
0.10953788
0.10893291
0.10830901
0.10766496
0.10700031
0.10631463
0.10560744
0.10487812
0.10412603
0.10335045
0.10255068
0.10172604
0.10087588
0.099999557
0.099096489
0.098166119
0.097207937
0.096221482
0.095206352
0.094162205
0.093088766
0.091985833
0.090853281
0.089691065
0.088499227
0.087277897
0.086027297
0.08474775
0.083439685
0.082103671
0.080740473
0.079351174
0.077937254
0.076499944
0.07507956
0.073601857
0.072096692
0.07057186
0.069029123
0.06750895
0.065942993
0.064354113
0.062752892
0.061140942
0.059519241
0.057925434
0.056319919
0.054690482
0.053062201
0.10868944
0.10815693
0.10760227
0.10702559
0.10642643
0.10580444
0.10515926
0.10449048
0.10379762
0.10308012
0.1023374
0.10156887
0.10077394
0.099952048
0.09910264
0.098225204
0.097319259
0.096384364
0.095420125
0.094426205
0.093402322
0.092348262
0.091263879
0.090149104
0.089003943
0.087828488
0.086622918
0.085387497
0.084122587
0.082828649
0.081506273
0.080156253
0.078779792
0.077378928
0.075956492
0.07454757
0.073079452
0.071585746
0.070072756
0.06854361
0.067034211
0.065476249
0.063898332
0.062308114
0.060707325
0.059097465
0.057517285
0.055918145
0.054299649
0.052682204
0.10718086
0.10670257
0.10619957
0.10567182
0.10511915
0.10454135
0.10393817
0.10330929
0.10265434
0.10197286
0.1012644
0.10052845
0.099764541
0.098972183
0.098150916
0.097300303
0.096419936
0.095509446
0.094568509
0.093596852
0.092594256
0.091560569
0.090495703
0.089399644
0.088272455
0.087114278
0.085925339
0.084705951
0.083456512
0.082177511
0.080869544
0.079533371
0.078170126
0.076782239
0.075378722
0.073980341
0.072522199
0.071040222
0.069538998
0.068027442
0.066528013
0.064978649
0.063412339
0.061833922
0.060245266
0.058648179
0.057080885
0.055489328
0.053882634
0.05227681
0.10559698
0.1051744
0.10472444
0.10424709
0.10374237
0.1032102
0.10265043
0.10206284
0.10144717
0.10080308
0.1001302
0.099428138
0.098696511
0.097934924
0.097142997
0.096320372
0.095466718
0.094581738
0.093665176
0.092716827
0.091736538
0.090724216
0.089679835
0.088603438
0.087495143
0.086355146
0.085183725
0.083981238
0.082748125
0.081484908
0.080192181
0.078870608
0.077520816
0.076142562
0.074769523
0.073375874
0.071928688
0.070458675
0.068965975
0.067483513
0.065988679
0.064448877
0.062894917
0.061329071
0.059753422
0.058170069
0.05661568
0.05503281
0.053438616
0.051845169
0.10393806
0.10357246
0.10317678
0.10275114
0.10229568
0.10181044
0.10129538
0.10075038
0.10017528
0.099569839
0.098933796
0.098266859
0.097568726
0.096839093
0.096077664
0.09528416
0.094458323
0.093599932
0.092708801
0.09178479
0.090827814
0.089837842
0.08881491
0.087759118
0.086670642
0.085549734
0.084396722
0.083212017
0.081996107
0.080749553
0.079472978
0.078167039
0.076832323
0.075469014
0.07411638
0.072731804
0.071298072
0.069841697
0.068362929
0.066900403
0.06541286
0.063885679
0.062344873
0.060792286
0.059230402
0.057662368
0.056121035
0.054547857
0.05296681
0.051386482
0.10220484
0.10189724
0.10155692
0.1011841
0.10077904
0.10034188
0.099872688
0.099371453
0.098838095
0.098272482
0.097674444
0.097043783
0.096380284
0.095683728
0.094953902
0.094190602
0.09339365
0.092562894
0.091698219
0.090799555
0.08986688
0.088900229
0.087899697
0.086865447
0.085797711
0.084696798
0.083563091
0.082397056
0.081199234
0.07997024
0.078710759
0.077421514
0.076103234
0.074756601
0.073421467
0.072047787
0.070629225
0.069188022
0.067725068
0.066279589
0.064800916
0.063287981
0.061761126
0.060222281
0.058674334
0.057125286
0.055596281
0.054033678
0.052466448
0.050900004
0.10039857
0.10014973
0.099865604
0.099546507
0.099192788
0.098804696
0.098382388
0.097925945
0.097435379
0.096910651
0.09635168
0.095758354
0.095130546
0.094468116
0.093770931
0.093038865
0.092271812
0.091469693
0.090632464
0.089760122
0.08885271
0.087910327
0.086933131
0.085921344
0.084875259
0.083795241
0.08268173
0.081535249
0.080356398
0.07914586
0.077904396
0.076632835
0.075332057
0.074002997
0.072684833
0.071323367
0.069921099
0.068496271
0.067050234
0.065621121
0.064152754
0.062655005
0.061142886
0.059618006
0.058081029
0.056562204
0.055040118
0.053489387
0.051936788
0.050385051
0.098521031
0.098331442
0.098104093
0.097839383
0.097537743
0.097199506
0.096824915
0.096414134
0.095967262
0.095484342
0.094965378
0.094410339
0.093819178
0.093191835
0.092528252
0.091828376
0.091092176
0.090319643
0.0895108
0.088665712
0.087784488
0.086867291
0.08591434
0.084925919
0.083902378
0.082844141
0.081751706
0.080625653
0.079466646
0.078275437
0.077052878
0.075799917
0.074517572
0.073206873
0.071905953
0.070557893
0.069172721
0.06776524
0.066337376
0.064924704
0.063467999
0.061986222
0.060489869
0.058980642
0.057459794
0.055962227
0.054449779
0.052914269
0.051377186
0.049841036
0.096574556
0.096444421
0.096274164
0.096064257
0.095815196
0.09552739
0.095201153
0.094836727
0.094434284
0.093993945
0.09351579
0.092999865
0.092446195
0.091854797
0.091225682
0.090558872
0.089854404
0.089112337
0.088332763
0.087515811
0.086661656
0.085770522
0.084842691
0.083878507
0.08287838
0.08184279
0.080772293
0.079667526
0.078529211
0.077358175
0.076155363
0.07492186
0.073658846
0.072367387
0.071084277
0.069750731
0.068383211
0.06699379
0.065586197
0.064190004
0.062746159
0.06128111
0.059801548
0.058309357
0.056806283
0.055327372
0.053826418
0.052307646
0.050787127
0.049267503
0.094562009
0.094491327
0.094378176
0.094223213
0.09402698
0.093789945
0.093512486
0.093194906
0.092837446
0.092440293
0.092003594
0.091527466
0.091012004
0.09045729
0.089863406
0.08923044
0.088558496
0.087847698
0.087098205
0.086310208
0.085483946
0.084619705
0.083717827
0.082778716
0.081802839
0.080790734
0.079743012
0.078660364
0.077543568
0.076393511
0.07521123
0.073997976
0.0727552
0.071484093
0.070219477
0.068901494
0.067551974
0.066180594
0.064797395
0.063416434
0.061986647
0.060539129
0.059077315
0.057603267
0.056118984
0.054658234
0.053170428
0.051669331
0.050166333
0.048664172
0.092486873
0.092474987
0.092419102
0.092318938
0.092175502
0.09198933
0.091760838
0.091490381
0.091178255
0.090824706
0.090429942
0.089994139
0.089517455
0.089000034
0.088442021
0.087843568
0.087204839
0.086526024
0.085807341
0.085049046
0.084251435
0.083414857
0.082539713
0.081626464
0.080675635
0.079687819
0.07866368
0.07760396
0.07650948
0.075381174
0.074220144
0.073027814
0.071806123
0.070557045
0.069311527
0.068010209
0.066679233
0.065323438
0.063974363
0.062601542
0.06118883
0.059759808
0.058316628
0.056861686
0.055397615
0.053955144
0.052481976
0.050999329
0.049514737
0.048030958
0.090353963
0.090400071
0.090399836
0.09035477
0.090263789
0.090128308
0.089948723
0.089725432
0.089458776
0.08914905
0.088796511
0.088401388
0.087963893
0.087484227
0.086962592
0.086399195
0.085794262
0.08514804
0.084460804
0.08373287
0.082964593
0.08215638
0.081308687
0.080422035
0.079497003
0.078534238
0.077534457
0.076498445
0.075427066
0.074321269
0.073182159
0.072011197
0.070810886
0.069587328
0.068360493
0.067076995
0.065766269
0.064431241
0.063105846
0.061745934
0.060352675
0.05894301
0.057519071
0.056083707
0.054643218
0.053218491
0.051761238
0.050297788
0.048832468
0.04736798
0.088167965
0.08827099
0.088326101
0.088333851
0.088295464
0.088210302
0.088079294
0.087902963
0.087681682
0.08741578
0.087105555
0.08675128
0.086353213
0.085911604
0.085426704
0.084898773
0.084328088
0.083714952
0.083059695
0.082362686
0.081624338
0.080845109
0.080025516
0.07916613
0.078267586
0.077330584
0.076355893
0.075344347
0.074296844
0.073214345
0.072097867
0.070948393
0.069766306
0.068580011
0.067365638
0.066101648
0.064812502
0.063499841
0.062196043
0.060851359
0.059478617
0.058089097
0.056684561
0.055265941
0.053860838
0.052448042
0.05100844
0.049565017
0.048119862
0.046675587
0.085936023
0.086093084
0.086202191
0.08626243
0.086274389
0.086239219
0.08615639
0.086026552
0.085850304
0.085627999
0.085359964
0.085046505
0.084687918
0.084284493
0.083836524
0.083344317
0.082808196
0.082228512
0.081605646
0.080940019
0.080232093
0.079482381
0.07869145
0.077859924
0.076988493
0.076077907
0.075128988
0.074142621
0.073119758
0.072061403
0.070968601
0.06984238
0.068683627
0.067523784
0.066326345
0.065084364
0.063817861
0.062529205
0.061246734
0.059919036
0.058567616
0.057199342
0.055816075
0.054419365
0.053039949
0.051642559
0.050223907
0.048801542
0.047377513
0.045954394
0.083665743
0.083873958
0.084033956
0.084145266
0.084206974
0.084219619
0.084184329
0.0841005
0.08396869
0.083789514
0.083563318
0.083290431
0.082971177
0.082605877
0.082194862
0.081738475
0.081237083
0.080691078
0.080100887
0.079466976
0.078789857
0.07807009
0.077308291
0.076505135
0.075661359
0.074777769
0.073855237
0.072894706
0.071897188
0.070863764
0.069795566
0.068693763
0.067559556
0.066423776
0.065245072
0.064026005
0.062782645
0.061521293
0.060259165
0.058950007
0.057620723
0.056274748
0.054914108
0.053540705
0.052184685
0.050804844
0.04940851
0.048008278
0.046606352
0.045205333
0.081358081
0.081621508
0.081829335
0.081988649
0.082098544
0.082158236
0.082168225
0.082129649
0.082041653
0.081904889
0.081719947
0.081487167
0.081206889
0.08087946
0.080505236
0.080084593
0.079617931
0.07910568
0.078548307
0.077946318
0.077300267
0.07661076
0.075878458
0.075104082
0.074288418
0.073432317
0.072536705
0.071602581
0.070631026
0.069623205
0.068580359
0.067503775
0.066394755
0.065282868
0.064124369
0.06292851
0.061705556
0.060482444
0.05923303
0.057945429
0.056639184
0.055316471
0.053979509
0.052630333
0.051297497
0.04993698
0.048563801
0.047186615
0.045807708
0.044429699
0.079025026
0.079337204
0.079596926
0.079800704
0.079955899
0.080060931
0.080115355
0.080119544
0.080074687
0.079979506
0.079834989
0.079641622
0.079399749
0.07910973
0.078771942
0.078386783
0.077954682
0.077476099
0.076951533
0.076381528
0.075766675
0.07510762
0.074405064
0.073659771
0.072872569
0.072044354
0.0711761
0.070268857
0.069323773
0.0683421
0.0673252
0.066274497
0.065191338
0.064103791
0.062967083
0.061796074
0.06059832
0.059402635
0.058170832
0.056907142
0.05562481
0.054326146
0.053013757
0.051690085
0.050380736
0.049041031
0.047691699
0.046338359
0.044983322
0.043629192
0.076675345
0.077033565
0.077338699
0.077591045
0.077787332
0.077935028
0.078032117
0.07807822
0.078073743
0.07801959
0.077914453
0.077759577
0.077555314
0.077302032
0.077000121
0.076649997
0.076252106
0.075806933
0.075315005
0.074776895
0.074193226
0.073564679
0.072891991
0.072175964
0.071417464
0.070617427
0.069776864
0.068896871
0.067978645
0.067023518
0.06603299
0.06500873
0.063952353
0.06288957
0.061775826
0.060630551
0.059459239
0.058288729
0.057076849
0.055837916
0.054580163
0.053306016
0.052018642
0.050723181
0.049436935
0.048119272
0.046794454
0.04546573
0.044135373
0.042805944
0.073864772
0.074319055
0.074719972
0.075067627
0.075362191
0.075603772
0.075788865
0.075926502
0.076012712
0.076047564
0.076031687
0.075965306
0.075847752
0.075680073
0.075462639
0.075195841
0.074880102
0.074515884
0.074103685
0.073644055
0.073137588
0.072584938
0.071986811
0.071343978
0.070657272
0.069927593
0.06915591
0.068343266
0.067490783
0.066599683
0.06567132
0.064707268
0.063709614
0.062682259
0.061643859
0.060553579
0.059434263
0.058291685
0.05714534
0.055954955
0.054741296
0.053508671
0.05225906
0.050994014
0.049737147
0.048467937
0.047174287
0.045874728
0.044571412
0.043266524
0.041962575
0.071473087
0.071966379
0.072406531
0.072793544
0.073127636
0.073409386
0.07363336
0.073807464
0.073931737
0.074004136
0.074024935
0.073995016
0.07391387
0.073781518
0.073598824
0.073366166
0.073083966
0.072752688
0.072372844
0.071944993
0.071469752
0.070947791
0.070379843
0.069766704
0.069109236
0.068408366
0.067665094
0.066880488
0.066055686
0.065191895
0.064290362
0.063352264
0.062378262
0.061390081
0.060370688
0.059303833
0.058207536
0.057104475
0.055976383
0.05480919
0.053621363
0.052414732
0.051191229
0.049952768
0.04872452
0.047476758
0.046209224
0.044935826
0.0436587
0.042380012
0.04110225
0.069100087
0.06962854
0.07010426
0.070527108
0.070897112
0.071214329
0.071478554
0.071686394
0.071845068
0.071952818
0.072008677
0.072012863
0.071966538
0.07186821
0.07171894