/*--------------------------------*- C++ -*----------------------------------*\
| =========                 |                                                 |
| \\      /  F ield         | OpenFOAM: The Open Source CFD Toolbox           |
|  \\    /   O peration     | Version:  2312                                  |
|   \\  /    A nd           | Website:  www.openfoam.com                      |
|    \\/     M anipulation  |                                                 |
\*---------------------------------------------------------------------------*/
FoamFile
{
    version     2.0;
    format      ascii;
    arch        "LSB;label=32;scalar=64";
    class       volScalarField;
    location    "0.04";
    object      k;
}
// * * * * * * * * * * * * * * * * * * * * * * * * * * * * * * * * * * * * * //

dimensions      [0 2 -2 0 0 0 0];

internalField   nonuniform List<scalar> 
3250
(
20.893252
20.589712
20.293586
20.004656
19.722706
19.447525
19.178891
18.91658
18.660367
18.41003
18.165346
17.926093
17.692053
17.463012
17.238753
17.019064
16.803738
16.592572
16.385366
16.181926
15.982064
15.785597
15.592349
15.40215
15.214838
15.030258
14.848266
14.668722
14.491498
14.316474
14.14354
13.972596
13.803552
13.636326
13.470841
13.307039
13.144879
12.984328
12.825358
12.667949
12.512096
12.357806
12.205096
12.053988
11.904541
11.756824
11.610837
11.466647
11.324323
20.888963
20.585627
20.289688
20.000937
19.719158
19.444139
19.175659
18.913494
18.657421
18.407217
18.162659
17.923527
17.689603
17.460672
17.236518
17.01693
16.801701
16.590628
16.383511
16.180157
15.980377
15.783989
15.590817
15.400691
15.21345
15.028939
14.847013
14.667533
14.490371
14.315407
14.142532
13.971644
13.802655
13.635483
13.47005
13.306298
13.144188
12.983685
12.824762
12.667399
12.511591
12.357346
12.20468
12.053621
11.904216
11.756525
11.610569
11.466409
11.324126
20.880514
20.577583
20.282024
19.993634
19.712197
19.437503
19.169331
18.907459
18.651665
18.401726
18.157421
17.918529
17.684835
17.456122
17.232178
17.012789
16.797751
16.586859
16.379917
16.176729
15.977109
15.780874
15.587849
15.397864
15.210759
15.026378
14.844577
14.665218
14.488172
14.31332
14.140553
13.969769
13.80088
13.633805
13.468466
13.304806
13.142783
12.982365
12.823525
12.666243
12.510512
12.356342
12.203752
12.052766
11.903431
11.755797
11.609899
11.465795
11.323572
20.867922
20.565596
20.270609
19.982761
19.701838
19.427631
19.159921
18.898489
18.643112
18.393571
18.149644
17.911112
17.67776
17.449375
17.225742
17.006651
16.791896
16.581276
16.374592
16.171652
15.972269
15.776261
15.583453
15.393676
15.20677
15.022581
14.840963
14.661781
14.484904
14.310216
14.137605
13.966973
13.79823
13.631295
13.466091
13.302561
13.140665
12.980368
12.821645
12.664476
12.508856
12.354793
12.202306
12.051422
11.902182
11.754634
11.60882
11.464797
11.322657
20.8512
20.549683
20.255459
19.968331
19.688093
19.414535
19.147442
18.886594
18.631774
18.382761
18.139337
17.901285
17.668389
17.440438
17.217219
16.998523
16.784145
16.573884
16.367543
16.164932
15.965862
15.770154
15.577633
15.388131
15.201488
15.017552
14.836176
14.657225
14.480572
14.306097
14.133693
13.963258
13.794705
13.627953
13.462926
13.299565
13.137832
12.977694
12.819123
12.6621
12.506622
12.352696
12.200342
12.049586
11.900468
11.753034
11.607331
11.463414
11.321377
20.831566
20.530998
20.237671
19.951392
19.671959
19.399164
19.132796
18.872637
18.61847
18.370079
18.127247
17.889757
17.657397
17.429957
17.207224
16.988992
16.775056
16.565217
16.35928
16.157053
15.958351
15.762994
15.57081
15.381629
15.195295
15.011653
14.83056
14.65188
14.475487
14.301262
14.129097
13.958892
13.790561
13.624021
13.459198
13.296034
13.134491
12.974535
12.81614
12.659287
12.503972
12.350204
12.198002
12.047393
11.898416
11.751115
11.605539
11.461745
11.319827
20.809628
20.51012
20.217794
19.932465
19.653932
19.381991
19.116433
18.857044
18.603609
18.355913
18.113742
17.876882
17.645122
17.418252
17.196063
16.978349
16.764907
16.55554
16.350053
16.148255
15.949964
15.755
15.56319
15.374368
15.188377
15.005064
14.824286
14.645908
14.469804
14.295857
14.123958
13.954009
13.785923
13.61962
13.455024
13.292078
13.130745
12.970991
12.81279
12.656125
12.50099
12.347397
12.195363
12.044916
11.896093
11.748939
11.603505
11.459848
11.318062
20.783681
20.485425
20.194284
19.910078
19.632609
19.361679
19.09708
18.838602
18.586032
18.339159
18.097771
17.861656
17.630605
17.40441
17.182865
16.965763
16.752907
16.544097
16.339142
16.137852
15.940046
15.745545
15.554179
15.365781
15.180195
14.99727
14.816864
14.638842
14.46308
14.289459
14.117875
13.948228
13.780431
13.614406
13.450076
13.287387
13.126301
12.966784
12.808812
12.652367
12.497444
12.344055
12.192217
12.041959
11.893318
11.746338
11.60107
11.457574
11.315943
20.75345
20.456651
20.16689
19.883991
19.607764
19.338011
19.07453
18.817113
18.565552
18.319639
18.079162
17.843915
17.613691
17.388283
17.167487
16.9511
16.738924
16.530764
16.326428
16.125731
15.92849
15.734529
15.543678
15.355774
15.17066
14.988187
14.808213
14.630605
14.455239
14.282
14.11078
13.941483
13.774023
13.60832
13.4443
13.281909
13.121108
12.961867
12.80416
12.647969
12.493292
12.340139
12.188529
12.03849
11.890058
11.743279
11.598205
11.454895
11.313443
20.718649
20.423527
20.135352
19.853958
19.579159
19.310761
19.048567
18.792372
18.541973
18.297163
18.057736
17.823489
17.594216
17.369714
17.14978
16.934216
16.722824
16.515412
16.31179
16.111773
15.915182
15.721842
15.531585
15.344248
15.159677
14.977723
14.798247
14.621115
14.446205
14.273403
14.102602
13.933708
13.766633
13.601301
13.437637
13.275587
13.115115
12.956189
12.798786
12.642887
12.488491
12.335608
12.184258
12.034469
11.886278
11.739729
11.594876
11.45178
11.310534
20.678982
20.385768
20.0994
19.81972
19.546548
19.279695
19.018966
18.764164
18.515088
18.271537
18.033307
17.800198
17.57201
17.34854
17.12959
16.914963
16.704465
16.497905
16.295096
16.095855
15.900005
15.707373
15.517792
15.331102
15.147149
14.965787
14.786876
14.610287
14.435896
14.263591
14.093268
13.924831
13.758196
13.593285
13.430025
13.268363
13.108264
12.949697
12.792639
12.637072
12.482994
12.330419
12.179364
12.029859
11.88194
11.735653
11.591053
11.448199
11.307186
20.634144
20.343084
20.058755
19.781012
19.509677
19.244568
18.985496
18.732268
18.484687
18.242558
18.005681
17.773859
17.546896
17.324594
17.106755
16.893187
16.683699
16.478102
16.276212
16.077848
15.882836
15.691003
15.502187
15.316227
15.132973
14.952279
14.774008
14.598031
14.424227
14.252484
14.082699
13.914779
13.748639
13.584204
13.421399
13.260176
13.100498
12.942336
12.785666
12.630473
12.476755
12.324525
12.173803
12.024617
11.877006
11.731014
11.586697
11.444117
11.303367
20.583819
20.295172
20.01313
19.737557
19.468283
19.20513
18.947916
18.696453
18.45055
18.210016
17.974657
17.74428
17.518692
17.297698
17.081107
16.868728
16.660373
16.455857
16.254998
16.057619
15.863546
15.672611
15.484652
15.299512
15.117042
14.937097
14.759544
14.584254
14.411108
14.239995
14.070814
13.903473
13.73789
13.573987
13.411694
13.250961
13.091756
12.934046
12.777812
12.623037
12.469722
12.317879
12.167529
12.018702
11.871434
11.725773
11.581774
11.439499
11.299044
20.527686
20.241723
19.962229
19.689074
19.422095
19.161122
18.905978
18.656483
18.412451
18.173695
17.940027
17.711261
17.487206
17.267673
17.052473
16.84142
16.634329
16.431018
16.231309
16.035028
15.842003
15.652069
15.465067
15.280841
15.099245
14.920136
14.743383
14.568859
14.396446
14.226036
14.057528
13.890833
13.72587
13.562561
13.400837
13.240652
13.081972
12.924767
12.769018
12.614709
12.461842
12.31043
12.160495
12.012065
11.865181
11.719888
11.576243
11.434309
11.294181
20.465412
20.182421
19.905748
19.635271
19.370836
19.112278
18.859428
18.612113
18.370154
18.13337
17.901579
17.674598
17.452244
17.23433
17.020673
16.81109
16.605401
16.403427
16.204994
16.009931
15.818068
15.629245
15.443304
15.260092
15.079465
14.901285
14.725419
14.551744
14.380145
14.210514
14.042754
13.876775
13.712498
13.549847
13.388755
13.229177
13.071079
12.914434
12.759222
12.60543
12.45306
12.302125
12.152649
12.004661
11.8582
11.713315
11.570063
11.428507
11.288742
20.396663
20.116942
19.843377
19.575852
19.31422
19.058325
18.808005
18.563095
18.323423
18.088814
17.859092
17.634082
17.413603
17.197476
16.985521
16.777562
16.57342
16.372923
16.175898
15.982179
15.7916
15.604003
15.419233
15.237141
15.057585
14.880428
14.705542
14.532805
14.362104
14.193334
14.026398
13.861209
13.697691
13.535767
13.375372
13.216463
13.059008
12.902981
12.748361
12.595139
12.443317
12.292909
12.143939
11.996438
11.850445
11.70601
11.56319
11.42205
11.282686
20.321097
20.04496
19.774803
19.510516
19.251959
18.998986
18.751443
18.509173
18.272011
18.039791
17.812342
17.589496
17.371077
17.156913
16.946829
16.740653
16.538212
16.339337
16.14386
15.951618
15.76245
15.576201
15.392718
15.211858
15.033478
14.857448
14.683639
14.511933
14.342219
14.174395
14.008365
13.844045
13.68136
13.520235
13.360606
13.202433
13.045685
12.890336
12.736368
12.583772
12.432552
12.282723
12.134309
11.987342
11.841864
11.697923
11.555579
11.414897
11.275973
20.238371
19.96614
19.699706
19.438956
19.18376
18.93398
18.689472
18.450087
18.215671
17.986062
17.761099
17.540619
17.324455
17.112439
16.904402
16.700177
16.499597
16.302498
16.108716
15.918091
15.730468
15.545694
15.363622
15.184109
15.007018
14.83222
14.659591
14.489015
14.320382
14.153594
13.988556
13.825188
13.663415
13.503165
13.344375
13.187008
13.031034
12.876428
12.723173
12.571263
12.420701
12.271506
12.123701
11.97732
11.832404
11.689005
11.547181
11.407
11.268558
20.148132
19.880151
19.617768
19.360866
19.109327
18.863023
18.621819
18.385576
18.154149
17.927385
17.705131
17.48723
17.273522
17.063847
16.858041
16.655944
16.457394
16.26223
16.070296
15.881436
15.695498
15.512334
15.3318
15.153757
14.978073
14.80462
14.633279
14.463934
14.296482
14.130823
13.966869
13.804539
13.643762
13.484466
13.326593
13.170105
13.014975
12.86118
12.708704
12.557541
12.407699
12.259194
12.112054
11.966312
11.822011
11.679202
11.537946
11.398312
11.260396
20.318783
20.050006
19.786657
19.528667
19.275939
19.028364
18.785829
18.548209
18.315374
18.087192
17.863515
17.644201
17.4291
17.21806
17.010927
16.807546
16.60776
16.411415
16.218355
16.02843
15.841487
15.657381
15.475967
15.297105
15.120662
14.946507
14.774517
14.604576
14.436572
14.270403
14.105974
13.943198
13.781998
13.622303
13.464046
13.307169
13.151638
12.997427
12.844513
12.692884
12.542535
12.393475
12.245723
12.099305
11.954258
11.810625
11.668459
11.527821
11.388781
11.251437
20.207158
19.943678
19.685333
19.432089
19.183868
18.940577
18.702114
18.468367
18.239219
18.014543
17.794206
17.578072
17.366001
17.157849
16.953468
16.752711
16.555428
16.361471
16.170691
15.982941
15.798077
15.615955
15.436438
15.259389
15.084679
14.912182
14.741779
14.573355
14.406805
14.242028
14.078932
13.917434
13.757458
13.598938
13.441807
13.286011
13.131518
12.978303
12.826346
12.675635
12.526168
12.377957
12.231021
12.085388
11.941095
11.798187
11.656717
11.51675
11.378355
11.241632
20.086649
19.828826
19.57586
19.327723
19.084353
18.845674
18.611597
18.382023
18.156845
17.93595
17.719213
17.506509
17.297706
17.092668
16.891257
16.693332
16.498751
16.307373
16.119054
15.933654
15.751035
15.571057
15.393589
15.2185
15.045663
14.874958
14.706269
14.539487
14.374507
14.211235
14.049581
13.889465
13.730814
13.573564
13.417651
13.263024
13.109653
12.957516
12.806594
12.656876
12.508365
12.361072
12.215018
12.070234
11.926757
11.784633
11.643918
11.504676
11.366978
11.230926
19.956911
19.705134
19.457929
19.215267
18.977102
18.743371
18.514002
18.288908
18.067995
17.851161
17.638293
17.429275
17.223986
17.022298
16.824081
16.629204
16.437531
16.248928
16.063259
15.88039
15.700188
15.522521
15.34726
15.174282
15.003464
14.83469
14.66785
14.502837
14.339551
14.177902
14.017803
13.859177
13.701954
13.546074
13.391475
13.238109
13.085949
12.934975
12.78517
12.636524
12.489043
12.34274
12.19764
12.053771
11.911175
11.769898
11.629997
11.491537
11.354591
11.219262
20.067099
19.817589
19.572293
19.331244
19.094433
18.861831
18.633392
18.409059
18.18876
17.972414
17.759929
17.551206
17.346139
17.144616
16.94652
16.751731
16.560123
16.37157
16.185946
16.003122
15.822971
15.645365
15.470179
15.297291
15.126581
14.957932
14.791235
14.626381
14.46327
14.301807
14.141902
13.983476
13.826452
13.670767
13.51636
13.363175
13.211166
13.060309
12.910586
12.761983
12.614491
12.468119
12.322884
12.178808
12.035926
11.894277
11.753913
11.614889
11.477271
11.341134
11.20658
19.910654
19.668419
19.43002
19.195524
18.964944
18.73827
18.515474
18.296512
18.081329
17.869857
17.662016
17.457721
17.256875
17.059377
16.865122
16.673997
16.485886
16.300673
16.118238
15.93846
15.761218
15.586392
15.413865
15.243519
15.075239
14.908917
14.744445
14.581722
14.420651
14.261142
14.103109
13.946477
13.791173
13.637137
13.484312
13.332644
13.182091
13.032633
12.884253
12.73694
12.590689
12.445509
12.301418
12.158444
12.016621
11.875992
11.736607
11.598526
11.461814
11.326544
11.192814
19.743698
19.509147
19.278057
19.050513
18.826547
18.606169
18.389367
18.176117
17.966375
17.760089
17.557193
17.357612
17.161263
16.968056
16.777895
16.590677
16.406298
16.224648
16.045616
15.86909
15.694955
15.523101
15.353413
15.185783
15.020103
14.856267
14.694176
14.533731
14.374842
14.217423
14.061394
13.906681
13.753219
13.600948
13.449816
13.299773
13.15078
13.00282
12.855879
12.709948
12.565025
12.421122
12.278259
12.136465
11.995778
11.856241
11.717908
11.580838
11.445099
11.310761
19.565991
19.339545
19.116174
18.895978
18.679009
18.465296
18.254846
18.047647
17.843676
17.642891
17.445242
17.250667
17.059095
16.870447
16.684639
16.501577
16.321167
16.143309
15.9679
15.794836
15.624011
15.455322
15.288661
15.123927
14.961017
14.799833
14.64028
14.482266
14.325706
14.170518
14.016628
13.863965
13.712468
13.562083
13.412759
13.264451
13.117126
12.970766
12.825363
12.68091
12.537407
12.394868
12.253318
12.112787
11.973314
11.834946
11.697738
11.561752
11.427058
11.293739
19.377338
19.159418
18.944173
18.731718
18.522128
18.315448
18.111703
17.910899
17.713026
17.51806
17.325964
17.136689
16.950176
16.766359
16.585164
16.40651
16.230311
16.056476
15.884913
15.715526
15.548218
15.382891
15.219448
15.057792
14.897829
14.739466
14.582614
14.427188
14.273107
14.120295
13.968681
13.818202
13.6688
13.520423
13.373027
13.226568
13.081019
12.936367
12.792603
12.649726
12.507738
12.366656
12.226506
12.087322
11.949146
11.812026
11.67602
11.541192
11.407616
11.27538
19.177595
18.968614
18.761894
18.557569
18.355733
18.15645
17.959762
17.765692
17.574246
17.385416
17.199177
17.015496
16.834326
16.655613
16.479295
16.305301
16.133557
15.963981
15.79649
15.630998
15.467415
15.305652
15.14562
14.987229
14.830392
14.675022
14.521037
14.368358
14.216909
14.06662
13.917426
13.769268
13.622091
13.47585
13.330503
13.186012
13.042353
12.899516
12.757497
12.616297
12.475921
12.33639
12.197731
12.059982
11.923188
11.787398
11.652672
11.519079
11.386694
11.255609
18.966674
18.767032
18.569225
18.373409
18.179694
17.988164
17.798879
17.611878
17.427183
17.244801
17.064723
16.886929
16.711385
16.538049
16.366871
16.197792
16.030747
15.865666
15.702474
15.541096
15.381449
15.223455
15.067029
14.912092
14.758562
14.606361
14.455412
14.305642
14.156982
14.009366
13.862737
13.717038
13.572223
13.428247
13.285072
13.142669
13.001016
12.860108
12.719941
12.580522
12.441859
12.303974
12.1669
12.030677
11.895351
11.760975
11.627612
11.495332
11.364213
11.23435
18.744547
18.554626
18.366105
18.179161
17.993923
17.810492
17.628946
17.449341
17.271715
17.09609
16.922471
16.750853
16.581214
16.413526
16.24775
16.083838
15.921737
15.761386
15.602723
15.445677
15.29018
15.136157
14.983536
14.832243
14.682204
14.533348
14.385605
14.238909
14.093196
13.948407
13.804489
13.661393
13.519076
13.377497
13.236622
13.096428
12.956901
12.818034
12.679831
12.542299
12.405451
12.269312
12.13392
11.999314
11.865546
11.73267
11.600754
11.469868
11.340093
11.211524
18.511255
18.331414
18.152531
17.974805
17.798383
17.623383
17.4499
17.278007
17.107758
16.939189
16.772321
16.607161
16.443703
16.281929
16.121813
15.963318
15.806403
15.651017
15.497107
15.344615
15.193477
15.043632
14.895013
14.747554
14.60119
14.455858
14.311493
14.168036
14.02543
13.883622
13.742565
13.602215
13.462534
13.323486
13.185039
13.047181
12.909898
12.773191
12.637063
12.501527
12.366598
12.232308
12.098693
11.965801
11.833682
11.702396
11.572011
11.442602
11.314251
11.187054
18.266915
18.097483
17.928566
17.760381
17.593093
17.426837
17.261725
17.097845
16.935268
16.774044
16.614208
16.455781
16.29877
16.14317
15.988966
15.836134
15.684642
15.534452
15.38552
15.237796
15.091229
14.945763
14.801342
14.657909
14.515404
14.373772
14.232957
14.092905
13.953567
13.814896
13.676849
13.539389
13.402485
13.266103
13.130216
12.994819
12.859904
12.725473
12.591535
12.458104
12.325202
12.192863
12.061127
11.930044
11.799668
11.670062
11.541296
11.413449
11.286603
11.160857
18.011726
17.852998
17.694342
17.535994
17.378133
17.220912
17.064458
16.908875
16.754248
16.600642
16.448107
16.296676
16.146368
15.997192
15.849145
15.702214
15.556377
15.411608
15.267872
15.12513
14.983339
14.842454
14.702425
14.563204
14.424741
14.286986
14.149892
14.013411
13.877501
13.74212
13.607234
13.472809
13.33882
13.205241
13.072048
12.93924
12.806815
12.674779
12.543145
12.411932
12.281165
12.150881
12.021125
11.89195
11.763412
11.635578
11.508521
11.382322
11.257066
11.132852
17.745974
17.598206
17.450072
17.301821
17.153652
17.005729
16.858195
16.71117
16.564752
16.419021
16.274038
16.12985
15.98649
15.843977
15.70232
15.561517
15.421559
15.282429
15.144101
15.006547
14.869734
14.733624
14.598177
14.463354
14.329112
14.195408
14.062203
13.929458
13.797134
13.665198
13.533621
13.402376
13.271442
13.140801
13.010435
12.880343
12.750531
12.62101
12.491797
12.362913
12.23439
12.106267
11.978595
11.851426
11.724824
11.598856
11.473598
11.349135
11.225554
11.102956
17.470043
17.333444
17.196049
17.058121
16.919871
16.781478
16.6431
16.504867
16.366893
16.229269
16.09207
15.955356
15.81917
15.683543
15.548497
15.414039
15.280172
15.146887
15.014171
14.882004
14.750362
14.619216
14.488537
14.358291
14.228444
14.098962
13.969812
13.840962
13.712381
13.584042
13.455921
13.327999
13.20026
13.072692
12.945283
12.818035
12.69096
12.564073
12.437396
12.310955
12.184785
12.058931
11.933444
11.808383
11.683813
11.559805
11.43644
11.313802
11.191983
11.071084
17.184412
17.059141
16.932656
16.805232
16.677091
16.548424
16.419401
16.290165
16.160841
16.031533
15.902327
15.773294
15.644489
15.515956
15.387723
15.259812
15.132234
15.00499
14.878078
14.751486
14.6252
14.4992
14.373465
14.247968
14.122686
13.99759
13.872656
13.747857
13.623172
13.498578
13.374059
13.2496
13.125193
13.00083
12.876507
12.752229
12.628013
12.50388
12.379854
12.255968
12.132261
12.008782
11.885585
11.762732
11.640292
11.518341
11.39696
11.276238
11.156269
11.037155
16.889669
16.775828
16.660372
16.543585
16.425696
16.30691
16.187405
16.067335
15.946836
15.826022
15.704991
15.583822
15.462584
15.341327
15.220093
15.098912
14.977805
14.856784
14.735853
14.615013
14.494256
14.373572
14.252947
14.132365
14.011808
13.891256
13.770691
13.650096
13.529453
13.408748
13.287971
13.167113
13.046171
12.925144
12.804033
12.682848
12.561612
12.440351
12.319091
12.197872
12.076737
11.955738
11.834934
11.71439
11.594179
11.474379
11.355075
11.23636
11.11833
11.001088
16.586507
16.484137
16.379771
16.273699
16.16616
16.057364
15.947497
15.836723
15.725187
15.613012
15.500306
15.387157
15.273642
15.159823
15.04575
14.931462
14.816989
14.702353
14.587566
14.472638
14.35757
14.24236
14.127003
14.011488
13.895807
13.779948
13.663899
13.54765
13.43119
13.314512
13.197612
13.080488
12.963141
12.845574
12.727798
12.609827
12.491691
12.373417
12.255032
12.13659
12.018135
11.899722
11.781413
11.663279
11.545393
11.42784
11.310708
11.194091
11.078088
10.962805
16.275729
16.184804
16.091528
15.996194
15.899045
15.800298
15.700144
15.598754
15.496279
15.392851
15.288585
15.183579
15.077916
14.971667
14.864891
14.757635
14.649938
14.541828
14.43333
14.324457
14.215222
14.105629
13.99568
13.885375
13.77471
13.663682
13.552285
13.440516
13.328372
13.215852
13.102957
12.989693
12.876063
12.762078
12.647754
12.533116
12.418193
12.303019
12.187616
12.072061
11.956392
11.840667
11.724954
11.609327
11.493865
11.378653
11.263785
11.149356
11.035469
10.922232
15.958238
15.878669
15.796418
15.711783
15.62501
15.536317
15.4459
15.353934
15.260575
15.165961
15.070213
14.973436
14.87572
14.777144
14.677772
14.57766
14.476854
14.375391
14.273302
14.170609
14.067331
13.963481
13.859068
13.754098
13.648576
13.542504
13.435884
13.328719
13.221014
13.112772
13.004003
12.894716
12.784922
12.67463
12.563873
12.452677
12.341076
12.229106
12.116804
12.004236
11.891451
11.778515
11.665497
11.552474
11.439529
11.326753
11.214239
11.102089
10.990407
10.879301
15.635055
15.56667
15.495317
15.421282
15.344808
15.266119
15.185409
15.102856
15.018619
14.932841
14.845647
14.757147
14.667438
14.576601
14.484709
14.391824
14.297998
14.203275
14.107693
14.011281
13.914065
13.816063
13.717294
13.617769
13.517499
13.416494
13.314763
13.212314
13.109157
13.005305
12.900771
12.795571
12.689719
12.583228
12.476145
12.368497
12.260321
12.151658
12.042555
11.933074
11.823274
11.713222
11.602994
11.492669
11.382335
11.272085
11.162017
11.052233
10.942842
10.833955
15.307311
15.249862
15.189195
15.125594
15.059288
14.99049
14.919401
14.846197
14.77104
14.694073
14.615425
14.535209
14.453524
14.370457
14.286087
14.200478
14.11369
14.025772
13.936767
13.846712
13.755637
13.663569
13.570531
13.476541
13.381616
13.285773
13.189026
13.091389
12.99288
12.893514
12.793312
12.692295
12.590484
12.4879
12.384589
12.280585
12.175929
12.070668
11.964857
11.858558
11.751835
11.644762
11.537415
11.429879
11.322246
11.21461
11.107074
10.999743
10.892729
10.786143
14.97622
14.929396
14.87914
14.825727
14.769385
14.710312
14.648699
14.584725
14.518551
14.450321
14.380163
14.308191
14.234508
14.159203
14.082356
14.004039
13.924313
13.843233
13.760847
13.677197
13.592319
13.506244
13.419002
13.330616
13.241109
13.150503
13.058818
12.966075
12.872294
12.777499
12.681714
12.584966
12.487284
12.388695
12.289243
12.188971
12.087925
11.986152
11.88372
11.780692
11.677135
11.573126
11.468748
11.364087
11.259239
11.154303
11.049383
10.944589
10.840034
10.735832
14.643086
14.606507
14.566321
14.522789
14.476132
14.426548
14.374212
14.319293
14.261952
14.202332
14.140559
14.076747
14.010997
13.943402
13.874043
13.802993
13.730318
13.656076
13.580319
13.503092
13.424437
13.34439
13.262983
13.180247
13.096209
13.010895
12.924331
12.836543
12.747557
12.657401
12.566104
12.473698
12.380218
12.285698
12.190182
12.09372
11.996362
11.898155
11.799183
11.699506
11.599196
11.498333
11.397003
11.295298
11.193316
11.09116
10.988936
10.886759
10.784743
10.683004
14.30931
14.282509
14.251985
14.217967
14.180658
14.140254
14.096931
14.05084
14.002129
13.950939
13.897395
13.841607
13.783678
13.723697
13.661747
13.597902
13.532229
13.464789
13.395636
13.324819
13.252383
13.178368
13.10281
13.025744
12.9472
12.867211
12.785806
12.703016
12.618872
12.533405
12.44665
12.358644
12.269425
12.179033
12.087516
11.994928
11.901325
11.806763
11.71132
11.615064
11.518071
11.420426
11.322219
11.223544
11.124503
11.025202
10.92575
10.826264
10.726862
10.627662
13.976373
13.958805
13.937459
13.912521
13.88416
13.852576
13.817935
13.780385
13.74005
13.697059
13.651535
13.603588
13.553317
13.500809
13.446147
13.389402
13.330643
13.269931
13.207323
13.142869
13.076617
13.008608
12.938883
12.867479
12.794431
12.719774
12.643543
12.565771
12.486494
12.405748
12.323572
12.240004
12.155089
12.068871
11.981403
11.892743
11.802951
11.71209
11.620235
11.527461
11.433849
11.339487
11.244468
11.14889
11.052858
10.956479
10.859869
10.763144
10.666427
10.569834
13.645813
13.636861
13.624143
13.607782
13.587909
13.564729
13.538395
13.509036
13.476763
13.441689
13.403926
13.363586
13.320763
13.275542
13.228001
13.178211
13.126237
13.072142
13.015982
12.957808
12.897669
12.835609
12.77167
12.705892
12.638313
12.56897
12.497902
12.425146
12.35074
12.274725
12.197142
12.118033
12.037447
11.955434
11.872049
11.787356
11.701417
11.6143
11.52608
11.436838
11.346659
11.255635
11.16386
11.071438
10.978473
10.885079
10.791372
10.697471
10.603502
10.509583
13.316017
13.319052
13.31814
13.313498
13.305142
13.293247
13.278014
13.259556
13.23798
13.213395
13.185901
13.155595
13.12258
13.086949
13.048783
13.008153
12.965128
12.919771
12.872141
12.822294
12.770281
12.71615
12.659948
12.601717
12.541498
12.479332
12.415258
12.349316
12.281547
12.211992
12.140695
12.067699
11.993051
11.9168
11.839004
11.75972
11.679015
11.596955
11.513611
11.42906
11.343387
11.256682
11.169037
11.080553
10.991333
10.901487
10.811129
10.720378
10.629358
10.538193
10.447006
12.987512
12.997808
13.004236
13.006939
13.006019
13.001618
12.993806
12.982735
12.968481
12.951156
12.93085
12.907647
12.881632
12.852892
12.821504
12.787534
12.751043
12.712091
12.670734
12.627026
12.581018
12.532757
12.482287
12.429652
12.374894
12.318054
12.259173
12.198293
12.135457
12.070707
12.00409
11.935652
11.865444
11.793517
11.71993
11.644746
11.568033
11.48986
11.410301
11.329438
11.247357
11.164152
11.079918
10.994757
10.908776
10.822087
10.734807
10.647057
10.558963
10.470651
10.382245
12.666872
12.683664
12.696711
12.706126
12.711996
12.714408
12.71347
12.70928
12.70185
12.691325
12.677772
12.661272
12.64189
12.619699
12.59477
12.567162
12.536932
12.504133
12.468819
12.43104
12.390844
12.348275
12.303377
12.256194
12.206766
12.155135
12.101342
12.045431
11.987444
11.927428
11.865428
11.801496
11.735683
11.668044
11.598638
11.527531
11.454794
11.380498
11.304722
11.227547
11.149066
11.069372
10.988564
10.906746
10.824027
10.740522
10.65635
10.571634
10.486501
10.401079
10.315493
12.355717
12.378229
12.397157
12.412585
12.424576
12.433191
12.438498
12.440564
12.439457
12.435258
12.427986
12.417748
12.404587
12.388564
12.369733
12.348151
12.323868
12.296933
12.267393
12.235293
12.200678
12.16359
12.12407
12.082159
12.037898
11.991326
11.942487
11.891421
11.838174
11.782791
11.725321
11.665815
11.604329
11.540916
11.475639
11.408565
11.339768
11.269321
11.197303
11.123802
11.048909
10.972721
10.895338
10.816867
10.737419
10.657111
10.576063
10.4944
10.41225
10.329745
10.247008
12.055644
12.083099
12.10716
12.127883
12.145304
12.15946
12.170394
12.178157
12.182793
12.184342
12.182875
12.178432
12.171042
12.160764
12.147637
12.131709
12.113024
12.091625
12.067553
12.040849
12.01155
11.979697
11.945325
11.908475
11.869184
11.827491
11.783437
11.737064
11.688417
11.63754
11.584484
11.529299
11.472043
11.412771
11.351546
11.288439
11.223523
11.156874
11.088572
11.018707
10.947372
10.874665
10.800689
10.725552
10.649367
10.572252
10.494328
10.415723
10.336565
10.256987
10.177112
11.768223
11.799853
11.828304
11.853603
11.875761
11.894792
11.910718
11.923565
11.933367
11.94014
11.943915
11.944726
11.942655
11.937673
11.929826
11.919146
11.905678
11.889456
11.870514
11.848887
11.824606
11.797707
11.768222
11.736187
11.701638
11.664611
11.625145
11.583282
11.539064
11.492537
11.443749
11.392753
11.339604
11.28436
11.227087
11.167855
11.106738
11.043813
10.97916
10.912873
10.845044
10.775774
10.705166
10.63333
10.56038
10.486436
10.411619
10.336058
10.259884
10.183227
10.106215
11.49499
11.530054
11.562171
11.59134
11.61755
11.640794
11.66107
11.678385
11.692754
11.704176
11.712661
11.718228
11.720915
11.720735
11.717747
11.711885
11.703226
11.691792
11.677612
11.660712
11.64112
11.618863
11.593972
11.566476
11.536409
11.503804
11.468697
11.431129
11.391141
11.348777
11.304085
11.257115
11.207922
11.156568
11.103119
11.047645
10.990217
10.930915
10.869822
10.807029
10.742632
10.67673
10.609429
10.540841
10.471077
10.40026
10.328513
10.255964
10.182744
10.108986
10.034815
11.237456
11.275252
11.310343
11.342703
11.3723
11.399106
11.4231
11.444269
11.462602
11.478092
11.490727
11.500513
11.507468
11.511607
11.512931
11.511462
11.507192
11.500133
11.490319
11.47777
11.462507
11.444553
11.423932
11.40067
11.374794
11.346337
11.315331
11.281814
11.245826
11.207408
11.166608
11.123472
11.078059
11.030428
10.980646
10.928782
10.874908
10.819103
10.761451
10.702044
10.640977
10.578351
10.514271
10.448849
10.3822
10.314444
10.245706
10.176113
10.105796
10.03489
9.9635177
10.997116
11.036994
11.074409
11.109319
11.141668
11.171412
11.198511
11.222931
11.244644
11.263625
11.279848
11.293313
11.304018
11.311967
11.317153
11.319567
11.319209
11.316124
11.310258
11.30166
11.290345
11.276328
11.259627
11.240264
11.218262
11.19365
11.166456
11.136716
11.104466
11.069747
11.032603
10.993085
10.951245
10.907143
10.86084
10.812408
10.76192
10.709456
10.655099
10.598939
10.541073
10.481601
10.420629
10.358267
10.294632
10.229843
10.164025
10.097306
10.029817
9.9616895
9.8930495
10.775469
10.816841
10.855992
10.892857
10.927367
10.959459
10.989079
11.016175
11.0407
11.062609
11.081875
11.098484
11.112423
11.123676
11.132229
11.138062
11.141167
11.141538
11.139222
11.134162
11.12639
11.115921
11.102767
11.086944
11.068472
11.047374
11.023676
10.99741
10.968608
10.937311
10.903561
10.867407
10.8289
10.788097
10.745055
10.699848
10.65255
10.603238
10.551997
10.498916
10.444089
10.387618
10.329608
10.270169
10.209416
10.14747
10.084455
10.020497
9.955727
9.8902774
9.8242723
10.574052
10.616406
10.656767
10.695055
10.731187
10.765085
10.796678
10.825903
10.852699
10.877013
10.898809
10.918052
10.934713
10.948763
10.960185
10.968953
10.975051
10.978458
10.979181
10.977245
10.972607
10.965279
10.955277
10.942613
10.927302
10.909363
10.888817
10.865693
10.840021
10.811839
10.781187
10.748113
10.712664
10.674894
10.634864
10.592643
10.548303
10.501922
10.453583
10.403375
10.351391
10.297733
10.242503
10.185814
10.127777
10.068514
10.008148
9.9468036