/*--------------------------------*- C++ -*----------------------------------*\
| =========                 |                                                 |
| \\      /  F ield         | OpenFOAM: The Open Source CFD Toolbox           |
|  \\    /   O peration     | Version:  2312                                  |
|   \\  /    A nd           | Website:  www.openfoam.com                      |
|    \\/     M anipulation  |                                                 |
\*---------------------------------------------------------------------------*/
FoamFile
{
    version     2.0;
    format      ascii;
    arch        "LSB;label=32;scalar=64";
    class       volScalarField;
    location    "0.04";
    object      Ma;
}
// * * * * * * * * * * * * * * * * * * * * * * * * * * * * * * * * * * * * * //

dimensions      [0 0 0 0 0 0 0];

internalField   nonuniform List<scalar> 
3250
(
0.0073812827
0.0072653034
0.0071509641
0.0070378019
0.0069258939
0.0068151053
0.0067053657
0.0065966077
0.0064887778
0.0063818303
0.006275724
0.0061704312
0.006065963
0.005962248
0.0058592505
0.005756985
0.0056554361
0.0055545962
0.0054544592
0.0053550217
0.0052562825
0.0051582425
0.0050609042
0.004964272
0.0048683513
0.004773149
0.0046786728
0.0045849312
0.0044919335
0.004399689
0.0043082083
0.0042174979
0.0041275829
0.0040384289
0.0039501088
0.003862584
0.0037759104
0.0036900687
0.0036050506
0.0035209033
0.0034375953
0.0033551488
0.0032735678
0.0031928535
0.0031130093
0.0030340341
0.0029559576
0.0028787392
0.0028023788
0.007379818
0.0072639133
0.0071496633
0.0070365843
0.0069247521
0.0068140342
0.0067043614
0.0065956668
0.006487897
0.0063810067
0.0062749551
0.0061697143
0.0060652957
0.0059616272
0.0058586746
0.0057564519
0.0056549438
0.0055541428
0.0054540429
0.0053546408
0.0052559353
0.0051579274
0.0050606197
0.0049640166
0.0048681236
0.0047729477
0.0046784965
0.0045847787
0.0044918036
0.0043995805
0.0043081201
0.004217429
0.0041275325
0.0040383955
0.0039500913
0.0038625815
0.0037759222
0.003690094
0.0036050885
0.0035209531
0.0034376563
0.0033552205
0.0032736496
0.0031929446
0.0031131084
0.0030341411
0.0029560715
0.0028788597
0.0028025062
0.0073768447
0.007261104
0.0071470295
0.0070341122
0.00692243
0.0068118523
0.0067023119
0.0065937427
0.0064860922
0.0063793151
0.0062733714
0.0061682335
0.0060639129
0.0059603362
0.0058574721
0.0057553337
0.005653906
0.0055531815
0.0054531546
0.0053538219
0.0052551826
0.0051572377
0.00505999
0.0049634439
0.0048676051
0.0047724806
0.0046780783
0.0045844068
0.0044914757
0.0043992942
0.0043078734
0.0042172197
0.0041273584
0.0040382545
0.0039499813
0.0038625007
0.0037758689
0.0036900666
0.0036050854
0.0035209728
0.0034376973
0.0033552816
0.0032737295
0.0031930418
0.0031132213
0.0030342691
0.0029562131
0.0028790139
0.0028026728
0.007372353
0.0072568863
0.007143069
0.0070303898
0.0069189308
0.0068085624
0.0066992197
0.006590838
0.0064833654
0.0063767574
0.0062709751
0.0061659909
0.0060618163
0.0059583768
0.0058556447
0.0057536322
0.0056523243
0.005551714
0.0054517957
0.0053525666
0.0052540259
0.0051561748
0.0050590163
0.004962555
0.0048667968
0.0047717489
0.0046774193
0.0045838167
0.0044909509
0.0043988313
0.004307469
0.0042168708
0.0041270618
0.0040380067
0.0039497795
0.0038623425
0.0037757515
0.0036899874
0.0036050421
0.0035209631
0.003437719
0.0033553328
0.0032738082
0.0031931459
0.0031133488
0.0030344188
0.0029563829
0.0028792023
0.0028028788
0.0073663277
0.0072512761
0.0071377867
0.0070254215
0.0069142577
0.0068041672
0.0066950871
0.0065869544
0.0064797182
0.0063733349
0.0062677668
0.006162987
0.0060590065
0.0059557492
0.0058531926
0.0057513472
0.0056501985
0.0055497399
0.0054499661
0.0053508744
0.0052524646
0.005154738
0.0050576979
0.0049613492
0.004865698
0.0047707517
0.0046765184
0.0045830073
0.004490228
0.0043981905
0.0043069059
0.0042163811
0.0041266412
0.0040376508
0.0039494846
0.0038621052
0.0037755683
0.0036898549
0.0036049571
0.0035209225
0.0034377198
0.0033553726
0.003273884
0.0031932552
0.0031134893
0.0030345883
0.0029565793
0.0028794231
0.0028031229
0.0073592516
0.0072446774
0.0071315668
0.0070195715
0.0069087541
0.0067989902
0.0066902192
0.0065823794
0.0064754213
0.0063693022
0.0062639861
0.006159447
0.0060556948
0.0059526519
0.005850302
0.0057486533
0.0056476921
0.0055474119
0.0054478081
0.0053488783
0.0052506224
0.0051530424
0.0050561417
0.0049599256
0.0048644003
0.0047695735
0.0046754536
0.00458205
0.0044893726
0.0043974316
0.0043062382
0.0042157997
0.0041261411
0.0040372267
0.0039491321
0.0038618205
0.0037753471
0.0036896931
0.0036048509
0.0035208684
0.0034377143
0.0033554125
0.0032739661
0.0031933765
0.003113647
0.0030347801
0.0029568023
0.0028796749
0.0028034015
0.0073513885
0.0072373365
0.0071246487
0.0070130697
0.0069026404
0.0067932436
0.0066848199
0.0065773096
0.0064706644
0.0063648425
0.0062598098
0.0061555419
0.0060520464
0.005949245
0.0058471277
0.0057457005
0.0056449503
0.0055448711
0.0054454586
0.0053467111
0.0052486287
0.0051512137
0.00505447
0.004958403
0.0048630194
0.0047683271
0.0046743349
0.0045810522
0.0044884893
0.0043966566
0.0043055657
0.0042152241
0.0041256564
0.004036827
0.0039488128
0.0038615769
0.0037751743
0.0036895864
0.0036048061
0.0035208813
0.0034377809
0.0033555293
0.0032741293
0.0031935826
0.003113893
0.0030350632
0.0029571194
0.002880023
0.0028037785
0.0073421239
0.0072286696
0.0071164848
0.0070054007
0.0068954318
0.0067864709
0.0066784599
0.0065713412
0.0064650679
0.0063595992
0.0062549031
0.006150958
0.0060477674
0.0059452532
0.0058434126
0.0057422489
0.0056417496
0.0055419095
0.0054427247
0.005344194
0.005246318
0.0051490993
0.0050525424
0.0049566529
0.0048614379
0.0047669057
0.0046730651
0.0045799262
0.0044874994
0.0043957955
0.0043048263
0.0042145998
0.0041251401
0.0040364114
0.0039484926
0.0038613464
0.0037750275
0.0036895177
0.0036048103
0.0035209537
0.0034379164
0.0033557236
0.003274378
0.0031938817
0.0031142386
0.0030354519
0.0029575477
0.0028804872
0.0028042761
0.0073313473
0.0072185689
0.0071069754
0.0069964684
0.0068870368
0.0067785846
0.0066710551
0.0065643935
0.0064585543
0.0063534977
0.0062491942
0.0061456272
0.0060427917
0.0059406131
0.0058390959
0.0057382398
0.0056380337
0.0055384729
0.0054395542
0.0053412768
0.005243642
0.0051466529
0.0050503142
0.0049546322
0.0048596142
0.0047652689
0.0046716057
0.0045786348
0.004486367
0.0043948135
0.0043039862
0.0042138943
0.0041245605
0.0040359495
0.003948142
0.0038611004
0.0037748791
0.0036894604
0.0036048378
0.0035210606
0.0034380967
0.0033559723
0.0032746898
0.0031942519
0.0031146629
0.0030359261
0.0029580677
0.0028810488
0.0028048762
0.0073189439
0.0072069255
0.0070960172
0.0069861733
0.0068773601
0.0067694934
0.0066625183
0.0065563828
0.0064510434
0.0063464613
0.0062426092
0.0061394794
0.006037051
0.0059352596
0.005834115
0.0057336133
0.005633745
0.005534506
0.0054358939
0.0053379084
0.0052405515
0.0051438269
0.0050477397
0.0049522968
0.0048575059
0.0047633762
0.0046699173
0.00457714
0.0044850555
0.0043936753
0.0043030117
0.0042130749
0.0041238863
0.0040354109
0.0039477318
0.0038608109
0.003774702
0.0036893881
0.0036048632
0.0035211775
0.0034382982
0.0033562526
0.0032750428
0.0031946722
0.0031151452
0.0030364661
0.0029586603
0.0028816895
0.0028055613
0.0073047946
0.0071936261
0.0070835022
0.0069744109
0.0068663018
0.0067591015
0.0066527575
0.0065472211
0.0064424505
0.0063384089
0.0062350721
0.0061324382
0.0060304721
0.0059291235
0.0058284031
0.0057283051
0.0056288216
0.0055299492
0.0054316863
0.0053340335
0.0052369933
0.00514057
0.0050447695
0.004949599
0.0048550671
0.004761183
0.0046679571
0.0045754006
0.0044835249
0.0043923424
0.0043018653
0.0042121056
0.0041230823
0.0040347624
0.0039472295
0.0038604464
0.0037744658
0.0036892716
0.0036048582
0.003521277
0.0034384944
0.0033565388
0.0032754121
0.0031951185
0.0031156627
0.0030370495
0.0029593042
0.0028823885
0.0028063114
0.007288779
0.0071785525
0.0070693182
0.006961073
0.0068537579
0.0067473091
0.006641677
0.0065368163
0.0064326872
0.0063292556
0.0062265011
0.0061244249
0.0060229799
0.0059221321
0.0058218902
0.0057222478
0.0056231985
0.0055247399
0.0054268712
0.0053295939
0.0052329112
0.0051368281
0.0050413513
0.0049464886
0.0048522489
0.0047586424
0.0046656797
0.0045733726
0.0044817331
0.0043907738
0.0043005075
0.0042109481
0.0041221111
0.0040339686
0.0039466007
0.0038599737
0.0037741381
0.0036890795
0.0036047926
0.00352133
0.003438657
0.0033568036
0.0032757715
0.0031955654
0.0031161906
0.0030376527
0.0029599763
0.0028831237
0.0028071051
0.0072707669
0.0071615841
0.0070533488
0.0069460475
0.0068396207
0.0067340126
0.006629177
0.0065250725
0.0064216613
0.0063189127
0.0062168108
0.0061153568
0.0060144955
0.0059142089
0.0058145027
0.0057153703
0.0056168073
0.0055188121
0.0054213849
0.005324528
0.0052282458
0.005132544
0.0050374299
0.004942912
0.004849
0.0047557045
0.004663037
0.0045710095
0.0044796348
0.004388926
0.004298896
0.0042095615
0.0041209319
0.0040329924
0.0039458085
0.003859357
0.0037736845
0.0036887783
0.0036046338
0.0035213049
0.0034387557
0.0033570178
0.0032760925
0.0031959854
0.0031167022
0.00303825
0.002960652
0.0028838711
0.0028079193
0.007250622
0.0071425984
0.0070354735
0.0069292186
0.0068237786
0.0067191045
0.0066151541
0.0065118902
0.0064092768
0.0063072873
0.0062059125
0.0061051477
0.006004936
0.005905274
0.0058061633
0.0057075983
0.0056095762
0.0055120963
0.0054151602
0.0053187713
0.0052229347
0.0051276572
0.0050329467
0.0049388127
0.0048452655
0.0047523165
0.0046599778
0.004568262
0.0044771824
0.0043867528
0.0042969864
0.0042079026
0.0041194998
0.0040317961
0.0039448137
0.0038585582
0.003773068
0.0036883322
0.0036043472
0.0035211682
0.003438758
0.0033571498
0.0032763447
0.003196349
0.0031171691
0.0030388141
0.0029613046
0.002884605
0.0028087291
0.0072282077
0.0071214688
0.0070155684
0.006910467
0.0068061163
0.0067024736
0.0065995011
0.0064971659
0.0063954341
0.006294283
0.0061937141
0.0060937074
0.0059942151
0.005895244
0.0057967915
0.0056988539
0.0056014297
0.0055045199
0.005408127
0.0053122557
0.0052169122
0.005122104
0.0050278403
0.0049341313
0.0048409881
0.0047484228
0.0046564482
0.0045650777
0.0044743253
0.0043842053
0.0042947315
0.0042059258
0.0041177797
0.0040303272
0.0039435736
0.0038575363
0.003772249
0.003687703
0.0036038959
0.0035208843
0.0034386294
0.0033571662
0.0032764956
0.0031966247
0.0031175602
0.0030393159
0.0029619058
0.002885298
0.0028095081
0.0072033881
0.0070980658
0.0069935066
0.0068896702
0.0067865155
0.0066840056
0.0065821074
0.0064807929
0.0063800304
0.0062798027
0.006180118
0.0060809412
0.0059822434
0.0058840318
0.0057863032
0.0056890557
0.0055922894
0.0054960067
0.0054002117
0.0053049101
0.0052101092
0.0051158179
0.0050220462
0.0049288052
0.004836107
0.0047439645
0.0046523913
0.0045614016
0.0044710101
0.0043812318
0.0042920811
0.0042035823
0.0041157219
0.0040285428
0.0039420441
0.0038562483
0.0037711859
0.0036868503
0.0036032405
0.003520415
0.003438333
0.0033570313
0.0032765106
0.003196779
0.0031178425
0.0030397249
0.0029624251
0.0028859205
0.0028102277
0.0071760313
0.0070722559
0.0069691586
0.006866703
0.0067648548
0.006663583
0.0065628594
0.0064626612
0.0063629593
0.0062637437
0.0061650233
0.0060667541
0.0059689275
0.0058715473
0.0057746112
0.0056781193
0.0055820735
0.0054864777
0.0053913375
0.00529666
0.0052024539
0.0051087291
0.0050154968
0.004922769
0.0048305589
0.0047388803
0.0046477476
0.0045571759
0.0044671807
0.0043777779
0.0042889826
0.0042008205
0.0041132754
0.0040263958
0.0039401785
0.0038546485
0.0037698345
0.0036857312
0.0036023396
0.0035197202
0.0034378298
0.0033567072
0.0032763532
0.0031967766
0.0031179842
0.0030400054
0.0029628298
0.0028864413
0.0028108579
0.0071460016
0.0070439037
0.0069423931
0.006841438
0.0067410107
0.0066410859
0.0065416408
0.0064426583
0.0063441112
0.006246001
0.0061483261
0.0060510474
0.0059541713
0.0058576972
0.0057616251
0.0056659571
0.005570697
0.0054758504
0.0053814246
0.0052874282
0.0051938712
0.0051007648
0.0050081213
0.0049159541
0.0048242772
0.0047331055
0.0046424544
0.0045523398
0.0044627782
0.0043737863
0.0042853801
0.0041975866
0.0041103875
0.004023836
0.0039379274
0.0038526894
0.0037681484
0.0036843005
0.0036011493
0.0035187573
0.0034370786
0.0033561541
0.0032759846
0.00319658
0.0031179483
0.0030401223
0.0029630856
0.0028868274
0.0028113665
0.0071131584
0.0070128721
0.0069130769
0.0068137458
0.0067148575
0.0066163923
0.0065183331
0.0064206691
0.0063233768
0.0062264647
0.0061299188
0.0060337201
0.0059378756
0.0058423854
0.0057472516
0.0056524784
0.005558072
0.0054640396
0.0053703903
0.0052771342
0.005184283
0.0050918492
0.0049998464
0.0049082891
0.0048171927
0.0047265729
0.0046364464
0.0045468299
0.004457741
0.0043691971
0.0042812155
0.0041938239
0.004107003
0.0040208102
0.0039352392
0.0038503206
0.0037660788
0.0036825108
0.0035996236
0.0035174818
0.0034360361
0.0033553298
0.0032753639
0.0031961497
0.0031176963
0.0030400386
0.0029631565
0.0028870437
0.0028117198
0.0071761055
0.0070773586
0.0069790235
0.0068810761
0.0067834961
0.0066862682
0.0065893786
0.006492816
0.0063965766
0.0063006424
0.0062050214
0.0061096962
0.0060146675
0.005919939
0.0058255131
0.0057313947
0.0056375903
0.0055441079
0.0054509572
0.005358149
0.0052656951
0.0051736087
0.0050819039
0.0049905958
0.0048997001
0.0048092333
0.0047192126
0.0046296555
0.0045405801
0.0044520047
0.0043639479
0.004276428
0.0041894734
0.0041030645
0.0040172628
0.0039320597
0.0038474896
0.0037635745
0.0036803126
0.0035977145
0.0035158468
0.003434657
0.0033541902
0.0032744483
0.003195444
0.0031171876
0.0030397153
0.0029630046
0.0028870537
0.0028118823
0.0071349966
0.0070384611
0.0069422203
0.0068462571
0.0067505584
0.0066551156
0.0065599206
0.0064649681
0.0063702619
0.0062757942
0.0061815557
0.0060875506
0.0059937831
0.0059002577
0.0058069796
0.0057139563
0.0056211969
0.0055287119
0.0054365129
0.0053446127
0.0052530251
0.005161765
0.005070848
0.0049802908
0.0048901104
0.0048003247
0.0047109521
0.0046220115
0.0045335219
0.0044455028
0.0043579738
0.0042709544
0.0041844737
0.0040985122
0.0040131355
0.0039283324
0.0038441413
0.0037605821
0.003677654
0.0035953722
0.0035138036
0.0034328935
0.0033526891
0.0032731929
0.0031944193
0.0031163799
0.0030391115
0.0029625904
0.0028868189
0.0028118167
0.007090498
0.006996328
0.0069023273
0.0068084874
0.006714803
0.0066212723
0.0065278938
0.0064346681
0.0063416108
0.0062487095
0.0061559561
0.0060633715
0.0059709591
0.0058787264
0.005786682
0.0056948363
0.0056032009
0.0055117889
0.0054206141
0.0053296914
0.0052390367
0.0051486665
0.0050585983
0.0049688502
0.004879441
0.00479039
0.0047017167
0.0046134414
0.0045255843
0.0044381662
0.0043512077
0.0042647294
0.0041787613
0.0040932843
0.0040083681
0.0039239987
0.0038402187
0.0037570462
0.0036744815
0.0035925452
0.0035113015
0.0034306963
0.0033507783
0.0032715511
0.0031930303
0.0031152292
0.0030381848
0.0029618728
0.0028862994
0.0028114842
0.0070424749
0.0069508257
0.0068592127
0.006767637
0.0066761018
0.0065846125
0.0064931752
0.0064017981
0.0063105019
0.0062192686
0.0061281108
0.0060370474
0.0059460864
0.0058552387
0.0057645165
0.0056739332
0.0055835033
0.0054932423
0.0054031665
0.0053132931
0.00522364
0.0051342257
0.0050450695
0.0049561913
0.0048676113
0.0047793503
0.0046914295
0.0046038704
0.0045166946
0.004429924
0.0043435804
0.0042576857
0.0041722705
0.0040873169
0.0040028985
0.0039189981
0.0038356628
0.0037529096
0.0036707386
0.0035891811
0.0035082879
0.003428014
0.003348408
0.0032694743
0.0031912301
0.0031136899
0.003036891
0.0029608089
0.0028854538
0.0028108448
0.0070796545
0.0069907984
0.0069018263
0.0068127489
0.0067235797
0.0066343299
0.0065450131
0.0064556434
0.0063662404
0.0062768112
0.0061873609
0.0060979065
0.0060084671
0.005919056
0.0058296879
0.0057403787
0.005651145
0.0055620041
0.0054729745
0.0053840748
0.0052953247
0.0052067442
0.0051183539
0.0050301751
0.0049422292
0.0048545385
0.0047671253
0.0046800121
0.0045932221
0.0045067782
0.0044207035
0.0043350211
0.0042497543
0.0041649342
0.0040805444
0.0039966628
0.0039132685
0.0038304135
0.0037481137
0.0036663652
0.0035852277
0.0035047084
0.0034247938
0.0033455269
0.0032669129
0.0031889704
0.0031117152
0.0030351848
0.0029593549
0.0028842396
0.0028098571
0.0070212139
0.0069353496
0.0068492084
0.0067628145
0.0066761945
0.006589367
0.006502355
0.0064151851
0.0063278685
0.0062404258
0.0061528734
0.0060652309
0.0059775202
0.0058897593
0.0058019675
0.0057141641
0.0056263691
0.0055386032
0.0054508872
0.0053632429
0.0052756921
0.0051882573
0.0051009613
0.0050138272
0.0049268785
0.0048401391
0.0047536332
0.0046673849
0.0045814187
0.0044957592
0.0044104308
0.0043254578
0.0042408648
0.0041566837
0.0040729001
0.003989596
0.0039067468
0.0038244094
0.0037425996
0.0036613124
0.003580618
0.0035005067
0.0034209818
0.0033420825
0.0032638161
0.0031862018
0.0031092572
0.0030330198
0.0029574658
0.002882613
0.0028084794
0.0069587342
0.0068760182
0.0067928595
0.0067092958
0.0066253671
0.0065410991
0.0064565296
0.0063716774
0.0062865702
0.0062012354
0.0061156954
0.0060299744
0.0059440982
0.0058580898
0.0057719724
0.0056857694
0.0055995042
0.0055132006
0.0054268828
0.0053405749
0.0052543015
0.0051680875
0.0050819578
0.0049959377
0.0049100528
0.0048243289
0.0047387916
0.0046534672
0.0045683816
0.0044835609
0.004399031
0.0043148173
0.004230946
0.0041474494
0.004064316
0.0039816321
0.0038993688
0.0038175884
0.0037363059
0.0036555175
0.0035752967
0.0034956266
0.0034165233
0.0033380219
0.0032601321
0.0031828741
0.0031062673
0.0030303487
0.0029550957
0.0028805298
0.0068921201
0.0068127053
0.0067326773
0.006652089
0.0065709925
0.0064894249
0.0064074187
0.0063250132
0.0062422402
0.0061591326
0.0060757195
0.0059920306
0.0059080958
0.005823943
0.0057395996
0.005655093
0.0055704501
0.0054856982
0.0054008644
0.0053159757
0.0052310595
0.005146143
0.0050612536
0.0049764188
0.0048916661
0.0048070234
0.0047225182
0.0046381785
0.004554032
0.0044701063
0.0043864289
0.0043030264
0.0042199262
0.0041371612
0.0040547236
0.0039727046
0.0038910701
0.0038098875
0.0037291711
0.0036489191
0.0035692062
0.003490012
0.0034113635
0.0033332917
0.0032558091
0.003178937
0.0031026967
0.0030271241
0.0029521987
0.002877945
0.0068212924
0.0067453259
0.0066685723
0.0065911063
0.0065129764
0.006434235
0.0063549265
0.006275094
0.0061947774
0.0061140155
0.006032844
0.0059512981
0.0058694121
0.0057872187
0.0057047497
0.0056220364
0.0055391096
0.0054559999
0.0053727373
0.0052893522
0.0052058744
0.0051223338
0.0050387602
0.0049551834
0.0048716331
0.0047881391
0.0047047311
0.0046214387
0.0045382915
0.0044553189
0.0043725497
0.004290012
0.0042077341
0.0041257492
0.0040440547
0.0039627471
0.0038817859
0.0038012436
0.0037211335
0.0036414566
0.0035622884
0.0034836066
0.0034054475
0.0033278387
0.0032507954
0.0031743401
0.0030984968
0.0030232992
0.0029487295
0.0028748155
0.0067461894
0.0066738124
0.0066004748
0.0065262595
0.0064512316
0.0063754487
0.0062989643
0.0062218286
0.0061440889
0.00606579
0.005986974
0.0059076815
0.0058279516
0.0057478216
0.0056673279
0.0055865055
0.0055053892
0.0054240129
0.0053424101
0.0052606139
0.005178657
0.005096572
0.0050143912
0.0049321467
0.0048498704
0.0047675942
0.0046853499
0.004603169
0.004521083
0.004439123
0.0043573196
0.004275702
0.0041942993
0.0041131441
0.0040322414
0.003951694
0.0038714527
0.0037915945
0.0037121324
0.0036330708
0.003554486
0.0034763548
0.0033987212
0.0033216102
0.0032450397
0.0031690333
0.0030936204
0.0030188275
0.0029446429
0.0028710975
0.0066667699
0.0065981102
0.0065283213
0.0064574894
0.006385691
0.0063129922
0.0062394549
0.0061651368
0.0060900919
0.0060143713
0.0059380232
0.0058610935
0.0057836261
0.0057056632
0.0056272452
0.0055484116
0.0054692006
0.0053896496
0.0053097955
0.0052296744
0.0051493219
0.0050687733
0.0049880633
0.0049072266
0.0048262972
0.0047453093
0.0046642966
0.0045832928
0.0045023314
0.0044214452
0.0043406666
0.0042600262
0.0041795529
0.0040992783
0.0040192179
0.0039394814
0.0038600083
0.0037808794
0.0037021087
0.003623704
0.0035457432
0.0034682021
0.0033911319
0.0033145552
0.0032384924
0.0031629675
0.0030880225
0.0030136636
0.0029398952
0.0028667487
0.0065830142
0.0065181945
0.0064520754
0.0063847498
0.006316302
0.0062468072
0.0061763353
0.0061049511
0.0060327155
0.0059596857
0.0058859155
0.0058114561
0.0057363564
0.005660663
0.0055844208
0.005507673
0.0054304618
0.0053528282
0.0052748121
0.0051964527
0.0051177887
0.0050388579
0.0049596978
0.0048803452
0.0048008368
0.0047212087
0.0046414969
0.0045617371
0.0044819648
0.0044022149
0.0043225215
0.0042429167
0.0041634287
0.0040840868
0.0040049219
0.0039260486
0.0038473931
0.0037690401
0.0036910054
0.0036133012
0.0035360062
0.0034590965
0.0033826291
0.0033066248
0.0032311068
0.0031561011
0.0030816541
0.0030077639
0.002934445
0.0028617292
0.0064949285
0.0064340599
0.0063717218
0.006308015
0.0062430308
0.0061768528
0.0061095584
0.0060412195
0.0059719032
0.0059016726
0.0058305871
0.005758703
0.0056860738
0.0056127506
0.0055387826
0.005464217
0.0053890995
0.0053134746
0.0052373856
0.0051608748
0.0050839835
0.0050067524
0.0049292216
0.0048514303
0.0047734175
0.0046952217
0.004616881
0.0045384331
0.0044599156
0.0043813654
0.0043028186
0.0042243087
0.0041458629
0.0040675103
0.0039892977
0.0039113384
0.0038335505
0.0037560209
0.0036787685
0.0036018106
0.0035252248
0.0034489892
0.0033731654
0.0032977732
0.0032228386
0.00314839
0.003074475
0.0030010891
0.0029282541
0.0028560022
0.006402547
0.0063457265
0.0062872688
0.0062272823
0.0061658649
0.006103108
0.006039096
0.0059739071
0.0059076145
0.0058402868
0.0057719887
0.0057027811
0.0056327223
0.0055618676
0.0054902703
0.0054179813
0.0053450501
0.0052715244
0.0051974509
0.0051228748
0.0050478403
0.0049723909
0.004896569
0.0048204166
0.0047439748
0.0046672844
0.0045903856
0.0045133184
0.0044361221
0.0043588358
0.0042814974
0.0042041417
0.0041267983
0.004049495
0.0039722968
0.0038952987
0.0038184273
0.0037417701
0.0036653469
0.0035891856
0.0035133529
0.0034378356
0.0033626978
0.003287959
0.0032136479
0.0031397951
0.0030664488
0.0029936039
0.0029212885
0.0028495352
0.0063059341
0.0062532432
0.0061987513
0.006142574
0.0060848157
0.0060255744
0.0059649408
0.0059029991
0.0058398279
0.0057755008
0.0057100874
0.0056436533
0.0055762608
0.0055079695
0.0054388364
0.0053689163
0.0052982619
0.0052269245
0.0051549536
0.0050823975
0.0050093033
0.0049357169
0.0048616835
0.0047872474
0.004712452
0.0046373405
0.0045619551
0.0044863379
0.0044105301
0.0043345726
0.004258505
0.0041823648
0.004106186
0.0040299874
0.0039538807
0.0038778809
0.0038019764
0.0037262418
0.0036506914
0.0035753888
0.0035003501
0.0034255972
0.003351189
0.0032771462
0.0032034998
0.0031302833
0.0030575441
0.0029852784
0.0029135196
0.0028423008
0.0062051866
0.0061566893
0.0061062333
0.0060539403
0.0059999207
0.0059442783
0.0058871092
0.0058285028
0.0057685426
0.0057073069
0.0056448695
0.0055813002
0.0055166654
0.0054510282
0.0053844494
0.0053169872
0.0052486977
0.0051796352
0.0051098523
0.0050394
0.0049683282
0.0048966855
0.0048245195
0.0047518768
0.0046788032
0.004605344
0.0045315437
0.0044574462
0.0043830948
0.0043085322
0.0042337997
0.0041589382
0.0040839877
0.0040089637
0.0039339857
0.0038590436
0.0037841599
0.0037094003
0.0036347788
0.0035603735
0.0034861813
0.0034122422
0.0033386089
0.0032653059
0.003192367
0.0031198285
0.0030477365
0.0029760894
0.0029049256
0.0028342788
0.0061004361
0.0060561778
0.0060098106
0.0059614614
0.0059112461
0.0058592732
0.0058056434
0.0057504504
0.0056937818
0.0056357201
0.0055763427
0.0055157232
0.0054539315
0.0053910342
0.0053270954
0.0052621763
0.0051963364
0.0051296326
0.0050621206
0.004993854
0.0049248852
0.0048552654
0.0047850445
0.0047142715
0.0046429945
0.0045712608
0.0044991171
0.0044266092
0.0043537826
0.0042806817
0.0042073498
0.0041338309
0.0040601696
0.0039863818
0.0039125844
0.0038387582
0.003764951
0.003691218
0.003617578
0.003544119
0.0034708249
0.0033977481
0.003324936
0.0032524178
0.00318023
0.003108414
0.00303701
0.0029660222
0.0028954929
0.0028254569
0.0059918513
0.0059518573
0.005909613
0.0058652503
0.0058188896
0.0057706429
0.0057206144
0.0056689014
0.0056155948
0.0055607804
0.0055045388
0.0054469468
0.0053880771
0.0053279995
0.005266781
0.0052044858
0.0051411759
0.0050769113
0.0050117499
0.0049457481
0.0048789607
0.0048114411
0.0047432416
0.0046744134
0.0046050067
0.0045350709
0.0044646549
0.0043938064
0.0043225729
0.0042510007
0.0041791351
0.0041070224
0.0040347104
0.0039622169
0.003889658
0.003817009
0.0037443347
0.0036716788
0.0035990718
0.0035266131
0.0034542695
0.0033821036
0.00331016
0.0032384725
0.0031670793
0.0030960346
0.0030253587
0.002955072
0.0028852184
0.0028158331
0.0058796398
0.005843914
0.0058058067
0.0057654547
0.0057229822
0.0056785034
0.0056321246
0.0055839456
0.00553406
0.0054825559
0.0054295166
0.0053750211
0.0053191448
0.00526196
0.0052035362
0.00514394
0.005083236
0.0050214865
0.0049587519
0.0048950907
0.0048305601
0.0047652157
0.0046991117
0.0046323016
0.0045648376
0.0044967711
0.0044281529
0.004359033
0.0042894605
0.0042194838
0.0041491499
0.0040785065
0.0040076028
0.003936462
0.0038652026
0.003793794
0.0037223096
0.0036507777
0.0035792561
0.0035078572
0.0034365174
0.0033653108
0.0032942837
0.0032234744
0.0031529242
0.0030826907
0.0030127879
0.0029432464
0.0028741109
0.0028054175
0.0057640508
0.0057325729
0.0056985959
0.0056622596
0.0056236912
0.0055830058
0.0055403101
0.0054957056
0.0054492874
0.0054011454
0.0053513645
0.0053000253
0.0052472054
0.0051929787
0.0051374169
0.0050805887
0.0050225608
0.0049633976
0.0049031614
0.0048419129
0.0047797111
0.0047166137
0.0046526769
0.0045879559
0.004522505
0.0044563776
0.0043896261
0.0043223027
0.0042544584
0.0041861433
0.0041174061
0.0040482941
0.003978857
0.0039091274
0.0038392304
0.0037691255
0.0036988856
0.0036285249
0.0035581476
0.0034878703
0.0034175871
0.0033473872
0.0032773245
0.0032074416
0.0031377821
0.0030684037
0.0029993197
0.002930568
0.0028621937
0.0027942345
0.005645367
0.0056180986
0.0055882249
0.0055558892
0.0055212225
0.0054843388
0.0054453438
0.0054043394
0.0053614218
0.0053166813
0.0052702036
0.0052220704
0.0051723602
0.0051211486
0.0050685084
0.0050145103
0.0049592223
0.0049027107
0.0048450394
0.004786271
0.0047264661
0.004665684
0.0046039828
0.0045414193
0.0044780495
0.0044139287
0.0043491111
0.0042836506
0.0042176003
0.0041510122
0.0040839358
0.0040164164
0.0039485024
0.0038802437
0.0038117715
0.0037430286
0.0036740878
0.0036049564
0.0035357989
0.0034666903
0.0033975094
0.0033283653
0.0032593167
0.0031904094
0.0031216887
0.0030532116
0.0029849929
0.002917076
0.002849507
0.0027823251
0.0055238227
0.005500767
0.0054749849
0.0054466109
0.0054158228
0.0053827312
0.0053474373
0.0053100434
0.0052706451
0.0052293324
0.0051861908
0.005141302
0.0050947449
0.0050465958
0.0049969284
0.0049458144
0.0048933232
0.0048395221
0.0047844767
0.0047282506
0.0046709058
0.0046125032
0.0045531022
0.0044927612
0.0044315378
0.0043694885
0.0043066695
0.0042431364
0.0041789439
0.0041141461
0.0040487927
0.0039829251
0.0039165937
0.003849869
0.00378288
0.0037155531
0.0036479694
0.0035801544
0.0035122874
0.0034443535
0.0033763253
0.0033082936
0.0032403137
0.0031724331
0.0031047006
0.0030371723
0.0029698658
0.0029028297
0.0028361107
0.0027697499
0.0054000121
0.0053808898
0.0053591304
0.0053347422
0.005307782
0.0052784526
0.0052468435
0.0052130547
0.0051771798
0.0051393073
0.0050995217
0.0050579038
0.0050145322
0.0049694829
0.0049228301
0.0048746459
0.0048250005
0.004773962
0.0047215967
0.0046679692
0.0046131428
0.0045571791
0.0045001388
0.0044420815
0.004383066
0.0043231503
0.0042623919
0.0042008476
0.0041385739
0.0040756261
0.0040120543
0.0039479006
0.0038832193
0.003818099
0.0037526468
0.0036867916
0.003620626
0.0035541917
0.0034876391
0.0034209379
0.0033541188
0.0032872545
0.0032203954
0.0031535922
0.0030868987
0.0030203668
0.00295402
0.0028879108
0.0028220871
0.0027565918
0.0052742415
0.0052590558
0.005241119
0.0052204894
0.0051974299
0.0051718165
0.0051438584
0.0051136535
0.0050812912
0.005046857
0.0050104337
0.0049721007
0.0049319352
0.0048900123
0.004846406
0.0048011883
0.0047544293
0.0047061976
0.0046565597
0.0046055809
0.0045533249
0.0044998542
0.0044452302
0.0043895135
0.0043327638
0.0042750402
0.0042164011
0.0041569045
0.0040966076
0.0040355668
0.0039738351
0.0039114613
0.0038484914
0.0037850605
0.0037211791
0.0036568491
0.0035921522
0.0035271458
0.00346196
0.0033965593
0.0033310051
0.0032653582
0.0031996698
0.0031339928
0.0030683921
0.0030029022
0.0029375628
0.0028724271
0.0028075444
0.0027429592
0.0051469095
0.005135584
0.0051213906
0.0051045079
0.0050850226
0.0050631756
0.0050388283
0.0050121676
0.0049832911
0.0049522782
0.0049192093
0.0048841619
0.0048472108
0.0048084298
0.0047678914
0.004725667
0.0046818261
0.0046364371
0.0045895664
0.0045412792
0.0044916394
0.00444071
0.0043885527
0.0043352287
0.0042807982
0.0042253213
0.0041688571
0.0041114644
0.0040532012
0.0039941251
0.003934293
0.0038737614
0.0038125716
0.0037508582
0.0036886079
0.0036258577
0.0035626809
0.0034991551
0.0034353978
0.0033713624
0.003307124
0.0032427433
0.0031782761
0.0031137772
0.0030493128
0.0029849146
0.0029206308
0.0028565155
0.0027926194
0.0027289892
0.0050185043
0.0050109075
0.0050003992
0.0049871099
0.0049712258
0.0049528285
0.0049321324
0.0049089778
0.0048835414
0.0048559159
0.0048261784
0.0047944037
0.0047606631
0.0047250275
0.0046875676
0.0046483532
0.0046074527
0.0045649336
0.0045208616
0.0044753015
0.004428317
0.0043799707
0.0043303246
0.0042794399
0.0042273774
0.0041741975
0.0041199599
0.0040647242
0.0040085491
0.0039514932
0.0038936164
0.0038349791
0.0037756207
0.0037156701
0.0036551064
0.0035939929
0.0035323956
0.0034704132
0.0034081363
0.0033455182
0.0032826452
0.003219581
0.0031563852
0.003093114
0.003029833
0.0029665749
0.0029033941
0.0028403457
0.0027774816
0.0027148507
0.0048898091
0.0048855347
0.004878585
0.0048688048
0.004856374
0.0048414682
0.0048241115
0.0048045006
0.0047824598
0.0047581662
0.0047317209
0.0047031926
0.0046726459
0.0046401477
0.0046057659
0.0045695678
0.0045316202
0.0044919889
0.0044507387
0.0044079333
0.0043636355
0.0043179074
0.0042708106
0.0042224062
0.004172755
0.0041219174