/*--------------------------------*- C++ -*----------------------------------*\
| =========                 |                                                 |
| \\      /  F ield         | OpenFOAM: The Open Source CFD Toolbox           |
|  \\    /   O peration     | Version:  2312                                  |
|   \\  /    A nd           | Website:  www.openfoam.com                      |
|    \\/     M anipulation  |                                                 |
\*---------------------------------------------------------------------------*/
FoamFile
{
    version     2.0;
    format      ascii;
    arch        "LSB;label=32;scalar=64";
    class       volScalarField;
    location    "0.04";
    object      N2;
}
// * * * * * * * * * * * * * * * * * * * * * * * * * * * * * * * * * * * * * //

dimensions      [0 0 0 0 0 0 0];

internalField   nonuniform List<scalar> 
3250
(
0.67436988
0.67527958
0.67622095
0.67715677
0.6780842
0.67900523
0.67992182
0.68083591
0.68174936
0.68266405
0.68358197
0.68450547
0.68539633
0.68631629
0.68726124
0.68821531
0.68917985
0.69015604
0.6911449
0.69214733
0.69316411
0.69419594
0.69524341
0.696307
0.69738711
0.69848402
0.69959793
0.7007289
0.70187691
0.70304183
0.70422344
0.70542143
0.70663546
0.70786523
0.7090727
0.71032579
0.71159706
0.71288145
0.71417809
0.71545031
0.716751
0.71807452
0.71940504
0.72074147
0.72208145
0.72342236
0.72473375
0.72606844
0.72740721
0.67438741
0.67529702
0.67623803
0.67717298
0.67809962
0.6790199
0.6799358
0.68084924
0.68176208
0.68267617
0.68359347
0.68451632
0.68540659
0.68632652
0.68727092
0.68822452
0.68918863
0.69016439
0.69115285
0.69215488
0.69317129
0.69420275
0.69524987
0.69631312
0.6973929
0.69848949
0.69960309
0.70073376
0.70188148
0.70304612
0.70422745
0.70542516
0.70663892
0.70786841
0.70907563
0.71032849
0.71159951
0.71288366
0.71418005
0.71545203
0.71675252
0.71807577
0.71940598
0.72074189
0.7220815
0.72342281
0.72473425
0.72606901
0.72740746
0.67442254
0.67533216
0.67627261
0.67720595
0.67813107
0.67904994
0.67996453
0.68087675
0.68178843
0.6827014
0.68361754
0.68453912
0.68542831
0.68634828
0.68729173
0.68824448
0.68920779
0.69018281
0.69117056
0.69217191
0.69318767
0.69421852
0.69526504
0.69632772
0.69740695
0.69850301
0.6996161
0.70074628
0.70189353
0.70305771
0.7042386
0.70543586
0.70664917
0.70787818
0.70908498
0.71033747
0.7116081
0.71289186
0.71418786
0.71545947
0.71675967
0.71808253
0.71941232
0.7207477
0.72208691
0.72342822
0.72473956
0.72607429
0.72741243
0.6744747
0.67538527
0.67632471
0.67725567
0.67817856
0.67909537
0.68000804
0.68091845
0.68182845
0.68273978
0.68365421
0.6845739
0.68546158
0.68638161
0.68732372
0.68827525
0.68923743
0.69021138
0.69119811
0.69219851
0.69321335
0.69424333
0.69528901
0.6963509
0.69742936
0.69852469
0.69963708
0.70076658
0.70191319
0.70307675
0.70425702
0.70545367
0.70666634
0.70789469
0.70910089
0.71035289
0.71162298
0.71290621
0.71420169
0.71547278
0.71677264
0.71809497
0.71942422
0.72075902
0.72209773
0.72343877
0.72474984
0.72608441
0.7274222
0.67454259
0.67545693
0.67639428
0.67732208
0.67824205
0.67915614
0.68006628
0.68097434
0.68188211
0.68279131
0.68370352
0.68462058
0.68550639
0.68642647
0.68736686
0.68831681
0.68927751
0.69025009
0.69123551
0.69223467
0.69324833
0.69427718
0.69532179
0.69638265
0.69746014
0.69855454
0.69966602
0.70079468
0.70194046
0.70310323
0.70428273
0.7054786
0.70669045
0.70791794
0.70912337
0.71037476
0.71164416
0.71292673
0.71422153
0.71549199
0.71679142
0.71811309
0.71944169
0.72077581
0.72211391
0.72345446
0.72476508
0.72609937
0.72743671
0.67462628
0.67554233
0.6764762
0.67740036
0.67831692
0.67922783
0.68013502
0.68104033
0.68194553
0.68285228
0.68376195
0.68467569
0.68555949
0.68647958
0.68741799
0.68836611
0.68932512
0.69029609
0.69128
0.69227773
0.69329003
0.69431758
0.69536096
0.69642064
0.69749701
0.69859033
0.69970079
0.70082846
0.70197331
0.70313518
0.7043138
0.70550879
0.70671969
0.70794615
0.7091507
0.7104014
0.71167003
0.71295184
0.71424589
0.71551562
0.71681457
0.7181355
0.71946336
0.72079674
0.72213414
0.72347406
0.7247841
0.72611804
0.72745481
0.67472171
0.6756384
0.67656797
0.67748806
0.67840081
0.6793082
0.68021211
0.68111436
0.68201671
0.68292078
0.68382772
0.68473734
0.68561924
0.68653924
0.68747548
0.68842159
0.68937871
0.69034791
0.69133015
0.69232629
0.69333709
0.69436321
0.69540523
0.69646361
0.69753873
0.69863087
0.6997402
0.70086679
0.70201061
0.7031715
0.70434916
0.70554318
0.70675304
0.70797834
0.70918191
0.71043186
0.71169965
0.71298064
0.71427386
0.71554279
0.71684122
0.71816135
0.71948841
0.72082099
0.7221576
0.7234968
0.72480616
0.72613965
0.72747577
0.6748359
0.67575241
0.67667672
0.67759198
0.67850027
0.6794035
0.68030354
0.68120219
0.68210119
0.68300219
0.68390618
0.68481008
0.68569036
0.6866101
0.68754381
0.68848755
0.68944246
0.69040958
0.69138986
0.69238413
0.69339317
0.69441761
0.69545803
0.69651489
0.69758856
0.69867931
0.69978732
0.70091265
0.70205526
0.703215
0.70439156
0.70558447
0.7067931
0.70801697
0.7092194
0.71046848
0.71173531
0.71301534
0.71430759
0.71557559
0.71687343
0.71819262
0.71951876
0.72085041
0.72218611
0.7235244
0.72483294
0.72616588
0.72750121
0.67497003
0.67588547
0.67680362
0.67771327
0.67861637
0.67951478
0.68041034
0.68130481
0.68219993
0.68309742
0.68399864
0.68489414
0.68577384
0.68669295
0.68762374
0.68856475
0.68951711
0.69048182
0.69145981
0.69245194
0.69345893
0.69448143
0.69552
0.69657509
0.69764708
0.69873623
0.69984271
0.70096658
0.70210781
0.70326623
0.70444153
0.70563318
0.7068404
0.70806248
0.7092636
0.71051173
0.71177746
0.71305638
0.71434753
0.71561446
0.71691162
0.71822973
0.71955481
0.7208854
0.72222002
0.72355723
0.72486479
0.72619708
0.72753149
0.67512554
0.67603875
0.67694987
0.6778531
0.67875026
0.67964315
0.68053356
0.68142323
0.68231389
0.6832074
0.68410695
0.68498917
0.68587096
0.68678865
0.68771609
0.68865399
0.68960341
0.69056537
0.69154076
0.69253041
0.69353506
0.69455533
0.69559178
0.69664486
0.69771492
0.69880224
0.69990696
0.70102916
0.70216881
0.70332573
0.70449961
0.70568988
0.70689553
0.70811532
0.70931497
0.71056208
0.71182657
0.71310424
0.71439412
0.71565982
0.7169562
0.7182731
0.71959698
0.72092637
0.72225975
0.72359565
0.72490206
0.72623361
0.72756694
0.67530419
0.67621351
0.67711671
0.67801269
0.67890312
0.67978975
0.68067432
0.68155854
0.6824441
0.68333282
0.68422782
0.68509985
0.68598356
0.68689799
0.68782173
0.6887561
0.6897022
0.69066102
0.69163345
0.6926203
0.69362229
0.69464004
0.69567408
0.69672487
0.69779275
0.69887797
0.69998071
0.70110102
0.70223887
0.70339409
0.70456639
0.70575518
0.70695916
0.70817588
0.70937401
0.71062003
0.71188315
0.71315941
0.71444785
0.71571216
0.71700766
0.71832319
0.71964572
0.72097376
0.72230572
0.72364006
0.72494515
0.72627585
0.72760795
0.67550844
0.67641098
0.67730546
0.67819333
0.67907621
0.6799558
0.68083379
0.68171185
0.68259165
0.68347475
0.68436311
0.6852269
0.68611197
0.68702202
0.68794156
0.68887196
0.68981433
0.69076962
0.69173871
0.69272241
0.69372139
0.69473629
0.69576763
0.69681583
0.69788125
0.69896413
0.70006463
0.7011828
0.70231862
0.70347195
0.7046425
0.70582973
0.70703213
0.70824447
0.70944122
0.71068615
0.71194776
0.71322242
0.71450923
0.71577199
0.71706649
0.71838048
0.71970151
0.72102806
0.72235841
0.72369085
0.72499445
0.72632419
0.72765492
0.67573962
0.67663259
0.67751749
0.67839634
0.6792708
0.68014253
0.68101317
0.68188436
0.68275771
0.68363449
0.68451408
0.68537125
0.68625681
0.68716171
0.68807653
0.6890025
0.68994068
0.69089203
0.69185739
0.69283755
0.69383318
0.69484489
0.6958732
0.69691851
0.69798117
0.69906142
0.7001594
0.70127519
0.70240874
0.70355993
0.70472855
0.7059142
0.7071156
0.70832111
0.70951716
0.71076103
0.71202096
0.71329384
0.71457881
0.71583981
0.71713318
0.71844547
0.71976485
0.72108978
0.72241837
0.72374838
0.72505035
0.72637907
0.72770827
0.67599832
0.67687997
0.67775423
0.67862311
0.67948825
0.68035125
0.68121373
0.68207728
0.68294354
0.68381371
0.68468142
0.68553407
0.68641893
0.68731809
0.68822763
0.68914867
0.69008221
0.69102917
0.69199038
0.6929666
0.6939585
0.69496667
0.69599159
0.69703369
0.69809328
0.69917059
0.70026578
0.70137889
0.70250991
0.70365872
0.70482518
0.70600918
0.70721139
0.70840519
0.70960257
0.71084535
0.71210339
0.71337425
0.71465716
0.7159162
0.7172083
0.7185187
0.71983628
0.72115949
0.72248628
0.72381293
0.72511329
0.72644092
0.72776843
0.67628559
0.67715463
0.67801718
0.67887508
0.67972993
0.68058331
0.68143677
0.68229189
0.68315037
0.68401471
0.68486479
0.68571708
0.68659931
0.68749216
0.68839589
0.68931148
0.69023988
0.69118199
0.69213861
0.69311048
0.69409824
0.69510248
0.69612366
0.69716219
0.69821838
0.69929245
0.70038453
0.70149468
0.70262287
0.70376902
0.70493303
0.70611493
0.7073156
0.70850182
0.70969867
0.71093985
0.7121957
0.71346428
0.71474489
0.71600174
0.7172924
0.71860072
0.71991634
0.7212378
0.7225631
0.72388449
0.72518371
0.72651025
0.7278359
0.67660276
0.67745813
0.67830786
0.67915373
0.6799973
0.6808401
0.68168364
0.68252946
0.68337923
0.68423344
0.68506991
0.68592282
0.68679887
0.68768501
0.68858238
0.68949198
0.69041473
0.69135149
0.69230305
0.69327013
0.69425334
0.69525324
0.69627029
0.69730489
0.69835732
0.6994278
0.70051646
0.70162333
0.70274839
0.70389157
0.70505278
0.70623209
0.70743005
0.70861068
0.70980617
0.71104525
0.71229858
0.7135646
0.7148426
0.71609703
0.71738608
0.7186921
0.72000559
0.72132528
0.72265058
0.72396224
0.72526223
0.72658758
0.72791116
0.67695171
0.67779212
0.67862784
0.67946057
0.68029182
0.68112307
0.68195575
0.68279136
0.68363186
0.68447181
0.68529859
0.68615074
0.68701901
0.68789778
0.68878821
0.68969126
0.69060782
0.69153872
0.69248473
0.69344654
0.69442475
0.69541989
0.69643242
0.69746269
0.698511
0.69957753
0.70066241
0.70176567
0.70288727
0.70402714
0.70518519
0.70636142
0.70755603
0.70873201
0.70992575
0.71116228
0.71241275
0.71367587
0.71495097
0.7162027
0.71748994
0.71879344
0.72010457
0.72142225
0.72274612
0.72404976
0.72534981
0.72667353
0.72799476
0.67733413
0.67815824
0.67897873
0.67979718
0.68061502
0.68143368
0.68225451
0.6830789
0.68391089
0.68473005
0.68555285
0.68640137
0.68726094
0.68813168
0.68901454
0.68991044
0.69082024
0.69174475
0.6926847
0.69364075
0.69461349
0.69560343
0.696611
0.69763654
0.69868033
0.69974254
0.70082328
0.70192256
0.70304035
0.70417656
0.70533106
0.70650378
0.70769464
0.70886633
0.71005809
0.71129166
0.71253893
0.71379884
0.71507065
0.71631941
0.71760463
0.71890536
0.72021384
0.72152904
0.7228504
0.72414777
0.72544712
0.72676868
0.72808726
0.67775172
0.67855817
0.67936218
0.68016514
0.68096845
0.68177347
0.68258141
0.68339302
0.68421192
0.68501469
0.68583578
0.68667551
0.68752588
0.68838793
0.68926258
0.69015071
0.69105317
0.69197071
0.69290406
0.69385384
0.69482061
0.69580488
0.69680704
0.69782742
0.69886628
0.69992377
0.70099998
0.70209492
0.70320852
0.70434069
0.70549126
0.70666007
0.70784684
0.70901431
0.71020396
0.71143412
0.7126779
0.71393425
0.71520235
0.71644785
0.71773082
0.7190285
0.72033402
0.72164627
0.72296439
0.72425657
0.7255548
0.7268736
0.72818924
0.67741568
0.67820606
0.67899362
0.67977984
0.68056608
0.68135368
0.68214399
0.68293813
0.68373537
0.68453715
0.68532892
0.68614568
0.68697473
0.68781515
0.6886678
0.68953356
0.69041328
0.69130777
0.69221776
0.69314394
0.69408691
0.69504721
0.69602531
0.69702159
0.69803636
0.69906985
0.7001222
0.70119347
0.70228367
0.70339271
0.70452044
0.70566669
0.70683119
0.70801358
0.70917673
0.71036411
0.71159046
0.71283048
0.71408291
0.71534674
0.71658869
0.7178692
0.71916356
0.72046576
0.72177463
0.72308904
0.72437658
0.72567338
0.72698891
0.7283013
0.67793012
0.67869906
0.67946633
0.6802334
0.68100165
0.68177234
0.68254683
0.68332658
0.6841083
0.6848864
0.68567607
0.68648262
0.68730037
0.68813008
0.6889726
0.68982877
0.6906994
0.69158528
0.6924871
0.69340552
0.69434112
0.69529441
0.69626583
0.69725574
0.69826442
0.69929208
0.70033885
0.70140477
0.70248981
0.70359386
0.70471676
0.70585828
0.7070181
0.70819578
0.70935444
0.71053931
0.71176153
0.71299752
0.71424573
0.71550448
0.71674267
0.71802051
0.71931124
0.72060979
0.72191488
0.72322522
0.7245083
0.7258034
0.72711527
0.72842407
0.67848678
0.67923256
0.67997804
0.68072456
0.68147351
0.682226
0.68298344
0.68374897
0.68450568
0.6852715
0.68605435
0.6868482
0.68765383
0.68847205
0.68930367
0.69014951
0.69101036
0.69188695
0.69277996
0.69369002
0.69461766
0.69556337
0.69652757
0.69751059
0.69851269
0.69953405
0.70057478
0.70163489
0.70271433
0.70381298
0.70493063
0.70606701
0.70722176
0.7083944
0.70954829
0.71073039
0.71194818
0.71317995
0.71442378
0.71567604
0.71691053
0.71818553
0.71947233
0.72076686
0.72206779
0.72337373
0.72465234
0.72594545
0.72725332
0.72855821
0.67908734
0.67980832
0.68053049
0.68125499
0.68198332
0.6827163
0.68345493
0.68419994
0.68493744
0.6856947
0.68646364
0.68724391
0.68803656
0.68884245
0.68966238
0.69049714
0.69134747
0.69221409
0.69309763
0.69399867
0.69491774
0.6958553
0.69681172
0.69778731
0.69878231
0.69979687
0.70083107
0.70188491
0.70295831
0.70405111
0.70516307
0.70629388
0.70744316
0.70861038
0.70975921
0.71093822
0.71215129
0.71337871
0.71461855
0.71586146
0.71709311
0.71836512
0.71964764
0.72093777
0.72223416
0.72353537
0.72480933
0.72610015
0.72740374
0.72870443
0.67904019
0.67973333
0.6804281
0.68112544
0.68182633
0.6825328
0.68324499
0.68396368
0.6846807
0.68540983
0.6861521
0.68690558
0.68767124
0.68845001
0.68924272
0.69005013
0.69087302
0.69171209
0.69256801
0.69344138
0.69433276
0.69524263
0.69617142
0.69711947
0.69808708
0.69907444
0.70008168
0.70110886
0.70215594
0.70322282
0.7043093
0.70541512
0.70653993
0.70768331
0.70884472
0.70998815
0.71116369
0.71237167
0.71359466
0.71483274
0.71605945
0.71729163
0.71856018
0.71983802
0.72112335
0.72241478
0.7237109
0.72497998
0.72626814
0.7275672
0.72886353
0.67976285
0.68042658
0.68109364
0.68176463
0.68244013
0.68312364
0.68381382
0.68450311
0.68520617
0.68591977
0.68664465
0.68738167
0.68813172
0.68889566
0.68967429
0.69046835
0.69127855
0.69210558
0.69295005
0.69381254
0.69469357
0.69559359
0.69651298
0.69745207
0.69841111
0.69939027
0.70038966
0.70140929
0.70244911
0.70350897
0.70458866
0.70568788
0.70680623
0.70794326
0.70909844
0.71023606
0.7114077
0.71261013
0.71382791
0.71506104
0.71627728
0.71750766
0.71877165
0.72004435
0.72132445
0.7226105
0.72390109
0.72516498
0.72645008
0.72774437
0.7290366
0.68053621
0.68116871
0.68180671
0.68244994
0.68309763
0.6837576
0.68441597
0.68508941
0.6857731
0.68646744
0.68717389
0.6878934
0.68862683
0.68937499
0.69013863
0.69091845
0.69171514
0.69252932
0.69336159
0.69421247
0.69508244
0.69597192
0.69688127
0.69781077
0.69876064
0.69973102
0.70072199
0.70173353
0.70276556
0.70381791
0.70489032
0.70598244
0.70709386
0.70822408
0.70937255
0.71050394
0.71167118
0.71286753
0.71407937
0.71530626
0.7165143
0.71774194
0.7190004
0.72026752
0.72154196
0.72282218
0.72410668
0.72536501
0.72664659
0.72793574
0.68136161
0.6819611
0.68256907
0.68318358
0.68379932
0.68442818
0.68506868
0.68571908
0.68638076
0.6870545
0.68774137
0.68844229
0.68915807
0.68988946
0.69063717
0.69140187
0.69218419
0.69298471
0.69380398
0.6946425
0.69550069
0.69637895
0.69727758
0.69819684
0.69913692
0.70009792
0.70107989
0.70208279
0.70310649
0.7041508
0.70521541
0.70629995
0.70740394
0.70852684
0.70966811
0.71079283
0.71195514
0.71314488
0.71435013
0.71557014
0.71677076
0.71799507
0.71924735
0.72050842
0.7217768
0.72305071
0.72432835
0.72558079
0.72685823
0.72814069
0.68224015
0.68280467
0.6833825
0.68395744
0.68454977
0.68515225
0.68576632
0.68639216
0.68703061
0.68768246
0.68834859
0.68902982
0.6897269
0.69044054
0.69117138
0.69192004
0.69268712
0.69347314
0.69427861
0.69510399
0.69594966
0.69681597
0.6977032
0.69861157
0.69954121
0.70049222
0.7014646
0.70245827
0.70347309
0.70450881
0.70556511
0.70664155
0.7077376
0.70885266
0.70998619
0.71110374
0.71226058
0.7134432
0.7146413
0.71585397
0.71704732
0.71826776
0.71951338
0.72076797
0.72202994
0.72329718
0.72456662
0.72581304
0.7270859
0.72836152
0.68317246
0.68369938
0.68424156
0.68478898
0.68535003
0.6859236
0.68651014
0.68711007
0.68772406
0.68835278
0.68899701
0.68965745
0.69033478
0.69102965
0.69174266
0.69247437
0.69322531
0.69399599
0.69478685
0.6955983
0.69643069
0.69728433
0.69815946
0.69905624
0.6999748
0.70091518
0.70187734
0.7028612
0.70386655
0.70489314
0.70594059
0.70700842
0.70809601
0.70920267
0.71032785
0.71143774
0.71258857
0.71376356
0.71495401
0.71615887
0.71734478
0.71856079
0.71979931
0.72104704
0.72230239
0.72356308
0.72482143
0.72606259
0.72733048
0.72859908
0.68416292
0.68465241
0.68515621
0.68567129
0.68620036
0.68674361
0.68730141
0.68787418
0.68846246
0.68906686
0.68968802
0.69032657
0.6909831
0.6916582
0.6923524
0.69306622
0.69380014
0.69455461
0.69533003
0.69612676
0.6969451
0.69778533
0.69864763
0.69953214
0.70043894
0.70136803
0.70231936
0.70329278
0.70428809
0.70530497
0.70634303
0.70740173
0.70848034
0.70957802
0.71069413
0.71179587
0.71294015
0.71410706
0.71528933
0.71648585
0.71766401
0.71887499
0.72010599
0.72134643
0.72259503
0.72385133
0.72509096
0.7263308
0.72759288
0.7288541
0.68520944
0.68565996
0.68612573
0.68660605
0.68710186
0.68761351
0.68814134
0.68868571
0.68924708
0.68982598
0.69042294
0.6910385
0.69167318
0.6923275
0.69300193
0.69369694
0.69441294
0.69515034
0.69590948
0.69669067
0.69749419
0.69832025
0.69916899
0.70004052
0.70093488
0.70185202
0.70279187
0.70375424
0.70473888
0.70574548
0.7067736
0.70782264
0.70889179
0.70997989
0.711086
0.71217914
0.7133164
0.71447482
0.7156484
0.71683579
0.71800585
0.71921121
0.72043424
0.72166681
0.7229077
0.72415614
0.72538317
0.72661929
0.72787388
0.72912731
0.68631323
0.68672331
0.68715033
0.68759429
0.68805553
0.68853434
0.68903098
0.68954576
0.69007907
0.69063132
0.69120297
0.69179447
0.69240628
0.69303882
0.69369252
0.69436778
0.69506497
0.69578443
0.69652646
0.69729131
0.69807922
0.69889034
0.69972479
0.70058263
0.70146384
0.70236837
0.70329606
0.70424674
0.7052201
0.70621582
0.70723342
0.70827231
0.70933156
0.71040961
0.71150425
0.71258855
0.71371842
0.71486801
0.71603246
0.71720938
0.71837114
0.71957032
0.7207849
0.72200899
0.72324126
0.72448057
0.72569709
0.72692826
0.7281744
0.72941944
0.68747487
0.6878432
0.68823045
0.68863673
0.68906218
0.68950696
0.68997125
0.69045531
0.69095943
0.69148394
0.69202921
0.69259561
0.69318353
0.69379332
0.69442535
0.69507995
0.69575744
0.6964581
0.69718217
0.69792988
0.69870139
0.69949682
0.70031623
0.70115965
0.70202702
0.70291823
0.70383311
0.70477143
0.70573288
0.70671708
0.70772358
0.7087518
0.70980086
0.71086892
0.71194897
0.71302515
0.71414733
0.71528788
0.71644326
0.71760663
0.7187607
0.71995325
0.72115888
0.72237387
0.72359679
0.72482624
0.72603281
0.72725812
0.72849513
0.7297312
0.68869453
0.68901996
0.68936637
0.68973384
0.69012237
0.69053201
0.69096288
0.69141514
0.691889
0.69238473
0.6929026
0.69344291
0.69400596
0.69459205
0.69520149
0.69583453
0.69649144
0.69717245
0.69787776
0.69860751
0.69936184
0.70014081
0.70094444
0.70177271
0.70262552
0.70350273
0.70440412
0.70532942
0.70627828
0.70725033
0.70824508
0.70926205
0.71030075
0.71136138
0.71241797
0.71349049
0.71460422
0.71573555
0.71688436
0.71802532
0.71917584
0.72036102
0.72155712
0.72276242
0.7239753
0.72519416
0.72639077
0.72760937
0.72883672
0.73006323
0.689972
0.69025355
0.69055816
0.69088581
0.69123641
0.69160991
0.69200636
0.69242582
0.69286845
0.69333441
0.69382391
0.69433718
0.69487444
0.69543592
0.69602187
0.69663249
0.69726798
0.69792851
0.69861422
0.69932523
0.70006161
0.70082336
0.70161047
0.70242287
0.70326042
0.70412292
0.70501013
0.70592172
0.70685734
0.70781655
0.70879886
0.70980378
0.71083086
0.71187997
0.71292086
0.71398638
0.71508975
0.71621056
0.71734863
0.71847423
0.71961914
0.72079458
0.72198054
0.72317561
0.72437788
0.72558492
0.72677146
0.72798257
0.72919977
0.73041615
0.6913067
0.6915436
0.69180558
0.69209256
0.69240435
0.69274083
0.69310195
0.69348773
0.69389821
0.6943335
0.69479374
0.69527907
0.69578966
0.69632567
0.69688728
0.69747464
0.69808789
0.69872714
0.69939248
0.70008397
0.70080162
0.70154542
0.70231528
0.70311108
0.70393265
0.70477975
0.70565209
0.70654931
0.70747099
0.70841667
0.70938582
0.71037788
0.7113923
0.71242856
0.71345597
0.71451309
0.71560477
0.71671389
0.71783978
0.71895225
0.72009031
0.72125477
0.72242997
0.72361445
0.72480597
0.72599837
0.7271754
0.72837834
0.72958487
0.73079054
0.69269768
0.69288933
0.69310805
0.69335366
0.69362592
0.69392462
0.69424964
0.69460093
0.69497846
0.69538227
0.69581243
0.69626901
0.69675212
0.69726185
0.69779833
0.69836164
0.69895186
0.69956905
0.70021326
0.70088448
0.70158268
0.70230778
0.70305967
0.70383818
0.70464308
0.70547408
0.70633087
0.70721302
0.7081201
0.70905156
0.71000683
0.71098527
0.71198621
0.71300892
0.71402327
0.71507098
0.7161501
0.7172466
0.71835945
0.71945932
0.72058943
0.72174218
0.72290603
0.72407974
0.72526279
0.72643191
0.72760358
0.72879735
0.72999259
0.73118692
0.69414356
0.6942896
0.6944646
0.69466834
0.6949005
0.69516081
0.69544909
0.69576522
0.69610911
0.69648073
0.69688008
0.69730718
0.69776207
0.69824479
0.6987554
0.69929391
0.69986038
0.70045479
0.70107714
0.70172737
0.70240541
0.70311112
0.70384434
0.70460485
0.70539238
0.70620662
0.70704717
0.70791359
0.70880538
0.70972196
0.71066267
0.71162678
0.71261352
0.71362209
0.71462316
0.71566053
0.71672649
0.71780963
0.71890847
0.71999568
0.72111679
0.72225723
0.72340893
0.72457056
0.72574118
0.72689391
0.72805814
0.72924017
0.73042343
0.73160573
0.69564256
0.69574282
0.69587386
0.69603541
0.69622708
0.69644857
0.69669962
0.69698006
0.69728974
0.69762858
0.69799651
0.69839349
0.69881951
0.69927456
0.69975862
0.70027168
0.70081371
0.70138467
0.70198448
0.70261305
0.70327024
0.70395588
0.70466975
0.7054116
0.70618111
0.7069779
0.70780156
0.70865159
0.70952744
0.71042848
0.71135398
0.71230311
0.71327496
0.71426871
0.71525607
0.71628226
0.71733461
0.71840384
0.71948704
0.72056158
0.72167278
0.72280032
0.72393907
0.72508757
0.72624448
0.72738283
0.72853819
0.72970731
0.73087779
0.73204734
0.69719246
0.69724695
0.69733403
0.69745327
0.69760427
0.69778667
0.69800017
0.69824453
0.69851958
0.69882517
0.69916118
0.69952753
0.69992413
0.70035093
0.70080787
0.70129487
0.70181186
0.70235874
0.70293539
0.70354166
0.70417738
0.70484231
0.7055362
0.70625874
0.70700958
0.70778829
0.70859441
0.7094274
0.71028669
0.71117157
0.71208126
0.71301479
0.71397106
0.71494913
0.71592224
0.71693644
0.71797493
0.71903029
0.72009465
0.72115745
0.72225782
0.72337186
0.72449693
0.72563144
0.72677387
0.72789822
0.72904343
0.73019891
0.73135587
0.73251195
0.6987906
0.69879981
0.6988428
0.69891986
0.69903021
0.69917345
0.69934925
0.69955733
0.69979748
0.7000695
0.70037322
0.70070852
0.70107527
0.70147336
0.70190268
0.70236311
0.70285452
0.70337678
0.70392971
0.70451311
0.70512677
0.7057704
0.70644371
0.70714634
0.70787788
0.70863789
0.70942585
0.71024119
0.71108329
0.71195142
0.71284475
0.71376217
0.7147022
0.71566329
0.7166217
0.71762306
0.71864725
0.7196906
0.72072874
0.72178522
0.72287243
0.72397221
0.72508291
0.7262027
0.72732955
0.7284398
0.72957372
0.73071496
0.73185773
0.73299963
0.70043325
0.70039782
0.70039796
0.7004326
0.70050257
0.70060678
0.70074493
0.7009167
0.70112184
0.70136012
0.70163134
0.70193532
0.7022719
0.70264092
0.70304223
0.70347567
0.70394107
0.70443823
0.70496695
0.70552698
0.70611804
0.70673984
0.70739201
0.70807416
0.70878585
0.70952656
0.71029577
0.71109286
0.71191717
0.71276796
0.71364441
0.71454538
0.71546894
0.71641038
0.71735439
0.71834202
0.71935062
0.72037795
0.72139787
0.7224444
0.72351661
0.72460147
0.72569735
0.72680205
0.72791071
0.72900728
0.73012892
0.73125536
0.73238326
0.73351029
0.70211682
0.70203757
0.70199511
0.70198908
0.70201856
0.70208403
0.70218478
0.7023204
0.70249061
0.70269515
0.70293379
0.70320632
0.70351255
0.70385227
0.7042253
0.70463144
0.70507047
0.70554216
0.70604626
0.70658248
0.70715051
0.70774999
0.70838052
0.70904168
0.70973297
0.71045385
0.71120374
0.71198199
0.71278791
0.71362077
0.71447978
0.7153642
0.71627373
0.71718649
0.71812089
0.71909349
0.72008547
0.72109556
0.72209885
0.72313364
0.72419004
0.72525938
0.7263403
0.72743208
0.72851349
0.72960085
0.73070887
0.73181986
0.7329322
0.73404365
0.7038358
0.70371496
0.70363093
0.70358449
0.70357521
0.7036022
0.70366586
0.70376568
0.70390122
0.7040722
0.70427836
0.70451947
0.7047953
0.70510563
0.70545023
0.70582887
0.70624129
0.70668723
0.70716639
0.70767845
0.70822305
0.70879981
0.70940828
0.71004799
0.7107184
0.71141894
0.71214899
0.71290785
0.7136948
0.71450907
0.71534985
0.71621635
0.71710791
0.71800031
0.71892167
0.71987731
0.72085185
0.72184343
0.72283031
0.723852
0.72489197
0.72594493
0.72700946
0.72808435
0.72914596
0.73022144
0.73131331
0.73240806
0.7335041
0.73459923
0.70558434
0.70542412
0.70530092
0.70521517
0.70516758
0.70515776
0.70518482
0.70524923
0.70535056
0.70548834
0.70566229
0.70587217
0.70611772
0.7063987
0.70671485
0.70706591
0.7074516
0.70787161
0.70832561
0.70881326
0.70933415
0.70988785
0.71047389
0.71109176
0.71174088
0.71242064
0.71313036
0.71386933
0.71463676
0.71543183
0.71625367
0.71710137
0.71797402
0.71884789
0.71975482
0.72069282
0.72164953
0.72262006
0.72359127
0.72459868
0.72562159
0.72665736
0.72770445
0.72876138
0.72980496
0.7308669
0.73194155
0.73301924
0.73409823
0.73517632
0.70736172
0.70715899
0.70699896
0.70687626
0.70679159
0.70674554
0.70673775
0.70676732
0.70683492
0.70694005
0.70708225
0.70726125
0.7074768
0.70772863
0.70801645
0.70834
0.70869895
0.70909297
0.70952171
0.70998478
0.71048175
0.71101216
0.71157549
0.7121712
0.71279868
0.71345727
0.71414627
0.71486491
0.71561235
0.7163877
0.71719002
0.7180183
0.71887154
0.71972701
0.72061837
0.72153849
0.72247949
0.72342059
0.72438198
0.72537277
0.72637793
0.72739578
0.72842461
0.72946287
0.73048858
0.73153562
0.73259242
0.73365233
0.73471357
0.73577392
0.70915871
0.70891843
0.70871845
0.70856152
0.70844197
0.70836103
0.70831902
0.70831568
0.70835007
0.70842319
0.70853427
0.70868293
0.70886892
0.70909195
0.70935173
0.70964796
0.7099803
0.71034841
0.71075189
0.71119034
0.71166329
0.71217026
0.71271069
0.71328401
0.71388957
0.71452669
0.71519463
0.71589257
0.71661963
0.71737484
0.71815718
0.71896552
0.71979886
0.72063558
0.72151015
0.72241113
0.7233327
0.72425269
0.7252005
0.72617287
0.7271596
0.72815891
0.72916881
0.7301874
0.73119501
0.732226
0.73326441
0.73430593
0.73534877
0.73639071
0.71096862
0.71069281
0.71045786
0.71026354
0.71011236
0.70999857
0.70992373
0.70988812
0.70989143
0.70993297
0.71001373
0.71013277
0.7102898
0.71048455
0.71071672
0.71098598
0.71129199
0.71163437
0.71201273
0.71242663
0.71287557
0.71335905
0.71387649
0.71442727
0.71501074
0.71562617
0.71627278
0.71694973
0.71765611
0.71839089
0.71915291
0.7199409
0.7207536
0.72157125
0.72242813
0.72330928
0.72421048
0.72511108
0.72604354
0.72699683
0.72796461
0.72894504
0.72993566
0.7309325
0.73192229
0.73293629
0.7339558
0.73497834
0.73600214
0.73702504
0.7131332
0.71278354
0.71247487
0.71220719
0.71198037
0.71179432
0.71165175
0.7115457
0.71147922
0.71145226
0.71146433
0.71151527
0.71160558
0.71173445
0.71190161
0.71210675
0.71234953
0.71262962
0.71294663
0.71330013
0.71368966
0.71411472
0.71457478
0.71506923
0.71559744
0.71615872
0.71675232
0.71737743
0.7180332
0.71871869
0.71943286
0.72017449
0.72094199
0.72173234
0.72253121
0.72337001
0.72423117
0.72511023
0.72599222
0.7269081
0.72784191
0.72879033
0.72975184
0.73072525
0.73169237
0.73266902
0.73366449
0.73466453
0.73566748
0.73667164
0.73767489
0.71497534
0.71459568
0.71425683
0.71395887
0.71370163
0.71348467
0.71331217
0.71317806
0.71308228
0.71302642
0.71301026
0.71303313
0.71309542
0.7131971
0.71333751
0.71351637
0.71373334
0.71398808
0.71428017
0.71460921
0.7149747
0.71537614
0.71581296
0.71628456
0.71679026
0.71732935
0.71790107
0.7185046
0.71913905
0.71980351
0.72049701
0.72121866
0.72196793
0.72272812
0.72351235
0.7243331
0.72517652
0.72602515
0.72689307
0.72779108
0.72870498
0.72963337
0.73057476
0.73152767
0.73247274
0.73343285
0.73440819
0.73538805
0.73637081
0.73735476
0.73833783
0.71680313
0.71639643
0.71603022
0.71570469
0.71541982
0.71517556
0.71497209
0.71481201
0.71468976
0.71460669
0.71456355
0.71456016
0.71459565
0.71467114
0.71478583
0.71493932
0.71513128
0.71536137
0.71562919
0.71593429
0.71627621
0.7166544
0.7170683
0.71751727
0.71800064
0.71851767
0.71906758
0.71964951
0.72026258
0.72090584
0.72157832
0.72227905
0.72300711
0.72374465
0.72451156
0.7253117
0.72613392
0.72695965
0.72781158
0.72868916
0.72958258
0.73049037
0.73141099
0.73234285
0.73326727
0.73420943
0.73516402
0.73612318
0.73708524
0.73804852
0.73901094
0.71860712
0.71817646
0.71778579
0.71743543
0.71712545
0.7168559
0.71662685
0.71643835
0.71629323
0.71618496
0.71611651
0.71608797
0.71609889
0.7161491
0.71623923
0.71636841
0.71653633
0.71674263
0.71698694
0.7172688
0.71758773
0.71794319
0.71833461
0.71876134
0.71922268
0.71971789
0.72024615
0.7208066
0.72139832
0.72202034
0.72267163
0.72335114
0.72405775
0.72477431
0.72552292
0.72630172
0.72710213
0.72790675
0.72874132
0.72959798
0.73047052
0.73135735
0.73225683
0.73316738
0.73407127
0.73499451
0.73592802
0.73686613
0.73780716
0.7387494
0.73969081
0.72037727
0.71992578
0.71951364
0.71914126
0.71880879
0.71851635
0.71826394
0.71805137
0.71788273
0.71775223
0.71766023
0.71760818
0.71759593
0.71762279
0.7176894
0.7177955
0.71794049
0.71812402
0.71834572
0.71860516
0.71890185
0.71923524
0.71960476
0.72000975
0.7204495
0.72092325
0.72143018
0.72196939
0.72253995
0.72314085
0.72377102
0.72442935
0.7251147
0.72581085
0.7265407
0.72729822
0.72807578
0.72886012
0.72967652
0.73051228
0.73136384
0.73222953
0.73310766
0.7339966
0.73487983
0.73578344
0.73669572
0.73761259
0.73853235
0.73945332
0.74037348
0.72210295
0.72163376
0.72120316
0.72081163
0.72045944
0.72014678
0.71987381
0.71964068
0.71944778
0.71929792
0.71918483
0.71911111
0.71907712
0.71908262
0.71912706
0.71921141
0.71933471
0.71949662
0.71969678
0.71993477
0.72021009
0.72052221
0.72087055
0.72125444
0.72167318
0.72212599
0.72261203
0.72313042
0.72368016
0.72426023
0.72486951