/*--------------------------------*- C++ -*----------------------------------*\
| =========                 |                                                 |
| \\      /  F ield         | OpenFOAM: The Open Source CFD Toolbox           |
|  \\    /   O peration     | Version:  2312                                  |
|   \\  /    A nd           | Website:  www.openfoam.com                      |
|    \\/     M anipulation  |                                                 |
\*---------------------------------------------------------------------------*/
FoamFile
{
    version     2.0;
    format      ascii;
    arch        "LSB;label=32;scalar=64";
    class       volScalarField;
    location    "0.04";
    object      O2;
}
// * * * * * * * * * * * * * * * * * * * * * * * * * * * * * * * * * * * * * //

dimensions      [0 0 0 0 0 0 0];

internalField   nonuniform List<scalar> 
3250
(
0.12616817
0.12613336
0.12605497
0.12593617
0.12577926
0.1255862
0.12535903
0.12509986
0.12481089
0.12449436
0.12415253
0.1237876
0.12341866
0.12302361
0.12260691
0.12217893
0.12174268
0.12130131
0.12085813
0.12041655
0.11998014
0.11955255
0.11913754
0.11873897
0.11836081
0.11800707
0.11768188
0.11738938
0.11713378
0.11691932
0.11675024
0.11663081
0.11656525
0.11655774
0.11661077
0.11673116
0.11692209
0.11718694
0.11752936
0.11794121
0.11844227
0.11903578
0.1197187
0.1204934
0.12136244
0.12232695
0.12336327
0.12451477
0.12576839
0.1261874
0.12615173
0.1260725
0.12595302
0.12579548
0.12560185
0.12537415
0.1251145
0.12482509
0.12450816
0.124166
0.12380079
0.12343159
0.12303608
0.12261915
0.12219097
0.12175453
0.121313
0.12086967
0.12042798
0.11999146
0.11956379
0.11914871
0.11875009
0.11837189
0.11801814
0.11769293
0.11740043
0.11714484
0.1169304
0.11676135
0.11664195
0.11657643
0.11656896
0.11662203
0.11674247
0.11693344
0.11719834
0.11754079
0.11795269
0.11845379
0.11904734
0.11973031
0.12050513
0.12137412
0.12233857
0.12337485
0.1245264
0.12578011
0.12622464
0.12618731
0.12610646
0.12598559
0.12582679
0.12563198
0.12540321
0.12514257
0.12485226
0.12453453
0.12419167
0.1238259
0.12345618
0.12305971
0.12264232
0.12221371
0.1217769
0.12133503
0.12089142
0.12044948
0.12001277
0.11958492
0.11916972
0.11877102
0.11839276
0.11803898
0.11771377
0.11742129
0.11716576
0.11695138
0.11678243
0.11666314
0.11659774
0.11659041
0.11664362
0.11676421
0.11695533
0.11722038
0.11756299
0.11797503
0.11847632
0.11907
0.11975314
0.12052813
0.12139717
0.12236164
0.12339795
0.12454965
0.12580349
0.12627987
0.12624005
0.12615682
0.12603388
0.12587317
0.1256766
0.12544621
0.12518408
0.12489241
0.12457345
0.12422956
0.12386295
0.12349242
0.12309453
0.12267643
0.12224718
0.1218098
0.12136743
0.12092339
0.12048109
0.12004407
0.11961599
0.11920061
0.11880177
0.11842344
0.11806962
0.11774443
0.11745201
0.11719656
0.11698232
0.11681352
0.11669442
0.11662922
0.11662212
0.11667557
0.11679642
0.1169878
0.11725311
0.11759598
0.11800827
0.11850987
0.11910381
0.1197872
0.12056244
0.12143162
0.12239617
0.12343257
0.12458449
0.12583849
0.126353
0.12630983
0.12622351
0.12609781
0.12593455
0.12573563
0.12550307
0.12523896
0.12494547
0.12462487
0.12427958
0.12391192
0.12354025
0.1231405
0.12272145
0.12229134
0.12185319
0.12141016
0.12096554
0.12052276
0.12008534
0.11965694
0.11924132
0.11884232
0.11846388
0.11811003
0.11778487
0.11749253
0.11723721
0.11702315
0.11685458
0.11673573
0.11667083
0.11666405
0.11671783
0.11683904
0.11703079
0.11729648
0.11763971
0.11805237
0.11855441
0.11914871
0.11983245
0.12060801
0.1214774
0.12244213
0.12347866
0.12463088
0.12588503
0.12643874
0.12639159
0.1263017
0.12617274
0.12600648
0.1258048
0.12556969
0.12530324
0.1250076
0.12468505
0.12433808
0.12396928
0.12359621
0.12319428
0.1227741
0.12234298
0.12190393
0.12146011
0.12101482
0.12057147
0.12013358
0.11970482
0.11928891
0.11888972
0.11851117
0.11815729
0.11783215
0.11753992
0.11728477
0.11707093
0.11690262
0.11678409
0.11671955
0.11671316
0.11676734
0.116889
0.11708119
0.11734734
0.11769103
0.11810413
0.11860671
0.11920144
0.1198856
0.12066153
0.12153121
0.12249616
0.12353288
0.12468545
0.12593975
0.12653444
0.12648283
0.12638898
0.12625639
0.12608677
0.125882
0.12564405
0.12537497
0.12507692
0.12475218
0.12440328
0.12403339
0.1236586
0.12325429
0.12283284
0.12240058
0.12196052
0.12151582
0.12106978
0.12062579
0.12018738
0.1197582
0.11934198
0.11894257
0.1185639
0.11820998
0.1178849
0.11759278
0.11733782
0.11712423
0.11695624
0.11683807
0.11677394
0.11676798
0.11682263
0.11694479
0.1171375
0.11740416
0.11774838
0.11816198
0.11866518
0.1192604
0.11994504
0.12072139
0.1215914
0.12255662
0.12359357
0.12474651
0.12600096
0.12664751
0.12659064
0.12649213
0.12635525
0.12618167
0.12597324
0.12573192
0.12545974
0.12515884
0.12483145
0.12448017
0.12410934
0.12373226
0.12332519
0.12290223
0.12246861
0.12202736
0.12158162
0.12113468
0.12068994
0.12025092
0.11982124
0.11940466
0.119005
0.11862619
0.11827223
0.11794721
0.11765524
0.11740051
0.11718722
0.1170196
0.11690187
0.11683822
0.1168328
0.116888
0.11701078
0.1172041
0.11747139
0.11781623
0.11823044
0.11873438
0.1193302
0.1200154
0.12079226
0.12166268
0.12262822
0.12366544
0.12481884
0.12607346
0.12677915
0.12671616
0.12661226
0.12647038
0.12629218
0.1260795
0.12583425
0.12555846
0.12525422
0.12492373
0.1245694
0.12419823
0.12381792
0.12340775
0.12298303
0.12254784
0.12210519
0.12165824
0.12121026
0.12076464
0.1203249
0.11989466
0.11947765
0.1190777
0.11869873
0.11834473
0.11801977
0.11772798
0.11747352
0.1172606
0.11709342
0.1169762
0.11691313
0.11690834
0.11696419
0.11708769
0.11728174
0.11754977
0.11789535
0.11831028
0.1188151
0.11941162
0.12009749
0.12087494
0.12174585
0.12271176
0.12374931
0.12490325
0.12615807
0.12693056
0.12686057
0.12675048
0.12660287
0.12641938
0.1262018
0.12595203
0.12567208
0.12536402
0.12502994
0.12467146
0.12430144
0.12391621
0.12350281
0.12307605
0.12263904
0.12219479
0.12174644
0.12129726
0.12085063
0.12041006
0.11997917
0.11956168
0.1191614
0.11878224
0.1184282
0.11810333
0.11781175
0.11755761
0.1173451
0.11717844
0.11706182
0.11699942
0.11699537
0.11705198
0.11717632
0.11737121
0.1176401
0.11798655
0.11840232
0.11890815
0.1195055
0.12019215
0.12097029
0.12184177
0.12280809
0.12384603
0.1250006
0.12625564
0.12710301
0.12702512
0.12690801
0.12675387
0.12656435
0.1263412
0.1260863
0.12580162
0.12548921
0.12515115
0.12478906
0.12441834
0.12402761
0.12361126
0.12318215
0.12274305
0.12229697
0.12184703
0.12139648
0.12094871
0.1205072
0.12007557
0.11965753
0.11925687
0.11887752
0.11852343
0.11819866
0.11790732
0.11765355
0.11744153
0.11727547
0.11715953
0.11709791
0.11709469
0.11715219
0.11727749
0.11747336
0.11774324
0.11809068
0.11850741
0.11901441
0.11961271
0.12030026
0.12107922
0.12195135
0.12291809
0.12395648
0.12511178
0.1263671
0.12729773
0.12721109
0.12708605
0.12692457
0.12672825
0.12649882
0.12623813
0.12594811
0.1256308
0.12528835
0.12492282
0.12454997
0.12415331
0.12373396
0.12330219
0.12286074
0.12241259
0.12196085
0.12150876
0.1210597
0.12061714
0.12018467
0.11976601
0.11936494
0.11898536
0.11863122
0.11830658
0.11801552
0.11776217
0.11755072
0.11738533
0.11727018
0.11720943
0.11720718
0.11726568
0.11739209
0.11758906
0.11786007
0.11820864
0.11862647
0.1191348
0.11973419
0.12042278
0.12120268
0.12207555
0.12304267
0.1240816
0.12523775
0.12649339
0.12751608
0.12741981
0.1272859
0.1271162
0.12691227
0.12667581
0.12640863
0.12611264
0.12578985
0.12544249
0.12507368
0.12469736
0.12429445
0.12387183
0.1234371
0.12299303
0.12254256
0.1220888
0.12163499
0.12118448
0.12074074
0.12030734
0.11988799
0.11948646
0.11910663
0.11875245
0.11842795
0.11813721
0.11788435
0.11767353
0.11750891
0.11739466
0.1173349
0.11733373
0.11739338
0.11752104
0.11771926
0.11799153
0.11834138
0.11876046
0.11927029
0.11987091
0.12056069
0.12134169
0.12221544
0.12318277
0.12422236
0.12537949
0.12663553
0.12775952
0.12765261
0.12750885
0.12733002
0.12711764
0.12687336
0.12659897
0.12629634
0.1259674
0.1256144
0.12524291
0.12486147
0.1244521
0.12402588
0.12358787
0.12314086
0.12268781
0.12223181
0.12177608
0.12132396
0.12087891
0.12044449
0.12002437
0.11962233
0.11924223
0.11888801
0.11856368
0.11827331
0.118021
0.11781089
0.11764714
0.11753389
0.11747526
0.1174753
0.11753624
0.1176653
0.11786493
0.11813862
0.11848989
0.11891037
0.11942188
0.1200239
0.12071503
0.12149734
0.12237219
0.12333928
0.12437979
0.12553807
0.12679455
0.12802951
0.12791087
0.12775625
0.12756734
0.12734562
0.12709271
0.12681035
0.12650036
0.12616461
0.12580472
0.12543227
0.12504306
0.12462737
0.12419715
0.12375549
0.12330524
0.12284933
0.12239086
0.12193301
0.12147911
0.12103261
0.12059705
0.1201761
0.11977351
0.11939312
0.11903886
0.11871473
0.11842477
0.11817308
0.11796378
0.117801
0.11768887
0.11763149
0.11763287
0.11769528
0.1178259
0.11802709
0.11830237
0.11865524
0.11907727
0.11959063
0.12019422
0.1208869
0.12167075
0.12254725
0.1235129
0.12455493
0.12571459
0.12697158
0.12832757
0.12819603
0.12802948
0.1278295
0.12759752
0.12733512
0.127044
0.12672594
0.12638275
0.12601691
0.12564099
0.1252426
0.12482144
0.12438671
0.12394103
0.1234872
0.12302815
0.12256695
0.12210677
0.12165092
0.12120283
0.12076603
0.12034417
0.11994097
0.11956027
0.11920599
0.11888208
0.11859259
0.11834159
0.11813319
0.1179715
0.11786063
0.11780464
0.1178075
0.11787156
0.1180039
0.11820684
0.11848387
0.11883849
0.11926225
0.11977767
0.120383
0.1210774
0.12186309
0.12274266
0.12370382
0.12474898
0.12591021
0.12716778
0.12865515
0.12850952
0.12832995
0.12811787
0.12787467
0.12760188
0.12730119
0.12697431
0.12662285
0.12625193
0.12586993
0.125462
0.12503535
0.12459568
0.12414558
0.12368783
0.12322534
0.12276115
0.12229843
0.12184045
0.12139062
0.12095247
0.12052961
0.12012577
0.11974474
0.11939043
0.11906679
0.11877783
0.11852761
0.11832021
0.11815972
0.11805024
0.1179958
0.11800029
0.11806618
0.11820044
0.11840529
0.11868427
0.11904081
0.11946647
0.11998415
0.12059139
0.12128768
0.12207533
0.12295713
0.12391553
0.12496352
0.12612621
0.12738435
0.12901376
0.12885282
0.12865909
0.12843384
0.12817842
0.12789433
0.12758321
0.12724677
0.12688557
0.12651157
0.1261199
0.1257028
0.12527025
0.1248252
0.12437028
0.12390826
0.12344201
0.12297457
0.12250906
0.12204877
0.12159706
0.12115744
0.12073351
0.12032897
0.11994761
0.11959329
0.11926995
0.11898158
0.11873223
0.11852594
0.11836678
0.11825883
0.11820611
0.1182124
0.11828031
0.11841668
0.11862365
0.11890474
0.11926339
0.11969113
0.12021128
0.1208206
0.12151893
0.12230857
0.12319207
0.12414923
0.12519985
0.12636385
0.12762257
0.12940493
0.12922742
0.12901833
0.12877882
0.12851017
0.12821382
0.12789139
0.12754486
0.12717484
0.12679483
0.1263912
0.12596643
0.12552737
0.12507646
0.1246163
0.12414963
0.12367931
0.12320834
0.12273983
0.12227702
0.12182328
0.12138208
0.120957
0.12055172
0.12017
0.11981569
0.1194927
0.119205
0.1189566
0.11875154
0.11859386
0.1184876
0.11843676
0.11844503
0.11851517
0.11865384
0.11886314
0.11914655
0.11950746
0.11993748
0.12046031
0.12107191
0.1217724
0.12256405
0.12344905
0.12440604
0.12545932
0.1266244
0.12788372
0.12999388
0.12983013
0.1296348
0.12940914
0.12915423
0.1288713
0.12856169
0.128227
0.12786983
0.12749172
0.12710207
0.12668653
0.12625405
0.12580794
0.12535068
0.12488485
0.12441316
0.12393843
0.12346365
0.12299189
0.12252638
0.12207045
0.12162756
0.12120125
0.12079518
0.1204131
0.12005881
0.11973622
0.11944927
0.11920193
0.11899822
0.11884216
0.11873776
0.11868898
0.11869943
0.11877202
0.11891319
0.11912505
0.11941099
0.11977432
0.12020682
0.12073257
0.12134661
0.12204941
0.12284312
0.12372965
0.12468716
0.1257432
0.12690924
0.12816917
0.13047527
0.13029085
0.13007639
0.12983295
0.1295615
0.12926321
0.12893934
0.1285912
0.12822261
0.12783844
0.12743352
0.12700783
0.12656694
0.12611322
0.12564912
0.12517717
0.12470007
0.1242206
0.12374172
0.12326647
0.12279806
0.12233979
0.12189509
0.12146747
0.12106058
0.12067812
0.1203239
0.12000176
0.11971564
0.11946947
0.11926726
0.11911297
0.1190106
0.11896407
0.1189769
0.11905216
0.11919608
0.11941075
0.11969945
0.12006526
0.1205005
0.12102942
0.12164611
0.12235135
0.1231472
0.12403538
0.12499387
0.12605279
0.12721977
0.1284803
0.13099509
0.13078857
0.13055366
0.1302912
0.13000204
0.12968733
0.12934821
0.12898505
0.12860834
0.12821131
0.12779205
0.12735635
0.12690641
0.12644451
0.12597305
0.12549455
0.12501164
0.12452709
0.12404381
0.12356483
0.12309332
0.12263255
0.12218592
0.12175693
0.12134918
0.12096635
0.12061222
0.1202906
0.1200054
0.11976053
0.11955994
0.1194076
0.11930744
0.11926337
0.11927879
0.11935697
0.11950387
0.11972163
0.12001338
0.1203816
0.12081993
0.12135228
0.12197181
0.12267965
0.12347778
0.12436776
0.12532756
0.12638948
0.12755743
0.12881855
0.13155472
0.1313247
0.131068
0.13078531
0.13047725
0.13014505
0.12978993
0.12941336
0.12902441
0.12861106
0.12817982
0.1277334
0.12727376
0.12680311
0.12632379
0.12583827
0.12534915
0.12485918
0.12437121
0.12388826
0.12341344
0.12295003
0.12250136
0.12207093
0.12166228
0.12127909
0.12092508
0.12060406
0.12031988
0.12007644
0.11987764
0.11972741
0.11962967
0.11958827
0.1196065
0.11968783
0.11983799
0.12005917
0.12035444
0.12072452
0.12116657
0.12170264
0.12232522
0.12303583
0.12383637
0.12472832
0.12568968
0.1267547
0.12792366
0.12918536
0.13238448
0.13215545
0.13190057
0.13162077
0.13131667
0.13098848
0.13063768
0.13026548
0.12987796
0.12946951
0.1290418
0.12859812
0.12814031
0.12767034
0.12719036
0.12670266
0.12620967
0.12571395
0.12521819
0.12472524
0.12423807
0.12375977
0.12329355
0.12284274
0.1224108
0.12200124
0.12161769
0.12126387
0.12094352
0.12066048
0.12041859
0.12022175
0.12007383
0.1199787
0.1199402
0.11996146
0.12004621
0.12019988
0.12042481
0.12072464
0.12109486
0.12154207
0.12208204
0.12270786
0.12342142
0.12422453
0.1251186
0.12608172
0.12714993
0.12831998
0.12958226
0.1330557
0.13279864
0.13251745
0.13221324
0.13188669
0.13153704
0.13116648
0.13078066
0.13037308
0.12994736
0.12950521
0.1290483
0.12857841
0.12809748
0.1276076
0.12711101
0.12661009
0.12610736
0.12560549
0.12510726
0.12461563
0.12413364
0.12366447
0.12321143
0.12277792
0.12236743
0.12198355
0.12162996
0.12131038
0.1210286
0.12078843
0.12059371
0.12044829
0.120356
0.12032063
0.12034516
0.12043358
0.120591
0.12081985
0.12112368
0.12149607
0.12194818
0.12249205
0.12312131
0.12383801
0.12464384
0.12554016
0.12650521
0.12757669
0.12874792
0.13001083
0.1337721
0.13348553
0.13317649
0.13284652
0.13249686
0.13212411
0.13173752
0.13132882
0.13090248
0.13046002
0.13000259
0.12953169
0.12904904
0.12855652
0.12805617
0.12755018
0.12704088
0.12653075
0.12602242
0.12551864
0.12502231
0.12453645
0.1240642
0.12360883
0.12317369
0.12276226
0.12237809
0.12202481
0.1217061
0.1214257
0.12118741
0.12099501
0.1208523
0.12076308
0.12073107
0.12075913
0.12085147
0.12101289
0.12124583
0.12155367
0.12192928
0.12238644
0.12293424
0.12356718
0.12428723
0.12509593
0.12599455
0.1269617
0.12803653
0.12920902
0.13453473
0.13421734
0.13387867
0.1335214
0.13314899
0.1327557
0.13234309
0.13191389
0.13146871
0.13100875
0.13053524
0.13004961
0.12955353
0.1290488
0.12853742
0.12802152
0.1275034
0.12698549
0.12647037
0.12596075
0.1254595
0.12496959
0.12449414
0.12403635
0.12359956
0.1231872
0.12280277
0.12244987
0.12213214
0.12185329
0.12161704
0.12142716
0.12128739
0.12120147
0.12117309
0.12120493
0.12130147
0.12146713
0.12170437
0.12201645
0.1223959
0.12285834
0.12341026
0.12404711
0.12477073
0.12558246
0.1264833
0.12745274
0.12853099
0.12970472
0.13534466
0.13499535
0.13462476
0.13424481
0.13384247
0.1334237
0.13298847
0.13253795
0.13207302
0.13159477
0.13110441
0.13060335
0.13009316
0.12957562
0.12905267
0.12852638
0.12799901
0.12747294
0.12695071
0.126435
0.12592861
0.1254345
0.12495572
0.12449545
0.12405698
0.1236437
0.12325907
0.12290665
0.12259003
0.12231287
0.12207886
0.1218917
0.1217551
0.12167274
0.12164825
0.12168414
0.12178516
0.12195534
0.12219714
0.12251373
0.12289747
0.12336545
0.12392172
0.12456275
0.12529024
0.12610523
0.12700779
0.12797991
0.12906169
0.13023673
0.13620304
0.13582129
0.13542017
0.13500758
0.13457828
0.13413385
0.13367484
0.13320213
0.1327166
0.13221927
0.13171133
0.13119412
0.1306692
0.13013828
0.12960323
0.12906609
0.12852906
0.12799448
0.12746484
0.12694278
0.12643106
0.12593258
0.12545038
0.12498757
0.12454742
0.12413325
0.12374849
0.12339665
0.12308128
0.12280599
0.12257442
0.12239021
0.12225702
0.12217848
0.12215816
0.12219838
0.12230418
0.12247916
0.12272581
0.12304719
0.1234356
0.12390936
0.12447026
0.12511574
0.12584748
0.12666634
0.12756898
0.12854482
0.12963022
0.13080662
0.13710816
0.13669152
0.13625982
0.13581582
0.13535806
0.13488702
0.13440326
0.13390748
0.13340052
0.13288336
0.13235713
0.13182314
0.13128288
0.13073802
0.13019037
0.12964194
0.12909486
0.12855144
0.12801411
0.12748547
0.12696824
0.12646528
0.12597956
0.12551419
0.12507235
0.12465734
0.12427254
0.1239214
0.12360744
0.1233342
0.12310528
0.12292426
0.12279475
0.1227203
0.12270444
0.12274929
0.12286018
0.12304026
0.12329204
0.12361849
0.12401189
0.12449168
0.12505748
0.12570767
0.12644411
0.12726892
0.12816653
0.12914948
0.1302382
0.13141595
0.13806245
0.13760999
0.13714545
0.13666977
0.13618255
0.13568401
0.1351746
0.13465493
0.13412578
0.13358808
0.1330429
0.13249151
0.13193535
0.13137604
0.13081534
0.1302552
0.12969771
0.12914514
0.12859986
0.12806444
0.12754155
0.12703399
0.12654471
0.12607674
0.12563324
0.12521746
0.12483272
0.12448243
0.12417004
0.12389906
0.12367301
0.12349544
0.12336987
0.1232998
0.1232887
0.12333848
0.1234548
0.1236403
0.1238975
0.12422924
0.12462795
0.12511401
0.12568495
0.12634001
0.127081
0.12790977
0.12880716
0.12979604
0.13088716
0.13206625
0.13906566
0.13857657
0.13807788
0.13756985
0.13705233
0.13652546
0.13598961
0.13544531
0.13489328
0.13433437
0.13376963
0.13320028
0.13262771
0.13205347
0.13147929
0.13090707
0.13033886
0.12977686
0.12922341
0.12868103
0.12815234
0.12764011
0.12714722
0.12667667
0.12623156
0.12581509
0.12543054
0.12508125
0.12477063
0.12450212
0.12427919
0.12410532
0.12398397
0.12391859
0.12391255
0.12396759
0.12408967
0.12428095
0.1245439
0.12488096
0.12528535
0.12577795
0.12635426
0.1270143
0.12775974
0.12859206
0.12949119
0.13048558
0.1315787
0.13275901
0.14011757
0.13959117
0.13905742
0.13851634
0.1379678
0.13741189
0.1368489
0.13627931
0.13570375
0.13512306
0.13453822
0.1339504
0.13336095
0.13277136
0.13218334
0.13159871
0.13101948
0.13044782
0.12988602
0.12933653
0.12880195
0.12828499
0.12778848
0.12731538
0.12686873
0.12645168
0.12606746
0.12571935
0.1254107
0.1251449
0.12492534
0.12475545
0.12463862
0.12457822
0.12457754
0.12463821
0.12476641
0.12496385
0.12523303
0.12557493
0.12598567
0.12648508
0.12706696
0.12773212
0.12848202
0.12931787
0.1302196
0.13121926
0.13231426
0.13349565
0.14121781
0.14065353
0.14008407
0.13950934
0.13892917
0.13834361
0.1377529
0.13715744
0.13655783
0.13595484
0.13534943
0.1347427
0.13413596
0.13353068
0.13292848
0.13233116
0.13174069
0.13115917
0.13058886
0.13003218
0.12949164
0.12896993
0.12846983
0.12799423
0.12754614
0.12712865
0.12674492
0.12639819
0.12609173
0.12582888
0.12561298
0.12544736
0.12533535
0.12528025
0.12528515
0.12535191
0.12548652
0.12569059
0.12596723
0.1263117
0.12673058
0.12723694
0.12782461
0.12849503
0.12924944
0.1300888
0.13099358
0.1319983
0.13309513
0.13427747
0.14236577
0.1417632
0.14115757
0.14054871
0.13993645
0.13932076
0.13870184
0.13808005
0.13745595
0.13683026
0.13620388
0.13557789
0.13495353
0.13433225
0.13371562
0.13310539
0.13250349
0.13191198
0.13133307
0.13076911
0.1302226
0.12969616
0.12919252
0.12871452
0.12826512
0.12784734
0.12746429
0.12711916
0.12681514
0.12655552
0.12634354
0.12618249
0.12607562
0.12602614
0.1260369
0.12611014
0.12625139
0.12646222
0.12674556
0.12709506
0.12752208
0.128035
0.12862867
0.12930456
0.1300636
0.13090607
0.13181427
0.13282389
0.13392252
0.13510566
0.14356056
0.14291945
0.14227737
0.1416341
0.14098941
0.14034325
0.13969577
0.13904732
0.13839839
0.13774967
0.13710203
0.1364565
0.13581429
0.13517678
0.13454553
0.13392225
0.1333088
0.1327072
0.13211963
0.1315484
0.13099594
0.13046482
0.12995773
0.12947746
0.1290269
0.12860903
0.12822688
0.12788358
0.12758227
0.12732614
0.1271184
0.12696223
0.12686081
0.12681728
0.12683421
0.12691426
0.12706238
0.12728013
0.12757024
0.12792585
0.12836115
0.1288806
0.12948047
0.13016216
0.13092626
0.13177029
0.13268276
0.13369715
0.13479752
0.13598129
0.14480097
0.14412129
0.14344269
0.14276487
0.14208758
0.14141074
0.1407345
0.14005916
0.1393852
0.13871325
0.13804416
0.13737891
0.13671869
0.13606483
0.13541885
0.13478242
0.13415736
0.13354567
0.13294945
0.13237097
0.13181263
0.13127694
0.13076654
0.13028416
0.12983263
0.12941488
0.12903387
0.12869267
0.12839435
0.12814202
0.12793881
0.12778784
0.12769221
0.12765494
0.12767836
0.12776554
0.1279208
0.12814569
0.12844278
0.12880508
0.12924875
0.12977488
0.13038115
0.13106906
0.13184037
0.13268014
0.13360042
0.13461914
0.13572108
0.13690525
0.14608547
0.14536742
0.14465245
0.14394014
0.14323023
0.14252267
0.1418176
0.1411153
0.14041622
0.13972096
0.13903034
0.13834531
0.13766701
0.13699676
0.13633602
0.13568644
0.1350498
0.13442804
0.13382324
0.13323762
0.13267353
0.13213342
0.13161988
0.13113559
0.13068333
0.13026594
0.12988634
0.12954752
0.12925248
0.12900427
0.12880592
0.12866048
0.12857095
0.12854028
0.12857051
0.12866514
0.12882782
0.12906011
0.12936432
0.12973371
0.13018583
0.13071878
0.13133144
0.13202519
0.13280136
0.1336421
0.13456928
0.13559068
0.13669397
0.13787825
0.147412
0.1466562
0.14590529
0.14515873
0.14441634
0.14367818
0.14294436
0.14221518
0.14149104
0.14077253
0.14006042
0.13935565
0.13865932
0.13797273
0.13729731
0.13663466
0.13598653
0.13535483
0.13474158
0.13414898
0.1335793
0.13303498
0.13251852
0.13203257
0.13157983
0.13116308
0.13078519
0.13044906
0.13015763
0.12991385
0.1297207
0.12958111
0.12949801
0.12947427
0.12951161
0.12961403
0.12978446
0.13002439
0.13033568
0.13071253
0.13117318
0.13171306
0.13233207
0.13303139
0.13381198
0.13465549
0.13558896
0.13661243
0.13771672
0.13890076
0.14877729
0.14798578
0.14719967
0.14641923
0.14564461
0.14487609
0.14411379
0.14335795
0.14260897
0.1418674
0.14113399
0.14040964
0.13969545
0.13899268
0.13830273
0.13762718
0.13696775
0.1363263
0.13570482
0.13510545
0.13453044
0.13398215
0.13346305
0.13297571
0.13252279
0.132107
0.13173114
0.13139803
0.13111053
0.13087153
0.1306839
0.13055051
0.13047417
0.13045766
0.13050244
0.13061293
0.13079146
0.13103943
0.1313572
0.13174227
0.13221145
0.13275834
0.13338368
0.13408842
0.13487326
0.13572019
0.13665934
0.13768462
0.13878955
0.13997295
0.15016753
0.14934886
0.14853397
0.14771993
0.14691334
0.14611489
0.14532456
0.14454248
0.14376903
0.14300475
0.14225035
0.14150673
0.14077495
0.14005627
0.13935207
0.13866389
0.13799342
0.13734249
0.13671306
0.13610722
0.13552717
0.13497523
0.1344538
0.13396542
0.13351265
0.13309816
0.13272467
0.13239493
0.13211172
0.13187784
0.13169608
0.1315692
0.13149994
0.13149096
0.13154345
0.13166228
0.1318492
0.1321062
0.13242829
0.13282387
0.13330105
0.13385497
0.13448664
0.13519671
0.1359854
0.136836
0.13778028
0.13880713
0.13991236
0.14109468
0.15160802
0.15073964
0.14989579
0.14905876
0.14822025
0.14739268
0.14657499
0.14576729
0.14496992
0.14418343
0.1434085
0.14264603
0.14189708
0.14116288
0.14044479
0.13974435
0.1390632
0.13840316
0.13776614
0.13715419
0.13656947
0.13601423
0.13549086
0.13500179
0.13454955
0.13413673
0.13376599
0.13343998
0.13316142
0.13293302
0.13275747
0.13263744
0.13257555
0.13257436
0.13263485
0.13276218
0.13295745
0.13322266
0.13355178
0.13395716
0.13444197
0.13500297
0.1356411
0.13635661
0.13714758
0.13800248
0.13895139
0.13997953
0.14108466
0.14226544
0.15308042
0.15217972
0.1512936
0.15041433
0.14956171
0.14870719
0.14786307
0.14703053
0.14620998
0.14540194
0.1446071
0.14382635
0.14306075
0.14231153
0.14158005
0.14086781
0.14017645
0.13950774
0.13886357
0.13824594
0.13765697
0.13709887
0.13657396
0.13608462
0.13563332
0.13522258
0.13485497
0.13453308
0.13425955
0.13403698
0.13386797
0.13375511
0.13370091
0.13370763
0.13377657
0.1339125
0.13411617
0.13438956
0.13472649
0.1351414
0.13563377
0.13620188
0.13684676
0.13756963
0.13835647
0.13921931
0.14017196
0.14120104
0.14230561
0.14348431
0.15457173
0.15364648
0.15272629
0.15181774
0.15092147
0.15005397
0.14918647
0.14833002
0.14748719
0.14665842
0.14584443
0.1450461
0.14426451
0.1435009
0.14275661
0.14203315
0.14133213
0.14065529
0.14000448
0.13938168
0.13878896
0.13822848
0.13770249
0.13721334
0.13676342
0.13635518
0.13599112
0.13567375
0.13540561
0.13518923
0.13502711
0.13492172
0.13487547
0.13489032
0.13496804
0.13511266
0.13532487
0.13560634
0.1359514
0.13637564
0.13687549
0.13745045
0.13810137
0.13882901
0.13961719
0.14048641
0.14144093
0.14247043
0.1435739
0.14474991
0.1560769
0.15512946
0.15418721
0.15325011
0.15232698
0.15141806
0.1505398
0.14966309
0.1487991
0.14795062
0.14711836
0.14630327
0.14550647
0.14472921
0.14397283
0.14323882
0.14252879
0.14184444
0.1411876
0.1405602
0.13996427
0.13940194
0.1388754
0.13838693
0.13793886
0.13753357
0.13717348
0.13686104
0.13659867
0.13638883
0.13623391
0.13613628
0.13609825
0.13612144
0.13620814
0.13636165
0.13658257
0.13687158
0.13722528
0.13765857
0.13816576
0.13874727
0.13940372
0.14013555
0.14092647
0.141801
0.14275665
0.14378594
0.14488767
0.14606034
0.15761843
0.15662408
0.15566353
0.15470731
0.1537587
0.1528257
0.15190855
0.15102411
0.1501429
0.14927586
0.14842631
0.14759539
0.14678428
0.14599422
0.14522657
0.14448279
0.14376449
0.14307334
0.14241114
0.14177979
0.14118128
0.14061768
0.14009114
0.13960387
0.13915815
0.13875629
0.13840062
0.13809349
0.13783728
0.1376343
0.13748688
0.13739728
0.13736767
0.13739938
0.1374952
0.13765781
0.13788831
0.13818225
0.13854683
0.13898838
0.13950271
0.14009048
0.14075205
0.14148768
0.14228152
0.14316042
0.14411667
0.14514515
0.14624449
0.14741311
0.15917381
0.15815265
0.15714809
0.15617857
0.15521239
0.15425689
0.1533181
0.15239719
0.15151432
0.15063111
0.1497652
0.14891945
0.14809503
0.14729315
0.14651515
0.1457625
0.14503676
0.1443396
0.14367279
0.1430382
0.14243777
0.14187354
0.14134759
0.14086209
0.14041924
0.14002127
0.13967046
0.13936907
0.13911936
0.13892359
0.13878394
0.13870258
0.13868158
0.13872193
0.13882688
0.13899836
0.13923749
0.13953891
0.1399134
0.14036258
0.14088382
0.14147757
0.14214387
0.14288262
0.14367922
0.14456158
0.14551795
0.14654499
0.14764126
0.14880509
0.16073787
0.15969209
0.15866373
0.15765332
0.15667938
0.15570743
0.1547478
0.15380379
0.15289993
0.15201261
0.15113121
0.15027178
0.1494352
0.1486226
0.14783531
0.14707476
0.1463425
0.1456402
0.1449696
0.14433253
0.14373091
0.14316671
0.14264199
0.14215883
0.14171938
0.14132581
0.1409803
0.14068503
0.14044219
0.1402539
0.14012228
0.14004935
0.14003709
0.14008618
0.14020027
0.14038052
0.14062804
0.14093749
0.14132134
0.14177786
0.14230576
0.14290529
0.14357606
0.14431631
0.14511589
0.14600087
0.14695677
0.14798171
0.14907417
0.15023242
0.16339016
0.16230483
0.16123697
0.16018701
0.15915569
0.15814412
0.15717245
0.15619655
0.15523867
0.15430251
0.1534046
0.15251943
0.1516479
0.15080056
0.14997852
0.14918308
0.1484157
0.14767794
0.14697144
0.14629792
0.1456592
0.14505714
0.14449368
0.14397083
0.14349061
0.14305511
0.14266642
0.14232664
0.14203788
0.14180221
0.14162169
0.1414983
0.14143397
0.14143054
0.14148846
0.14161171
0.14180069
0.14205602
0.14237372
0.14276643
0.14322999
0.14376422
0.1443695
0.14504622
0.14578165
0.14658778
0.14747393
0.14842868
0.14945077
0.15053863
0.15169048
0.16497373
0.1638688
0.16278159
0.16171245
0.16066153
0.15962758
0.15863624
0.15765611
0.1566839
0.15573378
0.15480665
0.1539189
0.1530428
0.15218624
0.15135609
0.15055375
0.1497807
0.1490385
0.1483288
0.1476533
0.14701378
0.14641207
0.14585009
0.14532977
0.1448531
0.14442208
0.14403875
0.14370512
0.14342322
0.14319503
0.1430225
0.14290751
0.14285189
0.14285723
0.14292421
0.14305665
0.14325498
0.14351541
0.14384281
0.14424366
0.14471383
0.14525377
0.14586375
0.14654381
0.14727985
0.14808984
0.14897557
0.14992832
0.15094672
0.15202914
0.15317376
0.16654464
0.16542306
0.16431946
0.16323432
0.1621682
0.16112179
0.16009703
0.1591118
0.15813427
0.15717207
0.1562334
0.15531977
0.15444953
0.15358663
0.15274976
0.1519418
0.15116427
0.15041876
0.1497069
0.14903038
0.14839095
0.14779042
0.14723065
0.14671353
0.146241
0.145815
0.14543748
0.1451104
0.14483568
0.14461522
0.14445086
0.1443444
0.14429753
0.14431155
0.14438756
0.14452871
0.1447353
0.1450028
0.14533934
0.14574712
0.14622337
0.14676842
0.14738235
0.14806502
0.14880242
0.14961486
0.15049931
0.15144921
0.15246311
0.15353927
0.15467581
0.16809546
0.16696017
0.16584298
0.1647445
0.16366543
0.1626066
0.16156909
0.16055413
0.15958195
0.15861105
0.15766189
0.15673602
0.15585601
0.15499543
0.15415307
0.15334076
0.15255999
0.15181231
0.15109936
0.1504228
0.14978436
0.14918583
0.14862901
0.14811576
0.14764795
0.14722747
0.1468562
0.14653602
0.14626876
0.14605623
0.14590019
0.14580231
0.14576418
0.14578679
0.14587167
0.14602121
0.14623569
0.14651055
0.14685554
0.1472697
0.14775149
0.14830104
0.14891829
0.14960297
0.15034138
0.1511551
0.15203752
0.15298381
0.1539924
0.15506149
0.15618913
0.1696182
0.16847209
0.16734407
0.16623482
0.16514507
0.16407553
0.16302665
0.16199792
0.16101423
0.16004458
0.15908817
0.15815773
0.15725611
0.15640052
0.1555584
0.15474309
0.15396032
0.15321165
0.15249869
0.15182308
0.15118653
0.1505908
0.15003765
0.1495289
0.14906637
0.14865188
0.14828725
0.14797427
0.14771471
0.14751027
0.14736261
0.14727332
0.14724386
0.14727496
0.14736853
0.1475262
0.14774793
0.1480301
0.14838287
0.14880296
0.14928976
0.14984323
0.15046313
0.15114905
0.15188786
0.15270175
0.15358145
0.15452339
0.15552591
0.15658715
0.15770512
0.17110429
0.1699502
0.16881406
0.16769668
0.16659887
0.16552147
0.16446536
0.16343171
0.16242322
0.16145909
0.16050086
0.15956491
0.15865542
0.15779329
0.15695718
0.1561401
0.15535657
0.15460807
0.15389615
0.15322246
0.15258868
0.15199653
0.15144775
0.1509441
0.15048735
0.15007927
0.14972161
0.14941609
0.14916438
0.14896811
0.14882885
0.14874807
0.14872717
0.14876661
0.14886875
0.14903488
0.14926141
0.14955162