/*--------------------------------*- C++ -*----------------------------------*\
| =========                 |                                                 |
| \\      /  F ield         | OpenFOAM: The Open Source CFD Toolbox           |
|  \\    /   O peration     | Version:  2312                                  |
|   \\  /    A nd           | Website:  www.openfoam.com                      |
|    \\/     M anipulation  |                                                 |
\*---------------------------------------------------------------------------*/
FoamFile
{
    version     2.0;
    format      ascii;
    arch        "LSB;label=32;scalar=64";
    class       volScalarField;
    location    "0.04";
    object      omega;
}
// * * * * * * * * * * * * * * * * * * * * * * * * * * * * * * * * * * * * * //

dimensions      [0 0 -1 0 0 0 0];

internalField   nonuniform List<scalar> 
3250
(
592.4513
585.87122
579.37206
572.95401
566.61718
560.3616
554.18705
548.09317
542.0795
536.14548
530.29045
524.51365
518.81425
513.19135
507.64388
502.17073
496.7707
491.44251
486.18478
480.99609
475.87491
470.81968
465.82874
460.90039
456.03288
451.2244
446.4731
441.7771
437.13449
432.54333
428.00168
423.50759
419.0591
414.65428
410.29112
405.96773
401.68241
397.43342
393.21907
389.0377
384.88779
380.76796
376.67698
372.61372
368.57708
364.56597
360.58019
356.61921
352.68275
592.39073
585.81276
579.31561
572.8995
566.56456
560.31078
554.13796
548.04575
542.0337
536.10123
530.2477
524.47235
518.77435
513.15279
507.60663
502.13474
496.73592
491.40889
486.1523
480.9647
475.84458
470.79036
465.80041
460.87302
456.00643
451.19884
446.4484
441.75324
437.11144
432.52106
427.98017
423.48681
419.03903
414.63491
410.27241
405.94967
401.66498
397.41661
393.20285
389.02206
384.87271
380.75343
376.66297
372.60019
368.56403
364.55353
360.56826
356.60778
352.67178
592.26999
585.69623
579.20314
572.79096
566.45979
560.20964
554.04032
547.95148
541.94267
536.01334
530.16283
524.39039
518.6952
513.07635
507.5328
502.06343
496.66705
491.34238
486.08805
480.90264
475.78464
470.73247
465.74449
460.819
455.95425
451.14843
446.39971
441.7062
437.066
432.47717
427.93777
423.44585
418.99947
414.59669
410.2355
405.91402
401.63055
397.38335
393.17074
388.99105
384.84277
380.72453
376.63507
372.57325
368.53803
364.52852
360.54418
356.5846
352.64946
592.08918
585.52173
579.03477
572.62848
566.30298
560.0583
553.89423
547.81046
541.80653
535.8819
530.03593
524.26787
518.5769
512.96213
507.42251
501.95693
496.56421
491.24307
485.99216
480.81003
475.69521
470.6461
465.66107
460.73844
455.87644
451.07328
446.32713
441.6361
436.99828
432.41176
427.87458
423.38481
418.94051
414.53973
410.18047
405.86086
401.57919
397.33374
393.12281
388.94475
384.79804
380.68133
376.59334
372.53294
368.49911
364.49098
360.50799
356.5497
352.61581
591.84831
585.28938
578.81059
572.41217
566.09425
559.85685
553.6998
547.62278
541.62536
535.70701
529.86709
524.10488
518.41954
512.81021
507.27583
501.81532
496.42748
491.11105
485.86468
480.68695
475.57635
470.53133
465.55024
460.63141
455.77308
450.97347
446.23072
441.54299
436.90835
432.32489
427.79067
423.30375
418.8622
414.46408
410.10738
405.79024
401.51096
397.26781
393.0591
388.88319
384.73856
380.62385
376.53781
372.47929
368.44729
364.44096
360.4597
356.5031
352.57084
591.56484
585.01592
578.54678
572.15762
565.84862
559.6198
553.47102
547.40196
541.41222
535.50127
529.66849
523.91316
518.23447
512.63154
507.10334
501.64879
496.2667
490.95583
485.71481
480.54225
475.43664
470.39642
465.41998
460.50562
455.65161
450.85616
446.11744
441.43357
436.80267
432.22282
427.69207
423.20851
418.77019
414.37518
410.02148
405.70725
401.43076
397.19031
392.98421
388.81081
384.66861
380.55625
376.47248
372.41615
368.38628
364.38204
360.40281
356.44817
352.51781
591.24748
584.70978
578.25142
571.87264
565.57363
559.35443
553.21491
547.15478
541.17364
535.27098
529.4462
523.69858
518.02733
512.43158
506.91031
501.46244
496.0868
490.78214
485.54713
480.38035
475.28032
470.2455
465.27425
460.36491
455.51574
450.72495
445.99072
441.31119
436.68447
432.10865
427.58179
423.10198
418.66727
414.27575
409.92541
405.61441
401.34104
397.10361
392.90041
388.72982
384.59033
380.48058
376.39934
372.34547
368.31798
364.31605
360.33906
356.38659
352.45835
590.87142
584.34701
577.90143
571.53495
565.24779
559.03999
552.91146
546.8619
540.89096
534.99813
529.18283
523.44436
517.78193
512.19469
506.68163
501.24168
495.87369
490.5764
485.3485
480.18859
475.09518
470.06675
465.10166
460.19826
455.35482
450.56955
445.84065
441.16626
436.5445
431.97345
427.4512
422.97582
418.54539
414.15799
409.81162
405.50445
401.23478
397.0009
392.80115
388.63387
384.49758
380.39093
376.31268
372.2617
368.23701
364.2378
360.26346
356.31355
352.3878
590.43242
583.92353
577.49287
571.14075
564.86741
558.67294
552.55722
546.52003
540.561
534.67965
528.87542
523.14763
517.49551
511.91821
506.41474
500.98404
495.62497
490.33629
485.1167
479.9648
474.87913
469.85815
464.90026
460.00379
455.16704
450.38822
445.66554
440.99715
436.38116
431.81568
427.2988
422.8286
418.40317
414.02057
409.67883
405.37613
401.11076
396.88104
392.68528
388.52187
384.38931
380.28626
376.21148
372.16387
368.14245
364.1464
360.17513
356.2282
352.30534
589.92603
583.43503
577.02157
570.68602
564.42864
558.24953
552.14862
546.12568
540.18039
534.3123
528.52084
522.80538
517.16515
511.59932
506.10691
500.68689
495.33811
490.05937
484.84936
479.70671
474.62996
469.61758
464.66798
459.77952
454.95048
450.17911
445.4636
440.80212
436.1928
431.63375
427.12306
422.65882
418.23914
413.86209
409.52568
405.22812
400.96772
396.74277
392.55163
388.39266
384.26439
380.16549
376.09472
372.05098
368.03331
364.0409
360.07315
356.12965
352.2101
589.34755
582.87699
576.48318
570.16656
563.92741
557.76585
551.68184
545.6752
539.74562
533.89266
528.11581
522.41442
516.78779
511.23506
505.75529
500.34746
495.01045
489.74306
484.54401
479.41192
474.34535
469.3428
464.40269
459.52336
454.70314
449.94026
445.23295
440.57936
435.97765
431.42593
426.92231
422.46489
418.05178
413.68105
409.35073
405.05904
400.8043
396.58481
392.39892
388.24503
384.12165
380.02747
375.96127
371.92195
367.90855
363.92029
359.95656
356.01695
352.10118
588.69204
582.24464
575.87311
569.57793
563.35943
557.21777
551.15293
545.16475
539.25296
533.41717
527.65685
521.97143
516.36019
510.82231
505.35687
499.96286
494.63919
489.38466
484.19802
479.0779
474.02288
469.03146
464.10209
459.23312
454.42288
449.66964
444.9716
440.32696
435.73387
431.19046
426.69484
422.24514
417.83946
413.47589
409.15247
404.86742
400.61908
396.40577
392.22583
388.07768
383.95984
379.87101
375.80998
371.77565
367.76708
363.7835
359.82431
355.8891
351.97761
587.95436
581.53301
575.18653
568.91549
562.72024
556.60097
550.55769
544.59029
538.69854
532.88205
527.14036
521.4729
515.87899
510.35782
504.90851
499.53005
494.22138
488.98133
483.80865
478.702
473.65998
468.68109
463.7638
458.90649
454.10748
449.36507
444.67747
440.0429
435.4595
430.92544
426.43883
421.9978
417.60048
413.24496
408.9293
404.65172
400.41059
396.20421
392.03097
387.88926
383.77765
379.69482
375.63959
371.61088
367.60774
363.62941
359.67531
355.74505
351.83835
587.12907
580.73686
574.41843
568.17439
562.00514
555.91091
549.89175
543.9476
538.07826
532.28338
526.56252
520.91516
515.34063
509.83816
504.40688
499.04583
493.75395
488.53009
483.37303
478.28145
473.25396
468.28909
463.38532
458.54104
453.7546
449.0243
444.34838
439.72506
435.15251
430.6289
426.15235
421.72103
417.33306
412.98654
408.67954
404.41032
400.17724
395.97862
391.81285
387.67835
383.57369
379.49758
375.44883
371.42638
367.4293
363.45684
359.50844
355.58369
351.68234
586.21052
579.85073
573.56351
567.34952
561.20921
555.14285
549.15054
543.23227
537.38787
531.61703
525.91937
520.29437
514.74141
509.25975
503.84855
498.50686
493.23366
488.02782
482.88814
477.81333
472.80201
467.85275
462.96401
458.13424
453.36178
448.64496
443.98204
439.37123
434.81075
430.29876
425.83342
421.41288
417.03532
412.6988
408.40144
404.14151
399.91738
395.72739
391.56992
387.44344
383.34651
379.27786
375.23632
371.22083
367.23049
363.26455
359.32246
355.40384
351.50845
585.1928
578.86893
572.61628
566.43559
560.32733
554.29184
548.32928
542.43967
536.6229
530.8787
525.20673
519.60651
514.07745
508.61884
503.22987
497.90964
492.65713
487.47126
482.35084
477.2946
472.3012
467.36921
462.49714
457.68343
452.92646
448.22457
443.57603
438.97909
434.43197
429.93285
425.47991
421.07133
416.70527
412.37984
408.09315
403.84351
399.62928
395.44884
391.30057
387.18295
383.09458
379.03418
375.00062
370.99283
367.00994
363.05122
359.11612
355.20428
351.31547
584.06975
577.78551
571.57101
565.42704
559.35415
553.35272
547.42297
541.56499
535.77871
530.0639
524.42027
518.84739
513.34469
507.91152
502.54708
497.25051
492.02084
486.85699
481.75782
476.72207
471.74844
466.83551
461.98181
457.18582
452.44594
447.76051
443.12785
438.54621
434.01382
429.5289
425.08964
420.69423
416.34087
412.02766
407.75273
403.51443
399.31113
395.14121
391.00308
386.89524
382.81629
378.765
374.74022
370.74093
366.76625
362.81547
358.88808
354.98371
351.10214
582.83499
576.59428
570.42171
564.31811
558.2841
552.32011
546.42643
540.60321
534.85045
529.16795
523.55547
518.01264
512.53893
507.13371
501.79624
496.52569
491.32111
486.18147
481.10565
476.09243
471.14052
466.24854
461.41505
456.63853
451.91742
447.25009
442.63487
438.07004
433.55384
429.08453
424.66029
420.27936
415.93995
411.64016
407.37817
403.15232
398.96103
394.80266
390.67567
386.57856
382.50997
378.46868
374.45355
370.46358
366.49792
362.55587
358.63693
354.74077
350.86716
581.48184
575.28882
569.16219
563.10282
557.11139
551.18842
545.33427
539.54913
533.83308
528.18598
522.60764
517.09773
511.65577
506.28117
500.97325
495.7312
490.55412
485.441
480.39076
475.40222
470.4741
465.60507
460.7937
456.03852
451.33798
446.69048
442.09436
437.54793
433.04948
428.59725
424.18947
419.8244
415.50025
411.21517
406.96733
402.75513
398.57698
394.43127
390.31647
386.23111
382.17386
378.14351
374.13894
370.15918
366.20338
362.27089
358.36121
354.47402
350.60913
586.20737
580.00332
573.86247
567.78603
561.77496
555.83005
549.95188
544.14088
538.39734
532.72139
527.11296
521.5719
516.09793
510.69065
505.34951
500.07386
494.86293
489.71588
484.63173
479.60943
474.64783
469.74571
464.90174
460.11454
455.38266
450.70458
446.07872
441.50346
436.97714
432.49805
428.06448
423.67468
419.32692
415.01944
410.7504
406.51803
402.32072
398.15691
394.02502
389.92352
385.85099
381.80611
377.7877
373.79467
369.82604
365.88102
361.95895
358.05937
354.18198
350.3266
584.53727
578.39239
572.30837
566.28659
560.32813
554.43387
548.60449
542.8405
537.14226
531.50998
525.94365
520.44319
515.00839
509.63887
504.33416
499.09365
493.91663
488.80228
483.74968
478.75781
473.82556
468.95174
464.13506
459.37418
454.66767
450.01405
445.41177
440.85922
436.35479
431.89679
427.48354
423.1133
418.78439
414.49506
410.24349
406.02795
401.84685
397.69866
393.58181
389.49479
385.43622
381.40482
377.39941
373.41892
369.46241
365.52911
361.61839
357.72981
353.86309
350.01806
582.72248
576.64176
570.61945
564.65704
558.75572
552.91647
547.14008
541.42715
535.77812
530.19326
524.67267
519.21632
513.82405
508.49556
503.23042
498.02808
492.88789
487.80906
482.79072
477.8319
472.93153
468.08845
463.30143
458.56913
453.89018
449.26312
444.68644
440.15857
435.67791
431.24282
426.85162
422.50264
418.19419
413.92457
409.69198
405.49471
401.33121
397.19998
393.09945
389.02815
384.98475
380.96797
376.97667
373.0098
369.06646
365.14589
361.24749
357.37085
353.51572
349.68193
580.75519
574.74392
568.78845
562.89035
557.05093
551.27129
545.55231
539.8947
534.29898
528.76551
523.29447
517.8859
512.53972
507.25568
502.03342
496.87245
491.77215
486.73181
481.7506
476.8276
471.96177
467.152
462.3971
457.69578
453.04669
448.44841
443.89947
439.39833
434.94343
430.53315
426.16586
421.83989
417.55361
413.30533
409.0933
404.91582
400.77139
396.65852
392.57569
388.52142
384.49444
380.4935
376.51748
372.56537
368.63628
364.72948
360.84443
356.98073
353.13815
349.31656
584.61439
578.62733
572.69118
566.80796
560.97935
555.20683
549.4916
543.83467
538.23685
532.69876
527.22084
521.80335
516.44644
511.15007
505.91409
500.73818
495.62192
490.56475
485.56602
480.62495
475.74066
470.91217
466.13842
461.41824
456.7504
452.13359
447.56642
443.04746
438.57522
434.14816
429.7647
425.42324
421.12216
416.85984
412.63463
408.44481
404.28872
400.1649
396.07187
392.00815
387.97231
383.96307
379.97925
376.01974
372.08357
368.16988
364.27798
360.40734
356.55763
352.72864
348.92023
582.23366
576.3309
570.47573
564.67039
558.91672
553.21632
547.57055
541.98053
536.44718
530.97123
525.55321
520.1935
514.89229
509.64965
504.46549
499.33958
494.27154
489.2609
484.30705
479.40928
474.56674
469.77853
465.04362
460.36089
455.72916
451.14716
446.61356
442.12694
437.68587
433.28883
428.9343
424.6207
420.34646
416.10997
411.90965
407.74378
403.61077
399.50916
395.43753
391.39442
387.37844
383.38835
379.42298
375.48128
371.56229
367.66521
363.78937
359.93429
356.09965
352.28531
348.49121
579.66989
573.85772
568.08966
562.36808
556.69501
551.07221
545.50116
539.98313
534.51916
529.11007
523.75652
518.45896
513.21771
508.03289
502.90451
497.8324
492.81627
487.8557
482.95016
478.09898
473.30139
468.55653
463.86342
459.22101
454.62815
450.08363
445.58614
441.13433
436.7268
432.36208
428.03868
423.75507
419.50971
415.30104
411.12748
406.98739
402.87921
398.80152
394.75291
390.73199
386.73739
382.7679
378.82239
374.89985
370.99936
367.12015
363.26159
359.42324
355.60482
351.80625
576.91456
571.19957
565.52497
559.89328
554.30673
548.76721
543.27639
537.83565
532.44615
527.10886
521.82453
516.59373
511.41685
506.29414
501.22566
496.21134
491.25096
486.34417
481.49051
476.68938
471.94007
467.24177
462.59357
457.99447
453.44336
448.93908
444.48039
440.06598
435.69448
431.36447
427.07451
422.82311
418.60877
414.42997
410.28517
406.17277
402.09125
398.03924
394.01537
390.01828
386.04663
382.09927
378.17509
374.27313
370.39251
366.5325
362.69251
358.87212
355.0711
351.2893
573.95917
568.34822
562.77367
557.23824
551.74433
546.29404
540.88914
535.5312
530.22151
524.96114
519.75099
514.59172
509.48384
504.42768
499.4234
494.47102
489.5704
484.72127
479.92322
475.17574
470.47818
465.8298
461.22974
456.67706
452.17071
447.70958
443.29249
438.91816
434.58528
430.29249
426.03838
421.82151
417.64042
413.49364
409.37967
405.29695
401.24402
397.21954
393.22218
389.25063
385.3036
381.37996
377.47865
373.59876
369.73944
365.90001
362.07992
358.2788
354.49643
350.73266
570.7953
565.29547
559.82781
554.39523
549.00033
543.64538
538.33235
533.06292
527.83855
522.66044
517.5296
512.44684
507.41275
502.42778
497.49218
492.60605
487.76935
482.9819
478.24335
473.55327
468.91108
464.31611
459.76755
455.26454
450.80608
446.39112
442.01853
437.68709
433.39554
429.14256
424.92681
420.74689
416.60139
412.48887
408.40787
404.35691
400.33457
396.33956
392.37057
388.42635
384.50566
380.60739
376.73057
372.87429
369.03777
365.22037
361.42159
357.64109
353.87869
350.13426
567.41469
562.03328
556.67953
551.35661
546.06729
540.81404
535.59899
530.42399
525.29064
520.20031
515.15413
510.15301
505.19769
500.2887
495.42641
490.61102
485.84258
481.12096
476.44595
471.81716
467.2341
462.69615
458.2026
453.75263
449.34532
444.97966
440.65459
436.36895
432.12154
427.91109
423.7363
419.59585
415.48836
411.41243
407.36664
403.34959
399.35993
395.39638
391.45771
387.54268
383.65012
379.77897
375.92829
372.09724
368.28509
364.49123
360.71521
356.95675
353.21571
349.49199
563.80931
558.55382
553.32123
548.11495
542.93797
537.79294
532.68217
527.6077
522.57128
517.57441
512.61838
507.70423
502.83281
498.00477
493.22059
488.48057
483.78485
479.13341
474.52609
469.96262
465.44258
460.96541
456.53049
452.13705
447.78425
443.47116
439.19674
434.95993
430.75957
426.59445
422.46333
418.36494
414.29797
410.26105
406.25279
402.2719
398.31708
394.38709
390.48073
386.59683
382.73426
378.89202
375.06923
371.26509
367.47893
363.71018
359.95845
356.2235
352.50526
348.80366
559.9715
554.84957
549.74553
544.66306
539.60534
534.57522
529.57522
524.60753
519.67409
514.77655
509.91632
505.09461
500.31238
495.57042
490.86929
486.20941
481.59103
477.01422
472.47891
467.98492
463.5319
459.1194
454.74684
450.41355
446.11875
441.86157
437.64106
433.45619
429.30589
425.189
421.10435
417.05073
413.02688
409.03147
405.06313
401.12073
397.20299
393.30871
389.43674
385.58597
381.75533
377.94387
374.15077
370.37529
366.61679
362.87479
359.14893
355.43905
351.74509
348.06707
555.89405
550.91346
545.94551
540.99413
536.06273
531.15436
526.27173
521.41724
516.59297
511.80074
507.04214
502.31848
497.63088
492.98022
488.36723
483.7924
479.2561
474.75851
470.29965
465.87941
461.49756
457.15371
452.84737
448.57795
444.34473
440.14693
435.98366
431.85396
427.75682
423.69116
419.65586
415.64978
411.67172
407.72041
403.79449
399.89298
396.01463
392.15829
388.32286
384.50729
380.71057
376.93183
373.17028
369.42526
365.69618
361.98261
358.28427
354.60104
350.93293
347.28001
551.5704
546.73898
541.91474
537.10183
532.30391
527.52423
522.76571
518.03092
513.32214
508.64135
503.99028
499.37041
494.78298
490.22902
485.70934
481.2246
476.77525
472.36156
467.98369
463.6416
459.33515
455.06405
450.82788
446.62614
442.4582
438.32333
434.22073
430.14952
426.10874
422.09738
418.1144
414.15871
410.22918
406.32462
402.44375
398.58559
394.749
390.93288
387.13621
383.35798
379.59725
375.85321
372.12515
368.41244
364.71459
361.03121
357.36209
353.70716
350.06651
346.44024
546.99474
542.32036
537.64747
532.98047
528.32324
523.67926
519.05164
514.44316
509.85626
505.29312
500.7556
496.24534
491.76373
487.31192
482.89087
478.50133
474.14388
469.8189
465.52665
461.26719
457.04048
452.84631
448.68437
444.55422
440.45532
436.38702
432.34861
428.33927
424.35812
420.40422
416.4766
412.57423
408.69606
404.84097
401.00779
397.19553
393.40313
389.6296
385.87395
382.13525
378.41264
374.70535
371.01276
367.3343
363.66953
360.01815
356.38
352.75508
349.14354
345.54555
542.1622
537.65268
533.13877
528.62509
524.11578
519.61452
515.12464
510.6491
506.19054
501.7513
497.33341
492.93866
488.56858
484.22446
479.9074
475.61826
471.35774
467.12635
462.92442
458.75216
454.60959
450.49662
446.41302
442.35844
438.33242
434.33442
430.36378
426.41976
422.50158
418.60836
414.7392
410.89315
407.06923
403.26641
399.4836
395.71983
391.97414
388.2456
384.53331
380.8364
377.15408
373.48567
369.83058
366.18834
362.55858
358.94104
355.33567
351.74252
348.16181
344.59377
537.06906
532.7321
528.38468
524.03169
519.67747
515.32593
510.9806
506.64464
502.32087
498.0118
493.71963
489.44631
485.19351
480.96267
476.755
472.57151
468.413
464.28011
460.17328
456.09282
452.03886
448.0114
444.01032
440.03534
436.08612
432.16217
428.26294
424.38777
420.53594
416.70668
412.89915
409.11247
405.34575
401.59803
397.86832
394.15568
390.45926
386.77819
383.11164
379.45881
375.81902
372.19163
368.57615
364.97215
361.37935
357.79758
354.22684
350.66727
347.11915
343.58278
531.71294
527.55604
523.38248
519.19738
515.0053
510.81037
506.61632
502.42651
498.24393
494.07128
489.91091
485.76493
481.63515
477.52316
473.4303
469.35771
465.30632
461.27688
457.26995
453.28593
449.32507
445.38748
441.47311
437.58182
433.71332
429.86723
426.04308
422.24031
418.45827
414.69628
410.95358
407.22938
403.52284
399.8331
396.15925
392.50044
388.85589
385.22481
381.60639
378.00001
374.40501
370.82085
367.2471
363.68341
360.12959
356.58553
353.05133
349.52719
346.01348
342.51055
526.09308
522.12343
518.13082
514.12058
510.0975
506.06591
502.02973
497.99251
493.95743
489.92733
485.90476
481.89196
477.89091
473.90331
469.93065
465.97419
462.035
458.11393
454.21168
450.32874
446.46548
442.62211
438.79869
434.99515
431.21133
427.44693
423.70156
419.97476
416.26597
412.57458
408.89994
405.24133
401.59799
397.96913
394.35394
390.75168
387.16163
383.58309
380.01524
376.45769
372.9098
369.37111
365.84125
362.31998
358.80718
355.30284
351.80711
348.3203
344.84284
341.37517
520.21055
516.43492
512.62997
508.80125
504.95374
501.09196
497.22002
493.34164
489.46018
485.57864
481.69974
477.82585
473.9591
470.10134
466.25418
462.41903
458.59706
454.78925
450.99641
447.21916
443.45797
439.71315
435.98487
432.27316
428.57795
424.89904
421.23615
417.58889
413.9568
410.33937
406.73602
403.14613
399.569
396.00392
392.45022
388.90725
385.37437
381.85093
378.33608
374.82979
371.33135
367.84038
364.35661
360.8799
357.4102
353.9476
350.49233
347.04478
343.60546
340.17489
514.0684
510.49313
506.88212
503.24114
499.57538
495.88955
492.18791
488.47434
484.75237
481.02516
477.29558
473.56615
469.83913
466.11651
462.40004
458.69124
454.9914
451.30164
447.62287
443.95583
440.30111
436.65911
433.03011
429.41425
425.81155
422.22192
418.64516
415.08098
411.52902
407.98886
404.46003
400.94198
397.43409
393.93566
390.44628
386.96533
383.49223
380.0264
376.56725
373.11458
369.6679
366.22691
362.79146
359.36146
355.93696
352.51815
349.10534
345.69901
342.29976
338.90817
507.67221
504.30286
500.89151
497.44403
493.96573
490.46152
486.93582
483.39267
479.83572
476.26832
472.69344
469.11377
465.53168
461.9493
458.36849
454.7909
451.21795
447.65088
444.0907
440.53829
436.99431
433.4593
429.93364
426.41756
422.9112
419.41455
415.92751
412.44991
408.98147
405.52186
402.07071
398.62757
395.19189
391.76301
388.34077
384.92457
381.51388
378.10823
374.70722
371.31059
367.91801
364.5293
361.14438
357.76326
354.38609
351.01314
347.64481
344.28168
340.92444
337.57375
501.03041
497.87165
494.6648
491.4159
488.13024
484.81279
481.46817
478.10056
474.71376
471.31123
467.89609
464.47113
461.03886
457.60152
454.1611
450.71936
447.27784
443.83789
440.40065
436.96708
433.53798
430.11398
426.69557
423.28309
419.87677
416.4767
413.0829
409.69527
406.31364
402.93778
399.5674
396.20216
392.84161
389.48526
386.13291
382.7841
379.43843
376.09548
372.75503
369.41684
366.08071
362.74655
359.41438
356.08431
352.75658
349.43156
346.10976
342.79183
339.47855
336.17068
494.15414
491.20991
488.21161
485.16539
482.07675
478.95061
475.7916
472.60409
469.39201
466.15893
462.90809
459.64239
456.36445
453.07661
449.78096
446.47939
443.17356
439.8649
436.55468
433.24397
429.93366
426.6245
423.31708
420.01183
416.7091
413.40908
410.11187
406.81749
403.52586
400.23684
396.95025
393.66582
390.38326
387.10221
383.82245
380.54366
377.26555
373.98776
370.71027
367.4329
364.15553
360.87818
357.60096
354.32409
351.04791
347.77289
344.49963
341.22889
337.96155
334.69844
487.05788
484.33106
481.54444
478.70421
475.81594
472.88474
469.9152
466.91168
463.87827
460.81865
457.73613
454.63372
451.51413
448.37978
445.2329
442.07544
438.90917
435.73565
432.55622
429.37208
426.18421
422.99346
419.80053
416.60595
413.41015
410.21343
407.01601
403.81799
400.61939
397.42017
394.22025
391.01946
387.81762
384.6145
381.40992
378.2037
374.99563
371.78538
368.57322
365.35898
362.14262
358.92428
355.70417
352.48263
349.26008
346.03711
342.81442
339.59286
336.37341
333.15699
479.75992
477.25198
474.67904
472.04708
469.36163
466.62793
463.85078
461.03442
458.1829
455.30003
452.3892
449.4535
446.4957
443.51832
440.52367
437.51379
434.49055
431.45558
428.41036
425.35614
422.29402
419.22494
416.1497
413.06892
409.98315
406.89277
403.7981
400.69933
397.5966
394.48997
391.37943
388.26493
385.14641
382.02371
378.89677
375.7655
372.62981
369.48959
366.34502
363.19609
360.04291
356.88572
353.72483
350.56068
347.39381
344.22489
341.05475
337.88432
334.7147
331.54689
472.28265
469.99347
467.63477
465.21214
462.7308
460.19624
457.61329
454.98629
452.31909
449.61546
446.87891
444.11259
441.31935
438.50178
435.66224
432.80286
429.92558
427.03212
424.12403
421.20266
418.2692
415.32468
412.36997
409.40582
406.43285
403.45154
400.4623
397.46543
394.46117
391.44967
388.43102
385.40527
382.37244
379.33252
376.28554
373.2315
370.17045
367.10242
364.02759
360.9461
357.85819
354.7642
351.66456
348.5598
345.45058
342.33768
339.22202
336.10464
332.98674
329.86942
464.6525
462.58053
460.435
458.22126
455.94398
453.60904
451.22117
448.78458
446.30307
443.7803
441.21972
438.62464
435.99795
433.34229
430.66007
427.95347
425.22447
422.47489
419.70633
416.92023
414.11786
411.30032
408.46859
405.62348
402.7657
399.89584
397.01439
394.12176
391.21827
388.30417
385.37966
382.44486
379.4999
376.5449
373.58
370.60531
367.62098
364.62714
361.62406
358.612
355.59132
352.56248
349.52601
346.48256
343.43288
340.37786
337.31854
334.25606
331.19171
328.1267
458.67448
456.89966
455.04197
453.10724
451.10035
449.02568
446.88971
444.69658
442.45021
440.15454
437.8131
435.42928
433.00635
430.54733
428.05487
425.53138
422.97909
420.40001
417.79602
415.16877
412.51977
409.85036
407.16172
404.45489
401.73076
398.99014
396.2337
393.46201
390.67557
387.8748
385.06006
382.23161
379.38969
376.53451
373.66635
370.78542
367.89195
364.98618
362.06837
359.13886
356.19806
353.24643
350.28454
347.31303
344.33266
341.34429
338.34892
335.3477
332.34188
329.33284
326.32189
450.62209
449.05927
447.41098
445.68273
443.87929
442.00528
440.06608
438.06567
436.00796
433.8969
431.73606
429.52864
427.27782
424.98662
422.65771
420.2935
417.89622
415.4679
413.01045
410.52559
408.01485
405.47964
402.9212
400.34063
397.7389
395.11689
392.47534
389.81492
387.1362
384.4397
381.72585
378.99504
376.24759
373.48383
370.70412
367.90876
365.09811
362.2725
359.43232
356.57799
353.71006
350.8291
347.93577
345.03084
342.11518
339.18975
336.25567
333.31419
330.36665
327.41456
324.4593
442.52986
441.17151
439.72603
438.19851
436.59356
434.91561
433.16923
431.35821
429.48641
427.55764
425.57537
423.54282
421.46294
419.33865
417.17262
414.96725
412.72472
410.44711
408.13633
405.7941
403.42203
401.02154
398.59392
396.14033
393.6618
391.15926
388.63354
386.08537
383.51541
380.92425
378.31241
375.68039
373.02861
370.3575
367.66748
364.95896
362.23241
359.48827
356.72704
353.94925
351.15556
348.34665
345.52329
342.68636
339.83682
336.97578
334.10445
331.22416
328.3364
325.44274
322.54467
434.44457
433.28131
432.03022
430.69592
429.28265
427.79443
426.23521
424.6088
422.91874
421.16859
419.36168
417.50111
415.58975
413.63031
411.62534
409.57725
407.48821
405.36027
403.19532
400.99513
398.76127
396.49521
394.19827
391.87163
389.5164
387.13354
384.72395
382.28843
379.8277
377.34243
374.83323
372.30066
369.74529
367.16758
364.56808
361.94727
359.30575
356.64405
353.96276
351.26256
348.54418
345.80842
343.05617
340.28839
337.50618
334.71074
331.90338
329.08556
326.25885
323.42491
320.58534
426.41769
425.43835
424.37142
423.22099
421.99078
420.68438
419.30532
417.85715
416.34317
414.76654
413.13028
411.43742
409.69077
407.89278
406.04589
404.15238
402.21444
400.23408
398.21315
396.15338
394.05637
391.92356
389.7563
387.5558
385.32319
383.05948
380.76561
378.44245
376.09078
373.71134
371.30481
368.87183
366.41304
363.92901
361.42037
358.88771
356.33171
353.753
351.15228
348.53033
345.88797
343.22613
340.54579
337.84802
335.13404
332.40513
329.66272
326.90836
324.14372
321.37056
318.59057
418.50554
417.69724
416.80255
415.82493
414.76757
413.6336
412.4261
411.1482
409.80298
408.39314
406.92143
405.39062
403.80343
402.16218
400.46909
398.72627
396.93588
395.09986
393.22002
391.29803
389.33547
387.33376
385.29425
383.21816
381.10663
378.96071
376.78139
374.56955
372.32606
370.0517
367.7472
365.41329
363.05067
360.66002
358.24204
355.79744
353.32695
350.83132
348.31132
345.76783
343.20181
340.61424
338.00623
335.37897
332.73375
330.07195
327.39513
324.70491
322.00306
319.29143
316.57179
410.7692
410.11759
409.3817
408.56433
407.66809
406.69558
405.64944
404.53233
403.34695
402.09567
400.78089
399.40505
397.97069
396.48007
394.93513
393.33787
391.69024
389.99412
388.25126
386.46327
384.63166
382.75784
380.84312
378.88873
376.89581
374.86542
372.79856
370.69618
368.55917
366.38836
364.18454
361.94846
359.68091
357.38268
355.05456
352.69731
350.31174
347.89869
345.45902
342.99373
340.50383
337.99042
335.45471
332.898
330.32163
327.72713
325.11612
322.49032
319.85159
317.20186
314.54299
403.27453
402.76406
402.17224
401.50121
400.75296
399.92955
399.03311
398.06583
397.02989
395.92743
394.76041
393.53105
392.24156
390.89406
389.49031
388.03209
386.5211
384.95917
383.34794
381.68895
379.98363
378.23335
376.43937
374.6029
372.72506
370.80693
368.84952
366.85378
364.82065
362.75098
360.64562
358.50536
356.33103
354.12354
351.88373
349.61243
347.31051
344.97889
342.61855
340.23055
337.81598
335.37607
332.91207
330.42539
327.91747
325.38993
322.84446
320.28288
317.70713
315.11921
312.52105
396.09234
395.70654
395.24305
394.70333
394.08874
393.4008
392.6411
391.81134
390.91319
389.94837
388.91855
387.82573
386.67178
385.45851
384.18757
382.86044
381.47869
380.04392
378.55767
377.02139
375.43645
373.80414
372.12566
370.40217
368.63479
366.82456
364.97249
363.07956
361.14668
359.17478
357.16472
355.11736
353.03359
350.91434
348.76044
346.57284
344.3525
342.10043
339.81766
337.50534
335.16464
332.79684
330.40332
327.98553
325.54502
323.08349
320.6027
318.10455
315.59105
313.06428
310.52624
389.29858
389.02048
388.66889
388.24463
387.74846
387.18131
386.54427
385.83853
385.06526
384.22568
383.32123
382.35367
381.32456
380.23534
379.08742
377.88208
376.62074
375.30469
373.93543
372.51427
371.04249
369.52127
367.95178
366.33511
364.67233
362.96446
361.21248
359.41737
357.58005
355.70146
353.7825
351.8241
349.82714
347.79258
345.72126
343.61423
341.47253
339.29724
337.08945
334.85036
332.58122
330.28339
327.9583
325.6075
323.23262
320.8354
318.4177
315.98148
313.5288
311.06183
308.5826
382.97486
382.78736
382.53097
382.20586
381.8122
381.35039
380.82099
380.22468
379.56225
378.83457
378.04279
377.18814
376.27183
375.29497
374.25884
373.16457
372.01338
370.80628
369.54462
368.22961
366.86239
365.44407
363.97571
362.45835
360.893
359.28064
357.62223
355.91872
354.17104
352.38011
350.54688
348.67227
346.75722
344.80266
342.80954
340.77893
338.71191
336.60959
334.47316
332.30386
330.10301
327.87204
325.61243
323.32581
321.01384
318.67837
316.32128