/*--------------------------------*- C++ -*----------------------------------*\
| =========                 |                                                 |
| \\      /  F ield         | OpenFOAM: The Open Source CFD Toolbox           |
|  \\    /   O peration     | Version:  2312                                  |
|   \\  /    A nd           | Website:  www.openfoam.com                      |
|    \\/     M anipulation  |                                                 |
\*---------------------------------------------------------------------------*/
FoamFile
{
    version     2.0;
    format      ascii;
    arch        "LSB;label=32;scalar=64";
    class       volScalarField;
    location    "0.04";
    object      Qdot;
}
// * * * * * * * * * * * * * * * * * * * * * * * * * * * * * * * * * * * * * //

dimensions      [1 -1 -3 0 0 0 0];

internalField   nonuniform List<scalar> 
3250
(
6436152.3
6262381.4
6102403.4
5962151.7
5840883.9
5737201.5
5649866.4
5577786
5519997.7
5475653.7
5444005
5424382
5416566.3
5419337.6
5432671.7
5456083.2
5489197.1
5531671.2
5583186.1
5643438.8
5712135.1
5788983.3
5873686.6
5965936.3
6065404.5
6171736.2
6284541.1
6403385.6
6527783.5
6657187.3
6790979.4
6928465.3
7068867.6
7211640.4
7350885.9
7493748.7
7635863.2
7775349.5
7910671.9
8036720.8
8157199.8
8269459.7
8370027.9
8456622.1
8526731.9
8578315.2
8608305.7
8615945.4
8598401.4
6428465
6255151.1
6095558.6
5955742.4
5834865.8
5731532.5
5644508.8
5572706.3
5515166
5471043.8
5439593.7
5420150.2
5412485.6
5415396.8
5428855.4
5452376.7
5485586.7
5528144.4
5579731.5
5640045.7
5708793.8
5785684.3
5870421.2
5962696.3
6062182
6168523.6
6281331.5
6400172.1
6524559.6
6653946.6
6787715.8
6925172.3
7065538.6
7208270.9
7347470.9
7490286.1
7632349.6
7771780.4
7907046.3
8033036.6
8153458.1
8265657
8366153.2
8452660.3
8522746.7
8574241.2
8604162.7
8611682.7
8594066.4
6413467.8
6240948.2
6082129.3
5943185.3
5823089.8
5720454.4
5634054
5562808.4
5505766.3
5462090
5431040.1
5411958.4
5404601.1
5407797.5
5421509.1
5445253.8
5478660.2
5521389.7
5573125.8
5633567.7
5702423.4
5779402.8
5864210.8
5956539.9
6056063.5
6162427.5
6275242.8
6394076.4
6518442.9
6647795.1
6781515.3
6918907.8
7059194.1
7201833.2
7340931.6
7483639.7
7625582.3
7764881.8
7900009.1
8025855.1
8146131.9
8258167.8
8358484.2
8444806.2
8514752.1
8566072.6
8595822.5
8603109.4
8585283.6
6391342.6
6219760.5
6062142.8
5924506.5
5805578.3
5703985.6
5618516.7
5548103.9
5491807
5448798.2
5418347.6
5399808
5392912.2
5396537.4
5410628.4
5434708.3
5468409.9
5511397.8
5563358.1
5623992.3
5693010.3
5770123.7
5855038.6
5947449.2
6047029.6
6153426.8
6266252.5
6385074.6
6509408
6638705.6
6772349.3
6909641.7
7049802.3
7192292.7
7331232
7473771.8
7615522.2
7754612.6
7889516.7
8015131.5
8135175
8246946.6
8346980.3
8433017.3
8502707.7
8553756.7
8583237.5
8590207.6
8572075.4
6362514.9
6191567.6
6035666.9
5899767
5782386.1
5682175.3
5597941.3
5528633
5473324.7
5431201.5
5401546.5
5383728
5377445.6
5381641.3
5396236
5420761.4
5454855.8
5498187.5
5550446.3
5611336.5
5680570.5
5757862.1
5842919.5
5935438.2
6035093.9
6141534.9
6254373.8
6373179.4
6497467.4
6626690.9
6760230.8
6897387.3
7037376.5
7179661.6
7318384.2
7460694.6
7602182.2
7740986.5
7875583.5
8000880.3
8120602.4
8232010.5
8331662.2
8417313.9
8486636.8
8537312.9
8566429.4
8573004.9
8554489.3
6328012.3
6158389.3
6004683.1
5870806.6
5755234.8
5656639.9
5573850.5
5505834.5
5451683.3
5410596.8
5381872.9
5364902.3
5359338.1
5364203
5379387.6
5404435.2
5438990.2
5482725.4
5535334.5
5596525.1
5666012.7
5743513.5
5828737.9
5921383.3
6021127.1
6127618.8
6240472.5
6359258
6483491.6
6612626.9
6746043.8
6883039.2
7022823.9
7164861.2
7303325.2
7445362.5
7586536.9
7724999.7
7859229.1
7984145.3
8103482.1
8214456
8313655.4
8398849.7
8467724.2
8517952.6
8546637.6
8552765.9
8533821.7
6289242.6
6121370.5
5970178.8
5838553.6
5724991.7
5628192.2
5547008.2
5480429.1
5427564.5
5387630.7
5359941.4
5343919.3
5339153
5344763.2
5360603.8
5386232.9
5421300.8
5465485.4
5518484.6
5580009.8
5649779.7
5727513.3
5812923.3
5905709.4
6005550.5
6112097.9
6224967
6343728.6
6467900.3
6596935.9
6730214.3
6867028.9
7006895.4
7148335.1
7286507
7428237.1
7569058.1
7707135.8
7840949.3
7965435
8084335.9
8194819.4
8293510.7
8378189.7
8446553.4
8496273.9
8524473.4
8530120.6
8510720.6
6243348.9
6077741.5
5929534.9
5800556.4
5689354.7
5594663.6
5515365.7
5450475.2
5399123.4
5360544.4
5334068.8
5319172.6
5315341.5
5321828.7
5338440.9
5364754.4
5400426.4
5445140.3
5498598.9
5560518.1
5630620.3
5708627.8
5794256.1
5887207.2
5987162.3
6093774.4
6206660.3
6325392.6
6449489.9
6578406.7
6711521.3
6848122.2
6987711.3
7128806.3
7266630.1
7407996.4
7548397.7
7686016.9
7819335.1
7943307.4
8061688.3
8171588.5
8269676.7
8353743.3
8421495.9
8470610.5
8498233
8503316.4
8483389.6
6189974.3
6027168.6
5882413.4
5756491.2
5648014.2
5555758.2
5478639.5
5415701.1
5366098.6
5329086
5304006.4
5290433
5287675.7
5295177.8
5312682.8
5339789
5376160.6
5421487.5
5475478.2
5537853.6
5608340.4
5686664.7
5772545.3
5865686.7
5965772.7
6072458.3
6185362.2
6304058.6
6428067.7
6556845.1
6689768.9
6826122.6
6965387.7
7106063.8
7243481.3
7384424.7
7524336.1
7661418.7
7794156.5
7917527.2
8035298.2
8144515.9
8241900
8325250.9
8392286.4
8440691.1
8467640.2
8472070.5
8451537.6
6128736.7
5969318.7
5828484
5706038.4
5600663.2
5511180.9
5436545.9
5375833.5
5328226.7
5293001.6
5269497
5257474
5255922.8
5264583.3
5283107.9
5311120
5348291.2
5394318.4
5448916.9
5511813.3
5582739.1
5661424.6
5747592.4
5840950.1
5941184
6047951.6
6160873.7
6279526.4
6403431.8
6532047.3
6664751.9
6800824.7
6939719.3
7079883
7216835.5
7357295.6
7496642.7
7633105.5
7765172.1
7887847
8004912.2
8113342.5
8209914.9
8292440.1
8358646.8
8406231.2
8432405.5
8436087.5
8414862.3
6059216.2
5903868.3
5767426.5
5648886.8
5547000.6
5460641.1
5388804.1
5330600.8
5285245
5252039.8
5230351.3
5219988.5
5219847.6
5229812.6
5249491.2
5278526.8
5316601.1
5363419.3
5418704.1
5482188.3
5553609.2
5632701.7
5719192.4
5812792.5
5913191.3
6020048.8
6132988.3
6251587.9
6375372.2
6503801.1
6636256.3
6772015.7
6910498.8
7050022.5
7186457.4
7326373.7
7465077.7
7600831.6
7732130.1
7854009.2
7970266.3
8077797.6
8173444.4
8255027.8
8320287.7
8366934.8
8392227.6
8395060.8
8373051.5
5980903.3
5830522.4
5698935.8
5584737
5486735.4
5403855.7
5335139.2
5279735.7
5236893.2
5205946.9
5186307.8
5177749.7
5179214.6
5190635.3
5211605.1
5241785.8
5280869.9
5328572.6
5384624.3
5448765.2
5520738.6
5600284.8
5687134.6
5781003.3
5881583.4
5988537.8
6101492.4
6220027.8
6343671.1
6471886
6604059.3
6739475.2
6877525.1
7016217
7152102.4
7291415.2
7429392.3
7564341.9
7694769
7815745.9
7931086.1
8037600.4
8132201.5
8212721.1
8276910.1
8322495.2
8346795.2
8348673.6
8325783.2
5893520.2
5748981.1
5622723.3
5513306.4
5419590.2
5340553.6
5275285.7
5222978.7
5182917
5154471.2
5137118
5130527.4
5133789.8
5146820.7
5169222.1
5200672
5240875.6
5289558.1
5346459.4
5411327.1
5483911.4
5563958.3
5651203.6
5745366.7
5846143.7
5953200.7
6066166.4
6184624
6308103.8
6436073.7
6567928.7
6702972.8
6840621.3
6978159.9
7113521.2
7252170.1
7389329.8
7523372.8
7652818.3
7772780
7887087.6
7992460.8
8085889.6
8165217.6
8228206
8272595.6
8295787.2
8296600.4
8272727.6
5796985.2
5658957.3
5538524.1
5434333.8
5345307.1
5270479.6
5208992
5160081.3
5123070.7
5097364.9
5082546.2
5078092.8
5083342.2
5098140.4
5122115.5
5154961.2
5196395.4
5246154.9
5303989.3
5369654.7
5442908.6
5523503.3
5611179.9
5705662.4
5806650.8
5913814.5
6026785.1
6145148.8
6268439.1
6396128.6
6527622.4
6662258.9
6799673.4
6935463.9
7070472.4
7208384.6
7344626.2
7477652.6
7605998.7
7724825.7
7837978
7942079.3
8034203.4
8112207.3
8173861.2
8216909.8
8238874.8
8238507.9
8213547.5
5691174
5560222.7
5446106.3
5347586.2
5263651.8
5193399.4
5136024
5090810.7
5057122.6
5034383.9
5022376.1
5020222.5
5027645.1
5044369.9
5070062.6
5104431.4
5147208.4
5198142.5
5256993.9
5323528
5397510
5478698.9
5566841.8
5661667.4
5762879.8
5870152.1
5983118.9
6101369.5
6224440.5
6351809
6482888.2
6617035.6
6753903.8
6888371.4
7022755
7159801.3
7295010.9
7426902.2
7554023.6
7671589.5
7783456.8
7886149
7976829.7
8053372.9
8113558.2
8155101.6
8175722.7
8174057.1
8147900.6
5575970.5
5452599.1
5345278
5252865
5174420.5
5109104.9
5056170.7
5014953.8
4984861.1
4965389.9
4956302.8
4956704.7
4966477.2
4985292.1
5012846.3
5048865.6
5093097.3
5145303.3
5205255
5272727.9
5347495.4
5429323.8
5517966.3
5613156.7
5714603.6
5821983.7
5934935
6053049.6
6175867.3
6302868.7
6433471.9
6567038.2
6703182
6836504.1
6970104.1
7106152
7240206.5
7370836.1
7496599.6
7612771
7723216.5
7824355.9
7913448.5
7988390.4
8046982.6
8086823.9
8105992.1
8102904.9
8075441.4
5451225.8
5335955.4
5235894.3
5150012.8
5077445.6
5017420
4969249.2
4932322.1
4906086.3
4890166.8
4884147.4
4887342.2
4899635.8
4920700.6
4950258.5
4988054.2
5033850.8
5087424.4
5148558.3
5217038.3
5292646.9
5375157.8
5464330.8
5559905.2
5661594.2
5769078.2
5881998.6
5999950.5
6122476.2
6249059.1
6379119.1
6512013
6647312.6
6779537.6
6912240.7
7047159.3
7179929.9
7309163.9
7433427.8
7548064.5
7656944.4
7756380.7
7843733.3
7916927.1
7973837.8
8011708.8
8029343
8024706.5
7995823.3
5316902.3
5210222.3
5117864.8
5038921
4972602.6
4918206.9
4875110.2
4842758.4
4820614.3
4808544.5
4805745.3
4811949.5
4826932.6
4850402.8
4882103.1
4921797.7
4969266.8
5024300.7
5086695.7
5156248.4
5232750.6
5315984.2
5405715.5
5501689.7
5603624.6
5711204.9
5824074.9
5941832.7
6064023
6190130.7
6319575.8
6451968.5
6586065.7
6717174
6848881.5
6982538.8
7113893.7
7241591.5
7364204.9
7477160.5
7584324.4
7681901.2
7767353.4
7838631.1
7893633.8
7929526.2
7945438.7
7939118.3
7908701.6
5173040
5075399
4991162.4
4919537.1
4859817.2
4811372.3
4773644.3
4746146.4
4728399
4720267.3
4720955.9
4730357.4
4748198.5
4774223.6
4808199.6
4849910.7
4899154.8
4955737.5
5019468.3
5090155.1
5167599.6
5251591.8
5341905.2
5438290.7
5540471.3
5648135.3
5760930.8
5878458.2
6000264.3
6125835.2
6254589.7
6386124.5
6519194.2
6649128.9
6779745.1
6912001.4
7041808.8
7167823.9
7288625.1
7399747.7
7505039.6
7600594.8
7683980.3
7753169.2
7806079.8
7839911.9
7853939
7845800.9
7813737.2
5121338
5019789.2
4931572.7
4855832.6
4791873.4
4739072.9
4696874.6
4664786.4
4642401.9
4629309.4
4625249.5
4629668
4642432.7
4663288.9
4692009.8
4728386.7
4772224.9
4823340.2
4881554.1
4946689.6
5018566.5
5096996.3
5181778
5272691.9
5369495.3
5471915.8
5579646.1
5692337.3
5809592.5
5930960.1
6055926.9
6183910.7
6314495.8
6446443.8
6575125
6704546.4
6835263.8
6963388
7087568.9
7206380.6
7315515.5
7418775.3
7512142.2
7593290.1
7660217.3
7710867.5
7742522.3
7754509.9
7744421.3
7710600.5
4948069.7
4857362.7
4778916.7
4712001
4656014
4610418.2
4574731.2
4548521.2
4531483.4
4523281.1
4523448.3
4531787.3
4548072.6
4572087.9
4603634.1
4642527
4688593.3
4741667.3
4801586.7
4868188.5
4941304.3
5020756.2
5106351.5
5197878.3
5295099.6
5397748.4
5505521.1
5618072.3
5735007.2
5855875.9
5980165.7
6107293.5
6236833.2
6367559.4
6494891.5
6623003.8
6752046.5
6878349
7000542.8
7117161.4
7224157.2
7325222.4
7416230.4
7494967.1
7559460
7607686.7
7637030.1
7646827.7
7634658.9
7598975.2
4765638.4
4686089.7
4617700.5
4559881.2
4512122.8
4473974.2
4445026.9
4424888.2
4413501
4410203
4414858.3
4427264.3
4447211.4
4474513.7
4509000.3
4550511.1
4598894.7
4654004.1
4715693.4
4783813.6
4858208.6
4938710.7
5025136.1
5117280.3
5214912.4
5317770.4
5425554.8
5537923.1
5654483
5774785.8
5898319.4
6024500.3
6152893.1
6282290.1
6408165.4
6534843.9
6662074.5
6786418
6906482.2
7020648.9
7125374.2
7224082
7312557.4
7388706.9
7450593.4
7496235
7523125.5
7530585
7516209.6
7478563.7
4574594.3
4506417.2
4448298.4
4399782.4
4360451.1
4329941.4
4307924.9
4294109.2
4288368.9
4290183.5
4299492.9
4316097.3
4339825.8
4370523.9
4408047.9
4452262.7
4503038.3
4560246.5
4623757.8
4693437.2
4769140.9
4850711.5
4937974
5030731.2
5128758.4
5231798.4
5339555.7
5451690.6
5567813
5687475.6
5810166.8
5935519.6
6062441.3
6190393.7
6314694.1
6439803.6
6565079.9
6687330.6
6805169.7
6916496.4
7018886
7115070.7
7200835.9
7274220.9
7333329.4
7376225.6
7400520.3
7405496.3
7388790.6
7349089.3
4441814.3
4375641.5
4318921.5
4271196.3
4232116.6
4201343
4178604.4
4163648.8
4156324.5
4156275.3
4163361.7
4177432.5
4198337.6
4225941.4
4260120.3
4300758.1
4347743.8
4400968.6
4460323.1
4525693.8
4596959.8
4673989.2
4756634.9
4844730.5
4938085.9
5036482.5
5139667.7
5247350
5359192.4
5474806.8
5593747
5715502.2
5839696.5
5965257.2
6091641.1
6214239.1
6337633.3
6460804
6580824.5
6696501.7
6804265.5
6904455.4
6997926.1
7080798.3
7151241
7207401.6
7247394.6
7268953
7271305.2
7252147.3
7210289.8
4223132.2
4169559.6
4124297.8
4086994.6
4057404.9
4035242.1
4020339.7
4012603.3
4011669.8
4017492.1
4029916
4048820.5
4074094.8
4105637.7
4143355.4
4187158.5
4236959.6
4292670.7
4354200.3
4421450.9
4494315
4572672.5
4656386.1
4745298
4839224.9
4937953.8
5041237
5148786.3
5260267.4
5375294.1
5493421.4
5614138.9
5737061.8
5861138.4
5985821.1
6106580.4
6228101.8
6348999.8
6466587.9
6579675.6
6684267.4
6781893.6
6872406.8
6952201.4
7019525.7
7072571.6
7109507.7
7128195.7
7127793.6
7106065
7061877.9
3998387.6
3957281
3923367
3896408.8
3876283.9
3862693.7
3855714.6
3855022
3860587
3872312.2
3890100.2
3913868.4
3943542.5
3979053.9
4020337.4
4067329.3
4119964.8
4178175.6
4241887.8
4311018.9
4385474.5
4465145.6
4549904.6
4639601.4
4734059.4
4833071.1
4936392.9
5043739.9
5154780.6
5269130.2
5386344.8
5506098.1
5627444.8
5749905.8
5872746.1
5991522.1
6111003.8
6229454.5
6344407.7
6454654.5
6556143.8
6650966.5
6738296.6
6814832.5
6878866.4
6928636.3
6962367.7
6978062.4
6974795
6950413.2
3768804.6
3739879.6
3717076.3
3700264.8
3689515.9
3684429.3
3685122.1
3691504.6
3703520.2
3721117.3
3744245.7
3772861.1
3806923.4
3846394.3
3891235.8
3941408.2
3996868
4057565.7
4123443.7
4194433.7
4270453.7
4351405.1
4437169.2
4527603.2
4622536.9
4721767.4
4825055.3
4932118.6
5042628.2
5156200.8
5272393.4
5390869.7
5510704.2
5631409.5
5752257.2
5868898
5986166.6
6101993.1
6214120.1
6321332.6
6419652.6
6511465.9
6595416.5
6668517
6729095.6
6775436
6805821.7
6818414.9
6812204.8
6785332.1
3535731.7
3518559.4
3506496.4
3499670.9
3497844.7
3501060.1
3509334.4
3522651.9
3541002.4
3564377.1
3592766.4
3626161.7
3664554
3707933.3
3756286.5
3809596
3867837.9
3930980
3998980
4071782.5
4149316.9
4231494.1
4318203.5
4409309
4504645.9
4604015.9
4707182.7
4813867.5
4923743
5036427.6
5151478.8
5268549.9
5386734.5
5505535
5624230.5
5738578.2
5853455.2
5966481.4
6075598.7
6179599.9
6274627.2
6363234.2
6443627.9
6513125.2
6570094.7
6612865
6639768.2
6649166.1
6639927.7
6610462.2
3300637.9
3294644.1
3292882.5
3295453.9
3302318.3
3313525.4
3329127.8
3349161.7
3373659.6
3402651
3436161.6
3474214.4
3516828.7
3564019.5
3615796.2
3672161
3733107.8
3798619.8
3868668.2
3943209.5
4022183.1
4105508.3
4193081.7
4284773.2
4380422.6
4479835.5
4582778.7
4688975.7
4798101
4909774.5
5023703.8
5139083.4
5255472.4
5372210.3
5488583.6
5600474.8
5712779.9
5822831.3
5928759.9
6029374.8
6120962.9
6206171.6
6282843.3
6348581.8
6401803
6440885.7
6464164.9
6470297.2
6457969.4
6425825.3
3064969.8
3069471.1
3077415.8
3088899.2
3103994.9
3122791.8
3145377.2
3171827.1
3202210
3236588
3275017.2
3317547.5
3364222.6
3415079.4
3470146.6
3529443.8
3592980.3
3660752.8
3732744.1
3808920.9
3889231.1
3973601.5
4061934.4
4154104.7
4249956.1
4349297.2
4451897.3
4557481.8
4665726.8
4776253.9
4888761.3
5002463.5
5116904.5
5231414
5345280.7
5454549.6
5564102.9
5671008.1
5773571.8
5870622.2
5958617.6
6040242.4
6113038.2
6174873.4
6224222.8
6259553.4
6279032.8
6281866.6
6266410.8
6231548.2
2830445.6
2844590.8
2861489.2
2881256.8
2904023.7
2929915.3
2959049.1
2991532
3027461.2
3066925.5
3110005.5
3156773.3
3207292.8
3261619
3319796.8
3381860.3
3447831.3
3517717.8
3591512.4
3669189.8
3750705.1
3835990.8
3924953.9
4017473.1
4113394.9
4212530.2
4314650
4419481.1
4526701.3
4636058.4
4746867.5
4858738.9
4971075.2
5083184.8
5194337.5
5300821.8
5407447.8
5511041.2
5610067.5
5703364.1
5787617.3
5865483.3
5934261.1
5992058.5
6037407.2
6068829.9
6084587.2
6084019.4
6065423.6
6027844.6
2598706.5
2621540.2
2646542.1
2673851.8
2703630.8
2736030.6
2771191.7
2809243.6
2850305.1
2894485
2941882.6
2992587.3
3046678.5
3104225.3
3165285.4
3229903.9
3298112.6
3369928.2
3445350.5
3524360.7
3606919
3692961.9
3782399.9
3875114
3970952.7
4069728
4171211.9
4275132
4381167.3
4489057.5
4598140.4
4708019.8
4818095
4927639.2
5035816.3
5139377.1
5242909.9
5343035
5438362.5
5527682.4
5608064.6
5682014
5746646.2
5800288.6
5841533.1
5868967.6
5881012.3
5876996.5
5855277.2
5815026.3
2371414.2
2401883
2434045.9
2468059
2504100
2542336
2582922.1
2626002.2
2671709.3
2720165.8
2771483.8
2825764.6
2883098.7
2943564.9
3007229.8
3074146.5
3144353.7
3217873.9
3294711.9
3374853
3458260.6
3544873.6
3634604.2
3727334.6
3822913.8
3921154.2
4021827.7
4124662.2
4229439
4335584.7
4442765.9
4550483.3
4658147.9
4765012
4869794.8
4970382.9
5070665.3
5167178.4
5258689.5
5343702.2
5420152.6
5490048.7
5550424.7
5599816.3
5636882
5660285.2
5668620.5
5661150.5
5636356.6
5593516.7
2150204.3
2187175.5
2225478.6
2265276.2
2306750.8
2350075.2
2395410.5
2442907.5
2492706.1
2544935.9
2599716
2657154.4
2717347.9
2780380.9
2846325.1
2915238
2987162
3062122.8
3140127.6
3221163.3
3305194.6
3392161.1
3481975
3574518.1
3669638.7
3767148.4
3866818.4
3968464.7
4071592.2
4175914.7
4281004.9
4386376.4
4491485.9
4595790.8
4696229.4
4794136.7
4890974.7
4983737.9
5071494
5151506.5
5224203.6
5289909.2
5345934
5391002.6
5423843.5
5443200.6
5447848.2
5436956.1
5409171.8
5363863.9
1936644.4
1978930.3
2022294.2
2066895.6
2112912.6
2160514.6
2209861.1
2261102
2314378
2369819.6
2427547.5
2487671.4
2550289.6
2615488.1
2683339.7
2753903.2
2827221.3
2903319.9
2982206.3
3063866.7
3148264.8
3235339
3324999.9
3417127.3
3511567.9
3608130.9
3706662.7
3806738.4
3908110.2
4010406.5
4113202
4216016.8
4318318.3
4419542.4
4516294
4611063
4704167.1
4792968.4
4876562
4952037.7
5020722.9
5082027.2
5133625.2
5174326
5202926.4
5218250.1
5219260.9
5205018.1
5174364.8
5126748.5
1732193.2
1778579.1
1825889.5
1874273.6
1923897.1
1974918.8
2027489.3
2081751.6
2137840.6
2195882.8
2255995.3
2318284.6
2382846.6
2449764.7
2519109.4
2590937
2665287.8
2742185.1
2821633.4
2903616.2
2988094.1
3075002.2
3164247.9
3255707.9
3349225.3
3444672.1
3541686.6
3640054.8
3739453.7
3839510.3
3939799.6
4039842.3
4139104.4
4236999.2
4330169.3
4421545
4510697.1
4595350.9
4674599.6
4745639.8
4810151.9
4866946.1
4914069.2
4950389.3
4974770.4
4986100.1
4983560
4966078.3
4932716.3
4882990.9
1538161.8
1587435.7
1637569.3
1688697.7
1740968.5
1794523.2
1849497.8
1906022.7
1964222.7
2024215
2086108.9
2150004
2215989.4
2284142.7
2354528.5
2427197.4
2502184.5
2579508.1
2659167.2
2741140.3
2825383
2911825.5
3000370.1
3090888.9
3183275.5
3277224.9
3372552.3
3468978.1
3566176.5
3663773.2
3761341.6
3858401.2
3954416.7
4048797.2
4138316.5
4226093
4311131.3
4391490.5
4466275.4
4532872.5
4593091.1
4645329
4687962.4
4719923.9
4740161
4747558.4
4741584.3
4721020.1
4685150.1
4633554.6
1355679.9
1406661.1
1458512.3
1511354.8
1565313.2
1620506.1
1677049.9
1735058.9
1794643.7
1855908.9
1918952.5
1983863.6
2050721.5
2119594.3
2190538.2
2263595.4
2338793
2416141.6
2495632.9
2577238.3
2660906.4
2746560.7
2834097.2
2923427.5
3014296
3106543
3199927.1
3294165.1
3388928.5
3483840.9
3578473.9
3672345.5
3764920.4
3855614.9
3941362.8
4025355.9
4106155.1
4182106.1
4252326
4314452.7
4370295.1
4417971
4456132.2
4483777.6
4499925.5
4503612.2
4494308
4470874.6
4432735
4379547.2
1185675
1237232.5
1289738.1
1343299
1398009.8
1453959.6
1511242.5
1569954.6
1630190
1692038.6
1755584.3
1820903.1
1888061.8
1957117
2028113.5
2101082.8
2176042
2252991.8
2331914.7
2412773.2
2495507.1
2580067
2666273.4
2754017.9
2843127.1
2933392.5
3024567.7
3116365.7
3208455.4
3300458.3
3391944.8
3482430.5
3571379.3
3658219.3
3740065
3820111.7
3896577.2
3968039.9
4033589.6
4091242.2
4142666
4185809.4
4219554.4
4242972
4255160.8
4255326.2
4242867.2
4216810.4
4176681.7
4122217.1
1028882.3
1079910
1132076
1185423.8
1240002.4
1295863.2
1353079.5
1411729.4
1471890.1
1533635.5
1597033.9
1662146.5
1729026
1797715.2
1868245.9
1940637
2014893.9
2091005.8
2168944.4
2248687.6
2330115.5
2413158.3
2497695.7
2583578.3
2670625.4
2758622.3
2847317.4
2936419.8
3025596.3
3114467.5
3202602.9
3289515.4
3374661.8
3457477.4
3535297.1
3611257.2
3683323.3
3750266.2
3811000.8
3864259.3
3911254.2
3949924.8
3979347.2
3998668.2
4007071.1
4003923.5
3988536.8
3960138.9
3918337.9
3862945.3
886345.95
935525.98
986136.83
1038438.6
1092078.7
1147059.4
1203446
1261302.5
1320689.4
1381664.3
1444279.6
1508580.7
1574605.1
1642380.8
1711925.3
1783244
1856346.2
1931175.7
2007708
2085883.6
2165621.9
2246818.7
2329344.1
2413040.1
2497718.2
2583156.9
2669099.7
2755251.9
2841278.9
2926802
3011392.5
3094560.7
3175745.4
3254351.3
3328045.9
3399801.7
3467421.6
3529966.4
3585502.9
3634695.6
3677240.8
3711530.5
3736761.6
3752156.8
3756985
3750764.3
3732722
3702299.9
3659175.3
3603232
756538.11
804468.59
852915.68
902858.67
954859.67
1008232.3
1063085.7
1119469
1177426.3
1236999.2
1298224.4
1361131.8
1425753.1
1492082.4
1560131.4
1629891.4
1701340.7
1774443
1849145.3
1925376.2
2003043.6
2082032.6
2162203.5
2243389.1
2325393
2407987
2490909.4
2573862.5
2656510.7
2738478.2
2819343.1
2898623.1
2975737.1
3049862.9
3119417
3186876.1
3249971.1
3307926
3358822.2
3403788.8
3441920.4
3471958.3
3493168.7
3504847.9
3506352.4
3497329.3
3476942
3444843.8
3400771.4
3344676.6
640362.19
685436.51
731859.61
780029.97
828825.7
879887.72
932582.62
986883.26
1042815.7
1100407.2
1159680.4
1220650.2
1283323.6
1347698.4
1413762.8
1481494.1
1550857
1621802
1694263.5
1768158
1843381.9
1919809.6
1997291.2
2075650.8
2154683.9
2234156
2313800.3
2393316.3
2472368.3
2550584.2
2627555.3
2702839.2
2775994.5
2844929.9
2910665.3
2973741.3
3032286.7
3085648.9
3132095.4
3172845.2
3206688.9
3232643.9
3250042.7
3258251.3
3256744.5
3245190.4
3222808.8
3189408
3144783.8
3088951.2
537901.32
579403.68
622873.59
668030.56
714857.6
762431
812329.99
864024.26
917409.62
972504.98
1029321.3
1087860
1148113.7
1210066.6
1273693.2
1338957.6
1405811.5
1474192.9
1544024.2
1615209.9
1687635.6
1761165
1835638.9
1910872.6
1986654.4
2062743.6
2138869.1
2214727.8
2289983.6
2364267.3
2437176.5
2508278.5
2577118.4
2641525
2703148.7
2761736
2815748.1
2864555
2906688.4
2943300.1
2973029.8
2995108.1
3008934.6
3013947.6
3009764.9
2995985
2971999.2
2937687.5
2892920.2
2837769
448503.91
486202.97
525917.7
567723.13
611268.36
656553.64
702693.45
751218.24
801617.6
853780.14
907707.01
963386.17
1020797.5
1079912.8
1140694.9
1203096
1267056.3
1332502.4
1399345.4
1467479.3
1536779.1
1607099.2
1678271.5
1750103.5
1822376.9
1894845.9
1967235.7
2039241.6
2110527.6
2180726.4
2249439.9
2316241
2380675
2440702
2498126.6
2552240.4
2601789.6
2646066.4
2684073.9
2716675.2
2742497.9
2760940.1
2771470
2773600.5
2767074
2751419.6
2726219.6
2691400.6
2646902.2
2592847.1
370409.87
405121.46
440902.58
478817.16
518820.79
560618.83
604213.56
648737.08
695671.39
744552.02
795240.17
847707.07
901921.53
957845.95
1015433.7
1074627.6
1135357.9
1197541.5
1261079.7
1325857.2
1391740
1458574.2
1526184
1594370.3
1662909.6
1731552
1800020.4
1868009.4
1935184.4
2001180.8
2065605.5
2128039
2188039.7
2243732.7
2296930.7
2346651.8
2391958
2431520
2465804
2494530.5
2516681.6
2531757.1
2539293.3
2538875.6
2530351.2
2513195.2
2487174.4
2452250.4
2408425
2355864.2
303524.14
334459.65
367194.07
401062.45
437156.31
475294.17
515279.11
557076.54
599683.24
644970.75
692167.05
741152.63
791891.82
844342.38
898451.77
954155.65
1011376.9
1070024.3
1129991.7
1191155.8
1253375.5
1316489.9
1380317.4
1444653.8
1509271.5
1573918.5
1638316.9
1702162.5
1765123.3
1826839.3
1886923.2
1944963.5
2000535.3
2051938.6
2100919.7
2146314.9
2187371.4
2222809.7
2253386.3
2278421.6
2297160.8
2309162.8
2314028
2311413
2301246.1
2282969.5
2256516.9
2221879
2179111.5
2128416.4
246860.49
274095.51
303113.47
333918.74
365890.7
400158.18
436469.12
474754.26
513961.27
555036.67
598582.8
643901.12
690965.42
739734.53
790153.2
842152.61
895650.24
950549.3
1006737.6
1064086.5
1122449.4
1181660.5
1241533.9
1301862.3
1362416
1422942.4
1483164.9
1542782.4
1601468
1658868.8
1714603.8
1768266.3
1819437.1
1866628.6
1911459.9
1952660.1
1989618.6
2021225.6
2048251.7
2069851.2
2085464.5
2094705.5
2097234.4
2092788.6
2081331
2062311
2035802.3
2001820.3
1960466.1
1911969.9
177385.71
199376.38
223074.9
248509.64
275694.79
304626.98
334660.72
367195.94
401615.49
437812.32
475078.11
514443.44
555978.4
599245.56
644203.44
690794.88
738948.17
788577.49
839582.52
891847.53
945240.32
999611.07
1054791.3
1110592.8
1166807.1
1223204.5
1279533.6
1335521.1
1390871.3
1445265.8
1498362.6
1549792.8
1599149
1645923.5
1689047.5
1729858.1
1767047
1800061
1828102.7
1851792.2
1870240.7
1883033.6
1889837.9
1890361.1
1884487.4
1872037.7
1852651.4
1826440.5
1793454
1753829.3
1707817.6
141226.54
160004.59
180400.14
202457.25
226219.92
251765.49
278424.1
307011.62
337734.63
370219.23
404451.41
439763.24
477248.48
516678.56
557775.88
600481.44
644722.16
690410.93
737446.15
785710.8
835071.48
885377.36
936459.3
988129.18
1040179.2
1092381.7
1144488.6
1196231.8
1247323.1
1297455.6
1346304.8
1393535.8
1438823.1
1480929.8
1520354.9
1557319.4
1590789.5
1619834.8
1644704.9
1665297.1
1680892.2
1691178.4
1695875.5
1694744.4
1687749.2
1674652
1655247.1
1629656
1597963.8
1560336.4
1517038.5
111824.93
127698.39
145073.58
164002.35
184529.75
206692.49
230489.3
255473.79
282464.45
311359.79
341964.15
374245.03
407479.29
443060.93
480328.56
519166.75
559503.07
601251.49
644311.49
688567.1
733885.95
780118.41
827096.93
874635.49
922529.24
970554.34
1018468
1066008.9
1112897.8
1158838.5
1203520.2
1246621
1287812.4
1325884.5
1361625
1394833.6
1424691.4
1450322.9
1472192.7
1489906.6
1502944.6
1511037.4
1513951
1511493.6
1503685.3
1490260.4
1471140.3
1446449.3
1416301
1380882.3
1340465
88158.603
101458.37
116129.69
132230.89
149813.46
168920.37
189581.78
211814.12
235140.37
260595.63
287759.36
316627.25
346443.24
378054.39
411600.21
446662.11
483172.85
521050.48
560197.97
600502.58
641835.11
684049.23
726981.03
770448.65
814252.17
858173.62
901977.25
945410.08
988202.72
1030070.7
1070716.3
1109831
1147097.3
1181423.9
1213632
1243296.1
1269778.4
1292325.3
1311421.1
1326545.9
1337327.6
1343535.4
1344975.9
1341498.7
1333165.5
1319700.6
1301125.6
1277565.5
1249155.4
1216096
1178659.8
69290.66
80351.494
92647.219
106241.05
121191.15
137550.86
155372.51
174723.47
195122.89
217207.9
241102.13
266555.52
293507.37
321373.29
351214.27
382651.2
415477.94
449617.62
484978.41
521452.58
558915.92
597227.28
636228.23
675742.97
715578.32
755523.97
795352.94
834822.17
873673.58
911635.37
948424.1
983747.38
1017307
1048133.1
1077012.9
1103393.3
1126741.2
1146502.4
1163080.3
1175914.9
1184738.7
1189357.9
1189616.4
1185400.2
1176800
1163542.6
1145725.9
1123474.6
1096938.6
1066325.6
1031903.9
54382.711
63528.275
73771.825
85178.938
97811.071
111724.84
126971.05
143589.99
161584.73
180592.08
201404.88
223775.37
247648.62
272431.55
298685.36
326705.36
356044.66
386634.66
418390.41
451210.67
484977.69
519556.98
554797.2
590530.15
626571.02
662718.75
698756.61
734452.95
769562.26
803826.42
836976.98
868738.67
898834.9
926414.08
952211.09
975643.13
995968.14
1013309.4
1027641.9
1038477.8
1045628.9
1048936.1
1048277.3
1043575.1
1034928.2
1022080.3
1005184.8
984364.94
959779.45
931637.6
900199.11
42701.241
50233.734
58732.378
68262.996
78888.325
90667.298
103654.78
117902.83
133469.1
149993.61
167938.01
187472.74
208365.32
230567.89
253606.3
278312.41
304401.26
331674.54
360053.51
389443.91
419735.35
450801.11
482498.08
514666.93
547132.44
579704.07
612176.59
644331
675935.45
706746.33
736509.96
764965.97
791855.22
816443.43
839387.65
860080.07
877878.41
893040.55
905349.37
914455.66
920197.36
922442.29
921095.1
916139.37
907620.15
895334.13
879471.11
860150.86
837535.24
811830.3
783283.89
33617.812
39811.277
46848.114
54792.65
63706.998
73650.107
84676.663
96835.393
110164.59
124674.36
140086.45
157028.71
175301.48
194860.44
215237.02
236881.15
259996.57
284222.9
309490.57
335713.31
362788.78
390598.71
419009.04
447870.14
477017.24
506271.14
535439.01
564315.4
592683.28
620314.9
646972.26
672405.17
696337.42
718216.58
738577.32
756820.06
772414.3
785637.84
796190.27
803823.49
808398.98
809807.8
807972.55
802940.04
794669.92
783063.54
768298.24
750495.38
729816.4
706460.91
680662.72
26604.552
31701.461
37530.696
44153.854
51631.147
60020.459
69376.311
79748.957
91184.637
103731.48
117116.28
131732.44
147664.93
164751.68
182950.89
201884.36
222236.88
243706.36
266153.86
289499.03
313647.22
338488.85
363899.27
389738.95
415854.02
442076.97
468227.74
494114.86
519537.12
544285.66
568147.96
590916.4
611998.15
631542.28
649607.42
665688.72
679359.92
690885.42
699937.6
706336.23
709964.25
710733.29
708586.05
703584.3
695673.53
684812.27
671162.74
654847.63
636024.91
614885.27
591647.31
21226.339
25436.848
30281.851
35819.408
42106.901
49200.085
57151.938
66011.221
75820.592
86613.293
98402.133
110976.94
124861.49
139837.83
155886.91
172602.81
190483.24
209512.54
229451.46
250228.41
271757.74
293939.04
316657.27
339783.09
363173.49
386672.59
410112.8
433316.06
456095.57
478257.71
499604.51
519936.32
538696.94
556133.04
572146.87
586321.6
598333.91
608397.18
616185.62
621565.01
624437.04
624730.62
622404.06
617526.64
610041.33
599945.66
587388
572489.62
555402.67
536307.46
515406.88
17131.014
20634.295
24687.984
29346.209
34663.001
40691.434
47482.589
55084.404
63540.559
72889.908
83167.705
94143.221
106244.94
119406.77
133569.13
148407.82
164135.45
181037.24
198782.85
217308.22
236536.84
256377.19
276723.41
297455.94
318442.18
339537.43
360585.93
381422.26
401872.94
421758.28
440894.46
459095.73
475868.45
491472
505744.16
518171.49
528825.97
537652.3
544392.49
548943.26
551222.98
551174.88
548769.36
544079.38
537049.83
527704.28
516179.07
502592.05
487088.24
469836.8
451025.33
14038.832
16985.846
20412.771
24369.766
28907.346
34075.626
39923.453
46497.532
53841.715
61996.724
71000.303
80654.432
91251.819
102868.34
115374.97
128739.98
142693.21
157705.53
173563.8
190153.18
207401.89
225225.16