/*--------------------------------*- C++ -*----------------------------------*\
| =========                 |                                                 |
| \\      /  F ield         | OpenFOAM: The Open Source CFD Toolbox           |
|  \\    /   O peration     | Version:  2312                                  |
|   \\  /    A nd           | Website:  www.openfoam.com                      |
|    \\/     M anipulation  |                                                 |
\*---------------------------------------------------------------------------*/
FoamFile
{
    version     2.0;
    format      ascii;
    arch        "LSB;label=32;scalar=64";
    class       volScalarField;
    location    "0.04";
    object      T;
}
// * * * * * * * * * * * * * * * * * * * * * * * * * * * * * * * * * * * * * //

dimensions      [0 0 0 1 0 0 0];

internalField   nonuniform List<scalar> 
3250
(
587.97295
587.51643
587.13342
586.84174
586.64145
586.53048
586.50674
586.56812
586.71249
586.93776
587.24189
587.62298
588.05924
588.57702
589.17327
589.83606
590.56289
591.35111
592.19794
593.10048
594.05567
595.06037
596.11125
597.20487
598.33765
599.50584
600.70555
601.93273
603.18316
604.45245
605.73607
607.02934
608.3275
609.62572
610.87991
612.15605
613.42098
614.66483
615.88188
617.03393
618.16439
619.26214
620.30849
621.29689
622.21912
623.06964
623.82448
624.50934
625.10799
587.93702
587.48207
587.10035
586.81008
586.61112
586.50139
586.4788
586.54124
586.68661
586.91279
587.21773
587.59956
588.03646
588.55516
589.15199
589.81533
590.54267
591.33134
592.17859
593.08149
594.03701
595.04199
596.09311
597.18695
598.3199
599.48823
600.68805
601.91531
603.16578
604.4351
605.71871
607.01194
608.31002
609.60814
610.8622
612.13822
613.403
614.64667
615.86353
617.01537
618.14562
619.2431
620.28908
621.27685
622.19887
623.04932
623.80395
624.48832
625.08628
587.86715
587.41495
587.03584
586.74846
586.5522
586.445
586.42476
586.4894
586.63681
586.86487
587.17151
587.55485
587.99312
588.51371
589.11178
589.77628
590.50468
591.29433
592.14245
593.04615
594.00238
595.00798
596.05966
597.15396
598.28732
599.45598
600.65606
601.88352
603.13413
604.40352
605.68714
606.98031
608.27825
609.57616
610.82998
612.10576
613.37024
614.61356
615.83003
616.98143
618.11128
619.20821
620.2535
621.24046
622.16196
623.01193
623.76597
624.44945
625.04628
587.76379
587.31494
586.93987
586.65685
586.46467
586.36128
586.3446
586.41256
586.56305
586.79396
587.10316
587.48876
587.92914
588.45259
589.05256
589.71882
590.44884
591.23997
592.08944
592.99435
593.95167
594.95824
596.01076
597.1058
598.23977
599.40895
600.60945
601.83722
603.08806
604.35758
605.64123
606.93432
608.23204
609.52962
610.78308
612.05853
613.32255
614.56533
615.78119
616.93194
618.0612
619.1573
620.20163
621.18755
622.10819
622.95728
623.71039
624.39267
624.98808
587.62835
587.18196
586.81251
586.53533
586.3486
586.2503
586.23837
586.31077
586.46538
586.70011
587.01276
587.40132
587.84458
588.37183
588.97436
589.64298
590.37518
591.16831
592.01959
592.92614
593.88493
594.8928
595.94647
597.0425
598.17732
599.3472
600.54826
601.77647
603.02762
604.29732
605.58103
606.87401
608.17145
609.46858
610.72154
611.99655
613.25996
614.50203
615.71709
616.86696
617.99543
619.09044
620.13354
621.11817
622.0376
622.88546
623.63728
624.3181
624.91181
587.46714
587.02532
586.663
586.39269
586.21238
586.12007
586.11375
586.19137
586.35087
586.59011
586.90686
587.2988
587.74557
588.27725
588.88281
589.55424
590.28902
591.08451
591.93795
592.84644
593.80696
594.81638
595.87141
596.96861
598.10444
599.27515
600.4769
601.70563
602.95715
604.22708
605.51086
606.80375
608.10085
609.39742
610.6498
611.9243
613.18699
614.42823
615.64234
616.79119
617.91873
619.01246
620.05417
621.03733
621.95529
622.80165
623.55193
624.23111
624.82298
587.28586
586.84997
586.49586
586.23324
586.06012
585.97454
585.97449
586.05797
586.22293
586.46727
586.78866
587.1842
587.63505
588.17166
588.78062
589.4552
590.19288
590.99103
591.84688
592.75755
593.72004
594.7312
595.78775
596.88628
598.02324
599.1949
600.3974
601.62673
602.87867
604.14887
605.43275
606.72553
608.02226
609.31816
610.56989
611.84383
613.10572
614.34604
615.55909
616.70679
617.8333
618.92561
619.96578
620.94732
621.86363
622.70827
623.45682
624.13424
624.72415
587.07061
586.64236
586.29806
586.04457
585.87997
585.80234
585.80973
585.90015
586.0716
586.32201
586.64903
587.04842
587.50446
588.04681
588.65982
589.33814
590.07927
590.88057
591.73929
592.65256
593.61737
594.6306
595.68897
596.78909
597.92739
599.10017
600.30359
601.53362
602.78608
604.0566
605.34062
606.63329
607.92959
609.22462
610.47558
611.74888
613.00984
614.24906
615.46086
616.6072
617.73248
618.82312
619.8615
620.84113
621.75547
622.59806
623.34453
624.0199
624.60756
586.81908
586.40027
586.06743
585.82458
585.66992
585.60157
585.61763
585.71616
585.89518
586.15272
586.4866
586.88967
587.35244
587.9013
588.51904
589.20175
589.94691
590.75191
591.61398
592.53028
593.49782
594.51347
595.57397
596.67594
597.81581
598.98992
600.1944
601.42526
602.67833
603.94924
605.23343
606.52603
607.82182
609.1157
610.36578
611.63836
612.89826
614.13622
615.34656
616.49131
617.61516
618.70386
619.74015
620.71759
621.62962
622.46978
623.21383
623.88682
624.47189
586.52875
586.12138
585.8017
585.5711
585.42787
585.37022
585.39627
585.50414
585.69189
585.95766
586.30016
586.70573
587.17769
587.73363
588.35684
589.04462
589.79445
590.6037
591.46966
592.38947
593.36015
594.3786
595.44157
596.54567
597.68737
598.863
600.06872
601.30054
602.55431
603.82568
605.1101
606.40266
607.69792
608.99022
610.23932
611.51115
612.76984
614.00635
615.215
616.35792
617.48012
618.56659
619.60051
620.57541
621.48477
622.32212
623.06336
623.73362
624.31574
586.19685
585.8032
585.49847
585.28182
585.15163
585.10617
585.14362
585.26213
585.45984
585.73489
586.08604
586.49663
586.97903
587.54218
588.17171
588.86529
589.62045
590.43458
591.30497
592.22879
593.20307
594.22472
595.2905
596.39704
597.54083
598.71821
599.92534
601.15826
602.41283
603.68474
604.96945
606.26206
607.55684
608.84685
610.09497
611.36601
612.62336
613.85822
615.06495
616.20577
617.32608
618.41002
619.44123
620.41326
621.31957
622.15365
622.89169
623.55885
624.13762
585.82015
585.44317
585.15525
584.95433
584.83887
584.80719
584.85753
584.9881
585.19705
585.48251
585.84275
586.26052
586.75442
587.32536
587.96204
588.6622
589.4234
590.24305
591.11847
592.04684
593.0252
594.05047
595.11945
596.22876
597.37492
598.55427
599.763
600.99717
602.25266
603.52518
604.81025
606.10303
607.3976
608.68402
609.93139
611.20169
612.45754
613.69053
614.89507
616.03352
617.15168
618.23275
619.26092
620.22973
621.13257
621.96289
622.6973
623.36097
623.93595
585.39579
585.03854
584.76941
584.58613
584.48719
584.47097
584.53579
584.67989
584.90148
585.19861
585.56844
585.99551
586.50188
587.08145
587.72615
588.43371
589.2017
590.02758
590.90866
591.84213
592.82508
593.85444
594.92701
596.03945
597.18827
598.36983
599.58037
600.81594
602.07244
603.34566
604.63116
605.9243
607.21944
608.4998
609.74721
611.01685
612.27103
613.50191
614.70397
615.83975
616.95547
618.03333
619.05809
620.0233
620.92226
621.74821
622.47858
623.13833
623.70909
584.9213
584.5864
584.3382
584.17456
584.09404
584.09508
584.17604
584.33525
584.57098
584.88133
585.26087
585.69974
586.21942
586.8086
587.46225
588.17809
588.95369
589.78652
590.67392
591.61312
592.6012
593.63512
594.71171
595.82763
596.97942
598.16348
599.37602
600.61314
601.87078
603.14475
604.43073
605.72439
607.02219
608.29143
609.54114
610.81011
612.06241
613.29089
614.49016
615.62294
616.73592
617.8102
618.83118
619.7924
620.68706
621.50789
622.2338
622.88922
623.45526
584.39384
584.08378
583.85877
583.7169
583.6568
583.67698
583.77586
583.95183
584.2033
584.52901
584.91716
585.37154
585.90498
586.50486
587.16849
587.89352
588.67758
589.51814
590.41258
591.35814
592.35193
593.39092
594.47197
595.59177
596.74687
597.93368
599.14845
600.38729
601.64618
602.92096
604.2074
605.50135
606.79951
608.06216
609.31226
610.58007
611.83017
613.05594
614.25208
615.3815
616.4914
617.56171
618.57851
619.53537
620.4254
621.24
621.96115
622.61181
623.17262
583.81036
583.52758
583.32814
583.21029
583.17272
583.21402
583.33268
583.52716
583.79594
584.13696
584.53708
585.00946
585.55637
586.16821
586.84288
587.57811
588.37153
589.22065
590.12287
591.07546
592.07556
593.12018
594.20617
595.33025
596.489
597.67885
598.89608
600.13681
601.39706
602.6727
603.95955
605.25352
606.551
607.80931
609.05901
610.32517
611.57271
612.79543
613.98805
615.11373
616.22019
617.28612
618.29831
619.25044
620.13573
620.94234
621.65876
622.3042
622.85923
583.1674
582.91461
582.74323
582.65175
582.63894
582.70345
582.84386
583.05869
583.34661
583.70302
584.11873
584.61037
585.17152
585.79654
586.48339
587.22985
588.03357
588.89212
589.80292
590.76326
591.77032
592.82112
593.91254
595.04135
596.20412
597.39731
598.61723
599.86004
601.12175
602.39829
603.68549
604.97923
606.27556
607.53067
608.77965
610.04373
611.28835
612.50763
613.69631
614.81785
615.92048
616.98157
617.98868
618.93568
619.81685
620.61212
621.32476
621.9644
622.51303
582.46153
582.24155
582.10085
582.03823
582.05251
582.14243
582.30663
582.5437
582.85333
583.22408
583.66021
584.17152
584.74816
585.38764
586.08786
586.84664
587.66168
588.53057
589.45078
590.41963
591.43431
592.49189
593.58928
594.72325
595.89043
597.08729
598.31015
599.55521
600.8185
602.09597
603.38347
604.6768
605.97177
607.2242
608.47233
609.73395
610.97529
612.19073
613.37498
614.49195
615.59034
616.64611
617.64761
618.58881
619.46406
620.25001
620.95728
621.5903
622.13187
581.68922
581.50495
581.39772
581.36655
581.41036
581.528
581.71816
581.97923
582.31085
582.69977
583.15995
583.6902
584.28391
584.9392
585.65404
586.42629
587.25371
588.13391
589.0644
590.04254
591.06556
592.13055
593.23446
594.37408
595.54606
596.74691
597.97297
599.22047
600.48546
601.7639
603.05164
604.34443
605.63792
606.88791
608.13514
609.39386
610.63161
611.8428
613.02208
614.13401
615.22772
616.27767
617.27299
618.20767
619.07591
619.8532
620.55414
621.17966
621.71347
581.0685
580.84692
580.70134
580.63046
580.63344
580.70934
580.85711
581.07554
581.36248
581.71659
582.1285
582.61382
583.164
583.7763
584.44882
585.17959
585.96652
586.80742
587.69994
588.64163
589.62989
590.66199
591.73505
592.84605
593.99181
595.16902
596.37421
597.60375
598.85387
600.12068
601.40014
602.68808
603.98022
605.27214
606.51976
607.76602
609.02148
610.25533
611.46183
612.63546
613.74191
614.8305
615.87408
616.86261
617.79005
618.65047
619.41909
620.11295
620.73013
621.25543
580.10788
579.9309
579.82714
579.79559
579.83556
579.94621
580.12663
580.37592
580.6909
581.06669
581.50876
582.01836
582.59027
583.22276
583.914
584.66207
585.46495
586.32048
587.22638
588.18023
589.17948
590.22144
591.30325
592.42194
593.57437
594.75724
595.96712
597.20041
598.45338
599.72212
601.00263
602.29075
603.58217
604.87241
606.11763
607.3628
608.6147
609.84435
611.04577
612.21283
613.31339
614.39641
615.43308
616.41417
617.33367
618.18554
618.94514
619.63119
620.23921
620.75525
579.06617
578.93736
578.87871
578.8896
578.96949
579.11762
579.33329
579.61644
579.95783
580.36328
580.83596
581.37085
581.9663
582.62065
583.33215
584.09895
584.91909
585.79046
586.71084
587.67786
588.689
589.74162
590.83291
591.95992
593.11955
594.30854
595.52348
596.76081
598.01682
599.28764
600.56925
601.85752
603.14812
604.43659
605.67932
606.92322
608.17128
609.39649
610.59255
611.75158
612.84609
613.92312
614.95228
615.92527
616.83609
617.67869
618.42874
619.10621
619.70429
620.21029
577.93953
577.86248
577.85237
577.90888
578.03173
578.2202
578.47355
578.79083
579.16374
579.60399
580.10622
580.66843
581.28928
581.96721
582.70058
583.48759
584.32636
585.21483
586.15084
587.13206
588.15604
589.22016
590.32167
591.45765
592.62504
593.82062
595.04101
596.28269
597.54195
598.81497
600.09774
601.38613
602.67583
603.9624
605.20249
606.4449
607.68884
608.90943
610.10039
611.24857
612.33757
613.40818
614.42921
615.39339
616.29478
617.12737
617.8672
618.53527
619.12259
619.61778
576.81026
576.72422
576.70248
576.74438
576.84978
577.01877
577.25053
577.54442
577.89522
578.3083
578.78293
579.3166
579.90815
580.55631
581.25962
582.01651
582.82528
583.68409
584.59097
585.5438
586.54031
587.57809
588.65459
589.76708
590.91271
592.08844
593.2911
594.51734
595.76366
597.0264
598.30175
599.58573
600.87421
602.16292
603.44743
604.6847
605.92535
607.16484
608.38063
609.5684
610.69929
611.78561
612.84909
613.86126
614.81587
615.70705
616.52882
617.2577
617.9155
618.4912
618.97479
575.43962
575.41619
575.45355
575.55104
575.70857
575.92706
576.2052
576.53852
576.9329
577.38592
577.8966
578.46397
579.08698
579.76442
580.49496
581.2771
582.10921
582.98954
583.91617
584.88704
585.89996
586.95255
588.04233
589.16661
590.32257
591.50724
592.71747
593.94996
595.20124
596.46769
597.74551
599.03075
600.3193
601.6069
602.88918
604.1234
605.36194
606.59653
607.80675
608.98826
610.10697
611.18816
612.24318
613.2457
614.18996
615.07009
615.8802
616.59731
617.2439
617.80707
618.27815
573.96813
574.01145
574.11191
574.2687
574.48145
574.75309
575.07661
575.4594
575.8983
576.39257
576.94177
577.54517
578.2018
578.91058
579.67024
580.47939
581.33649
582.23984
583.18761
584.1778
585.20827
586.27672
587.38069
588.51758
589.68459
590.87881
592.09713
593.33629
594.59285
595.86323
597.14367
598.43022
599.71879
601.00516
602.28499
603.51592
604.75195
605.98114
607.18502
608.35891
609.46735
610.54223
611.5876
612.57968
613.51277
614.38099
615.17847
615.88297
616.51736
617.06706
572.39191
572.50611
572.6739
572.89388
573.1643
573.4893
573.86884
574.30134
574.78684
575.32493
575.91519
576.55698
577.24947
577.99166
578.7824
579.62038
580.50414
581.43207
582.4024
583.41321
584.46242
585.54779
586.66692
587.81724
588.99604
590.20043
591.42736
592.67361
593.93578
595.21033
596.49351
597.78142
599.06997
600.35496
601.63211
602.85944
604.09255
605.31584
606.51268
607.67822
608.77688
609.84459
610.87939
611.8602
612.78129
613.63671
614.42044
615.11146
615.73267
616.26822
570.70713
570.89617
571.13601
571.41867
571.75456
572.13969
572.57495
573.06009
573.59509
574.1797
574.81357
575.49617
576.22679
577.00453
577.82834
578.697
579.60915
580.56324
581.55759
582.59035
583.65951
584.76288
585.89813
587.06275
588.25408
589.46928
590.70534
591.95911
593.22722
594.50617
595.79224
597.08156
598.37004
599.65346
600.92763
602.15106
603.38079
604.59768
605.7869
606.94348
608.03225
609.09199
610.1154
611.08412
611.99241
612.83416
613.6027
614.27946
614.88646
615.40681
568.90994
569.17739
569.49132
569.84697
570.24902
570.697
571.19137
571.73223
572.31964
572.95352
573.6336
574.35948
575.13054
575.94599
576.80489
577.70613
578.6484
579.63028
580.65013
581.7062
582.79653
583.91901
585.07137
586.25116
587.45577
588.68242
589.92816
591.18986
592.46425
593.74782
595.03694
596.32771
597.61606
598.89771
600.16853
601.38773
602.61363
603.82365
605.00466
606.15168
607.23015
608.28108
609.29234
610.24817
611.14291
611.97042
612.72138
613.38357
613.97539
614.47945
566.99818
567.34926
567.74067
568.17144
568.64365
569.15789
569.71468
570.31437
570.95715
571.64308
572.37201
573.14363
573.95747
574.81283
575.70888
576.64459
577.61877
578.63007
579.67693
580.75768
581.87042
583.01314
584.1836
585.37943
586.59809
587.83683
589.09278
590.36286
591.64383
592.93228
594.22457
595.51686
596.80502
598.08468
599.35166
600.56628
601.78792
602.99061
604.16283
605.29958
606.36722
607.40847
608.4068
609.34891
610.22937
611.04324
611.77152
612.42056
612.99601
613.48263
564.96762
565.40629
565.87998
566.38911
566.93516
567.51908
568.14159
568.80323
569.50434
570.24511
571.02552
571.8454
572.70436
573.60185
574.53711
575.50922
576.5171
577.55946
578.63485
579.74166
580.87808
582.04215
583.23172
584.44448
585.67793
586.92942
588.1961
589.47498
590.76286
592.05639
593.352
594.64588
595.93384
597.21126
598.47364
599.68339
600.9004
602.09536
603.25819
604.38376
605.43997
606.47066
607.45527
608.38271
609.24768
610.04514
610.75371
611.38733
611.94473
612.41274
562.81567
563.34585
563.90596
564.49701
565.12045
565.77747
566.46896
567.19564
567.95802
568.75642
569.59097
570.46159
571.36803
572.30984
573.28639
574.29684
575.3402
576.41528
577.52072
578.65497
579.81632
581.00288
582.21256
583.44312
584.69213
585.957
587.23494
588.52302
589.81811
591.11693
592.41598
593.71152
594.99936
596.27443
597.5308
598.73567
599.94778
601.13466
602.28758
603.40049
604.44481
605.46409
606.43416
607.34596
608.19423
608.97382
609.66322
610.27988
610.81786
611.26608
560.53994
561.16548
561.81584
562.49238
563.19669
563.93014
564.69381
565.4886
566.31516
567.17395
568.06524
568.98909
569.94535
570.93369
571.95357
573.00428
574.0849
575.19435
576.33135
577.49443
578.68197
579.89213
581.12291
582.37214
583.63745
584.91632
586.20603
587.5037
588.80629
590.11057
591.41315
592.71042
593.99835
595.27159
596.51867
597.71971
598.92672
600.10528
601.24821
602.34536
603.37808
604.38518
605.33985
606.23502
607.06548
607.82605
608.49588
609.09423
609.61161
610.03884
558.13844
558.86303
559.60727
560.37278
561.16133
561.97445
562.81343
563.6793
564.57288
565.49479
566.4454
567.42491
568.4333
569.47033
570.53558
571.62844
572.74809
573.89354
575.06359
576.25686
577.47181
578.70667
579.95953
581.22828
582.51063
583.8041
585.10607
586.41371
587.72404
589.03392
590.34006
591.63903
592.92735
594.20216
595.4301
596.63266
597.83384
599.00382
600.13896
601.21183
602.2365
603.2304
604.16875
605.04628
605.85785
606.59823
607.24772
607.82643
608.3221
608.72718
555.60967
556.4368
557.27834
558.13613
559.01214
559.90806
560.82535
561.76519
562.72857
563.71622
564.72866
565.76621
566.82897
567.91681
569.02943
570.16629
571.3267
572.50974
573.7143
574.93911
576.18267
577.44332
578.71921
580.0083
581.30838
582.61704
583.93172
585.24967
586.56796
587.88354
589.19318
590.49358
591.78137
593.05348
594.27152
595.47199
596.66534
597.82543
598.94869
600.00376
601.01796
601.99618
602.91719
603.77611
604.56773
605.28649
605.91481
606.47261
606.94546
607.32724
552.95271
553.88561
554.82762
555.78081
556.74732
557.72901
558.72746
559.74404
560.77985
561.83578
562.91247
564.01036
565.12965
566.27036
567.43226
568.61494
569.81778
571.03995
572.28045
573.53807
574.81141
576.09889
577.39872
578.70895
580.02743
581.35184
582.67966
584.00822
585.33467
586.656
587.96905
589.27055
590.55714
591.82543
593.0364
594.23341
595.4176
596.56659
597.67644
598.71557
599.71781
600.67886
601.58151
602.42092
603.19181
603.8866
604.49327
605.02897
605.47792
605.83524
550.16728
551.20889
552.25426
553.30571
554.36554
555.43575
556.51807
557.61398
558.72472
559.85131
560.99454
562.15495
563.33287
564.5284
565.74143
566.97164
568.21851
569.4813
570.7591
572.05077
573.35501
574.6703
575.99494
577.32706
578.66457
580.00523
581.34659
582.68604
584.0208
585.34791
586.66426
587.96659
589.25152
590.51558
591.72021
592.91285
594.08705
595.22397
596.31942
597.34285
598.33181
599.27468
600.15797
600.97708
601.72783
602.39309
602.97956
603.49186
603.91576
604.24749
547.25395
548.40678
549.558
550.71026
551.86599
553.02726
554.19592
555.37355
556.56154
557.76104
558.97294
560.19792
561.4364
562.6886
563.95449
565.23387
566.52628
567.83109
569.14747
570.47436
571.81054
573.15458
574.50485
575.85955
577.21667
578.57404
579.92929
581.27987
582.62307
583.95598
585.27552
586.57844
587.86136
589.12082
590.31912
591.50657
592.67021
593.79427
594.87417
595.88162
596.85605
597.77986
598.64273
599.44014
600.16776
600.80688
601.37098
601.85776
602.25546
602.56044
544.21438
545.48019
546.73924
547.99454
549.24849
550.50311
551.76032
553.02184
554.28917
555.5636
556.84613
558.13755
559.43839
560.74896
562.06933
563.39937
564.73874
566.08687
567.44301
568.80621
570.1753
571.54893
572.92557
574.30348
575.68073
577.05522
578.42466
579.78657
581.13829
582.477
583.79963
585.10293
586.38346
587.63787
588.82957
590.01107
591.16377
592.27445
593.33684
594.32814
595.28696
596.19087
597.03228
597.80673
598.50983
599.12332
599.66343
600.12335
600.49366
600.77076
541.05267
542.43074
543.79898
545.15929
546.51357
547.86355
549.21123
550.55851
551.90702
553.25815
554.61305
555.97259
557.3374
558.70787
560.08418
561.46626
562.85384
564.24647
565.64346
567.04392
568.44679
569.8508
571.25446
572.65613
574.05396
575.44592
576.82979
578.20317
579.56348
580.90796
582.23359
583.53707
584.81481
586.06343
587.24814
588.42298
589.56453
590.66204
591.70305
592.6792
593.62135
594.5045
595.32345
596.07384
596.75132
597.33875
597.85344
598.28543
598.62726
598.87542
537.79219
539.26993
540.73858
542.20598
543.66266
545.10963
546.54935
547.98391
549.41511
550.84446
552.27321
553.70231
555.13248
556.5642
557.99771
559.43302
560.86995
562.30811
563.74688
565.18547
566.62288
568.05791
569.48917
570.91507
572.33385
573.74354
575.14201
576.52695
577.89586
579.24605
580.57459
581.87814
583.15271
584.39417
585.57161
586.73899
587.86883
588.95422
589.96837
590.93361
591.85655
592.7179
593.51341
594.23874
594.8894
595.45008
595.93805
596.34115
596.65353
596.87175
534.3871
536.00787
537.57943
539.13707
540.6985
542.2434
543.77619
545.29917
546.81423
548.32298
549.82675
551.32659
552.82329
554.31737
555.80915
557.2987
558.78592
560.27047
561.75182
563.22925
564.70183
566.16843
567.62773
569.07823
570.51823
571.94584
573.35901
574.75551
576.13295
577.48874
578.82009
580.12375
581.39529
582.62637
583.79728
584.95644
586.07331
587.14292
588.13728
589.08802
589.98991
590.82854
591.59981
592.29931
592.92118
593.45474
593.91485
594.2882
594.57022
594.75761
530.86967
532.6039
534.30559
535.99177
537.62676
539.26779
540.89418
542.50627
544.10595
545.69492
547.27459
548.84606
550.41016
551.96747
553.51834
555.06293
556.60117
558.1328
559.65735
561.17417
562.6824
564.18097
565.66865
567.144
568.60539
570.05101
571.4789
572.88689
574.27269
575.63383
576.96776
578.27182
579.54389
580.75316
581.92403
583.07363
584.1765
585.22904
586.20482
587.13926
588.01919
588.83428
589.58073
590.2551
590.84283
591.35101
591.78211
592.1249
592.37573
592.53148
527.26504
529.0997
530.91846
532.71084
534.47823
536.19038
537.90662
539.60817
541.29281
542.96242
544.6185
546.26217
547.89426
549.51538
551.12592
552.72609
554.31586
555.89504
557.46322
559.0198
560.56399
562.0948
563.61105
565.11138
566.59422
568.05785
569.50035
570.91967
572.31357
573.67968
575.01554
576.3186
577.58642
578.78492
579.9515
581.08935
582.17737
583.21136
584.16861
585.0854
585.94269
586.73339
587.4538
588.1004
588.65786
589.1385
589.53895
589.85034
590.06923
590.19263
523.58457
525.51644
527.43053
529.32974
531.19897
533.04048
534.82325
536.60903
538.37837
540.1286
541.86125
543.57734
545.27769
546.9629
548.6334
550.28942
551.93098
553.55795
555.16996
556.76649
558.34678
559.90992
561.45478
562.98008
564.48431
565.96582
567.42278
568.85318
570.25485
571.62549
572.96267
574.26385
575.52643
576.71671
577.87748
579.00285
580.07566
581.08821
582.02771
582.9257
583.75971
584.52523
585.21868
585.83658
586.36443
586.81623
587.18519
587.46449
587.65081
587.7413
519.78329
521.86496
523.8681
525.85669
527.82691
529.76506
531.67347
533.51945
535.36725
537.19764
539.0067
540.79514
542.56368
544.31293
546.04335
547.7552
549.44854
551.12328
552.77911
554.41553
556.03186
557.62724
559.2006
560.75071
562.27615
563.77532
565.24646
566.68762
568.0967
569.47143
570.8094
572.10809
573.36495
574.54732
575.70105
576.81362
577.87325
578.85632
579.78375
580.66066
581.47066
582.21029
582.87607
583.46461
583.96272
584.38471
584.72167
584.96838
585.12168
585.17883
515.90803
518.09982
520.24758
522.31451
524.37086
526.40416
528.40464
530.37268
532.2675
534.17473
536.06004
537.92046
539.75676
541.56963
543.35958
545.12691
546.87172
548.59394
550.29329
551.96934
553.62144
555.24878
556.85035
558.42497
559.97129
561.48777
562.97272
564.42426
565.84035
567.21874
568.55702
569.85266
571.10321
572.27735
573.42275
574.52125
575.56397
576.52607
577.43755
578.29169
579.07704
579.79026
580.42783
580.98628
581.45439
581.84588
582.15055
582.36435
582.48435
582.50795
511.97155
514.27015
516.52151
518.72729
520.84977
522.96676
525.05929
527.12318
529.10765
531.06695
533.02832
534.95987
536.863
538.73864
540.58734
542.40945
544.20509
545.9742
547.71653
549.43169
551.11906
552.77787
554.40717
556.00584
557.57257
559.1059
560.6042
562.06566
563.48832
564.86996
566.20814
567.50018
568.74342
569.90902
571.04513
572.12893
573.15376
574.09664
574.99049
575.82135
576.58166
577.26817
577.87731
578.40453
578.84277
579.20335
579.47558
579.65636
579.74297
579.73299
505.53581
507.9885
510.38958
512.741
515.044
517.29913
519.46387
521.63984
523.78089
525.88201
527.90866
529.92129
531.92192
533.89025
535.82727
537.73353
539.60935
541.45483
543.26993
545.05441
546.80789
548.52979
550.21939
551.87576
553.49783
555.08435
556.63393
558.14501
559.61586
561.0446
562.42914
563.76707
565.05531
566.28856
567.44615
568.57266
569.64166
570.64667
571.57123
572.44646
573.25385
573.98887
574.64862
575.23041
575.72288
576.13351
576.46267
576.70243
576.8502
576.90353
576.86013
501.42335
503.97495
506.47316
508.92015
511.31854
513.67414
515.93156
518.16488
520.38517
522.56358
524.70129
526.76318
528.81678
530.84813
532.8447
534.80691
536.73499
538.629
540.48886
542.31436
544.10511
545.86057
547.58003
549.26261
550.90727
552.51282
554.07792
555.60108
557.08066
558.51492
559.90202
561.24016
562.52814
563.73892
564.89495
566.01197
567.06889
568.04468
568.95612
569.81173
570.59554
571.30504
571.93757
572.49054
572.95257
573.33399
573.63139
573.83878
573.95379
573.97416
573.89777
497.30539
499.94939
502.53841
505.07429
507.55869
509.99309
512.37607
514.66886
516.94845
519.20093
521.41051
523.57702
525.65956
527.74816
529.80216
531.81838
533.79691
535.73777
537.64086
539.50594
541.33264
543.12043
544.86862
546.57635
548.24263
549.86629
551.44605
552.98047
554.468
555.90696
557.29562
558.63221
559.91504
561.11489
562.26531
563.36943
564.41027
565.36554
566.2617
567.09535
567.85533
568.5392
569.14448
569.66869
570.10139
570.45335
570.71931
570.89474
570.97748
570.96547
570.85674
493.20346
495.93288
498.60619
501.22492
503.79042
506.30378
508.76555
511.17596
513.48972
515.80907
518.08903
520.32934
522.47851
524.60391
526.71323
528.78125
530.8081
532.7938
534.73824
536.64118
538.50224
540.32089
542.09646
543.82809
545.51483
547.15555
548.749
550.29378
551.7884
553.23122
554.62055
555.95461
557.23155
558.42285
559.56621
560.65645
561.68041
562.61729
563.49696
564.30849
565.04464
565.70304
566.28132
566.77718
567.18116
567.50386
567.739
567.88317
567.93441
567.89088
567.75075
489.14122
491.94864
494.69934
497.39462
500.03572
502.62404
505.16161
507.65284
510.04064
512.40303
514.74604
517.04221
519.28816
521.44368
523.59458
525.71167
527.78433
529.81252
531.79614
533.73492
535.62849
537.4763
539.27767
541.03179
542.73769
544.39429
546.00035
547.55453
549.05536
550.50126
551.89054
553.22146
554.49225
555.67551
556.81105
557.8874
558.89311
559.81272
560.67537
561.46521
562.17793
562.81129
563.36306
563.83111
564.20708
564.50105
564.70628
564.82017
564.84097
564.76705
564.59671
485.14456
488.02217
490.84287
493.6077
496.31763
498.97368
501.57683
504.12746
506.62222
509.01653
511.4093
513.76385
516.07342
518.28807
520.46555
522.62891
524.74454
526.81256
528.83287
530.80521
532.72918
534.60422
536.42965
538.20465
539.92827
541.59945
543.21699
544.77957
546.28575
547.73397
549.12256
550.44983
551.71416
552.88953
554.01733
555.08276
556.06161
556.96869
557.81448
558.58329
559.27323
559.88229
560.40831
560.849
561.19793
561.46409
561.6406
561.72546
561.71714
561.61422
561.41517
481.24178
484.18149
487.0645
489.89155
492.66337
495.38073
498.04456
500.65623
503.21875
505.67629
508.10049
510.50595
512.85991
515.15901
517.36312
519.55616
521.71133
523.81612
525.87035
527.87371
529.82575
531.72589
533.57344
535.36758
537.10736
538.79173
540.41954
541.98949
543.50018
544.95005
546.33741
547.66045
548.91756
550.08459
551.20316
552.25457
553.21562
554.10981
554.9365
555.68469
556.3526
556.93842
557.44006
557.85298
558.17648
558.41621
558.56548
558.62283
558.58698
558.45672
558.23067
477.46374
480.45733
483.39478
486.27652
489.10296
491.87453
494.59165
497.25457
499.86283
502.41284
504.86043
507.30333
509.70367
512.0545
514.30724
516.51946
518.71099
520.84936
522.93452
524.96614
526.94373
528.86667
530.73426
532.54566
534.29992
535.99603
537.63284
539.20911
540.7235
542.17449
543.56036
544.87892
546.12679
547.28569
548.39474
549.43252
550.37834
551.25916
552.06726
552.79551
553.44221
554.0057
554.48444
554.87081
555.17107
555.38548
555.50905
555.54059
555.47902
555.32332
555.07226
473.8441
476.88341
479.86741
482.79624
485.67003
488.48892
491.25304
493.9626
496.6181
499.22153
501.71869
504.18434
506.62352
509.00754
511.33274
513.56018
515.77481
517.94296
520.0558
522.11275
524.11322
526.05654
527.94196
529.76864
531.53565
533.24195
534.88644
536.46795
537.98523
539.437
540.82204
542.1396
543.36668
544.52297
545.62308
546.64784
547.57965
548.44695
549.23749
549.94686
550.57347
551.11579
551.57237
551.93607
552.21387
552.40457
552.50428
552.51197
552.42674
552.24774
551.97388
470.41961
473.49667
476.51947
479.48788
482.40173
485.26087
488.0651
490.81411
493.50735
496.14364
498.71954
501.19299
503.66347
506.08278
508.44773
510.70752
512.93654
515.13186
517.26944
519.34881
521.3694
523.33057
525.23156
527.07149
528.84944
530.56437
532.2152
533.80079
535.31993
536.7714
538.15398
539.46646
540.68462
541.83597
542.92541
543.93628
544.85524
545.70943
546.48365
547.17547
547.78344
548.30615
548.74231
549.08545
549.3425
549.51155
549.58954
549.5756
549.469
549.26905
548.97479
467.23044
470.33766
473.39182
476.39252
479.33934
482.23186
485.06969
487.85238
490.57948
493.25071
495.86639
498.37084
500.86027
503.3102
505.70648
508.00179
510.23874
512.45767
514.61665
516.71526
518.7531
520.72953
522.64375
524.49489
526.28198
528.00401
529.65987
531.24844
532.76855
534.21899
535.59853
536.90591
538.11777
539.26471
540.34651
541.33533
542.24713
543.08896
543.84838
544.5242
545.11518
545.62011
546.03784
546.36249
546.60081
546.75051
546.80915
546.77602