/*--------------------------------*- C++ -*----------------------------------*\
| =========                 |                                                 |
| \\      /  F ield         | OpenFOAM: The Open Source CFD Toolbox           |
|  \\    /   O peration     | Version:  2312                                  |
|   \\  /    A nd           | Website:  www.openfoam.com                      |
|    \\/     M anipulation  |                                                 |
\*---------------------------------------------------------------------------*/
FoamFile
{
    version     2.0;
    format      ascii;
    arch        "LSB;label=32;scalar=64";
    class       volScalarField;
    location    "0.09";
    object      CH4;
}
// * * * * * * * * * * * * * * * * * * * * * * * * * * * * * * * * * * * * * //

dimensions      [0 0 0 0 0 0 0];

internalField   nonuniform List<scalar> 
3250
(
0.032787534
0.032335714
0.031877314
0.031412716
0.030942508
0.030467301
0.029987704
0.02950432
0.029017745
0.028528563
0.02803735
0.027544667
0.027051063
0.026557073
0.026063215
0.025569991
0.025077886
0.024587366
0.02409888
0.023612856
0.023129703
0.022649811
0.022173549
0.021701267
0.021233295
0.02076994
0.020311494
0.019858226
0.019410388
0.018968212
0.018531912
0.018101686
0.017677712
0.017260155
0.016849161
0.016444865
0.016047385
0.015656825
0.015273279
0.014896828
0.014527545
0.014165492
0.013810732
0.013463338
0.032918646
0.032463403
0.032001567
0.031533546
0.031059941
0.030581371
0.03009845
0.029611784
0.029121971
0.028629601
0.028135249
0.02763948
0.027142844
0.026645878
0.026149103
0.02565302
0.025158116
0.02466486
0.024173699
0.023685063
0.023199362
0.022716986
0.022238306
0.021763669
0.021293406
0.020827826
0.020367218
0.019911852
0.01946198
0.019017832
0.018579622
0.018147546
0.017721784
0.017302496
0.016889831
0.01648392
0.016084879
0.015692812
0.015307809
0.014929947
0.014559291
0.014195892
0.013839799
0.013491143
0.033162721
0.032701003
0.032232747
0.031758366
0.031278464
0.030793665
0.03030459
0.02981185
0.029316048
0.028817776
0.028317614
0.027816133
0.027313884
0.026811408
0.026309228
0.025807849
0.02530776
0.02480943
0.02431331
0.023819831
0.023329404
0.02284242
0.022359248
0.021880239
0.021405722
0.020936006
0.02047138
0.020012113
0.019558455
0.019110638
0.018668872
0.018233353
0.017804258
0.017381747
0.016965966
0.016557043
0.016155093
0.015760217
0.015372502
0.014992024
0.014618844
0.014253012
0.013894578
0.013543671
0.033503711
0.033032967
0.03255577
0.032072535
0.031583873
0.031090415
0.030592786
0.030091604
0.029587477
0.029081003
0.028572769
0.028063346
0.027553295
0.027043159
0.026533463
0.026024718
0.025517415
0.025012027
0.024509005
0.024008784
0.023511775
0.02301837
0.022528941
0.022043838
0.02156339
0.021087907
0.020617675
0.020152965
0.019694024
0.019241083
0.01879435
0.01835402
0.017920267
0.01749325
0.01707311
0.016659974
0.016253955
0.015855149
0.015463642
0.015079505
0.014702797
0.014333565
0.013971857
0.013617802
0.033926975
0.033445061
0.0329568
0.032462614
0.03196312
0.031458955
0.030950752
0.030439135
0.029924718
0.029408107
0.028889894
0.028370657
0.027850961
0.027331353
0.026812366
0.026294513
0.025778288
0.025264168
0.024752608
0.024244043
0.023738887
0.023237535
0.022740358
0.022247707
0.021759911
0.02127728
0.0208001
0.02032864
0.019863147
0.019403848
0.018950953
0.018504651
0.018065115
0.017632501
0.017206947
0.016788578
0.016377501
0.015973811
0.01557759
0.015188905
0.014807811
0.014434352
0.014068572
0.013710599
0.034419253
0.033924382
0.033423289
0.032916403
0.032404348
0.031887771
0.031367309
0.030843597
0.030317255
0.029788895
0.029259117
0.028728505
0.028197629
0.027667045
0.027137287
0.026608874
0.026082305
0.02555806
0.025036597
0.024518354
0.024003748
0.023493173
0.022987004
0.022485591
0.021989264
0.021498333
0.021013083
0.020533781
0.020060674
0.019593987
0.019133926
0.01868068
0.018234418
0.017795292
0.017363439
0.016938979
0.016522015
0.01611264
0.015710929
0.015316946
0.014930743
0.01455236
0.014181835
0.013819294
0.034968548
0.034459255
0.033943876
0.03342285
0.032896813
0.032366419
0.031832315
0.031295142
0.03075553
0.030214097
0.029671452
0.029128184
0.028584871
0.028042072
0.02750033
0.026960167
0.026422087
0.025886574
0.025354088
0.024825072
0.024299944
0.023779101
0.023262916
0.022751744
0.022245914
0.021745733
0.021251489
0.020763447
0.020281851
0.019806925
0.019338873
0.01887788
0.018424114
0.017977722
0.017538838
0.017107578
0.016684042
0.016268316
0.015860474
0.015460574
0.015068663
0.014684776
0.014308947
0.013941298
0.035564005
0.035039143
0.034508304
0.033971975
0.033430804
0.032885457
0.032336591
0.031784855
0.031230888
0.030675317
0.030118754
0.029561799
0.029005035
0.028449027
0.027894324
0.027341453
0.026790923
0.02624322
0.025698811
0.02515814
0.024621627
0.024089672
0.023562649
0.023040914
0.022524795
0.022014601
0.021510618
0.021013109
0.020522318
0.020038467
0.019561756
0.019092369
0.018630468
0.0181762
0.017729693
0.017291059
0.016860394
0.016437781
0.016023287
0.015616966
0.01521886
0.014828999
0.014447411
0.014074217
0.036195754
0.035654582
0.035107357
0.034554791
0.033997571
0.033436373
0.032871862
0.032304696
0.031735522
0.031164972
0.030593669
0.030022217
0.029451207
0.028881211
0.028312781
0.027746451
0.027182735
0.026622122
0.026065084
0.025512066
0.024963493
0.024419764
0.023881258
0.023348329
0.022821306
0.022300499
0.021786191
0.021278647
0.020778106
0.020284789
0.019798895
0.019320602
0.018850072
0.018387447
0.01793285
0.01748639
0.017048158
0.016618232
0.016196674
0.015783534
0.015378849
0.014982642
0.014594937
0.014215848
0.037953219
0.03740779
0.036855697
0.036297133
0.035732744
0.035163222
0.034589254
0.034011521
0.033430695
0.032847442
0.032262413
0.031676252
0.031089586
0.030503027
0.029917171
0.029332597
0.028749864
0.028169509
0.027592052
0.027017986
0.026447786
0.0258819
0.025320757
0.024764757
0.02421428
0.02366968
0.02313129
0.022599415
0.022074342
0.02155633
0.02104562
0.020542429
0.020046953
0.01955937
0.019079835
0.018608487
0.018145446
0.017690816
0.017244684
0.016807122
0.016378188
0.015957927
0.015546369
0.015143532
0.014749435
0.014364187
0.038669203
0.038105746
0.037535561
0.0369591
0.036377029
0.03579004
0.035198824
0.034604065
0.034006444
0.033406632
0.032805289
0.032203064
0.031600591
0.030998489
0.030397362
0.029797793
0.029200345
0.028605565
0.028013972
0.027426067
0.026842327
0.026263205
0.025689128
0.025120503
0.024557709
0.024001101
0.023451012
0.022907748
0.022371593
0.021842808
0.021321629
0.020808272
0.020302932
0.01980578
0.019316972
0.01883664
0.018364901
0.017901855
0.017447584
0.017002155
0.01656562
0.01613802
0.015719378
0.015309708
0.014909021
0.014517422
0.039399052
0.038816998
0.038228382
0.037633692
0.037033605
0.036428818
0.035820027
0.035207926
0.034593199
0.033976524
0.033358569
0.032739988
0.032121424
0.031503502
0.030886829
0.030271997
0.029659574
0.02905011
0.028444131
0.027842141
0.02724462
0.026652024
0.026064784
0.025483307
0.024907974
0.024339142
0.023777143
0.023222282
0.022674844
0.022135087
0.021603247
0.021079537
0.020564148
0.020057251
0.019558995
0.01906951
0.01858891
0.018117287
0.017654721
0.017201274
0.016756992
0.016321909
0.015896046
0.015479408
0.015072002
0.014673928
0.040136124
0.03953526
0.038928024
0.038314922
0.037696638
0.037073877
0.036447342
0.035817731
0.035185735
0.034552041
0.03391732
0.033282236
0.032647435
0.03201355
0.031381195
0.030750965
0.030123435
0.029499159
0.028878667
0.028262469
0.027651046
0.027044858
0.026444339
0.025849896
0.025261914
0.024680748
0.02410673
0.023540169
0.022981344
0.022430515
0.021887916
0.021353756
0.020828225
0.020311489
0.019803695
0.01930497
0.018815421
0.018335139
0.017864197
0.017402651
0.016950544
0.016507904
0.016074746
0.015651069
0.015236875
0.014832256
0.040874748
0.040255008
0.039629099
0.038997536
0.038361012
0.037720237
0.037075919
0.036428763
0.035779468
0.035128724
0.034477212
0.033825599
0.03317454
0.032524671
0.031876614
0.031230967
0.030588313
0.029949208
0.029314189
0.028683766
0.028058426
0.027438631
0.026824816
0.026217393
0.025616745
0.02502323
0.02443718
0.023858901
0.023288675
0.022726758
0.022173382
0.021628756
0.021093066
0.020566476
0.020049128
0.019541145
0.019042631
0.018553672
0.018074336
0.017604675
0.017144727
0.016694513
0.016254042
0.01582331
0.01540231
0.014991131
0.041609979
0.040971423
0.040326909
0.039676958
0.039022269
0.038363556
0.037701534
0.037036914
0.036370401
0.035702691
0.03503447
0.034366413
0.033699179
0.033033411
0.032369735
0.031708755
0.031051058
0.030397205
0.029747737
0.029103167
0.028463986
0.027830658
0.027203622
0.026583288
0.025970043
0.025364244
0.024766225
0.024176292
0.023594724
0.023021776
0.02245768
0.021902642
0.021356844
0.020820447
0.020293592
0.019776397
0.019268962
0.018771367
0.018283677
0.017805939
0.017338184
0.01688043
0.016432679
0.015994923
0.015567147
0.015149435
0.042337525
0.041680337
0.041017396
0.040349234
0.039676557
0.039000084
0.038320538
0.037638633
0.036955081
0.036270584
0.035585834
0.034901511
0.034218278
0.033536785
0.032857662
0.03218152
0.031508947
0.030840512
0.030176756
0.029518198
0.028865331
0.028218621
0.02757851
0.026945411
0.026319709
0.025701764
0.025091909
0.024490449
0.023897664
0.023313808
0.022739108
0.022173771
0.021617975
0.021071878
0.020535618
0.020009309
0.019493047
0.018986908
0.018490952
0.018005221
0.017529741
0.017064525
0.01660957
0.016164861
0.015730378
0.015306199
0.043053685
0.042378183
0.041697089
0.041010983
0.040320582
0.039626615
0.038929808
0.038230883
0.037530555
0.036829534
0.036128514
0.035428181
0.034729205
0.03403224
0.033337919
0.032646858
0.031959652
0.031276869
0.030599058
0.029926739
0.029260408
0.028600536
0.027947563
0.027301904
0.026663948
0.026034054
0.025412554
0.024799754
0.024195933
0.023601342
0.02301621
0.022440737
0.021875103
0.021319461
0.020773945
0.020238667
0.019713717
0.019199168
0.018695075
0.018201475
0.017718391
0.017245829
0.016783781
0.016332226
0.01589114
0.015460593
0.043755296
0.043061966
0.042363065
0.041659348
0.040951559
0.040240433
0.039526702
0.038811093
0.038094324
0.03737711
0.03666015
0.035944134
0.035229736
0.034517615
0.033808409
0.033102738
0.0324012
0.031704368
0.031012793
0.030326999
0.029647484
0.028974721
0.028309153
0.027651197
0.02700124
0.026359644
0.025726741
0.025102835
0.024488205
0.023883102
0.023287751
0.022702352
0.02212708
0.021562089
0.021007506
0.02046344
0.019929979
0.019407191
0.018895126
0.018393817
0.017903281
0.01742352
0.016954521
0.016496258
0.0160487
0.015611912
0.045145551
0.044440314
0.043729243
0.043012877
0.042291936
0.041567156
0.040839271
0.040109015
0.039377118
0.038644302
0.037911285
0.037178771
0.036447455
0.035718013
0.034991108
0.034267384
0.033547464
0.032831948
0.032121414
0.031416416
0.030717481
0.03002511
0.029339777
0.028661926
0.027991977
0.027330317
0.026677309
0.026033284
0.025398547
0.024773375
0.024158019
0.023552701
0.02295762
0.022372949
0.021798836
0.021235408
0.02068277
0.020141006
0.019610179
0.019090336
0.018581505
0.018083698
0.017596913
0.017121131
0.01665632
0.016202446
0.015759568
0.045828935
0.045106183
0.044377856
0.043644484
0.042906774
0.042165456
0.041421264
0.040674934
0.039927196
0.039178777
0.038430397
0.037682764
0.036936575
0.036192512
0.035451241
0.03471341
0.033979643
0.033250547
0.032526701
0.031808662
0.03109696
0.030392098
0.029694552
0.029004768
0.028323167
0.027650137
0.026986041
0.026331211
0.025685951
0.025050536
0.024425217
0.023810215
0.023205726
0.02261192
0.022028943
0.02145692
0.020895952
0.020346117
0.019807478
0.019280074
0.018763932
0.018259057
0.017765443
0.017283066
0.016811891
0.016351875
0.015903075
0.04649075
0.045751135
0.045006105
0.044256245
0.043502272
0.042744916
0.041984914
0.041223001
0.040459911
0.039696372
0.038933107
0.038170828
0.037410233
0.03665201
0.035896827
0.035145333
0.034398159
0.033655913
0.032919177
0.032188512
0.031464448
0.030747493
0.030038122
0.029336785
0.028643903
0.027959864
0.027285033
0.02661974
0.02596429
0.025318958
0.024683992
0.024059612
0.023446012
0.02284336
0.0222518
0.021671453
0.021102416
0.020544765
0.019998558
0.019463832
0.018940607
0.018428885
0.017928655
0.01743989
0.016962548
0.016496582
0.016042044
0.047129646
0.046373856
0.045612686
0.044846884
0.044077186
0.043304328
0.042529046
0.041752076
0.040974155
0.040196012
0.039418372
0.038641949
0.037867446
0.037095551
0.036326936
0.035562255
0.034802139
0.0340472
0.033298023
0.032555171
0.031819177
0.031090549
0.030369766
0.029657278
0.028953507
0.028258844
0.027573651
0.02689826
0.026232975
0.02557807
0.024933792
0.02430036
0.023677965
0.023066774
0.022466929
0.021878545
0.021301719
0.020736522
0.020183009
0.019641212
0.019111148
0.018592815
0.018086196
0.017591261
0.017107962
0.01663625
0.016176169
0.048511065
0.047745065
0.046973402
0.046196623
0.045415441
0.044630584
0.043842785
0.043052779
0.042261304
0.041469097
0.040676889
0.039885406
0.039095366
0.038307472
0.037522417
0.036740874
0.035963499
0.035190927
0.034423772
0.033662623
0.032908042
0.032160566
0.031420706
0.03068894
0.029965722
0.029251473
0.028546585
0.02785142
0.027166311
0.026491561
0.025827443
0.025174204
0.024532059
0.0239012
0.02328179
0.022673969
0.02207785
0.021493525
0.020921065
0.020360518
0.019811915
0.019275266
0.018750567
0.018237797
0.01773692
0.017247886
0.016770638
0.01630522
0.049117406
0.048335904
0.047548992
0.046757203
0.045961231
0.0451618
0.044359641
0.043555487
0.042750077
0.041944147
0.041138431
0.040333656
0.039530541
0.038729791
0.037932101
0.037138148
0.036348588
0.035564061
0.034785181
0.03401254
0.033246703
0.032488208
0.031737568
0.030995262
0.030261746
0.02953744
0.028822739
0.028118004
0.027423568
0.026739733
0.026066773
0.025404932
0.024754425
0.024115441
0.023488142
0.022872665
0.022269121
0.021677599
0.021098166
0.020530867
0.019975728
0.019432758
0.018901946
0.018383269
0.017876686
0.017382142
0.016899577
0.016429031
0.049697893
0.048901651
0.048100146
0.047293966
0.046483813
0.04567041
0.044854485
0.044036772
0.043218009
0.042398932
0.041580276
0.040762769
0.039947131
0.03913407
0.038324282
0.037518445
0.03671722
0.035921247
0.035131142
0.034347499
0.033570886
0.032801843
0.032040882
0.031288487
0.030545112
0.029811179
0.029087084
0.028373187
0.027669822
0.026977291
0.026295865
0.025625789
0.024967276
0.024320514
0.023685662
0.023062854
0.022452201
0.021853787
0.021267677
0.020693912
0.020132515
0.019583491
0.019046825
0.01852249
0.01801044
0.017510617
0.017022957
0.016547496
0.050252332
0.049442089
0.048626629
0.047806681
0.046982963
0.046156196
0.045327108
0.044496432
0.043664905
0.042833263
0.042002242
0.041172569
0.040344966
0.039520144
0.038698799
0.037881611
0.037069243
0.036262337
0.035461511
0.034667362
0.033880457
0.03310134
0.032330523
0.031568492
0.030815701
0.030072575
0.029339508
0.028616862
0.027904969
0.027204132
0.026514621
0.02583668
0.02517052
0.024516328
0.023874262
0.023244453
0.022627009
0.022022012
0.021429523
0.020849581
0.020282207
0.019727399
0.01918514
0.018655398
0.018138124
0.017633254
0.01714072
0.016660558
0.051599418
0.05078108
0.049957227
0.049128406
0.048295308
0.047458641
0.046619123
0.045777478
0.044934438
0.044090738
0.043247114
0.042404302
0.041563031
0.040724024
0.03988799
0.03905563
0.038227624
0.037404637
0.036587312
0.03577627
0.034972109
0.034175397
0.03338668
0.032606472
0.031835259
0.031073497
0.030321611
0.029579994
0.02884901
0.028128992
0.02742024
0.026723025
0.026037588
0.025364142
0.02470287
0.024053928
0.023417447
0.02279353
0.022182259
0.021583691
0.020997863
0.02042479
0.019864469
0.01931688
0.018781984
0.018259728
0.017750043
0.017252858
0.016768202
0.052115519
0.051283957
0.050447144
0.04960559
0.048759966
0.047910969
0.047059311
0.046205713
0.045350905
0.044495621
0.043640597
0.042786568
0.041934264
0.041084408
0.040237712
0.039394875
0.038556581
0.037723495
0.036896263
0.036075506
0.035261824
0.034455788
0.033657943
0.032868805
0.032088862
0.031318569
0.030558352
0.029808607
0.029069696
0.02834195
0.027625672
0.026921131
0.026228567
0.025548192
0.024880187
0.024224707
0.02358188
0.022951809
0.022334571
0.021730222
0.021138795
0.020560303
0.019994739
0.019442079
0.018902281
0.018375286
0.01786102
0.0173594
0.016870447
0.052605254
0.051761202
0.050912093
0.050058442
0.049200915
0.048340202
0.047477011
0.046612059
0.045746075
0.044879791
0.044013943
0.043149264
0.042286486
0.041426332
0.040569515
0.039716734
0.038868676
0.038026006
0.037189372
0.036359396
0.035536679
0.034721794
0.033915287
0.033117676
0.032329448
0.031551061
0.03078294
0.030025481
0.029279047
0.028543969
0.027820549
0.027109056
0.026409729
0.025722777
0.025048383
0.024386698
0.023737849
0.023101936
0.022479035
0.021869199
0.021272459
0.020688823
0.020118284
0.019560812
0.019016362
0.018484871
0.017966256
0.017460418
0.016967344
0.05306911
0.052213227
0.051352465
0.050487347
0.049618533
0.048746712
0.047872587
0.046996873
0.046120296
0.045243587
0.044367481
0.043492712
0.04262001
0.0417501
0.040883694
0.040021494
0.039164187
0.03831244
0.0374669
0.036628192
0.035796918
0.034973653
0.034158943
0.033353306
0.032557232
0.031771179
0.030995572
0.030230808
0.029477249
0.028735227
0.028005043
0.027286965
0.026581232
0.025888053
0.025207606
0.024540044
0.023885491
0.023244045
0.02261578
0.022000747
0.021398973
0.020810465
0.020235213
0.019673183
0.019124329
0.018588582
0.018065855
0.01755603
0.017059005
0.053507631
0.05264055
0.051768762
0.050892792
0.050013299
0.049130967
0.048246496
0.0473606
0.046474002
0.045587432
0.044701624
0.043817312
0.042935226
0.04205609
0.041180618
0.040309513
0.039443461
0.038583132
0.037729173
0.036882211
0.036042848
0.03521166
0.034389196
0.033575973
0.032772482
0.031979182
0.031196499
0.030424829
0.029664535
0.028915949
0.02817937
0.027455068
0.026743279
0.026044212
0.025358044
0.024684926
0.02402498
0.023378303
0.022744966
0.022125018
0.021518486
0.020925372
0.020345664
0.019779326
0.01922631
0.018686545
0.018159945
0.017646401
0.017145858
0.01665824
0.05392144
0.053043776
0.052161572
0.051275351
0.050385771
0.049493512
0.048599271
0.04770376
0.0468077
0.04591182
0.045016854
0.044123533
0.043232589
0.042344745
0.041460717
0.040581207
0.039706903
0.038838474
0.03797657
0.037121819
0.036274824
0.035436161
0.034606379
0.033785998
0.032975509
0.032175371
0.031386011
0.030607824
0.029841176
0.029086395
0.028343783
0.027613607
0.026896104
0.026191481
0.025499914
0.024821552
0.024156517
0.023504903
0.022866781
0.022242195
0.021631171
0.02103371
0.020449797
0.019879394
0.019322451
0.018778897
0.018248648
0.017731604
0.017227674
0.01673695
0.054311225
0.053423578
0.052531551
0.051635665
0.050736575
0.049834958
0.048931508
0.048026934
0.047121956
0.046217302
0.045313703
0.044411894
0.043512603
0.042616555
0.041724466
0.040837038
0.03995496
0.039078902
0.038209515
0.037347427
0.036493241
0.035647537
0.034810863
0.03398374
0.033166659
0.032360081
0.031564431
0.030780107
0.030007473
0.029246858
0.028498563
0.027762854
0.027039969
0.026330111
0.025633459
0.024950158
0.024280329
0.023624064
0.022981432
0.022352478
0.021737222
0.021135666
0.020547791
0.019973559
0.019412915
0.018865792
0.018332104
0.017811755
0.01730465
0.016810845
0.054677731
0.053780683
0.05287941
0.051974429
0.051066389
0.050155965
0.049243848
0.048330746
0.047417378
0.046504469
0.045592751
0.044682957
0.043775816
0.042872052
0.041972381
0.041077506
0.040188117
0.039304885
0.038428461
0.037559474
0.036698528
0.035846203
0.035003048
0.034169586
0.033346308
0.032533673
0.03173211
0.030942015
0.030163752
0.029397652
0.028644013
0.027903102
0.027175155
0.026460376
0.025758941
0.025070996
0.024396658
0.02373602
0.023089148
0.022456084
0.021836849
0.021231441
0.020639839
0.020062004
0.019497881
0.018947398
0.018410472
0.017887005
0.017376898
0.016880172
0.055021742
0.054115862
0.053205901
0.052292374
0.051375926
0.050457229
0.049536972
0.04861586
0.047694611
0.04677395
0.045854607
0.044937315
0.044022802
0.043111794
0.042205005
0.04130314
0.040406887
0.03951692
0.03863389
0.037758426
0.036891135
0.036032595
0.035183357
0.034343945
0.033514849
0.03269653
0.031889416
0.031093905
0.030310359
0.029539109
0.028780454
0.02803466
0.027301962
0.026582563
0.025876639
0.025184333
0.024505763
0.023841019
0.023190166
0.022553244
0.021930273
0.021321247
0.020726146
0.020144928
0.019577536
0.019023897
0.018483926
0.017957523
0.017444585
0.016945113
0.055344078
0.054429914
0.053511807
0.052590265
0.051665932
0.050739476
0.049811585
0.048882963
0.047954325
0.047026396
0.046099905
0.045175583
0.044254161
0.043336362
0.042422902
0.041514485
0.040611801
0.039715522
0.038826301
0.037944769
0.037071531
0.036207167
0.035352229
0.034507241
0.033672693
0.032849048
0.032036734
0.031236146
0.03044765
0.029671575
0.028908219
0.028157849
0.027420699
0.026696971
0.02598684
0.025290448
0.024607911
0.023939319
0.023284734
0.022644197
0.022017723
0.021405307
0.020806925
0.020222535
0.019652077
0.019095477
0.018552648
0.018023488
0.017507888
0.01700584
0.055645576
0.054723661
0.053797929
0.052868885
0.051937169
0.051003449
0.050068412
0.049132758
0.048197204
0.047262472
0.046329292
0.045398393
0.044470505
0.043546352
0.04262665
0.041712103
0.040803401
0.039901218
0.039006206
0.038118996
0.037240195
0.036370383
0.035510114
0.034659909
0.033820262
0.032991634
0.032174454
0.031369119
0.030575991
0.029795403
0.02902765
0.028272999
0.027531684
0.026803906
0.026089839
0.025389624
0.024703377
0.024031184
0.023373108
0.022729187
0.022099435
0.021483846
0.020882394
0.020295034
0.019721706
0.019162333
0.018616826
0.018085082
0.017566986
0.017062527
0.05592709
0.054997938
0.054065082
0.053129026
0.05219041
0.051249901
0.050308184
0.049365961
0.048423944
0.047482856
0.046543426
0.045606382
0.044672455
0.043742367
0.042816834
0.041896562
0.04098224
0.040074542
0.039174121
0.038281609
0.037397613
0.036522714
0.035657465
0.03480239
0.033957981
0.0331247
0.032302977
0.031493207
0.030695756
0.029910951
0.029139093
0.028380444
0.027635239
0.02690368
0.026185936
0.025482151
0.024792438
0.024116882
0.023455546
0.022808464
0.02217565
0.021557096
0.020952775
0.02036264
0.019786628
0.019224662
0.018676651
0.018142488
0.017622058
0.017115343
0.056189476
0.055253587
0.054314086
0.053371487
0.052426433
0.051479589
0.050531641
0.049583288
0.048635243
0.047688227
0.046742968
0.045800194
0.044860634
0.043925012
0.042994044
0.042068433
0.041148872
0.040236032
0.039330569
0.038433114
0.037544275
0.036664633
0.035794742
0.034935126
0.034086278
0.03324866
0.032422701
0.031608798
0.030807315
0.030018581
0.029242895
0.02848052
0.027731689
0.026996603
0.026275433
0.025568319
0.024875374
0.024196683
0.023532306
0.022882277
0.022246607
0.021625288
0.021018291
0.020425566
0.01984705
0.019282664
0.018732314
0.018195892
0.017673281
0.017164461
0.05643359
0.05549145
0.054545761
0.053597066
0.052646012
0.051693267
0.050739515
0.049785454
0.048831796
0.047879261
0.046928576
0.045980468
0.045035666
0.044094893
0.043158865
0.042228286
0.041303848
0.040386223
0.039476068
0.038574013
0.037680667
0.036796612
0.035922401
0.035058559
0.03420558
0.033363926
0.032534026
0.031716277
0.030911042
0.030118652
0.029339403
0.02857356
0.027821355
0.027082987
0.026358628
0.025648416
0.024952464
0.024270855
0.023603647
0.022950874
0.022312547
0.021688654
0.021079163
0.020484027
0.019903178
0.019336536
0.018784006
0.018245478
0.017720833
0.017210051
0.056660289
0.055712365
0.054760919
0.053806551
0.052849917
0.051891684
0.050932536
0.04997317
0.049014295
0.04805663
0.047100902
0.046147838
0.045198165
0.044252606
0.043311877
0.042376683
0.041447715
0.040525646
0.039611131
0.038704803
0.037807271
0.036919116
0.036040893
0.035173127
0.034316311
0.033470907
0.032637346
0.031816025
0.031007306
0.030211519
0.029428961
0.028659897
0.027904557
0.027163142
0.02643582
0.02572273
0.025023984
0.024339664
0.023669827
0.023014505
0.022373707
0.021747421
0.021135614
0.020538235
0.019955216
0.019386476
0.018831917
0.018291429
0.01776489
0.017252281
0.056870448
0.055917164
0.05496036
0.05400072
0.053038904
0.052075577
0.051111421
0.050147132
0.049183417
0.048220995
0.04726059
0.046302929
0.045348739
0.044398742
0.043453655
0.042514181
0.041581012
0.040654822
0.039736266
0.038825976
0.037924563
0.037032607
0.036150664
0.035279259
0.034418886
0.033570007
0.032733052
0.031908418
0.031096469
0.030297533
0.029511908
0.028739857
0.027981611
0.02723737
0.026507301
0.025791543
0.025090206
0.024403372
0.023731096
0.02307341
0.022430321
0.021801815
0.021187859
0.020588399
0.020003366
0.019432677
0.018876233
0.018333923
0.017805624
0.017291317
0.059915858
0.058970023
0.058019445
0.057065075
0.056106663
0.055144866
0.054180333
0.053213713
0.052245667
0.051276873
0.050308025
0.04933983
0.048373004
0.047408269
0.046446354
0.045487983
0.044533879
0.043584758
0.042641324
0.041704268
0.040774264
0.039851968
0.038938013
0.038033008
0.037137536
0.036252151
0.035377379
0.034513715
0.03366162
0.032821525
0.031993826
0.031178888
0.030377038
0.029588575
0.028813761
0.028052826
0.027305969
0.026573359
0.025855132
0.025151398
0.024462237
0.023787704
0.02312783
0.02248262
0.021852059
0.021236112
0.020634725
0.020047826
0.01947533
0.018917138
0.018373138
0.017843205
0.017327322
0.061056022
0.060110323
0.05915956
0.058204187
0.0572448
0.056281621
0.055315195
0.054346133
0.053375069
0.05240266
0.05142958
0.05045652
0.049484185
0.04851329
0.047544556
0.046578711
0.045616479
0.044658582
0.043705736
0.042758644
0.041817999
0.040884474
0.039958725
0.039041385
0.038133063
0.037234344
0.036345781
0.0354679
0.034601196
0.033746132
0.032903137
0.032072609
0.031254911
0.030450371
0.029659287
0.028881921
0.028118503
0.027369232
0.026634274
0.025913768
0.025207819
0.02451651
0.023839893
0.023177997
0.022530828
0.021898369
0.021280582
0.020677413
0.020088789
0.019514622
0.018954812
0.018409245
0.017877797
0.017360452
0.061239922
0.060289483
0.059334139
0.058374264
0.05741035
0.056442783
0.055472083
0.054498839
0.053523676
0.052547242
0.05157021
0.050593267
0.049617115
0.04864247
0.047670051
0.046700583
0.045734793
0.044773401
0.043817121
0.04286666
0.041922707
0.040985937
0.040057006
0.039136547
0.03822517
0.037323459
0.036431968
0.035551223
0.034681719
0.033823919
0.032978253
0.032145118
0.031324876
0.030517858
0.029724359
0.028944642
0.028178937
0.027427441
0.026690321
0.025967713
0.025259724
0.024566434
0.023887896
0.023224138
0.022575163
0.021940953
0.021321471
0.020716659
0.020126442
0.019550733
0.018989427
0.018442412
0.017909562
0.017390862
0.061408841
0.060454104
0.059494541
0.058530508
0.057562472
0.056590877
0.055616245
0.054639153
0.053660217
0.052680081
0.051699412
0.050718897
0.049739236
0.048761141
0.047785333
0.046812536
0.045843473
0.044878868
0.043919432
0.042965873
0.042018879
0.041079127
0.040147271
0.039223945
0.038309759
0.037405298
0.036511115
0.035627737
0.03475566
0.033895345
0.033047223
0.032211692
0.031389113
0.030579816
0.029784098
0.02900222
0.028234411
0.02748087
0.026741762
0.026017223
0.025307358
0.024612248
0.023931944
0.023266473
0.022615837
0.021980018
0.021358975
0.020752651
0.020160969
0.019583838
0.019021154
0.018472801
0.017938654
0.017418701
0.06156364
0.060604975
0.059641544
0.058673697
0.057701896
0.056726615
0.055748376
0.054767752
0.053785353
0.052801819
0.051817814
0.050834022
0.049851141
0.048869883
0.047890966
0.046915115
0.045943052
0.044975499
0.04401317
0.043056769
0.042106987
0.041164499
0.040229961
0.039304007
0.038387246
0.037480262
0.036583612
0.03569782
0.034823383
0.033960762
0.033110389
0.03227266
0.031447938
0.030636553
0.029838799
0.029054939
0.028285203
0.027529786
0.026788855
0.026062544
0.02535096
0.024654181
0.023972257
0.023305214
0.022653055
0.022015759
0.021393285
0.020785573
0.020192545
0.019614108
0.019050156
0.018500571
0.017965225
0.017444111
0.061705129
0.060742871
0.059775901
0.058804567
0.057829332
0.056850683
0.055869146
0.05488529
0.053899722
0.052913079
0.051926021
0.050939231
0.049953405
0.048969252
0.047987493
0.047008847
0.04603404
0.045063792
0.044098816
0.043139816
0.042187485
0.041242496
0.040305505
0.039377147
0.038458031
0.037548741
0.036649834
0.035761835
0.034885239
0.03402051
0.033168078
0.03232834
0.031501658
0.030688363
0.029888748
0.029103076
0.028331576
0.027574444
0.026831846
0.026103916
0.025390759
0.024692452
0.024009046
0.023340567
0.022687014
0.022048367
0.021424583
0.020815601
0.02022134
0.019641707
0.019076592
0.018525873
0.017989421
0.01746723
0.061834073
0.060868537
0.059898338
0.058923826
0.057945464
0.056963746
0.055979201
0.054992398
0.054003939
0.053014459
0.052024617
0.051035091
0.050046579
0.049059787
0.048075434
0.047094241
0.046116931
0.045144225
0.044176835
0.043215467
0.04226081
0.04131354
0.040374313
0.039443763
0.0385225
0.037611107
0.036710142
0.03582013
0.034941567
0.034074916
0.033220607
0.032379036
0.031550568
0.030735531
0.029934219
0.029146895
0.028373787
0.027615092
0.026870973
0.026141565
0.025426974
0.024727275
0.024042518
0.023372728
0.022717904
0.022078024
0.021453045
0.020842904
0.020247519
0.019666793
0.019100613
0.018548855
0.018011384
0.017488191
0.061951206
0.060982686
0.060009551
0.05903215
0.058050949
0.057066443
0.056079165
0.055089681
0.054098594
0.053106535
0.052114161
0.051122149
0.050131194
0.049142003
0.048155292
0.047171783
0.046192199
0.045217258
0.044247674
0.043284152
0.042327382
0.041378039
0.04043678
0.039504237
0.038581022
0.037667719
0.036764884
0.035873043
0.034992691
0.034124293
0.033268278
0.032425043
0.03159495
0.03077833
0.029975476
0.02918665
0.028412081
0.027651964
0.026906464
0.026175714
0.025459818
0.024758853
0.024072868
0.023401886
0.022745906
0.022104906
0.02147884
0.020867644
0.020271236
0.019689515
0.019122366
0.018569659
0.018031249
0.017507121
0.062057227
0.061086001
0.060110206
0.059130189
0.058146416
0.057159387
0.056169633
0.055177722
0.054184254
0.053189858
0.05219519
0.051200926
0.050207758
0.049216393
0.048227547
0.047241941
0.046260295
0.045283331
0.04431176
0.043346288
0.042387604
0.041436384
0.040493283
0.039558937
0.038633954
0.03771892
0.036814391
0.035920894
0.035038923
0.034168942
0.033311382