/*--------------------------------*- C++ -*----------------------------------*\
| =========                 |                                                 |
| \\      /  F ield         | OpenFOAM: The Open Source CFD Toolbox           |
|  \\    /   O peration     | Version:  2312                                  |
|   \\  /    A nd           | Website:  www.openfoam.com                      |
|    \\/     M anipulation  |                                                 |
\*---------------------------------------------------------------------------*/
FoamFile
{
    version     2.0;
    format      ascii;
    arch        "LSB;label=32;scalar=64";
    class       volScalarField;
    location    "0.09";
    object      H2O;
}
// * * * * * * * * * * * * * * * * * * * * * * * * * * * * * * * * * * * * * //

dimensions      [0 0 0 0 0 0 0];

internalField   nonuniform List<scalar> 
3250
(
0.011499058
0.0114028
0.011303481
0.01120117
0.011095996
0.010988096
0.010877607
0.010764672
0.010649433
0.010532034
0.010412617
0.010291327
0.010168307
0.0100437
0.0099176464
0.0097902871
0.0096617602
0.0095322021
0.009401747
0.0092705265
0.0091386695
0.009006302
0.0088735471
0.0087405244
0.0086073503
0.0084741378
0.0083409963
0.0082080317
0.0080753462
0.0079430387
0.007811204
0.0076799339
0.0075493163
0.0074194359
0.0072903739
0.0071622083
0.0070350141
0.0069088633
0.0067838251
0.0066599664
0.0065373521
0.0064160459
0.006296112
0.0061776189
0.011540169
0.011443031
0.011342824
0.011239625
0.011133566
0.011024786
0.010913423
0.010799622
0.010683525
0.010565276
0.01044502
0.0103229
0.01019906
0.010073643
0.0099467919
0.0098186463
0.0096893451
0.009559025
0.0094278205
0.0092958635
0.0091632833
0.009030206
0.0088967548
0.0087630497
0.0086292071
0.0084953402
0.0083615584
0.0082279678
0.0080946706
0.0079617655
0.0078293477
0.0076975085
0.0075663361
0.0074359148
0.0073063259
0.0071776471
0.007049953
0.0069233153
0.0067978025
0.0066734801
0.0065504108
0.0064286545
0.0063082723
0.0061893519
0.011616693
0.011517888
0.011416023
0.011311176
0.011203478
0.011093071
0.010980095
0.010864694
0.010747012
0.010627195
0.010505387
0.010381734
0.010256379
0.010129468
0.010001142
0.0098715433
0.0097408105
0.0096090813
0.0094764906
0.0093431709
0.0092092519
0.0090748602
0.0089401194
0.0088051497
0.0086700679
0.0085349874
0.0084000178
0.0082652652
0.0081308321
0.0079968171
0.0078633154
0.0077304184
0.0075982139
0.0074667864
0.0073362167
0.0072065824
0.0070779578
0.0069504141
0.0068240194
0.0066988388
0.0065749346
0.0064523668
0.006331197
0.0062115135
0.011723574
0.011622448
0.011518275
0.011411136
0.011301163
0.011188498
0.011073283
0.010955663
0.010835784
0.010713791
0.010589832
0.010464052
0.010336598
0.010207613
0.010077242
0.0099456264
0.009812907
0.0096792216
0.0095447062
0.0094094939
0.009273715
0.0091374968
0.0090009632
0.0088642351
0.0087274295
0.0085906603
0.0084540372
0.0083176666
0.0081816511
0.0080460895
0.0079110769
0.0077767046
0.0076430605
0.0075102288
0.00737829
0.0072473217
0.0071173976
0.0069885886
0.0068609625
0.0067345838
0.0066095147
0.006485815
0.0063635461
0.0062427967
0.011856196
0.011752199
0.011645175
0.011535205
0.011422422
0.01130697
0.011188992
0.011068635
0.010946045
0.01082137
0.010694758
0.010566356
0.01043631
0.010304768
0.010171874
0.010037771
0.0099025997
0.0097665003
0.0096296092
0.0094920602
0.0093539845
0.0092155101
0.0090767616
0.0089378603
0.0087989238
0.0086600663
0.008521398
0.0083830255
0.0082450516
0.0081075751
0.0079706912
0.0078344913
0.0076990631
0.0075644906
0.0074308544
0.0072982313
0.0071666952
0.0070363163
0.0069071621
0.0067792967
0.0066527819
0.0065276769
0.0064040428
0.0062819687
0.012010372
0.011903049
0.011792721
0.011679472
0.011563437
0.011444759
0.011323584
0.01120006
0.011074334
0.010946557
0.010816876
0.01068544
0.010552399
0.010417899
0.010282087
0.010145106
0.010007099
0.0098682071
0.009728567
0.0095883139
0.0094475797
0.0093064933
0.0091651799
0.0090237615
0.0088823564
0.008741079
0.0086000402
0.0084593466
0.0083191014
0.0081794036
0.0080403485
0.0079020274
0.0077645279
0.007627934
0.007492326
0.0073577805
0.0072243709
0.0070921672
0.0069612363
0.0068316422
0.0067034458
0.006576706
0.0064514833
0.0063278665
0.012182314
0.012071291
0.01195729
0.011840396
0.011720744
0.011598481
0.011473754
0.011346711
0.011217503
0.011086279
0.010953191
0.010818388
0.010682021
0.010544237
0.010405185
0.010265009
0.010123854
0.0099818609
0.0098391679
0.0096959114
0.009552224
0.0094082355
0.009264072
0.0091198561
0.0089757067
0.0088317388
0.0086880635
0.0085447881
0.0084020158
0.008259846
0.0081183739
0.007977691
0.0078378848
0.0076990391
0.007561234
0.007424546
0.007289048
0.0071548098
0.0070218977
0.0068903751
0.0067603026
0.0066317385
0.0065047425
0.006379403
0.012368594
0.012253581
0.012135609
0.012014773
0.011891212
0.011765075
0.01163651
0.011505667
0.011372698
0.011237754
0.011100988
0.010962551
0.010822594
0.010681268
0.010538719
0.010395096
0.010250543
0.010105202
0.0099592144
0.0098127158
0.0096658403
0.0095187185
0.0093714773
0.00922424
0.0090771262
0.0089302514
0.0087837272
0.0086376613
0.0084921573
0.0083473145
0.0082032286
0.0080599909
0.007917689
0.0077764065
0.0076362234
0.0074972159
0.0073594566
0.0072230148
0.0070879564
0.0069543444
0.0068222387
0.0066916971
0.0065627784
0.0064355705
0.012566109
0.012446916
0.012324738
0.012199724
0.012072022
0.011941783
0.011809157
0.011674294
0.011537348
0.011398471
0.011257817
0.011115539
0.010971788
0.010826716
0.010680473
0.010533207
0.010385063
0.010236186
0.010086715
0.0099367901
0.0097865447
0.0096361105
0.0094856154
0.0093351833
0.0091849344
0.009034985
0.008885447
0.0087364286
0.0085880337
0.0084403618
0.0082935088
0.0081475661
0.0080026212
0.0078587576
0.0077160552
0.0075745898
0.0074344339
0.0072956562
0.0071583223
0.0070224946
0.0068882325
0.0067555929
0.0066246342
0.0064954432
0.013010364
0.012892855
0.012772269
0.01264862
0.012522037
0.012392663
0.012260645
0.012126132
0.011989276
0.011850229
0.011709144
0.011566175
0.011421476
0.011275202
0.011127506
0.01097854
0.010828456
0.010677401
0.010525524
0.010372968
0.010219877
0.010066388
0.0099126384
0.0097587593
0.0096048796
0.009451124
0.0092976135
0.0091444648
0.0089917905
0.008839699
0.0086882947
0.0085376774
0.0083879429
0.0082391829
0.0080914848
0.0079449322
0.0077996046
0.0076555776
0.0075129234
0.0073717104
0.0072320038
0.0070938652
0.0069573537
0.0068225254
0.0066894379
0.0065581772
0.013231816
0.013109704
0.012984492
0.012856261
0.012725143
0.012591281
0.012454821
0.012315914
0.012174709
0.012031361
0.011886023
0.011738851
0.011589999
0.011439623
0.011287876
0.011134913
0.010980884
0.010825941
0.010670232
0.010513901
0.010357093
0.010199947
0.0100426
0.0098851837
0.0097278291
0.009570661
0.0094138012
0.0092573668
0.009101471
0.0089462228
0.0087917265
0.0086380826
0.0084853869
0.0083337311
0.0081832028
0.0080338853
0.0078858581
0.0077391966
0.0075939725
0.0074502541
0.0073081059
0.0071675892
0.0070287623
0.0068916808
0.0067564015
0.0066230092
0.013457377
0.013330514
0.01320059
0.013067693
0.012931958
0.012793526
0.012652546
0.012509167
0.012363539
0.012215818
0.012066157
0.011914713
0.01176164
0.011607095
0.011451234
0.01129421
0.011136176
0.010977284
0.010817682
0.010657518
0.010496935
0.010336074
0.010175073
0.010014065
0.0098531805
0.0096925459
0.0095322832
0.0093725104
0.0092133411
0.0090548846
0.0088972458
0.0087405252
0.0085848188
0.0084302186
0.0082768121
0.0081246825
0.0079739091
0.0078245673
0.0076767284
0.0075304602
0.0073858269
0.0072428893
0.0071017051
0.0069623293
0.0068248178
0.0066892543
0.013684995
0.013553326
0.013418642
0.013281033
0.013140636
0.012997594
0.012852054
0.012704164
0.012554078
0.012401948
0.012247931
0.012092183
0.011934859
0.011776117
0.011616112
0.011454999
0.011292933
0.011130066
0.010966547
0.010802523
0.010638141
0.01047354
0.010308861
0.010144237
0.0099797987
0.0098156739
0.009651985
0.0094888505
0.0093263845
0.0091646967
0.0090038924
0.0088440723
0.0086853327
0.0085277655
0.0083714583
0.0082164944
0.0080629529
0.0079109088
0.0077604333
0.0076115938
0.0074644541
0.0073190746
0.0071755122
0.0070338215
0.0068940575
0.0067563026
0.013912917
0.013776423
0.013636963
0.013494632
0.013349565
0.013201904
0.013051797
0.012899393
0.012744845
0.012588307
0.012429933
0.012269881
0.012108307
0.011945369
0.011781224
0.011616026
0.011449931
0.011283092
0.011115659
0.01094778
0.010779602
0.010611266
0.010442912
0.010274675
0.010106687
0.0099390751
0.0097719626
0.0096054688
0.0094397081
0.0092747907
0.0091108222
0.0089479036
0.0087861314
0.0086255975
0.0084663896
0.0083085909
0.0081522805
0.0079975331
0.0078444196
0.0076930072
0.0075433592
0.0073955355
0.0072495927
0.0071055844
0.006963565
0.0068236156
0.014139619
0.013998312
0.013854094
0.013707058
0.013557341
0.013405084
0.013250435
0.013093542
0.012934558
0.012773637
0.012610934
0.012446607
0.012280813
0.012113709
0.011945452
0.011776199
0.011606105
0.011435324
0.011264007
0.011092302
0.010920357
0.010748314
0.010576313
0.01040449
0.010232978
0.010061905
0.0098913939
0.0097215652
0.0095525336
0.0093844096
0.0092172992
0.0090513035
0.0088865194
0.0087230388
0.0085609494
0.0084003344
0.0082412727
0.008083839
0.0079281039
0.0077741342
0.0076219928
0.0074717392
0.0073234294
0.0071771166
0.0070328542
0.006890722
0.014363783
0.014217707
0.014068774
0.01391708
0.013762759
0.013605954
0.01344681
0.013285478
0.01312211
0.012956858
0.012789879
0.01262133
0.012451367
0.01228015
0.012107835
0.011934579
0.011760539
0.011585867
0.011410716
0.011235236
0.011059574
0.010883873
0.010708273
0.010532913
0.010357923
0.010183434
0.010009569
0.009836449
0.0096641888
0.0094928996
0.0093226873
0.0091536537
0.0089858956
0.0088195051
0.00865457
0.0084911734
0.008329394
0.0081693065
0.0080109811
0.0078544844
0.007699879
0.0075472238
0.0073965744
0.0072479835
0.0071015035
0.0069572129
0.014584283
0.014433512
0.014279932
0.014123646
0.01396479
0.013803506
0.01363994
0.013474241
0.013306559
0.01313705
0.012965867
0.012793168
0.012619111
0.012443853
0.012267552
0.012090366
0.01191245
0.011733958
0.011555044
0.011375857
0.011196546
0.011017253
0.010838121
0.010659287
0.010480883
0.01030304
0.010125882
0.0099495301
0.0097740995
0.0095997016
0.009426443
0.0092544254
0.0090837458
0.0089144966
0.0087467655
0.0085806355
0.0084161855
0.0082534897
0.0080926184
0.0079336376
0.0077766097
0.0076215933
0.0074686433
0.007317812
0.0071691511
0.0070227374
0.014800162
0.014644807
0.014486666
0.014325874
0.01416257
0.013996895
0.013828996
0.013659018
0.013487114
0.013313437
0.013138141
0.012961383
0.012783321
0.012604112
0.012423914
0.012242884
0.01206118
0.011878955
0.011696362
0.011513553
0.011330675
0.011147873
0.010965288
0.010783059
0.010601319
0.010420198
0.010239822
0.01006031
0.0098817803
0.0097043435
0.0095281065
0.0093531713
0.0091796351
0.0090075904
0.0088371247
0.0086683214
0.0085012589
0.0083360116
0.0081726493
0.008011238
0.0078518395
0.0076945121
0.0075393105
0.0073862861
0.0072354901
0.0070869977
0.015167833
0.01501074
0.014850841
0.014688228
0.014523029
0.014355379
0.014185417
0.014013288
0.013839138
0.013663117
0.013485376
0.013306072
0.013125359
0.012943396
0.012760338
0.012576346
0.012391575
0.012206182
0.012020323
0.01183415
0.011647815
0.011461466
0.011275248
0.011089303
0.01090377
0.010718782
0.010534471
0.010350961
0.010168374
0.0099868275
0.0098064321
0.0096272952
0.0094495191
0.0092732011
0.0090984338
0.0089253049
0.0087538975
0.0085842902
0.008416557
0.0082507677
0.008086988
0.0079252793
0.0077656997
0.0076083033
0.0074531412
0.0073002637
0.0071497447
0.015376884
0.015215293
0.015050969
0.014884
0.014714509
0.01454263
0.014368498
0.014192257
0.014014052
0.01383403
0.013652344
0.013469148
0.013284597
0.013098847
0.012912056
0.012724382
0.012535981
0.012347012
0.012157628
0.011967983
0.011778229
0.011588514
0.011398983
0.01120978
0.011021043
0.010832906
0.010645501
0.010458953
0.010273383
0.01008891
0.0099056452
0.0097236954
0.0095431634
0.0093641467
0.0091867378
0.0090110247
0.0088370903
0.0086650132
0.0084948674
0.0083267223
0.0081606433
0.0079966919
0.0078349255
0.0076753979
0.0075181598
0.0073632607
0.0072107731
0.015579236
0.015413299
0.015244684
0.015073488
0.014899835
0.014723854
0.014545681
0.014365455
0.014183322
0.013999428
0.013813923
0.013626961
0.013438696
0.013249284
0.013058882
0.012867649
0.01267574
0.012483312
0.012290522
0.012097521
0.011904463
0.011711495
0.011518763
0.011326411
0.011134578
0.010943398
0.010753002
0.010563517
0.010375065
0.010187764
0.010001725
0.0098170557
0.0096338593
0.0094522333
0.0092722703
0.0090940582
0.00891768
0.0087432142
0.0085707347
0.0084003107
0.0082320074
0.008065886
0.0079020036
0.0077404136
0.0075811663
0.0074243106
0.0072699175
0.015774488
0.015604362
0.015431597
0.015256313
0.015078634
0.014898688
0.01471661
0.014532537
0.014346611
0.014158979
0.01396979
0.013779195
0.013587348
0.013394406
0.013200524
0.013005859
0.012810569
0.01261481
0.012418736
0.012222503
0.012026261
0.011830159
0.011634344
0.011438958
0.011244141
0.011050029
0.010856753
0.010664438
0.010473209
0.010283182
0.01009447
0.0099071802
0.009721416
0.009537275
0.00935485
0.009174229
0.0089954948
0.008818726
0.0086439962
0.0084713747
0.0083009263
0.0081327119
0.0079667884
0.0078032089
0.0076420231
0.0074832796
0.0073270476
0.016133972
0.01596241
0.015788198
0.015611421
0.015432192
0.015250631
0.015066865
0.014881024
0.014693246
0.014503669
0.01431244
0.014119706
0.013925617
0.013730327
0.01353399
0.013336763
0.013138801
0.012940261
0.0127413
0.012542073
0.012342733
0.012143432
0.01194432
0.011745542
0.011547242
0.01134956
0.011152631
0.010956587
0.010761554
0.010567656
0.010375011
0.01018373
0.0099939222
0.0098056904
0.0096191324
0.0094343412
0.0092514046
0.0090704058
0.0088914229
0.0087145297
0.0085397951
0.0083672839
0.0081970567
0.0080291701
0.0078636768
0.0077006262
0.0075400664
0.0073820651
0.016318305
0.016142737
0.015964593
0.015783954
0.01560093
0.015415636
0.015228198
0.015038742
0.014847405
0.014654324
0.014459643
0.014263508
0.014066067
0.013867475
0.013667883
0.013467448
0.013266325
0.013064671
0.012862642
0.012660393
0.012458077
0.012255845
0.012053848
0.011852232
0.011651141
0.011450713
0.011251085
0.011052389
0.010854752
0.010658297
0.010463142
0.0102694
0.010077179
0.0098865818
0.0096977072
0.0095106477
0.0093254914
0.0091423214
0.0089612157
0.008782248
0.0086054872
0.0084309977
0.00825884
0.0080890702
0.0079217409
0.0077569012
0.0075945984
0.0074348992
0.016494732
0.016315331
0.016133415
0.015949071
0.015762405
0.015573532
0.015382573
0.015189654
0.014994908
0.014798471
0.014600485
0.014401095
0.014200448
0.013998695
0.013795991
0.013592489
0.013388344
0.013183713
0.012978751
0.012773612
0.012568451
0.012363419
0.012158665
0.011954337
0.011750576
0.011547525
0.011345317
0.011144087
0.010943961
0.010745061
0.010547508
0.010351413
0.010156884
0.0099640264
0.0097729368
0.0095837086
0.0093964297
0.0092111833
0.0090280474
0.0088470956
0.0086683965
0.0084920146
0.0083180098
0.0081464382
0.007977352
0.0078107997
0.0076468285
0.0074855038
0.016663198
0.016480135
0.016294607
0.016106715
0.015916564
0.015724266
0.015529941
0.015333711
0.015135707
0.014936064
0.014734922
0.014532423
0.014328715
0.014123948
0.013918273
0.013711844
0.013504817
0.013297346
0.013089586
0.012881693
0.012673819
0.012466116
0.012258734
0.012051819
0.011845514
0.01163996
0.011435294
0.011231646
0.011029146
0.010827916
0.010628075
0.010429736
0.010233007
0.010037993
0.0098447902
0.0096534931
0.0094641892
0.0092769618
0.0090918889
0.0089090437
0.008728495
0.0085503069
0.0083745392
0.0082012476
0.0080304839
0.0078622963
0.0076967315
0.0075338537
0.017007863
0.016823742
0.016637152
0.016448169
0.016256887
0.016063408
0.015867842
0.015670304
0.015470916
0.015269807
0.015067108
0.014862958
0.014657498
0.014450875
0.014243236
0.014034733
0.013825519
0.013615747
0.013405573
0.013195152
0.012984637
0.012774182
0.012563938
0.012354055
0.012144678
0.011935953
0.011728019
0.011521012
0.011315066
0.011110307
0.010906859
0.010704841
0.010504366
0.010305544
0.010108477
0.0099132633
0.0097199968
0.0095287655
0.0093396521
0.009152735
0.0089680872
0.0087857773
0.0086058692
0.0084284226
0.0082534927
0.0080811311
0.0079113853
0.0077443013
0.0075799424
0.017163945
0.016976385
0.016786431
0.016594151
0.016399638
0.016202988
0.016004309
0.015803713
0.01560132
0.015397255
0.01519165
0.01498464
0.014776366
0.014566971
0.014356604
0.014145414
0.013933553
0.013721176
0.013508435
0.013295485
0.013082481
0.012869575
0.012656918
0.01244466
0.012232947
0.012021924
0.011811729
0.011602501
0.011394371
0.011187467
0.010981914
0.010777829
0.010575326
0.010374515
0.010175498
0.009978375
0.009783238
0.0095901755
0.0093992707
0.0092106014
0.0090242409
0.0088402575
0.0086587151
0.0084796729
0.0083031861
0.0081293055
0.0079580781
0.0077895487
0.0076237784
0.017312044
0.017121217
0.016928062
0.016732647
0.01653506
0.016335395
0.016133757
0.015930256
0.015725009
0.015518139
0.015309774
0.015100051
0.014889106
0.014677083
0.014464128
0.01425039
0.014036021
0.013821173
0.013605999
0.013390653
0.01317529
0.012960061
0.012745118
0.01253061
0.012316683
0.012103481
0.011891145
0.011679811
0.011469612
0.011260676
0.011053127
0.010847083
0.010642659
0.010439962
0.010239098
0.010040164
0.0098432537
0.0096484553
0.0094558518
0.0092655212
0.0090775366
0.0088919663
0.0087088739
0.0085283186
0.0083503551
0.0081750339
0.008002401
0.0078324991
0.0076653838
0.017452302
0.017258372
0.017062177
0.016863785
0.01666328
0.016460756
0.016256312
0.016050056
0.015842103
0.015632574
0.015421596
0.015209302
0.014995829
0.014781318
0.014565914
0.014349765
0.014133021
0.013915835
0.01369836
0.013480748
0.013263153
0.013045727
0.012828621
0.012611984
0.012395964
0.012180702
0.011966341
0.011753015
0.01154086
0.011330001
0.011120564
0.010912667
0.010706424
0.010501945
0.010299332
0.010098685
0.0099000972
0.0097036561
0.0095094452
0.0093175423
0.0091280207
0.0089409483
0.0087563888
0.0085744012
0.0083950401
0.0082183555
0.0080443929
0.0078731925
0.0077047972
0.017584887
0.017388014
0.017188938
0.016987725
0.016784457
0.016579224
0.016372123
0.01616326
0.015952748
0.015740705
0.015527256
0.015312532
0.015096669
0.014879806
0.014662088
0.014443662
0.014224676
0.014005282
0.013785633
0.013565881
0.013346179
0.013126678
0.012907531
0.012688885
0.012470887
0.012253681
0.012037407
0.011822202
0.011608199
0.011395525
0.011184306
0.010974659
0.010766699
0.010560536
0.010356272
0.010154008
0.0099538348
0.0097558422
0.0095601129
0.0093667248
0.009175751
0.0089872596
0.0088013141
0.0086179732
0.0084372916
0.0082593194
0.0080841023
0.0079116817
0.0077421059
0.007575418
0.017709993
0.017510334
0.017308531
0.01710465
0.016898769
0.016690976
0.016481365
0.01627004
0.016057111
0.015842694
0.015626913
0.015409896
0.015191779
0.014972698
0.014752798
0.014532224
0.014311124
0.014089649
0.01386795
0.013646181
0.013424493
0.013203038
0.012981966
0.012761426
0.012541565
0.012322527
0.01210445
0.011887474
0.011671729
0.011457345
0.011244445
0.011033149
0.010823572
0.010615821
0.010410001
0.010206211
0.010004544
0.0098050884
0.0096079274
0.0094131387
0.0092207955
0.0090309658
0.0088437129
0.0086590957
0.0084771687
0.0082979822
0.0081215824
0.0079480118
0.0077773132
0.0076095532
0.017827832
0.017625541
0.017421163
0.017214762
0.017006416
0.016796208
0.01658423
0.016370584
0.016155376
0.015938723
0.015720744
0.015501568
0.015281327
0.015060159
0.014838204
0.014615608
0.014392518
0.014169085
0.013945458
0.01372179
0.013498234
0.013274939
0.013052057
0.012829736
0.012608122
0.012387359
0.012167587
0.011948943
0.01173156
0.011515567
0.011301087
0.011088239
0.010877138
0.010667894
0.010460609
0.010255384
0.010052311
0.009851478
0.0096529692
0.0094568621
0.0092632296
0.0090721398
0.008883656
0.0086978371
0.0085147374
0.0083344073
0.0081568934
0.0079822389
0.0078104855
0.0076416943
0.017938635
0.017733861
0.017527055
0.017318281
0.017107612
0.016895129
0.016680924
0.016465092
0.016247742
0.016028984
0.015808939
0.015587733
0.015365496
0.015142364
0.014918479
0.014693983
0.014469024
0.01424375
0.014018312
0.013792861
0.013567549
0.013342527
0.013117944
0.01289395
0.01267069
0.012448307
0.012226943
0.012006733
0.011787812
0.011570306
0.011354341
0.011140036
0.010927505
0.010716857
0.010508196
0.010301622
0.010097227
0.0098951008
0.0096953255
0.0094979793
0.0093031351
0.0091108609
0.00892122
0.0087342712
0.008550069
0.0083686636
0.0081901017
0.0080144265
0.0078416792
0.0076719152
0.018042643
0.017835532
0.017626441
0.017415435
0.017202582
0.016987961
0.016771661
0.016553778
0.016334414
0.016113681
0.015891696
0.015668583
0.015444473
0.0152195
0.014993803
0.014767525
0.014540812
0.014313812
0.014086675
0.013859552
0.013632594
0.013405952
0.013179775
0.012954212
0.012729408
0.012505507
0.012282649
0.012060972
0.011840607
0.011621684
0.011404326
0.011188654
0.010974781
0.010762817
0.010552866
0.010345026
0.010139392
0.0099360517
0.0097350881
0.0095365793
0.0093405981
0.0091472124
0.0089564857
0.0087684765
0.0085832393
0.0084008243
0.0082212781
0.0080446438
0.0078709617
0.007700284
0.018140108
0.017930799
0.017719563
0.01750646
0.017291557
0.017074931
0.016856667
0.016636858
0.016415607
0.016193022
0.015969219
0.015744321
0.015518456
0.015291757
0.015064364
0.014836417
0.014608061
0.014379445
0.014150718
0.013922029
0.01369353
0.013465371
0.013237702
0.01301067
0.012784421
0.012559098
0.012334843
0.012111791
0.011890075
0.011669825
0.011451163
0.011234211
0.011019082
0.010805885
0.010594725
0.010385701
0.010178906
0.0099744291
0.0097723526
0.0095727547
0.0093757083
0.0091812814
0.0089895372
0.0088005343
0.0086143271
0.0084309657
0.0082504966
0.0080729626
0.0078984034
0.0077268691
0.018231284
0.018019915
0.017806667
0.017591599
0.017374776
0.017156271
0.016936168
0.016714558
0.01649154
0.016267222
0.016041718
0.015815149
0.015587643
0.015359331
0.015130351
0.014900843
0.014670953
0.014440826
0.014210612
0.01398046
0.013750521
0.013520945
0.01329188
0.013063475
0.012835875
0.012609224
0.012383662
0.012159326
0.011936348
0.011714857
0.011494977
0.011276828
0.011060525
0.010846176
0.010633886
0.010423754
0.010215874
0.010010334
0.0098072165
0.0096066001
0.0094085575
0.0092131566
0.0090204607
0.0088305281
0.0086434133
0.0084591663
0.0082778333
0.0080994569
0.0079240764
0.0077517403
0.018316433
0.018103134
0.017888003
0.017671097
0.017452478
0.017232217
0.017010394
0.016787101
0.016562433
0.016336496
0.016109404
0.015881275
0.015652236
0.015422418
0.015191957
0.014960993
0.01472967
0.014498134
0.014266532
0.014035015
0.013803732
0.013572833
0.013342467
0.013112781
0.012883921
0.012656031
0.01242925
0.012203714
0.011979558
0.01175691
0.011535893
0.011316628
0.011099228
0.010883804
0.01067046
0.010459294
0.010250401
0.010043868
0.009839779
0.0096382117
0.0094392389
0.0092429285
0.0090493436
0.0088585428
0.0086705801
0.0084855056
0.0083033653
0.0081242016
0.0079480533
0.0077749679
0.018395813
0.018180711
0.017963821
0.017745199
0.017524903
0.017303003
0.017079578
0.016854713
0.016628506
0.016401061
0.016172487
0.015942905
0.015712438
0.015481216
0.015249375
0.015017054
0.014784396
0.014551546
0.014318652
0.014085863
0.013853329
0.013621198
0.013389619
0.01315874
0.012928707
0.012699662
0.012471745
0.012245094
0.01201984
0.011796113
0.011574037
0.011353732
0.011135311
0.010918886
0.010704559
0.010492429
0.010282592
0.010075134
0.0098701396
0.0096676859
0.0094678459
0.0092706876
0.009076274
0.0088846634
0.00869591
0.0085100637
0.0083271703
0.0081472719
0.0079704072
0.0077966228
0.018469685
0.018252899
0.01803437
0.017814149
0.017592292
0.017368866
0.017143947
0.016917621
0.016689981
0.016461131
0.016231179
0.016000244
0.015768448
0.015535921
0.015302796
0.015069213
0.014835314
0.014601242
0.014367147
0.014133175
0.013899476
0.0136662
0.013433494
0.013201506
0.012970381
0.012740262
0.01251129
0.0122836
0.012057326
0.011832596
0.011609535
0.011388263
0.011168893
0.010951535
0.010736294
0.010523269
0.010312553
0.010104234
0.0098983972
0.0096951188
0.0094944719
0.0092965244
0.0091013393
0.008908975
0.0087194854
0.0085329204
0.0083493255
0.0081687429
0.007991211
0.0078167754
0.018538305
0.01831995
0.018099896
0.017878188
0.01765488
0.017430035
0.017203729
0.016976044
0.016747074
0.016516918
0.016285687
0.016053495
0.015820465
0.015586726
0.01535241
0.015117655
0.014882603
0.014647398
0.014412186
0.014177117
0.013942338
0.013707998
0.013474245
0.013241228
0.01300909
0.012777975
0.012548022
0.012319369
0.012092148
0.011866487
0.011642512
0.011420341
0.011200089
0.010981866
0.010765777
0.010551919
0.010340387
0.01013127
0.0099246503
0.0097206057
0.0095192092
0.0093205285
0.0091246266
0.0089315619
0.0087413881
0.0085541549
0.008369908
0.0081886891
0.0080105366
0.0078354954
0.018601923
0.018382111
0.018160643
0.017937556
0.017712901
0.01748674
0.017259147
0.017030202
0.016799998
0.016568633
0.016336215
0.016102859
0.015868685
0.015633822
0.015398401
0.015162561
0.014926441
0.014690185
0.01445394
0.014217853
0.013982073
0.013746748
0.013512027
0.013278055
0.013044979
0.01281294
0.01258208
0.012352534
0.012124435
0.011897912
0.011673089
0.011450085
0.011229017
0.011009992
0.010793116
0.010578487
0.010366199
0.010156341
0.0099489954
0.0097442405
0.0095421489
0.0093427882
0.0091462215
0.008952507
0.0087616984
0.0085738452
0.0083889932
0.0082071838
0.0080284553
0.0078528519
0.019314111
0.019098044
0.018880273
0.018660773
0.018439623
0.018216848
0.017992484
0.017766583
0.017539205
0.01731042
0.01708031
0.016848963
0.016616479
0.016382963
0.016148529
0.015913298
0.015677395
0.015440953
0.015204108
0.014967001
0.014729774
0.014492573
0.014255545
0.01401884
0.013782604
0.013546986
0.013312132
0.013078188
0.012845296
0.012613596
0.012383224
0.012154313
0.011926992
0.011701386
0.011477613
0.011255788
0.011036022
0.010818418
0.010603075
0.010390088
0.010179544
0.0099715275
0.0097661152
0.0095633802
0.0093633902
0.009166208
0.0089718918
0.0087804954
0.0085920681
0.0084066554
0.0082242989
0.0080450367
0.0078689124
0.019588129
0.019372374
0.019154956
0.018935869
0.018715112
0.018492727
0.018268744
0.018043202
0.017816149
0.017587646
0.017357761
0.017126574
0.016894173
0.016660655
0.016426126
0.016190697
0.015954489
0.015717628
0.015480243
0.015242471
0.015004452
0.014766329
0.014528246
0.01429035
0.01405279
0.013815714
0.013579269
0.013343601
0.013108856
0.012875176
0.012642701
0.012411567
0.012181907
0.01195385
0.01172752
0.011503037
0.011280515
0.011060063
0.010841788
0.010625786
0.010412153
0.010200976
0.0099923393
0.0097863198
0.0095829905
0.009382419
0.0091846681
0.008989796
0.0087978563
0.0086088982
0.0084229673
0.0082401049
0.0080603489
0.0078837427
0.019643095
0.019426063
0.019207399
0.018987103
0.018765179
0.018541654
0.018316558
0.01808993
0.017861816
0.017632276
0.017401378
0.017169198
0.016935826
0.016701356
0.016465893
0.016229548
0.015992441
0.015754696
0.015516443
0.015277818
0.015038959
0.01480001
0.014561115
0.01432242
0.014084074
0.013846224
0.013609017
0.0133726
0.013137117
0.012902712
0.012669523
0.012437687
0.012207337
0.011978602
0.011751606
0.011526468
0.011303303
0.011082221
0.010863326
0.010646718
0.010432489
0.010220729
0.010011521
0.0098049416
0.0096010645
0.009399957
0.0092016818
0.009006297
0.0088138562
0.0086244086
0.0084379994
0.00825467
0.0080744584
0.0078974072
0.019693636
0.019475423
0.019255613
0.019034205
0.018811204
0.01858663
0.01836051
0.018132883
0.017903794
0.017673301
0.01744147
0.017208379
0.016974114
0.016738769
0.016502448
0.016265261
0.016027327
0.01578877
0.01554972
0.015310311
0.015070681
0.014830974
0.014591332
0.014351903
0.014112834
0.013874273
0.013636366
0.013399261
0.0131631
0.012928028
0.012694184
0.012461703
0.01223072
0.012001361
0.011773752
0.011548013
0.011324257
0.011102596
0.010883132
0.010665965
0.01045119
0.010238893
0.010029159
0.0098220655
0.0096176846
0.009416084
0.0092173265
0.00902147
0.008828568
0.0086386697
0.0084518202
0.0082680608
0.0080874293
0.0079099681
0.01973999
0.019520691
0.019299828
0.0190774
0.018853409
0.018627872
0.018400813
0.018172269
0.017942286
0.017710919
0.017478234
0.017244307
0.017009222
0.016773075
0.016535968
0.01629801
0.016059318
0.015820017
0.015580236
0.015340108
0.015099772
0.014859369
0.014619043
0.014378942
0.014139211
0.013899997
0.013661449
0.013423713
0.013186932
0.012951249
0.012716803
0.012483732
0.012252167
0.012022237
0.011794067
0.011567776
0.011343479
0.011121285
0.0109013
0.010683621
0.010468344
0.010255556
0.01004534
0.0098377737
0.0096329304
0.0094308773
0.0092316771
0.0090353876
0.0088420623
0.0086517501
0.0084644962
0.0082803416
0.0080993241
0.0079214858
0.019782388
0.019562094
0.019340267
0.019116905
0.018892008
0.018665588
0.018437671
0.018208289
0.017977487
0.017745321
0.017511855
0.017277163
0.01704133
0.01680445
0.016566623
0.01632796
0.016088576
0.015848595
0.015608145
0.01536736
0.015126378
0.01488534
0.01464439
0.014403673
0.014163337
0.013923528
0.013684394
0.01344608
0.013208732
0.01297249
0.012737495
0.012503883
0.012271787
0.012041335
0.011812652
0.011585856
0.011361064
0.011138384
0.010917922
0.010699775
0.010484039
0.0102708
0.010060143
0.0098521451
0.0096468787
0.0094444115
0.009244806
0.0090481201
0.008854407
0.0086637157
0.0084760912
0.0082915744
0.0081102029
0.0079320184
0.019821053
0.019599851
0.019377145
0.019152931
0.018927206
0.018699982
0.01847128
0.018241134
0.018009587
0.017776692
0.017542513
0.017307124
0.017070609
0.016833061
0.016594579
0.016355272
0.016115257
0.015874657
0.015633598
0.015392215
0.015150644
0.014909027
0.014667507
0.01442623
0.014185342
0.01394499
0.013705322
0.013466483
0.013228617
0.012991866
0.01275637
0.012522266
0.012289685
0.012058757
0.011829606
0.011602351
0.011377107
0.011153984
0.010933086
0.010714512
0.010498357
0.010284708
0.010073648
0.009865256
0.0096596035
0.0094567582
0.0092567827
0.0090597348
0.0088656677
0.0086746302
0.008486667
0.008301819
0.0081201235
0.0079416219
0.019856201
0.019634174
0.019410668
0.019185678
0.018959201
0.018731245
0.018501831
0.01827099
0.018038764
0.017805207
0.017570381
0.01733436
0.017097225