/*--------------------------------*- C++ -*----------------------------------*\
| =========                 |                                                 |
| \\      /  F ield         | OpenFOAM: The Open Source CFD Toolbox           |
|  \\    /   O peration     | Version:  2312                                  |
|   \\  /    A nd           | Website:  www.openfoam.com                      |
|    \\/     M anipulation  |                                                 |
\*---------------------------------------------------------------------------*/
FoamFile
{
    version     2.0;
    format      ascii;
    arch        "LSB;label=32;scalar=64";
    class       volScalarField;
    location    "0.09";
    object      O2;
}
// * * * * * * * * * * * * * * * * * * * * * * * * * * * * * * * * * * * * * //

dimensions      [0 0 0 0 0 0 0];

internalField   nonuniform List<scalar> 
3250
(
0.20086347
0.20114803
0.20143979
0.20173855
0.20204396
0.20235564
0.20267318
0.20299618
0.20332424
0.20365696
0.20399393
0.20433477
0.20467907
0.20502644
0.20537651
0.2057289
0.20608322
0.20643913
0.20679626
0.20715428
0.20751284
0.20787162
0.2082303
0.20858859
0.20894617
0.20930278
0.20965814
0.21001198
0.21036407
0.21071415
0.211062
0.2114074
0.21175015
0.21209005
0.2124269
0.21276054
0.21309079
0.2134175
0.21374051
0.21405967
0.21437485
0.2146859
0.21499267
0.21529503
0.20075579
0.20104275
0.20133695
0.20163817
0.20194602
0.20226013
0.20258007
0.20290546
0.20323588
0.20357093
0.20391021
0.20425332
0.20459987
0.20494945
0.2053017
0.20565622
0.20601265
0.20637063
0.20672979
0.20708979
0.2074503
0.20781099
0.20817155
0.20853166
0.20889103
0.20924939
0.20960645
0.20996196
0.21031566
0.21066733
0.21101672
0.21136362
0.21170782
0.21204914
0.21238737
0.21272235
0.21305391
0.21338189
0.21370613
0.2140265
0.21434286
0.21465509
0.21496305
0.21526652
0.20055548
0.20084706
0.20114585
0.20145162
0.201764
0.20208259
0.20240699
0.20273679
0.20307157
0.20341093
0.20375447
0.20410178
0.20445247
0.20480614
0.20516241
0.20552088
0.20588121
0.206243
0.20660592
0.2069696
0.20733372
0.20769795
0.20806197
0.20842546
0.20878815
0.20914975
0.20950997
0.20986856
0.21022528
0.21057988
0.21093213
0.21128181
0.21162873
0.21197268
0.21231348
0.21265096
0.21298494
0.21331527
0.2136418
0.2139644
0.21428292
0.21459725
0.21490724
0.21521266
0.20027576
0.20057378
0.20087896
0.20119107
0.20150975
0.20183458
0.20216516
0.20250107
0.2028419
0.20318725
0.20353669
0.20388983
0.20424627
0.20460561
0.20496745
0.20533143
0.20569715
0.20606425
0.20643238
0.20680118
0.20717032
0.20753946
0.20790829
0.2082765
0.2086438
0.2090099
0.20937453
0.20973742
0.21009833
0.21045702
0.21081326
0.21116683
0.21151753
0.21186516
0.21220955
0.2125505
0.21288787
0.21322149
0.21355121
0.21387691
0.21419844
0.21451569
0.21482851
0.21513667
0.1999287
0.20023469
0.20054777
0.20086772
0.20119418
0.20152671
0.20186492
0.20220838
0.20255668
0.20290941
0.20326614
0.20362648
0.20399002
0.20435635
0.20472508
0.20509583
0.20546822
0.20584188
0.20621644
0.20659156
0.2069669
0.20734211
0.2077169
0.20809094
0.20846394
0.20883561
0.20920569
0.2095739
0.20994001
0.21030376
0.21066494
0.21102333
0.21137872
0.21173091
0.21207974
0.21242501
0.21276658
0.21310428
0.21343797
0.21376751
0.21409278
0.21441365
0.21472998
0.21504154
0.19952524
0.19984046
0.20016271
0.20049175
0.2008272
0.20116866
0.20151571
0.20186791
0.20222486
0.20258612
0.20295129
0.20331996
0.2036917
0.20406613
0.20444283
0.20482143
0.20520153
0.20558278
0.20596479
0.20634723
0.20672974
0.207112
0.20749368
0.20787448
0.20825409
0.20863222
0.20900862
0.209383
0.20975513
0.21012477
0.21049168
0.21085566
0.21121649
0.21157399
0.21192798
0.21227827
0.21262472
0.21296716
0.21330546
0.21363948
0.21396909
0.21429417
0.21461458
0.2149301
0.19907529
0.19940077
0.19973321
0.20007236
0.20041783
0.20076921
0.20112607
0.201488
0.20185455
0.20222531
0.20259985
0.20297776
0.20335863
0.20374204
0.2041276
0.20451492
0.2049036
0.20529327
0.20568357
0.20607414
0.20646463
0.20685471
0.20724406
0.20763236
0.20801932
0.20840465
0.20878807
0.20916933
0.20954816
0.20992434
0.21029764
0.21066784
0.21103475
0.21139815
0.21175789
0.21211378
0.21246567
0.2128134
0.21315684
0.21349585
0.21383031
0.21416009
0.21448506
0.214805
0.1985878
0.19892435
0.1992678
0.19961788
0.19997418
0.20033629
0.20070377
0.20107619
0.20145312
0.20183413
0.2022188
0.2026067
0.20299742
0.20339054
0.20378566
0.20418238
0.20458032
0.2049791
0.20537834
0.20577769
0.2061768
0.20657533
0.20697297
0.20736938
0.20776429
0.20815739
0.20854841
0.20893709
0.20932319
0.20970645
0.21008665
0.21046359
0.21083706
0.21120686
0.21157283
0.21193478
0.21229256
0.21264603
0.21299503
0.21333945
0.21367916
0.21401404
0.21434395
0.21466869
0.19807091
0.19841903
0.19877413
0.19913579
0.19950357
0.19987705
0.20025577
0.2006393
0.20102722
0.20141908
0.20181445
0.20221291
0.20261405
0.20301743
0.20342266
0.20382934
0.20423707
0.20464547
0.20505417
0.20546281
0.20587103
0.2062785
0.2066849
0.2070899
0.20749321
0.20789454
0.2082936
0.20869015
0.20908392
0.20947468
0.20986221
0.21024628
0.2106267
0.21100328
0.21137585
0.21174422
0.21210825
0.21246779
0.21282271
0.21317286
0.21351814
0.21385843
0.21419359
0.21452341
0.1968318
0.19717789
0.1975312
0.1978917
0.19825905
0.19863282
0.19901258
0.1993979
0.19978833
0.20018344
0.20058279
0.20098594
0.20139246
0.20180192
0.20221389
0.20262796
0.20304371
0.20346074
0.20387865
0.20429707
0.20471561
0.20513391
0.20555162
0.20596839
0.20638391
0.20679785
0.2072099
0.20761979
0.20802723
0.20843197
0.20883374
0.20923231
0.20962745
0.21001896
0.21040663
0.21079028
0.21116972
0.21154479
0.21191534
0.21228122
0.21264229
0.21299843
0.21334952
0.21369545
0.21403609
0.21437122
0.19625051
0.19660937
0.19697553
0.19734879
0.19772874
0.19811498
0.19850707
0.19890458
0.19930705
0.19971407
0.20012517
0.20053993
0.2009579
0.20137865
0.20180175
0.20222679
0.20265335
0.20308101
0.20350938
0.20393808
0.20436673
0.20479496
0.20522241
0.20564874
0.20607362
0.20649674
0.20691779
0.20733647
0.20775252
0.20816567
0.20857566
0.20898226
0.20938524
0.2097844
0.21017952
0.21057043
0.21095695
0.21133891
0.21171616
0.21208856
0.21245597
0.21281827
0.21317535
0.21352709
0.21387337
0.21421398
0.19565834
0.1960304
0.19640966
0.19679589
0.19718868
0.19758761
0.19799225
0.19840216
0.1988169
0.19923602
0.19965908
0.20008563
0.20051525
0.20094748
0.2013819
0.20181809
0.20225562
0.20269409
0.2031331
0.20357225
0.20401116
0.20444947
0.20488682
0.20532287
0.20575727
0.20618972
0.20661991
0.20704754
0.20747234
0.20789404
0.20831239
0.20872715
0.20913811
0.20954504
0.20994775
0.21034605
0.21073977
0.21112874
0.21151282
0.21189185
0.21226572
0.2126343
0.21299747
0.21335513
0.21370715
0.21405334
0.19506069
0.19544611
0.19583861
0.19623793
0.19664368
0.19705542
0.19747272
0.19789514
0.19832224
0.19875357
0.19918868
0.19962713
0.20006848
0.20051228
0.2009581
0.20140552
0.20185411
0.20230347
0.20275318
0.20320286
0.20365211
0.20410058
0.2045479
0.20499373
0.20543772
0.20587957
0.20631896
0.20675561
0.20718922
0.20761954
0.20804632
0.20846931
0.2088883
0.20930307
0.20971343
0.21011918
0.21052016
0.21091621
0.21130717
0.2116929
0.21207328
0.21244818
0.2128175
0.21318113
0.21353896
0.21389077
0.19446217
0.194861
0.19526677
0.19567922
0.19609794
0.19652252
0.1969525
0.19738745
0.19782692
0.19827046
0.19871763
0.19916798
0.19962106
0.20007643
0.20053365
0.2009923
0.20145195
0.20191218
0.2023726
0.20283279
0.20329239
0.20375101
0.2042083
0.2046639
0.20511749
0.20556873
0.20601732
0.20646298
0.20690541
0.20734435
0.20777955
0.20821078
0.2086378
0.20906041
0.20947842
0.20989163
0.21029988
0.210703
0.21110084
0.21149328
0.21188018
0.21226142
0.2126369
0.21300651
0.21337015
0.2137276
0.19386677
0.19427897
0.19469796
0.19512349
0.19555513
0.19599248
0.19643507
0.19688248
0.19733426
0.19778995
0.1982491
0.19871127
0.19917601
0.19964287
0.20011142
0.20058122
0.20105185
0.20152289
0.20199393
0.20246458
0.20293444
0.20340314
0.20387033
0.20433564
0.20479875
0.20525932
0.20571706
0.20617166
0.20662284
0.20707035
0.20751392
0.20795332
0.20838833
0.20881874
0.20924434
0.20966497
0.21008044
0.21049059
0.21089529
0.21129439
0.21168777
0.21207531
0.21245692
0.21283248
0.21320189
0.21356495
0.19327796
0.1937034
0.19413549
0.19457396
0.1950184
0.19546838
0.19592346
0.19638319
0.19684713
0.19731483
0.19778582
0.19825967
0.19873593
0.19921414
0.19969388
0.20017469
0.20065616
0.20113787
0.20161941
0.20210037
0.20258037
0.20305903
0.20353598
0.20401088
0.20448339
0.20495318
0.20541994
0.20588337
0.20634321
0.20679917
0.20725101
0.20769849
0.20814139
0.20857949
0.20901261
0.20944055
0.20986316
0.21028027
0.21069173
0.21109742
0.21149721
0.21189098
0.21227864
0.21266009
0.21303522
0.21340383
0.19269871
0.19313717
0.19358216
0.19403338
0.19449042
0.19495284
0.19542021
0.19589207
0.19636798
0.19684748
0.19733013
0.19781546
0.19830304
0.19879241
0.19928313
0.19977477
0.2002669
0.20075908
0.20125093
0.20174202
0.20223198
0.20272042
0.20320697
0.20369129
0.20417303
0.20465187
0.20512749
0.20559961
0.20606794
0.20653221
0.20699218
0.20744759
0.20789824
0.20834391
0.20878441
0.20921955
0.20964918
0.21007312
0.21049124
0.21090341
0.2113095
0.2117094
0.21210302
0.21249025
0.212871
0.21324507
0.19213153
0.19258267
0.19304032
0.19350406
0.19397346
0.19444808
0.19492749
0.19541123
0.19589886
0.19638993
0.19688397
0.19738055
0.1978792
0.19837949
0.19888096
0.19938319
0.19988573
0.20038817
0.20089009
0.20139109
0.20189079
0.20238878
0.20288472
0.20337825
0.20386902
0.20435671
0.20484101
0.20532161
0.20579825
0.20627065
0.20673856
0.20720174
0.20765997
0.20811305
0.20856077
0.20900296
0.20943944
0.20987008
0.21029471
0.21071322
0.21112548
0.21153138
0.21193083
0.21232373
0.21270998
0.2130894
0.19112089
0.19157809
0.19204186
0.19251193
0.19298792
0.1934694
0.19395594
0.1944471
0.19494243
0.1954415
0.19594383
0.19644899
0.19695652
0.19746597
0.1979769
0.19848884
0.19900138
0.19951407
0.20002649
0.20053823
0.20104888
0.20155805
0.20206536
0.20257044
0.20307293
0.2035725
0.20406881
0.20456155
0.20505043
0.20553516
0.20601547
0.20649112
0.20696187
0.20742749
0.20788777
0.20834253
0.20879158
0.20923476
0.20967191
0.2101029
0.21052758
0.21094586
0.21135761
0.21176275
0.21216117
0.21255279
0.21293743
0.19057072
0.1910404
0.19151645
0.19199863
0.19248655
0.19297978
0.19347791
0.1939805
0.1944871
0.19499728
0.19551056
0.19602652
0.19654469
0.19706462
0.19758586
0.19810797
0.19863052
0.19915305
0.19967516
0.20019643
0.20071644
0.20123481
0.20175115
0.2022651
0.20277629
0.20328439
0.20378906
0.20429
0.2047869
0.20527948
0.20576748
0.20625064
0.20672872
0.20720151
0.2076688
0.20813039
0.2085861
0.20903578
0.20947926
0.20991641
0.2103471
0.21077122
0.21118865
0.21159931
0.2120031
0.21239994
0.21278964
0.19003813
0.19051984
0.1910078
0.19150172
0.1920012
0.19250584
0.19301521
0.19352887
0.19404639
0.19456732
0.19509121
0.19561761
0.19614608
0.19667615
0.19720738
0.19773932
0.19827154
0.1988036
0.19933508
0.19986555
0.20039462
0.20092188
0.20144696
0.20196948
0.20248908
0.20300543
0.20351819
0.20402705
0.20453171
0.20503188
0.20552731
0.20601774
0.20650292
0.20698265
0.20745671
0.2079249
0.20838707
0.20884303
0.20929263
0.20973575
0.21017225
0.21060202
0.21102495
0.21144096
0.21184995
0.21225183
0.21264644
0.18952418
0.19001747
0.19051694
0.19102221
0.19153287
0.19204853
0.19256875
0.19309311
0.19362117
0.19415249
0.19468661
0.1952231
0.19576149
0.19630134
0.1968422
0.19738363
0.19792518
0.19846642
0.19900693
0.19954628
0.20008408
0.20061991
0.20115341
0.20168419
0.2022119
0.2027362
0.20325676
0.20377325
0.20428539
0.20479289
0.20529548
0.20579291
0.20628494
0.20677135
0.20725194
0.20772651
0.20819489
0.20865691
0.20911243
0.2095613
0.2100034
0.21043863
0.21086687
0.21128803
0.21170204
0.2121088
0.21250814
0.18853102
0.18902939
0.18953401
0.19004461
0.19056083
0.19108228
0.19160856
0.19213924
0.1926739
0.19321211
0.19375342
0.1942974
0.19484358
0.19539153
0.19594079
0.19649091
0.19704145
0.19759197
0.19814204
0.19869123
0.19923912
0.1997853
0.20032937
0.20087096
0.20140969
0.20194519
0.20247713
0.20300518
0.20352901
0.20404834
0.20456288
0.20507235
0.20557652
0.20607513
0.20656797
0.20705484
0.20753554
0.2080099
0.20847775
0.20893895
0.20939336
0.20984085
0.21028132
0.21071467
0.2111408
0.21155963
0.21197108
0.21237499
0.18804507
0.18855453
0.18907005
0.18959136
0.19011812
0.19064994
0.19118643
0.19172716
0.19227171
0.19281967
0.19337057
0.193924
0.19447949
0.1950366
0.19559488
0.19615388
0.19671317
0.19727229
0.19783082
0.19838833
0.1989444
0.19949862
0.2000506
0.20059994
0.20114628
0.20168925
0.20222852
0.20276375
0.20329462
0.20382084
0.20434213
0.2048582
0.20536882
0.20587374
0.20637275
0.20686564
0.20735222
0.20783231
0.20830576
0.2087724
0.20923212
0.20968479
0.2101303
0.21056854
0.21099944
0.21142291
0.21183886
0.21224714
0.18757994
0.18809999
0.18862594
0.18915754
0.1896944
0.19023617
0.19078244
0.1913328
0.19188683
0.19244411
0.19300421
0.19356668
0.19413108
0.19469696
0.19526387
0.19583137
0.19639902
0.19696637
0.19753299
0.19809846
0.19866235
0.19922426
0.19978379
0.20034055
0.20089417
0.20144429
0.20199056
0.20253265
0.20307026
0.20360307
0.2041308
0.20465319
0.20516998
0.20568094
0.20618585
0.2066845
0.2071767
0.20766228
0.20814107
0.20861293
0.20907774
0.20953535
0.20998568
0.21042861
0.21086407
0.21129198
0.21171225
0.21212472
0.18713578
0.18766591
0.18820186
0.18874329
0.18928983
0.18984111
0.19039673
0.19095629
0.19151939
0.19208559
0.19265446
0.19322557
0.19379847
0.19437272
0.19494787
0.19552348
0.19609911
0.19667431
0.19724866
0.19782171
0.19839307
0.19896231
0.19952905
0.20009288
0.20065344
0.20121038
0.20176333
0.20231198
0.202856
0.2033951
0.20392899
0.2044574
0.20498009
0.20549681
0.20600734
0.20651148
0.20700905
0.20749986
0.20798376
0.20846061
0.20893026
0.2093926
0.20984753
0.21029494
0.21073476
0.2111669
0.2115913
0.21200778
0.18617839
0.1867124
0.18725228
0.1877978
0.18834863
0.1889044
0.18946476
0.1900293
0.19059765
0.19116938
0.19174408
0.19232131
0.19290065
0.19348165
0.19406388
0.19464688
0.19523021
0.19581344
0.19639611
0.19697781
0.1975581
0.19813656
0.19871278
0.19928637
0.19985694
0.20042411
0.20098753
0.20154685
0.20210173
0.20265187
0.20319695
0.2037367
0.20427085
0.20479914
0.20532134
0.20583723
0.20634661
0.20684929
0.20734509
0.20783385
0.20831544
0.20878971
0.20925655
0.20971586
0.21016755
0.21061152
0.2110477
0.21147603
0.21189634
0.1857663
0.18630981
0.186859
0.18741365
0.18797343
0.188538
0.189107
0.18968004
0.19025674
0.19083669
0.19141947
0.19200466
0.19259182
0.19318053
0.19377033
0.19436079
0.19495146
0.19554191
0.19613168
0.19672036
0.19730751
0.19789272
0.19847558
0.19905568
0.19963265
0.2002061
0.20077568
0.20134104
0.20190185
0.20245779
0.20300856
0.20355387
0.20409347
0.20462709
0.2051545
0.20567549
0.20618984
0.20669737
0.20719791
0.20769129
0.20817738
0.20865605
0.20912717
0.20959065
0.21004639
0.21049431
0.21093434
0.21136641
0.21179038
0.18537528
0.1859278
0.18648584
0.18704916
0.18761746
0.18819039
0.1887676
0.18934871
0.18993334
0.19052109
0.19111155
0.19170429
0.19229888
0.19289489
0.19349188
0.19408942
0.19468705
0.19528434
0.19588085
0.19647615
0.19706981
0.19766142
0.19825056
0.19883684
0.19941987
0.19999927
0.20057469
0.20114578
0.2017122
0.20227365
0.20282981
0.2033804
0.20392516
0.20446384
0.20499619
0.205522
0.20604107
0.2065532
0.20705824
0.20755601
0.20804637
0.2085292
0.20900439
0.20947182
0.2099314
0.21038307
0.21082674
0.21126237
0.21168983
0.18500495
0.18556602
0.18613245
0.18670401
0.18728038
0.18786124
0.18844624
0.18903501
0.18962716
0.1902223
0.19082003
0.19141991
0.19202154
0.19262447
0.19322827
0.1938325
0.19443672
0.19504048
0.19564337
0.19624493
0.19684475
0.19744242
0.19803751
0.19862963
0.1992184
0.19980344
0.20038438
0.20096089
0.20153263
0.20209927
0.20266054
0.20321613
0.20376577
0.20430923
0.20484626
0.20537664
0.20590017
0.20641667
0.20692595
0.20742787
0.20792229
0.20840906
0.20888809
0.20935926
0.20982249
0.2102777
0.21072482
0.21116382
0.21159461
0.18465488
0.18522405
0.18579843
0.18637778
0.1869618
0.18755017
0.18814254
0.18873854
0.18933781
0.18993994
0.19054454
0.19115119
0.19175946
0.19236893
0.19297916
0.19358972
0.19420016
0.19481005
0.19541895
0.19602644
0.19663208
0.19723546
0.19783617
0.19843381
0.19902799
0.19961835
0.20020452
0.20078614
0.2013629
0.20193447
0.20250055
0.20306085
0.20361512
0.20416309
0.20470454
0.20523924
0.20576699
0.2062876
0.20680091
0.20730675
0.20780499
0.20829549
0.20877814
0.20925285
0.20971952
0.21017808
0.21062846
0.2110706
0.21150443
0.21192984
0.18432455
0.18490138
0.18548328
0.18607
0.18666125
0.18725671
0.18785604
0.18845888
0.18906486
0.1896736
0.19028468
0.19089771
0.19151226
0.1921279
0.19274419
0.19336072
0.19397703
0.19459269
0.19520727
0.19582033
0.19643146
0.19704023
0.19764623
0.19824908
0.19884837
0.19944375
0.20003483
0.20062128
0.20120277
0.20177898
0.2023496
0.20291436
0.20347298
0.20402521
0.20457082
0.20510959
0.20564132
0.20616582
0.20668291
0.20719246
0.2076943
0.20818832
0.2086744
0.20915244
0.20962236
0.21008407
0.21053751
0.21098263
0.21141935
0.2118475
0.1840134
0.18459747
0.18518646
0.18578014
0.1863782
0.18698035
0.18758625
0.18819553
0.18880785
0.1894228
0.19004
0.19065903
0.19127949
0.19190094
0.19252295
0.19314509
0.19376692
0.19438802
0.19500794
0.19562626
0.19624255
0.19685639
0.19746738
0.19807512
0.19867923
0.19927932
0.19987504
0.20046603
0.20105197
0.20163254
0.20220744
0.20277638
0.2033391
0.20389535
0.20444488
0.20498748
0.20552295
0.20605111
0.20657178
0.2070848
0.20759004
0.20808738
0.20857668
0.20905787
0.20953084
0.20999553
0.21045186
0.21089977
0.21133921
0.21177001
0.18372083
0.18431172
0.1849074
0.18550762
0.18611211
0.18672055
0.18733262
0.18794798
0.18856625
0.18918705
0.18981
0.19043468
0.19106069
0.1916876
0.19231498
0.1929424
0.19356943
0.19419563
0.19482057
0.19544383
0.19606497
0.19668358
0.19729926
0.1979116
0.19852022
0.19912474
0.19972481
0.20032008
0.2009102
0.20149487
0.20207379
0.20264667
0.20321324
0.20377325
0.20432647
0.20487267
0.20541167
0.20594326
0.20646728
0.20698358
0.20749202
0.20799246
0.20848481
0.20896895
0.20944479
0.20991228
0.21037132
0.21082188
0.21126387
0.21169719
0.1834462
0.18404351
0.18464547
0.18525185
0.18586237
0.18647674
0.18709461
0.18771566
0.18833952
0.18896582
0.18959417
0.19022415
0.19085538
0.19148741
0.19211983
0.19275221
0.19338411
0.1940151
0.19464475
0.19527263
0.19589833
0.19652141
0.19714148
0.19775814
0.198371
0.19897968
0.19958383
0.2001831
0.20077715
0.20136567
0.20194835
0.20252492
0.2030951
0.20365865
0.20421533
0.20476491
0.20530721
0.20584203
0.2063692
0.20688858
0.20740001
0.20790338
0.20839857
0.20888548
0.20936403
0.20983414
0.21029574
0.21074877
0.21119319
0.21162886
0.18318885
0.18379219
0.18440005
0.18501221
0.1856284
0.18624831
0.18687163
0.18749802
0.18812713
0.18875857
0.18939197
0.19002693
0.19066304
0.19129988
0.19193702
0.19257404
0.1932105
0.19384598
0.19448004
0.19511226
0.19574221
0.19636949
0.19699367
0.19761437
0.19823119
0.19884377
0.19945174
0.20005476
0.20065249
0.20124461
0.20183083
0.20241085
0.20298442
0.20355128
0.20411119
0.20466394
0.20520933
0.20574718
0.2062773
0.20679955
0.2073138
0.2078199
0.20831776
0.20880728
0.20928836
0.20976093
0.21022493
0.21068029
0.21112697
0.21156485
0.18294811
0.1835571
0.18417049
0.18478806
0.18540955
0.18603466
0.18666308
0.18729447
0.18792848
0.18856475
0.18920288
0.18984249
0.19048317
0.19112449
0.19176605
0.19240741
0.19304814
0.19368781
0.194326
0.19496227
0.19559621
0.1962274
0.19685543
0.19747991
0.19810044
0.19871666
0.1993282
0.19993472
0.20053589
0.20113138
0.2017209
0.20230415
0.20288089
0.20345084
0.20401378
0.2045695
0.20511778
0.20565845
0.20619133
0.20671628
0.20723315
0.20774182
0.20824218
0.20873413
0.20921758
0.20969246
0.2101587
0.21061625
0.21106505
0.21150501
0.18272329
0.18333757
0.18395613
0.18457876
0.18520521
0.18583518
0.18646836
0.18710442
0.18774302
0.18838379
0.18902634
0.18967029
0.19031524
0.19096076
0.19160643
0.19225184
0.19289656
0.19354015
0.19418218
0.19482224
0.1954599
0.19609474
0.19672636
0.19735436
0.19797836
0.19859798
0.19921285
0.19982265
0.20042702
0.20102565
0.20161825
0.20220452
0.20278421
0.20335706
0.20392283
0.2044813
0.20503229
0.2055756
0.20611106
0.20663852
0.20715785
0.20766891
0.20817161
0.20866583
0.20915149
0.20962853
0.21009687
0.21055646
0.21100725
0.21144914
0.18251372
0.18313292
0.18375631
0.18438367
0.18501475
0.18564925
0.18628687
0.18692729
0.18757017
0.18821513
0.1888618
0.1895098
0.19015872
0.19080815
0.19145767
0.19210686
0.19275528
0.19340252
0.19404814
0.19469173
0.19533285
0.19597109
0.19660606
0.19723734
0.19786457
0.19848735
0.19910534
0.19971818
0.20032554
0.2009271
0.20152257
0.20211166
0.20269409
0.20326963
0.20383804
0.20439909
0.2049526
0.20549837
0.20603623
0.20656604
0.20708766
0.20760095
0.20810582
0.20860216
0.2090899
0.20956894
0.21003924
0.21050074
0.21095339
0.21139708
0.18231869
0.18294249
0.18357038
0.18420215
0.18483753
0.18547625
0.18611801
0.18676249
0.18740934
0.18805821
0.18870872
0.18936049
0.19001311
0.19066617
0.19131927
0.19197197
0.19262385
0.19327448
0.19392344
0.1945703
0.19521464
0.19585605
0.19649413
0.19712847
0.19775869
0.19838442
0.1990053
0.19962097
0.20023111
0.2008354
0.20143354
0.20202524
0.20261024
0.20318829
0.20375914
0.2043226
0.20487845
0.2054265
0.20596661
0.2064986
0.20702234
0.20753772
0.20804461
0.20854293
0.20903259
0.20951351
0.20998563
0.21044891
0.21090328
0.21134867
0.18213755
0.18276561
0.18339769
0.18403355
0.18467294
0.18531559
0.18596119
0.18660944
0.18725999
0.18791249
0.18856656
0.18922183
0.18987788
0.19053432
0.19119074
0.1918467
0.19250178
0.19315556
0.19380762
0.19445753
0.19510486
0.19574921
0.19639018
0.19702736
0.19766036
0.19828883
0.19891239
0.19953069
0.20014341
0.20075023
0.20135085
0.20194498
0.20253236
0.20311273
0.20368587
0.20425155
0.20480957
0.20535976
0.20590194
0.20643596
0.20696168
0.20747899
0.20798777
0.20848792
0.20897937
0.20946203
0.20993586
0.21040078
0.21085677
0.21130372
0.1819696
0.18260163
0.18323759
0.18387725
0.18452036
0.18516665
0.18581582
0.18646757
0.18712155
0.18777741
0.18843479
0.18909329
0.18975254
0.19041211
0.19107159
0.19173058
0.19238863
0.19304534
0.19370026
0.19435299
0.1950031
0.19565017
0.19629381
0.19693362
0.19756921
0.19820021
0.19882625
0.199447
0.20006211
0.20067128
0.20127419
0.20187058
0.20246016
0.20304269
0.20361793
0.20418568
0.20474572
0.20529788
0.20584198
0.20637789
0.20690545
0.20742455
0.20793507
0.20843693
0.20893004
0.20941432
0.20988972
0.21035618
0.21081367
0.21126207
0.17993161
0.18055491
0.18118249
0.18181418
0.1824499
0.18308946
0.18373264
0.1843792
0.18502886
0.18568133
0.18633631
0.18699347
0.18765244
0.18831288
0.18897438
0.18963657
0.19029904
0.19096137
0.19162315
0.19228396
0.19294336
0.19360094
0.19425628
0.19490895
0.19555855
0.19620466
0.1968469
0.19748488
0.19811822
0.19874656
0.19936957
0.19998689
0.20059823
0.20120327
0.20180173
0.20239335
0.20297788
0.20355508
0.20412473
0.20468664
0.20524063
0.20578652
0.20632416
0.20685342
0.20737418
0.20788632
0.20838976
0.2088844
0.20937019
0.20984705
0.21031494
0.21077381
0.21122356
0.17915467
0.17977735
0.18040431
0.18103546
0.18167067
0.1823098
0.1829527
0.18359913
0.18424886
0.18490164
0.18555716
0.18621513
0.18687522
0.18753707
0.18820033
0.1888646
0.18952951
0.19019465
0.19085961
0.19152397
0.19218732
0.19284921
0.19350925
0.19416699
0.19482203
0.19547395
0.19612235
0.19676683
0.19740701
0.19804252
0.19867299
0.19929807
0.19991744
0.20053078
0.20113778
0.20173817
0.20233167
0.20291804
0.20349704
0.20406846
0.2046321
0.20518777
0.2057353
0.20627455
0.20680538
0.20732767
0.20784131
0.20834621
0.20884228
0.20932945
0.20980767
0.21027687
0.21073702
0.21118803
0.17900904
0.1796352
0.18026555
0.1809
0.18153844
0.18218073
0.18282669
0.18347612
0.18412879
0.18478444
0.18544277
0.1861035
0.18676628
0.18743079
0.18809664
0.18876347
0.18943089
0.19009849
0.19076587
0.19143261
0.19209828
0.19276248
0.19342477
0.19408473
0.19474195
0.19539601
0.19604652
0.19669307
0.19733528
0.19797277
0.1986052
0.1992322
0.19985345
0.20046863
0.20107744
0.2016796
0.20227484
0.20286291
0.20344357
0.20401662
0.20458184
0.20513906
0.20568812
0.20622885
0.20676113
0.20728483
0.20779985
0.2083061
0.20880348
0.20929193
0.20977139
0.21024182
0.21070316
0.21115532
0.17887517
0.17950453
0.180138
0.18077549
0.1814169
0.18206208
0.18271087
0.18336306
0.18401843
0.18467671
0.18533764
0.18600089
0.18666616
0.1873331
0.18800134
0.18867052
0.18934024
0.1900101
0.19067971
0.19134863
0.19201645
0.19268276
0.19334712
0.19400912
0.19466834
0.19532438
0.19597681
0.19662526
0.19726934
0.19790867
0.19854289
0.19917165
0.19979463
0.20041151
0.20102198
0.20162577
0.2022226
0.20281223
0.20339442
0.20396896
0.20453565
0.2050943
0.20564475
0.20618685
0.20672046
0.20724546
0.20776175
0.20826923
0.20876782
0.20925745
0.20973807
0.21020961
0.21067205
0.21112528
0.17875241
0.17938471
0.18002104
0.18066133
0.18130546
0.1819533
0.18260468
0.1832594
0.18391724
0.18457795
0.18524124
0.18590682
0.18657437
0.18724354
0.18791397
0.1885853
0.18925713
0.18992907
0.19060071
0.19127163
0.19194143
0.19260967
0.19327593
0.1939398
0.19460086
0.19525869
0.1959129
0.19656309
0.19720888
0.19784988
0.19848575
0.19911613
0.1997407
0.20035913
0.20097113
0.20157641
0.2021747
0.20276576
0.20334935
0.20392526
0.20449329
0.20505325
0.20560498
0.20614833
0.20668317
0.20720936
0.20772682
0.20823543
0.20873513
0.20922585
0.20970752
0.2101801
0.21064355
0.21109776
0.17864015
0.17927514
0.17991409
0.18055693
0.18120355
0.18185382
0.18250758
0.18316462
0.18382472
0.18448764
0.1851531
0.1858208
0.18649043
0.18716164
0.18783408
0.18850737
0.18918113
0.18985497
0.19052847
0.19120123
0.19187282
0.19254283
0.19321083
0.19387641
0.19453914
0.19519863
0.19585446
0.19650624
0.19715359
0.19779613
0.1984335
0.19906536
0.19969138
0.20031123
0.20092462
0.20153126
0.2021309
0.20272327
0.20330814
0.2038853
0.20445456
0.20501572
0.20556862
0.20611312
0.20664907
0.20717636
0.20769488
0.20820454
0.20870525
0.20919696
0.20967961
0.21015313
0.21061751
0.21107263
0.1785378
0.17917524
0.17981658
0.18046175
0.18111065
0.18176313
0.18241904
0.1830782
0.18374037
0.18440531
0.18507274
0.18574238
0.1864139
0.18708698
0.18776124
0.18843632
0.18911185
0.18978741
0.19046261
0.19113704
0.19181027
0.19248189
0.19315147
0.19381861
0.19448287
0.19514386
0.19580117
0.1964544
0.19710317
0.19774711
0.19838586
0.19901907
0.1996464
0.20026755
0.20088221
0.2014901
0.20209095
0.20268452
0.20327056
0.20384887
0.20441924
0.2049815
0.20553547
0.20608101
0.20661798
0.20714627
0.20766576
0.20817637
0.20867802
0.20917063
0.20965416
0.21012856
0.21059378
0.21104975
0.17844477
0.17908445
0.17972797
0.18037525
0.18102621
0.18168071
0.18233859
0.18299966
0.1836637
0.18433048
0.18499971
0.18567111
0.18634436
0.18701912
0.18769504
0.18837175
0.18904888
0.18972601
0.19040275
0.19107869
0.19175342
0.1924265
0.19309752
0.19376607
0.19443173
0.19509408
0.19575273
0.19640728
0.19705735
0.19770256
0.19834255
0.19897699
0.19960552
0.20022785
0.20084367
0.20145269
0.20205465
0.2026493
0.20323641
0.20381575
0.20438714
0.20495039
0.20550534
0.20605183
0.20658973
0.20711892
0.2076393
0.20815078
0.20865327
0.20914671
0.20963105
0.21010624
0.21057225
0.21102898
0.17836053
0.17900223
0.17964771
0.18029692
0.18094974
0.18160606
0.18226572
0.18292853
0.18359428
0.18426271
0.18493357
0.18560656
0.18628137
0.18695767
0.18763509
0.18831328
0.18899185
0.1896704
0.19034854
0.19102586
0.19170193
0.19237634
0.19304866
0.19371849
0.19438541
0.195049
0.19570886
0.19636461
0.19701585
0.19766221
0.19830333
0.19893887
0.1995685
0.20019189
0.20080875
0.2014188
0.20202177
0.2026174
0.20320547
0.20378576
0.20435807
0.20492222
0.20547805
0.2060254
0.20656415
0.20709416
0.20761535
0.20812761
0.20863087
0.20912506
0.20961013
0.21008604
0.21055276
0.21101021
0.17828453
0.17892806
0.17957532
0.18022626
0.18088077
0.18153874
0.1822
0.18286438
0.18353165
0.18420159
0.18487391
0.18554834
0.18622456
0.18690223
0.18758101
0.18826053
0.1889404
0.18962024
0.19029964
0.19097819
0.19165548
0.19233108
0.19300458
0.19367557
0.19434362
0.19500832
0.19566928
0.1963261
0.1969784
0.1976258
0.19826794
0.19890448
0.19953509
0.20015945
0.20077725
0.20138823
0.2019921
0.20258862
0.20317756
0.2037587
0.20433184
0.20489681
0.20545343
0.20600157
0.20654107
0.20707183
0.20759374
0.20810671
0.20861066
0.20910554
0.20959127
0.21006783
0.2105352
0.2109933
0.17821629
0.17886146
0.17951031
0.1801628
0.18081883
0.18147827
0.18214098
0.18280676
0.18347541
0.18414669
0.18482034
0.18549605
0.18617353
0.18685245
0.18753244
0.18821315
0.1888942
0.18957519
0.19025572
0.19093538
0.19161376
0.19229043
0.19296499
0.19363701
0.19430608
0.19497179
0.19563373
0.19629152
0.19694476
0.1975931
0.19823616
0.1988736
0.19950508
0.20013031
0.20074896
0.20136076
0.20196545
0.20256277
0.20315249
0.2037344
0.20430829
0.20487399
0.20543133
0.20598016
0.20652035
0.20705178
0.20757434
0.20808795
0.20859253
0.20908801
0.20957434
0.21005149
0.21051944
0.21097815
0.17815532
0.17880195
0.17945223
0.18010611
0.18076349
0.18142425
0.18208824
0.18275528
0.18342516
0.18409764
0.18477246
0.18544933
0.18612794
0.18680796
0.18748904
0.18817082
0.18885291
0.18953492
0.19021646
0.19089712
0.19157647
0.19225411
0.19292961
0.19360255
0.19427253
0.19493913
0.19560196
0.19626061
0.1969147
0.19756387
0.19820775
0.19884599
0.19947827
0.20010426
0.20072367
0.20133622
0.20194163
0.20253967
0.20313008
0.20371267
0.20428724
0.20485359
0.20541157
0.20596103
0.20650183
0.20703386
0.20755701
0.20807119
0.20857633
0.20907235
0.20955922
0.2100369
0.21050536
0.21096461
0.17810116
0.17874909
0.17940064
0.18005575
0.18071433
0.18137626
0.1820414
0.18270955
0.18338052
0.18405407
0.18472993
0.18540782
0.18608743
0.18676844
0.18745048
0.1881332
0.18881622
0.18949915
0.19018159
0.19086312
0.19154334
0.19222183
0.19289816
0.19357193
0.19424272
0.19491012
0.19557372
0.19623314
0.19688799
0.19753789
0.1981825
0.19882146
0.19945443
0.20008111
0.2007012
0.20131441
0.20192047
0.20251914
0.20311018
0.20369337
0.20426853
0.20483547