/*--------------------------------*- C++ -*----------------------------------*\
| =========                 |                                                 |
| \\      /  F ield         | OpenFOAM: The Open Source CFD Toolbox           |
|  \\    /   O peration     | Version:  2312                                  |
|   \\  /    A nd           | Website:  www.openfoam.com                      |
|    \\/     M anipulation  |                                                 |
\*---------------------------------------------------------------------------*/
FoamFile
{
    version     2.0;
    format      ascii;
    arch        "LSB;label=32;scalar=64";
    class       volScalarField;
    location    "0.09";
    object      omega;
}
// * * * * * * * * * * * * * * * * * * * * * * * * * * * * * * * * * * * * * //

dimensions      [0 0 -1 0 0 0 0];

internalField   nonuniform List<scalar> 
3250
(
265.24865
263.13211
261.00673
258.87389
256.73489
254.59101
252.44355
250.29378
248.14302
245.99257
243.84372
241.69778
239.55603
237.41978
235.2903
233.16885
231.0567
228.95506
226.86517
224.78822
222.72538
220.6778
218.64659
216.63284
214.63762
212.66194
210.7068
208.77314
206.86189
204.97392
203.11008
201.27114
199.45788
197.671
195.91118
194.17904
192.47516
190.80008
189.15431
187.53828
185.95241
184.39705
182.8725
181.37902
265.63688
263.50737
261.36931
259.22408
257.07296
254.91723
252.75817
250.59708
248.43525
246.27399
244.11459
241.95835
239.80656
237.66052
235.52151
233.39078
231.26959
229.15917
227.06074
224.9755
222.9046
220.84921
218.81043
216.78935
214.78703
212.80448
210.8427
208.90263
206.98519
205.09125
203.22164
201.37717
199.55857
197.76656
196.0018
194.26492
192.5565
190.87708
189.22714
187.60714
186.01748
184.45853
182.9306
181.43386
266.32973
264.17661
262.01547
259.84767
257.67452
255.49726
253.31719
251.13559
248.95375
246.77297
244.59454
242.41976
240.24993
238.08631
235.93019
233.78283
231.64547
229.51935
227.40567
225.30563
223.22039
221.15109
219.09883
217.06471
215.04977
213.05503
211.08146
209.13002
207.2016
205.29708
203.41728
201.56299
199.73495
197.93386
196.16039
194.41515
192.69871
191.0116
189.35431
187.72727
186.1309
184.56553
183.03147
181.52888
267.28997
265.1042
262.91113
260.71215
258.50852
256.30151
254.09239
251.88244
249.67295
247.4652
245.26048
243.06009
240.8653
238.6774
236.49765
234.3273
232.1676
230.01976
227.885
225.7645
223.65941
221.57086
219.49997
217.44779
215.41539
213.40376
211.41387
209.44666
207.50304
205.58385
203.68991
201.82201
199.98087
198.16719
196.38162
194.62476
192.89718
191.19939
189.53186
187.89504
186.2893
184.71499
183.17238
181.66163
268.47269
266.24677
264.01447
261.77715
259.53608
257.29251
255.0477
252.80293
250.55947
248.31859
246.08159
243.84974
241.62431
239.40657
237.19779
234.9992
232.81205
230.63754
228.47686
226.33121
224.20172
222.08951
219.99569
217.92132
215.86742
213.83501
211.82503
209.83841
207.87605
205.93879
204.02744
202.14276
200.28547
198.45625
196.65575
194.88455
193.14321
191.43222
189.75205
188.10312
186.4858
184.90042
183.34724
181.82639
269.83812
267.56592
265.28839
263.0069
260.72268
258.437
256.15108
253.86621
251.58362
249.30461
247.03043
244.76235
242.50163
240.24954
238.00732
235.77621
233.55743
231.35219
229.16167
226.98703
224.82941
222.68994
220.56968
218.4697
216.39102
214.33462
212.30146
210.29245
208.30846
206.35033
204.41885
202.51478
200.63882
198.79165
196.97388
195.18609
193.42883
191.70257
190.00776
188.34481
186.71408
185.11587
183.55043
182.01787
271.35119
269.02775
266.70018
264.36981
262.03788
259.70562
257.37425
255.04503
252.7192
250.39801
248.08272
245.77459
243.47487
241.18479
238.9056
236.63853
234.38478
232.14554
229.922
227.7153
225.52657
223.35691
221.20739
219.07907
216.97294
214.88998
212.83113
210.7973
208.78934
206.80807
204.85428
202.92871
201.03205
199.16494
197.32801
195.52181
193.74686
192.00364
190.29257
188.61404
186.9684
185.35593
183.77686
182.23128
272.98091
270.60232
268.22091
265.83797
263.45473
261.07239
258.69216
256.31526
253.94294
251.57643
249.21696
246.86578
244.52412
242.19322
239.87429
237.56855
235.2772
233.00142
230.74236
228.50117
226.27897
224.07683
221.89584
219.737
217.60133
215.48977
213.40327
211.3427
209.30891
207.30272
205.32488
203.37613
201.45714
199.56855
197.71094
195.88487
194.09084
192.32931
190.60068
188.90533
187.24358
185.61571
184.02192
182.46227
274.70009
272.26322
269.82505
267.38674
264.94945
262.51437
260.08269
257.6556
255.23433
252.82009
250.41411
248.01761
245.6318
243.25791
240.89713
238.55068
236.21973
233.90545
231.60898
229.33146
227.07398
224.83763
222.62345
220.43245
218.26563
216.12392
214.00825
211.91948
209.85845
207.82595
205.82273
203.84951
201.90694
199.99565
198.11621
196.26915
194.45496
192.67408
190.92689
189.21376
187.53498
185.89081
184.28144
182.70692
281.47422
278.98041
276.48429
273.98716
271.49019
268.99447
266.50117
264.01143
261.52641
259.04731
256.57531
254.11162
251.65744
249.21396
246.7824
244.36395
241.95981
239.57116
237.19916
234.84497
232.50972
230.19452
227.90047
225.62862
223.38002
221.15566
218.95651
216.78351
214.63755
212.5195
210.43018
208.37036
206.34079
204.34214
202.37508
200.4402
198.53807
196.66919
194.83404
193.03303
191.26655
189.53492
187.83842
186.1773
184.55173
182.96172
283.43056
280.87196
278.31267
275.75388
273.19671
270.64224
268.0916
265.54591
263.00632
260.47399
257.95008
255.43578
252.93227
250.44072
247.96234
245.4983
243.04977
240.61792
238.2039
235.80885
233.43389
231.08012
228.74861
226.44041
224.15655
221.898
219.66573
217.46066
215.28368
213.13562
211.01729
208.92946
206.87285
204.84813
202.85594
200.89686
198.97144
197.08018
195.22351
193.40185
191.61554
189.86492
188.15023
186.4717
184.82948
183.22356
285.41452
282.79033
280.16701
277.54573
274.92755
272.31356
269.70483
267.10246
264.50759
261.92133
259.34484
256.77928
254.2258
251.68557
249.15976
246.64953
244.15603
241.68041
239.22382
236.78737
234.37217
231.9793
229.60983
227.26478
224.94516
222.65196
220.3861
218.14851
215.94004
213.76153
211.61378
209.49752
207.41347
205.36228
203.34458
201.36094
199.41187
197.49786
195.61934
193.7767
191.97027
190.20034
188.46717
186.77095
185.11181
183.48973
287.40928
284.71915
282.03148
279.3474
276.66793
273.99413
271.32705
268.66776
266.01736
263.37695
260.74765
258.13061
255.52695
252.93782
250.36437
247.80774
245.26907
242.7495
240.25014
237.77209
235.31645
232.8843
230.47666
228.09457
225.73902
223.41097
221.11134
218.84104
216.60091
214.39178
212.21442
210.06956
207.9579
205.88008
203.83671
201.82833
199.85546
197.91856
196.01803
194.15426
192.32756
190.5382
188.78641
187.07237
185.39619
183.75782
289.40023
286.6443
283.89242
281.14569
278.4051
275.67165
272.94638
270.23032
267.52455
264.83014
262.1482
259.47982
256.82613
254.18824
251.56729
248.9644
246.38068
243.81726
241.27524
238.7557
236.25973
233.78838
231.34267
228.92362
226.5322
224.16937
221.83603
219.53307
217.26134
215.02162
212.81469
210.64127
208.50203
206.39761
204.32858
202.2955
200.29884
198.33906
196.41654
194.53165
192.68469
190.8759
189.1055
187.37364
185.68043
184.02577
291.37485
288.55368
285.73815
282.92931
280.12812
277.33556
274.55262
271.78032
269.01968
266.27177
263.53765
260.81841
258.11513
255.42893
252.76091
250.11217
247.48381
244.87693
242.29262
239.73196
237.19599
234.68577
232.20231
229.74661
227.31962
224.92229
222.55551
220.22016
217.91705
215.64699
213.41073
211.20895
209.04234
206.9115
204.81701
202.75939
200.73911
198.75661
196.81226
194.9064
193.0393
191.21122
189.42233
187.67278
185.96264
184.29181
293.32252
290.437
287.55871
284.68864
281.82773
278.9769
276.13713
273.30938
270.49468
267.69403
264.9085
262.13913
259.38699
256.65317
253.93875
251.24482
248.57245
245.92273
243.29674
240.69552
238.12012
235.57158
233.05089
230.55903
228.09695
225.66558
223.26581
220.89849
218.56444
216.26443
213.9992
211.76944
209.57581
207.41889
205.29926
203.21741
201.17381
199.16887
197.20296
195.27638
193.38941
191.54226
189.73511
187.96808
186.24123
184.55442
295.2343
292.28561
289.34573
286.4156
283.4961
280.58812
277.6926
274.81048
271.94275
269.09039
266.25442
263.43589
260.63583
257.8553
255.09537
252.3571
249.64156
246.94981
244.28291
241.6419
239.02781
236.44165
233.88441
231.35706
228.86054
226.39576
223.96359
221.56488
219.20043
216.87101
214.57733
212.32008
210.0999
207.91736
205.77302
203.66737
201.60085
199.57386
197.58676
195.63982
193.73332
191.86744
190.04234
188.25813
186.51484
184.81234
297.10279
294.09229
291.09224
288.10344
285.12672
282.16294
279.21298
276.27777
273.35824
270.45538
267.57017
264.70362
261.85675
259.0306
256.22622
253.44464
250.68693
247.95412
245.24725
242.56736
239.91545
237.29253
234.69958
232.13754
229.60735
227.1099
224.64605
222.21665
219.82247
217.46428
215.14278
212.85865
210.61249
208.4049
206.23639
204.10745
202.0185
199.96994
197.96209
195.99524
194.06962
192.18541
190.34275
188.54173
186.78237
185.06449
302.00299
298.92149
295.85104
292.7925
289.74665
286.71427
283.6962
280.69328
277.70642
274.73652
271.78452
268.8514
265.93814
263.04573
260.1752
257.32756
254.50385
251.70509
248.93232
246.18655
243.46881
240.78009
238.12139
235.49366
232.89784
230.33486
227.80559
225.3109
222.8516
220.42847
218.04225
215.69365
213.38331
211.11185
208.87983
206.68777
204.53613
202.42534
200.35575
198.32769
196.34142
194.39717
192.4951
190.63532
188.81792
187.04288
185.31003
303.82678
300.68571
297.55715
294.44192
291.34076
288.25444
285.18374
282.12949
279.09256
276.07382
273.0742
270.09464
267.13608
264.19953
261.28596
258.39638
255.5318
252.69324
249.88171
247.09822
244.34377
241.61934
238.92592
236.26444
233.63585
231.04105
228.48091
225.95627
223.46795
221.01671
218.60329
216.22837
213.89259
211.59656
209.34083
207.1259
204.95222
202.8202
200.73019
198.6825
196.67738
194.71503
192.79561
190.91921
189.08589
187.29564
185.54825
305.59034
302.39163
299.2069
296.03688
292.88229
289.74384
286.62229
283.51845
280.43314
277.36721
274.32157
271.29712
268.2948
265.31558
262.36041
259.4303
256.52622
253.64919
250.80019
247.98022
245.19027
242.43131
239.7043
237.0102
234.3499
231.72432
229.13431
226.5807
224.0643
221.58587
219.14611
216.74572
214.38533
212.06552
209.78683
207.54976
205.35475
203.20218
201.09241
199.02572
197.00235
195.02248
193.08626
191.19377
189.34506
187.54007
185.77861
307.29062
304.03629
300.79742
297.57462
294.36855
291.17989
288.00936
284.85774
281.72582
278.61443
275.52445
272.45676
269.41227
266.39192
263.39668
260.42749
257.48535
254.57122
251.6861
248.83097
246.00679
243.21454
240.45516
237.72958
235.03871
232.38344
229.76461
227.18306
224.63957
222.1349
219.66974
217.24478
214.86062
212.51786
210.21703
207.95859
205.74298
203.57059
201.44174
199.35671
197.31573
195.31896
193.36653
191.45851
189.59493
187.77574
186.0007
312.24883
308.92509
305.61748
302.32664
299.05315
295.79762
292.56072
289.34314
286.14561
282.96891
279.81385
276.68126
273.57201
270.487
267.42714
264.39337
261.38663
258.40789
255.45812
252.53827
249.64933
246.79225
243.96798
241.17746
238.42161
235.70134
233.01751
230.37097
227.76253
225.19298
222.66305
220.17345
217.72484
215.31782
212.95298
210.63082
208.35182
206.1164
203.92493
201.77772
199.67503
197.61709
195.60405
193.63603
191.71307
189.83519
188.00232
186.21421
313.86855
310.49248
307.13382
303.79318
300.47111
297.1682
293.88508
290.6224
287.38089
284.16128
280.96435
277.79093
274.64185
271.518
268.42026
265.34956
262.30682
259.293
256.30903
253.35589
250.43452
247.54588
244.6909
241.87051
239.08563
236.33714
233.62591
230.95277
228.31854
225.72398
223.16982
220.65676
218.18544
215.75649
213.37044
211.02782
208.72908
206.47463
204.26484
202.1
199.98037
197.90616
195.8775
193.8945
191.95721
190.0656
188.21961
186.41896
315.41815
311.99198
308.5845
305.19626
301.82775
298.47955
295.15224
291.84646
288.5629
285.30226
282.06531
278.85284
275.66568
272.50468
269.37072
266.2647
263.18753
260.14014
257.12348
254.13848
251.18609
248.26725
245.38288
242.53391
239.72124
236.94575
234.20829
231.50969
228.85076
226.23225
223.65489
221.11937
218.62632
216.17635
213.77
211.40778
209.09013
206.81747
204.59013
202.40841
200.27256
198.18276
196.13915
194.14181
192.19078
190.28604
188.42748
186.61484
316.89731
313.4233
309.96925
306.53561
303.12282
299.73142
296.36197
293.01507
289.69139
286.39162
283.11649
279.86678
276.64328
273.44684
270.27832
267.13859
264.02856
260.94914
257.90127
254.88586
251.90386
248.95618
246.04376
243.16749
240.32829
237.527
234.76449
232.04158
229.35906
226.71767
224.11815
221.56116
219.04735
216.5773
214.15156
211.77061
209.4349
207.14483
204.90072
202.70288
200.55152
198.44682
196.38893
194.37789
192.41375
190.49646
188.62591
186.80181
321.84607
318.306
314.78659
311.28825
307.8114
304.35647
300.92396
297.5144
294.12837
290.76651
287.42949
284.11801
280.83284
277.57476
274.34457
271.14313
267.97131
264.82998
261.72006
258.64246
255.59809
252.58787
249.61273
246.67357
243.7713
240.90681
238.08095
235.29457
232.54848
229.84346
227.18028
224.55963
221.98218
219.44857
216.95938
214.51514
212.11634
209.76341
207.45674
205.19665
202.98342
200.81728
198.69839
196.62687
194.60278
192.62614
190.69689
188.81492
186.97992
323.22925
319.64499
316.08247
312.54208
309.0242
305.52925
302.05769
298.61003
295.18684
291.78871
288.41629
285.07029
281.75143
278.46048
275.19823
271.96552
268.76319
265.59212
262.45321
259.34734
256.27543
253.2384
250.23714
247.27257
244.34557
241.45703
238.60779
235.79871
233.03057
230.30417
227.62024
224.97949
222.38258
219.83014
217.32274
214.8609
212.44511
210.0758
207.75333
205.47803
203.25017
201.06996
198.93757
196.85309
194.81657
192.82804
190.88742
188.99459
187.14925
324.54147
320.91529
317.3119
313.73164
310.17488
306.64199
303.13341
299.64964
296.19121
292.75869
289.35273
285.97399
282.62318
279.30106
276.0084
272.74603
269.51477
266.31549
263.14907
260.01639
256.91836
253.85588
250.82984
247.84114
244.89068
241.97931
239.10789
236.27725
233.48819
230.74148
228.03785
225.37802
222.76263
220.1923
217.66761
215.18906
212.75714
210.37227
208.0348
205.74506
203.50331
201.30974
199.16452
197.06773
195.01942
193.01959
191.06817
189.16506
187.30994
325.78402
322.11817
318.47611
314.85813
311.26457
307.69579
304.1522
300.63425
297.14247
293.67742
290.23971
286.82998
283.44894
280.09731
276.77587
273.48541
270.22677
267.00078
263.80831
260.65024
257.52747
254.44088
251.39137
248.37983
245.40713
242.47414
239.5817
236.73064
233.92174
231.15579
228.43351
225.75559
223.12269
220.53541
217.99432
215.49994
213.05273
210.65311
208.30143
205.998
203.74308
201.53685
199.37947
197.27101
195.21152
193.20098
191.23932
189.32645
187.46213
326.95845
323.25515
319.57656
315.92297
312.29466
308.69198
305.11531
301.56509
298.04181
294.54602
291.07831
287.63931
284.2297
280.8502
277.50157
274.18457
270.90004
267.6488
264.43172
261.24966
258.1035
254.99412
251.92242
248.88927
245.89555
242.94211
240.02979
237.15941
234.33177
231.54762
228.80768
226.11265
223.46318
220.85987
218.30328
215.79392
213.33225
210.91867
208.55354
206.23716
203.96978
201.75157
199.58269
197.46319
195.39312
193.37244
191.40108
189.47891
187.60567
185.78099
328.06655
324.32794
320.61492
316.92775
313.26668
309.63204
306.02418
302.44353
298.89056
295.36579
291.86979
288.40318
284.96663
281.56084
278.18655
274.84452
271.53557
268.26052
265.02021
261.8155
258.64727
255.51639
252.42374
249.37021
246.35664
243.3839
240.45281
237.5642
234.71885
231.91751
229.16091
226.44973
223.78461
221.16616
218.59493
216.07142
213.59609
211.16933
208.7915
206.4629
204.18374
201.95423
199.77448
197.64457
195.5645
193.53424
191.55371
189.62275
187.74112
185.90831
329.11025
325.33841
321.59299
317.87422
314.18232
310.5176
306.88039
303.2711
299.69017
296.13812
292.61549
289.1229
285.66098
282.23043
278.83198
275.46639
272.13444
268.83695
265.57476
262.34872
259.1597
256.00857
252.89619
249.82344
246.79117
243.80024
240.85148
237.94568
235.08364
232.2661
229.49379
226.76739
224.08752
221.4548
218.86976
216.33292
213.84471
211.40553
209.01573
206.6756
204.38535
202.14518
199.95519
197.81545
195.72596
193.68668
191.6975
189.75826
187.86872
186.02839
330.09161
326.28857
322.51271
318.76425
315.04339
311.35041
307.68562
304.04941
300.44221
296.86452
293.31687
289.79985
286.31409
282.86028
279.43912
276.05136
272.69779
269.37921
266.09645
262.85036
259.64178
256.47159
253.34066
250.24984
247.19998
244.19194
241.22654
238.30458
235.42683
232.59406
229.80697
227.06623
224.37249
221.72634
219.12832
216.57892
214.07859
211.62773
209.22666
206.87568
204.575
202.32479
200.12517
197.97618
195.87783
193.83006
191.83275
189.88574
187.98876
186.14137
331.01282
327.1805
323.3761
319.59979
315.85177
312.13227
308.44162
304.78016
301.14832
297.54657
293.97544
290.4355
286.92738
283.45173
280.00925
276.6007
273.22683
269.88846
266.58639
263.32147
260.09454
256.90646
253.7581
250.65031
247.58394
244.55983
241.5788
238.64166
235.74917
232.90208
230.1011
227.34691
224.64013
221.98136
219.37114
216.80995
214.29824
211.8364
209.42475
207.06357
204.75309
202.49346
200.28479
198.12712
196.02045
193.96471
191.95977
190.00546
188.10152
186.24751
331.87609
328.01638
324.18525
320.38287
316.6094
312.86508
309.1502
305.4651
301.81018
298.18591
294.59278
291.03138
287.50229
284.00618
280.54374
277.1157
273.72283
270.3659
267.04573
263.76316
260.51903
257.31419
254.14949
251.02579
247.94394
244.90477
241.90909
238.95771
236.05139
233.19088
230.37689
227.61008
224.89108
222.22048
219.59881
217.02657
214.50418
212.03204
209.61047
207.23974
204.92006
202.65159
200.43444
198.26863
196.15416
194.09095
192.07886
190.11772
188.20726
186.34704
332.68371
328.79838
324.94227
321.11552
317.31827
313.55075
309.81322
306.10601
302.42951
298.78417
295.17049
291.58901
288.04032
284.52508
281.04397
277.5977
274.18704
270.81276
267.47566
264.17658
260.91635
257.69582
254.51584
251.37726
248.28092
245.22765
242.21826
239.25355
236.33429
233.46122
230.63504
227.85641
225.12597
222.44429
219.81191
217.22932
214.69694
212.21516
209.7843
207.40462
205.07634
202.79961
200.57451
198.40109
196.27931
194.20911
192.19034
190.22281
188.30625
186.44023
333.43798
329.52875
325.64933
321.79983
317.98039
314.19121
310.43254
306.7047
303.00806
299.34306
295.71018
292.10996
288.54298
285.00987
281.51132
278.04804
274.62076
271.23028
267.87737
264.56287
261.28761
258.05243
254.85817
251.70568
248.5958
245.52935
242.50716
239.53
236.59865
233.71384
230.87627
228.0866
225.34546
222.65344
220.01105
217.41878
214.87707
212.38628
209.94673
207.5587
205.22238
202.93791
200.7054
198.52486
196.39627
194.31954
192.29453
190.32103
188.39879
186.52734
334.1412
330.2097
326.30856
322.43788
318.59777
314.78841
311.01005
307.26298
303.54758
299.86425
296.21348
292.59579
289.01176
285.46201
281.94721
278.46806
275.0253
271.6197
268.25206
264.92318
261.6339
258.38505
255.17748
252.01203
248.88952
245.81079
242.77665
239.78788
236.84525
233.94949
231.10129
228.30133
225.55022
222.84854
220.19681
217.59552
215.04509
212.5459
210.09826
207.70243
205.35861
203.06694
200.8275
198.64033
196.50538
194.42256
192.39173
190.41268
188.48514
186.60864
334.79565
330.84345
326.92212
323.03173
319.17239
315.34427
311.54759
307.78265
304.04979
300.34942
296.68201
293.04807
289.44818
285.88294
282.35302
278.8591
275.40194
271.98228
268.60092
265.25867
261.95634
258.69477
255.47481
252.29728
249.16302
246.07286
243.02759
240.02801
237.07488
234.16892
231.31084
228.50128
225.74089
223.03021
220.36979
217.7601
215.20156
212.69455
210.23936
207.83627
205.48547
203.18709
200.94121
198.74786
196.607
194.51852
192.48228
190.49806
188.56558
186.68439
335.40362
331.43219
327.49212
323.58344
319.70626
315.86072
312.04704
308.2655
304.51643
300.80024
297.11737
293.46835
289.85372
286.2741
282.73013
279.22251
275.75196
272.31925
268.92514
265.57046
262.25601
258.98263
255.75115
252.5624
249.41723
246.31644
243.26084
240.25121
237.28832
234.37288
231.50561
228.68714
225.91811
223.19908
220.53058
217.91308
215.34701
212.83272
210.37053
207.96069
205.6034
203.29878
201.04692
198.84784
196.70148
194.60774
192.56647
190.57745
188.6404
186.75485
335.96733
331.97808
328.02064
324.09503
320.20131
316.33963
312.5102
308.71327
304.94919
301.21833
297.52115
293.85814
290.22986
286.6369
283.07992
279.55959
276.07663
272.63181
269.22589
265.85968
262.534
259.24966
256.0075
252.80836
249.65305
246.54241
243.47722
240.45828
237.48633
234.56211
231.68631
228.85958
226.08254
223.35576
220.67976
218.05502
215.48195
212.96092
210.49223
208.07613
205.71282
203.40242
201.14502
198.94061
196.78915
194.69055
192.64462
190.65116
188.70987
186.82027
348.69977
344.59706
340.52687
336.48892
332.48323
328.50975
324.56847
320.65946
316.78286
312.93885
309.12771
305.34973
301.60531
297.89488
294.21894
290.57803
286.97274
283.40371
279.87162
276.37719
272.92117
269.50432
266.12744
262.79136
259.49688
256.24484
253.03607
249.8714
246.75163
243.67757
240.65
237.66968
234.73732
231.85363
229.01925
226.23479
223.50084
220.81791
218.18646
215.60691
213.07964
210.60493
208.18304
205.81416
203.49841
201.23587
199.02654
196.87037
194.76725
192.71702
190.71945
188.77424
186.88092
353.38157
349.2293
345.11022
341.02405
336.97057
332.94972
328.96143
325.0057
321.08258
317.19221
313.33476
309.51048
305.71969
301.96275
298.2401
294.55221
290.89964
287.28297
283.70282
280.15988
276.65485
273.18848
269.76154
266.37482
263.02913
259.72529
256.46413
253.24647
250.07314
246.94495
243.86269
240.82716
237.83909
234.89922
232.00824
229.16679
226.37549
223.63491
220.94556
218.30792
215.7224
213.18935
210.70909
208.28185
205.90782
203.58713
201.31985
199.10597
196.94545
194.83817
192.78397
190.78261
188.83379
186.93702
353.8849
349.71717
345.58302
341.48216
337.41437
333.37955
329.37763
325.4086
321.47249
317.56944
313.69961
309.86324
306.06064
302.29217
298.55826
294.85938
291.19607
287.56891
283.97852
280.42558
276.91079
273.43489
269.99865
266.60286
263.24832
259.93586
256.66628
253.44043
250.25913
247.12317
244.03337
240.99049
237.99529
235.0485
232.15079
229.30283
226.50522
223.75853
221.06328
218.41993
215.82889
213.29053
210.80514
208.37298
205.99421
203.66896
201.39731
199.17924
197.01471
194.90361
192.84575
190.8409
188.88876
186.98883
354.34755
350.16562
346.01763
341.90328
337.82234
333.7747
329.76025
325.77899
321.83096
317.91625
314.03505
310.18757
306.37413
302.59507
298.85081
295.14183
291.46865
287.83185
284.23205
280.66992
277.14616
273.66151
270.21672
266.81259
263.44992
260.12952
256.85222
253.61884
250.4302
247.28711
244.19036
241.14074
238.13898
235.18582
232.28193
229.42798
226.62457
223.87227
221.17158
218.52298
215.92688
213.38363
210.89353
208.45683
206.0737
203.74427
201.4686
199.24668
197.07847
194.96385
192.90263
190.89458
188.9394
187.03658
354.77174
350.57681
346.41614
342.28942
338.19644
334.13703
330.11112
326.11866
322.15969
318.23431
314.34268
310.48503
306.66164
302.87287
299.11913
295.40089
291.71867
288.07303
284.46461
280.89406
277.36207
273.86939
270.41677
267.00499
263.63486
260.3072
257.02281
253.78253
250.58716
247.43753
244.33441
241.2786
238.27083
235.31183
232.40228
229.54283
226.7341
223.97664
221.27098
218.61756
216.01681
213.46908
210.97467
208.53381
206.14668
203.81341
201.53405
199.30861
197.13702
195.01917
192.95487
190.9439
188.98594
187.08048
355.15961
350.9528
346.78055
342.64254
338.53854
334.46839
330.43199
326.42929
322.46033
318.52519
314.62404
310.75708
306.92461
303.12697
299.36457
295.63786
291.94737
288.29366
284.67735
281.0991
277.5596
274.05957
270.59979
267.18103
263.80408
260.46977
257.1789
253.9323
250.73079
247.57517
244.46624
241.40476
238.39149
235.42715
232.51242
229.64795
226.83435
224.07219
221.36196
218.70414
216.09914
213.54731
211.04895
208.60428
206.2135
203.87672
201.594
199.36533
197.19065
195.06985
193.00275
190.9891
189.02861
187.12075
355.51324
351.2956
347.1128
342.96449
338.85046
334.77052
330.72456
326.71254
322.73448
318.79045
314.88062
311.00519
307.16444
303.35871
299.58841
295.85399
292.15596
288.4949
284.8714
281.28613
277.73977
274.23306
270.76675
267.34161
263.95845
260.61808
257.32131
254.06895
250.86184
247.70076
244.58652
241.51988
238.5016
235.53239
232.61293
229.74389
226.92585
224.15939
221.44501
218.78318
216.1743
213.61873
211.11676
208.66863
206.27452
203.93454
201.64874
199.41713
197.23964
195.11615
193.04649
191.03042
189.06763
187.15761
355.8346
351.60713
347.41474
343.2571
339.13395
335.04511
330.99048
326.96999
322.98365
319.03156
315.11384
311.23071
307.38244
303.56937
299.7919
296.05047
292.3456
288.67785
285.04782
281.45618
277.9036
274.39081
270.91856
267.48764
264.09883
260.75295
257.45081
254.19323
250.98102
247.81499
244.69592
241.62459
238.60175
235.62812
232.70437
229.83116
227.00909
224.23873
221.52057
218.85509
216.24269
213.68373
211.17849
208.72721
206.33006
203.98717
201.69858
199.4643
197.28425
195.15833
193.08634
191.06807
189.10321
187.19124
356.12559
351.88923
347.68817
343.52207
339.39067
335.29379
331.2313
327.20315
323.20933
319.24993
315.32507
311.43498
307.57991
303.76019
299.97622
296.22845
292.51739
288.84359
285.20765
281.61024
278.05202
274.53373
271.05612
267.61995
264.22604
260.87517
257.56817
254.30586
251.08903
247.91851
244.79508
241.71951
238.69254
235.7149
232.78727
229.91029
227.08457
224.31067
221.58909
218.92031
216.30472
213.74268
211.23447
208.78034
206.38045
204.03492
201.74381
199.50711
197.32475
195.19661
193.12252
191.10226
189.13553
187.22185
356.38804
352.14367
347.93479
343.76106
339.62223
335.5181
331.44853
327.41347
323.41291
319.44692
315.51563
311.61926
307.75805
303.93235
300.14253
296.38904
292.6724
288.99314
285.35188
281.74926
278.18596
274.66271
271.18026
267.73937
264.34085
260.98549
257.67411
254.40752
251.18655
248.01198
244.88461
241.80521
238.77452
235.79327
232.86213
229.98175
227.15274
224.37565
221.65099
218.97923
216.36076
213.79594
211.28506
208.82836
206.426
204.07809
201.7847
199.54581
197.36136
195.23123
193.15525
191.13319
189.16479
187.2496
356.62368
352.37212
348.15623
343.97566
339.83016
335.71952
331.6436
327.60234
323.59573
319.62383
315.68678
311.78477
307.91806
304.08698
300.29191
296.53329
292.81164
289.12749
285.48145
281.87416
278.3063
274.7786
271.2918
267.84668
264.44402
261.08463
257.76931
254.4989
251.27419
248.09599
244.96508
241.88225
238.84822
235.86372
232.92944
230.04601
227.21404
224.43409
221.70666
219.03222
216.41117
213.84387
211.33059
208.87157
206.46699
204.11695
201.82151
199.58066
197.39434
195.26242
193.18473
191.16106
189.19115
187.27465
356.83418
352.5762
348.35405
344.16738
340.01592
335.89947
331.81788
327.77109
323.75907
319.7819
315.8397
311.93266
308.06104
304.22516
300.4254
296.66221
292.93608
289.24756
285.59725
281.9858
278.41387
274.8822
271.39152
267.94261
264.53626
261.17327
257.85445
254.58061
251.35257
248.17112
245.03706
241.95116
238.91415
235.92676
232.98966
230.10351
227.2689
224.48639
221.75649
219.07967
216.45631
213.88678
211.37135
208.91027
206.50371
204.15176
201.8545
199.6119
197.4239
195.29038
193.21117
191.18605
189.21478
187.29711
357.02111
352.75743
348.52973
344.33764
340.1809
336.0593
331.97268
327.92097
323.90417
319.92232
315.97554
312.06404
308.18806
304.34792
300.54401
296.77675
293.04666
289.35426
285.70017
282.08501
278.50948
274.97428
271.48016
268.02789
264.61826
261.25207
257.93014
254.65326
251.42226
248.23794
245.10108
242.01245
238.9728
235.98283
233.04324
230.15467
227.31772
224.53294
221.80085
219.1219
216.4965
213.92499
211.40766
208.94475
206.53642
204.18279
201.8839
199.63974
197.45025
195.31531
193.23474
191.20833
189.23584
187.317
185.45154
357.18599
352.91729
348.68469
344.48783
340.32644
336.20029
332.10924
328.05321
324.03217
320.0462
316.0954
312.17996
308.30014
304.45625
300.64867
296.87784
293.14424
289.44843
285.791
282.17259
278.59387
275.05557
271.55842
268.10319
264.69067
261.32166
257.99698
254.71743
251.48383
248.29697
245.15764
242.06661
239.02462
236.03239
233.0906
230.1999
227.36088
224.5741
221.84008
219.15926
216.53205
213.9588
211.43979
208.97527
206.56538
204.21026
201.90993
199.66441
197.47361
195.33741
193.25564
191.22808
189.25449
187.3346
185.46789
357.33025
353.05716
348.82028
344.61925
340.45378
336.32366
332.22874
328.16892
324.1442
320.15462
316.2003
312.28143
308.39825
304.55108
300.7403
296.96634
293.22969
289.53089
285.87054
282.24928
278.66778
275.12676
271.62696
268.16915
264.75411
261.38264
258.05556
254.77367
251.53779
248.34871
245.20722
242.11409
239.07007
236.07586
233.13215
230.23958
227.39875
224.61022
221.87451
219.19205
216.56326
213.98849
211.46802
209.00208
206.59084
204.2344
201.93283
199.6861
197.49415
195.35686
193.27403
191.24547
189.27089
187.35004
185.4824
357.45524
353.17835
348.93777
344.73313
340.56414
336.43058
332.3323
328.26922
324.2413
320.2486
316.29124
312.36939
308.48331
304.6333
300.81975
297.04308
293.30378
289.6024
285.93953
282.3158
278.7319
275.18853
271.68644
268.22638
264.80916
261.43556
258.1064
254.82249
251.58464
248.39364
245.25028
242.15534
239.10955
236.11362
233.16825
230.27407
227.43168
224.64164
221.90445
219.22058
216.59043
214.01434
211.49259
209.02543
206.61301
204.25545
201.95279
199.70502
197.51207
195.37382
193.29009
191.26064
189.28521
187.3635
185.49502
183.67921
357.56226
353.28212
349.03837
344.83064
340.65864
336.52215
332.421
328.35511
324.32447
320.3291
316.36913
312.44474
308.55618
304.70375
300.88782
297.10884
293.36728
289.6637
285.99867
282.37284
278.78688
275.2415
271.73744
268.27548
264.85638
261.48097
258.15003
254.86439
251.62485
248.43221
245.28726
242.19077
239.14346
236.14608
233.19928
230.30371
227.45999
224.66865
221.93021
219.24513
216.61381
214.03659
211.51376
209.04555
206.63212
204.27359
201.97001
199.72135
197.52755
195.38848
193.30395
191.27375
189.29758
187.37513
185.50594
183.68924
357.65252
353.36965
349.12324
344.91291
340.73837
336.5994
332.49584
328.4276
324.39465
320.39704
316.43488
312.50835
308.61769
304.76322
300.9453
297.16437
293.42091
289.71547
286.04863
282.42102
278.83333
275.28626
271.78056
268.31698
264.89632
261.51937
258.18694
254.89984
251.65888
248.46486
245.31857
242.22076