/*--------------------------------*- C++ -*----------------------------------*\
| =========                 |                                                 |
| \\      /  F ield         | OpenFOAM: The Open Source CFD Toolbox           |
|  \\    /   O peration     | Version:  2312                                  |
|   \\  /    A nd           | Website:  www.openfoam.com                      |
|    \\/     M anipulation  |                                                 |
\*---------------------------------------------------------------------------*/
FoamFile
{
    version     2.0;
    format      ascii;
    arch        "LSB;label=32;scalar=64";
    class       volScalarField;
    location    "0.09";
    object      Qdot;
}
// * * * * * * * * * * * * * * * * * * * * * * * * * * * * * * * * * * * * * //

dimensions      [1 -1 -3 0 0 0 0];

internalField   nonuniform List<scalar> 
3250
(
192.04481
176.10803
161.06099
146.90535
133.64194
121.26416
109.75773
99.101536
89.268604
80.227195
71.941788
64.374001
57.483474
51.228658
45.56749
40.458009
35.858889
31.729849
28.032011
24.728171
21.783001
19.163209
16.837605
14.777143
12.954948
11.346248
9.9283507
8.6805254
7.5839554
6.6215868
5.778036
5.0394905
4.3935528
3.8291609
3.3364464
2.9066448
2.5319946
2.2056179
1.9214452
1.6741421
1.4590035
1.2719129
1.1092613
0.96788375
198.36008
181.8093
166.19097
151.50702
137.75757
124.93466
113.02227
101.99725
91.830519
82.488079
73.932133
66.122028
59.01516
52.567804
46.735805
41.475186
36.742741
32.496393
28.695613
25.301672
22.277823
19.589486
17.204289
15.092136
13.225188
11.577811
10.126551
8.8500043
7.7287276
6.7451492
5.8834226
5.1293067
4.4700547
3.8942874
3.3918631
2.9537878
2.5720853
2.2396993
1.9504144
1.6987547
1.4799079
1.2896565
1.1243003
0.98065151
210.62064
192.86364
176.12909
160.41575
145.72081
132.03295
119.33237
107.59184
96.777935
86.852219
77.772396
69.493324
61.968005
55.148426
48.986316
43.433806
38.443963
33.97127
29.97196
26.404308
23.228846
20.408469
17.908538
15.696895
13.743836
12.022092
10.506694
9.1749338
8.006208
6.9819049
6.0852768
5.3012826
4.6164914
4.0189115
3.4978826
3.0439402
2.6487223
2.3048393
2.0057742
1.7457998
1.5198858
1.3236329
1.1531831
1.0052188
228.90632
209.33402
190.92215
173.6644
157.55292
142.57089
128.69241
115.88379
104.10486
93.310293
83.450868
74.474578
66.32772
58.955777
52.304241
46.319332
40.948532
36.141102
31.848424
28.024301
24.625152
21.610124
18.941182
16.583089
14.503379
12.672307
11.062704
9.6499078
8.411579
7.3275767
6.3798175
5.5520909
4.8299333
4.2004591
3.6522349
3.1751292
2.7601963
2.3995429
2.086223
1.8141362
1.5779385
1.372952
1.1951018
1.0408584
253.61234
231.56012
210.86067
191.50008
173.46305
156.72454
141.2498
126.99585
113.91291
101.94591
91.035882
81.121261
72.138979
64.02552
56.71778
50.153811
44.273444
39.018792
34.334612
30.168612
26.471614
23.197689
20.304182
17.751707
15.504068
13.528187
11.793935
10.274009
8.943757
7.7809999
6.7658455
5.8805256
5.1092058
4.4378137
3.8538773
3.3463797
2.9055995
2.5229777
2.1910005
1.9030792
1.6534444
1.437063
1.2495526
1.0871209
285.38886
260.10574
236.43168
214.34193
193.81043
174.80057
157.26533
141.1489
126.38841
112.9156
100.65843
89.542508
79.49233
70.43246
62.288422
54.98756
48.459671
42.637519
37.457245
32.858618
28.785226
25.184562
22.008023
19.210877
16.752139
14.594444
12.703883
11.049796
9.6045619
8.3433985
7.244144
6.2870387
5.454511
4.7309864
4.102692
3.5574835
3.0846635
2.6748494
2.3197953
2.0123064
1.7460928
1.5156591
1.3162423
1.1437416
325.09642
295.71895
268.28291
242.74864
219.07518
197.21008
177.08972
158.6411
141.78392
126.43255
112.49781
99.888571
88.513232
78.280944
69.10265
60.891977
53.565917
47.045371
41.255531
36.126166
31.591733
27.591458
24.069287
20.973793
18.258016
15.879279
13.798952
11.982211
10.39777
9.0176462
7.8168603
6.7731994
5.866973
5.0807621
4.399196
3.8087535
3.2975624
2.8552026
2.4725838
2.1417434
1.8557588
1.6085967
1.3950259
1.2105533
373.76985
339.30177
307.19542
277.39358
249.83567
224.44817
201.14533
179.83154
160.40377
142.7538
126.77035
112.34092
99.353382
87.697358
77.265395
67.953868
59.66374
52.301113
45.777574
40.010459
34.922966
30.444115
26.508692
23.057065
20.034961
17.393213
15.087438
13.07776
11.328462
9.8076557
8.4869781
7.3412743
6.3482864
5.4883857
4.7442847
4.1008218
3.5447079
3.0643145
2.6495061
2.2914423
1.982444
1.7158301
1.4858241
1.2874685
432.58099
391.88413
354.05933
319.04206
286.74783
257.07526
229.90954
205.12559
182.591
162.16869
143.71935
127.10344
112.18307
98.823455
86.894245
76.270448
66.833248
58.470515
51.077159
44.555353
38.814527
33.771335
29.349446
25.479314
22.097843
19.148055
16.578686
14.343798
12.40237
10.717887
9.2579443
7.9938869
6.9004314
5.955323
5.1390358
4.4344565
3.8266385
3.3025333
2.8507898
2.4615314
2.126193
1.8373522
1.5885866
1.3744084
610.50516
554.83546
502.90737
454.60665
409.84699
368.52646
330.5232
295.69799
263.89795
234.96003
208.71447
184.98772
163.60527
144.39391
127.18376
111.80996
98.113959
85.944641
75.159041
65.622875
57.210869
49.806851
43.303704
37.603208
32.615734
28.259887
24.462074
21.156033
18.282333
15.787887
13.625394
11.752895
10.13325
8.7336966
7.5254033
6.4830665
5.5845246
4.8104263
4.1438826
3.5702097
3.0766448
2.6521196
2.2870461
1.9731492
1.7032719
1.4713125
714.53469
647.99786
586.0761
528.64369
475.57371
426.71758
381.90523
340.94874
303.64658
269.78771
239.15543
211.5308
186.69568
164.43535
144.54074
126.81023
111.05106
97.080445
84.726305
73.82773
64.235233
55.810742
48.427431
41.969403
36.331287
31.417687
27.142633
23.428952
20.207645
17.417222
15.003101
12.91695
11.116136
9.5631355
8.225006
7.0729162
6.0816935
5.2293743
4.496873
3.8676053
3.3272105
2.8632507
2.4649884
2.123158
1.8297828
1.5780587
836.88656
757.32635
683.49145
615.20165
552.27331
494.49812
441.6448
393.46393
349.69297
310.06108
274.29345
242.11521
213.25484
187.44711
164.43542
143.9738
125.82834
109.77832
95.616911
83.151531
72.203979
62.610286
54.220374
46.897589
40.518072
34.970057
30.153138
25.977437
22.362835
19.238138
16.540304
14.213686
12.209305
10.484174
9.0006523
7.7258709
6.6311906
5.6917121
4.8858246
4.1948116
3.6024852
3.0948649
2.6599134
2.2872534
1.9679745
1.6945001
979.42571
884.44833
796.54948
715.47367
640.96269
572.73203
510.47346
453.86085
402.55618
356.21502
314.49154
277.0429
243.53304
213.63586
187.0378
163.43993
142.55944
124.13063
107.9056
93.654497
81.165401
70.244014
60.713129
52.411905
45.195022
38.93176
33.504997
28.810237
24.754552
21.255607
18.240687
15.645774
13.41465
11.498116
9.8531906
8.44243
7.2332896
6.1975318
5.3107127
4.5517098
3.9022874
3.3467483
2.8715824
2.4651832
2.117611
1.8204055
1143.9718
1030.9247
926.58276
830.59334
742.60303
662.2316
589.07524
522.71348
462.71604
408.64917
360.0813
316.58793
277.75583
243.18646
212.49878
185.33128
161.34356
140.21721
121.65633
105.38757
91.159824
78.743666
67.930497
58.531587
50.376928
43.314032
37.20667
31.933609
27.387347
23.472872
20.10648
17.214668
14.733062
12.605429
10.782784
9.2225433
7.8877812
6.7465276
5.7711715
4.9379036
4.2262246
3.6185053
3.0996232
2.6566018
2.2783565
1.955467
1332.2046
1198.1871
1074.8068
961.58869
858.06051
763.72387
678.05809
600.52818
530.59261
467.71055
411.34816
360.98403
316.11372
276.25346
240.94304
209.74788
182.26052
158.10134
136.91891
118.38966
102.2174
88.132345
75.889992
65.269725
56.073409
48.123802
41.262993
35.350812
30.263271
25.891078
22.138174
18.920404
16.164241
13.805601
11.788786
10.065494
8.5939148
7.3379534
6.2664778
5.3527132
4.5736497
3.9095416
3.3434902
2.8610157
2.4497776
2.0992986
1545.5888
1387.4774
1242.2684
1109.3378
988.06828
877.81832
777.92646
687.72055
606.52667
533.67717
468.51772
410.4132
358.75266
312.95309
272.46249
236.76182
205.36633
177.82611
153.72604
132.68523
114.3561
98.422963
84.600573
72.632266
62.288124
53.363033
45.67468
39.061664
33.381542
28.509046
24.334347
20.761429
17.706591
15.097048
12.86968
10.969846
9.3503645
7.9705847
6.7955189
5.7951331
4.9436645
4.2190645
3.6024752
3.0778027
2.6313136
2.2514099
1785.302
1599.7925
1429.7985
1274.5279
1133.1916
1004.9773
889.05633
784.59448
690.76216
606.74342
531.74359
464.99573
405.76577
353.35657
307.11076
266.41271
230.68955
199.41139
172.09092
148.2824
127.58018
109.61696
94.061663
80.617217
69.018158
59.02822
50.437945
43.062282
36.738313
31.323072
26.691502
22.734493
19.35713
16.477068
14.023015
11.933409
10.155184
8.6427049
7.3567814
6.263834
5.3351101
4.5460581
3.8757049
3.3061911
2.8223177
2.4112338
2052.1779
1835.8425
1637.9729
1457.6206
1293.7977
1145.4905
1011.674
891.32452
783.43172
687.00814
601.09763
524.78208
457.18684
397.48472
344.89882
298.70417
258.22844
222.85169
192.00553
165.17151
141.87914
121.70347
104.26247
89.214147
76.253605
65.110144
55.544275
47.344901
40.326562
34.326867
29.204028
24.834618
21.111475
17.941805
15.245435
12.95326
11.005828
9.3521071
7.9483628
6.7571696
5.7465758
4.8893048
4.1621331
3.5452956
3.022015
2.5781171
2620.9354
2346.9031
2096.0325
1867.0758
1658.8202
1470.0306
1299.455
1145.8397
1007.9426
884.54572
774.46577
676.56277
589.74724
512.98568
445.30441
385.79224
333.6017
287.94931
248.11478
213.43951
183.32439
157.22709
134.65897
115.18174
98.40398
83.977481
71.59373
60.980382
51.897858
44.136101
37.511538
31.864213
27.055133
22.963863
19.486303
16.532672
14.025736
11.899163
10.096118
8.5679718
7.2732063
6.1763969
5.2474033
4.4605656
3.7941048
3.2295441
2.7513255
2985.7906
2669.3921
2380.333
2117.0562
1878.0504
1661.794
1466.7614
1291.4369
1134.3294
993.98569
869.00113
758.02899
659.78762
573.06585
496.72673
429.70977
371.03162
319.78582
275.14127
236.34001
202.69422
173.58273
148.44716
126.78775
108.15907
92.165761
78.458185
66.728318
56.705691
48.153643
40.865707
34.66232
29.387733
24.907218
21.104534
17.879613
15.146502
12.831519
10.871627
9.2129919
7.8097125
6.622712
5.6187651
4.7696636
4.0514816
3.443964
2.9300634
3382.0408
3019.2186
2688.3411
2387.5309
2114.9467
1868.7446
1647.0888
1448.1682
1270.2117
1111.5022
970.38817
845.29261
734.72064
637.26456
551.60725
476.52377
410.88162
353.6395
303.84514
260.63211
223.21597
190.88981
163.01953
139.03871
118.44357
100.78775
85.677288
72.765711
61.749375
52.363026
44.375672
37.586754
31.822602
26.933261
22.78953
19.280388
16.310619
13.798741
11.675149
9.8804898
8.3642409
7.0834554
6.0016772
5.0879874
4.3162235
3.6642553
3.1134775
3808.7792
3395.5515
3019.2827
2677.7874
2368.8595
2090.2934
1839.9064
1615.5575
1415.1644
1236.7175
1078.2924
938.05864
814.28716
705.35495
609.74796
526.06205
453.00235
389.38122
334.11506
286.2201
244.80754
209.07808
178.31608
151.88355
129.21405
109.8066
93.219822
79.066186
67.006644
56.745495
48.025647
40.624249
34.348622
29.032654
24.533468
20.72845
17.512619
14.796264
12.502872
10.567286
8.9341347
7.556417
6.3942804
5.4139965
4.5870464
3.8893472
3.3006799
4777.8959
4264.879
3797.1625
3372.0143
2986.7918
2638.8626
2325.6155
2044.4825
1792.9584
1568.6182
1369.132
1192.2769
1035.9463
898.1562
777.05022
670.9011
578.11112
497.21037
426.85375
365.81657
312.98927
267.37132
228.06462
194.26656
165.26283
140.42032
119.18002
101.05021
85.599856
72.45243
61.280043
51.798071
43.760127
36.953536
31.195195
26.327844
22.216727
18.74661
15.819193
13.350723
11.270001
9.5165912
8.0392628
6.7946476
5.7460885
4.8626197
4.1181412
3.4907484
5326.0999
4748.2741
4222.3339
3745.0246
3313.2052
2923.772
2573.667
2259.8997
1979.5672
1729.8716
1508.1351
1311.8119
1138.4969
985.93209
852.00985
734.77439
632.42072
543.29196
465.875
398.79491
340.80835
290.79619
247.7556
210.79186
179.10999
152.00648
128.86114
109.12921
92.33392
78.059347
65.943851
55.673927
46.978575
39.624209
33.409976
28.163618
23.737709
20.006391
16.862387
14.214458
11.985122
10.108702
8.5295973
7.2007989
6.0826171
5.14158
4.3495014
3.6827534
5903.0953
5256.6009
4668.9883
4136.4839
3655.417
3222.1729
2833.2087
2485.0761
2174.442
1898.1068
1653.0189
1436.2862
1245.1845
1077.1631
929.84704
801.03741
688.70934
591.0078
506.24199
432.8783
369.5323
314.95993
268.04822
227.80568
193.35271
163.91204
138.79943
117.4147
99.233299
83.798237
70.7127
59.63313
50.262966
42.346871
35.665609
30.03137
25.283646
21.285547
17.920563
15.089715
12.709053
10.707509
9.0249767
7.6107151
6.4219314
5.4225703
4.5823127
3.8757667
6505.8538
5787.1705
5134.7419
4544.292
4011.5844
3532.454
3102.8359
2718.7902
2376.524
2072.4086
1802.9944
1565.0214
1355.4274
1171.3518
1010.1374
869.32899
746.67032
640.09815
547.73521
467.88163
399.00534
339.73173
288.83283
245.2163
207.91442
176.07317
148.94177
125.86252
106.26135
89.638736
75.561456
63.654917
53.59613
45.107364
37.950423
31.9215
26.846615
22.577569
18.988369
15.972098
13.438191
11.310045
9.5229728
8.0224074
6.7623852
5.7042368
4.8154564
4.0688685
8004.8775
7131.2792
6337.0169
5616.9501
4966.1247
4379.6753
3852.8446
3381.0102
2959.7096
2584.6621
2251.7852
1957.2093
1697.2873
1468.6013
1267.9659
1092.4281
939.26496
805.97849
690.28839
590.12326
503.61035
429.06424
364.97489
309.9952
262.92844
222.71575
188.42389
159.23339
134.42732
113.38055
95.549818
80.464523
67.718172
56.960694
47.891396
40.252671
33.824355
28.418703
23.875973
20.060483
16.857251
14.168959
11.913391
10.021189
8.4339095
7.1023812
5.9852634
5.0478584
4.261171
8736.475
7775.4518
6902.8478
6112.7494
5399.4836
4757.5144
4181.4554
3666.0951
3206.4206
2797.6382
2435.19
2114.7668
1832.3171
1584.0525
1366.4494
1176.2476
1010.4462
866.29685
741.29464
633.16754
539.86433
459.54149
390.54951
331.41871
280.84505
237.67611
200.89736
169.619
143.06335
120.55314
101.50038
85.396281
71.801841
60.339362
50.684771
42.56072
35.730406
29.992114
25.174365
21.13169
17.740908
14.897874
12.514702
10.517306
8.8433368
7.4403734
6.2643927
5.2784891
4.4518238
9485.3958
8434.4022
7481.2111
6619.1346
5841.7544
5142.8312
4516.3196
3956.3914
3457.4587
3014.1937
2621.544
2274.7443
1969.3241
1701.1116
1466.2342
1261.1149
1082.4666
927.28321
792.82924
676.62677
576.44164
490.26847
416.31506
352.98644
298.86906
252.71505
213.42705
180.0436
151.72529
127.74178
107.45972
90.331531
75.885244
63.715185
53.473624
44.86323
37.630391
31.559275
26.466585
22.196956
18.618966
15.621598
13.111252
11.009109
9.2488776
7.7748957
6.5404447
5.5063775
4.640021
10247.078
9104.0896
8068.5724
7133.0278
6290.2631
5533.3087
4855.4342
4250.1718
3711.3386
3233.0545
2809.7571
2436.2114
2107.5161
1819.1062
1566.7509
1346.5489
1154.9204
988.59647
844.60603
720.2614
613.1422
521.07839
442.13276
374.58321
316.90503
267.75364
225.94778
190.45348
160.36892
134.91017
113.39803
95.245834
79.948385
67.071826
56.244597
47.149299
39.515418
33.112951
27.74673
23.25149
19.487529
16.336962
13.700474
11.494506
9.6488445
8.1045819
6.81231
5.7306589
4.8250537
11016.885
9780.4467
8661.3799
7651.339
6742.3297
5926.6283
5196.7985
4545.7145
3966.5819
3452.9547
2998.748
2598.2469
2246.1106
1937.3729
1667.4385
1432.0764
1227.4097
1049.9024
896.34506
763.83749
649.77093
551.80894
467.86789
396.09736
334.86061
282.71563
238.3967
200.79694
168.95178
142.02346
119.28678
100.11587
83.972212
70.393728
58.985034
49.408623
41.37711
34.646328
29.009276
24.290795
20.342948
17.041007
14.279966
11.971551
10.041663
8.4281544
7.0789722
5.9505554
5.0065596
4.2166052
11790.206
10459.448
9256.1267
8171.0225
7195.3165
6320.5117
5538.4497
4841.3326
4221.7429
3672.6582
3187.4629
2759.9546
2384.347
2055.2678
1767.7535
1517.2398
1299.5498
1110.8788
947.77689
807.13026
686.14072
582.30469
493.39158
417.42228
352.64779
297.52848
250.71416
211.025
177.4337
149.04879
125.09911
104.91971
87.938845
73.666348
61.683084
51.631575
43.207649
36.153073
30.249079
25.310712
21.181863
17.731012
14.847528
12.438476
10.42589
8.744451
7.3394768
6.1652452
5.1835923
4.3628156
12562.548
11137.176
9849.4085
8689.1269
7646.6713
6712.7578
5878.4943
5135.4018
4475.4314
3890.9784
3374.8911
2920.4761
2521.4981
2172.1767
1867.1779
1601.6034
1370.9755
1171.2198
998.64622
849.92703
722.0748
612.41903
518.58251
438.45778
370.18397
312.12427
262.84436
221.09191
185.77728
155.95557
130.81008
109.63702
91.831756
76.876245
64.327852
53.809325
44.999883
37.627393
31.461467
26.307463
22.001216
18.404518
15.401173
12.893667
10.800233
9.052417
7.5929617
6.3740158
5.3556577
4.5047129
13329.602
11809.886
10437.975
9202.8385
8093.965
7101.2746
6215.1355
5426.3823
4726.3315
4106.7934
3560.0789
3079.0024
2656.8796
2287.5219
1965.2257
1684.7592
1441.3447
1230.6398
1048.7149
892.02967
757.40876
642.01584
543.32819
459.11112
387.39284
326.44032
274.73594
230.95565
193.94815
162.71581
136.39687
114.24927
95.635885
80.011218
66.909464
55.933881
46.747358
39.064073
32.642234
27.277662
22.798286
19.059321
15.939137
13.335701
11.163545
9.3511314
7.8386797
6.5762594
5.5222303
4.6419726
14087.305
12474.05
11018.77
9709.5177
8534.922
7484.1054
6546.6948
5712.838
4973.2176
4319.06
3742.1404
3234.7832
2789.8576
2400.7693
2061.4479
1766.3305
1510.3426
1288.8759
1097.764
933.25653
791.99206
670.97066
567.52599
479.29779
404.205
340.4197
286.34233
240.57818
201.91532
169.30426
141.839
118.73984
99.337778
83.060373
69.419105
57.998139
48.444342
40.458516
33.787669
28.218329
23.570676
19.693505
16.459873
13.763353
11.514837
9.6397999
8.0759966
6.771473
5.6829007
4.7742951
14831.89
13126.404
11588.972
10206.728
8967.4451
7859.4493
6871.6294
5993.4508
5214.9662
4526.8231
3920.2658
3387.1336
2919.8543
2511.4328
2155.4363
1845.9758
1577.6839
1345.6905
1145.5962
973.44376
825.68917
699.17163
591.08376
498.9421
420.55835
354.01163
297.62204
249.92569
209.6513
175.6986
147.11834
123.09406
102.92558
86.01415
71.849077
59.995896
50.08586
41.806714
34.894568
29.126895
24.316328
20.305428
16.962074
14.175564
11.853266
9.9177569
8.3043855
6.9592269
5.8373495
4.9014238
15559.918
13763.974
12146.013
10692.258
9389.6333
8225.676
7188.5451
6267.031
5450.5649
4729.2233
4093.7273
3535.4392
3046.3521
2619.0773
2246.8264
1923.3902
1643.1143
1400.8721
1192.0359
1012.4462
858.3802
726.51998
613.92032
517.97746
436.39843
367.17164
308.53883
258.96869
217.13213
181.87944
152.21923
127.29927
106.3891
88.864347
74.192796
61.921874
51.667682
43.105279
35.960234
30.001195
25.033528
20.89372
17.444645
14.571473
12.178151
10.184449
8.5234023
7.1391907
5.9853085
5.0231485
16268.309
14384.101
12687.6
11164.136
9799.7934
8581.3361
7496.2038
6532.5241
5679.1178
4925.5011
4261.8831
3679.1584
3168.8956
2723.3209
2335.2987
1998.3071
1706.4119
1454.2364
1236.9305
1050.1376
889.96122
752.93026
635.96559
536.34652
451.67841
379.86157
319.06169
267.68206
224.33748
187.83034
157.12841
131.34482
109.71975
91.604091
76.444754
63.771676
53.186294
44.351431
36.982436
30.839484
25.720877
21.457272
17.906721
14.950393
12.488952
10.439461
8.7327299
7.3111025
6.1265784
5.1393156
16954.351
14984.449
13211.725
11620.634
10196.447
8925.1657
7793.5281
6789.0137
5899.8474
5114.999
4424.1782
3817.8244
3287.0928
2823.8355
2420.579
2070.4983
1767.3871
1505.6263
1280.1501
1086.4112
920.34424
778.3303
657.16053
554.00111
466.35906
392.04955
329.16481
276.0449
231.25051
193.53774
161.83501
135.22198
112.91058
94.227823
78.600527
65.541784
54.63891
45.542949
37.959436
31.640374
26.377292
21.995244
18.347631
15.3118
12.785263
10.682473
8.9321134
7.4747709
6.2610118
5.2498096
17615.713
15563.016
13716.665
12060.278
10578.331
9256.0874
8079.6013
7035.7219
6112.0953
5297.1611
4580.1446
3951.0441
3400.6145
2920.3459
2502.4384
2139.7734
1825.8822
1554.9115
1321.5875
1121.1785
949.45687
802.66093
677.45688
570.90196
480.40854
403.70984
338.82738
284.04049
237.85777
198.99088
166.3304
138.9239
115.95614
96.731216
80.6567
67.229498
56.023406
46.678181
38.889931
32.402856
27.001988
22.507017
18.766906
15.655335
13.0668
10.913275
9.1213992
7.6300903
6.3885274
5.3545709
18250.443
16118.13
14200.983
12481.835
10944.395
9573.2073
8353.6647
7272.0066
6315.3195
5471.5309
4729.3988
4078.4963
3509.1926
3012.629
2580.6912
2205.9787
1881.7702
1601.9874
1361.1566
1154.3693
977.24176
825.87545
696.81674
587.01842
493.8021
414.82251
348.03344
291.65604
244.14907
204.18166
170.60818
142.44551
118.85242
99.11114
82.610817
68.832912
57.33831
47.755967
39.773037
33.126251
27.594453
22.992205
19.164253
15.980783
13.333413
11.131758
9.3005072
7.7769921
6.5090913
5.4535719
18856.983
16648.437
14663.516
12884.314
11293.794
9875.8095
8615.1128
7497.3568
6509.09
5637.7478
4871.6393
4199.9295
3612.6177
3100.511
2655.194
2268.996
1934.954
1646.7745
1398.7926
1185.9305
1003.6559
847.93905
715.21205
602.32791
506.52168
425.37315
356.77153
298.88248
250.11727
209.10446
174.66394
145.78337
121.59678
101.36555
84.461316
70.350836
58.582714
48.775652
40.608271
33.810201
28.154422
23.450637
19.539554
16.288065
13.585055
11.337892
9.4694321
7.9154868
6.6226983
5.5468323
27872.811
24772.77
21967.05
19434.234
17152.889
15103.363
13266.949
11625.882
10163.347
8863.4853
7711.3864
6693.0838
5795.5422
5006.6416
4315.1576
3710.7361
3183.8652
2725.8426
2328.7399
1985.364
1689.2161
1434.4495
1215.8254
1028.6696
868.82805
732.62394
616.8155
518.55548
435.35249
365.03442
305.71421
255.75802
213.75596
178.49519
148.93561
124.18782
103.49343
86.207459
71.782755
59.756267
49.737001
41.395479
34.454636
28.681878
23.882304
19.892838
16.577223
13.821768
11.53173
9.6282212
8.045625
6.7294155
5.6343967
32208.263
28682.132
25484.604
22591.824
19981.162
17630.697
15519.867
13629.188
11940.194
10435.432
9098.4587
7913.8262
6867.0775
5944.7294
5134.2538
4424.0557
3803.4456
3262.6085
2792.5696
2385.1561
2032.9565
1729.2775
1468.0997
1244.032
1052.2657
888.52901
749.042
630.47319
529.89744
444.75601
372.81875
312.14877
261.06961
218.13498
182.10113
151.90175
126.62528
105.49467
87.84926
73.128754
60.859115
50.64018
42.134856
35.059735
29.176997
24.287391
20.224266
16.848405
14.0437
11.713407
9.7769935
8.1675094
6.8293221
5.7163442
33075.496
29446.201
26156.43
23181.271
20497.109
18081.338
15912.6
13970.677
12236.439
10691.825
9319.836
8104.5151
7030.9402
6085.2034
5254.3905
4526.5557
3890.6919
3336.698
2855.3415
2438.2186
2077.7115
1766.9433
1499.7318
1270.542
1074.4383
907.03785
764.46359
643.2994
540.54676
453.58345
380.12468
318.18662
266.05265
222.24224
185.48254
154.68256
128.90992
107.37001
89.387409
74.389465
61.89183
51.485708
42.826858
35.625922
29.64015
24.666223
20.534118
17.101864
14.251064
11.883101
9.9159093
8.2812771
6.9225426
5.7927776
33890.711
30164.336
26787.718
23735.014
20981.732
18504.541
16281.347
14291.246
12514.482
10932.421
9527.5359
8283.3911
7184.6251
6216.9298
5367.027
4622.6404
3972.4641
3406.1274
2914.1553
2487.927
2119.6305
1802.2165
1529.3495
1295.3594
1095.1917
924.35897
778.89299
655.29824
550.5073
461.83843
386.95553
323.83075
270.70984
226.08016
188.64157
157.27996
131.04343
109.12091
90.823173
75.566009
62.855371
52.274422
43.472209
36.153809
30.071867
25.019249
20.822795
17.337935
14.444147
12.041061
10.045178
8.3871067
7.00923
5.863818
34653.678
30836.318
27378.316
24252.961
21434.958
18900.259
16626.084
14590.891
12774.333
11157.236
9721.5814
8450.481
7328.1613
6339.9387
5472.1933
4712.3391
4048.7901
3470.9229
2969.0356
2534.3038
2158.7341
1835.1156
1556.9696
1318.4995
1114.5393
940.50426
792.34071
666.47894
559.78714
469.52796
393.31738
329.08646
275.04576
229.65267
191.58159
159.69684
133.02827
110.74948
92.158367
76.659907
63.751042
53.007421
44.071843
36.644191
30.472813
25.34704
21.090765
17.55702
14.623292
12.187573
10.165042
8.4852055
7.089547
5.9296202
35364.553
31462.302
27928.386
24735.283
21856.947
19268.648
16946.964
14869.755
13016.126
11366.397
9902.0888
8605.8912
7461.6455
6454.3173
5569.9678
4795.7219
4119.7323
3531.1399
3020.0311
2577.392
2195.06
1865.6735
1582.6207
1339.9869
1132.5027
955.49223
804.82267
676.85515
568.39799
476.66205
399.21878
333.96101
279.06657
232.96501
194.30705
161.93693
134.86761
112.25841
93.39524
77.673059
64.580447
53.686057
44.626885
37.098012
30.843795
25.650254
21.338591
17.759585
14.788881
12.322971
10.275779
8.5758014
7.1636996
5.9903384
36023.843
32042.759
28438.365
25182.385
22248.068
19610.042
17244.289
15128.114
13240.108
11560.126
10069.256
8749.7976
7585.2336
6560.2032
5660.4715
4872.8949
4185.3833
3586.8589
3067.2118
2617.2522
2228.6604
1893.9353
1606.3414
1359.8548
1149.11
969.34707
816.35945
686.44438
576.35467
483.25328
404.67036
338.46335
282.77983
236.02354
196.82327
164.00474
136.56521
113.65083
94.536419
78.607674
65.34541
54.311855
45.138617
37.516338
31.185686
25.929645
21.566895
17.94615
14.941358
12.44761
10.377688
8.6591545
7.2318928
6.0461451
36632.364
32578.432
28908.93
25594.874
22608.864
19924.929
17518.495
15366.353
13446.624
11738.726
10223.352
8882.4366
7699.1325
6657.7772
5743.8618
4943.9946
4245.8613
3638.1822
3110.6659
2653.96
2259.6002
1919.9565
1628.1791
1378.1435
1164.3957
982.09781
826.97566
695.2674
583.67472
489.31637
409.68449
342.60389
286.19425
238.83554
199.13637
165.90535
138.12533
114.93028
95.584851
79.466188
66.047982
54.886507
45.60845
37.900342
31.49947
26.186013
21.776341
18.117268
15.081182
12.56188
10.471097
8.7355249
7.2943473
6.0972276
37191.203
33070.301
29340.957
25973.537
22940.035
20213.929
17770.131
15584.96
13636.101
11902.574
10364.705
9004.0956
7803.5926
6747.2568
5820.3272
5009.1841
4301.3069
3685.2305
3150.4967
2687.604
2287.9549
1943.8013
1648.1885
1394.8995
1178.3989
993.77758
836.69917
703.34767
590.37783
494.86786
414.27503
346.3942
289.31948
241.40907
201.25304
167.64435
139.55259
116.10062
96.543743
80.251269
66.690362
55.41185
46.037891
38.251276
31.786183
26.420221
21.967648
18.273536
15.20884
12.666182
10.556337
8.8052022
7.3513027
6.143773
37701.674
33519.542
29735.498
26319.306
23242.408
20477.772
17999.842
15784.501
13809.037
12052.105
10493.696
9115.1048
7898.9007
6828.8901
5890.0819
5068.6476
4351.8785
3728.1396
3186.8204
2718.2832
2313.8089
1965.5413
1666.4301
1410.1738
1191.1627
1004.4228
845.56061
710.71089
596.48553
499.92576
418.457
349.84681
292.16599
243.75282
203.18051
169.22771
140.85197
117.16597
97.416501
80.965733
67.274878
55.889802
46.428539
38.57046
32.046908
26.633164
22.141554
18.415564
15.324844
12.760948
10.633759
8.8684699
7.4030054
6.1859902
38165.283
33927.498
30093.743
26633.237
23516.916
20717.281
18208.349
15965.609
13965.986
12187.802
10610.744
9215.8296
7985.3728
6902.9502
5953.3611
5122.5874
4397.7492
3767.0574
3219.7632
2746.105
2337.2533
1985.2538
1682.9693
1424.0217
1202.7338
1014.0724
853.59271
717.38446
602.02073
504.50917
422.24633
352.97499
294.74478
245.87593
204.92637
170.66174
142.02866
118.13063
98.206673
81.612518
67.803958
56.322363
46.782039
38.859248
32.282768
26.825771
22.298822
18.543981
15.429708
12.846593
10.703725
8.9256294
7.4497029
6.2240839
38583.689
34295.643
30417.002
26916.487
23764.576
20933.35
18396.437
16128.971
14107.548
12310.188
10716.305
9306.6628
8063.3486
6969.7296
6010.4162
5171.2191
4439.1037
3802.1417
3249.4594
2771.1835
2358.3849
2003.0206
1697.8752
1436.5013
1213.1609
1022.7675
860.8298
723.39709
607.00739
508.63808
425.65965
355.79255
297.06731
247.78792
206.49846
171.95293
143.08806
118.99904
98.917934
82.194635
68.280084
56.71159
47.100078
39.119031
32.49491
26.998977
22.440229
18.659429
15.523965
12.923563
10.766586
8.9769822
7.4916515
6.258298
38958.675
34625.558
30706.671
27170.287
23986.474
21126.932
18564.942
16275.316
14234.356
12419.814
10810.855
9388.0182
8133.185
7029.5358
6061.5115
5214.7689
4476.1352
3833.5571
3276.049
2793.6375
2377.3042
2018.9268
1711.2195
1447.6729
1222.4947
1030.5505
867.3074
728.77845
611.47025
512.33306
428.71406
358.31368
299.14535
249.4985
207.90486
173.10793
144.03563
119.77571
99.554001
82.715163
68.70579
57.059551
47.384369
39.351214
32.684492
27.15374
22.566558
18.762545
15.608142
12.992285
10.822704
9.0228198
7.5291033
6.2889149
5.2586007
39292.113
34918.902
30964.215
27395.929
24183.743
21299.021
18714.731
16405.402
14347.072
12517.254
10894.891
9460.3248
8195.2518
7082.6868
6106.9193
5253.4701
4509.0428
3861.4732
3299.6761
2813.5892
2394.1146
2033.0594
1723.0754
1457.5982
1230.7869
1037.4647
873.06173
733.55874
615.43445
515.61503
431.42692
360.55278
300.99083
251.01756
209.1537
174.13347
144.87693
120.46522
100.11863
83.177191
69.083609
57.36834
47.636621
39.557208
32.852661
27.291004
22.678586
18.853974
15.682763
13.053196
10.872441
9.0634406
7.5622961
6.3160475
5.2809534
39585.944
35177.388
31191.146
27594.742
24357.551
21450.638
18846.698
16520.007
14446.372
12603.093
10968.922
9524.0212
8249.9269
7129.5069
6146.9181
5287.5606
4538.0293
3886.0626
3320.4874
2831.1628
2408.921
2045.507
1733.5177
1466.3398
1238.09
1043.5541
878.12938
737.76846
618.92537
518.50508
433.81573
362.52432
302.61571
252.35497
210.25315
175.03628
145.61749
121.07212
100.61558
83.583801
69.41608
57.640039
47.858551
39.738418
33.000574
27.411719
22.777089
18.934352
15.748353
13.106729
10.916138
9.0991246
7.5914602
6.3399064
5.3004981
39842.145
35402.764
31389.003
27768.08
24509.085
21582.823
18961.75
16619.921
14532.942
12677.929
11033.462
9579.5513
8297.592
7170.3241
6181.7884
5317.2801
4563.2994
3907.4992
3338.6302
2846.483
2421.8288
2056.3585
1742.6208
1473.9604
1244.4564
1048.8624
882.54701
741.43814
621.96841
521.02427
435.89795
364.24278
304.03196
253.52061
211.21135
175.82306
146.26285
121.60097
101.04858
83.938055
69.705718
57.876708
48.051845
39.896223
33.129367
27.51681
22.862835
19.004301
15.805425
13.153298
10.95415
9.1301615
7.6168233
6.3606678
5.3175162
4.4507542
40062.715
35596.794
31559.34
27917.306
24639.539
21696.62
19060.798
16705.938
14607.472
12742.356
11089.027
9627.3597
8338.6297
7205.4665
6211.8111
5342.8684
4585.0571
3925.9566
3354.2518
2859.6745
2432.9432
2065.7024
1750.4593
1480.5223
1249.9385
1053.4333
886.351
744.59807
624.58874
523.1935
437.69089
365.72248
305.2514
254.52424
212.03634
176.50044
146.81843
122.05623
101.4213
84.242969
69.954994
58.080376
48.218166
40.03199
33.240157
27.607197
22.936562
19.064441
15.854481
13.193318
10.986806
9.1568239
7.6386079
6.3784995
5.3321202
4.4628377
40249.655
35761.24
31703.706
28043.782
24750.107
21793.071
19144.751
16778.848
14670.647
12796.969
11136.129
9667.8883
8373.4198
7235.2599
6237.2651
5364.5636
4603.5051
3941.6069
3367.4981
2870.8605
2442.3683
2073.6262
1757.1068
1486.0873
1254.5879
1057.31
889.57729
747.27816
626.81119