/*--------------------------------*- C++ -*----------------------------------*\
| =========                 |                                                 |
| \\      /  F ield         | OpenFOAM: The Open Source CFD Toolbox           |
|  \\    /   O peration     | Version:  2312                                  |
|   \\  /    A nd           | Website:  www.openfoam.com                      |
|    \\/     M anipulation  |                                                 |
\*---------------------------------------------------------------------------*/
FoamFile
{
    version     2.0;
    format      ascii;
    arch        "LSB;label=32;scalar=64";
    class       volScalarField;
    location    "0.09";
    object      T;
}
// * * * * * * * * * * * * * * * * * * * * * * * * * * * * * * * * * * * * * //

dimensions      [0 0 0 1 0 0 0];

internalField   nonuniform List<scalar> 
3250
(
404.50214
403.58734
402.64885
401.68712
400.70314
399.698
398.67283
397.6288
396.56705
395.48875
394.39507
393.28716
392.1662
391.03333
389.8897
388.73643
387.57465
386.40545
385.22991
384.04909
382.86404
381.67576
380.48526
379.29348
378.10138
376.90986
375.7198
374.53206
373.34747
372.16683
370.9909
369.82042
368.65612
367.49869
366.34877
365.20703
364.07406
362.95046
361.83681
360.73366
359.64156
358.56106
357.49272
356.43716
404.85846
403.93628
402.99029
402.02102
401.02952
400.01689
398.9843
397.93289
396.86383
395.7783
394.67746
393.56249
392.43454
391.29477
390.14434
388.98436
387.81597
386.64026
385.45832
384.27121
383.07998
381.88563
380.68916
379.49155
378.29371
377.09658
375.90103
374.70792
373.51808
372.33229
371.15134
369.97597
368.80689
367.64479
366.49033
365.34414
364.20685
363.07903
361.96125
360.85405
359.75795
358.67346
357.60112
356.54178
405.5207
404.58437
403.62431
402.64106
401.63565
400.60921
399.56291
398.49791
397.41539
396.31653
395.20251
394.0745
392.93367
391.78118
390.6182
389.44585
388.26527
387.07755
385.8838
384.68507
383.48241
382.27684
381.06936
379.86093
378.6525
377.44499
376.23926
375.0362
373.83661
372.6413
371.45105
370.26658
369.08863
367.91786
366.75495
365.60052
364.45519
363.31954
362.19412
361.07948
359.97613
358.88457
357.80537
356.7394
406.44435
405.48833
404.50873
403.50606
402.48137
401.4358
400.37053
399.28673
398.18558
397.06828
395.93602
394.78997
393.63131
392.46123
391.28088
390.0914
388.89393
387.68958
386.47945
385.26462
384.04612
382.82498
381.60222
380.37879
379.15565
377.9337
376.71385
375.49694
374.28381
373.07525
371.87204
370.67492
369.4846
368.30176
367.12707
365.96115
364.80462
363.65804
362.52199
361.39698
360.28354
359.18217
358.09343
357.0182
407.58849
406.60822
405.60453
404.57795
403.52954
402.46043
401.37182
400.26489
399.14084
398.00086
396.84616
395.67792
394.49735
393.30562
392.10389
390.89333
389.67508
388.45026
387.21997
385.98529
384.74727
383.50696
382.26535
381.02342
379.78212
378.54237
377.30507
376.07107
374.8412
373.61627
372.39704
371.18426
369.97864
368.78087
367.5916
366.41145
365.24104
364.08094
362.9317
361.79386
360.66792
359.5544
358.45383
357.36711
408.91597
407.90771
406.87623
405.82207
404.74629
403.65005
402.53453
401.40093
400.25047
399.08436
397.90379
396.70999
395.50414
394.28744
393.06108
391.82621
390.58399
389.33554
388.08198
386.82439
385.56385
384.30138
383.038
381.77469
380.51241
379.25208
377.99459
376.74082
375.49158
374.24769
373.00992
371.779
370.55566
369.34057
368.13439
366.93774
365.75124
364.57544
363.41091
362.25816
361.11771
359.99006
358.87576
357.77568
410.39312
409.3539
408.29168
407.207
406.10093
404.97465
403.82936
402.66627
401.48659
400.29156
399.08239
397.8603
396.62649
395.38218
394.12855
392.86678
391.59802
390.32342
389.0441
387.76115
386.47565
385.18863
383.90113
382.61412
381.32857
380.04541
378.76553
377.48981
376.21907
374.95413
373.69575
372.44468
371.20164
369.9673
368.74231
367.52731
366.3229
365.12963
363.94807
362.77873
361.62212
360.47874
359.34912
358.23415
411.98953
410.91716
409.8219
408.7044
407.56576
406.40717
405.22986
404.03505
402.82397
401.59785
400.35792
399.10542
397.84156
396.56756
395.28462
393.99392
392.69663
391.3939
390.08686
388.77662
387.46426
386.15082
384.83734
383.52481
382.21419
380.90643
379.60242
378.30303
377.0091
375.72145
374.44084
373.16803
371.90371
370.64858
369.40329
368.16846
366.94468
365.73254
364.53256
363.34528
362.17118
361.01077
359.86457
358.73348
413.67774
412.571
411.44098
410.28887
409.1159
407.92328
406.71225
405.48405
404.2399
402.98107
401.70878
400.42427
399.12878
397.82353
396.50973
395.18858
393.86125
392.5289
391.19267
389.85368
388.51302
387.17174
385.83088
384.49144
383.15439
381.82068
380.4912
379.16684
377.84845
376.53681
375.23273
373.93694
372.65015
371.37304
370.10628
368.85048
367.60623
366.37411
365.15464
363.94836
362.75575
361.57731
360.41355
359.26537
417.65159
416.5554
415.43566
414.29216
413.12581
411.93774
410.72915
409.50126
408.25529
406.9925
405.71412
404.4214
403.1156
401.79796
400.46972
399.13211
397.78636
396.43367
395.07522
393.71219
392.34573
390.97695
389.60695
388.23681
386.86756
385.50022
384.13576
382.77512
381.41922
380.06895
378.72514
377.38861
376.06013
374.74047
373.43032
372.13038
370.84129
369.56368
368.29813
367.04522
365.80548
364.57942
363.36754
362.17031
360.98827
359.82227
419.53131
418.39773
417.24018
416.05915
414.85563
413.63077
412.38575
411.12178
409.84011
408.54195
407.22858
405.90124
404.56119
403.20969
401.84798
400.47731
399.0989
397.71397
396.32371
394.92931
393.53193
392.13268
390.73269
389.33302
387.93472
386.53882
385.14629
383.75809
382.37513
380.99831
379.62846
378.26641
376.91294
375.5688
374.2347
372.91133
371.59934
370.29934
369.01193
367.73768
366.47711
365.23074
363.99906
362.78253
361.58168
360.39737
421.44012
420.26807
419.07229
417.85333
416.61224
415.35017
414.0683
412.76785
411.45006
410.11615
408.7674
407.40505
406.03038
404.64464
403.24909
401.84498
400.43355
399.01602
397.59359
396.16747
394.7388
393.30873
391.87837
390.44882
389.02112
387.5963
386.17534
384.75922
383.34885
381.94512
380.54889
379.16097
377.78215
376.41319
375.05479
373.70764
372.3724
371.04968
369.74008
368.44415
367.16243
365.89542
364.64361
363.40746
362.1875
360.98456
423.36033
422.14961
420.91547
419.6585
418.37975
417.08039
415.7616
414.42458
413.07059
411.70085
410.31664
408.91922
407.50985
406.0898
404.66034
403.22273
401.7782
400.328
398.87333
397.41539
395.95536
394.49439
393.03358
391.57405
390.11685
388.66301
387.21353
385.76938
384.33149
382.90074
381.478
380.06409
378.6598
377.26589
375.88306
374.51201
373.15339
371.80782
370.47588
369.15814
367.85512
366.56733
365.29526
364.03935
362.80013
361.57843
425.27701
424.02776
422.75544
421.46064
420.14444
418.80797
417.45244
416.07906
414.68906
413.2837
411.86422
410.43192
408.98805
407.53388
406.0707
404.59977
403.12233
401.63963
400.15288
398.6633
397.17206
395.68033
394.18922
392.69984
391.21327
389.73054
388.25265
386.78058
385.31526
383.85759
382.40843
380.96861
379.53893
378.12013
376.71293
375.31803
373.93608
372.56769
371.21346
369.87393
368.54965
367.2411
365.94878
364.67313
363.41466
362.1742
427.17738
425.89001
424.57991
423.24772
421.89448
420.52135
419.12951
417.72019
416.29462
414.85404
413.39973
411.93296
410.45501
408.96714
407.47065
405.96679
404.45683
402.94201
401.42357
399.90271
398.38063
396.85848
395.33741
393.81853
392.30291
390.79159
389.2856
387.7859
386.29343
384.80911
383.33379
381.86831
380.41347
378.97001
377.53867
376.12014
374.71505
373.32404
371.9477
370.58657
369.24118
367.91204
366.59962
365.30438
364.0268
362.7677
429.05054
427.72569
426.37846
425.0095
423.61985
422.21068
420.78316
419.33852
417.878
416.40283
414.9143
413.41368
411.90224
410.38127
408.85205
407.31585
405.77394
404.22757
402.67798
401.12639
399.57399
398.02195
396.47143
394.92353
393.37934
391.83992
390.30627
388.77938
387.26021
385.74965
384.24858
382.75784
381.27822
379.81048
378.35535
376.91352
375.48564
374.07234
372.67419
371.29175
369.92556
368.5761
367.24385
365.92926
364.63282
363.35533
430.88725
429.52586
428.14233
426.73739
425.31213
423.8677
422.40529
420.92612
419.43142
417.92244
416.40046
414.86675
413.32258
411.76926
410.20805
408.64024
407.0671
405.48989
403.90985
402.3282
400.74616
399.1649
397.58556
396.00928
394.43714
392.8702
391.30949
389.756
388.21067
386.67442
385.14813
383.63264
382.12875
380.63721
379.15877
377.6941
376.24387
374.8087
373.38916
371.98583
370.59921
369.22981
367.8781
366.54452
365.22956
363.934
432.67989
431.28319
429.86429
428.42429
426.96432
425.48555
423.98916
422.47638
420.94842
419.40654
417.85201
416.28609
414.71009
413.12528
411.53294
409.93438
408.33085
406.72362
405.11394
403.50305
401.89215
400.28243
398.67504
397.07111
395.47175
393.87802
392.29094
390.71151
389.1407
387.57941
386.02853
384.4889
382.96133
381.44658
379.94539
378.45844
376.98639
375.52987
374.08946
372.66571
371.25915
369.87027
368.49954
367.1474
365.81434
364.50112
435.83309
434.42361
432.99189
431.53849
430.0644
428.57074
427.05865
425.52931
423.98392
422.42372
420.84995
419.26386
417.66675
416.05988
414.44456
412.82206
411.19368
409.5607
407.92438
406.28598
404.64673
403.00785
401.37053
399.73593
398.1052
396.47943
394.85969
393.24703
391.64244
390.04688
388.46127
386.88652
385.32345
383.77288
382.23558
380.71228
379.20368
377.71043
376.23315
374.77243
373.32883
371.90287
370.49504
369.1058
367.73561
366.38492
365.0545
437.55626
436.11248
434.64692
433.16013
431.65307
430.12682
428.58252
427.02134
425.44446
423.85311
422.24853
420.63198
419.00473
417.36806
415.72328
414.07165
412.41449
410.75306
409.08864
407.42249
405.75585
404.08994
402.42596
400.76508
399.10843
397.45714
395.81227
394.17487
392.54594
390.92645
389.31733
387.71947
386.13373
384.5609
383.00177
381.45707
379.9275
378.41371
376.91632
375.43594
373.9731
372.52833
371.10213
369.69496
368.30725
366.93948
365.59238
439.21911
437.74255
436.24445
434.7255
433.18667
431.62903
430.05371
428.46185
426.85465
425.23331
423.59907
421.95319
420.29694
418.63159
416.95845
415.27879
413.59392
411.90511
410.21365
408.52079
406.82777
405.13584
403.44618
401.75998
400.07838
398.40249
396.73341
395.07217
393.41979
391.77723
390.14544
388.52531
386.91769
385.32339
383.7432
382.17786
380.62804
379.09443
377.57764
376.07826
374.59685
373.13392
371.68997
370.26546
368.86083
367.47654
366.11332
440.81888
439.31106
437.78174
436.23189
434.66253
433.07474
431.46962
429.84831
428.21199
426.56187
424.89917
423.22514
421.54105
419.84819
418.14783
416.44128
414.72981
413.01473
411.29731
409.57881
407.86049
406.14357
404.42926
402.71875
401.01318
399.31368
397.62133
395.93719
394.26227
392.59755
390.94397
389.30242
387.67377
386.05883
384.45839
382.87317
381.30389
379.75121
378.21574
376.69808
375.19878
373.71836
372.25732
370.81611
369.39518
367.99497
366.61621
443.87134
442.35457
440.81624
439.25688
437.6774
436.07879
434.46211
432.82845
431.17894
429.51475
427.83707
426.14712
424.44616
422.73543
421.01623
419.28983
417.55754
415.82063
414.0804
412.33813
410.5951
408.85254
407.1117
405.3738
403.64
401.91148
400.18936
398.47473
396.76865
395.07214
393.38617
391.7117
390.04963
388.40082
386.76608
385.14621
383.54195
381.95399
380.383
378.8296
377.29439
375.77793
374.28072
372.80326
371.34602
369.90942
368.49392
367.10022
445.37061
443.82424
442.25674
440.66865
439.06083
437.43427
435.78999
434.12906
432.45262
430.76181
429.05782
427.34187
425.61518
423.87903
422.13469
420.38344
418.62656
416.86537
415.10113
413.33515
411.56868
409.80299
408.03931
406.27887
404.52284
402.7724
401.02867
399.29274
397.5657
395.84854
394.14228
392.44784
390.76614
389.09804
387.44438
385.80592
384.18343
382.5776
380.98909
379.41854
377.86653
376.33362
374.82033
373.32715
371.85454
370.40293
368.97277
367.56475
446.80156
445.22718
443.63193
442.01645
440.38162
438.7284
437.05781
435.37091
433.6688
431.95263
430.22358
428.48285
426.73168
424.97131
423.20302
421.4281
419.64783
417.8635
416.0764
414.28783
412.49905
410.71132
408.92588
407.14396
405.36675
403.59541
401.83108
400.07487
398.32783
396.591
394.86537
393.15189
391.45147
389.76498
388.09325
386.43706
384.79717
383.17428
381.56905
379.98211
378.41406
376.86545
375.3368
373.82859
372.34129
370.87533
369.43116
368.00944
448.16432
446.56342
444.94178
443.30024
441.63971
439.96114
438.26552
436.55392
434.82741
433.08714
431.33427
429.57
427.79555
426.01217
424.22113
422.42371
420.6212
418.81489
417.00607
415.19603
413.38604
411.57736
409.77125
407.96891
406.17156
404.38035
402.59644
400.82092
399.05487
397.29933
395.55527
393.82367
392.10543
390.40143
388.7125
387.03944
385.38297
383.74383
382.12267
380.52013
378.93679
377.37322
375.82992
374.30739
372.80609
371.32644
369.86889
368.4341
451.06569
449.46002
447.83354
446.18675
444.52045
442.83551
441.13287
439.41351
437.67847
435.92881
434.16568
432.39021
430.60361
428.80708
427.00188
425.18927
423.37053
421.54693
419.71977
417.89035
416.05995
414.22984
412.40129
410.57556
408.75386
406.93739
405.12734
403.32484
401.531
399.74691
397.97359
396.21204
394.46323
392.72807
391.00744
389.30218
387.61307
385.94086
384.28628
382.64998
381.0326
379.43473
377.85692
376.2997
374.76354
373.24891
371.75623
370.28594
368.83868
452.31943
450.68903
449.03829
447.36765
445.67787
443.9698
442.24436
440.50251
438.74526
436.9737
435.18891
433.39205
431.58431
429.7669
427.94105
426.10801
424.26908
422.42552
420.57864
418.72972
416.88004
415.03089
413.18354
411.33923
409.49919
407.66463
405.83672
404.01662
402.20543
400.40424
398.61408
396.83596
395.07084
393.31964
391.58325
389.86249
388.15817
386.47104
384.80181
383.15115
381.51969
379.90803
378.31672
376.74628
375.19719
373.66991
372.16485
370.68243
369.2233
453.50615
451.85247
450.17879
448.4856
446.77361
445.04367
443.29667
441.53356
439.75533
437.96304
436.1578
434.34074
432.51302
430.67587
428.8305
426.97818
425.12018
423.25777
421.39224
419.52489
417.65701
415.78987
413.92474
412.06288
410.20551
408.35384
406.50906
404.67232
402.84472
401.02736
399.22128
397.42749
395.64694
393.88057
392.12926
390.39385
388.67513
386.97387
385.29077
383.62651
381.98172
380.357
378.7529
377.16994
375.60861
374.06934
372.55255
371.05864
369.58817
454.62744
452.9518
451.25648
449.542
447.80905
446.05847
444.29112
442.50793
440.70991
438.89808
437.07354
435.23741
433.39086
431.53509
429.67133
427.80081
425.92482
424.04463
422.16153
420.2768
418.39174
416.50763
414.62574
412.74732
410.8736
409.0058
407.14509
405.29264
403.44956
401.61694
399.79583
397.98724
396.19213
394.41143
392.64603
390.89677
389.16446
387.44984
385.75364
384.07653
382.41915
380.78208
379.16589
377.5711
375.99818
374.44759
372.91972
371.41494
369.93369
455.68509
453.98873
452.27303
450.53847
448.78578
447.01574
445.22921
443.42713
441.61046
439.78022
437.93751
436.08343
434.21914
432.34584
430.46475
428.57711
426.68419
424.78725
422.8876
420.98652
419.08529
417.1852
415.28752
413.3935
411.50438
409.62138
407.74568
405.87843
404.02076
402.17377
400.33849
398.51595
396.70711
394.9129
393.13422
391.37191
389.62677
387.89956
386.191
384.50177
382.8325
381.18378
379.55619
377.95022
376.36638
374.8051
373.2668
371.75185
370.26075
368.79399
456.681
454.96514
453.23025
451.47681
449.70553
447.91719
446.11264
444.29278
442.45857
440.61103
438.75123
436.88027
434.99931
433.10954
431.21216
429.30842
427.39958
425.48691
423.5717
421.65524
419.73881
417.8237
415.91117
414.00249
412.0989
410.2016
408.31179
406.43063
404.55924
402.69872
400.85012
399.01445
397.19269
395.38577
393.59459
391.81999
390.06278
388.32371
386.60351
384.90286
383.2224
381.56271
379.92436
378.30788
376.71374
375.1424
373.59427
372.06976
370.56928
369.09358
457.61723
455.88304
454.13011
452.35894
450.5702
448.76468
446.94319
445.10663
443.25596
441.39218
439.51633
437.62954
435.73293
433.82769
431.91503
429.99618
428.0724
426.14497
424.21516
422.28426
420.35357
418.42436
416.4979
414.57546
412.65827
410.74756
408.84451
406.95028
405.066
403.19278
401.33166
399.48366
397.64976
395.8309
394.02797
392.24182
390.47326
388.72305
386.99191
385.28052
383.58953
381.91952
380.27107
378.64468
377.04086
375.46005
373.90268
372.36915
370.85988
369.37553
458.49593
456.74452
454.97467
453.18686
451.38176
449.56011
447.72275
445.87054
444.00444
442.12543
440.23455
438.33291
436.42164
434.50191
432.57493
430.64192
428.70415
426.76288
424.81939
422.87497
420.93091
418.98848
417.04897
415.11363
413.1837
411.26041
409.34494
407.43846
405.54211
403.65697
401.78411
399.92455
398.07927
396.2492
394.43525
392.63827
390.85905
389.09838
387.35697
385.63551
383.93463
382.25494
380.59699
378.96131
377.34838
375.75868
374.19261
372.6506
371.13304
369.64053
459.31928
457.55175
455.76605
453.96266
452.14222
450.30549
448.45327
446.58641
444.70586
442.8126
440.90766
438.99213
437.06714
435.13385
433.19347
431.24722
429.29636
427.34214
425.38585
423.42878
421.47221
419.51742
417.56569
415.61828
413.67643
411.74137
409.81428
407.89633
405.98867
404.09238
402.20853
400.33814
398.48219
396.64164
394.81736
393.01022
391.22103
389.45056
387.69953
385.96862
384.25847
382.5697
380.90284
379.25844
377.63699
376.03893
374.46471
372.91472
371.38936
369.88919
460.08954
458.30693
456.50641
454.68844
452.85368
451.00284
449.13672
447.25618
445.36214
443.45556
441.53748
439.60897
437.67116
435.72521
433.77231
431.81369
429.85059
427.88429
425.91604
423.94715
421.97889
420.01256
418.04941
416.09072
414.13774
412.19167
410.25372
408.32506
406.40682
404.50011
402.60598
400.72547
398.85956
397.00919
395.17526
393.35862
391.5601
389.78046
388.02042
386.28067
384.56186
382.86457
381.18939
379.53683
377.90738
376.3015
374.71963
373.16216
371.62949
370.12214
460.80897
459.01228
457.19791
455.36635
453.51821
451.65421
449.77512
447.88181
445.97517
444.05617
442.12583
440.18522
438.23545
436.27769
434.31312
432.34296
430.36845
428.39087
426.41147
424.43156
422.4524
420.47529
418.5015
416.53229
414.56891
412.61258
410.6645
408.72583
406.79773
404.88129
402.97757
401.08761
399.21239
397.35286
395.50992
393.68442
391.87718
390.08897
388.32052
386.57251
384.84559
383.14036
381.45739
379.79719
378.16027
376.54708
374.95805
373.39358
371.85406
370.34
461.47983
459.67001
457.84275
455.9985
454.1379
452.26163
450.37047
448.46525
446.54688
444.61631
442.67455
440.72267
438.76177
436.793
434.81756
432.83666
430.85153
428.86344
426.87366
424.88348
422.89417
420.90703
418.92332
416.94431
414.97125
413.00536
411.04784
409.09986
407.16256
405.23706
403.3244
401.42564
399.54174
397.67367
395.82232
393.98855
392.17318
390.37699
388.60069
386.84498
385.1105
383.39786
381.70762
380.0403
378.3964
376.77638
375.18066
373.60965
372.06372
370.54339
462.10437
460.28234
458.44307
456.58702
454.71482
452.82713
450.92474
449.00845
447.07917
445.13784
443.18546
441.2231
439.25185
437.27286
435.28731
433.29641
431.30141
429.30355
427.30412
425.30439
423.30565
421.30917
419.31624
417.32812
415.34606
413.37128
411.40497
409.44833
407.50248
405.56854
403.64757
401.74061
399.84865
397.97263
396.11345
394.27199
392.44906
390.64542
388.86182
387.09894
385.35742
383.63787
381.94085
380.26689
378.61649
376.9901
375.38815
373.81103
372.25913
370.73295
462.68479
460.85142
459.001
457.134
455.25101
453.35273
451.4399
449.51334
447.57392
445.6226
443.66037
441.68827
439.70741
437.71892
435.72399
433.72383
431.71965
429.71274
427.70434
425.69575
423.68825
421.68311
419.68162
417.68504
415.69462
413.71158
411.73713
409.77243
407.81865
405.87687
403.94818
402.03361
400.13414
398.25074
396.3843
394.53568
392.70571
390.89517
389.10477
387.33522
385.58715
383.86118
382.15786
380.47772
378.82127
377.18895
375.58119
373.9984
372.44093
370.9093
463.22328
461.37941
459.51865
457.64147
455.74849
453.84038
451.91787
449.98178
448.03298
446.0724
444.10103
442.11991
440.13015
438.13286
436.12924
434.12048
432.10781
430.0925
428.0758
426.05899
424.04337
422.03021
420.02079
418.01637
416.0182
414.0275
412.04549
410.07334
408.11219
406.16315
404.2273
402.30567
400.39925
398.50899
396.63581
394.78056
392.94407
391.12711
389.33041
387.55467
385.80052
384.06858
382.35941
380.67354
379.01146
377.37363
375.76048
374.1724
372.60977
371.07307
463.72198
461.86839
459.99804
458.11145
456.20922
454.292
452.36054
450.41564
448.45814
446.48899
444.50917
442.51971
440.52171
438.51629
436.50463
434.48792
432.46739
430.44431
428.41993
426.39553
424.3724
422.35181
420.33505
418.32337
416.31803
414.32026
412.33125
410.3522
408.38423
406.42847
404.48599
402.55783
400.64497
398.74837
396.86894
395.00755
393.16501
391.34211
389.53958
387.75809
385.99832
384.26085
382.54625
380.85507
379.18777
377.54483
375.92667
374.33369
372.76626
371.22486
469.6686
467.85736
466.02869
464.18305
462.3204
460.44117
458.54587
456.63509
454.70947
452.76974
450.81669
448.85117
446.87411
444.88648
442.88932
440.88371
438.87078
436.85169
434.82764
432.79986
430.76961
428.73813
426.70672
424.67665
422.64921
420.62567
418.60729
416.59534
414.59102
412.59556
410.61013
408.63587
406.6739
404.72529
402.79109
400.87228
398.96982
397.08462
395.21755
393.36943
391.54103
389.7331
387.94631
386.18132
384.43874
382.71913
381.02302
379.3509
377.70323
376.08043
374.48291
372.91103
371.36527
471.92285
470.1201
468.29999
466.46267
464.60841
462.73738
460.84996
458.94663
457.02796
455.09459
453.14724
451.18668
449.21377
447.22942
445.2346
443.23034
441.21772
439.19786
437.17193
435.14112
433.10666
431.06979
429.03178
426.9939
424.95745
422.92368
420.8939
418.86935
416.85129
414.84094
412.83953
410.84822
408.86815
406.90046
404.94621
403.00643
401.08214
399.17427
397.28375
395.41144
393.55817
391.7247
389.91178
388.1201
386.3503
384.603
382.87875
381.1781
379.50152
377.84947
376.22239
374.62067
373.04468
371.49489
472.34689
470.53574
468.70746
466.86213
464.99998
463.12124
461.22627
459.31555
457.38963
455.44913
453.49476
451.5273
449.54758
447.55652
445.55509
443.54431
441.52524
439.49902
437.46679
435.42976
433.38915
431.34621
429.30219
427.25837
425.21603
423.17646
421.14093
419.1107
417.08703
415.07114
413.06425
411.06753
409.08213
407.10916
405.14971
403.20482
401.27547
399.36263
397.46721
395.59008
393.73205
391.89392
390.07641
388.28022
386.506
384.75434
383.02583
381.32098
379.64029
377.98421
376.35317
374.74758
373.16778
371.61427
472.73631
470.91748
469.08168
467.22899
465.35961
463.47379
461.5719
459.6544
457.72181
455.77477
453.81396
451.84016
449.8542
447.85699
445.84949
443.83272
441.80774
439.77567
437.73768
435.69494
433.64869
431.60017
429.55063
427.50136
425.45364
423.40873
421.36793
419.33249
417.30366
415.28269
413.27077
411.26908
409.27878
407.30098
405.33676
403.38716
401.45317
399.53577
397.63585
395.75428
393.8919
392.04948
390.22775
388.42742
386.64912
384.89346
383.16102
381.45232
379.76784
378.10806
376.47338
374.86421
373.28092
371.72397
473.09309
471.26722
469.42453
467.56509
465.6891
463.79681
461.88858
459.96486
458.02617
456.07314
454.10644
452.12684
450.13517
448.13232
446.11927
444.09701
442.06662
440.02921
437.98593
435.93797
433.88656
431.83293
429.77835
427.72409
425.67142
423.62164
421.57601
419.5358
417.50226
415.47662
413.4601
411.45387
409.45908
407.47685
405.50826
403.55435
401.61611
399.69452
397.79048
395.90485
394.03847
392.19212
390.36653
388.56239
386.78036
385.02104
383.28499
381.57275
379.88481
378.22162
376.5836
374.97114
373.38463
371.82452
473.41909
471.58679
469.73781
467.87221
465.99019
464.09199
462.17797
460.24857
458.30431
456.34581
454.37372
452.38883
450.39194
448.38396
446.36583
444.33857
442.30324
440.26094
438.21284
436.16012
434.10399
432.04571
429.98652
427.9277
425.87053
423.81629
421.76625
419.72168
417.68384
415.65394
413.63322
411.62283
409.62394
407.63767
405.66509
403.70724
401.76512
399.8397
397.93189
396.04256
394.17253
392.32258
390.49346
388.68584
386.9004
385.13772
383.39838
381.6829
379.99178
378.32546
376.68438
375.06892
373.47945
371.91643
473.71612
471.87796
470.02325
468.15204
466.26452
464.36094
462.44166
460.50709
458.55776
456.59427
454.61729
452.62757
450.62594
448.61327
446.59053
444.55871
442.51888
440.47215
438.41966
436.3626
434.30218
432.23965
430.17627
428.1133
426.05203
423.99373
421.93968
419.89115
417.84938
415.81561
413.79106
411.77689
409.77427
407.78431
405.80809
403.84666
401.90101
399.9721
398.06085
396.16814
394.29478
392.44155
390.60921
388.79843
387.00986
385.24412
383.50177
381.78334
380.08932
378.42015
376.77627
375.15806
373.56588
372.00019
473.98589
472.14242
470.2825
468.4062
466.5137
464.60524
462.68117
460.74191
458.78798
456.81997
454.83854
452.84445
450.83851
448.8216
446.79466
444.75871
442.7148
440.66404
438.60756
436.54657
434.48226
432.41588
430.34869
428.28196
426.21696
424.15498
422.09729
420.04516
417.99983
415.96255
413.93452
411.91692
409.91091
407.9176
405.93808
403.97339
402.02453
400.09245
398.17809
396.2823
394.40591
392.54971
390.71443
388.90077
387.10938
385.34085
383.59577
381.87465
380.17798
378.50623
376.85979
375.23907
373.64442
372.07628
474.23006
472.38177
470.51714
468.63624
466.73923
464.82636
462.89796
460.95447
458.99637
457.02427
455.03883
453.04078
451.03094
449.01019
446.97947
444.93978
442.89218
440.83777
438.7777
436.71314
434.64531
432.57546
430.50482
428.43469
426.36633
424.30101
422.24003
420.18464
418.1361
416.09563
414.06446
412.04375
410.03467
408.03834
406.05583
404.08819
402.13642
400.20148
398.28429
396.38572
394.50659
392.64769
390.80976
388.99349
387.19953
385.42848
383.68092
381.95736
380.2583
378.58419
376.93544
375.31244
373.71553
372.14515
474.45018
472.59755
470.72868
468.84363
466.94256
465.02571
463.09342
461.14611
459.18427
457.20849
455.21942
453.21781
451.20446
449.18025
447.14612
445.10307
443.05215
440.99446
438.93114
436.86338
434.79238
432.71939
430.64566
428.57246
426.50106
424.43275
422.3688
420.31048
418.25903
416.2157
414.18169
412.15819
410.14635
408.14728
406.16208
404.19178
402.23739
400.29987
398.38013
396.47905
394.59745
392.73612
390.89579
389.07716
387.28088
385.50756
383.75775
382.03199
380.33077
378.65453
377.00369
375.37863
373.77968
372.20724
474.64775
472.79123
470.91855
469.02978
467.12507
465.20466
463.26888
461.31814
459.35294
457.37386
455.38154
453.37674
451.36025
449.33294
447.29575
445.24968
443.19578
441.13515
439.06892
436.99829
434.92445
432.84865
430.77214
428.69619
426.62207
424.55107
422.48446
420.42351
418.36946
416.32356
414.28701
412.261
410.24667
408.24516
406.25754
404.28485
402.32811
400.38826
398.46624
396.5629
394.67908
392.81557
390.97309
389.15234
387.35398
385.5786
383.82678
382.09904
380.39587
378.71772
377.065
375.43808
373.83729
372.26297
474.82419
472.96419
471.08812
469.19603
467.28808
465.36449
463.42559
461.4718
459.5036
457.52157
455.52636
453.51871
451.49941
449.46934
447.42942
445.38067
443.32411
441.26085
439.19203
437.11884
435.04246
432.96416
430.88517
428.80676
426.73022
424.65682
422.58784
420.52453
418.46817
416.41997
414.38115
412.35289
410.33636
408.33266
406.34287
404.36806
402.40921
400.46729
398.54322
396.63787
394.75207
392.8866
391.0422
389.21956
387.41933
385.64212
383.8885
382.15898
380.45407
378.7742
377.11979
375.49121
373.88878
372.31278
474.98084
473.11776
471.23868
469.34365
467.43282
465.50641
463.56475
461.60825
459.6374
457.65276
455.65498
453.6448
451.62302
449.59049
447.54816
445.49702
443.43811
441.37252
439.30141
437.22593
435.14731
433.06678
430.98559
428.90501
426.82632
424.75079
422.6797
420.61432
418.55589
416.50566
414.46482
412.43458
410.41607
408.41043
406.41873
404.44202
402.48131
400.53755
398.61166
396.70452
394.81696
392.94975
391.10363
389.27931
387.47742
385.69858
383.94335
382.21226
380.5058
378.8244
377.16849
375.53843
373.93454
372.35711
370.80635
475.119
473.2532
471.37147
469.47385
467.56048
465.63159
463.6875
461.72862
459.75542
457.76848
455.76845
453.75604
451.73207
449.69739
447.65293
445.59968
443.5387
441.47106
439.39792
437.32045
435.23985
433.15736
431.07424
428.99174
426.91115
424.83375
422.7608
420.69358
418.63334
416.58131
414.5387
412.5067
410.48646
408.47911
406.48572
404.50734
402.54498
400.5996
398.67211
396.76339
394.87426
393.00552
391.15789
389.33208
387.52872
385.74844
383.99179
382.25931
380.55147
378.86872
377.21148
375.58011
373.97495
372.39626
370.84441
475.23986
473.37169
471.48765
469.58776
467.67218
465.74112
463.79491
461.83395
459.85871
457.86976
455.86775
453.85341
451.82752
449.79095
447.74464
445.68956
443.62676
441.55734
439.48243
437.40321
435.32088
433.23668
431.15187
429.0677
426.98545
424.90641
422.83184
420.76301
418.70118
416.64758
414.60343
412.56989
410.54814
408.53928
406.54442
404.56458
402.60077
400.65397
398.72507
396.81497
394.92448
393.05439
391.20544
389.37832
387.57368
385.79213
384.03424
382.30052
380.59148
378.90754
377.24914
375.61662
374.01034
372.43057
370.87766
475.3446
473.47437
471.58832
469.68648
467.76898
465.83606
463.88801
461.92524
459.94824
457.95756
455.95384
453.93782
451.91028
449.87208
447.82416
445.76749
443.70313
441.63216
439.55573
437.47499
435.39117
433.30549
431.21921
429.13359
427.04991
424.96945
422.89348
420.82327
418.76006
416.7051
414.6596
412.62474
410.60167
408.59152
406.59537
404.61426
402.64921
400.70117
398.77106
396.85975
394.96807
393.09682
391.24671
389.41846
387.6127
385.83005
384.07107
382.33629
380.6262
378.94123
377.28181
375.6483
374.04105
372.46034
370.90653
369.37994
475.43428
473.56231
471.67455
469.77103
467.8519
465.91737
463.96776
462.00346
460.02494
458.03278
456.02761
454.01015
451.9812
449.94161
447.89232
445.8343
443.7686
441.69631
439.61856
437.53654
435.45144
433.3645
431.27696
429.19011
427.1052
425.02353
422.94636
420.87496
418.81058
416.75445
414.7078
412.6718
410.64761
408.63635
406.6391
404.65691
402.69078
400.74168
398.81052
396.89818
395.00549
393.13323
391.28214
389.45291
387.64619
385.8626
384.10269
382.36699
380.65598
378.97013
377.30983
375.67546
374.06738
372.48587
370.93126
369.40403
475.50995
473.6365
471.7473
469.84239
467.92188
465.98601
464.03508
462.06948
460.0897
458.09629
456.0899
454.07123
452.04109
450.00034
447.94989
445.89073
443.82391
441.7505
439.67166
437.58855
435.50237
433.41437
431.32578
429.23788
427.15195
425.06925
422.99107
420.91867
418.8533
416.79619
414.74857
412.71161