/*--------------------------------*- C++ -*----------------------------------*\
| =========                 |                                                 |
| \\      /  F ield         | OpenFOAM: The Open Source CFD Toolbox           |
|  \\    /   O peration     | Version:  2312                                  |
|   \\  /    A nd           | Website:  www.openfoam.com                      |
|    \\/     M anipulation  |                                                 |
\*---------------------------------------------------------------------------*/
FoamFile
{
    version     2.0;
    format      ascii;
    arch        "LSB;label=32;scalar=64";
    class       volVectorField;
    location    "0.09";
    object      U;
}
// * * * * * * * * * * * * * * * * * * * * * * * * * * * * * * * * * * * * * //

dimensions      [0 1 -1 0 0 0 0];

internalField   nonuniform List<vector> 
3250
(
(0.87347895 -1.1216195 0)
(0.86141788 -1.1182829 0)
(0.84930046 -1.1144684 0)
(0.83714093 -1.1101852 0)
(0.82495031 -1.1054439 0)
(0.81274022 -1.1002565 0)
(0.80052242 -1.0946351 0)
(0.78830835 -1.0885927 0)
(0.7761091 -1.0821424 0)
(0.76393537 -1.0752979 0)
(0.75179754 -1.0680732 0)
(0.73970557 -1.0604826 0)
(0.72766906 -1.0525407 0)
(0.71569722 -1.0442626 0)
(0.70379886 -1.0356632 0)
(0.6919824 -1.026758 0)
(0.68025587 -1.0175623 0)
(0.66862692 -1.0080916 0)
(0.6571028 -0.99836164 0)
(0.64569041 -0.98838794 0)
(0.63439628 -0.97818608 0)
(0.62322658 -0.9677716 0)
(0.61218715 -0.95715993 0)
(0.60128349 -0.94636638 0)
(0.59052079 -0.93540607 0)
(0.57990394 -0.92429396 0)
(0.56943756 -0.91304477 0)
(0.55912598 -0.90167296 0)
(0.54897328 -0.8901927 0)
(0.53898332 -0.87861788 0)
(0.52915972 -0.86696203 0)
(0.5195059 -0.85523834 0)
(0.51002508 -0.84345963 0)
(0.5007203 -0.83163831 0)
(0.49159446 -0.81978641 0)
(0.48265027 -0.80791553 0)
(0.47389031 -0.79603683 0)
(0.46531705 -0.78416106 0)
(0.45693283 -0.77229849 0)
(0.44873987 -0.76045895 0)
(0.44074033 -0.74865178 0)
(0.43293622 -0.7368858 0)
(0.4253296 -0.72516941 0)
(0.41792287 -0.71351056 0)
(0.87854964 -1.0734138 0)
(0.86635138 -1.0701763 0)
(0.85409736 -1.0664838 0)
(0.84180262 -1.0623462 0)
(0.82947838 -1.0577741 0)
(0.81713632 -1.0527786 0)
(0.80478828 -1.0473713 0)
(0.79244579 -1.0415644 0)
(0.78011998 -1.0353704 0)
(0.76782164 -1.0288022 0)
(0.75556119 -1.0218732 0)
(0.74334865 -1.0145969 0)
(0.73119365 -1.0069872 0)
(0.71910544 -0.99905828 0)
(0.70709285 -0.9908245 0)
(0.69516433 -0.9823004 0)
(0.68332792 -0.97350061 0)
(0.6715913 -0.96443991 0)
(0.65996172 -0.95513309 0)
(0.64844609 -0.94559501 0)
(0.63705095 -0.93584046 0)
(0.62578246 -0.92588422 0)
(0.61464646 -0.91574097 0)
(0.60364844 -0.90542527 0)
(0.59279359 -0.89495152 0)
(0.58208679 -0.88433395 0)
(0.57153263 -0.87358657 0)
(0.56113544 -0.86272315 0)
(0.55089929 -0.8517572 0)
(0.540828 -0.84070193 0)
(0.53092518 -0.82957023 0)
(0.52119424 -0.81837467 0)
(0.51163836 -0.80712745 0)
(0.50226057 -0.7958404 0)
(0.49306372 -0.78452497 0)
(0.4840505 -0.7731922 0)
(0.47522348 -0.76185272 0)
(0.46658508 -0.75051676 0)
(0.45813763 -0.73919409 0)
(0.44988336 -0.72789405 0)
(0.44182448 -0.71662554 0)
(0.43396305 -0.70539696 0)
(0.42630072 -0.69421624 0)
(0.41883946 -0.68309114 0)
(0.88814447 -1.0411302 0)
(0.87570868 -1.037916 0)
(0.86321932 -1.0342633 0)
(0.85069152 -1.0301819 0)
(0.83813666 -1.0256821 0)
(0.82556655 -1.0207746 0)
(0.81299317 -1.0154708 0)
(0.80042815 -1.0097823 0)
(0.78788275 -1.0037214 0)
(0.77536784 -0.99730047 0)
(0.76289392 -0.99053241 0)
(0.75047109 -0.98343039 0)
(0.73810905 -0.97600785 0)
(0.72581709 -0.96827848 0)
(0.7136041 -0.96025615 0)
(0.70147857 -0.9519549 0)
(0.68944859 -0.94338892 0)
(0.67752183 -0.93457247 0)
(0.6657056 -0.92551987 0)
(0.65400682 -0.91624546 0)
(0.64243202 -0.90676356 0)
(0.63098739 -0.89708844 0)
(0.61967875 -0.88723431 0)
(0.60851162 -0.87721522 0)
(0.59749117 -0.86704511 0)
(0.58662226 -0.85673773 0)
(0.57590949 -0.84630662 0)
(0.56535716 -0.83576509 0)
(0.55496932 -0.82512618 0)
(0.54474979 -0.81440266 0)
(0.53470215 -0.80360699 0)
(0.52482977 -0.79275131 0)
(0.51513582 -0.78184738 0)
(0.50562331 -0.77090665 0)
(0.49629504 -0.75994014 0)
(0.48715369 -0.74895852 0)
(0.47820178 -0.73797203 0)
(0.4694417 -0.72699053 0)
(0.46087575 -0.71602344 0)
(0.45250615 -0.70507976 0)
(0.44433507 -0.69416806 0)
(0.43636459 -0.68329649 0)
(0.42859633 -0.67247276 0)
(0.42103214 -0.66170416 0)
(0.90151601 -1.0102674 0)
(0.88875433 -1.0070618 0)
(0.87594233 -1.0034341 0)
(0.8630952 -0.99939379 0)
(0.85022444 -0.99495093 0)
(0.83734203 -0.99011597 0)
(0.82446013 -0.98489982 0)
(0.81159048 -0.97931383 0)
(0.79874448 -0.97336974 0)
(0.78593312 -0.96707966 0)
(0.77316699 -0.96045603 0)
(0.76045629 -0.9535116 0)
(0.74781078 -0.94625935 0)
(0.73523983 -0.93871252 0)
(0.7227524 -0.93088455 0)
(0.71035702 -0.922789 0)
(0.69806181 -0.91443959 0)
(0.6858745 -0.90585011 0)
(0.67380242 -0.8970344 0)
(0.66185249 -0.88800634 0)
(0.65003127 -0.87877977 0)
(0.63834496 -0.86936848 0)
(0.62679939 -0.8597862 0)
(0.61540005 -0.85004653 0)
(0.60415212 -0.84016292 0)
(0.59306046 -0.83014868 0)
(0.58212962 -0.82001687 0)
(0.57136391 -0.80978037 0)
(0.56076735 -0.79945178 0)
(0.55034373 -0.78904342 0)
(0.54009659 -0.77856733 0)
(0.53002929 -0.76803521 0)
(0.52014496 -0.75745845 0)
(0.51044656 -0.74684806 0)
(0.50093687 -0.73621469 0)
(0.49161851 -0.72556862 0)
(0.48249397 -0.71491973 0)
(0.4735656 -0.70427751 0)
(0.46483565 -0.69365102 0)
(0.45630631 -0.68304894 0)
(0.44797972 -0.67247952 0)
(0.43985791 -0.66195061 0)
(0.43194249 -0.65146962 0)
(0.42423526 -0.64104361 0)
(0.91810041 -0.98060551 0)
(0.90493639 -0.97739314 0)
(0.89172622 -0.97377484 0)
(0.8784851 -0.96975984 0)
(0.86522473 -0.96535784 0)
(0.8519573 -0.96057901 0)
(0.8386951 -0.95543392 0)
(0.82545006 -0.94993357 0)
(0.81223369 -0.94408933 0)
(0.79905712 -0.93791293 0)
(0.78593104 -0.93141641 0)
(0.77286575 -0.92461209 0)
(0.75987111 -0.91751257 0)
(0.74695655 -0.91013065 0)
(0.7341311 -0.90247931 0)
(0.72140334 -0.89457171 0)
(0.70878145 -0.8864211 0)
(0.69627319 -0.87804083 0)
(0.68388591 -0.86944429 0)
(0.67162657 -0.86064489 0)
(0.65950173 -0.85165602 0)
(0.6475176 -0.84249103 0)
(0.63568001 -0.83316318 0)
(0.62399444 -0.82368562 0)
(0.61246606 -0.81407136 0)
(0.60109971 -0.80433325 0)
(0.58989994 -0.79448393 0)
(0.578871 -0.78453583 0)
(0.5680169 -0.77450111 0)
(0.55734138 -0.7643917 0)
(0.54684798 -0.75421919 0)
(0.53653997 -0.7439949 0)
(0.52642048 -0.7337298 0)
(0.5164924 -0.72343451 0)
(0.50675848 -0.71311931 0)
(0.49722127 -0.7027941 0)
(0.48788322 -0.69246838 0)
(0.47874663 -0.68215129 0)
(0.46981369 -0.67185157 0)
(0.46108653 -0.66157754 0)
(0.45256726 -0.65133715 0)
(0.44425787 -0.64113793 0)
(0.4361599 -0.63098702 0)
(0.42827507 -0.62089118 0)
(0.93737606 -0.95225714 0)
(0.92374426 -0.94902569 0)
(0.91007128 -0.94540399 0)
(0.89637238 -0.94140107 0)
(0.88265947 -0.93702637 0)
(0.86894496 -0.93228974 0)
(0.85524133 -0.92720146 0)
(0.84156066 -0.92177216 0)
(0.82791461 -0.91601287 0)
(0.81431442 -0.90993494 0)
(0.8007709 -0.90355004 0)
(0.78729445 -0.89687012 0)
(0.77389502 -0.88990736 0)
(0.76058213 -0.88267417 0)
(0.74736485 -0.87518311 0)
(0.73425184 -0.86744693 0)
(0.72125132 -0.85947845 0)
(0.70837108 -0.85129059 0)
(0.6956185 -0.84289632 0)
(0.68300056 -0.83430861 0)
(0.67052384 -0.82554043 0)
(0.65819453 -0.81660467 0)
(0.64601848 -0.80751417 0)
(0.63400115 -0.79828165 0)
(0.62214768 -0.7889197 0)
(0.61046291 -0.77944072 0)
(0.59895134 -0.76985695 0)
(0.58761721 -0.76018039 0)
(0.57646447 -0.75042279 0)
(0.56549684 -0.74059567 0)
(0.55471778 -0.73071024 0)
(0.54413056 -0.7207774 0)
(0.53373821 -0.71080774 0)
(0.5235436 -0.70081151 0)
(0.51354941 -0.69079861 0)
(0.50375814 -0.68077857 0)
(0.49417216 -0.67076056 0)
(0.48479371 -0.66075335 0)
(0.47562493 -0.65076535 0)
(0.46666788 -0.64080456 0)
(0.4579246 -0.63087861 0)
(0.44939702 -0.62099472 0)
(0.44108662 -0.61115975 0)
(0.43299504 -0.60138018 0)
(0.95886662 -0.92509043 0)
(0.94471156 -0.92183079 0)
(0.93052109 -0.91819601 0)
(0.91631045 -0.91419508 0)
(0.90209185 -0.90983723 0)
(0.88787796 -0.90513201 0)
(0.87368142 -0.90008935 0)
(0.85951447 -0.89471959 0)
(0.8453889 -0.88903339 0)
(0.83131609 -0.88304177 0)
(0.81730695 -0.87675603 0)
(0.80337198 -0.87018776 0)
(0.7895212 -0.86334875 0)
(0.77576423 -0.85625103 0)
(0.7621102 -0.84890678 0)
(0.74856781 -0.84132833 0)
(0.73514533 -0.83352811 0)
(0.72185059 -0.82551863 0)
(0.70869099 -0.81731244 0)
(0.69567351 -0.80892211 0)
(0.68280476 -0.80036018 0)
(0.67009092 -0.79163915 0)
(0.65753782 -0.78277142 0)
(0.64515091 -0.77376932 0)
(0.63293532 -0.764645 0)
(0.62089583 -0.75541048 0)
(0.60903693 -0.74607758 0)
(0.5973628 -0.7366579 0)
(0.58587736 -0.72716281 0)
(0.57458427 -0.71760341 0)
(0.56348695 -0.70799055 0)
(0.5525886 -0.69833473 0)
(0.5418922 -0.68864619 0)
(0.53140054 -0.67893479 0)
(0.52111623 -0.66921009 0)
(0.51104173 -0.65948125 0)
(0.50117932 -0.6497571 0)
(0.49153116 -0.64004609 0)
(0.48209932 -0.63035628 0)
(0.47288579 -0.62069536 0)
(0.46389253 -0.61107064 0)
(0.45512139 -0.60148906 0)
(0.44657377 -0.59195717 0)
(0.43825122 -0.58248118 0)
(0.98214127 -0.89896371 0)
(0.96741632 -0.89566967 0)
(0.95266293 -0.89201514 0)
(0.93789558 -0.88800899 0)
(0.92312705 -0.88366041 0)
(0.90837031 -0.87897862 0)
(0.89363816 -0.87397326 0)
(0.87894299 -0.86865432 0)
(0.8642967 -0.86303218 0)
(0.84971079 -0.85711749 0)
(0.83519628 -0.85092123 0)
(0.82076374 -0.84445462 0)
(0.80642331 -0.8377291 0)
(0.79218464 -0.83075632 0)
(0.77805694 -0.82354809 0)
(0.76404896 -0.81611636 0)
(0.750169 -0.80847316 0)
(0.73642491 -0.80063063 0)
(0.72282413 -0.79260092 0)
(0.70937364 -0.78439618 0)
(0.69608004 -0.77602858 0)
(0.68294951 -0.76751021 0)
(0.66998786 -0.75885309 0)
(0.65720053 -0.75006913 0)
(0.64459259 -0.7411701 0)
(0.63216881 -0.73216763 0)
(0.61993363 -0.72307314 0)
(0.60789117 -0.71389785 0)
(0.59604531 -0.70465276 0)
(0.58439965 -0.69534859 0)
(0.57295753 -0.68599579 0)
(0.5617221 -0.67660454 0)
(0.55069627 -0.66718469 0)
(0.53988275 -0.65774576 0)
(0.52928408 -0.64829694 0)
(0.51890264 -0.63884708 0)
(0.50874062 -0.62940466 0)
(0.49880011 -0.61997779 0)
(0.48908309 -0.61057423 0)
(0.47959146 -0.60120135 0)
(0.47032708 -0.59186615 0)
(0.46129173 -0.58257528 0)
(0.45248672 -0.57333499 0)
(0.44391347 -0.56415121 0)
(1.0068124 -0.87376123 0)
(0.99147815 -0.87042808 0)
(0.97612477 -0.86674914 0)
(0.96076417 -0.86273312 0)
(0.94540963 -0.85838872 0)
(0.93007468 -0.85372486 0)
(0.91477224 -0.8487509 0)
(0.89951481 -0.84347655 0)
(0.88431443 -0.83791185 0)
(0.86918267 -0.83206715 0)
(0.85413067 -0.82595309 0)
(0.83916909 -0.81958055 0)
(0.82430812 -0.81296063 0)
(0.80955749 -0.80610461 0)
(0.79492646 -0.79902395 0)
(0.78042381 -0.79173022 0)
(0.76605788 -0.78423509 0)
(0.75183655 -0.77655031 0)
(0.73776726 -0.76868765 0)
(0.72385699 -0.7606589 0)
(0.71011233 -0.75247583 0)
(0.69653946 -0.74415016 0)
(0.68314415 -0.73569351 0)
(0.66993181 -0.72711744 0)
(0.65690748 -0.71843332 0)
(0.64407588 -0.7096524 0)
(0.63144139 -0.70078575 0)
(0.61900809 -0.6918442 0)
(0.60677979 -0.68283838 0)
(0.59476001 -0.67377867 0)
(0.58295205 -0.66467515 0)
(0.57135896 -0.65553765 0)
(0.55998357 -0.64637566 0)
(0.54882852 -0.63719838 0)
(0.53789627 -0.62801465 0)
(0.52718908 -0.618833 0)
(0.51670909 -0.60966156 0)
(0.50645828 -0.60050815 0)
(0.49643852 -0.59138021 0)
(0.48665162 -0.58228479 0)
(0.47709936 -0.57322862 0)
(0.46778341 -0.56421802 0)
(0.45870497 -0.55525898 0)
(0.44986536 -0.54635714 0)
(1.0643778 -0.85510554 0)
(1.0484758 -0.85241366 0)
(1.0325299 -0.84937847 0)
(1.0165581 -0.84600381 0)
(1.0005739 -0.84229816 0)
(0.98459032 -0.83826964 0)
(0.96862118 -0.83392639 0)
(0.95268001 -0.82927709 0)
(0.93677986 -0.82433079 0)
(0.92093332 -0.81909691 0)
(0.90515254 -0.8135852 0)
(0.8894492 -0.80780569 0)
(0.87383451 -0.80176869 0)
(0.85831921 -0.79548475 0)
(0.84291355 -0.78896464 0)
(0.82762733 -0.78221929 0)
(0.81246984 -0.7752598 0)
(0.7974499 -0.76809738 0)
(0.78257587 -0.76074336 0)
(0.76785564 -0.75320911 0)
(0.75329664 -0.74550605 0)
(0.73890587 -0.7376456 0)
(0.7246899 -0.72963915 0)
(0.71065486 -0.72149806 0)
(0.69680652 -0.71323359 0)
(0.68315023 -0.70485692 0)
(0.66969099 -0.69637907 0)
(0.65643346 -0.68781094 0)
(0.64338197 -0.6791632 0)
(0.63054054 -0.67044637 0)
(0.61791289 -0.6616707 0)
(0.60550248 -0.65284623 0)
(0.59331253 -0.6439827 0)
(0.58134599 -0.63508959 0)
(0.56960563 -0.62617607 0)
(0.55809398 -0.617251 0)
(0.54681341 -0.6083229 0)
(0.5357661 -0.59939997 0)
(0.52495406 -0.59049004 0)
(0.51437919 -0.58160062 0)
(0.50404325 -0.57273882 0)
(0.49394795 -0.56391143 0)
(0.48409495 -0.55512486 0)
(0.47448582 -0.54638516 0)
(0.46512164 -0.53769804 0)
(0.45600363 -0.52906884 0)
(1.0921835 -0.83157042 0)
(1.0756017 -0.82881105 0)
(1.0589854 -0.82572031 0)
(1.0423515 -0.82230486 0)
(1.025713 -0.81857245 0)
(1.009084 -0.81453063 0)
(0.99247825 -0.8101874 0)
(0.97590943 -0.80555115 0)
(0.95939064 -0.80063067 0)
(0.94293458 -0.79543507 0)
(0.92655349 -0.78997379 0)
(0.91025911 -0.78425656 0)
(0.89406275 -0.77829336 0)
(0.87797521 -0.77209443 0)
(0.86200678 -0.76567018 0)
(0.84616731 -0.75903123 0)
(0.83046611 -0.75218832 0)
(0.81491204 -0.74515233 0)
(0.79951347 -0.73793424 0)
(0.78427829 -0.73054505 0)
(0.76921392 -0.72299585 0)
(0.75432735 -0.71529768 0)
(0.73962512 -0.70746161 0)
(0.72511334 -0.69949862 0)
(0.71079772 -0.69141964 0)
(0.69668357 -0.68323547 0)
(0.68277585 -0.6749568 0)
(0.66907915 -0.66659417 0)
(0.65559773 -0.65815793 0)
(0.64233553 -0.64965822 0)
(0.6292962 -0.64110499 0)
(0.61648313 -0.63250791 0)
(0.60389942 -0.62387641 0)
(0.59154796 -0.61521965 0)
(0.5794314 -0.60654646 0)
(0.5675522 -0.59786538 0)
(0.55591261 -0.58918464 0)
(0.5445147 -0.58051211 0)
(0.53336039 -0.57185533 0)
(0.52245145 -0.56322149 0)
(0.51178955 -0.55461743 0)
(0.50137627 -0.54604964 0)
(0.49121317 -0.53752424 0)
(0.48130169 -0.529047 0)
(0.4716428 -0.52062335 0)
(0.4622376 -0.51225837 0)
(1.1204862 -0.80867276 0)
(1.1032068 -0.80584703 0)
(1.0859021 -0.80270367 0)
(1.0685882 -0.79924953 0)
(1.0512788 -0.79549172 0)
(1.033988 -0.79143764 0)
(1.0167297 -0.78709506 0)
(0.99951781 -0.78247212 0)
(0.98236537 -0.77757732 0)
(0.96528521 -0.77241948 0)
(0.94828963 -0.76700775 0)
(0.93139046 -0.76135154 0)
(0.91459905 -0.75546053 0)
(0.89792624 -0.74934461 0)
(0.88138239 -0.7430139 0)
(0.86497735 -0.73647867 0)
(0.84872047 -0.72974933 0)
(0.83262062 -0.72283644 0)
(0.81668617 -0.71575061 0)
(0.80092499 -0.70850254 0)
(0.78534451 -0.70110294 0)
(0.76995168 -0.69356255 0)
(0.75475301 -0.68589205 0)
(0.73975456 -0.67810212 0)
(0.72496201 -0.67020332 0)
(0.7103806 -0.66220613 0)
(0.69601524 -0.6541209 0)
(0.68187044 -0.64595782 0)
(0.66795038 -0.63772693 0)
(0.65425893 -0.62943803 0)
(0.64079966 -0.62110075 0)
(0.62757586 -0.61272443 0)
(0.61459054 -0.60431819 0)
(0.60184648 -0.59589086 0)
(0.58934625 -0.58745098 0)
(0.57709219 -0.57900678 0)
(0.56508643 -0.57056616 0)
(0.55333095 -0.56213673 0)
(0.54182755 -0.55372572 0)
(0.53057788 -0.54534003 0)
(0.51958349 -0.53698622 0)
(0.50884584 -0.52867048 0)
(0.49836636 -0.52039867 0)
(0.48814639 -0.51217629 0)
(0.47818677 -0.50400849 0)
(0.46848846 -0.49590009 0)
(1.1490313 -0.78633526 0)
(1.1310419 -0.78344727 0)
(1.1130364 -0.78025524 0)
(1.095031 -0.77676565 0)
(1.0770394 -0.77298537 0)
(1.0590759 -0.76892157 0)
(1.0411548 -0.76458178 0)
(1.0232897 -0.75997387 0)
(1.0054939 -0.75510608 0)
(0.98778028 -0.74998694 0)
(0.97016122 -0.7446253 0)
(0.95264857 -0.73903026 0)
(0.93525373 -0.73321121 0)
(0.91798759 -0.72717772 0)
(0.90086051 -0.72093959 0)
(0.88388237 -0.71450676 0)
(0.86706254 -0.70788934 0)
(0.85040987 -0.70109754 0)
(0.83393273 -0.69414165 0)
(0.81763898 -0.68703204 0)
(0.80153602 -0.67977909 0)
(0.78563076 -0.6723932 0)
(0.76992968 -0.66488474 0)
(0.75443879 -0.65726404 0)
(0.73916371 -0.64954134 0)
(0.72410962 -0.6417268 0)
(0.70928135 -0.63383043 0)
(0.69468335 -0.62586211 0)
(0.68031971 -0.61783155 0)
(0.66619421 -0.60974825 0)
(0.65231033 -0.60162149 0)
(0.63867125 -0.59346035 0)
(0.62527991 -0.58527361 0)
(0.61213896 -0.57706981 0)
(0.59925087 -0.56885719 0)
(0.58661786 -0.56064367 0)
(0.57424195 -0.55243689 0)
(0.56212501 -0.54424414 0)
(0.55026871 -0.53607239 0)
(0.53867458 -0.52792825 0)
(0.52734404 -0.519818 0)
(0.51627843 -0.51174757 0)
(0.50547906 -0.50372254 0)
(0.49494713 -0.49574815 0)
(0.48468335 -0.48782927 0)
(0.47468855 -0.47997049 0)
(1.1775958 -0.76449164 0)
(1.158889 -0.76154684 0)
(1.1401757 -0.75831104 0)
(1.1214721 -0.75479053 0)
(1.1027922 -0.75099192 0)
(1.0841502 -0.74692215 0)
(1.0655606 -0.74258849 0)
(1.0470371 -0.73799857 0)
(1.028593 -0.73316032 0)
(1.0102413 -0.72808201 0)
(0.99199439 -0.72277219 0)
(0.97386412 -0.71723968 0)
(0.95586195 -0.71149354 0)
(0.93799877 -0.70554306 0)
(0.92028498 -0.6993977 0)
(0.90273045 -0.69306712 0)
(0.88534455 -0.68656108 0)
(0.86813611 -0.6798895 0)
(0.8511135 -0.67306233 0)
(0.83428454 -0.66608963 0)
(0.8176566 -0.65898146 0)
(0.80123656 -0.6517479 0)
(0.78503082 -0.644399 0)
(0.76904537 -0.63694476 0)
(0.75328574 -0.62939511 0)
(0.73775705 -0.62175989 0)
(0.72246406 -0.61404881 0)
(0.70741112 -0.60627143 0)
(0.69260225 -0.59843715 0)
(0.67804113 -0.59055517 0)
(0.66373113 -0.58263446 0)
(0.64967534 -0.57468381 0)
(0.63587658 -0.5667117 0)
(0.62233742 -0.55872639 0)
(0.60906017 -0.55073581 0)
(0.59604696 -0.54274762 0)
(0.58329969 -0.53476916 0)
(0.57082009 -0.52680746 0)
(0.55860972 -0.51886921 0)
(0.54666998 -0.51096075 0)
(0.53500216 -0.50308809 0)
(0.52360746 -0.4952569 0)
(0.51248706 -0.4874725 0)
(0.50164204 -0.47973987 0)
(0.49107297 -0.47206363 0)
(0.48078054 -0.46444811 0)
(1.2059857 -0.74308492 0)
(1.1865587 -0.74008964 0)
(1.1671353 -0.73681597 0)
(1.1477316 -0.73327005 0)
(1.1283616 -0.72945825 0)
(1.1090397 -0.72538724 0)
(1.0897804 -0.72106406 0)
(1.0705976 -0.71649604 0)
(1.0515046 -0.71169086 0)
(1.0325143 -0.7066565 0)
(1.0136392 -0.70140122 0)
(0.99489119 -0.69593354 0)
(0.97628172 -0.69026224 0)
(0.9578217 -0.68439629 0)
(0.93952151 -0.67834487 0)
(0.92139103 -0.6721173 0)
(0.90343961 -0.66572308 0)
(0.88567607 -0.65917176 0)
(0.86810873 -0.65247304 0)
(0.85074539 -0.64563662 0)
(0.83359338 -0.63867228 0)
(0.81665951 -0.63158977 0)
(0.79995015 -0.62439883 0)
(0.78347121 -0.61710916 0)
(0.76722815 -0.60973039 0)
(0.75122603 -0.60227203 0)
(0.7354695 -0.59474351 0)
(0.71996284 -0.58715408 0)
(0.70470997 -0.57951284 0)
(0.68971447 -0.5718287 0)
(0.67497961 -0.56411035 0)
(0.66050838 -0.55636627 0)
(0.64630346 -0.54860469 0)
(0.63236731 -0.54083354 0)
(0.61870215 -0.53306052 0)
(0.60530995 -0.52529299 0)
(0.59219251 -0.51753805 0)
(0.57935143 -0.50980242 0)
(0.56678812 -0.50209255 0)
(0.55450387 -0.49441453 0)
(0.54249981 -0.4867741 0)
(0.53077704 -0.47917669 0)
(0.51933658 -0.47162735 0)
(0.50817937 -0.46413081 0)
(0.49730586 -0.45669146 0)
(0.48671659 -0.44931337 0)
(1.234034 -0.72206637 0)
(1.2138885 -0.71902787 0)
(1.1937568 -0.71572304 0)
(1.1736549 -0.71215801 0)
(1.153597 -0.70833894 0)
(1.1335978 -0.70427224 0)
(1.1136715 -0.69996465 0)
(1.0938322 -0.69542325 0)
(1.0740933 -0.69065543 0)
(1.0544676 -0.6856689 0)
(1.0349676 -0.68047164 0)
(1.0156053 -0.67507188 0)
(0.99639205 -0.6694781 0)
(0.97733878 -0.66369899 0)
(0.95845586 -0.65774342 0)
(0.93975315 -0.65162043 0)
(0.92123998 -0.64533919 0)
(0.90292514 -0.63890898 0)
(0.8848169 -0.63233915 0)
(0.86692304 -0.62563915 0)
(0.84925081 -0.61881841 0)
(0.831807 -0.61188641 0)
(0.81459789 -0.60485258 0)
(0.79762931 -0.59772632 0)
(0.78090668 -0.59051695 0)
(0.76443495 -0.58323371 0)
(0.74821869 -0.57588572 0)
(0.73226208 -0.56848194 0)
(0.71656894 -0.56103119 0)
(0.70114276 -0.55354209 0)
(0.68598669 -0.54602306 0)
(0.6711036 -0.5384823 0)
(0.65649607 -0.53092774 0)
(0.64216643 -0.52336709 0)
(0.62811676 -0.51580774 0)
(0.61434894 -0.50825681 0)
(0.60086461 -0.50072113 0)
(0.58766524 -0.49320718 0)
(0.57475212 -0.48572114 0)
(0.56212638 -0.47826885 0)
(0.54978905 -0.47085582 0)
(0.53774105 -0.46348721 0)
(0.52598329 -0.45616785 0)
(0.51451656 -0.44890223 0)
(0.50334118 -0.44169448 0)
(0.49245754 -0.43454846 0)
(1.2615985 -0.70139506 0)
(1.2407395 -0.69832122 0)
(1.2199051 -0.69499265 0)
(1.1991107 -0.69141546 0)
(1.1783707 -0.68759567 0)
(1.1577 -0.68353939 0)
(1.137113 -0.6792531 0)
(1.1166235 -0.67474361 0)
(1.0962449 -0.67001804 0)
(1.0759902 -0.66508382 0)
(1.0558718 -0.65994865 0)
(1.0359016 -0.65462049 0)
(1.0160911 -0.64910753 0)
(0.99645116 -0.64341815 0)
(0.97699208 -0.63756096 0)
(0.9577237 -0.63154468 0)
(0.93865533 -0.62537819 0)
(0.91979571 -0.61907049 0)
(0.90115309 -0.61263063 0)
(0.88273517 -0.60606775 0)
(0.86454917 -0.59939101 0)
(0.84660178 -0.59260956 0)
(0.82889924 -0.58573257 0)
(0.81144731 -0.57876914 0)
(0.79425129 -0.5717283 0)
(0.77731608 -0.564619 0)
(0.76064613 -0.55745008 0)
(0.74424555 -0.55023022 0)
(0.72811804 -0.54296797 0)
(0.71226697 -0.53567166 0)
(0.69669539 -0.52834945 0)
(0.68140606 -0.52100927 0)
(0.66640142 -0.51365879 0)
(0.65168369 -0.50630546 0)
(0.63725482 -0.49895641 0)
(0.62311654 -0.49161852 0)
(0.60927038 -0.48429834 0)
(0.59571767 -0.47700214 0)
(0.58245956 -0.46973584 0)
(0.56949704 -0.46250504 0)
(0.556831 -0.45531501 0)
(0.54446222 -0.44817067 0)
(0.53239146 -0.44107664 0)
(0.52061939 -0.43403714 0)
(0.50914616 -0.42705612 0)
(0.49797203 -0.42013716 0)
(1.2885594 -0.68103848 0)
(1.2669952 -0.67793667 0)
(1.245467 -0.67459201 0)
(1.2239888 -0.67101009 0)
(1.2025757 -0.66719655 0)
(1.1812426 -0.66315723 0)
(1.1600038 -0.65889836 0)
(1.1388731 -0.65442648 0)
(1.1178641 -0.64974846 0)
(1.0969896 -0.64487144 0)
(1.0762619 -0.63980287 0)
(1.0556931 -0.63455041 0)
(1.0352945 -0.62912197 0)
(1.0150769 -0.62352567 0)
(0.99505076 -0.6177698 0)
(0.97522573 -0.61186282 0)
(0.9556111 -0.60581332 0)
(0.9362156 -0.59962999 0)
(0.91704739 -0.59332161 0)
(0.89811413 -0.58689703 0)
(0.87942297 -0.58036511 0)
(0.86098054 -0.57373473 0)
(0.84279299 -0.56701477 0)
(0.82486601 -0.56021404 0)
(0.80720483 -0.55334131 0)
(0.78981422 -0.54640523 0)
(0.77269857 -0.53941437 0)
(0.75586185 -0.53237716 0)
(0.73930768 -0.52530185 0)
(0.72303932 -0.51819652 0)
(0.70705969 -0.51106908 0)
(0.69137142 -0.50392718 0)
(0.67597685 -0.49677826 0)
(0.66087805 -0.4896295 0)
(0.64607686 -0.4824878 0)
(0.63157487 -0.47535978 0)
(0.61737346 -0.46825176 0)
(0.60347384 -0.46116977 0)
(0.589877 -0.4541195 0)
(0.57658381 -0.44710631 0)
(0.56359499 -0.44013526 0)
(0.55091121 -0.43321103 0)
(0.53853306 -0.42633801 0)
(0.52646108 -0.41952022 0)
(0.51469528 -0.41276136 0)
(0.50323577 -0.40606483 0)
(1.3371073 -0.66385495 0)
(1.3148182 -0.66096937 0)
(1.2925604 -0.65784764 0)
(1.2703491 -0.65449478 0)
(1.2481985 -0.65091569 0)
(1.2261238 -0.64711553 0)
(1.2041399 -0.64309993 0)
(1.1822609 -0.63887482 0)
(1.1605008 -0.63444651 0)
(1.1388729 -0.62982159 0)
(1.1173901 -0.62500695 0)
(1.0960648 -0.62000974 0)
(1.0749087 -0.61483737 0)
(1.0539334 -0.60949746 0)
(1.0331495 -0.60399787 0)
(1.0125674 -0.59834659 0)
(0.99219685 -0.59255181 0)
(0.97204696 -0.58662182 0)
(0.95212643 -0.58056506 0)
(0.93244338 -0.57439 0)
(0.9130054 -0.56810522 0)
(0.89381956 -0.56171929 0)
(0.87489243 -0.55524084 0)
(0.85623008 -0.54867843 0)
(0.83783811 -0.54204063 0)
(0.81972165 -0.53533592 0)
(0.80188539 -0.52857269 0)
(0.78433362 -0.52175924 0)
(0.7670702 -0.51490373 0)
(0.75009863 -0.50801416 0)
(0.73342206 -0.50109836 0)
(0.7170433 -0.49416397 0)
(0.70096485 -0.48721841 0)
(0.68518892 -0.48026886 0)
(0.66971746 -0.47332226 0)
(0.65455216 -0.46638528 0)
(0.63969449 -0.4594643 0)
(0.62514568 -0.45256542 0)
(0.6109068 -0.44569443 0)
(0.59697872 -0.43885679 0)
(0.58336213 -0.43205766 0)
(0.57005764 -0.42530186 0)
(0.55706575 -0.41859387 0)
(0.54438691 -0.41193785 0)
(0.53202153 -0.40533762 0)
(0.51996946 -0.39879666 0)
(0.50823068 -0.39231816 0)
(1.3632745 -0.64407289 0)
(1.3402944 -0.64116544 0)
(1.3173563 -0.63803288 0)
(1.2944754 -0.63467995 0)
(1.2716663 -0.63111124 0)
(1.2489439 -0.62733169 0)
(1.2263229 -0.62334663 0)
(1.2038177 -0.61916176 0)
(1.1814418 -0.61478309 0)
(1.1592087 -0.61021696 0)
(1.1371313 -0.60546999 0)
(1.1152217 -0.60054908 0)
(1.0934918 -0.59546134 0)
(1.071953 -0.59021415 0)
(1.050616 -0.58481506 0)
(1.029491 -0.57927182 0)
(1.0085877 -0.57359232 0)
(0.98791523 -0.5677846 0)
(0.96748222 -0.56185678 0)
(0.9472967 -0.5558171 0)
(0.92736621 -0.54967384 0)
(0.90769773 -0.54343531 0)
(0.88829776 -0.53710985 0)
(0.86917229 -0.53070577 0)
(0.85032683 -0.52423136 0)
(0.8317664 -0.51769484 0)
(0.81349562 -0.51110433 0)
(0.79551865 -0.50446789 0)
(0.77783926 -0.49779341 0)
(0.76046084 -0.49108864 0)
(0.7433864 -0.48436117 0)
(0.72661865 -0.47761839 0)
(0.71015996 -0.47086747 0)
(0.69401241 -0.46411537 0)
(0.67817781 -0.45736878 0)
(0.66265772 -0.45063415 0)
(0.64745347 -0.44391765 0)
(0.63256617 -0.43722513 0)
(0.61799672 -0.43056218 0)
(0.60374585 -0.42393404 0)
(0.58981413 -0.41734565 0)
(0.576202 -0.41080162 0)
(0.56290981 -0.40430623 0)
(0.54993789 -0.39786344 0)
(0.53728647 -0.39147685 0)
(0.5249553 -0.38514976 0)
(0.51294418 -0.37888514 0)
(1.3885781 -0.62453023 0)
(1.3649228 -0.62161049 0)
(1.3413206 -0.6184758 0)
(1.3177861 -0.61513087 0)
(1.2943343 -0.61158021 0)
(1.2709799 -0.60782852 0)
(1.2477377 -0.60388088 0)
(1.2246217 -0.5997427 0)
(1.2016457 -0.59541977 0)
(1.1788228 -0.59091815 0)
(1.1561659 -0.5862442 0)
(1.1336873 -0.58140453 0)
(1.1113986 -0.57640603 0)
(1.0893111 -0.57125578 0)
(1.0674356 -0.56596109 0)
(1.0457821 -0.5605294 0)
(1.0243604 -0.55496836 0)
(1.0031795 -0.54928573 0)
(0.98224794 -0.54348937 0)
(0.96157369 -0.53758723 0)
(0.9411642 -0.53158733 0)
(0.9210264 -0.52549773 0)
(0.9011667 -0.51932648 0)
(0.88159101 -0.51308164 0)
(0.86230473 -0.50677124 0)
(0.84331281 -0.50040324 0)
(0.82461975 -0.49398551 0)
(0.80622961 -0.48752584 0)
(0.78814606 -0.4810319 0)
(0.77037236 -0.47451117 0)
(0.75291142 -0.46797101 0)
(0.73576581 -0.46141857 0)
(0.71893778 -0.4548608 0)
(0.70242928 -0.44830441 0)
(0.68624198 -0.44175589 0)
(0.67037732 -0.43522145 0)
(0.65483648 -0.42870704 0)
(0.63962042 -0.42221831 0)
(0.62472992 -0.41576063 0)
(0.61016554 -0.40933904 0)
(0.59592773 -0.40295827 0)
(0.58201675 -0.39662274 0)
(0.56843285 -0.39033651 0)
(0.55517616 -0.38410336 0)
(0.5422468 -0.3779267 0)
(0.52964436 -0.37180962 0)
(0.5173685 -0.36575492 0)
(1.4129668 -0.60521643 0)
(1.3886541 -0.60229252 0)
(1.3644056 -0.59916398 0)
(1.3402353 -0.59583511 0)
(1.3161582 -0.59231012 0)
(1.2921893 -0.58859348 0)
(1.2683431 -0.58469003 0)
(1.2446335 -0.58060496 0)
(1.2210743 -0.57634377 0)
(1.1976785 -0.57191229 0)
(1.1744589 -0.56731662 0)
(1.1514276 -0.56256313 0)
(1.1285964 -0.55765841 0)
(1.1059764 -0.55260931 0)
(1.0835783 -0.54742285 0)
(1.0614121 -0.54210623 0)
(1.0394875 -0.53666683 0)
(1.0178134 -0.53111213 0)
(0.99639827 -0.52544974 0)
(0.97525008 -0.51968735 0)
(0.95437618 -0.51383271 0)
(0.93378341 -0.50789361 0)
(0.91347809 -0.50187785 0)
(0.89346604 -0.49579325 0)
(0.87375258 -0.48964755 0)
(0.85434255 -0.48344848 0)
(0.83524036 -0.47720367 0)
(0.81644997 -0.47092065 0)
(0.79797491 -0.46460684 0)
(0.77981835 -0.45826951 0)
(0.76198308 -0.45191577 0)
(0.74447153 -0.44555254 0)
(0.72728583 -0.43918654 0)
(0.7104278 -0.43282428 0)
(0.69389899 -0.426472 0)
(0.67770068 -0.42013572 0)
(0.66183392 -0.41382118 0)
(0.64629953 -0.40753381 0)
(0.63109814 -0.40127878 0)
(0.61623018 -0.39506094 0)
(0.60169592 -0.38888482 0)
(0.58749553 -0.38275464 0)
(0.57362904 -0.3766743 0)
(0.5600965 -0.37064735 0)
(0.54689783 -0.36467704 0)
(0.53403251 -0.35876628 0)
(0.52150006 -0.35291768 0)
(1.4614139 -0.58884498 0)
(1.4364034 -0.58612329 0)
(1.4114528 -0.58320338 0)
(1.3865767 -0.58008911 0)
(1.3617894 -0.57678407 0)
(1.337106 -0.57329211 0)
(1.3125413 -0.56961749 0)
(1.2881097 -0.56576483 0)
(1.263825 -0.56173906 0)
(1.2397007 -0.55754547 0)
(1.21575 -0.55318962 0)
(1.1919855 -0.54867735 0)
(1.1684192 -0.5440148 0)
(1.1450628 -0.5392083 0)
(1.1219274 -0.53426442 0)
(1.0990236 -0.52918995 0)
(1.0763613 -0.52399183 0)
(1.0539502 -0.51867716 0)
(1.031799 -0.51325318 0)
(1.0099163 -0.50772723 0)
(0.98830988 -0.50210674 0)
(0.96698698 -0.49639922 0)
(0.94595438 -0.49061219 0)
(0.92521834 -0.4847532 0)
(0.90478457 -0.47882981 0)
(0.8846583 -0.47284954 0)
(0.86484429 -0.46681984 0)
(0.84534682 -0.46074811 0)
(0.82616975 -0.45464166 0)
(0.80731651 -0.44850765 0)
(0.78879015 -0.44235312 0)
(0.77059334 -0.43618497 0)
(0.75272838 -0.43000989 0)
(0.73519728 -0.42383437 0)
(0.71800173 -0.41766471 0)
(0.70114314 -0.41150696 0)
(0.68462265 -0.4053669 0)
(0.66844117 -0.39925008 0)
(0.65259939 -0.39316175 0)
(0.63709778 -0.38710686 0)
(0.62193663 -0.38109007 0)
(0.60711609 -0.37511574 0)
(0.59263613 -0.36918789 0)
(0.57849668 -0.36331024 0)
(0.5646976 -0.35748617 0)
(0.5512387 -0.35171875 0)
(0.53811931 -0.34601073 0)
(0.52533879 -0.34036452 0)
(1.4845011 -0.56996396 0)
(1.4588622 -0.56724532 0)
(1.4332936 -0.56433817 0)
(1.4078101 -0.56124604 0)
(1.3824261 -0.55797222 0)
(1.3571564 -0.55452033 0)
(1.3320157 -0.55089442 0)
(1.3070182 -0.54709885 0)
(1.2821777 -0.54313836 0)
(1.2575076 -0.53901796 0)
(1.2330209 -0.53474298 0)
(1.2087301 -0.53031904 0)
(1.1846472 -0.52575199 0)
(1.1607838 -0.52104794 0)
(1.1371509 -0.51621321 0)
(1.1137591 -0.51125432 0)
(1.0906182 -0.50617797 0)
(1.0677376 -0.50099099 0)
(1.0451263 -0.49570038 0)
(1.0227926 -0.49031323 0)
(1.0007442 -0.48483671 0)
(0.97898835 -0.47927807 0)
(0.95753171 -0.4736446 0)
(0.93638043 -0.4679436 0)
(0.91554015 -0.46218236 0)
(0.895016 -0.45636818 0)
(0.87481265 -0.45050826 0)
(0.85493428 -0.44460977 0)
(0.83538463 -0.43867978 0)
(0.81616703 -0.43272523 0)
(0.79728441 -0.42675294 0)
(0.77873931 -0.42076956 0)
(0.76053393 -0.41478157 0)
(0.74267013 -0.40879528 0)
(0.72514948 -0.40281675 0)
(0.70797325 -0.39685183 0)
(0.69114245 -0.39090611 0)
(0.67465785 -0.38498494 0)
(0.65851999 -0.37909336 0)
(0.64272921 -0.37323616 0)
(0.62728564 -0.36741781 0)
(0.61218928 -0.36164247 0)
(0.59743998 -0.355914 0)
(0.58303749 -0.35023594 0)
(0.56898154 -0.34461151 0)
(0.55527179 -0.33904361 0)
(0.54190742 -0.33353482 0)
(0.52888768 -0.32808739 0)