/*--------------------------------*- C++ -*----------------------------------*\
| =========                 |                                                 |
| \\      /  F ield         | OpenFOAM: The Open Source CFD Toolbox           |
|  \\    /   O peration     | Version:  2312                                  |
|   \\  /    A nd           | Website:  www.openfoam.com                      |
|    \\/     M anipulation  |                                                 |
\*---------------------------------------------------------------------------*/
FoamFile
{
    version     2.0;
    format      ascii;
    arch        "LSB;label=32;scalar=64";
    class       volScalarField;
    location    "0.09";
    object      H2O;
}
// * * * * * * * * * * * * * * * * * * * * * * * * * * * * * * * * * * * * * //

dimensions      [0 0 0 0 0 0 0];

internalField   nonuniform List<scalar> 
3224
(
0.0063836752
0.0062402213
0.0061002028
0.0059636334
0.0058305256
0.00570089
0.0055747358
0.0054520712
0.0053329038
0.0052172406
0.0051050882
0.0049964528
0.0048913408
0.0047897581
0.0046917109
0.004597205
0.0045062466
0.0044188418
0.0043349969
0.0042547183
0.0041780125
0.0041048862
0.0040353462
0.0039693995
0.0039070533
0.003848315
0.003793192
0.0037416922
0.0036938234
0.0036495937
0.0036090114
0.003572085
0.0035388233
0.0035092352
0.0034833299
0.0034611168
0.0034426058
0.0034278067
0.0034167292
0.0034093833
0.0034057911
0.0063834792
0.0062400642
0.0061000761
0.0059635327
0.0058304487
0.0057008358
0.0055747034
0.00545206
0.0053329132
0.0052172701
0.0051051375
0.0049965215
0.0048914283
0.0047898642
0.0046918349
0.0045973467
0.0045064054
0.0044190173
0.0043351886
0.0042549256
0.0041782349
0.0041051231
0.004035597
0.0039696637
0.0039073302
0.0038486039
0.0037934923
0.0037420031
0.0036941443
0.0036499238
0.00360935
0.0035724314
0.0035391767
0.0035095948
0.0034836949
0.0034614863
0.003442979
0.0034281828
0.0034171074
0.0034097616
0.0034061514
0.0063829545
0.0062395886
0.0060996396
0.0059631316
0.0058300809
0.0057004998
0.0055743982
0.0054517847
0.005332667
0.0052170523
0.0051049473
0.0049963582
0.0048912913
0.0047897525
0.0046917481
0.0045972838
0.0045063658
0.0044190002
0.0043351932
0.0042549511
0.0041782805
0.0041051879
0.0040356802
0.0039697644
0.0039074475
0.0038487369
0.0037936401
0.0037421647
0.0036943188
0.0036501102
0.0036095473
0.0035726386
0.0035393927
0.0035098186
0.0034839255
0.0034617226
0.0034432199
0.0034284271
0.0034173546
0.0034100108
0.0034063786
0.006382103
0.0062387939
0.0060988921
0.0059624283
0.0058294201
0.0056998799
0.0055738179
0.0054512429
0.0053321626
0.0052165843
0.0051045145
0.0049959598
0.0048909262
0.0047894198
0.0046914466
0.0045970127
0.0045061239
0.0044187865
0.0043350066
0.0042547906
0.004178145
0.0041050763
0.0040355913
0.0039696971
0.0039074006
0.0038487093
0.0037936306
0.0037421721
0.0036943418
0.0036501477
0.0036095981
0.0035727013
0.0035394662
0.0035099015
0.0034840164
0.0034618204
0.0034433231
0.0034285344
0.0034174652
0.0034101248
0.0034064728
0.0065275677
0.0063809386
0.0062376811
0.0060978337
0.005961423
0.0058284661
0.0056989758
0.0055729621
0.0054504341
0.0053313995
0.0052158655
0.0051038387
0.0049953257
0.0048903325
0.0047888653
0.0046909299
0.0045965325
0.0045056789
0.0044183754
0.0043346281
0.0042544432
0.0041778274
0.0041047871
0.0040353292
0.0039694606
0.0039071884
0.0038485199
0.0037934626
0.0037420241
0.0036942123
0.0036500352
0.003609501
0.0035726183
0.0035393957
0.003509842
0.0034839664
0.0034617783
0.0034432872
0.0034285033
0.0034174375
0.0034101013
0.0034064344
0.0065261418
0.0063795356
0.0062363324
0.0060965436
0.0059601913
0.0058272914
0.0056978564
0.0055718967
0.0054494209
0.0053304371
0.0052149524
0.0051029735
0.0049945067
0.0048895584
0.0047881344
0.0046902409
0.0045958837
0.004505069
0.0044178027
0.0043340912
0.0042539406
0.0041773574
0.0041043483
0.00403492
0.0039690795
0.0039068337
0.0038481901
0.003793156
0.0037417392
0.0036939475
0.0036497888
0.0036092715
0.003572404
0.0035391949
0.0035096531
0.0034837877
0.003461608
0.0034431237
0.0034283448
0.0034172825
0.0034099506
0.003406274
0.0065244901
0.0063779391
0.0062347956
0.0060950697
0.00595878
0.0058259415
0.0056965665
0.005570665
0.0054482459
0.0053293171
0.0052138856
0.0051019584
0.0049935416
0.0048886416
0.0047872644
0.0046894159
0.0045951022
0.0045043292
0.004417103
0.0043334298
0.004253316
0.0041767679
0.0041037922
0.0040343955
0.0039685849
0.0039063674
0.0038477504
0.0037927412
0.0037413475
0.0036935771
0.0036494381
0.0036089387
0.0035720873
0.0035388926
0.0035093634
0.0034835088
0.0034613382
0.003442861
0.0034280872
0.0034170283
0.0034096989
0.0034060167
0.006522498
0.0063760226
0.0062329497
0.0060932961
0.0059570784
0.0058243107
0.0056950048
0.0055691705
0.0054468168
0.0053279513
0.0052125814
0.0051007137
0.0049923546
0.0048875103
0.0047861868
0.0046883901
0.0045941262
0.0045034011
0.0044162209
0.0043325918
0.00425252
0.0041760121
0.0041030745
0.0040337141
0.0039679377
0.0039057525
0.0038471657
0.0037921848
0.0037408175
0.0036930715
0.0036489548
0.0036084758
0.0035716428
0.0035384644
0.0035089495
0.0034831072
0.0034609467
0.0034424777
0.0034277098
0.0034166546
0.0034093269
0.0034056412
0.0066699283
0.0065201588
0.0063737629
0.0062307712
0.0060912003
0.0059550648
0.0058223779
0.0056931508
0.0055673934
0.0054451144
0.0053263214
0.0052110217
0.005099222
0.0049909286
0.0048861478
0.0047848856
0.0046871479
0.0045929408
0.0045022702
0.0044151423
0.0043315632
0.0042515392
0.0041750768
0.0041021825
0.0040328632
0.0039671256
0.003904977
0.0038464245
0.0037914757
0.0037401381
0.0036924196
0.0036483282
0.0036078722
0.0035710598
0.0035378999
0.0035084011
0.0034825727
0.0034604237
0.0034419638
0.0034272026
0.0034161514
0.0034088252
0.0034051373
0.0066671405
0.0065174405
0.0063711341
0.0062282354
0.0060887583
0.005952716
0.0058201206
0.0056909831
0.0055653128
0.0054431184
0.0053244076
0.0052091874
0.0050974647
0.0049892458
0.0048845368
0.0047833438
0.0046856729
0.0045915299
0.0045009209
0.004413852
0.0043303293
0.0042503592
0.0041739481
0.0041011026
0.0040318295
0.0039661356
0.0039040281
0.0038455142
0.0037906013
0.0037392972
0.0036916096
0.0036475466
0.0036071163
0.0035703272
0.003537188
0.0035077073
0.0034818943
0.0034597582
0.0034413085
0.0034265548
0.0034155082
0.0034081834
0.0034044943
0.006816952
0.0066639194
0.0065143125
0.0063681088
0.0062253159
0.0060859449
0.0059500077
0.0058175155
0.0056884786
0.0055629065
0.0054408074
0.005322189
0.0052070584
0.0050954223
0.004987287
0.0048826588
0.0047815436
0.0046839476
0.0045898766
0.0044993366
0.0044123339
0.0043288745
0.0042489648
0.0041726112
0.0040998203
0.0040305989
0.0039649538
0.0039028923
0.0038444215
0.0037895489
0.0037382821
0.003690629
0.0036465976
0.0036061961
0.003569433
0.0035363167
0.0035068562
0.0034810605
0.0034589388
0.0034405004
0.0034257551
0.0034147138
0.0034073904
0.003403701
0.0068131444
0.0066602361
0.0065107437
0.0063646584
0.0062219851
0.0060827335
0.005946914
0.0058145374
0.0056856134
0.0055601511
0.0054381586
0.0053196437
0.0052046132
0.005093074
0.0049850322
0.0048804942
0.004779466
0.0046819536
0.0045879629
0.0044975001
0.0044105711
0.0043271823
0.0042473399
0.0041710503
0.0040983202
0.0040291564
0.0039635657
0.0039015552
0.0038431324
0.0037883045
0.0037370793
0.0036894645
0.0036454683
0.0036050987
0.0035683643
0.0035352736
0.0035058355
0.0034800589
0.0034579532
0.0034395275
0.0034247915
0.0034137561
0.0034064346
0.0034027453
0.0069649985
0.0068088271
0.0066560603
0.0065067026
0.0063607522
0.0062182138
0.0060790958
0.005943408
0.0058111602
0.005682362
0.005557022
0.0054351483
0.0053167485
0.0052018295
0.005090398
0.0049824603
0.0048780226
0.0047770911
0.0046796715
0.0045857701
0.0044953928
0.0044085458
0.0043252352
0.0042454674
0.0041692489
0.0040965862
0.0040274861
0.0039619557
0.0039000019
0.003841632
0.0037868537
0.0037356744
0.003688102
0.0036441447
0.0036038105
0.0035671079
0.0035340455
0.0035046321
0.0034788767
0.0034567885
0.0034383769
0.0034236513
0.0034126225
0.0034053035
0.0034016147
0.006959967
0.0068039652
0.0066513593
0.0065021564
0.0063563587
0.0062139714
0.0060750025
0.005939461
0.0058073563
0.0056786976
0.0055534933
0.0054317513
0.0053134791
0.0051986836
0.0050873715
0.004979549
0.0048752224
0.0047743977
0.004677081
0.0045832783
0.0044929956
0.0044062391
0.004323015
0.0042433296
0.0041671895
0.0040946012
0.0040255716
0.0039601075
0.0038982162
0.0038399049
0.0037851811
0.0037340525
0.0036865269
0.0036426123
0.0036023171
0.0035656495
0.0035326182
0.0035032321
0.0034775001
0.0034554314
0.0034370353
0.0034223212
0.0034112999
0.0034039837
0.003400296
0.0071135274
0.006954337
0.0067985235
0.0066460987
0.0064970708
0.0063514445
0.0062092258
0.0060704223
0.005935043
0.0058030966
0.0056745921
0.0055495377
0.0054279412
0.0053098099
0.0051951508
0.0050839703
0.0049762749
0.0048720708
0.004771364
0.0046741606
0.0045804666
0.0044902881
0.0044036313
0.0043205024
0.0042409078
0.0041648539
0.0040923475
0.0040233953
0.0039580043
0.0038961816
0.0038379346
0.0037832708
0.0037321978
0.0036847235
0.003640856
0.0036006035
0.0035639744
0.0035309774
0.0035016212
0.0034759148
0.0034538675
0.0034354885
0.0034207872
0.0034097743
0.0034024616
0.0033987753
0.00710704
0.006948068
0.0067924644
0.0066402421
0.0064914101
0.0063459749
0.0062039432
0.0060653229
0.0059301225
0.0057983508
0.0056700162
0.0055451269
0.0054236904
0.0053057141
0.0051912049
0.0050801692
0.0049726135
0.0048685439
0.0047679666
0.0046708877
0.0045773131
0.004487249
0.0044007016
0.0043176772
0.0042381821
0.0041622229
0.0040898062
0.0040209389
0.0039556279
0.0038938805
0.003835704
0.0037811058
0.0037300938
0.0036826758
0.0036388597
0.003598654
0.0035620671
0.0035291075
0.003499784
0.0034741058
0.0034520819
0.0034337217
0.0034190345
0.003408031
0.0034007226
0.003397038
0.0072619374
0.0070998519
0.0069411198
0.0067857488
0.0066337513
0.006485137
0.0063399135
0.0061980886
0.0060596702
0.0059246668
0.005793087
0.005664939
0.0055402308
0.0054189699
0.0053011636
0.0051868187
0.0050759417
0.0049685391
0.004864617
0.0047641815
0.0046672388
0.0045737949
0.0044838561
0.0043974284
0.0043145182
0.004235132
0.0041592762
0.0040869577
0.0040181831
0.0039529597
0.0038912945
0.003833195
0.0037786686
0.0037277231
0.0036803664
0.0036366067
0.0035964521
0.0035599111
0.0035269924
0.0034977048
0.0034720574
0.0034500591
0.0034317195
0.0034170479
0.0034060548
0.0033987513
0.0033950689
0.0072537295
0.0070919165
0.0069334498
0.0067783356
0.0066265863
0.0064782123
0.0063332224
0.0061916251
0.0060534285
0.0059186413
0.0057872718
0.0056593281
0.0055348181
0.0054137494
0.005296129
0.0051819637
0.0050712602
0.0049640248
0.0048602637
0.0047599832
0.0046631893
0.0045698881
0.0044800859
0.0043937889
0.0043110034
0.0042317359
0.004155993
0.0040837814
0.004015108
0.0039499799
0.0038884044
0.0038303887
0.0037759405
0.0037250676
0.0036777778
0.0036340793
0.0035939804
0.0035574895
0.0035246154
0.0034953669
0.0034697529
0.0034477827
0.0034294656
0.0034148111
0.0034038296
0.0033965318
0.0033928519
0.0072446897
0.0070831877
0.006925014
0.0067701819
0.0066187053
0.0064705955
0.0063258622
0.0061845145
0.006046561
0.0059120102
0.0057808704
0.0056531499
0.0055288564
0.0054079972
0.0052905795
0.0051766102
0.0050660958
0.0049590426
0.004855457
0.0047553452
0.0046587134
0.0045655676
0.0044759142
0.0043897594
0.0043071095
0.0042279712
0.0041523511
0.0040802559
0.0040116925
0.0039466681
0.00388519
0.0038272655
0.0037729024
0.0037221082
0.0036748912
0.0036312593
0.0035912209
0.0035547845
0.0035219589
0.0034927528
0.0034671753
0.0034452357
0.0034269432
0.0034123074
0.0034013386
0.0033940475
0.0033903706
0.0072347801
0.0070736198
0.0069157664
0.0067612429
0.0066100648
0.0064622442
0.0063177918
0.006176717
0.0060390289
0.005904736
0.0057738468
0.0056463694
0.0055223115
0.0054016804
0.0052844834
0.0051707271
0.0050604183
0.0049535633
0.0048501685
0.0047502401
0.0046537843
0.0045608073
0.0044713155
0.0043853151
0.0043028126
0.0042238146
0.0041483277
0.0040763587
0.0040079148
0.0039430029
0.0038816305
0.003823805
0.003769534
0.0037188254
0.0036716871
0.0036281275
0.0035881548
0.0035517775
0.0035190044
0.0034898445
0.0034643066
0.0034424002
0.0034241346
0.0034095192
0.0033985646
0.0033912809
0.0033876074
0.007388036
0.0072239687
0.007063166
0.0069056598
0.0067514723
0.0066006196
0.0064531146
0.0063089686
0.0061681913
0.0060307922
0.0058967801
0.0057661633
0.0056389501
0.0055151481
0.0053947648
0.0052778072
0.0051642823
0.0050541966
0.0049475565
0.0048443686
0.0047446391
0.0046483741
0.0045555802
0.0044662634
0.0043804304
0.0042980875
0.0042192414
0.0041438989
0.0040720667
0.0040037521
0.0039389621
0.0038777041
0.0038199856
0.0037658145
0.0037151984
0.0036681455
0.0036246641
0.0035847624
0.0035484492
0.0035157331
0.0034866231
0.0034611282
0.0034392579
0.0034210214
0.0034064284
0.0033954893
0.003388214
0.0033845445
0.0073758713
0.0072121923
0.0070517747
0.0068946444
0.0067408218
0.0065903229
0.0064431613
0.0062993483
0.0061588945
0.0060218095
0.0058881021
0.005757781
0.0056308543
0.0055073298
0.0053872149
0.0052705168
0.0051572423
0.0050473981
0.0049409908
0.0048380268
0.0047385124
0.0046424541
0.004549858
0.0044607307
0.0043750787
0.0042929084
0.0042142266
0.00413904
0.0040673558
0.0039991808
0.0039345225
0.0038733882
0.0038157855
0.0037617221
0.0037112061
0.0036642455
0.0036208485
0.0035810237
0.0035447796
0.0035121251
0.0034830691
0.0034576208
0.0034357895
0.0034175847
0.003403016
0.0033920939
0.0033848282
0.0033811631
0.0076989377
0.0075291517
0.0073626525
0.0071993938
0.0070393923
0.0068826687
0.0067292415
0.0065791264
0.0064323371
0.0062888856
0.0061487825
0.0060120378
0.0058786606
0.0057486596
0.005622043
0.0054988186
0.005378994
0.0052625764
0.0051495726
0.0050399895
0.0049338336
0.0048311115
0.0047318295
0.0046359942
0.0045436118
0.004454689
0.0043692323
0.0042872483
0.0042087438
0.0041337256
0.0040622009
0.0039941767
0.0039296604
0.0038686595
0.0038111816
0.0037572346
0.0037068264
0.0036599653
0.0036166595
0.0035769175
0.0035407481
0.00350816
0.0034791624
0.0034537644
0.0034319754
0.0034138049
0.0033992626
0.0033883592
0.003381104
0.0033774438
0.0078560934
0.0076836246
0.0075143506
0.0073483149
0.0071855146
0.0070259635
0.0068696795
0.0067166798
0.00656698
0.0064205937
0.0062775333
0.0061378097
0.006001433
0.0058684127
0.0057387575
0.0056124759
0.0054895756
0.0053700644
0.0052539494
0.0051412377
0.0050319361
0.0049260514
0.0048235901
0.0047245587
0.0046289637
0.0045368117
0.0044481093
0.004362863
0.0042810797
0.0042027661
0.0041279293
0.0040565763
0.0039887145
0.0039243512
0.0038634939
0.0038061505
0.0037523287
0.0037020367
0.0036552827
0.003612075
0.0035724223
0.0035363333
0.0035038169
0.0034748822
0.0034495385
0.0034277951
0.0034096617
0.0033951482
0.003384265
0.0033770215
0.0033733669
0.007838974
0.0076670544
0.0074983205
0.0073327966
0.0071704951
0.0070114312
0.0068556219
0.0067030838
0.0065538324
0.0064078814
0.0062652432
0.0061259293
0.0059899498
0.0058573145
0.0057280323
0.0056021118
0.0054795608
0.0053603871
0.0052445982
0.005132201
0.0050232026
0.0049176097
0.0048154291
0.0047166673
0.004621331
0.0045294269
0.0044409615
0.0043559416
0.0042743741
0.0041962659
0.0041216241
0.0040504558
0.0039827685
0.0039185696
0.0038578668
0.0038006679
0.0037469808
0.0036968136
0.0036501748
0.0036070727
0.003567516
0.0035315135
0.0034990742
0.0034702072
0.0034449219
0.0034232278
0.0034051345
0.003390652
0.0033797908
0.0033725603
0.0033689119
0.007820482
0.0076491587
0.0074810036
0.0073160363
0.0071542751
0.0069957373
0.0068404398
0.0066883993
0.0065396311
0.0063941492
0.0062519661
0.0061130935
0.0059775419
0.0058453212
0.0057164405
0.0055909084
0.0054687332
0.0053499226
0.0052344842
0.0051224252
0.0050137526
0.0049084734
0.0048065944
0.0047081223
0.0046130639
0.0045214258
0.004433215
0.0043484382
0.0042671025
0.0041892148
0.0041147823
0.0040438124
0.0039763124
0.00391229
0.003851753
0.0037947091
0.0037411666
0.0036911335
0.0036446183
0.0036016295
0.0035621759
0.0035262662
0.0034939097
0.0034651155
0.0034398931
0.003418252
0.0034002019
0.003385753
0.0033749158
0.0033676995
0.003364058
0.0078005534
0.0076298714
0.0074623381
0.0072979718
0.0071367937
0.0069788226
0.0068240761
0.006672571
0.0065243227
0.0063793453
0.0062376516
0.0060992536
0.005964162
0.0058323868
0.0057039375
0.0055788228
0.0054570511
0.0053386304
0.0052235683
0.0051118722
0.0050035492
0.0048986066
0.0047970511
0.0046988897
0.0046041292
0.0045127766
0.0044248387
0.0043403226
0.0042592352
0.0041815839
0.0041073758
0.0040366184
0.0039693193
0.0039054861
0.0038451266
0.003788249
0.0037348613
0.0036849719
0.0036385893
0.003595722
0.0035563788
0.0035205689
0.0034883012
0.0034595851
0.0034344302
0.003412846
0.0033948425
0.0033804298
0.0033696186
0.0033624179
0.0033587839
0.0077791205
0.0076091259
0.0074422597
0.0072785399
0.0071179891
0.0069606274
0.006806473
0.0066555429
0.0065078528
0.0063634171
0.0062222489
0.0060843603
0.0059497622
0.0058184651
0.0056904785
0.0055658114
0.0054444723
0.0053264695
0.0052118106
0.0051005033
0.004992555
0.0048879728
0.0047867638
0.0046889351
0.0045944937
0.0045034467
0.004415801
0.0043315638
0.0042507424
0.004173344
0.0040993761
0.0040288461
0.0039617619
0.0038981311
0.0038379618
0.0037812621
0.0037280401
0.0036783045
0.0036320637
0.0035893264
0.0035501016
0.0035143983
0.0034822258
0.0034535935
0.0034285109
0.0034069879
0.0033890345
0.0033746607
0.0033638776
0.0033566939
0.0033530682
0.0077561138
0.0075868548
0.0074207033
0.007257677
0.0070977994
0.0069410914
0.006787572
0.0066372585
0.0064901669
0.0063463118
0.0062057067
0.0060683638
0.0059342945
0.0058035094
0.0056760182
0.0055518302
0.0054309542
0.0053133985
0.0051991712
0.0050882799
0.0049807322
0.0048765355
0.0047756971
0.0046782241
0.0045841238
0.0044934034
0.00440607
0.0043221311
0.0042415938
0.0041644657
0.0040907544
0.0040204675
0.0039536128
0.0038901984
0.0038302322
0.0037737225
0.0037206778
0.0036711064
0.0036250172
0.0035824189
0.0035433206
0.0035077314
0.0034756607
0.003447118
0.003422113
0.0034006555
0.0033827557
0.0033684239
0.003357671
0.0033505059
0.0033468892
0.0077314633
0.0075629903
0.0073976033
0.0072353194
0.0070761626
0.0069201546
0.0067673148
0.0066176613
0.0064712101
0.0063279762
0.0061879735
0.0060512143
0.0059177105
0.0057874728
0.0056605112
0.0055368354
0.0054164542
0.0052993763
0.0051856099
0.0050751629
0.004968043
0.004864258
0.0047638152
0.004666722
0.0045729858
0.004482614
0.004395614
0.0043119932
0.0042317592
0.0041549196
0.004081482
0.0040114545
0.0039448448
0.0038816611
0.0038219117
0.0037656048
0.003712749
0.003663353
0.0036174256
0.0035749756
0.0035360124
0.003500545
0.0034685831
0.0034401361
0.003415214
0.0033938267
0.0033759844
0.0033616976
0.0033509773
0.0033438323
0.0033402254
0.0077050989
0.0075374649
0.0073728942
0.0072114034
0.0070530169
0.006897757
0.0067456436
0.0065966951
0.006450928
0.0063083577
0.0061689982
0.0060328624
0.0058999623
0.0057703089
0.0056439126
0.0055207832
0.00540093
0.0052843617
0.0051710869
0.0050611137
0.0049544501
0.0048511039
0.0047510828
0.0046543944
0.0045610463
0.004471046
0.0043844012
0.0043011195
0.0042212086
0.0041446763
0.0040715305
0.0040017792
0.0039354305
0.0038724927
0.0038129741
0.0037568833
0.003704229
0.0036550198
0.0036092647
0.0035669729
0.0035281536
0.0034928162
0.0034609702
0.0034326255
0.0034077919
0.0033864795
0.0033686987
0.0033544601
0.0033437748
0.0033366516
0.0033330554
0.0076769518
0.0075102119
0.0073465116
0.0071858666
0.0070283018
0.0068738399
0.0067225013
0.0065743047
0.0064292672
0.0062874045
0.0061487308
0.0060132594
0.0058810027
0.005751972
0.005626178
0.0055036307
0.0053843398
0.0052683143
0.005155563
0.0050460943
0.0049399164
0.0048370374
0.0047374651
0.0046412075
0.0045482724
0.0044586675
0.0043724006
0.0042894796
0.0042099125
0.0041337071
0.0040608717
0.0039914143
0.0039253432
0.003862667
0.0038033941
0.0037475331
0.003695093
0.0036460826
0.0036005111
0.0035583876
0.0035197215
0.0034845224
0.0034528
0.0034245641
0.0033998248
0.0033785924
0.0033608773
0.0033466903
0.0033360425
0.0033289429
0.0033253583
0.0076469545
0.0074811662
0.0073183923
0.0071586479
0.0070019581
0.0068483459
0.0066978323
0.0065504364
0.0064061756
0.006265066
0.0061271222
0.005992358
0.0058607858
0.0057324176
0.0056072643
0.0054853362
0.0053666433
0.005251195
0.0051390002
0.0050300678
0.0049244061
0.0048220236
0.0047229284
0.0046271286
0.0045346322
0.0044454473
0.004359582
0.0042770443
0.0041978423
0.0041219842
0.0040494784
0.0039803331
0.003914557
0.0038521586
0.0037931466
0.0037375299
0.0036853174
0.0036365182
0.0035911416
0.0035491969
0.0035106938
0.0034756417
0.0034440507
0.0034159307
0.0033912919
0.0033701446
0.0033524996
0.0033383676
0.00332776
0.0033206857
0.0033171135
0.0076150423
0.0074502653
0.007288476
0.0071296888
0.006973929
0.0068212201
0.0066715835
0.0065250385
0.0063816032
0.0062412938
0.0061041257
0.0059701126
0.0058392677
0.0057116031
0.0055871302
0.0054658596
0.0053478017
0.005232966
0.005121362
0.0050129987
0.0049078849
0.0048060293
0.0047074402
0.004612126
0.0045200951
0.0044313558
0.0043459164
0.0042637851
0.0041849704
0.0041094807
0.0040373245
0.0039685104
0.003903047
0.0038409433
0.003782208
0.0037268503
0.0036748792
0.0036263041
0.0035811344
0.0035393795
0.0035010492
0.0034661533
0.0034347018
0.0034067049
0.0033821728
0.0033611162
0.0033435457
0.0033294724
0.0033189077
0.0033118606
0.0033083019
0.007581154
0.0074174499
0.0072567054
0.0070989339
0.0069441611
0.0067924107
0.0066437045
0.0064980624
0.0063555028
0.0062160425
0.0060796969
0.0059464806
0.0058164069
0.0056894884
0.0055657368
0.0054451632
0.0053277782
0.0052135919
0.005102614
0.0049948538
0.0048903204
0.0047890229
0.0046909699
0.0045961702
0.0045046324
0.004416365
0.0043313766
0.0042496758
0.0041712712
0.0040961716
0.0040243855
0.003955922
0.0038907899
0.0038289982
0.003770556
0.0037154725
0.0036637572
0.0036154194
0.0035704688
0.003528915
0.0034907679
0.0034560375
0.0034247339
0.0033968675
0.0033724488
0.0033514883
0.003333997
0.0033199862
0.0033094673
0.0033024494
0.003298905
0.007545233
0.0073826656
0.0072230277
0.0070663322
0.0069126048
0.0067618697
0.0066141491
0.0064694634
0.0063278312
0.0061892699
0.0060537954
0.0059214226
0.0057921653
0.0056660365
0.0055430484
0.0054232124
0.0053065395
0.0051930402
0.0050827246
0.0049756023
0.0048716829
0.0047709757
0.0046734898
0.0045792341
0.0044882176
0.0044004491
0.0043159376
0.0042346919
0.004156721
0.0040820337
0.004010639
0.0039425461
0.0038777641
0.0038163023
0.00375817
0.0037033766
0.0036519316
0.0036038449
0.003559126
0.0035177849
0.0034798316
0.0034452763
0.0034141294
0.0033864012
0.0033621024
0.0033412439
0.0033238368
0.0033098922
0.003299422
0.0032924352
0.0032889063
0.007507229
0.0073458635
0.0071873958
0.0070318381
0.0068792162
0.0067295547
0.0065828762
0.0064392015
0.0062985498
0.0061609388
0.006026385
0.0058949036
0.0057665091
0.0056412147
0.0055190331
0.0053999763
0.0052840556
0.0051712819
0.0050616657
0.0049552172
0.0048519461
0.0047518621
0.0046549748
0.0045612934
0.0044708272
0.0043835854
0.0042995773
0.004218812
0.0041412986
0.0040670466
0.003996065
0.0039283633
0.0038639509
0.0038028372
0.0037450319
0.0036905447
0.0036393852
0.0035915634
0.0035470892
0.0035059728
0.0034682242
0.003433854
0.0034028725
0.0033752905
0.0033511186
0.003330368
0.0033130499
0.0032991756
0.0032887571
0.0032818035
0.0032782911
0.0074670987
0.007307002
0.0071497697
0.006995413
0.006843958
0.0066954296
0.0065498509
0.0064072431
0.006267626
0.0061310176
0.0059974351
0.0058668941
0.0057394095
0.0056149952
0.0054936642
0.005375429
0.0052603014
0.0051482927
0.0050394139
0.0049336754
0.0048310876
0.0047316605
0.004635404
0.0045423278
0.0044524415
0.0043657548
0.004282277
0.0042020178
0.0041249866
0.0040511931
0.0039806467
0.0039133571
0.0038493341
0.0037885873
0.0037311267
0.003676962
0.0036261034
0.0035785608
0.0035343446
0.0034934649
0.0034559323
0.0034217571
0.0033909503
0.0033635224
0.0033394846
0.0033188479
0.0033016238
0.003287824
0.0032774602
0.003270542
0.0032670471
0.0074248081
0.0072660485
0.0071101178
0.0069570265
0.0068068008
0.0066594661
0.0065150459
0.0063735619
0.0062350342
0.0060994818
0.0059669219
0.005837371
0.0057108444
0.0055873565
0.0054669208
0.0053495503
0.0052352573
0.0051240536
0.0050159506
0.0049109593
0.0048090904
0.0047103543
0.0046147614
0.0045223217
0.0044330454
0.0043469423
0.0042640223
0.0041842954
0.0041077713
0.0040344599
0.0039643712
0.0038975151
0.0038339016
0.0037735406
0.0037164424
0.0036626171
0.0036120749
0.0035648261
0.0035208812
0.0034802508
0.0034429453
0.0034089756
0.0033783526
0.0033510871
0.0033271905
0.003306674
0.0032895492
0.0032758278
0.003265522
0.0032586413
0.003255165
0.0073803342
0.0072229809
0.0070684191
0.0069166584
0.0067677253
0.0066216456
0.0064784432
0.0063381404
0.0062007579
0.0060663151
0.0059348299
0.0058063193
0.0056807992
0.0055582845
0.0054387893
0.005322327
0.0052089106
0.0050985524
0.0049912641
0.0048870572
0.0047859431
0.0046879325
0.0045930362
0.0045012649
0.0044126288
0.0043271384
0.0042448039
0.0041656356
0.0040896438
0.0040168386
0.0039472302
0.0038808291
0.0038176454
0.0037576894
0.0037009717
0.0036475025
0.0035972926
0.0035503523
0.0035066924
0.0034663236
0.0034292569
0.003395503
0.0033650731
0.0033379784
0.0033142303
0.0032938402
0.0032768198
0.0032631812
0.0032529365
0.0032460954
0.0032426389
0.0073336669
0.0071777896
0.0070246646
0.0068743004
0.0067267237
0.0065819606
0.0064400358
0.0063009719
0.0061647905
0.0060315113
0.005901153
0.0057737332
0.0056492683
0.0055277738
0.0054092645
0.0052937543
0.0051812566
0.0050717843
0.0049653498
0.004861965
0.0047616417
0.0046643913
0.0045702249
0.0044791536
0.0043911882
0.0043063396
0.0042246184
0.0041460354
0.004070601
0.003998326
0.0039292208
0.0038632962
0.0038005627
0.0037410311
0.0036847119
0.0036316159
0.003581754
0.003535137
0.0034917758
0.0034516813
0.0034148647
0.0033813371
0.0033511099
0.0033241943
0.0033006019
0.0032803445
0.003263434
0.0032498823
0.003239702
0.0032329027
0.003229467
0.0072848112
0.0071304802
0.0069788601
0.0068299583
0.0066838017
0.006540417
0.0063998294
0.0062620622
0.0061271375
0.0059950759
0.0058658967
0.005739618
0.0056162569
0.0054958296
0.0053783514
0.0052638368
0.0051522999
0.0050437541
0.0049382123
0.004835687
0.0047361905
0.0046397347
0.0045463313
0.0044559918
0.0043687276
0.0042845498
0.0042034697
0.0041254983
0.0040506466
0.0039789257
0.0039103464
0.0038449199
0.003782657
0.0037235688
0.0036676662
0.0036149604
0.0035654624
0.0035191834
0.0034761344
0.0034363268
0.0033997719
0.0033664811
0.0033364658
0.0033097377
0.0032863085
0.0032661901
0.0032493946
0.0032359342
0.0032258214
0.0032190661
0.0032156524
0.0072337899
0.0070810756
0.0069310282
0.0067836545
0.0066389814
0.0064970362
0.0063578447
0.0062214313
0.0060878186
0.0059570279
0.0058290793
0.0057039916
0.0055817825
0.0054624688
0.0053460664
0.0052325907
0.0051220562
0.0050144769
0.0049098663
0.0048082375
0.0047096034
0.0046139764
0.0045213688
0.0044317925
0.0043452594
0.0042617812
0.0041813695
0.0041040359
0.0040297918
0.0039586486
0.0038906178
0.0038257106
0.0037639385
0.0037053127
0.0036498447
0.0035975457
0.0035484273
0.0035025008
0.0034597776
0.0034202693
0.0033839875
0.0033509437
0.0033211498
0.0032946174
0.0032713587
0.0032513855
0.0032347102
0.0032213453
0.0032113032
0.0032045942
0.0032012035
0.007180646
0.0070296188
0.0068812117
0.0067354307
0.0065923032
0.0064518574
0.00631412
0.0061791163
0.0060468697
0.0059174022
0.0057907348
0.0056668868
0.0055458768
0.0054277222
0.0053124396
0.005200045
0.0050905536
0.00498398
0.0048803384
0.0047796425
0.0046819056
0.0045871409
0.004495361
0.0044065786
0.004320806
0.0042380555
0.0041583392
0.004081669
0.0040080569
0.0039375147
0.0038700542
0.0038056873
0.0037444256
0.0036862809
0.0036312648
0.0035793892
0.0035306656
0.0034851059
0.0034427217
0.0034035249
0.0033675274
0.0033347408
0.0033051773
0.0032788489
0.0032557677
0.0032359459
0.003219396
0.0032061306
0.0031961624
0.0031895018
0.0031861353
0.0071254453
0.0069761769
0.0068294764
0.0066853508
0.006543829
0.0064049405
0.0062687132
0.0061351733
0.006004345
0.0058762515
0.0057509141
0.0056283532
0.0055085879
0.0053916365
0.0052775162
0.0051662437
0.0050578349
0.004952305
0.0048496689
0.0047499409
0.004653135
0.0045592648
0.0044683438
0.004380385
0.0042954015
0.0042134058
0.0041344107
0.0040584287
0.0039854721
0.0039155534
0.0038486846
0.0037848781
0.0037241459
0.0036665002
0.0036119531
0.0035605166
0.0035122027
0.0034670236
0.0034249913
0.0033861178
0.0033504153
0.0033178958
0.0032885716
0.003262455
0.0032395582
0.0032198937
0.0032034742
0.0031903124
0.0031804211
0.0031738109
0.0031704697
0.0070682786
0.0069208458
0.0067759155
0.0066335046
0.0064936453
0.0063563689
0.0062217048
0.0060896802
0.0059603202
0.0058336488
0.0057096882
0.0055884595
0.0054699825
0.0053542763
0.0052413589
0.0051312476
0.005023959
0.004919509
0.0048179132
0.0047191867
0.0046233439
0.0045303992
0.0044403666
0.0043532598
0.0042690923
0.0041878774
0.0041096284
0.0040343581
0.0039620796
0.0038928056
0.0038265488
0.0037633219
0.0037031374
0.0036460079
0.0035919458
0.0035409636
0.0034930736
0.0034482883
0.00340662
0.0033680811
0.0033326839
0.0033004409
0.0032713644
0.0032454671
0.0032227613
0.0032032599
0.0031869755
0.0031739211
0.0031641097
0.0031575519
0.0031542369
0.0070092707
0.0068637575
0.0067206542
0.0065800108
0.0064418656
0.0063062521
0.0061732007
0.0060427394
0.0059148945
0.0057896904
0.0056671503
0.0055472961
0.0054301483
0.0053157267
0.0052040501
0.0050951366
0.0049890034
0.0048856673
0.0047851445
0.0046874507
0.0045926011
0.0045006107
0.0044114942
0.0043252659
0.0042419398
0.00416153
0.0040840501
0.0040095137
0.0039379342
0.0038693249
0.003803699
0.0037410697
0.0036814499
0.0036248525
0.0035712906
0.0035207768
0.0034733239
0.0034289447
0.0033876518
0.003349458
0.0033143758
0.003282418
0.0032535973
0.0032279262
0.0032054178
0.0031860846
0.0031699399
0.0031569965
0.0031472677
0.0031407642
0.0031374764
0.0070946343
0.0069487018
0.0068050921
0.0066638503
0.0065250185
0.0063886334
0.0062547286
0.0061233348
0.0059944808
0.0058681936
0.0057444982
0.0056234187