/*--------------------------------*- C++ -*----------------------------------*\
| =========                 |                                                 |
| \\      /  F ield         | OpenFOAM: The Open Source CFD Toolbox           |
|  \\    /   O peration     | Version:  2312                                  |
|   \\  /    A nd           | Website:  www.openfoam.com                      |
|    \\/     M anipulation  |                                                 |
\*---------------------------------------------------------------------------*/
FoamFile
{
    version     2.0;
    format      ascii;
    arch        "LSB;label=32;scalar=64";
    class       volScalarField;
    location    "0.09";
    object      N2;
}
// * * * * * * * * * * * * * * * * * * * * * * * * * * * * * * * * * * * * * //

dimensions      [0 0 0 0 0 0 0];

internalField   nonuniform List<scalar> 
3224
(
0.75773522
0.75807708
0.75840851
0.75872966
0.75904064
0.7593416
0.75963264
0.75991392
0.76018556
0.76044769
0.76070043
0.7609439
0.76117822
0.7614035
0.76161985
0.76182738
0.76202618
0.76221635
0.76239798
0.76257116
0.76273598
0.7628925
0.76304081
0.76318096
0.76331303
0.76343707
0.76355313
0.76366127
0.76376154
0.76385396
0.76393857
0.76401542
0.76408452
0.76414589
0.76419955
0.76424552
0.76428379
0.76431438
0.76433728
0.76435247
0.76435998
0.75773541
0.75807713
0.75840847
0.75872956
0.75904049
0.7593414
0.75963241
0.75991366
0.76018527
0.76044737
0.76070008
0.76094352
0.76117781
0.76140307
0.7616194
0.7618269
0.76202568
0.76221583
0.76239745
0.76257061
0.76273541
0.76289191
0.7630402
0.76318034
0.7633124
0.76343642
0.76355248
0.7636606
0.76376086
0.76385327
0.76393788
0.76401471
0.7640838
0.76414517
0.76419883
0.76424479
0.76428306
0.76431365
0.76433655
0.76435174
0.76435927
0.75773623
0.75807779
0.75840903
0.75873004
0.75904091
0.75934175
0.75963271
0.7599139
0.76018546
0.76044751
0.76070018
0.76094358
0.76117783
0.76140305
0.76161934
0.76182681
0.76202556
0.76221568
0.76239726
0.7625704
0.76273517
0.76289165
0.76303992
0.76318003
0.76331207
0.76343607
0.76355211
0.76366022
0.76376046
0.76385285
0.76393745
0.76401427
0.76408335
0.76414471
0.76419836
0.76424432
0.76428259
0.76431317
0.76433606
0.76435125
0.76435881
0.75773767
0.75807905
0.75841019
0.7587311
0.75904188
0.75934265
0.75963353
0.75991465
0.76018614
0.76044813
0.76070074
0.76094408
0.76117828
0.76140344
0.76161969
0.76182711
0.76202581
0.76221589
0.76239743
0.76257053
0.76273526
0.76289171
0.76303994
0.76318003
0.76331203
0.76343601
0.76355202
0.76366011
0.76376033
0.76385271
0.76393729
0.7640141
0.76408316
0.76414451
0.76419815
0.7642441
0.76428236
0.76431294
0.76433583
0.76435101
0.7643586
0.75738813
0.75773963
0.75808091
0.75841193
0.75873273
0.75904341
0.75934408
0.75963486
0.7599159
0.76018731
0.76044921
0.76070174
0.76094501
0.76117914
0.76140424
0.76162042
0.76182778
0.76202643
0.76221645
0.76239794
0.76257099
0.76273568
0.76289208
0.76304028
0.76318032
0.76331229
0.76343624
0.76355222
0.76366028
0.76376047
0.76385282
0.76393738
0.76401417
0.76408322
0.76414455
0.76419818
0.76424411
0.76428237
0.76431294
0.76433583
0.76435101
0.76435861
0.75739041
0.75774203
0.75808322
0.75841412
0.7587348
0.75904536
0.75934592
0.7596366
0.75991754
0.76018885
0.76045067
0.76070311
0.7609463
0.76118034
0.76140537
0.76162147
0.76182877
0.76202735
0.76221731
0.76239874
0.76257173
0.76273637
0.76289272
0.76304087
0.76318087
0.7633128
0.76343671
0.76355265
0.76366068
0.76376084
0.76385316
0.7639377
0.76401446
0.76408349
0.76414481
0.76419842
0.76424435
0.76428259
0.76431316
0.76433604
0.76435122
0.76435883
0.75739326
0.7577448
0.75808589
0.75841667
0.75873722
0.75904766
0.7593481
0.75963866
0.75991949
0.76019069
0.76045241
0.76070475
0.76094785
0.76118181
0.76140675
0.76162277
0.76182999
0.7620285
0.76221839
0.76239976
0.76257269
0.76273727
0.76289356
0.76304166
0.76318161
0.76331349
0.76343736
0.76355327
0.76366126
0.76376138
0.76385368
0.76393818
0.76401493
0.76408394
0.76414523
0.76419883
0.76424474
0.76428298
0.76431354
0.76433642
0.76435159
0.76435921
0.75739679
0.75774817
0.75808914
0.75841977
0.75874018
0.75905047
0.75935077
0.7596412
0.75992189
0.76019298
0.76045457
0.76070681
0.76094979
0.76118365
0.76140849
0.76162442
0.76183155
0.76202997
0.76221978
0.76240107
0.76257393
0.76273844
0.76289467
0.76304271
0.76318261
0.76331443
0.76343825
0.76355411
0.76366206
0.76376215
0.76385441
0.76393888
0.7640156
0.76408458
0.76414585
0.76419943
0.76424533
0.76428355
0.76431411
0.76433698
0.76435215
0.76435978
0.75703927
0.75740093
0.75775218
0.758093
0.75842347
0.75874371
0.75905383
0.75935397
0.75964425
0.7599248
0.76019574
0.7604572
0.7607093
0.76095216
0.7611859
0.76141062
0.76162644
0.76183347
0.76203179
0.76222151
0.76240271
0.76257549
0.76273992
0.76289607
0.76304404
0.76318387
0.76331564
0.7634394
0.7635552
0.7636631
0.76376315
0.76385537
0.7639398
0.76401649
0.76408544
0.76414669
0.76420024
0.76424613
0.76428434
0.76431488
0.76433775
0.76435292
0.76436055
0.75704409
0.75740576
0.75775688
0.75809752
0.75842781
0.75874786
0.7590578
0.75935775
0.75964785
0.75992823
0.76019901
0.76046031
0.76071226
0.76095498
0.76118858
0.76141317
0.76162887
0.76183577
0.76203398
0.76222359
0.7624047
0.76257738
0.76274171
0.76289779
0.76304567
0.76318543
0.76331712
0.76344082
0.76355656
0.76366441
0.7637644
0.76385657
0.76394097
0.76401761
0.76408653
0.76414775
0.76420128
0.76424715
0.76428534
0.76431587
0.76433873
0.7643539
0.76436153
0.75667721
0.75704978
0.75741137
0.75776232
0.75810276
0.75843284
0.75875267
0.7590624
0.75936215
0.75965205
0.75993223
0.76020283
0.76046395
0.76071573
0.76095828
0.76119173
0.76141618
0.76163173
0.7618385
0.76203658
0.76222607
0.76240706
0.76257963
0.76274386
0.76289984
0.76304763
0.7631873
0.76331892
0.76344254
0.76355821
0.763666
0.76376593
0.76385805
0.76394239
0.764019
0.76408788
0.76414907
0.76420257
0.76424841
0.76428658
0.7643171
0.76433996
0.76435513
0.76436276
0.75668402
0.7570564
0.75741783
0.75776856
0.75810878
0.75843861
0.7587582
0.75906769
0.75936721
0.75965689
0.75993685
0.76020724
0.76046816
0.76071975
0.76096212
0.76119539
0.76141966
0.76163506
0.76184168
0.76203961
0.76222896
0.76240982
0.76258227
0.76274638
0.76290225
0.76304994
0.76318952
0.76332104
0.76344458
0.76356018
0.76366789
0.76376775
0.76385981
0.76394411
0.76402066
0.7640895
0.76415065
0.76420412
0.76424993
0.76428809
0.76431859
0.76434144
0.76435661
0.76436423
0.75630858
0.75669185
0.75706399
0.75742519
0.75777568
0.75811562
0.75844518
0.75876451
0.75907373
0.75937299
0.75966241
0.75994213
0.76021228
0.76047298
0.76072435
0.76096652
0.76119959
0.76142368
0.76163889
0.76184534
0.76204311
0.76223231
0.76241302
0.76258533
0.76274931
0.76290506
0.76305263
0.7631921
0.76332352
0.76344696
0.76356248
0.76367011
0.7637699
0.76386189
0.76394612
0.76402262
0.76409142
0.76415252
0.76420596
0.76425174
0.76428988
0.76432036
0.7643432
0.76435836
0.76436599
0.75631784
0.75670079
0.75707263
0.75743354
0.75778372
0.75812336
0.75845261
0.75877163
0.75908056
0.75937953
0.75966867
0.75994812
0.76021801
0.76047845
0.76072958
0.76097152
0.76120437
0.76142825
0.76164326
0.76184952
0.76204711
0.76223614
0.76241668
0.76258884
0.76275268
0.76290828
0.76305573
0.76319507
0.76332639
0.76344972
0.76356514
0.76367268
0.76377239
0.76386431
0.76394847
0.76402491
0.76409365
0.76415471
0.76420811
0.76425386
0.76429197
0.76432243
0.76434526
0.76436041
0.76436804
0.75593449
0.75632832
0.75671089
0.75708237
0.75744293
0.75779277
0.75813206
0.75846097
0.75877965
0.75908824
0.75938688
0.75967571
0.75995486
0.76022446
0.76048463
0.76073549
0.76097717
0.76120978
0.76143342
0.76164821
0.76185426
0.76205165
0.76224048
0.76242085
0.76259283
0.76275651
0.76291196
0.76305926
0.76319848
0.76332966
0.76345289
0.76356819
0.76367563
0.76377525
0.76386709
0.76395118
0.76402755
0.76409623
0.76415724
0.76421059
0.7642563
0.76429438
0.76432483
0.76434763
0.76436279
0.76437041
0.75594674
0.7563401
0.75672223
0.75709329
0.75745344
0.75780288
0.75814178
0.75847031
0.75878861
0.75909683
0.75939512
0.7596836
0.75996242
0.76023169
0.76049155
0.76074212
0.76098351
0.76121585
0.76143924
0.76165379
0.76185959
0.76205676
0.76224538
0.76242555
0.76259734
0.76276084
0.76291613
0.76306327
0.76320234
0.76333338
0.76345648
0.76357166
0.76367899
0.76377851
0.76387026
0.76395426
0.76403056
0.76409917
0.76416012
0.76421343
0.7642591
0.76429715
0.76432757
0.76435036
0.76436551
0.76437313
0.75555614
0.75596043
0.75635327
0.75673489
0.75710546
0.75746515
0.75781414
0.7581526
0.7584807
0.75879858
0.7591064
0.75940429
0.75969239
0.75997084
0.76023976
0.76049928
0.76074952
0.7609906
0.76122264
0.76144574
0.76166002
0.76186557
0.76206249
0.76225088
0.76243082
0.76260241
0.76276571
0.76292081
0.76306778
0.76320668
0.76333758
0.76346053
0.76357558
0.76368279
0.7637822
0.76387384
0.76395776
0.76403397
0.76410251
0.7641634
0.76421665
0.76426228
0.76430029
0.76433069
0.76435346
0.76436859
0.76437621
0.75557197
0.75597566
0.75636791
0.75674896
0.75711898
0.75747814
0.75782663
0.7581646
0.75849221
0.75880963
0.759117
0.75941446
0.75970214
0.75998018
0.76024871
0.76050786
0.76075774
0.76099848
0.76123019
0.76145298
0.76166696
0.76187223
0.76206888
0.76225701
0.76243671
0.76260807
0.76277116
0.76292605
0.76307283
0.76321155
0.76334228
0.76346508
0.76357999
0.76368706
0.76378635
0.76387788
0.76396169
0.76403782
0.76410628
0.7641671
0.76422029
0.76426587
0.76430384
0.7643342
0.76435695
0.76437208
0.76437969
0.75558965
0.75599255
0.7563841
0.75676451
0.75713392
0.7574925
0.75784042
0.75817784
0.75850493
0.75882184
0.75912871
0.75942569
0.75971291
0.75999051
0.76025862
0.76051735
0.76076685
0.76100721
0.76123856
0.76146101
0.76167466
0.76187962
0.76207597
0.76226383
0.76244326
0.76261437
0.76277722
0.76293189
0.76307846
0.76321698
0.76334753
0.76347015
0.7635849
0.76369183
0.76379098
0.76388239
0.7639661
0.76404212
0.7641105
0.76417124
0.76422436
0.76426989
0.76430781
0.76433814
0.76436087
0.76437599
0.7643836
0.75560917
0.75601116
0.75640195
0.75678164
0.75715037
0.7575083
0.7578556
0.75819242
0.75851893
0.75883527
0.7591416
0.75943806
0.75972478
0.76000189
0.76026953
0.76052782
0.76077688
0.76101684
0.7612478
0.76146987
0.76168316
0.76188778
0.76208382
0.76227136
0.76245051
0.76262134
0.76278393
0.76293836
0.7630847
0.76322301
0.76335335
0.76347579
0.76359037
0.76369714
0.76379614
0.76388742
0.763971
0.76404692
0.7641152
0.76417586
0.76422891
0.76427437
0.76431225
0.76434255
0.76436525
0.76438035
0.76438795
0.75521817
0.75563046
0.75603158
0.75642154
0.75680044
0.75716842
0.75752564
0.75787225
0.75820841
0.75853429
0.75885002
0.75915575
0.75945163
0.7597378
0.76001438
0.76028151
0.76053932
0.76078791
0.76102742
0.76125795
0.76147962
0.76169253
0.76189677
0.76209246
0.76227967
0.7624585
0.76262903
0.76279134
0.7629455
0.76309159
0.76322967
0.7633598
0.76348203
0.76359642
0.76370302
0.76380186
0.76389299
0.76397644
0.76405224
0.76412042
0.76418098
0.76423396
0.76427936
0.76431718
0.76434744
0.76437011
0.7643852
0.76439279
0.7552423
0.7556537
0.75605391
0.75644298
0.75682102
0.75718818
0.75754462
0.75789047
0.75822591
0.75855109
0.75886614
0.75917123
0.75946649
0.75975206
0.76002806
0.76029464
0.76055191
0.7608
0.76103902
0.76126909
0.76149031
0.7617028
0.76190664
0.76210194
0.76228879
0.76246728
0.76263749
0.76279949
0.76295337
0.76309918
0.76323701
0.7633669
0.76348891
0.7636031
0.7637095
0.76380818
0.76389915
0.76398246
0.76405813
0.76412619
0.76418665
0.76423954
0.76428487
0.76432264
0.76435284
0.76437549
0.76439056
0.76439814
0.75441288
0.7548468
0.75526861
0.75567905
0.75607827
0.75646637
0.75684348
0.75720975
0.75756532
0.75791036
0.758245
0.75856942
0.75888374
0.75918813
0.75948271
0.75976762
0.760043
0.76030898
0.76056567
0.76081321
0.7610517
0.76128127
0.76150201
0.76171404
0.76191745
0.76211233
0.76229879
0.7624769
0.76264676
0.76280843
0.76296199
0.76310751
0.76324506
0.7633747
0.76349647
0.76361043
0.76371664
0.76381512
0.76390592
0.76398907
0.7640646
0.76413254
0.7641929
0.7642457
0.76429094
0.76432865
0.76435881
0.76438142
0.76439646
0.76440404
0.75399966
0.75444397
0.7548765
0.75529727
0.75570664
0.75610477
0.75649182
0.75686792
0.75723322
0.75758786
0.757932
0.75826579
0.75858937
0.7589029
0.75920652
0.75950036
0.75978457
0.76005927
0.76032459
0.76058067
0.76082761
0.76106553
0.76129455
0.76151477
0.7617263
0.76192924
0.76212368
0.76230971
0.76248742
0.76265689
0.7628182
0.76297143
0.76311663
0.76325388
0.76338324
0.76350475
0.76361847
0.76372445
0.76382273
0.76391335
0.76399633
0.76407171
0.76413951
0.76419976
0.76425245
0.76429761
0.76433525
0.76436536
0.76438793
0.76440295
0.76441052
0.75403484
0.75447775
0.75490889
0.75532843
0.75573659
0.75613356
0.75651946
0.75689446
0.7572587
0.75761233
0.7579555
0.75828835
0.75861104
0.7589237
0.75922649
0.75951954
0.75980298
0.76007695
0.76034157
0.76059697
0.76084326
0.76108057
0.761309
0.76152866
0.76173965
0.76194208
0.76213603
0.7623216
0.76249888
0.76266794
0.76282886
0.76298172
0.76312658
0.76326351
0.76339256
0.76351379
0.76362726
0.763733
0.76383106
0.76392147
0.76400427
0.76407949
0.76414715
0.76420726
0.76425985
0.76430492
0.76434248
0.76437253
0.76439506
0.76441006
0.76441761
0.75407307
0.7545144
0.75494405
0.75536221
0.75576906
0.75616474
0.75654941
0.75692322
0.75728632
0.75763885
0.75798096
0.7583128
0.75863451
0.75894624
0.75924813
0.75954032
0.75982293
0.76009611
0.76035997
0.76061464
0.76086024
0.76109688
0.76132467
0.76154373
0.76175414
0.76195602
0.76214945
0.76233453
0.76251133
0.76267995
0.76284045
0.76299292
0.76313741
0.76327399
0.76340271
0.76352365
0.76363683
0.76374231
0.76384013
0.76393033
0.76401294
0.76408798
0.76415548
0.76421545
0.76426792
0.76431289
0.76435037
0.76438035
0.76440284
0.76441781
0.76442535
0.75411442
0.75455406
0.75498211
0.75539876
0.75580415
0.75619844
0.75658178
0.7569543
0.75731617
0.75766751
0.75800848
0.75833923
0.75865989
0.75897062
0.75927154
0.75956279
0.75984452
0.76011684
0.76037988
0.76063377
0.76087861
0.76111454
0.76134165
0.76156005
0.76176984
0.76197113
0.762164
0.76234854
0.76252484
0.76269298
0.76285303
0.76300507
0.76314916
0.76328537
0.76341375
0.76353435
0.76364723
0.76375244
0.76385
0.76393997
0.76402236
0.76409721
0.76416454
0.76422437
0.76427671
0.76432157
0.76435896
0.76438888
0.76441131
0.76442625
0.76443378
0.75415903
0.75459685
0.75502318
0.75543819
0.75584202
0.75623481
0.7566167
0.75698784
0.75734837
0.75769843
0.75803818
0.75836775
0.75868728
0.75899692
0.75929679
0.75958705
0.75986781
0.76013921
0.76040138
0.76065442
0.76089846
0.76113361
0.76135999
0.76157769
0.76178681
0.76198746
0.76217973
0.7623637
0.76253945
0.76270708
0.76286665
0.76301823
0.76316189
0.76329769
0.7634257
0.76354595
0.76365851
0.76376342
0.76386071
0.76395042
0.76403258
0.76410723
0.76417438
0.76423405
0.76428625
0.76433099
0.76436829
0.76439813
0.76442051
0.76443542
0.76444293
0.75420704
0.75464292
0.7550674
0.75548064
0.75588278
0.75627396
0.75665429
0.75702394
0.75738304
0.75773173
0.75807015
0.75839845
0.75871677
0.75902524
0.75932399
0.75961318
0.75989291
0.76016332
0.76042454
0.76067667
0.76091985
0.76115418
0.76137976
0.76159671
0.76180512
0.76200508
0.7621967
0.76238006
0.76255523
0.76272231
0.76288135
0.76303245
0.76317565
0.76331102
0.76343862
0.7635585
0.76367071
0.76377529
0.76387229
0.76396173
0.76404365
0.76411808
0.76418503
0.76424452
0.76429658
0.7643412
0.76437839
0.76440815
0.76443047
0.76444535
0.76445284
0.7542586
0.75469241
0.75511491
0.75552626
0.75592659
0.75631602
0.75669469
0.75706273
0.75742029
0.7577675
0.75810451
0.75843145
0.75874846
0.75905567
0.75935323
0.75964126
0.75991989
0.76018924
0.76044944
0.76070061
0.76094286
0.7611763
0.76140104
0.76161718
0.76182482
0.76202406
0.76221498
0.76239768
0.76257223
0.76273871
0.7628972
0.76304777
0.76319048
0.76332539
0.76345256
0.76357204
0.76368388
0.76378811
0.76388479
0.76397394
0.7640556
0.76412979
0.76419653
0.76425584
0.76430774
0.76435222
0.7643893
0.76441898
0.76444124
0.76445607
0.76446355
0.75431386
0.75474547
0.75516585
0.75557517
0.75597356
0.75636113
0.75673801
0.75710434
0.75746025
0.75780588
0.75814136
0.75846684
0.75878245
0.75908833
0.75938459
0.75967139
0.75994883
0.76021705
0.76047617
0.7607263
0.76096756
0.76120005
0.76142389
0.76163916
0.76184598
0.76204444
0.76223462
0.76241661
0.7625905
0.76275635
0.76291425
0.76306426
0.76320644
0.76334086
0.76346756
0.76358661
0.76369805
0.76380192
0.76389826
0.7639871
0.76406848
0.76414241
0.76420893
0.76426804
0.76431977
0.76436411
0.76440107
0.76443065
0.76445284
0.76446763
0.76447509
0.75437297
0.75480223
0.75522036
0.75562752
0.75602383
0.75640941
0.75678437
0.75714886
0.75750301
0.75784695
0.75818081
0.75850473
0.75881885
0.75912328
0.75941818
0.75970365
0.75997983
0.76024684
0.7605048
0.76075382
0.76099402
0.7612255
0.76144837
0.76166273
0.76186868
0.7620663
0.76225569
0.76243693
0.7626101
0.76277528
0.76293254
0.76308195
0.76322357
0.76335746
0.76348368
0.76360227
0.76371328
0.76381675
0.76391273
0.76400124
0.76408232
0.76415598
0.76422226
0.76428116
0.7643327
0.76437689
0.76441372
0.7644432
0.76446532
0.76448006
0.76448749
0.75443607
0.75486285
0.75527857
0.75568343
0.75607753
0.75646098
0.7568339
0.75719644
0.7575487
0.75789083
0.75822296
0.75854522
0.75885773
0.75916064
0.75945407
0.75973813
0.76001297
0.76027869
0.76053541
0.76078325
0.76102232
0.76125272
0.76147456
0.76168794
0.76189295
0.76208969
0.76227823
0.76245867
0.76263109
0.76279555
0.76295214
0.76310091
0.76324193
0.76337525
0.76350094
0.76361904
0.7637296
0.76383266
0.76392825
0.76401641
0.76409716
0.76417054
0.76423656
0.76429524
0.76434658
0.7643906
0.7644273
0.76445667
0.76447871
0.7644934
0.76450081
0.75450332
0.75492745
0.75534063
0.75574303
0.75613478
0.75651596
0.75688672
0.75724716
0.75759742
0.75793763
0.75826791
0.75858839
0.75889921
0.75920049
0.75949235
0.75977492
0.76004832
0.76031266
0.76056807
0.76081466
0.76105252
0.76128178
0.76150253
0.76171486
0.76191888
0.76211467
0.76230231
0.7624819
0.76265351
0.76281721
0.76297308
0.76312117
0.76326155
0.76339428
0.76351941
0.76363699
0.76374706
0.76384967
0.76394485
0.76403264
0.76411305
0.76418612
0.76425187
0.7643103
0.76436144
0.76440528
0.76444183
0.76447109
0.76449304
0.76450768
0.76451506
0.75457485
0.75499617
0.75540664
0.75580645
0.75619569
0.75657447
0.75694291
0.75730114
0.75764927
0.75798743
0.75831575
0.75863435
0.75894336
0.7592429
0.7595331
0.75981408
0.76008596
0.76034884
0.76060285
0.7608481
0.76108469
0.76131273
0.76153231
0.76174354
0.7619465
0.76214129
0.76232798
0.76250667
0.76267742
0.76284031
0.76299541
0.76314278
0.76328248
0.76341458
0.76353912
0.76365614
0.7637657
0.76386784
0.76396258
0.76404996
0.76413002
0.76420276
0.76426821
0.76432639
0.7643773
0.76442096
0.76445735
0.76448649
0.76450835
0.76452293
0.76453028
0.75465078
0.75506912
0.75547673
0.75587378
0.75626037
0.75663661
0.7570026
0.75735847
0.75770434
0.75804033
0.75836657
0.75868317
0.75899026
0.75928797
0.75957641
0.7598557
0.76012595
0.76038729
0.76063982
0.76088365
0.76111889
0.76134564
0.76156399
0.76177404
0.76197588
0.7621696
0.76235529
0.76253301
0.76270286
0.76286489
0.76301918
0.76316578
0.76330477
0.76343619
0.7635601
0.76367654
0.76378556
0.76388719
0.76398147
0.76406843
0.76414809
0.76422049
0.76428563
0.76434354
0.76439421
0.76443767
0.7644739
0.7645029
0.76452467
0.76453919
0.76454651
0.75473123
0.75514642
0.75555101
0.75594514
0.75632892
0.75670246
0.75706586
0.75741924
0.75776272
0.75809641
0.75842044
0.75873493
0.75903999
0.75933575
0.75962232
0.75989982
0.76016837
0.76042807
0.76067903
0.76092136
0.76115517
0.76138055
0.76159759
0.7618064
0.76200706
0.76219966
0.76238427
0.76256099
0.76272987
0.76289099
0.76304442
0.76319022
0.76332845
0.76345915
0.7635824
0.76369821
0.76380665
0.76390775
0.76400154
0.76408805
0.76416731
0.76423934
0.76430415
0.76436177
0.76441219
0.76445543
0.76449149
0.76452035
0.76454202
0.76455647
0.76456376
0.75481628
0.75522816
0.75562955
0.7560206
0.75640143
0.75677211
0.75713278
0.75748353
0.75782447
0.75815574
0.75847744
0.75878969
0.75909261
0.75938631
0.75967091
0.75994652
0.76021326
0.76047123
0.76072053
0.76096128
0.76119357
0.76141751
0.76163318
0.76184067
0.76204008
0.76223149
0.76241498
0.76259062
0.76275848
0.76291865
0.76307117
0.76321612
0.76335354
0.76348349
0.76360603
0.76372119
0.76382902
0.76392955
0.76402282
0.76410886
0.76418769
0.76425933
0.76432379
0.7643811
0.76443126
0.76447428
0.76451015
0.76453886
0.76456042
0.7645748
0.76458205
0.75490603
0.75531441
0.75571243
0.75610024
0.75647794
0.75684563
0.75720341
0.75755138
0.75788966
0.75821837
0.75853761
0.7588475
0.75914816
0.75943969
0.75972222
0.75999584
0.76026066
0.76051681
0.76076437
0.76100345
0.76123414
0.76145655
0.76167077
0.76187688
0.76207498
0.76226513
0.76244743
0.76262194
0.76278873
0.76294788
0.76309945
0.7632435
0.76338007
0.76350924
0.76363103
0.7637455
0.76385269
0.76395262
0.76404535
0.76413088
0.76420925
0.76428048
0.76434458
0.76440157
0.76445145
0.76449422
0.76452989
0.76455845
0.76457989
0.7645942
0.76460141
0.75500051
0.75540522
0.7557997
0.7561841
0.75655852
0.75692305
0.75727779
0.75762284
0.75795832
0.75828434
0.75860099
0.75890841
0.75920668
0.75949593
0.75977627
0.76004779
0.76031061
0.76056483
0.76081056
0.76104788
0.7612769
0.76149771
0.7617104
0.76191506
0.76211176
0.7623006
0.76248164
0.76265496
0.76282064
0.76297872
0.76312928
0.76327238
0.76340807
0.7635364
0.76365741
0.76377115
0.76387766
0.76397697
0.76406912
0.76415412
0.76423202
0.76430281
0.76436653
0.76442317
0.76447275
0.76451528
0.76455074
0.76457913
0.76460045
0.76461468
0.76462185
0.75509977
0.75550062
0.75589138
0.75627221
0.75664318
0.75700439
0.75735594
0.75769794
0.75803047
0.75835366
0.7586676
0.75897241
0.75926819
0.75955504
0.75983308
0.7601024
0.76036312
0.76061532
0.76085912
0.7610946
0.76132186
0.76154099
0.76175207
0.7619552
0.76215045
0.7623379
0.76251763
0.76268971
0.7628542
0.76301117
0.76316068
0.76330278
0.76343753
0.76356498
0.76368517
0.76379815
0.76390395
0.7640026
0.76409414
0.76417859
0.76425598
0.76432632
0.76438963
0.76444592
0.76449519
0.76453745
0.76457269
0.76460091
0.7646221
0.76463624
0.76464337
0.75520378
0.7556006
0.75598747
0.75636454
0.75673191
0.75708965
0.75743786
0.75777665
0.7581061
0.75842633
0.75873743
0.75903951
0.75933267
0.75961702
0.75989265
0.76015967
0.76041818
0.76066827
0.76091005
0.7611436
0.76136901
0.76158638
0.76179579
0.76199731
0.76219104
0.76237704
0.7625554
0.76272617
0.76288942
0.76304522
0.76319362
0.76333468
0.76346846
0.76359499
0.76371432
0.76382649
0.76393155
0.76402951
0.76412042
0.76420429
0.76428115
0.76435101
0.76441389
0.7644698
0.76451875
0.76456073
0.76459574
0.76462378
0.76464483
0.76465888
0.76466597
0.7553125
0.7557051
0.75608791
0.75646107
0.75682466
0.75717878
0.75752351
0.75785894
0.75818518
0.75850231
0.75881044
0.75910967
0.7594001
0.75968183
0.75995495
0.76021956
0.76047576
0.76072365
0.76096332
0.76119485
0.76141834
0.76163387
0.76184152
0.76204137
0.76223351
0.762418
0.76259491
0.76276432
0.76292628
0.76308086
0.76322811
0.76336808
0.76350083
0.7636264
0.76374484
0.76385617
0.76396045
0.76405769
0.76414793
0.7642312
0.7643075
0.76437687
0.7644393
0.76449482
0.76454342
0.76458511
0.76461988
0.76464773
0.76466864
0.7646826
0.76468964
0.75542585
0.75581405
0.75619261
0.75656169
0.75692136
0.7572717
0.7576128
0.75794474
0.75826763
0.75858154
0.75888658
0.75918284
0.75947042
0.75974941
0.76001992
0.76028202
0.76053583
0.76078141
0.76101888
0.76124831
0.76146979
0.76168341
0.76188923
0.76208734
0.76227782
0.76246074
0.76263615
0.76280414
0.76296475
0.76311805
0.7632641
0.76340294
0.76353462
0.76365919
0.76377669
0.76388715
0.76399062
0.76408711
0.76417666
0.76425929
0.76433502
0.76440386
0.76446583
0.76452094
0.76456918
0.76461057
0.76464508
0.76467273
0.76469349
0.76470735
0.76471434
0.75554368
0.75592729
0.75630145
0.75666629
0.75702188
0.7573683
0.75770562
0.75803394
0.75835334
0.75866391
0.75896573
0.75925891
0.75954353
0.75981969
0.76008747
0.76034698
0.76059828
0.76084148
0.76107667
0.76130391
0.76152331
0.76173493
0.76193886
0.76213516
0.76232392
0.76250519
0.76267905
0.76284556
0.76300478
0.76315676
0.76330155
0.76343921
0.76356979
0.76369332
0.76380984
0.7639194
0.76402202
0.76411773
0.76420656
0.76428853
0.76436366
0.76443196
0.76449345
0.76454813
0.764596
0.76463706
0.76467132
0.76469876
0.76471936
0.76473312
0.76474006
0.7556658
0.75604462
0.75641421
0.75677466
0.75712603
0.75746839
0.75780181
0.75812638
0.75844217
0.75874927
0.75904777
0.75933776
0.75961931
0.75989253
0.7601575
0.7604143
0.76066303
0.76090375
0.76113657
0.76136156
0.76157879
0.76178835
0.76199031
0.76218474
0.76237171
0.76255129
0.76272354
0.76288852
0.76304628
0.76319689
0.76334039
0.76347683
0.76360626
0.76372871
0.76384423
0.76395285
0.76405459
0.76414949
0.76423758
0.76431887
0.76439337
0.76446111
0.7645221
0.76457633
0.76462381
0.76466455
0.76469853
0.76472575
0.7647462
0.76475985
0.76476674
0.75579196
0.75616577
0.75653064
0.75688657
0.75723359
0.75757176
0.75790115
0.75822184
0.75853391
0.75883744
0.75913251
0.75941919
0.75969759
0.75996777
0.76022983
0.76048385
0.76072991
0.76096808
0.76119846
0.76142111
0.76163611
0.76184355
0.76204348
0.76223597
0.7624211
0.76259893
0.76276951
0.76293291
0.76308918
0.76323837
0.76338053
0.76351572
0.76364396
0.7637653
0.76387977
0.76398742
0.76408826
0.76418233
0.76426964
0.76435022
0.76442408
0.76449124
0.76455171
0.76460548
0.76465257
0.76469296
0.76472666
0.76475366
0.76477393
0.76478748
0.76479431
0.75554378
0.75592145
0.75629033
0.75665041
0.75700169
0.75734424
0.75767811
0.75800336
0.75832007
0.75862832
0.75892816
0.7592197
0.759503
0.75977814
0.76004521
0.76030427
0.76055543
0.76079874
0.76103429
0.76126215
0.7614824
0.76169511
0.76190036
0.7620982
0.7622887
0.76247194
0.76264796
0.76281683
0.76297861
0.76313334
0.76328107
0.76342186
0.76355575
0.76368277
0.76380296
0.76391637
0.76402301
0.76412292
0.76421613
0.76430265
0.7643825
0.76445571
0.76452227
0.7645822
0.7646355
0.76468217
0.76472222
0.76475563
0.76478239
0.76480249
0.76481592
0.76482269
0.75530035
0.7556816
0.75605412
0.75641795
0.75677311
0.75711966
0.75745763
0.75778709
0.75810811
0.75842074
0.75872506
0.75902114
0.75930906
0.75958889
0.7598607
0.76012457
0.76038057
0.76062879
0.76086929
0.76110215
0.76132744
0.76154523
0.76175559
0.76195859
0.76215429
0.76234276
0.76252405
0.76269823
0.76286534
0.76302545
0.76317861
0.76332485
0.76346423
0.76359679
0.76372256
0.76384158
0.76395389
0.76405951
0.76415847
0.76425079
0.7643365
0.76441561
0.76448813
0.76455408
0.76461346
0.76466627
0.76471252
0.76475221
0.76478532
0.76481184
0.76483177
0.76484508
0.76485179
0.75506204
0.75544654
0.75582231
0.7561895
0.75654814
0.7568983
0.75724
0.75757331
0.75789828
0.75821497
0.75852345
0.75882377
0.75911601
0.75940024
0.75967652
0.75994493
0.76020554
0.76045842
0.76070364
0.76094127
0.76117139
0.76139405
0.76160933
0.7618173
0.76201801
0.76221153
0.76239791
0.76257723
0.76274952
0.76291485
0.76307326
0.76322481
0.76336953
0.76350747
0.76363867
0.76376316
0.76388099
0.76399218
0.76409675
0.76419474
0.76428616
0.76437104
0.76444939
0.76452121
0.76458654
0.76464536
0.76469768
0.7647435
0.76478281
0.76481562
0.7648419
0.76486164
0.76487483
0.76488149
0.75521652
0.75559514
0.75596525
0.75632697
0.75668033
0.75702539
0.75736218
0.75769075
0.75801116
0.75832346
0.75862771
0.75892398
0.75921232
0.7594928
0.75976549
0.76003045
0.76028775
0.76053745
0.76077963
0.76101436
0.76124168
0.76146168
0.76167442
0.76187995
0.76207834
0.76226964
0.76245391
0.76263122
0.7628016
0.76296511
0.7631218
0.76327171
0.76341489
0.76355137
0.76368119
0.76380439
0.763921
0.76403105
0.76413456
0.76423156
0.76432207
0.76440611
0.76448368
0.76455481
0.76461949
0.76467774
0.76472956
0.76477494
0.76481388
0.76484638
0.76487241
0.76489197
0.76490504
0.76491163
0.75537265
0.75574528
0.75610963
0.7564658
0.75681382
0.75715372
0.75748554
0.75780933
0.75812513
0.758433
0.75873299
0.75902515
0.75930956
0.75958625
0.75985531
0.76011678
0.76037074
0.76061724
0.76085636
0.76108814
0.76131265
0.76152996
0.76174012
0.7619432
0.76213924
0.76232831
0.76251045
0.76268572
0.76285418
0.76301585
0.7631708
0.76331906
0.76346068
0.76359569
0.76372412
0.76384602
0.7639614
0.7640703
0.76417274
0.76426874
0.76435833
0.76444151
0.7645183
0.76458872
0.76465276
0.76471043
0.76476174
0.76480668
0.76484524
0.76487742
0.76490321
0.76492258
0.76493552
0.76494205
0.75552941
0.75589602
0.75625457
0.75660516
0.7569478
0.75728251
0.75760934
0.75792832
0.7582395
0.75854291
0.75883862
0.75912667
0.75940712
0.75968002
0.75994543
0.7602034
0.76045401
0.7606973
0.76093333
0.76116216
0.76138385
0.76159846
0.76180604
0.76200665
0.76220034
0.76238716
0.76256717
0.7627404
0.76290692
0.76306675
0.76321996
0.76336656
0.76350662
0.76364014
0.76376718
0.76388777
0.76400192
0.76410966
0.76421103
0.76430603
0.76439469
0.76447702
0.76455303
0.76462273
0.76468612
0.76474322
0.76479402
0.76483851
0.76487669
0.76490856
0.76493409
0.76495327
0.76496609
0.76497256
0.75568567
0.75604627
0.75639903
0.75674404
0.75708131
0.75741085
0.75773269
0.75804688
0.75835344
0.75865241
0.75894385
0.7592278
0.75950431
0.75977342
0.7600352
0.76028969
0.76053695
0.76077703
0.76100999
0.76123589
0.76145477
0.76166668
0.76187169
0.76206984
0.76226119
0.76244577
0.76262365
0.76279486
0.76295944
0.76311744
0.76326891
0.76341387
0.76355236
0.76368441
0.76381006
0.76392934
0.76404226
0.76414886
0.76424915
0.76434316
0.76443089
0.76451237
0.7645876
0.76465659
0.76471934
0.76477586
0.76482615
0.7648702
0.764908
0.76493955
0.76496483
0.76498383
0.76499652
0.76500292
0.75584016
0.75619482
0.75654184
0.75688133
0.75721327
0.75753769
0.7578546
0.75816404
0.75846603
0.75876062
0.75904783
0.75932772
0.75960033
0.7598657
0.76012389
0.76037493
0.76061889
0.7608558
0.76108573
0.76130871
0.76152481
0.76173407
0.76193654
0.76213226
0.76232129
0.76250366
0.76267943
0.76284863
0.76301131
0.7631675
0.76331725
0.76346058
0.76359753
0.76372813
0.76385241
0.76397039
0.7640821
0.76418756
0.7642868
0.76437982
0.76446664
0.76454727
0.76462173
0.76469001
0.76475213
0.76480808
0.76485787
0.76490148
0.7649389