/*--------------------------------*- C++ -*----------------------------------*\
| =========                 |                                                 |
| \\      /  F ield         | OpenFOAM: The Open Source CFD Toolbox           |
|  \\    /   O peration     | Version:  2312                                  |
|   \\  /    A nd           | Website:  www.openfoam.com                      |
|    \\/     M anipulation  |                                                 |
\*---------------------------------------------------------------------------*/
FoamFile
{
    version     2.0;
    format      ascii;
    arch        "LSB;label=32;scalar=64";
    class       volScalarField;
    location    "0.09";
    object      nut;
}
// * * * * * * * * * * * * * * * * * * * * * * * * * * * * * * * * * * * * * //

dimensions      [0 2 -1 0 0 0 0];

internalField   nonuniform List<scalar> 
3224
(
0.050900026
0.051261094
0.051618031
0.051970462
0.052318012
0.052660315
0.052997015
0.053327769
0.053652244
0.053970119
0.054281083
0.054584838
0.054881097
0.055169584
0.055450034
0.055722195
0.055985826
0.056240695
0.056486583
0.056723283
0.056950594
0.057168331
0.057376313
0.057574374
0.057762354
0.057940102
0.058107478
0.058264347
0.058410586
0.058546077
0.05867071
0.058784382
0.058886999
0.058978469
0.059058712
0.05912765
0.059185211
0.05923133
0.059265938
0.059288978
0.059300547
0.050900165
0.051261227
0.051618134
0.051970537
0.052318061
0.052660341
0.052997019
0.053327752
0.053652206
0.053970061
0.054281006
0.054584742
0.054880983
0.055169452
0.055449885
0.055722029
0.055985644
0.056240497
0.056486371
0.056723057
0.056950355
0.057168079
0.057376049
0.057574099
0.057762068
0.057939807
0.058107173
0.058264034
0.058410265
0.058545749
0.058670376
0.058784043
0.058886654
0.05897812
0.059058359
0.059127294
0.059184854
0.059230974
0.059265589
0.059288647
0.059300147
0.050900597
0.051261635
0.051618506
0.051970875
0.052318368
0.052660617
0.052997266
0.053327971
0.053652398
0.053970227
0.054281146
0.054584858
0.054881074
0.05516952
0.055449931
0.055722055
0.055985649
0.056240483
0.056486338
0.056723006
0.056950288
0.057167996
0.057375952
0.057573988
0.057761945
0.057939672
0.058107027
0.058263878
0.058410101
0.058545576
0.058670196
0.058783857
0.058886462
0.058977924
0.05905816
0.059127092
0.059184651
0.059230771
0.059265397
0.059288484
0.059299919
0.050901312
0.051262308
0.05161914
0.051971469
0.052318925
0.052661137
0.052997751
0.053328421
0.053652814
0.05397061
0.054281497
0.054585178
0.054881365
0.055169783
0.055450167
0.055722264
0.055985833
0.056240644
0.056486477
0.056723124
0.056950386
0.057168075
0.057376014
0.057574034
0.057761976
0.057939689
0.058107032
0.058263871
0.058410084
0.05854555
0.058670162
0.058783816
0.058886416
0.058977873
0.059058105
0.059127035
0.059184592
0.059230715
0.059265351
0.059288477
0.059299865
0.050537637
0.050902312
0.051263253
0.051620041
0.051972326
0.052319738
0.052661907
0.052998478
0.053329107
0.053653461
0.053971218
0.054282068
0.054585713
0.054881865
0.055170249
0.055450601
0.055722668
0.055986208
0.056240991
0.056486799
0.056723421
0.05695066
0.057168328
0.057376247
0.057574249
0.057762173
0.057939871
0.0581072
0.058264027
0.058410228
0.058545685
0.058670288
0.058783934
0.058886528
0.05897798
0.059058209
0.059127136
0.059184693
0.059230817
0.059265464
0.05928863
0.059299989
0.050538878
0.050903522
0.051264408
0.051621149
0.051973388
0.052320753
0.052662876
0.052999402
0.053329986
0.053654296
0.053972011
0.054282821
0.054586427
0.054882542
0.05517089
0.055451208
0.055723242
0.055986751
0.056241506
0.056487285
0.056723882
0.056951097
0.057168743
0.057376641
0.057574623
0.05776253
0.057940212
0.058107526
0.05826434
0.05841053
0.058545976
0.058670571
0.058784209
0.058886797
0.058978245
0.05905847
0.059127396
0.059184953
0.059231078
0.059265733
0.059288935
0.059300279
0.050540295
0.0509049
0.051265731
0.051622424
0.051974615
0.05232193
0.052664005
0.053000482
0.05333102
0.053655285
0.053972955
0.054283722
0.054587287
0.054883362
0.055171673
0.055451955
0.055723955
0.055987432
0.056242156
0.056487907
0.056724476
0.056951666
0.057169289
0.057377165
0.057575128
0.057763017
0.057940682
0.058107982
0.058264783
0.05841096
0.058546397
0.058670982
0.058784614
0.058887196
0.058978639
0.059058861
0.059127786
0.059185342
0.05923147
0.059266131
0.059289357
0.059300703
0.050542003
0.050906557
0.051267331
0.051623972
0.051976108
0.052323368
0.052665388
0.053001811
0.053332296
0.053656509
0.05397413
0.054284848
0.054588367
0.054884398
0.055172666
0.055452907
0.055724869
0.05598831
0.056242999
0.056488719
0.056725258
0.056952421
0.057170017
0.05737787
0.057575811
0.05776368
0.057941327
0.058108611
0.058265397
0.058411562
0.058546988
0.058671564
0.058785188
0.058887763
0.058979202
0.059059421
0.059128344
0.059185901
0.059232031
0.059266699
0.059289942
0.059301293
0.050176159
0.05054403
0.050908517
0.051269232
0.051625813
0.051977889
0.052325087
0.052667045
0.053003408
0.053333833
0.053657988
0.053975553
0.054286218
0.054589684
0.054885665
0.055173886
0.055454082
0.055726001
0.055989402
0.056244054
0.056489737
0.056726244
0.056953376
0.057170944
0.057378771
0.057576688
0.057764535
0.057942162
0.058109428
0.058266199
0.058412351
0.058547764
0.05867233
0.058785946
0.058888515
0.058979949
0.059060164
0.059129086
0.059186644
0.059232777
0.059267451
0.059290706
0.059302065
0.050178565
0.050546387
0.050910806
0.051271456
0.051627971
0.051979979
0.052327109
0.052668997
0.053005292
0.053335651
0.053659742
0.053977244
0.054287849
0.054591257
0.054887183
0.055175351
0.055455498
0.055727369
0.055990725
0.056245335
0.05649098
0.05672745
0.056954547
0.057172084
0.057379883
0.057577773
0.057765597
0.057943203
0.058110449
0.058267203
0.05841334
0.058548741
0.058673296
0.058786903
0.058889465
0.058980894
0.059061106
0.059130027
0.059187586
0.059233721
0.059268401
0.059291665
0.059303033
0.049810553
0.050181353
0.050549104
0.05091345
0.051274028
0.05163047
0.051982402
0.052329455
0.052671267
0.053007487
0.053337772
0.053661791
0.053979224
0.054289762
0.054593106
0.054888971
0.055177081
0.055457171
0.055728991
0.055992298
0.056246861
0.056492462
0.056728892
0.056955953
0.057173455
0.057381222
0.057579083
0.057766881
0.057944464
0.058111689
0.058268425
0.058414546
0.058549933
0.058674476
0.058788074
0.058890628
0.058982052
0.059062261
0.05913118
0.05918874
0.059234879
0.059269564
0.059292833
0.05930421
0.049813807
0.050184539
0.05055221
0.050916477
0.051276976
0.051633335
0.051985182
0.05233215
0.052673878
0.053010014
0.053340217
0.053664157
0.053981513
0.054291977
0.05459525
0.054891047
0.055179093
0.055459122
0.055730884
0.055994137
0.056248649
0.056494203
0.056730588
0.056957608
0.057175073
0.057382805
0.057580635
0.057768404
0.057945961
0.058113164
0.05826988
0.058415983
0.058551355
0.058675886
0.058789474
0.05889202
0.058983438
0.059063644
0.059132562
0.059190122
0.059236264
0.059270955
0.059294227
0.059305612
0.049444194
0.04981752
0.050188155
0.050555737
0.050919916
0.051280325
0.051636592
0.051988346
0.052335219
0.052676853
0.053012897
0.05334301
0.053666862
0.053984134
0.054294516
0.054597712
0.054893434
0.055181408
0.055461371
0.055733069
0.055996262
0.056250718
0.05649622
0.056732557
0.056959531
0.057176955
0.057384649
0.057582445
0.057770183
0.057947712
0.058114891
0.058271585
0.058417669
0.058553025
0.058677543
0.058791119
0.058893657
0.058985068
0.05906527
0.059134187
0.059191748
0.059237893
0.059272589
0.059295862
0.059307255
0.049448488
0.049821707
0.050192234
0.050559717
0.050923797
0.051284106
0.05164027
0.05199192
0.052338689
0.05268022
0.053016162
0.053346176
0.053669932
0.05398711
0.054297403
0.054600512
0.054896153
0.055184049
0.055463938
0.055735566
0.055998693
0.056253089
0.056498533
0.056734817
0.056961742
0.057179121
0.057386773
0.057584532
0.057772236
0.057949735
0.058116886
0.058273556
0.05841962
0.058554958
0.058679461
0.058793026
0.058895555
0.058986959
0.059067157
0.059136072
0.059193633
0.059239781
0.059274481
0.059297756
0.059309155
0.049077939
0.049453316
0.049826402
0.050196811
0.050564183
0.050928152
0.051288348
0.051644399
0.051995933
0.052342587
0.052684004
0.053019835
0.05334974
0.05367339
0.053990466
0.054300661
0.054603676
0.054899227
0.055187038
0.055466845
0.055738397
0.056001453
0.056255781
0.056501162
0.056737388
0.05696426
0.057181589
0.057389197
0.057586914
0.057774581
0.057952047
0.058119168
0.058275813
0.058421854
0.058557173
0.05868166
0.058795212
0.058897731
0.058989128
0.059069321
0.059138233
0.059195795
0.059241945
0.05927665
0.059299924
0.059311329
0.049083456
0.049458698
0.049831642
0.050201921
0.050569168
0.050933014
0.051293084
0.051649008
0.052000416
0.052346943
0.052688236
0.053023944
0.05335373
0.053677264
0.053994228
0.054304315
0.054607228
0.05490268
0.055190398
0.055470117
0.055741585
0.056004562
0.056258817
0.05650413
0.056740292
0.056967105
0.05718438
0.057391939
0.057589611
0.057777238
0.057954667
0.058121757
0.058278373
0.05842439
0.058559688
0.058684158
0.058797695
0.058900203
0.058991592
0.05907178
0.059140689
0.059198251
0.059244403
0.059279111
0.059302384
0.059313795
0.048712656
0.049089593
0.049464674
0.049837466
0.050207601
0.05057471
0.050938416
0.051298348
0.051654131
0.052005399
0.052351788
0.052692944
0.053028519
0.053358174
0.053681582
0.053998424
0.054308394
0.054611194
0.054906539
0.055194154
0.055473777
0.055745155
0.056008046
0.05626222
0.056507458
0.056743551
0.0569703
0.057187517
0.057395021
0.057592645
0.057780227
0.057957617
0.058124672
0.058281257
0.058427247
0.058562523
0.058686973
0.058800494
0.05890299
0.05899437
0.059074552
0.059143458
0.059201019
0.059247173
0.059281883
0.059305155
0.059316572
0.048719616
0.049096381
0.049471285
0.049843912
0.05021389
0.050580843
0.050944395
0.051304173
0.051659802
0.052010917
0.052357155
0.052698161
0.05303359
0.053363103
0.053686373
0.054003082
0.054312924
0.054615602
0.05491083
0.055198334
0.055477852
0.05574913
0.056011928
0.056266015
0.056511172
0.056747189
0.056973868
0.05719102
0.057398466
0.057596036
0.05778357
0.057960917
0.058127933
0.058284485
0.058430446
0.058565696
0.058690126
0.05880363
0.058906112
0.058997482
0.059077656
0.059146559
0.059204118
0.059250273
0.059284986
0.059308256
0.059319677
0.048727262
0.049103858
0.049478573
0.04985102
0.050220824
0.050587607
0.050950989
0.051310596
0.051666057
0.052017004
0.052363077
0.052703921
0.05303919
0.053368549
0.053691669
0.054008233
0.054317936
0.05462048
0.054915581
0.055202965
0.055482368
0.055753538
0.056016234
0.056270226
0.056515294
0.056751229
0.056977832
0.057194914
0.057402296
0.057599808
0.05778729
0.05796459
0.058131564
0.058288079
0.058434007
0.058569231
0.058693637
0.058807122
0.058909589
0.059000948
0.059081114
0.059150011
0.059207568
0.059253724
0.059288439
0.059311706
0.059323131
0.048735653
0.049112064
0.04948658
0.049858833
0.050228447
0.05059504
0.050958235
0.051317657
0.051672933
0.052023697
0.052369589
0.052710257
0.053045353
0.053374544
0.053697501
0.054013909
0.05432346
0.05462586
0.054920823
0.055208075
0.055487353
0.055758406
0.056020992
0.056274881
0.056519853
0.056755698
0.056982218
0.057199224
0.057406536
0.057603985
0.057791409
0.057968657
0.058135586
0.05829206
0.058437954
0.058573147
0.058697528
0.058810992
0.058913442
0.059004788
0.059084945
0.059153836
0.05921139
0.059257545
0.059292261
0.059315525
0.059326954
0.048367206
0.048744871
0.049121053
0.049495351
0.049867393
0.050236798
0.050603185
0.050966176
0.051325394
0.051680468
0.052031034
0.05237673
0.052717205
0.053052115
0.053381123
0.053703904
0.054020141
0.054329529
0.054631771
0.054926585
0.055213695
0.055492838
0.055763764
0.05602623
0.056280006
0.056524873
0.056760622
0.056987052
0.057203975
0.057411211
0.057608591
0.057795952
0.057973144
0.058140023
0.058296453
0.058442308
0.058577468
0.058701821
0.058815262
0.058917693
0.059009024
0.05908917
0.059158054
0.059215605
0.059261759
0.059296474
0.059319735
0.059331167
0.048377504
0.048754932
0.049130869
0.049504933
0.049876744
0.050245922
0.050612084
0.050974851
0.051333848
0.051688704
0.052039053
0.052384537
0.052724805
0.053059511
0.053388322
0.053710912
0.054026965
0.054336175
0.054638248
0.0549329
0.055219855
0.055498853
0.055769641
0.056031977
0.056285632
0.056530385
0.056766028
0.05699236
0.057209193
0.057416347
0.057613651
0.057800944
0.057978075
0.058144899
0.058301281
0.058447094
0.058582217
0.058706539
0.058819954
0.058922364
0.059013679
0.059093813
0.059162688
0.059220234
0.059266385
0.0593011
0.059324357
0.059335792
0.047631703
0.048010506
0.048388731
0.048765885
0.04914156
0.049515371
0.049886933
0.050255864
0.050621781
0.050984306
0.051343062
0.051697681
0.052047796
0.052393051
0.052733093
0.05306758
0.053396178
0.053718562
0.054034416
0.054343435
0.054645325
0.054939801
0.05522659
0.055505429
0.055776068
0.056038264
0.056291787
0.056536417
0.056771945
0.056998171
0.057214906
0.05742197
0.057619192
0.057806412
0.057983476
0.05815024
0.058306569
0.058452335
0.058587418
0.058711706
0.058825092
0.058927479
0.059018775
0.059098895
0.059167761
0.059225299
0.059271448
0.059306161
0.059329414
0.059340851
0.04726553
0.047644385
0.048022977
0.048400913
0.048777779
0.049153176
0.049526714
0.049898007
0.050266671
0.050632323
0.050994584
0.051353081
0.051707442
0.052057305
0.052402312
0.052742112
0.053076362
0.05340473
0.053726891
0.05404253
0.054351343
0.054653035
0.054947322
0.055233931
0.0555126
0.055783077
0.056045121
0.056298502
0.056542999
0.056778403
0.057004514
0.057221143
0.057428109
0.057625243
0.057812381
0.057989372
0.058156071
0.058312342
0.058458058
0.058593097
0.058717346
0.058830701
0.058933062
0.059024337
0.059104441
0.059173294
0.059230825
0.059276969
0.05931168
0.059334927
0.059346366
0.047279555
0.047658129
0.048036457
0.048414097
0.048790664
0.049165766
0.049539011
0.049910013
0.050278388
0.050643754
0.051005732
0.051363948
0.051718033
0.052067623
0.052412362
0.052751901
0.053085897
0.053414017
0.053735939
0.054051347
0.054359937
0.054661416
0.054955499
0.055241915
0.0555204
0.055790703
0.056052583
0.056305809
0.056550162
0.056785432
0.057011418
0.057227932
0.057434793
0.057631829
0.05781888
0.057995792
0.058162419
0.058318627
0.058464287
0.058599277
0.058723485
0.058836805
0.058939136
0.059030388
0.059110473
0.059179313
0.059236834
0.059282972
0.059317679
0.05934092
0.05935236
0.047294687
0.047672973
0.048051008
0.048428341
0.048804594
0.049179381
0.049552312
0.049923002
0.050291067
0.050656124
0.051017796
0.05137571
0.051729497
0.052078794
0.052423246
0.052762504
0.053096226
0.05342408
0.053745744
0.054060904
0.054369255
0.054670504
0.054964369
0.055250575
0.055528862
0.055798977
0.056060681
0.056313741
0.056557938
0.056793063
0.057018915
0.057235304
0.05744205
0.057638982
0.057825937
0.058002762
0.058169312
0.058325451
0.058471049
0.058605986
0.058730148
0.058843429
0.058945728
0.059036953
0.059117017
0.059185841
0.059243351
0.059289481
0.059324183
0.059347417
0.059358858
0.047310996
0.047688974
0.048066694
0.048443701
0.048819621
0.049194073
0.049566669
0.049937024
0.050304755
0.050669481
0.051030825
0.051388414
0.051741881
0.052090864
0.052435007
0.052773963
0.053107391
0.05343496
0.053756348
0.054071241
0.054379335
0.054680338
0.054973967
0.055259949
0.055538023
0.055807937
0.056069449
0.05632233
0.05656636
0.056801328
0.057027034
0.057243289
0.057449911
0.057646729
0.05783358
0.058010311
0.058176777
0.05833284
0.058478372
0.05861325
0.058737361
0.058850598
0.058952861
0.059044056
0.059124097
0.059192903
0.059250399
0.05929652
0.059331215
0.059354441
0.059365883
0.047328546
0.047706193
0.048083574
0.048460234
0.0488358
0.049209894
0.049582132
0.049952129
0.050319502
0.050683873
0.051044866
0.051402107
0.051755231
0.052103877
0.05244769
0.052786323
0.053119436
0.0534467
0.053767791
0.054082398
0.054390217
0.054690956
0.054984332
0.055270074
0.055547918
0.055817615
0.056078923
0.056331611
0.05657546
0.056810259
0.057035809
0.057251918
0.057458406
0.0576551
0.057841839
0.058018468
0.058184841
0.058340822
0.058486281
0.058621095
0.058745151
0.05885834
0.058960562
0.059051724
0.059131738
0.059200522
0.059258003
0.059304113
0.0593388
0.059362018
0.059373459
0.047347396
0.047724687
0.048101706
0.048477995
0.048853185
0.049226899
0.049598754
0.049968368
0.05033536
0.050699352
0.051059968
0.051416837
0.051769595
0.05211788
0.052461339
0.052799627
0.053132404
0.05345934
0.053780115
0.054094415
0.05440194
0.054702396
0.054995502
0.055280985
0.055558585
0.055828048
0.056089136
0.056341618
0.056585272
0.05681989
0.05704527
0.057261222
0.057467565
0.057664126
0.057850743
0.058027261
0.058193534
0.058349426
0.058494804
0.058629548
0.058753542
0.058866679
0.058968856
0.059059981
0.059139964
0.059208725
0.059266187
0.059312284
0.059346962
0.05937017
0.059381609
0.047367605
0.047744515
0.048121146
0.04849704
0.04887183
0.049245138
0.049616586
0.049985793
0.050352378
0.050715965
0.05107618
0.051432652
0.051785018
0.052132919
0.052476001
0.052813919
0.053146337
0.053472924
0.05379336
0.054107334
0.054414544
0.054714698
0.055007514
0.055292721
0.055570058
0.055839272
0.056100124
0.056352383
0.056595829
0.056830251
0.057055449
0.057271232
0.057477418
0.057673836
0.057860321
0.058036719
0.058202884
0.058358677
0.058503969
0.058638636
0.058762563
0.058875641
0.058977769
0.059068852
0.059148801
0.059217535
0.059274976
0.059321058
0.059355724
0.059378921
0.059390359
0.047389229
0.047765732
0.048141949
0.048517424
0.048891788
0.049264666
0.049635681
0.050004454
0.050370606
0.050733762
0.051093549
0.051449599
0.051801548
0.052149038
0.052491719
0.052829244
0.053161279
0.053487494
0.053807569
0.054121194
0.054428068
0.0547279
0.055020407
0.055305319
0.055582374
0.055851321
0.056111921
0.056363942
0.056607164
0.056841376
0.057066378
0.057281979
0.057487997
0.057684259
0.057870602
0.05804687
0.058212917
0.058368605
0.058513802
0.058648385
0.058772238
0.058885252
0.058987325
0.059078362
0.059158273
0.059226976
0.059284394
0.059330458
0.05936511
0.059388295
0.059399731
0.047412321
0.047788392
0.048164171
0.0485392
0.048913111
0.049285532
0.049656087
0.050024399
0.050390092
0.05075279
0.051112122
0.051467723
0.051819229
0.052166283
0.052508536
0.052845644
0.053177271
0.05350309
0.053822781
0.054136036
0.054442552
0.054742039
0.055034217
0.055318813
0.055595568
0.055864231
0.056124561
0.056376327
0.056619309
0.056853296
0.057078089
0.057293494
0.057499331
0.057695426
0.057881615
0.058057742
0.058223662
0.058379235
0.058524329
0.05865882
0.058782592
0.058895536
0.058997549
0.059088535
0.059168404
0.059237072
0.059294463
0.059340506
0.059375144
0.059398315
0.059409748
0.047436935
0.047812548
0.048187861
0.048562417
0.048935849
0.049307786
0.049677854
0.050045678
0.050410882
0.050773095
0.051131946
0.051487069
0.051838105
0.052184697
0.052526496
0.05286316
0.053194355
0.053519753
0.053839036
0.054151896
0.054458031
0.054757153
0.055048979
0.055333241
0.055609676
0.055878034
0.056138076
0.05638957
0.056632296
0.056866043
0.05709061
0.057305806
0.057511448
0.057707363
0.057893387
0.058069363
0.058235145
0.058390593
0.058535575
0.058669966
0.058793651
0.058906518
0.059008464
0.059099394
0.059179216
0.059247846
0.059305206
0.059351226
0.059385846
0.059409003
0.059420431
0.04746312
0.047838249
0.048213069
0.048587125
0.048960049
0.049331474
0.049701027
0.050068334
0.050433022
0.050794721
0.051153062
0.05150768
0.051858218
0.05220432
0.052545638
0.052881832
0.053212568
0.05353752
0.05385637
0.054168811
0.054474543
0.054773276
0.055064729
0.055348634
0.055624729
0.055892764
0.056152498
0.056403702
0.056646154
0.056879644
0.05710397
0.057318942
0.057524375
0.057720097
0.057905943
0.058081757
0.05824739
0.058402704
0.058547565
0.058681848
0.058805436
0.05891822
0.059020094
0.059110961
0.059190731
0.059259318
0.059316645
0.059362638
0.059397238
0.059420379
0.059431802
0.047490922
0.04786554
0.04823984
0.048613367
0.048985756
0.04935664
0.049725648
0.05009241
0.050456553
0.050817708
0.05117551
0.051529595
0.051879606
0.05222519
0.052566
0.052901697
0.053231947
0.053556427
0.053874819
0.054186816
0.054492119
0.05479044
0.055081498
0.055365024
0.055640758
0.055908449
0.056167856
0.056418751
0.056660912
0.056894127
0.057118197
0.057332928
0.057538139
0.057733654
0.057919309
0.058094948
0.058260422
0.05841559
0.05856032
0.058694486
0.05881797
0.058930662
0.059032457
0.059123256
0.059202969
0.059271509
0.059328797
0.059374762
0.059409339
0.059432462
0.05944388
0.047520381
0.04789446
0.048268212
0.048641182
0.049013007
0.049383321
0.049751756
0.050117942
0.05048151
0.050842093
0.051199326
0.051552849
0.051902304
0.052247342
0.052587615
0.052922787
0.053252524
0.053576505
0.053894413
0.054205941
0.054510792
0.054808676
0.055099316
0.05538244
0.055657791
0.055925116
0.056184178
0.056434744
0.056676594
0.056909518
0.057133314
0.05734779
0.057552762
0.057748056
0.057933507
0.058108958
0.05827426
0.058429272
0.05857386
0.0587079
0.058831272
0.058943864
0.059045572
0.059136297
0.059215947
0.059284435
0.059341681
0.059387613
0.059422165
0.059445269
0.05945668
0.047551533
0.047925045
0.04829822
0.048670604
0.049041835
0.04941155
0.049779382
0.050144963
0.050507926
0.050867907
0.051224542
0.051577472
0.051926343
0.052270804
0.052610513
0.052945131
0.053274328
0.053597783
0.053915179
0.054226213
0.054530586
0.05482801
0.055118206
0.055400907
0.055675852
0.055942791
0.056201485
0.056451703
0.056693224
0.056925838
0.057149343
0.057363546
0.057568264
0.057763322
0.057948555
0.058123805
0.058288923
0.058443767
0.058588204
0.058722107
0.058845357
0.058957842
0.059059456
0.0591501
0.059229681
0.059298111
0.059355311
0.059401206
0.059435731
0.059458813
0.059470217
0.047584403
0.047957321
0.048329891
0.04870166
0.049072268
0.049441354
0.049808552
0.050173498
0.050535827
0.050895175
0.051251182
0.05160349
0.051951746
0.052295602
0.052634716
0.052968753
0.053297382
0.053620283
0.053937142
0.054247654
0.054551523
0.054848462
0.055138192
0.055420444
0.055694961
0.055961492
0.056219797
0.056469646
0.056710819
0.056943104
0.0571663
0.057380214
0.057584662
0.057779469
0.057964468
0.058139504
0.058304425
0.05845909
0.058603364
0.05873712
0.058860239
0.058972607
0.05907412
0.059164675
0.059244181
0.05931255
0.059369699
0.059415554
0.059450048
0.059473107
0.059484502
0.04761901
0.047991305
0.048363242
0.048734368
0.049104323
0.04947275
0.049839285
0.050203566
0.050565229
0.050923915
0.051279263
0.051630919
0.051978531
0.052321752
0.052660243
0.052993669
0.053321702
0.053644022
0.053960316
0.05427028
0.05457362
0.054870048
0.055159286
0.055441068
0.055715133
0.055981233
0.056239128
0.056488588
0.056729393
0.05696133
0.057184199
0.057397806
0.057601967
0.057796507
0.057981259
0.058156066
0.058320777
0.05847525
0.058619349
0.058752948
0.058875926
0.05898817
0.059089572
0.059180033
0.059259457
0.059327757
0.059384851
0.059430662
0.059465122
0.059488156
0.059499542
0.047655362
0.048027007
0.048398282
0.048768735
0.049138009
0.049505746
0.049871588
0.050235174
0.050596143
0.050954135
0.051308795
0.051659768
0.052006706
0.052349264
0.052687103
0.05301989
0.053347298
0.053669008
0.053984711
0.054294101
0.054596885
0.054892777
0.0551815
0.055462785
0.055736376
0.056002023
0.056259487
0.056508537
0.056748953
0.056980523
0.057203046
0.057416328
0.057620186
0.057814443
0.057998932
0.058173497
0.058337984
0.058492252
0.058636166
0.058769596
0.058892423
0.059004533
0.059105817
0.059196175
0.059275511
0.059343737
0.05940077
0.059446533
0.059480957
0.059503964
0.059515339
0.047693453
0.04806442
0.048435005
0.048804758
0.049173321
0.049540341
0.049905461
0.050268321
0.050628565
0.050985835
0.051339776
0.051690038
0.052036273
0.052378138
0.052715295
0.053047414
0.05337417
0.053695244
0.054010327
0.054319117
0.05462132
0.05491665
0.055204832
0.055485599
0.055758692
0.056023864
0.056280874
0.056529493
0.0567695
0.057000684
0.057222842
0.057435782
0.057639319
0.057833277
0.058017489
0.058191796
0.058356046
0.058510097
0.058653812
0.058787063
0.058909729
0.059021695
0.059122852
0.059213099
0.059292341
0.059360487
0.059417455
0.059463166
0.05949755
0.059520528
0.059531892
0.047733264
0.048103528
0.048473396
0.048842419
0.049210244
0.049576518
0.049940886
0.050302993
0.050662482
0.051019
0.051372194
0.051721715
0.052067218
0.052408361
0.052744809
0.053076233
0.053402308
0.053722719
0.054037156
0.05434532
0.054646915
0.05494166
0.055229277
0.055509501
0.055782074
0.056046747
0.056303282
0.056551449
0.056791027
0.057021805
0.057243581
0.057456161
0.05765936
0.057853002
0.058036921
0.058210956
0.058374955
0.058528776
0.058672281
0.058805341
0.058927835
0.059039647
0.059140669
0.059230798
0.059309938
0.059377999
0.059434896
0.059480551
0.059514892
0.05953784
0.05954919
0.047774759
0.048144295
0.048513419
0.048881688
0.049248747
0.049614247
0.049977835
0.05033916
0.050697867
0.051053604
0.051406022
0.051754775
0.052099517
0.052439911
0.052775622
0.053106323
0.053431691
0.053751412
0.054065178
0.054372689
0.054673653
0.054967787
0.055254816
0.055534473
0.055806503
0.056070656
0.056326695
0.056574389
0.056813519
0.057043872
0.057265246
0.057477448
0.057680293
0.057873603
0.058057213
0.058230961
0.058394696
0.058548273
0.058691556
0.058824414
0.058946726
0.059058375
0.059159253
0.059249256
0.059328287
0.059396256
0.059453077
0.059498672
0.059532967
0.059555882
0.059567219
0.047817884
0.048186669
0.048555026
0.048922513
0.04928878
0.04965348
0.050016262
0.050376777
0.050734674
0.051089604
0.05144122
0.051789176
0.052133131
0.052472749
0.052807697
0.053137649
0.053462284
0.05378129
0.054094359
0.054401193
0.054701501
0.054995001
0.055281418
0.055560487
0.055831951
0.056095563
0.056351085
0.056598287
0.056836948
0.057066857
0.057287812
0.057499619
0.057702092
0.057895055
0.058078341
0.058251788
0.058415245
0.058568566
0.058711614
0.058844259
0.058966378
0.059077855
0.05917858
0.059268449
0.059347364
0.059415235
0.059471975
0.059517505
0.059551751
0.059574631
0.059585953
0.047862559
0.048230578
0.048598145
0.048964828
0.049330278
0.049694151
0.050056102
0.050415781
0.050772843
0.05112694
0.051477727
0.051824861
0.052168004
0.05250682
0.05284098
0.053170158
0.053494036
0.053812303
0.054124652
0.054430786
0.054730415
0.055023258
0.055309041
0.0555875
0.055858378
0.056121428
0.056376413
0.056623102
0.056861277
0.057090724
0.057311242
0.057522637
0.057724722
0.057917323
0.05810027
0.058273402
0.058436566
0.058589619
0.05873242
0.058864841
0.058986757
0.059098052
0.059198615
0.059288342
0.059367135
0.059434902
0.059491557
0.059537018
0.059571211
0.059594054
0.059605361
0.047908671
0.04827593
0.048642686
0.049008541
0.04937315
0.049736174
0.050097268
0.050456089
0.050812292
0.051165531
0.051515465
0.051861754
0.052204061
0.052542053
0.052875401
0.053203782
0.053526881
0.053844385
0.054155992
0.054461404
0.054760333
0.055052498
0.055337627
0.055615455
0.055885727
0.056148196
0.056402625
0.056648784
0.056886454
0.057115422
0.057335486
0.057546453
0.057748135
0.057940358
0.058122952
0.058295756
0.058458616
0.058611387
0.05875393
0.058886116
0.059007819
0.059118923
0.059219316
0.059308894
0.059387558
0.059455215
0.059511778
0.059557167
0.059591305
0.059614109
0.059625398
0.047956072
0.048322603
0.048688535
0.04905354
0.049417286
0.049779438
0.050139654
0.050497594
0.050852915
0.051205276
0.051554336
0.051899758
0.052241208
0.052578353
0.052910869
0.053238433
0.053560731
0.053877453
0.054188297
0.054492967
0.054791177
0.055082645
0.0553671
0.055644279
0.055913927
0.056175798
0.056429654
0.056675265
0.056912414
0.057140886
0.057360482
0.057571005
0.05777227
0.057964101
0.058146328
0.05831879
0.058481333
0.058633811
0.058776087
0.058908027
0.059029508
0.059140411
0.059240626
0.059330047
0.059408575
0.059476116
0.059532584
0.059577896
0.059611976
0.059634739
0.059646011
0.0476389
0.048004824
0.048370493
0.048735557
0.049099685
0.049462546
0.049823805
0.050183123
0.050540163
0.050894584
0.051246047
0.051594215
0.051938752
0.052279325
0.052615607
0.052947271
0.053274
0.05359548
0.053911402
0.054221465
0.054525377
0.054822849
0.055113603
0.055397368
0.055673882
0.05594289
0.056204145
0.056457412
0.056702462
0.056939073
0.057167037
0.057386148
0.057596214
0.057797049
0.057988475
0.058170323
0.058342432
0.058504647
0.058656821
0.058798817
0.058930503
0.059051752
0.059162447
0.059262476
0.059351734
0.059430119
0.05949754
0.059553907
0.059599139
0.059633157
0.059655878
0.059667132
0.047324578
0.047689548
0.048054608
0.048419394
0.048783569
0.049146801
0.049508758
0.049869108
0.050227512
0.050583636
0.050937141
0.051287692
0.051634952
0.051978588
0.052318271
0.052653673
0.052984472
0.05331035
0.053630996
0.053946104
0.054255372
0.05455851
0.054855231
0.055145256
0.055428317
0.055704152
0.055972505
0.056233133
0.056485797
0.056730271
0.056966333
0.057193774
0.05741239
0.057621986
0.057822379
0.058013389
0.058194847
0.058366591
0.058528468
0.058680329
0.058822037
0.058953458
0.059074468
0.059184947
0.059284783
0.05937387
0.059452109
0.059519403
0.059575666
0.059620814
0.059654769
0.059677446
0.05968868
0.047013147
0.047376824
0.047740975
0.048105171
0.048469072
0.04883235
0.049194675
0.049555719
0.049915147
0.050272626
0.050627823
0.050980401
0.051330027
0.051676368
0.052019093
0.052357873
0.052692385
0.053022307
0.053347324
0.053667126
0.053981407
0.054289869
0.054592222
0.05488818
0.055177467
0.055459812
0.055734956
0.056002644
0.056262632
0.056514684
0.056758571
0.056994074
0.057220981
0.057439091
0.057648208
0.057848148
0.058038733
0.058219791
0.058391162
0.058552691
0.058704231
0.058845642
0.058976792
0.059097554
0.05920781
0.059307448
0.059396359
0.059474445
0.059541609
0.059597763
0.059642825
0.059676713
0.059699345
0.059710559
0.047066673
0.047429579
0.047792907
0.048156246
0.048519267
0.048881648
0.049243064
0.049603187
0.049961689
0.050318237
0.0506725
0.051024145
0.05137284
0.051718255
0.052060061
0.052397933
0.052731547
0.053060586
0.053384734
0.053703684
0.054017133
0.054324782
0.054626342
0.05492153
0.05521007
0.055491693
0.055766138
0.056033154
0.056292495
0.056543926
0.056787219
0.057022154
0.057248521
0.057466116
0.057674747
0.057874227
0.058064378
0.058245029
0.058416019
0.058577194
0.058728405
0.058869512