/*--------------------------------*- C++ -*----------------------------------*\
| =========                 |                                                 |
| \\      /  F ield         | OpenFOAM: The Open Source CFD Toolbox           |
|  \\    /   O peration     | Version:  2312                                  |
|   \\  /    A nd           | Website:  www.openfoam.com                      |
|    \\/     M anipulation  |                                                 |
\*---------------------------------------------------------------------------*/
FoamFile
{
    version     2.0;
    format      ascii;
    arch        "LSB;label=32;scalar=64";
    class       volScalarField;
    location    "0.09";
    object      O2;
}
// * * * * * * * * * * * * * * * * * * * * * * * * * * * * * * * * * * * * * //

dimensions      [0 0 0 0 0 0 0];

internalField   nonuniform List<scalar> 
3224
(
0.21499361
0.21535137
0.21569998
0.21603945
0.21636978
0.216691
0.21700311
0.21730614
0.2176001
0.21788502
0.21816092
0.21842782
0.21868574
0.2189347
0.21917471
0.21940579
0.21962795
0.21984122
0.22004559
0.22024109
0.22042772
0.22060548
0.22077439
0.22093445
0.22108565
0.22122801
0.22136151
0.22148616
0.22160196
0.22170889
0.22180695
0.22189613
0.22197643
0.22204782
0.2221103
0.22216385
0.22220845
0.22224408
0.22227073
0.22228837
0.2222969
0.21499399
0.21535162
0.21570014
0.21603953
0.2163698
0.21669095
0.21700301
0.21730598
0.2175999
0.21788477
0.21816062
0.21842747
0.21868534
0.21893425
0.21917422
0.21940526
0.21962738
0.21984061
0.22004494
0.2202404
0.22042699
0.22060472
0.2207736
0.22093362
0.22108479
0.22122712
0.2213606
0.22148522
0.22160099
0.2217079
0.22180594
0.2218951
0.22197538
0.22204676
0.22210922
0.22216276
0.22220735
0.22224298
0.22226962
0.22228727
0.22229587
0.21499512
0.21535259
0.215701
0.21604029
0.21637047
0.21669154
0.21700352
0.21730642
0.21760026
0.21788506
0.21816084
0.21842762
0.21868543
0.21893428
0.21917418
0.21940516
0.21962722
0.21984039
0.22004467
0.22024008
0.22042662
0.2206043
0.22077313
0.22093311
0.22108424
0.22122653
0.22135997
0.22148456
0.2216003
0.22170718
0.22180519
0.22189433
0.22197459
0.22204595
0.22210839
0.22216192
0.2222065
0.22224211
0.22226875
0.22228639
0.22229506
0.214997
0.2153543
0.21570257
0.21604175
0.21637182
0.21669278
0.21700465
0.21730745
0.2176012
0.21788591
0.2181616
0.2184283
0.21868602
0.21893478
0.21917461
0.21940551
0.2196275
0.2198406
0.22004482
0.22024016
0.22042664
0.22060426
0.22077303
0.22093295
0.22108403
0.22122627
0.22135967
0.22148421
0.22159991
0.22170676
0.22180474
0.22189385
0.22197407
0.22204541
0.22210784
0.22216134
0.22220591
0.22224152
0.22226814
0.22228577
0.22229452
0.21463342
0.21499957
0.21535673
0.21570486
0.2160439
0.21637383
0.21669467
0.21700642
0.2173091
0.21760273
0.21788733
0.21816291
0.2184295
0.21868712
0.21893579
0.21917552
0.21940633
0.21962823
0.21984124
0.22004538
0.22024064
0.22042704
0.22060459
0.2207733
0.22093316
0.22108418
0.22122636
0.2213597
0.22148419
0.22159985
0.22170665
0.22180459
0.22189366
0.22197386
0.22204517
0.22210757
0.22216106
0.22220561
0.2222412
0.22226782
0.22228544
0.22229423
0.21463655
0.21500268
0.21535972
0.2157077
0.21604659
0.21637638
0.21669707
0.21700868
0.21731123
0.21760473
0.2178892
0.21816466
0.21843114
0.21868865
0.2189372
0.21917683
0.21940754
0.21962934
0.21984226
0.2200463
0.22024148
0.2204278
0.22060527
0.2207739
0.22093369
0.22108464
0.22122676
0.22136004
0.22148449
0.22160009
0.22170684
0.22180474
0.22189378
0.22197394
0.22204522
0.22210759
0.22216106
0.22220559
0.22224117
0.22226778
0.22228539
0.22229422
0.21464025
0.21500625
0.21536315
0.21571097
0.2160497
0.21637933
0.21669987
0.21701134
0.21731374
0.2176071
0.21789144
0.21816677
0.21843312
0.21869051
0.21893895
0.21917846
0.21940906
0.21963076
0.21984357
0.22004752
0.2202426
0.22042884
0.22060622
0.22077477
0.22093449
0.22108537
0.22122742
0.22136064
0.22148502
0.22160057
0.22170728
0.22180513
0.22189413
0.22197425
0.2220455
0.22210785
0.22216129
0.2222058
0.22224137
0.22226797
0.22228558
0.22229443
0.21464475
0.21501056
0.21536729
0.21571493
0.21605348
0.21638293
0.2167033
0.2170146
0.21731684
0.21761004
0.21789422
0.2181694
0.21843561
0.21869285
0.21894115
0.21918053
0.21941101
0.21963259
0.21984529
0.22004912
0.2202441
0.22043023
0.22060753
0.22077598
0.22093561
0.22108641
0.22122839
0.22136153
0.22148585
0.22160134
0.22170799
0.22180579
0.22189474
0.22197482
0.22204603
0.22210835
0.22216177
0.22220626
0.22224182
0.22226841
0.22228601
0.22229487
0.21427536
0.21465004
0.21501567
0.2153722
0.21571964
0.21605798
0.21638723
0.2167074
0.21701851
0.21732056
0.21761357
0.21789758
0.21817259
0.21843863
0.21869571
0.21894386
0.2191831
0.21941343
0.21963487
0.21984744
0.22005115
0.22024601
0.22043202
0.22060921
0.22077756
0.22093709
0.2210878
0.22122969
0.22136276
0.221487
0.22160242
0.221709
0.22180675
0.22189564
0.22197568
0.22204685
0.22210914
0.22216252
0.22220699
0.22224253
0.22226911
0.22228671
0.22229558
0.21428165
0.2146562
0.21502162
0.21537794
0.21572515
0.21606326
0.21639228
0.21671223
0.21702311
0.21732495
0.21761776
0.21790157
0.21817638
0.21844224
0.21869914
0.21894711
0.21918618
0.21941635
0.21963764
0.21985006
0.22005363
0.22024835
0.22043424
0.2206113
0.22077954
0.22093896
0.22108956
0.22123135
0.22136433
0.22148849
0.22160383
0.22171034
0.22180802
0.22189686
0.22197685
0.22204797
0.22211022
0.22216357
0.22220802
0.22224354
0.22227011
0.2222877
0.22229658
0.21390521
0.21428895
0.21466332
0.2150285
0.21538457
0.21573152
0.21606937
0.21639814
0.21671783
0.21702847
0.21733007
0.21762265
0.21790622
0.21818083
0.21844647
0.21870317
0.21895095
0.21918982
0.21941981
0.21964093
0.21985318
0.22005659
0.22025116
0.22043691
0.22061383
0.22078194
0.22094124
0.22109173
0.22123341
0.22136628
0.22149035
0.2216056
0.22171204
0.22180964
0.22189842
0.22197835
0.22204942
0.22211162
0.22216494
0.22220936
0.22224486
0.22227142
0.22228901
0.22229789
0.21391391
0.21429735
0.21467146
0.21503638
0.21539215
0.21573881
0.21607637
0.21640485
0.21672427
0.21703463
0.21733596
0.21762828
0.21791161
0.21818596
0.21845137
0.21870785
0.21895541
0.21919407
0.21942386
0.21964478
0.21985685
0.22006008
0.22025449
0.22044007
0.22061684
0.2207848
0.22094396
0.22109432
0.22123589
0.22136865
0.22149261
0.22160777
0.22171411
0.22181164
0.22190034
0.22198021
0.22205123
0.22211338
0.22216666
0.22221105
0.22224652
0.22227307
0.22229065
0.22229953
0.21353132
0.2139238
0.21430691
0.21468071
0.21504531
0.21540076
0.2157471
0.21608434
0.2164125
0.21673159
0.21704165
0.21734268
0.21763471
0.21791776
0.21819185
0.218457
0.21871322
0.21896054
0.21919897
0.21942853
0.21964924
0.2198611
0.22006414
0.22025836
0.22044376
0.22062036
0.22078816
0.22094717
0.22109739
0.22123882
0.22137146
0.22149531
0.22161036
0.22171661
0.22181405
0.22190267
0.22198246
0.22205342
0.22211552
0.22216876
0.22221311
0.22224856
0.22227509
0.22229267
0.22230155
0.21354294
0.21393499
0.21431771
0.21469115
0.21505539
0.21541048
0.21575645
0.21609332
0.21642113
0.21673988
0.21704959
0.2173503
0.21764201
0.21792475
0.21819854
0.21846339
0.21871934
0.21896639
0.21920456
0.21943388
0.21965435
0.21986599
0.2200688
0.22026281
0.22044802
0.22062444
0.22079206
0.22095091
0.22110097
0.22124225
0.22137475
0.22149847
0.22161341
0.22171955
0.22181689
0.22190542
0.22198514
0.22205602
0.22211807
0.22217126
0.22221557
0.22225099
0.2222775
0.22229508
0.22230396
0.21315502
0.21355597
0.21394756
0.21432984
0.21470286
0.21506669
0.21542137
0.21576693
0.21610341
0.21643082
0.21674918
0.21705853
0.21735887
0.21765022
0.21793262
0.21820608
0.21847062
0.21872626
0.21897301
0.2192109
0.21943994
0.21966015
0.21987154
0.22007412
0.2202679
0.22045289
0.2206291
0.22079654
0.2209552
0.22110509
0.22124621
0.22137856
0.22150214
0.22161694
0.22172297
0.2218202
0.22190864
0.22198827
0.22205908
0.22212106
0.2221742
0.22221847
0.22225386
0.22228035
0.22229792
0.22230679
0.21317014
0.21357053
0.2139616
0.21434338
0.21471593
0.21507929
0.21543352
0.21577863
0.21611466
0.21644164
0.21675958
0.21706851
0.21736845
0.21765942
0.21794144
0.21821454
0.21847873
0.21873403
0.21898046
0.21921804
0.21944678
0.2196667
0.21987782
0.22008013
0.22027367
0.22045842
0.2206344
0.22080163
0.22096009
0.22110979
0.22125073
0.22138292
0.22150635
0.22162101
0.2217269
0.22182402
0.22191235
0.22199189
0.22206262
0.22212453
0.22217761
0.22222183
0.22225719
0.22228366
0.22230122
0.22231009
0.21277774
0.21318691
0.2135867
0.21397719
0.21435843
0.21473044
0.21509329
0.21544701
0.21579162
0.21612717
0.21645367
0.21677114
0.21707962
0.21737912
0.21766967
0.21795128
0.21822397
0.21848778
0.21874271
0.21898879
0.21922602
0.21945444
0.21967405
0.21988486
0.22008689
0.22028015
0.22046465
0.22064039
0.22080738
0.22096562
0.22111511
0.22125586
0.22138787
0.22151113
0.22162564
0.2217314
0.22182838
0.2219166
0.22199604
0.22206668
0.22212851
0.22218152
0.2222257
0.22226102
0.22228746
0.22230501
0.22231388
0.212797
0.21320548
0.2136046
0.21399445
0.21437507
0.2147465
0.21510877
0.21546193
0.21580599
0.216141
0.21646698
0.21678394
0.21709193
0.21739095
0.21768103
0.21796219
0.21823445
0.21849784
0.21875237
0.21899805
0.21923492
0.21946298
0.21968224
0.21989273
0.22009445
0.22028741
0.22047163
0.2206471
0.22081383
0.22097183
0.22112111
0.22126165
0.22139346
0.22151654
0.22163088
0.22173648
0.22183333
0.22192142
0.22200075
0.22207129
0.22213304
0.22218599
0.2222301
0.22226538
0.2222918
0.22230933
0.22231819
0.2128183
0.21322595
0.21362433
0.21401347
0.21439342
0.21476419
0.21512583
0.21547837
0.21582183
0.21615625
0.21648165
0.21679807
0.21710551
0.217404
0.21769358
0.21797425
0.21824604
0.21850897
0.21876306
0.21900832
0.21924478
0.21947245
0.21969135
0.21990148
0.22010286
0.2202955
0.2204794
0.22065458
0.22082104
0.22097879
0.22112781
0.22126813
0.22139973
0.22152261
0.22163677
0.2217422
0.2218389
0.22192686
0.22200606
0.2220765
0.22213816
0.22219103
0.22223509
0.22227032
0.2222967
0.22231422
0.22232308
0.2128417
0.21324843
0.21364599
0.21403436
0.21441357
0.21478362
0.21514456
0.21549642
0.21583923
0.21617301
0.21649779
0.21681359
0.21712044
0.21741837
0.21770739
0.21798753
0.21825881
0.21852124
0.21877485
0.21901966
0.21925568
0.21948293
0.21970142
0.21991116
0.22011217
0.22030446
0.22048803
0.2206629
0.22082906
0.22098652
0.22113529
0.22127535
0.22140672
0.22152939
0.22164335
0.22174861
0.22184514
0.22193295
0.22201202
0.22208235
0.22214391
0.22219669
0.22224068
0.22227586
0.22230222
0.22231972
0.22232857
0.21245228
0.21286721
0.21327303
0.21366971
0.21405724
0.21443563
0.2148049
0.21516508
0.2155162
0.21585828
0.21619136
0.21651546
0.2168306
0.21713682
0.21743413
0.21772255
0.21800211
0.21827283
0.21853472
0.21878782
0.21903213
0.21926767
0.21949446
0.21971251
0.21992184
0.22012245
0.22031436
0.22049757
0.2206721
0.22083793
0.22099509
0.22114357
0.22128337
0.22141449
0.22153693
0.22165068
0.22175573
0.22185209
0.22193974
0.22201867
0.22208887
0.22215033
0.22220302
0.22224694
0.22228207
0.22230838
0.22232587
0.2223347
0.21248107
0.21289502
0.21329987
0.2136956
0.21408221
0.21445971
0.21482813
0.21518747
0.21553779
0.21587909
0.21621141
0.21653477
0.2168492
0.21715472
0.21745135
0.21773913
0.21801806
0.21828818
0.21854949
0.21880203
0.2190458
0.21928083
0.21950712
0.2197247
0.21993357
0.22013376
0.22032525
0.22050808
0.22068223
0.22084772
0.22100455
0.22115272
0.22129223
0.22142308
0.22154527
0.22165879
0.22176363
0.2218598
0.22194728
0.22202605
0.22209612
0.22215746
0.22221006
0.2222539
0.22228897
0.22231524
0.2223327
0.22234153
0.21165878
0.21209032
0.21251237
0.21292527
0.21332908
0.21372378
0.2141094
0.21448594
0.21485342
0.21521186
0.2155613
0.21590175
0.21623325
0.21655581
0.21686946
0.21717423
0.21747014
0.21775722
0.21803547
0.21830494
0.21856562
0.21881755
0.21906074
0.21929521
0.21952097
0.21973804
0.21994643
0.22014615
0.2203372
0.2205196
0.22069336
0.22085847
0.22101495
0.22116278
0.22130198
0.22143254
0.22155446
0.22166774
0.22177236
0.22186832
0.22195561
0.22203422
0.22210414
0.22216535
0.22221785
0.2222616
0.22229661
0.22232283
0.22234027
0.22234909
0.21125589
0.21169527
0.21212546
0.21254636
0.21295812
0.21336079
0.21375439
0.21413893
0.21451442
0.21488089
0.21523836
0.21558684
0.21592638
0.21625698
0.21657868
0.21689149
0.21719545
0.21749058
0.2177769
0.21805442
0.21832318
0.21858319
0.21883447
0.21907704
0.21931091
0.21953609
0.21975261
0.21996047
0.22015969
0.22035027
0.22053222
0.22070555
0.22087025
0.22102635
0.22117383
0.22131269
0.22144294
0.22156457
0.22167757
0.22178195
0.22187769
0.22196478
0.22204321
0.22211297
0.22217405
0.22222644
0.2222701
0.22230503
0.22233121
0.22234862
0.22235743
0.21129685
0.21173481
0.21216358
0.21258319
0.2129937
0.21339514
0.21378755
0.21417092
0.21454529
0.21491067
0.21526708
0.21561454
0.21595307
0.21628271
0.21660347
0.21691539
0.21721848
0.21751276
0.21779826
0.218075
0.218343
0.21860228
0.21885286
0.21909475
0.21932798
0.21955255
0.21976847
0.21997577
0.22017445
0.22036452
0.22054598
0.22071885
0.22088312
0.2210388
0.2211859
0.2213244
0.22145431
0.22157563
0.22168835
0.22179247
0.22188796
0.22197484
0.22205308
0.22212268
0.22218361
0.22223587
0.22227944
0.2223143
0.22234042
0.2223578
0.22236659
0.21134115
0.21177755
0.21220483
0.21262302
0.21303217
0.21343228
0.21382339
0.21420552
0.21457867
0.21494287
0.21529813
0.21564448
0.21598195
0.21631055
0.21663031
0.21694125
0.2172434
0.21753677
0.2178214
0.2180973
0.21836448
0.21862298
0.21887281
0.21911398
0.21934651
0.21957041
0.2197857
0.21999239
0.22019049
0.22038001
0.22056096
0.22073333
0.22089713
0.22105238
0.22119906
0.22133718
0.22146673
0.22158772
0.22170013
0.22180396
0.2218992
0.22198585
0.22206388
0.2221333
0.22219408
0.22224621
0.22228967
0.22232444
0.22235051
0.22236786
0.22237663
0.21138895
0.21182368
0.21224935
0.21266601
0.21307367
0.21347235
0.21386207
0.21424284
0.21461469
0.21497761
0.21533165
0.21567681
0.21601312
0.2163406
0.21665928
0.21696918
0.21727032
0.21756272
0.2178464
0.21812139
0.21838771
0.21864537
0.21889438
0.21913478
0.21936657
0.21958976
0.21980437
0.22001041
0.2202079
0.22039683
0.22057721
0.22074905
0.22091236
0.22106713
0.22121337
0.22135108
0.22148025
0.22160087
0.22171296
0.22181649
0.22191145
0.22199785
0.22207567
0.22214489
0.2222055
0.22225749
0.22230084
0.22233552
0.22236153
0.22237884
0.22238759
0.2114404
0.21187334
0.21229729
0.2127123
0.21311836
0.2135155
0.21390372
0.21428304
0.21465347
0.21501503
0.21536774
0.21571163
0.2160467
0.21637298
0.2166905
0.21699928
0.21729934
0.21759069
0.21787337
0.21814739
0.21841277
0.21866953
0.21891768
0.21915725
0.21938824
0.21961067
0.21982456
0.2200299
0.22022672
0.22041502
0.22059481
0.22076609
0.22092886
0.22108313
0.2212289
0.22136616
0.22149492
0.22161516
0.22172689
0.2218301
0.22192477
0.22201091
0.22208849
0.2221575
0.22221794
0.22226977
0.222313
0.22234759
0.22237352
0.22239079
0.22239953
0.21149568
0.21192671
0.21234882
0.21276204
0.21316639
0.21356187
0.21394848
0.21432623
0.21469515
0.21505525
0.21540655
0.21574906
0.2160828
0.2164078
0.21672408
0.21703166
0.21733056
0.2176208
0.2179024
0.21817538
0.21843976
0.21869555
0.21894278
0.21918146
0.2194116
0.21963322
0.21984633
0.22005093
0.22024705
0.22043467
0.22061382
0.2207845
0.2209467
0.22110043
0.22124569
0.22138248
0.2215108
0.22163064
0.22174199
0.22184486
0.22193922
0.22202507
0.2221024
0.22217119
0.22223143
0.22228311
0.2223262
0.22236069
0.22238655
0.22240378
0.22241249
0.21155495
0.21198394
0.21240408
0.2128154
0.21321791
0.2136116
0.21399648
0.21437257
0.21473987
0.2150984
0.21544818
0.21578922
0.21612155
0.21644517
0.21676012
0.21706642
0.21736408
0.21765312
0.21793357
0.21820544
0.21846875
0.21872352
0.21896977
0.2192075
0.21943674
0.21965749
0.21986977
0.22007358
0.22026894
0.22045585
0.22063432
0.22080435
0.22096594
0.2211191
0.22126383
0.22140011
0.22152796
0.22164737
0.22175832
0.22186081
0.22195484
0.22204039
0.22211745
0.22218601
0.22224604
0.22229755
0.2223405
0.22237487
0.22240066
0.22241784
0.22242652
0.21161837
0.2120452
0.21246323
0.21287252
0.21327305
0.21366484
0.21404788
0.21442218
0.21478775
0.21514461
0.21549276
0.21583224
0.21616304
0.21648521
0.21679874
0.21710367
0.21740001
0.21768778
0.217967
0.21823768
0.21849986
0.21875353
0.21899873
0.21923545
0.21946372
0.21968355
0.21989494
0.22009791
0.22029247
0.22047862
0.22065636
0.22082571
0.22098665
0.2211392
0.22128335
0.22141911
0.22154646
0.2216654
0.22177592
0.22187803
0.2219717
0.22205693
0.2221337
0.222202
0.22226182
0.22231314
0.22235594
0.2223902
0.2224159
0.22243302
0.22244169
0.21168612
0.21211064
0.21252643
0.21293355
0.21333198
0.21372174
0.21410281
0.2144752
0.21483892
0.21519399
0.21554042
0.21587822
0.21620741
0.21652801
0.21684003
0.2171435
0.21743843
0.21772485
0.21800276
0.21827219
0.21853315
0.21878566
0.21902974
0.21926539
0.21949263
0.21971148
0.21992193
0.22012401
0.22031771
0.22050305
0.22068002
0.22084864
0.2210089
0.2211608
0.22130434
0.22143952
0.22156634
0.22168479
0.22179486
0.22189655
0.22198984
0.22207473
0.2221512
0.22221923
0.22227882
0.22232994
0.22237258
0.22240671
0.22243232
0.22244939
0.22245802
0.21175836
0.21218042
0.21259383
0.21299864
0.21339484
0.21378242
0.21416139
0.21453176
0.21489351
0.21524668
0.21559127
0.21592729
0.21625475
0.21657369
0.21688411
0.21718603
0.21747946
0.21776443
0.21804096
0.21830905
0.21856872
0.21882
0.21906289
0.2192974
0.21952355
0.21974135
0.21995081
0.22015193
0.22034473
0.22052921
0.22070536
0.22087321
0.22103273
0.22118395
0.22132684
0.22146142
0.22158768
0.22170561
0.2218152
0.22191644
0.22200933
0.22209385
0.22217
0.22223775
0.22229709
0.222348
0.22239047
0.22242446
0.22244998
0.22246698
0.22247559
0.21183525
0.2122547
0.21266558
0.21306793
0.21346175
0.21384703
0.21422377
0.21459197
0.21495164
0.21530279
0.21564542
0.21597954
0.21630518
0.21662235
0.21693106
0.21723134
0.21752318
0.21780662
0.21808167
0.21834834
0.21860665
0.21885662
0.21909825
0.21933155
0.21955655
0.21977324
0.21998164
0.22018176
0.2203736
0.22055716
0.22073245
0.22089947
0.22105822
0.22120871
0.22135092
0.22148486
0.22161052
0.22172789
0.22183697
0.22193775
0.22203021
0.22211435
0.22219015
0.2222576
0.22231667
0.22236736
0.22240965
0.2224435
0.22246891
0.22248585
0.22249442
0.21191693
0.21233362
0.21274181
0.21314156
0.21353285
0.21391569
0.21429006
0.21465597
0.21501342
0.21536242
0.21570298
0.2160351
0.2163588
0.21667409
0.216981
0.21727952
0.21756969
0.2178515
0.21812499
0.21839016
0.21864702
0.2188956
0.21913589
0.21936792
0.21959169
0.21980721
0.2200145
0.22021355
0.22040437
0.22058696
0.22076134
0.22092749
0.22108543
0.22123514
0.22137663
0.22150989
0.22163492
0.2217517
0.22186024
0.22196052
0.22205253
0.22213627
0.2222117
0.22227883
0.22233763
0.22238808
0.22243017
0.22246387
0.22248917
0.22250604
0.22251458
0.21200354
0.2124173
0.21282265
0.21321964
0.21360827
0.21398851
0.21436038
0.21472386
0.21507896
0.21542569
0.21576404
0.21609404
0.21641569
0.216729
0.21703399
0.21733067
0.21761905
0.21789915
0.21817099
0.21843457
0.2186899
0.21893701
0.21917589
0.21940657
0.21962905
0.21984333
0.22004943
0.22024735
0.2204371
0.22061868
0.22079208
0.22095732
0.22111439
0.22126329
0.22140401
0.22153656
0.22166092
0.22177709
0.22188505
0.22198481
0.22207634
0.22215964
0.22223469
0.22230148
0.22235998
0.22241019
0.22245207
0.22248561
0.22251079
0.22252759
0.22253609
0.21209521
0.21250588
0.21290822
0.21330229
0.21368809
0.2140656
0.21443482
0.21479573
0.21514835
0.21549267
0.21582871
0.21615646
0.21647594
0.21678715
0.21709012
0.21738485
0.21767135
0.21794964
0.21821973
0.21848163
0.21873535
0.21898091
0.21921831
0.21944756
0.21966867
0.21988165
0.2200865
0.22028324
0.22047185
0.22065235
0.22082474
0.22098901
0.22114516
0.2212932
0.22143312
0.22156491
0.22168857
0.22180408
0.22191145
0.22201065
0.22210168
0.22218453
0.22225917
0.2223256
0.22238379
0.22243373
0.2224754
0.22250876
0.22253382
0.22255053
0.22255899
0.21219204
0.21259944
0.21299861
0.21338961
0.21377243
0.21414705
0.21451347
0.21487167
0.21522167
0.21556346
0.21589704
0.21622242
0.21653962
0.21684862
0.21714946
0.21744213
0.21772665
0.21800303
0.21827128
0.21853141
0.21878344
0.21902736
0.21926319
0.21949094
0.21971061
0.21992222
0.22012576
0.22032124
0.22050866
0.22068803
0.22085934
0.22102259
0.22117779
0.22132492
0.22146399
0.22159499
0.2217179
0.22183273
0.22193946
0.22203808
0.22212858
0.22221095
0.22228516
0.22235121
0.22240908
0.22245874
0.22250017
0.22253336
0.22255828
0.22257491
0.22258333
0.21229411
0.21269807
0.2130939
0.21348166
0.21386134
0.21423292
0.21459639
0.21495174
0.21529898
0.2156381
0.2159691
0.21629199
0.21660678
0.21691346
0.21721205
0.21750256
0.217785
0.21805937
0.21832568
0.21858395
0.21883419
0.21907639
0.21931058
0.21953675
0.21975491
0.21996507
0.22016723
0.2203614
0.22054757
0.22072574
0.22089592
0.22105811
0.2212123
0.22135848
0.22149666
0.22162682
0.22174895
0.22186306
0.22196912
0.22206713
0.22215707
0.22223893
0.2223127
0.22237835
0.22243587
0.22248523
0.22252643
0.22255942
0.2225842
0.22260074
0.22260912
0.21240148
0.21280183
0.21319415
0.2135785
0.21395487
0.21432325
0.21468363
0.21503599
0.21538033
0.21571664
0.21604493
0.2163652
0.21667746
0.2169817
0.21727793
0.21756617
0.21784642
0.21811868
0.21838297
0.21863928
0.21888764
0.21912805
0.2193605
0.21958502
0.21980159
0.22001024
0.22021095
0.22040373
0.22058859
0.22076552
0.22093451
0.22109558
0.22124871
0.22139389
0.22153113
0.22166042
0.22178174
0.22189509
0.22200045
0.22209782
0.22218717
0.2222685
0.2223418
0.22240703
0.22246418
0.22251324
0.22255418
0.22258697
0.2226116
0.22262805
0.22263638
0.21251418
0.21291073
0.21329937
0.21368015
0.21405306
0.21441808
0.21477521
0.21512442
0.21546572
0.2157991
0.21612455
0.21644207
0.21675167
0.21705336
0.21734712
0.21763298
0.21791093
0.21818098
0.21844314
0.21869742
0.21894381
0.21918233
0.21941297
0.21963575
0.21985067
0.22005773
0.22025692
0.22044826
0.22063174
0.22080736
0.22097512
0.22113501
0.22128703
0.22143118
0.22156744
0.2216958
0.22181627
0.22192882
0.22203345
0.22213015
0.22221889
0.22229967
0.22237246
0.22243726
0.22249403
0.22254277
0.22258344
0.22261602
0.22264049
0.22265684
0.22266511
0.21263219
0.21302478
0.21340955
0.21378659
0.21415587
0.21451739
0.21487111
0.21521704
0.21555516
0.21588546
0.21620793
0.21652259
0.21682942
0.21712842
0.21741961
0.21770297
0.21797853
0.21824627
0.21850621
0.21875834
0.21900268
0.21923923
0.21946799
0.21968895
0.21990214
0.22010754
0.22030515
0.22049498
0.22067702
0.22085128
0.22101774
0.22117641
0.22132727
0.22147032
0.22160556
0.22173297
0.22185254
0.22196427
0.22206813
0.22216412
0.22225223
0.22233243
0.2224047
0.22246904
0.22252541
0.22257381
0.2226142
0.22264656
0.22267087
0.22268711
0.22269533
0.21275547
0.2131439
0.21352464
0.21389777
0.21426327
0.21462111
0.21497129
0.21531379
0.21564858
0.21597568
0.21629505
0.21660671
0.21691065
0.21720686
0.21749535
0.21777612
0.21804917
0.21831451
0.21857213
0.21882204
0.21906423
0.21929873
0.21952551
0.21974459
0.21995597
0.22015964
0.2203556
0.22054386
0.22072441
0.22089724
0.22106235
0.22121974
0.2213694
0.22151132
0.22164549
0.2217719
0.22189054
0.2220014
0.22210447
0.22219973
0.22228716
0.22236676
0.22243849
0.22250235
0.22255831
0.22260635
0.22264645
0.22267858
0.22270272
0.22271885
0.22272701
0.21288391
0.213268
0.21364454
0.21401359
0.21437514
0.21472917
0.21507566
0.21541458
0.21574592
0.21606967
0.21638582
0.21669436
0.21699529
0.2172886
0.21757429
0.21785236
0.21812281
0.21838564
0.21864085
0.21888844
0.21912841
0.21936076
0.2195855
0.21980261
0.22001211
0.22021399
0.22040824
0.22059486
0.22077385
0.2209452
0.22110892
0.22126498
0.22141338
0.22155412
0.22168718
0.22181256
0.22193023
0.2220402
0.22214243
0.22223693
0.22232367
0.22240264
0.22247381
0.22253717
0.2225927
0.22264037
0.22268016
0.22271205
0.22273601
0.22275202
0.22276013
0.21301736
0.21339693
0.21376908
0.2141339
0.21449136
0.21484142
0.21518407
0.21551929
0.21584704
0.21616733
0.21648012
0.21678543
0.21708323
0.21737353
0.21765631
0.21793158
0.21819933
0.21845956
0.21871227
0.21895745
0.21919512
0.21942526
0.21964787
0.21986295
0.2200705
0.22027051
0.22046298
0.22064791
0.22082529
0.22099511
0.22115737
0.22131206
0.22145916
0.22159868
0.22173059
0.22185489
0.22197156
0.22208059
0.22218197
0.22227568
0.2223617
0.22244001
0.2225106
0.22257345
0.22262853
0.22267581
0.22271529
0.22274693
0.2227707
0.22278659
0.22279464
0.21315561
0.21353044
0.21389805
0.21425848
0.2146117
0.21495766
0.21529635
0.21562772
0.21595177
0.21626846
0.21657779
0.21687975
0.21717432
0.2174615
0.21774127
0.21801364
0.2182786
0.21853614
0.21878627
0.21902897
0.21926424
0.21949209
0.2197125
0.21992548
0.22013102
0.2203291
0.22051974
0.22070292
0.22087863
0.22104687
0.22120762
0.22136089
0.22150665
0.2216449
0.22177563
0.22189882
0.22201445
0.22212252
0.22222301
0.2223159
0.22240118
0.22247882
0.2225488
0.22261111
0.22266573
0.22271262
0.22275177
0.22278314
0.22280672
0.22282249
0.22283047
0.21329834
0.2136682
0.21403113
0.21438704
0.21473589
0.21507763
0.21541222
0.21573964
0.21605986
0.21637285
0.21667861
0.21697711
0.21726835
0.21755231
0.21782899
0.21809837
0.21836045
0.21861522
0.21886268
0.21910282
0.21933563
0.21956112
0.21977927
0.21999007
0.22019353
0.22038964
0.22057838
0.22075975
0.22093375
0.22110035
0.22125956
0.22141136
0.22155574
0.22169269
0.22182219
0.22194424
0.22205881
0.22216589
0.22226546
0.22235751
0.22244202
0.22251896
0.22258832
0.22265008
0.22270422
0.2227507
0.22278951
0.22282062
0.222844
0.22285963
0.22286755
0.21307302
0.21344477
0.21380975
0.21416792
0.21451922
0.21486359
0.21520099
0.21553138
0.21585473
0.21617102
0.21648021
0.21678229
0.21707725
0.21736506
0.21764572
0.2179192
0.21818551
0.21844464
0.21869656
0.21894128
0.21917879
0.21940908
0.21963214
0.21984796
0.22005654
0.22025787
0.22045194
0.22063874
0.22081826
0.22099049
0.22115542
0.22131304
0.22146334
0.2216063
0.22174191
0.22187015
0.22199102
0.2221045
0.22221056
0.22230919
0.22240037
0.22248409
0.22256032
0.22262905
0.22269024
0.22274388
0.22278995
0.22282841
0.22285924
0.22288241
0.22289791
0.22290576
0.2128546
0.21322798
0.21359466
0.21395468
0.214308
0.21465458
0.21499437
0.21532733
0.21565343
0.21597262
0.21628487
0.21659018
0.2168885
0.21717982
0.21746413
0.2177414
0.21801163
0.21827479
0.21853089
0.2187799
0.21902182
0.21925663
0.21948433
0.21970491
0.21991835
0.22012466
0.22032381
0.22051579
0.2207006
0.22087823
0.22104866
0.22121187
0.22136787
0.22151663
0.22165814
0.22179238
0.22191934
0.22203901
0.22215136
0.22225638
0.22235405
0.22244435
0.22252726
0.22260277
0.22267084
0.22273145
0.22278459
0.22283022
0.22286832
0.22289887
0.22292183
0.22293719
0.22294497
0.21264339
0.21301804
0.21338605
0.21374752
0.21410246
0.21445084
0.21479262
0.21512774
0.21545618
0.21577789
0.21609283
0.21640099
0.21670232
0.21699681
0.21728443
0.21756516
0.21783898
0.21810588
0.21836585
0.21861885
0.2188649
0.21910396
0.21933603
0.2195611
0.21977915
0.21999017
0.22019415
0.22039108
0.22058094
0.22076373
0.22093942
0.22110801
0.22126949
0.22142383
0.22157102
0.22171105
0.2218439
0.22196956
0.222088
0.22219921
0.22230317
0.22239986
0.22248926
0.22257135
0.22264611
0.22271351
0.22277354
0.22282616
0.22287135
0.22290909
0.22293935
0.2229621
0.22297732
0.22298502
0.21281516
0.21318409
0.21354658
0.21390271
0.21425247
0.21459582
0.21493271
0.21526309
0.21558693
0.21590419
0.21621483
0.21651882
0.21681612
0.21710672
0.21739058
0.21766768
0.21793801
0.21820154
0.21845825
0.21870813
0.21895116
0.21918733
0.21941662
0.21963901
0.2198545
0.22006306
0.22026469
0.22045937
0.22064708
0.22082781
0.22100155
0.22116828
0.22132799
0.22148065
0.22162626
0.22176479
0.22189623
0.22202056
0.22213776
0.22224781
0.2223507
0.2224464
0.22253489
0.22261614
0.22269015
0.22275687
0.2228163
0.2228684
0.22291315
0.22295052
0.22298048
0.22300301
0.22301808
0.22302572
0.21298873
0.21335184
0.21370872
0.21405943
0.21440393
0.21474218
0.21507412
0.21539971
0.21571891
0.21603167
0.21633796
0.21663774
0.21693098
0.21721765
0.21749772
0.21777116
0.21803795
0.21829808
0.21855151
0.21879823
0.21903822
0.21927147
0.21949795
0.21971765
0.21993055
0.22013664
0.22033589
0.2205283
0.22071384
0.22089251
0.22106428
0.22122913
0.22138705
0.22153803
0.22168203
0.22181905
0.22194907
0.22207207
0.22218802
0.2222969
0.22239871
0.2224934
0.22258097
0.22266139
0.22273463
0.22280067
0.2228595
0.22291107
0.22295537
0.22299237
0.22302203
0.22304434
0.22305927
0.22306683
0.21316298
0.21352026
0.21387148
0.21421671
0.21455591
0.21488903
0.21521599
0.21553677
0.2158513
0.21615955
0.21646147
0.21675703
0.21704618
0.21732891
0.21760517
0.21787494
0.21813819
0.2183949
0.21864504
0.2188886
0.21912554
0.21935586
0.21957952
0.21979652
0.22000683
0.22021043
0.22040731
0.22059744
0.22078081
0.2209574
0.2211272
0.22129017
0.22144631
0.22159559
0.22173799
0.2218735
0.22200209
0.22212375
0.22223844
0.22234616
0.22244688
0.22254057
0.22262722
0.22270679
0.22277927
0.22284464
0.22290285
0.2229539
0.22299775
0.22303437
0.22306374
0.22308583
0.22310061
0.2231081
0.21333668
0.21368812
0.2140337
0.21437346
0.21470736
0.21503534
0.21535734
0.2156733
0.21598318
0.21628692
0.21658448
0.21687583
0.21716092
0.21743971
0.21771218
0.21797828
0.21823801
0.21849131
0.21873818
0.21897858
0.21921249
0.21943989
0.21966075
0.21987506
0.22008279
0.22028392
0.22047843
0.2206663
0.2208475
0.22102203
0.22118986
0.22135096
0.22150532
0.22165291
0.22179372
0.22192773
0.2220549
0.22217523
0.22228868
0.22239523
0.22249487
0.22258756
0.22267329
0.22275203
0.22282375
0.22288844
0.22294605
0.22299657
0.22303997
0.22307622
0.2231053
0.22312716
0.2231418
0.22314921
0.21350844
0.21385409
0.21419406
0.21452839
0.21485703
0.21517993
0.215497
0.2158082
0.21611347
0.21641275
0.21670601
0.21699319
0.21727425
0.21754915
0.21781787
0.21808036
0.21833659
0.21858654
0.21883016
0.21906745
0.21929836
0.21952288
0.21974097
0.21995262
0.2201578
0.22035649
0.22054866
0.22073429
0.22091337
0.22108586
0.22125174
0.221411
0.2215636
0.22170954
0.22184877
0.22198129
0.22210706
0.22222607
0.22233829
0.2224437
0.22254227
0.22263398
0.22271881
0.22279672
0.22286769
0.2229317
0.22298872
0.22303873
0.22308168
0.22311757
0.22314635
0.22316799
0.22318249