/*--------------------------------*- C++ -*----------------------------------*\
| =========                 |                                                 |
| \\      /  F ield         | OpenFOAM: The Open Source CFD Toolbox           |
|  \\    /   O peration     | Version:  2312                                  |
|   \\  /    A nd           | Website:  www.openfoam.com                      |
|    \\/     M anipulation  |                                                 |
\*---------------------------------------------------------------------------*/
FoamFile
{
    version     2.0;
    format      ascii;
    arch        "LSB;label=32;scalar=64";
    class       surfaceScalarField;
    location    "0.09";
    object      phi;
}
// * * * * * * * * * * * * * * * * * * * * * * * * * * * * * * * * * * * * * //

dimensions      [1 0 -1 0 0 0 0];

oriented        oriented;

internalField   nonuniform List<scalar> 
6327
(
2.9836358e-08
1.0111416e-09
2.9041079e-08
1.0004852e-09
2.8265428e-08
9.9016274e-10
2.7509647e-08
9.8006361e-10
2.6773951e-08
9.7016356e-10
2.6058542e-08
9.6047277e-10
2.5363612e-08
9.5100341e-10
2.4689346e-08
9.4176541e-10
2.4035914e-08
9.3276779e-10
2.3403471e-08
9.2401974e-10
2.2792152e-08
9.155313e-10
2.2202068e-08
9.0731321e-10
2.1633302e-08
8.9937683e-10
2.1085904e-08
8.9173394e-10
2.0559887e-08
8.8439652e-10
2.0055225e-08
8.7737635e-10
1.9571845e-08
8.706849e-10
1.9109627e-08
8.6433281e-10
1.8668395e-08
8.5832948e-10
1.8247918e-08
8.5268275e-10
1.7847904e-08
8.4739851e-10
1.7467996e-08
8.4248037e-10
1.7107773e-08
8.3792929e-10
1.6766743e-08
8.3374351e-10
1.6444345e-08
8.2991805e-10
1.6139947e-08
8.26445e-10
1.5852845e-08
8.2331312e-10
1.5582266e-08
8.2050807e-10
1.5327366e-08
8.1801234e-10
1.5087234e-08
8.1580542e-10
1.4860897e-08
8.1386385e-10
1.464732e-08
8.1216138e-10
1.4445416e-08
8.1066854e-10
1.4254052e-08
8.0935225e-10
1.4072061e-08
8.0817498e-10
1.3898258e-08
8.0709038e-10
1.3731451e-08
8.0605099e-10
1.3570479e-08
8.0496385e-10
1.3414011e-08
8.0390693e-10
1.3261016e-08
8.0247086e-10
8.0252817e-10
2.9839884e-08
1.9356065e-09
2.9044774e-08
1.9138186e-09
2.8269287e-08
1.8923843e-09
2.7513671e-08
1.8711794e-09
2.6778143e-08
1.8501817e-09
2.6062905e-08
1.8293912e-09
2.5368148e-08
1.8088095e-09
2.4694055e-08
1.7884371e-09
2.4040796e-08
1.7682759e-09
2.3408526e-08
1.7483296e-09
2.2797379e-08
1.7286054e-09
2.2207466e-08
1.7091136e-09
2.1638868e-08
1.6898678e-09
2.1091637e-08
1.6708853e-09
2.0565784e-08
1.6521869e-09
2.0061282e-08
1.6337966e-09
1.957806e-08
1.6157416e-09
1.9115996e-08
1.5980521e-09
1.8674914e-08
1.5807603e-09
1.8254582e-08
1.5639007e-09
1.7854709e-08
1.5475091e-09
1.7474939e-08
1.5316223e-09
1.7114848e-08
1.5162771e-09
1.6773947e-08
1.5015101e-09
1.6451673e-08
1.487357e-09
1.6147396e-08
1.4738522e-09
1.5860411e-08
1.4610276e-09
1.5589946e-08
1.4489129e-09
1.5335157e-08
1.4375339e-09
1.5095134e-08
1.4269129e-09
1.4868904e-08
1.4170674e-09
1.4655433e-08
1.408009e-09
1.4453633e-08
1.3997424e-09
1.4262373e-08
1.392263e-09
1.4080483e-08
1.3855548e-09
1.3906779e-08
1.3795806e-09
1.3740064e-08
1.3742979e-09
1.3579175e-08
1.3695673e-09
1.3422789e-08
1.3655739e-09
1.3269963e-08
1.3614345e-09
1.3611647e-09
2.9846634e-08
2.8600708e-09
2.9051881e-08
2.8272044e-09
2.8276743e-08
2.7946582e-09
2.7521476e-08
2.7623423e-09
2.6786302e-08
2.7302418e-09
2.6071421e-08
2.6983472e-09
2.5377023e-08
2.6666491e-09
2.470329e-08
2.6351389e-09
2.4050391e-08
2.6038108e-09
2.341848e-08
2.5726635e-09
2.2807689e-08
2.5417013e-09
2.2218129e-08
2.5109341e-09
2.164988e-08
2.4803777e-09
2.1102992e-08
2.4500552e-09
2.0577476e-08
2.4199959e-09
2.0073305e-08
2.3902363e-09
1.9590405e-08
2.3608194e-09
1.9128653e-08
2.3317947e-09
1.8687875e-08
2.3032175e-09
1.8267837e-08
2.2751487e-09
1.7868246e-08
2.2476538e-09
1.7488747e-08
2.2208026e-09
1.7128917e-08
2.1946677e-09
1.6788264e-08
2.1693243e-09
1.6466227e-08
2.1448485e-09
1.6162176e-08
2.1213167e-09
1.5875407e-08
2.0988042e-09
1.5605147e-08
2.0773841e-09
1.5350554e-08
2.0571256e-09
1.5110719e-08
2.0380941e-09
1.4884669e-08
2.0203478e-09
1.4671372e-08
2.003936e-09
1.4469741e-08
1.988898e-09
1.4278643e-08
1.9752581e-09
1.409691e-08
1.9630226e-09
1.3923353e-08
1.9521653e-09
1.3756772e-08
1.9426494e-09
1.3595993e-08
1.934296e-09
1.3439717e-08
1.9273781e-09
1.3287147e-08
1.9204548e-09
1.9197855e-09
2.9856638e-08
3.7841993e-09
2.9062418e-08
3.7403235e-09
2.8287811e-08
3.696658e-09
2.7533081e-08
3.6532207e-09
2.6798448e-08
3.6100064e-09
2.6084112e-08
3.5669971e-09
2.5390261e-08
3.5241726e-09
2.4717076e-08
3.4815152e-09
2.4064724e-08
3.4390116e-09
2.3433357e-08
3.3966556e-09
2.2823108e-08
3.3544482e-09
2.2234084e-08
3.3123993e-09
2.1666365e-08
3.2705277e-09
2.1119997e-08
3.2288616e-09
2.0594993e-08
3.1874394e-09
2.0091322e-08
3.1463098e-09
1.9608909e-08
3.1055315e-09
1.9147631e-08
3.0651734e-09
1.870731e-08
3.0253138e-09
1.8287714e-08
2.9860398e-09
1.7888548e-08
2.9474468e-09
1.7509454e-08
2.9096372e-09
1.7150011e-08
2.8727195e-09
1.6809727e-08
2.836807e-09
1.648804e-08
2.802016e-09
1.618432e-08
2.768465e-09
1.5897865e-08
2.736272e-09
1.5627902e-08
2.7055538e-09
1.537359e-08
2.6764231e-09
1.5134022e-08
2.6489872e-09
1.4908226e-08
2.623345e-09
1.469517e-08
2.5995845e-09
1.449377e-08
2.5777793e-09
1.4302894e-08
2.5579834e-09
1.4121371e-08
2.5402264e-09
1.3948011e-08
2.524495e-09
1.3781607e-08
2.5107618e-09
1.3620971e-08
2.4988147e-09
1.3464811e-08
2.4890058e-09
1.3312583e-08
2.4791459e-09
2.4782811e-09
3.0682849e-08
4.7632262e-09
2.9869886e-08
4.708004e-09
2.9076366e-08
4.6530147e-09
2.8302474e-08
4.5981987e-09
2.7548467e-08
4.5436232e-09
2.6814565e-08
4.4892805e-09
2.6100963e-08
4.4351427e-09
2.5407849e-08
4.3811788e-09
2.4735401e-08
4.3273616e-09
2.4083785e-08
4.2736712e-09
2.3453151e-08
4.2200962e-09
2.2843629e-08
4.1666352e-09
2.2255326e-08
4.1132979e-09
2.1688318e-08
4.0601057e-09
2.1142651e-08
4.0070926e-09
2.0618333e-08
3.954306e-09
2.0115334e-08
3.9018067e-09
1.9633574e-08
3.8496693e-09
1.917293e-08
3.797982e-09
1.8733223e-08
3.7468457e-09
1.8314216e-08
3.6963741e-09
1.7915616e-08
3.646692e-09
1.7537064e-08
3.5979344e-09
1.7178136e-08
3.5502453e-09
1.6838341e-08
3.5037757e-09
1.6517118e-08
3.4586822e-09
1.6213835e-08
3.4151247e-09
1.5927793e-08
3.3732639e-09
1.5658218e-08
3.3332597e-09
1.5404272e-08
3.295268e-09
1.5165049e-08
3.2594383e-09
1.4939579e-08
3.2259098e-09
1.4726833e-08
3.1948091e-09
1.4525728e-08
3.1662443e-09
1.4335132e-08
3.1402997e-09
1.4153877e-08
3.1170293e-09
1.3980765e-08
3.096437e-09
1.3814586e-08
3.0785029e-09
1.3654121e-08
3.0630102e-09
1.349812e-08
3.0503227e-09
1.3345953e-08
3.0376877e-09
3.0359723e-09
2.7180956e-08
5.5907644e-09
2.6461881e-08
5.525606e-09
2.5760018e-08
5.4606813e-09
2.5075549e-08
5.3959662e-09
2.4408699e-08
5.3315119e-09
2.3759656e-08
5.2673022e-09
2.3128591e-08
5.2032978e-09
2.2515668e-08
5.1394581e-09
2.1921044e-08
5.0757483e-09
2.1344863e-08
5.0121424e-09
2.0787257e-08
4.9486251e-09
2.0248339e-08
4.8851928e-09
1.9728201e-08
4.8218551e-09
1.9226908e-08
4.7586361e-09
1.8744498e-08
4.695575e-09
1.8280977e-08
4.632727e-09
1.7836314e-08
4.5701638e-09
1.741044e-08
4.5079741e-09
1.700324e-08
4.446263e-09
1.6614554e-08
4.3851515e-09
1.6244174e-08
4.3247764e-09
1.5891835e-08
4.2652884e-09
1.555722e-08
4.2068513e-09
1.5239952e-08
4.1496401e-09
1.4939597e-08
4.0938392e-09
1.4655656e-08
4.0396402e-09
1.4387573e-08
3.9872393e-09
1.4134727e-08
3.9368349e-09
1.3896435e-08
3.8886247e-09
1.3671957e-08
3.8428025e-09
1.3460491e-08
3.7995546e-09
1.3261182e-08
3.7590564e-09
1.3073119e-08
3.7214679e-09
1.2895347e-08
3.686928e-09
1.2726864e-08
3.6555494e-09
1.2566638e-08
3.6274047e-09
1.2413596e-08
3.6025304e-09
1.2266706e-08
3.5808591e-09
1.2124703e-08
3.5623904e-09
1.1987143e-08
3.5466599e-09
1.1850324e-08
3.5342645e-09
3.5248242e-09
2.7949362e-08
6.440767e-09
2.7211326e-08
6.3652978e-09
2.6490967e-08
6.29012e-09
2.5788503e-08
6.2152068e-09
2.5104157e-08
6.1405838e-09
2.4438116e-08
6.0662196e-09
2.3790554e-08
5.9920623e-09
2.3161637e-08
5.9180612e-09
2.2551523e-08
5.8441742e-09
2.1960361e-08
5.7703694e-09
2.1388281e-08
5.6966277e-09
2.0835398e-08
5.6229435e-09
2.0301803e-08
5.5493267e-09
1.9787561e-08
5.4758039e-09
1.9292708e-08
5.4024199e-09
1.8817246e-08
5.329238e-09
1.8361142e-08
5.2563413e-09
1.792432e-08
5.1838325e-09
1.7506661e-08
5.1118342e-09
1.7107998e-08
5.0404881e-09
1.6728114e-08
4.9699543e-09
1.6366736e-08
4.90041e-09
1.6023536e-08
4.8320482e-09
1.5698127e-08
4.7650754e-09
1.539006e-08
4.69971e-09
1.5098825e-08
4.636179e-09
1.4823848e-08
4.5747159e-09
1.4564492e-08
4.515557e-09
1.4320059e-08
4.4589386e-09
1.4089787e-08
4.4050928e-09
1.3872857e-08
4.3542438e-09
1.366839e-08
4.3066033e-09
1.3475456e-08
4.262366e-09
1.3293073e-08
4.2217024e-09
1.3120216e-08
4.1847544e-09
1.2955824e-08
4.1516154e-09
1.2798797e-08
4.1223541e-09
1.2648062e-08
4.0968658e-09
1.2502338e-08
4.075345e-09
1.2361061e-08
4.0565946e-09
1.2220962e-08
4.0440428e-09
4.0275969e-09
2.8743917e-08
7.3135303e-09
2.7986646e-08
7.2275168e-09
2.724754e-08
7.1417857e-09
2.6526841e-08
7.0563734e-09
2.582477e-08
6.9712837e-09
2.5141518e-08
6.8864678e-09
2.4477259e-08
6.8018614e-09
2.3832162e-08
6.7174045e-09
2.3206387e-08
6.6330475e-09
2.2600082e-08
6.5487531e-09
2.201338e-08
6.4644984e-09
2.1446394e-08
6.380276e-09
2.0899215e-08
6.2960963e-09
2.0371905e-08
6.2119889e-09
1.9864497e-08
6.1280041e-09
1.9376991e-08
6.0442138e-09
1.8909347e-08
5.9607126e-09
1.8461485e-08
5.8776178e-09
1.803328e-08
5.7950698e-09
1.7624556e-08
5.713231e-09
1.7235087e-08
5.6322855e-09
1.6864591e-08
5.5524374e-09
1.6512728e-08
5.4739093e-09
1.6179099e-08
5.3969396e-09
1.5863243e-08
5.3217811e-09
1.5564633e-08
5.2486968e-09
1.5282682e-08
5.1779577e-09
1.5016736e-08
5.1098387e-09
1.4766079e-08
5.0446151e-09
1.4529929e-08
4.9825579e-09
1.4307448e-08
4.9239296e-09
1.4097737e-08
4.868979e-09
1.3899842e-08
4.8179361e-09
1.3712758e-08
4.7710037e-09
1.3535436e-08
4.7283538e-09
1.3366788e-08
4.6901028e-09
1.3205688e-08
4.6563487e-09
1.3051019e-08
4.6269667e-09
1.2901511e-08
4.6022904e-09
1.2756409e-08
4.5805879e-09
1.2613195e-08
4.5671991e-09
4.5452713e-09
3.0360757e-08
8.3070485e-09
2.9565451e-08
8.2096478e-09
2.8788669e-08
8.1127417e-09
2.8030568e-08
8.016144e-09
2.72914e-08
7.9199239e-09
2.6571387e-08
7.8240589e-09
2.5870719e-08
7.7284835e-09
2.5189573e-08
7.633122e-09
2.452812e-08
7.5379053e-09
2.3886521e-08
7.4427769e-09
2.3264924e-08
7.3476943e-09
2.2663461e-08
7.252631e-09
2.2082245e-08
7.157578e-09
2.1521363e-08
7.0625466e-09
2.0980877e-08
6.9675694e-09
2.0460815e-08
6.8727026e-09
1.9961173e-08
6.778027e-09
1.9481904e-08
6.683649e-09
1.9022922e-08
6.5897008e-09
1.8584094e-08
6.4963408e-09
1.8165236e-08
6.4037527e-09
1.7766111e-08
6.3121448e-09
1.7386428e-08
6.2217483e-09
1.7025835e-08
6.1328157e-09
1.6683919e-08
6.045618e-09
1.6360205e-08
5.9604423e-09
1.6054153e-08
5.8775883e-09
1.5765158e-08
5.7973647e-09
1.5492551e-08
5.7200854e-09
1.5235595e-08
5.6460649e-09
1.4993493e-08
5.5756136e-09
1.4765385e-08
5.5090328e-09
1.4550351e-08
5.4466088e-09
1.4347415e-08
5.3886074e-09
1.415555e-08
5.3352647e-09
1.3973681e-08
5.2867832e-09
1.3800696e-08
5.2433043e-09
1.3635442e-08
5.2049523e-09
1.3476765e-08
5.1715968e-09
1.3323403e-08
5.1436569e-09
1.3174433e-08
5.1190469e-09
1.3027887e-08
5.1043046e-09
5.0780772e-09
3.1230388e-08
9.2380987e-09
3.0414822e-08
9.1296121e-09
2.9618266e-08
9.0214509e-09
2.8840929e-08
8.913667e-09
2.8083069e-08
8.8063175e-09
2.7344904e-08
8.6993565e-09
2.6626627e-08
8.5927026e-09
2.5928415e-08
8.4862692e-09
2.5250441e-08
8.379979e-09
2.4592865e-08
8.2737687e-09
2.3955836e-08
8.167591e-09
2.3339485e-08
8.0614158e-09
2.2743923e-08
7.9552333e-09
2.2169234e-08
7.8490555e-09
2.1615476e-08
7.7429186e-09
2.1082672e-08
7.6368849e-09
2.0570812e-08
7.5310445e-09
2.0079844e-08
7.4255156e-09
1.9609673e-08
7.3204459e-09
1.9160157e-08
7.216012e-09
1.8731104e-08
7.112419e-09
1.8322265e-08
7.0098999e-09
1.7933338e-08
6.9087132e-09
1.7563958e-08
6.8091415e-09
1.7213698e-08
6.7114885e-09
1.688207e-08
6.6160763e-09
1.6568517e-08
6.5232409e-09
1.6272419e-08
6.4333295e-09
1.5993088e-08
6.3466948e-09
1.5729771e-08
6.263691e-09
1.5481651e-08
6.1846681e-09
1.5247848e-08
6.1099664e-09
1.5027422e-08
6.0399102e-09
1.4819375e-08
5.9748015e-09
1.4622658e-08
5.9149103e-09
1.4436171e-08
5.8604702e-09
1.4258776e-08
5.8116488e-09
1.4089299e-08
5.7685941e-09
1.3926547e-08
5.7311831e-09
1.3769271e-08
5.6998689e-09
1.3616376e-08
5.6723898e-09
1.3466344e-08
5.6558754e-09
5.6263405e-09
3.2984602e-08
1.0315379e-08
3.2129004e-08
1.0194053e-08
3.1292881e-08
1.0073906e-08
3.0476297e-08
9.954132e-09
2.9679495e-08
9.8348275e-09
2.8902729e-08
9.7160147e-09
2.8146214e-08
9.5976248e-09
2.7410144e-08
9.4795618e-09
2.6694697e-08
9.3617287e-09
2.6000046e-08
9.2440407e-09
2.5326352e-08
9.1264283e-09
2.4673763e-08
9.0088394e-09
2.4042408e-08
8.8912414e-09
2.3432395e-08
8.7736232e-09
2.2843805e-08
8.6559983e-09
2.227669e-08
8.5384066e-09
2.1731068e-08
8.4209171e-09
2.1206921e-08
8.303629e-09
2.0704191e-08
8.1866733e-09
2.0222774e-08
8.0702129e-09
1.9762518e-08
7.954443e-09
1.932322e-08
7.8395906e-09
1.890462e-08
7.7259131e-09
1.8506403e-08
7.6136968e-09
1.812819e-08
7.5032547e-09
1.7769542e-08
7.3949232e-09
1.7429954e-08
7.2890593e-09
1.7108853e-08
7.1860359e-09
1.6805603e-08
7.0862382e-09
1.6519499e-08
6.9900583e-09
1.6249769e-08
6.8978899e-09
1.5995576e-08
6.8101228e-09
1.5756023e-08
6.7271366e-09
1.5530146e-08
6.6492938e-09
1.5316929e-08
6.5769328e-09
1.5115298e-08
6.5103582e-09
1.4924132e-08
6.4498346e-09
1.4742268e-08
6.3955576e-09
1.4568508e-08
6.3476959e-09
1.4401626e-08
6.3061448e-09
1.4240376e-08
6.2713496e-09
1.4083516e-08
6.2410265e-09
1.3929845e-08
6.2224302e-09
6.1903955e-09
3.3934317e-08
1.1308343e-08
3.3057425e-08
1.117525e-08
3.2200481e-08
1.1043009e-08
3.1363636e-08
1.0911274e-08
3.0547151e-08
1.0780103e-08
2.9751275e-08
1.064948e-08
2.8976223e-08
1.0519315e-08
2.8222186e-08
1.03895e-08
2.7489346e-08
1.0259928e-08
2.6777875e-08
1.0130507e-08
2.6087934e-08
1.0001162e-08
2.5419668e-08
9.8718365e-09
2.4773206e-08
9.7424959e-09
2.4148649e-08
9.6131284e-09
2.3546076e-08
9.4837491e-09
2.2965531e-08
9.3544021e-09
2.2407027e-08
9.2251633e-09
2.1870538e-08
9.0961416e-09
2.1355996e-08
8.9674806e-09
2.0863289e-08
8.8393589e-09
2.0392252e-08
8.7119907e-09
1.9942672e-08
8.5856247e-09
1.9514276e-08
8.4605433e-09
1.9106736e-08
8.3370605e-09
1.8719658e-08
8.2155196e-09
1.8352589e-08
8.09629e-09
1.8005007e-08
7.9797634e-09
1.7676325e-08
7.8663498e-09
1.7365887e-08
7.7564723e-09
1.7072971e-08
7.6505623e-09
1.6796787e-08
7.5490531e-09
1.653648e-08
7.4523742e-09
1.6291132e-08
7.3609446e-09
1.6059759e-08
7.2751649e-09
1.5841323e-08
7.1954104e-09
1.563473e-08
7.1220204e-09
1.5438836e-08
7.0552909e-09
1.5252454e-08
6.9954462e-09
1.5074365e-08
6.9426741e-09
1.4903307e-08
6.8968964e-09
1.4738035e-08
6.8585213e-09
1.4577173e-08
6.8253663e-09
1.4419733e-08
6.804474e-09
6.7705751e-09
3.5833774e-08
1.2474468e-08
3.491499e-08
1.2327613e-08
3.4016499e-08
1.2182134e-08
3.3138482e-08
1.2037429e-08
3.2281154e-08
1.1893375e-08
3.144478e-08
1.1749977e-08
3.0629604e-08
1.1607183e-08
2.9835837e-08
1.1464885e-08
2.9063673e-08
1.1322961e-08
2.8313294e-08
1.1181298e-08
2.7584872e-08
1.1039797e-08
2.6878566e-08
1.0898378e-08
2.6194522e-08
1.0756982e-08
2.553286e-08
1.061557e-08
2.4893681e-08
1.0474132e-08
2.4277055e-08
1.0332684e-08
2.3683022e-08
1.0191275e-08
2.3111586e-08
1.0049989e-08
2.2562712e-08
9.9089438e-09
2.2036322e-08
9.7682963e-09
2.1532292e-08
9.6282412e-09
2.1050448e-08
9.4890117e-09
2.0590563e-08
9.3508784e-09
2.0152351e-08
9.2141487e-09
1.9735468e-08
9.0791645e-09
1.9339507e-08
8.9462993e-09
1.8963998e-08
8.8159554e-09
1.8608403e-08
8.6885593e-09
1.8272118e-08
8.5645576e-09
1.795447e-08
8.4444115e-09
1.7654718e-08
8.3285913e-09
1.7372054e-08
8.2175699e-09
1.7105605e-08
8.1118164e-09
1.685443e-08
8.0117887e-09
1.6617529e-08
7.9179261e-09
1.6393842e-08
7.8306405e-09
1.6182252e-08
7.7503062e-09
1.5981594e-08
7.6772507e-09
1.5790659e-08
7.6117276e-09
1.5608204e-08
7.553943e-09
1.5432939e-08
7.5038516e-09
1.5263602e-08
7.4618075e-09
1.5098711e-08
7.4258209e-09
1.4937399e-08
7.4024968e-09
7.3672264e-09
3.6868598e-08
1.3533039e-08
3.5927415e-08
1.3373567e-08
3.5007057e-08
1.3215209e-08
3.410774e-08
1.3057685e-08
3.3229721e-08
1.2900942e-08
3.2373264e-08
1.2744942e-08
3.1538608e-08
1.2589602e-08
3.0725964e-08
1.2434796e-08
2.9935526e-08
1.2280395e-08
2.9167476e-08
1.2126276e-08
2.8421986e-08
1.1972337e-08
2.7699214e-08
1.1818493e-08
2.69993e-08
1.166468e-08
2.6322363e-08
1.1510859e-08
2.5668497e-08
1.135702e-08
2.5037765e-08
1.1203183e-08
2.4430199e-08
1.10494e-08
2.3845795e-08
1.0895762e-08
2.3284507e-08
1.07424e-08
2.2746248e-08
1.0589481e-08
2.223088e-08
1.0437219e-08
2.1738218e-08
1.0285864e-08
2.1268019e-08
1.013571e-08
2.0819984e-08
9.9870887e-09
2.0393755e-08
9.8403699e-09
1.9988907e-08
9.6959575e-09
1.9604955e-08
9.5542862e-09
1.9241343e-08
9.4158174e-09
1.8897449e-08
9.2810341e-09
1.8572584e-08
9.150435e-09
1.8265987e-08
9.0245292e-09
1.7976833e-08
8.9038288e-09
1.7704228e-08
8.7888423e-09
1.7447213e-08
8.6800666e-09
1.7204766e-08
8.577979e-09
1.6975808e-08
8.4830283e-09
1.6759202e-08
8.3956237e-09
1.655376e-08
8.3161245e-09
1.6358251e-08
8.2448139e-09
1.617141e-08
8.1819169e-09
1.5991917e-08
8.1274247e-09
1.5818486e-08
8.0816328e-09
1.5649549e-08
8.0428064e-09
1.548429e-08
8.0169732e-09
7.9807074e-09
3.8921353e-08
1.4793777e-08
3.7936278e-08
1.4619422e-08
3.6972404e-08
1.444669e-08
3.6029927e-08
1.4275026e-08
3.5109099e-08
1.410431e-08
3.4210195e-08
1.3934491e-08
3.3333476e-08
1.3765499e-08
3.2479177e-08
1.3597222e-08
3.1647508e-08
1.3429521e-08
3.0838663e-08
1.3262258e-08
3.0052826e-08
1.3095307e-08
2.9290167e-08
1.2928559e-08
2.8550841e-08
1.2761926e-08
2.7834984e-08
1.2595341e-08
2.7142711e-08
1.2428764e-08
2.6474109e-08
1.2262186e-08
2.5829232e-08
1.209563e-08
2.5208106e-08
1.1929153e-08
2.4610714e-08
1.1762856e-08
2.4037001e-08
1.1596878e-08
2.3486867e-08
1.1431402e-08
2.2960162e-08
1.1266655e-08
2.2456686e-08
1.110291e-08
2.1976182e-08
1.0940481e-08
2.1518336e-08
1.0779726e-08
2.1082772e-08
1.0621041e-08
2.0669051e-08
1.0464861e-08
2.0276669e-08
1.0311652e-08
1.9905052e-08
1.0161911e-08
1.9553562e-08
1.0016156e-08
1.922149e-08
9.874924e-09
1.8908057e-08
9.7387617e-09
1.8612419e-08
9.6082201e-09
1.8333662e-08
9.4838467e-09
1.8070808e-08
9.366177e-09
1.7822817e-08
9.2557264e-09
1.7588587e-08
9.15298e-09
1.7366961e-08
9.0583822e-09
1.7156732e-08
8.9723241e-09
1.6956645e-08
8.8951191e-09
1.6765411e-08
8.8270121e-09
1.6581685e-08
8.768034e-09
1.6404145e-08
8.7184255e-09
1.6231155e-08
8.676744e-09
1.6061903e-08
8.6483674e-09
8.6113883e-09
4.0046128e-08
1.5921928e-08
3.9037553e-08
1.5734035e-08
3.8050737e-08
1.5547522e-08
3.708592e-08
1.5362153e-08
3.6143389e-08
1.5177851e-08
3.5223422e-08
1.4994554e-08
3.4326278e-08
1.481216e-08
3.3452188e-08
1.4630539e-08
3.2601362e-08
1.444954e-08
3.1773996e-08
1.4269019e-08
3.0970272e-08
1.4088845e-08
3.0190359e-08
1.3908905e-08
2.9434409e-08
1.3729107e-08
2.8702554e-08
1.3549384e-08
2.7994902e-08
1.3369694e-08
2.7311531e-08
1.319003e-08
2.665249e-08
1.3010418e-08
2.6017792e-08
1.2830922e-08
2.5407411e-08
1.265165e-08
2.4821279e-08
1.2472753e-08
2.4259282e-08
1.2294429e-08
2.3721259e-08
1.211692e-08
2.3206992e-08
1.1940517e-08
2.2716209e-08
1.1765559e-08
2.2248581e-08
1.1592427e-08
2.1803714e-08
1.1421546e-08
2.1381151e-08
1.1253379e-08
2.098037e-08
1.1088426e-08
2.0600781e-08
1.0927216e-08
2.0241725e-08
1.0770304e-08
1.9902474e-08
1.0618262e-08
1.9582233e-08
1.0471677e-08
1.9280135e-08
1.0331136e-08
1.899525e-08
1.0197226e-08
1.8726579e-08
1.0070521e-08
1.8473062e-08
9.9515726e-09
1.8233578e-08
9.8409037e-09
1.8006949e-08
9.7389929e-09
1.7791948e-08
9.6462636e-09
1.7587296e-08
9.5630597e-09
1.7391682e-08
9.4896483e-09
1.7203731e-08
9.4261017e-09
1.7022085e-08
9.3726171e-09
1.6845052e-08
9.3280598e-09
1.6671787e-08
9.2971353e-09
9.2596501e-09
4.2260063e-08
1.7283441e-08
4.1205521e-08
1.7079511e-08
4.0173168e-08
1.6877406e-08
3.9163176e-08
1.6676657e-08
3.8175826e-08
1.6477168e-08
3.7211416e-08
1.6278867e-08
3.6270226e-08
1.6081668e-08
3.5352511e-08
1.5885448e-08
3.4458501e-08
1.569006e-08
3.3588406e-08
1.5495345e-08
3.2742422e-08
1.5301155e-08
3.192073e-08
1.5107354e-08
3.1123498e-08
1.4913826e-08
3.0350874e-08
1.4720477e-08
2.9602983e-08
1.4527237e-08
2.8879927e-08
1.4334067e-08
2.8181776e-08
1.4140961e-08
2.7508568e-08
1.3947947e-08
2.6860307e-08
1.3755099e-08
2.6236954e-08
1.3562532e-08
2.5638428e-08
1.3370409e-08
2.5064601e-08
1.317894e-08
2.4515296e-08
1.2988387e-08
2.3990281e-08
1.2799059e-08
2.3489266e-08
1.2611316e-08
2.3011904e-08
1.2425565e-08
2.2557785e-08
1.2242258e-08
2.2126432e-08
1.2061888e-08
2.1717305e-08
1.1884985e-08
2.1329795e-08
1.1712112e-08
2.0963224e-08
1.154386e-08
2.0616846e-08
1.1380837e-08
2.0289843e-08
1.1223665e-08
1.9981333e-08
1.1072972e-08
1.9690364e-08
1.0929379e-08
1.9415918e-08
1.0793501e-08
1.9156916e-08
1.0665925e-08
1.8912216e-08
1.054721e-08
1.8680621e-08
1.043787e-08
1.8460882e-08
1.033836e-08
1.8251699e-08
1.0249056e-08
1.8051735e-08
1.0170249e-08
1.7859588e-08
1.0102055e-08
1.7673856e-08
1.0044643e-08
1.7492806e-08
9.9971847e-09
1.7315538e-08
9.9637275e-09
9.9258836e-09
4.3479325e-08
1.8485701e-08
4.2400183e-08
1.8267003e-08
4.1343821e-08
1.8050124e-08
4.0310456e-08
1.7834702e-08
3.9300401e-08
1.7620664e-08
3.8313957e-08
1.7407928e-08
3.7351404e-08
1.7196387e-08
3.6412992e-08
1.6985898e-08
3.5498953e-08
1.6776303e-08
3.4609497e-08
1.656744e-08
3.3744819e-08
1.6359154e-08
3.29051e-08
1.6151309e-08
3.2090504e-08
1.5943784e-08
3.1301175e-08
1.5736484e-08
3.0537231e-08
1.552934e-08
2.9798767e-08
1.5322312e-08
2.9085844e-08
1.5115396e-08
2.8398489e-08
1.4908628e-08
2.7736693e-08
1.4702087e-08
2.7100406e-08
1.4495898e-08
2.6489532e-08
1.4290234e-08
2.5903929e-08
1.4085322e-08
2.5343402e-08
1.3881439e-08
2.4807702e-08
1.3678915e-08
2.4296522e-08
1.3478131e-08
2.3809498e-08
1.3279519e-08
2.3346198e-08
1.3083557e-08
2.290613e-08
1.2890767e-08
2.2488732e-08
1.2701711e-08
2.2093375e-08
1.2516985e-08
2.1719363e-08
1.2337213e-08
2.1365929e-08
1.2163039e-08
2.1032236e-08
1.1995122e-08
2.0717383e-08
1.1834125e-08
2.0420397e-08
1.1680709e-08
2.0140242e-08
1.1535523e-08
1.9875817e-08
1.1399193e-08
1.9625963e-08
1.1272312e-08
1.9389461e-08
1.1155429e-08
1.9165041e-08
1.1049033e-08
1.8951382e-08
1.0953531e-08
1.874712e-08
1.0869242e-08
1.8550825e-08
1.0796325e-08
1.836105e-08
1.073494e-08
1.817603e-08
1.0684554e-08
1.7994795e-08
1.0648591e-08
1.0610489e-08
4.4734707e-08
1.9718913e-08
4.3630748e-08
1.9484942e-08
4.2550177e-08
1.9252823e-08
4.1493274e-08
1.9022282e-08
4.0460364e-08
1.8793245e-08
3.9451752e-08
1.8565618e-08
3.8467716e-08
1.8339272e-08
3.7508506e-08
1.8114055e-08
3.6574351e-08
1.78898e-08
3.5665464e-08
1.766634e-08
3.4782039e-08
1.7443519e-08
3.3924256e-08
1.7221196e-08
3.3092273e-08
1.6999253e-08
3.2286231e-08
1.6777591e-08
3.150624e-08
1.6556141e-08
3.0752387e-08
1.6334866e-08
3.0024721e-08
1.6113766e-08
2.9323261e-08
1.5892881e-08
2.8647982e-08
1.5672298e-08
2.7998822e-08
1.5452152e-08
2.7375669e-08
1.5232629e-08
2.6778364e-08
1.501397e-08
2.6206696e-08
1.4796469e-08
2.5660398e-08
1.4580475e-08
2.5139145e-08
1.4366391e-08
2.4642552e-08
1.4154674e-08
2.4170169e-08
1.3945827e-08
2.3721482e-08
1.3740403e-08
2.3295911e-08
1.3538992e-08
2.2892806e-08
1.3342224e-08
2.2511451e-08
1.3150754e-08
2.2151058e-08
1.2965263e-08
2.1810771e-08
1.2786445e-08
2.1489669e-08
1.2614998e-08
2.1186758e-08
1.245162e-08
2.0900984e-08
1.2296995e-08
2.0631226e-08
1.2151788e-08
2.0376303e-08
1.2016625e-08
2.0134978e-08
1.189209e-08
1.9905959e-08
1.1778705e-08
1.9687902e-08
1.1676911e-08
1.9479416e-08
1.1587057e-08
1.9279045e-08
1.1509348e-08
1.9085293e-08
1.144395e-08
1.8896371e-08
1.1390606e-08
1.8711232e-08
1.1352171e-08
1.1313876e-08
4.6026758e-08
2.0983515e-08
4.4897795e-08
2.0733951e-08
4.3792854e-08
2.0486154e-08
4.2712273e-08
2.0240033e-08
4.1656384e-08
1.9995528e-08
4.0625496e-08
1.9752531e-08
3.9619882e-08
1.9510903e-08
3.8639795e-08
1.9270482e-08
3.7685464e-08
1.9031095e-08
3.6757101e-08
1.8792574e-08
3.5854901e-08
1.8554763e-08
3.4979039e-08
1.8317518e-08
3.4129672e-08
1.808072e-08
3.3306932e-08
1.7844271e-08
3.2510925e-08
1.7608103e-08
3.1741724e-08
1.7372181e-08
3.0999371e-08
1.713651e-08
3.028387e-08
1.6901136e-08
2.9595185e-08
1.6666155e-08
2.8933235e-08
1.6431711e-08
2.8297896e-08
1.6198003e-08
2.768899e-08
1.5965287e-08
2.7106287e-08
1.5733874e-08
2.6549503e-08
1.5504133e-08
2.6018291e-08
1.5276489e-08
2.5512248e-08
1.5051421e-08
2.5030903e-08
1.482946e-08
2.4573721e-08
1.4611186e-08
2.4140101e-08
1.439722e-08
2.3729373e-08
1.4188221e-08
2.3340798e-08
1.3984879e-08
2.297357e-08
1.3787907e-08
2.2626813e-08
1.3598034e-08
2.2299582e-08
1.3415993e-08
2.1990866e-08
1.3242518e-08
2.169959e-08
1.3078329e-08
2.1424613e-08
1.2924124e-08
2.1164735e-08
1.2780566e-08
2.0918697e-08
1.2648274e-08
2.0685185e-08
1.2527802e-08
2.0462834e-08
1.2419626e-08
2.0250226e-08
1.2324128e-08
2.0045873e-08
1.2241562e-08
1.9848237e-08
1.2172116e-08
1.9655509e-08
1.2115783e-08
1.9466558e-08
1.207491e-08
1.2036459e-08
4.8534631e-08
2.2548249e-08
4.7356017e-08
2.2280511e-08
4.6201858e-08
2.2014758e-08
4.5072415e-08
2.1750789e-08
4.396804e-08
2.1488605e-08
4.2889076e-08
2.1228139e-08
4.1835828e-08
2.0969277e-08
4.080857e-08
2.0711871e-08
3.9807556e-08
2.0455752e-08
3.8833014e-08
2.0200748e-08
3.7885157e-08
1.9946688e-08
3.6964178e-08
1.9693416e-08
3.6070252e-08
1.9440789e-08
3.5203529e-08
1.9188686e-08
3.4364134e-08
1.8937012e-08
3.3552165e-08
1.8685701e-08
3.2767685e-08
1.8434721e-08
3.2010725e-08
1.8184082e-08
3.1281275e-08
1.7933838e-08
3.0579283e-08
1.7684092e-08
2.9904656e-08
1.7435e-08
2.9257249e-08
1.7186775e-08
2.8636867e-08
1.6939687e-08
2.8043262e-08
1.6694064e-08
2.7476129e-08
1.6450295e-08
2.6935101e-08
1.6208826e-08
2.6419754e-08
1.5970161e-08
2.5929595e-08
1.5734855e-08
2.5464069e-08
1.5503515e-08
2.5022552e-08
1.5276793e-08
2.4604353e-08
1.5055376e-08
2.4208712e-08
1.4839988e-08
2.3834801e-08
1.4631372e-08
2.3481723e-08
1.4430293e-08
2.3148514e-08
1.4237517e-08
2.2834142e-08
1.4053813e-08
2.253751e-08
1.3879935e-08
2.2257459e-08
1.3716616e-08
2.1992766e-08
1.3564555e-08
2.1742154e-08
1.3424404e-08
2.1504286e-08
1.329675e-08
2.1277773e-08
1.3182106e-08
2.1061169e-08
1.3080891e-08
2.0852959e-08
1.2993407e-08
2.0651559e-08
1.2919881e-08
2.0455145e-08
1.2860528e-08
2.0262505e-08
1.2817252e-08
1.2778662e-08
4.9927481e-08
2.389498e-08
4.8722882e-08
2.3610585e-08
4.7543396e-08
2.3328065e-08
4.6389344e-08
2.3047418e-08
4.5261094e-08
2.276866e-08
4.4158987e-08
2.2491721e-08
4.3083326e-08
2.221648e-08
4.2034388e-08
2.1942782e-08
4.1012424e-08
2.1670458e-08
4.0017666e-08
2.1399334e-08
3.9050326e-08
2.1129241e-08
3.8110596e-08
2.0860023e-08
3.7198647e-08
2.0591538e-08
3.6314624e-08
2.0323668e-08
3.5458645e-08
2.0056318e-08
3.4630797e-08
1.9789425e-08
3.3831135e-08
1.9522963e-08
3.3059675e-08
1.9256948e-08
3.2316394e-08
1.8991441e-08
3.1601226e-08
1.8726555e-08
3.0914058e-08
1.8462459e-08
3.0254729e-08
1.8199377e-08
2.9623026e-08
1.7937594e-08
2.9018679e-08
1.7677457e-08
2.8441362e-08
1.7419375e-08
2.789069e-08
1.7163813e-08
2.7366213e-08
1.69113e-08
2.6867418e-08
1.6662415e-08
2.6393727e-08
1.6417793e-08
2.5944495e-08
1.6178112e-08
2.5519007e-08
1.5944091e-08
2.5116483e-08
1.5716483e-08
2.4736072e-08
1.5496064e-08
2.4376856e-08
1.5283628e-08
2.403785e-08
1.5079979e-08
2.3718e-08
1.4885916e-08
2.341619e-08
1.4702228e-08
2.3131239e-08
1.4529683e-08
2.2861906e-08
1.4369012e-08
2.2606889e-08
1.4220903e-08
2.236483e-08
1.4085978e-08
2.2134317e-08
1.3964785e-08
2.1913875e-08
1.3857785e-08
2.1701962e-08
1.3765326e-08
2.1496948e-08
1.3687691e-08
2.1296999e-08
1.3625287e-08
2.1100824e-08
1.3579641e-08
1.3540914e-08
5.3896477e-08
2.5886742e-08
5.2614755e-08
2.5580212e-08
5.1358413e-08
2.5276217e-08
5.0127676e-08
2.4974439e-08
4.892277e-08
2.4674588e-08
4.7744046e-08
2.4376734e-08
4.6591873e-08
2.4080876e-08
4.5466587e-08
2.3786933e-08
4.4368494e-08
2.3494781e-08
4.329787e-08
2.3204262e-08
4.2254968e-08
2.2915207e-08
4.1240021e-08
2.2627445e-08
4.0253241e-08
2.234081e-08
3.9294818e-08
2.2055145e-08
3.8364918e-08
2.1770313e-08
3.7463682e-08
2.1486197e-08
3.6591219e-08
2.1202705e-08
3.5747606e-08
2.091978e-08
3.4932887e-08
2.0637401e-08
3.4147065e-08
2.0355589e-08
3.3390102e-08
2.0074417e-08
3.2661915e-08
1.9794006e-08
3.1962375e-08
1.9514537e-08
3.12913e-08
1.923625e-08
3.0648458e-08
1.8959444e-08
3.0033559e-08
1.8684483e-08
2.9446256e-08
1.8411795e-08
2.8886139e-08
1.8141869e-08
2.8352737e-08
1.7875254e-08
2.7845515e-08
1.7612554e-08
2.7363871e-08
1.7354431e-08
2.6907136e-08
1.7101588e-08
2.6474575e-08
1.6854775e-08
2.6065383e-08
1.6614773e-08
2.5678687e-08
1.6382389e-08
2.5313548e-08
1.615845e-08
2.4968958e-08
1.5943788e-08
2.4643844e-08
1.5739239e-08
2.4337066e-08
1.5545623e-08
2.4047425e-08
1.536374e-08
2.3773656e-08
1.5194358e-08
2.3514436e-08
1.5038196e-08
2.3268386e-08
1.4895915e-08
2.3034066e-08
1.4768097e-08
2.2809978e-08
1.4655246e-08
2.2594546e-08
1.4557762e-08
2.2386103e-08
1.4475991e-08
2.2182802e-08
1.4410506e-08
2.1983276e-08
1.436252e-08
1.4323648e-08
5.6754621e-08
2.7665426e-08
5.5419964e-08
2.7338896e-08
5.4110764e-08
2.7014516e-08
5.2827556e-08
2.6692567e-08
5.1570619e-08
2.6372774e-08
5.0340252e-08
2.6055053e-08
4.9136831e-08
2.5739452e-08
4.7960722e-08
2.5425947e-08
4.681226e-08
2.5114452e-08
4.569175e-08
2.4804839e-08
4.4599471e-08
2.4496953e-08
4.3535677e-08
2.4190628e-08
4.2500602e-08
2.3885694e-08
4.1494459e-08
2.358199e-08
4.0517434e-08
2.3279363e-08
3.956969e-08
2.2977678e-08
3.8651359e-08
2.2676823e-08
3.7762545e-08
2.237671e-08
3.6903314e-08
2.2077288e-08
3.6073696e-08
2.1778542e-08
3.527368e-08
2.1480503e-08
3.4503215e-08
2.1183251e-08
3.3762199e-08
2.0886919e-08
3.3050484e-08
2.0591702e-08
3.2367872e-08
2.0297851e-08
3.1714107e-08
2.0005684e-08
3.1088878e-08
1.9715583e-08
3.0491815e-08
1.9427992e-08
2.9922487e-08
1.9143423e-08
2.9380398e-08
1.8862447e-08
2.886499e-08
1.8585693e-08
2.8375637e-08
1.8313845e-08
2.7911648e-08
1.8047636e-08
2.7472261e-08
1.7787841e-08
2.705665e-08
1.753527e-08