/*--------------------------------*- C++ -*----------------------------------*\
| =========                 |                                                 |
| \\      /  F ield         | OpenFOAM: The Open Source CFD Toolbox           |
|  \\    /   O peration     | Version:  2312                                  |
|   \\  /    A nd           | Website:  www.openfoam.com                      |
|    \\/     M anipulation  |                                                 |
\*---------------------------------------------------------------------------*/
FoamFile
{
    version     2.0;
    format      ascii;
    arch        "LSB;label=32;scalar=64";
    class       volScalarField;
    location    "0.09";
    object      Qdot;
}
// * * * * * * * * * * * * * * * * * * * * * * * * * * * * * * * * * * * * * //

dimensions      [1 -1 -3 0 0 0 0];

internalField   nonuniform List<scalar> 
3224
(
1.1445254
0.97267762
0.82837407
0.70703863
0.60486792
0.51870854
0.44594035
0.38438146
0.33222019
0.28793996
0.25029247
0.21822388
0.19085769
0.1674621
0.14742477
0.13022913
0.11544877
0.10271976
0.091737248
0.082247974
0.074032802
0.066910796
0.060727194
0.055353556
0.050677942
0.046608453
0.043064009
0.039976403
0.037289535
0.034954299
0.032932086
0.031183719
0.029684426
0.028403351
0.027325994
0.026429914
0.02570487
0.025138819
0.024722705
0.024450153
0.024318835
1.1443131
0.97254765
0.82829575
0.70699512
0.60484733
0.51870616
0.44595143
0.38440043
0.33224523
0.28797083
0.25032597
0.2182595
0.19089438
0.16749929
0.14745801
0.13026394
0.11548358
0.10275219
0.091769421
0.082279369
0.074062071
0.066938625
0.060754611
0.055379785
0.05070286
0.046632715
0.043086016
0.039997907
0.03731023
0.034974737
0.03295106
0.031204286
0.02970077
0.028422478
0.027342462
0.026447319
0.025721619
0.02515569
0.024739454
0.024467307
0.024335051
1.1437016
0.97208693
0.82794184
0.70671953
0.60463691
0.51854558
0.44582722
0.38430708
0.33217349
0.28792099
0.25029247
0.21823708
0.19087985
0.16749297
0.14745721
0.13026632
0.11548884
0.10276008
0.091780226
0.082288985
0.074074186
0.066952867
0.060768198
0.055393371
0.050718825
0.046645769
0.043099854
0.040012149
0.037325533
0.03498923
0.032964113
0.031217339
0.029715417
0.028434998
0.027355919
0.026460777
0.025735328
0.025168089
0.024752629
0.024478766
0.024345726
1.1426945
0.97129346
0.82730764
0.70621192
0.60423028
0.51821727
0.44556484
0.38409716
0.33200683
0.28778808
0.25018567
0.21815138
0.19081418
0.16744232
0.14741845
0.13023864
0.11546774
0.10274587
0.091769955
0.08228385
0.074071557
0.066951929
0.060770171
0.055398378
0.050723176
0.046652497
0.043105394
0.040019662
0.037331857
0.034998466
0.032973875
0.031225257
0.029724119
0.028443829
0.027364217
0.026467481
0.025742437
0.02517679
0.024761056
0.02448734
0.024352584
1.3452717
1.1413195
0.97017087
0.82639497
0.70547066
0.60362269
0.51772412
0.4451619
0.38377149
0.33174075
0.28757052
0.25000925
0.2180082
0.1906971
0.16734634
0.14734357
0.13017773
0.11541791
0.1027063
0.091738712
0.082260121
0.074052835
0.066936903
0.060758558
0.055389149
0.050717103
0.046647613
0.043105265
0.040017818
0.037331452
0.034999251
0.032975193
0.031228015
0.029726344
0.028446862
0.027368568
0.02647383
0.025747726
0.025181798
0.024765156
0.024491157
0.024357057
1.3433209
1.1396606
0.96879986
0.82526894
0.70454741
0.60286798
0.51710576
0.44465373
0.3833501
0.33139504
0.28728679
0.24977666
0.21781569
0.19053809
0.16721475
0.14723651
0.13008752
0.11534353
0.10264539
0.091688877
0.082216731
0.074019215
0.066909356
0.060736551
0.055370832
0.050700483
0.046635748
0.043095123
0.040009521
0.037325913
0.034993459
0.032971626
0.031225508
0.029724248
0.02844408
0.027366191
0.026471581
0.025747848
0.025179702
0.024763838
0.024491158
0.024356273
1.3410345
1.1377624
0.96723427
0.82397969
0.70348574
0.60199381
0.51638585
0.44405828
0.38286013
0.33098972
0.28695266
0.24949662
0.21758467
0.19034664
0.16705548
0.14710122
0.12997677
0.11525337
0.10256944
0.091623205
0.082162674
0.07397267
0.066871385
0.060704249
0.055343665
0.050678347
0.046615966
0.043078502
0.039996184
0.037314453
0.034983034
0.032962545
0.031216806
0.029718046
0.028439349
0.027362114
0.026467757
0.025743496
0.025177195
0.024760676
0.024488124
0.024352988
1.338257
1.1354788
0.96534426
0.8224228
0.70219831
0.60093294
0.51550611
0.44333205
0.38225811
0.33049001
0.28653496
0.2491501
0.21729512
0.19010535
0.16685426
0.1469335
0.12983596
0.11513205
0.10246659
0.091538941
0.082091867
0.073912692
0.066818363
0.060661264
0.055305161
0.05064564
0.046588015
0.043053181
0.039975496
0.037296515
0.03496563
0.032949086
0.031203097
0.029706966
0.028428925
0.027352757
0.026458528
0.025734519
0.025169277
0.024753292
0.02448061
0.024346381
1.5762911
1.3350078
1.1327882
0.96311729
0.82057792
0.70067491
0.5996703
0.51446028
0.44246577
0.3815382
0.32988955
0.28603655
0.24873477
0.21694703
0.18981342
0.16660691
0.14672622
0.12965954
0.11498517
0.10234319
0.091434134
0.082000365
0.073835812
0.066753371
0.060603389
0.055256643
0.050602914
0.046552292
0.043020749
0.039947538
0.037270813
0.034945719
0.032928116
0.031186348
0.029688906
0.028413898
0.027338514
0.026446534
0.02572187
0.025157413
0.024742083
0.024471529
0.024334395
1.5717907
1.3312319
1.1296485
0.96052008
0.81842502
0.69889252
0.5981933
0.51323483
0.44144604
0.38068933
0.32918229
0.2854448
0.24823793
0.2165317
0.18946533
0.16631578
0.14647861
0.12945069
0.11480637
0.10219049
0.0913036
0.081890802
0.073738898
0.066669762
0.060532177
0.055194004
0.050548193
0.046504559
0.042978678
0.039909566
0.037237046
0.034915139
0.032901475
0.031163557
0.029668995
0.028394649
0.027319921
0.026427285
0.025704999
0.025140542
0.024725463
0.024454909
0.024316862
1.8531053
1.5665842
1.3268902
1.1260437
0.95752701
0.81594752
0.69683722
0.59648447
0.51181555
0.4402641
0.37970516
0.3283619
0.28475732
0.24766202
0.21604675
0.18905714
0.16597007
0.14618749
0.12920227
0.11459595
0.10201012
0.091149717
0.081757082
0.073625769
0.066571942
0.060446215
0.055119502
0.050482927
0.046445212
0.042928187
0.039864211
0.037197377
0.034878479
0.032867604
0.031131506
0.029639854
0.028367758
0.027294348
0.026403807
0.025684303
0.025118908
0.024705551
0.024432093
0.024297613
1.8459018
1.5606263
1.321941
1.121937
0.95411917
0.81312141
0.6944908
0.59453517
0.5101938
0.43891369
0.37857625
0.32741574
0.28396542
0.24699589
0.2154885
0.18858484
0.16557215
0.14584729
0.12891352
0.11434991
0.10180127
0.09096816
0.081602164
0.073489695
0.066455117
0.060343762
0.055029851
0.050404606
0.046376654
0.042867424
0.039808835
0.037148325
0.034833779
0.03282791
0.03109419
0.029605701
0.028336111
0.027264545
0.026376916
0.025656474
0.025093335
0.0246776
0.024407298
0.024271628
2.1774036
1.837743
1.5538796
1.3163426
1.1172939
0.95026776
0.80992055
0.69183024
0.5923248
0.50835287
0.43737815
0.37729226
0.32634141
0.28306276
0.24623829
0.21484822
0.18804423
0.16511119
0.14545807
0.12858522
0.11406668
0.10155761
0.09075865
0.081421139
0.0733349
0.066317854
0.060223775
0.054925828
0.050313637
0.046293983
0.042794491
0.039744757
0.03708779
0.034779316
0.032777952
0.031050427
0.029563257
0.028295891
0.027226954
0.026340919
0.02562245
0.025059966
0.024645549
0.024376184
0.02424011
2.1662697
1.8285716
1.5463019
1.3100611
1.11208
0.94594118
0.8063289
0.68884699
0.58984071
0.50628016
0.4356469
0.37584374
0.32512861
0.28204329
0.24537965
0.21412462
0.18743138
0.16458955
0.14501532
0.12820627
0.11374313
0.10127913
0.090518933
0.081214662
0.073153341
0.066161869
0.060087579
0.05480453
0.050205643
0.046200636
0.042708657
0.039668006
0.037019765
0.034716427
0.03272045
0.030995432
0.02951461
0.028249089
0.027184381
0.026299785
0.025581445
0.025021995
0.024608767
0.024338746
0.024203733
2.5556618
2.1538543
1.8183354
1.5378374
1.3030532
1.1062693
0.94111644
0.80232111
0.68551403
0.58706232
0.50396536
0.43371025
0.37422356
0.32376793
0.28089985
0.24441608
0.21330792
0.18674234
0.16400493
0.14451666
0.12777748
0.11337764
0.10096348
0.090246253
0.080977979
0.072947778
0.065982034
0.059931465
0.054666201
0.050083683
0.046090264
0.042609366
0.039578759
0.036939067
0.034644302
0.032653743
0.030934388
0.029454729
0.028195153
0.027133479
0.026250734
0.025534772
0.024976388
0.024565531
0.024293513
0.024160472
2.5389226
2.1400786
1.8069703
1.5284509
1.2952758
1.099822
0.93576825
0.79787269
0.68181001
0.58397777
0.50138738
0.43155791
0.3724185
0.32225186
0.27962537
0.24334069
0.21239813
0.18596784
0.16334751
0.14395496
0.12729885
0.11296625
0.10060906
0.089940106
0.080712561
0.072716384
0.065779375
0.059752947
0.05450812
0.049943387
0.045964082
0.04249927
0.039477212
0.03684716
0.034559787
0.032576612
0.03086358
0.029389868
0.028133833
0.027073347
0.026195358
0.02548137
0.024923641
0.024514636
0.024246054
0.024109325
2.9945823
2.5204647
2.1248784
1.7944327
1.518081
1.2866953
1.0927064
0.9298573
0.79296356
0.67772314
0.58056994
0.49854068
0.4291743
0.37041987
0.32057339
0.27820928
0.24214479
0.21138629
0.18511026
0.16261864
0.14333315
0.12676326
0.11250634
0.10021351
0.089598493
0.080414711
0.072455446
0.065550739
0.059551324
0.054331293
0.049786496
0.04582525
0.042372836
0.039364236
0.036744455
0.034465251
0.032490245
0.030781038
0.029315113
0.028063308
0.027006107
0.026129436
0.025419669
0.024862977
0.024454375
0.024185924
0.024052883
2.9699378
2.5001961
2.1081851
1.7806586
1.5066984
1.2772713
1.0848918
0.92337018
0.78756554
0.67322722
0.57682058
0.49540656
0.42655017
0.36821663
0.31871981
0.27664683
0.24082443
0.21026846
0.18415934
0.16180802
0.14263854
0.12617125
0.11199636
0.099771267
0.089215441
0.080082585
0.072166954
0.065297185
0.059325194
0.054132735
0.049609539
0.045666232
0.042229629
0.039235676
0.036625915
0.034358851
0.032392014
0.030690853
0.029229409
0.027981292
0.026931353
0.026057311
0.025348991
0.024794548
0.024387264
0.024120656
0.02398696
2.9429435
2.4780417
2.0899376
1.7656014
1.4942513
1.2669626
1.0763446
0.91626677
0.78166172
0.6683065
0.57271074
0.49197048
0.4236713
0.36580135
0.31668587
0.27493248
0.2393751
0.209038
0.18311376
0.16091564
0.14187512
0.12551489
0.11143071
0.099287128
0.088792598
0.07971418
0.071844315
0.065013706
0.059075862
0.053910957
0.049410576
0.045490214
0.042071015
0.039090495
0.036495785
0.034238208
0.032279798
0.030587615
0.029131962
0.027891892
0.026843522
0.025975424
0.025269886
0.0247182
0.024312357
0.024047092
0.023912458
2.9135657
2.4539312
2.0700804
1.7492108
1.4806993
1.2557399
1.0670332
0.90852966
0.77522125
0.66293959
0.56822828
0.48822219
0.42052741
0.36315824
0.31446285
0.27305517
0.23778497
0.20769022
0.18196506
0.1599381
0.14103839
0.12479736
0.11081047
0.098749157
0.088327965
0.079306896
0.071488963
0.064701081
0.05880149
0.053665724
0.04919302
0.045294413
0.041894997
0.038931478
0.036349943
0.034105296
0.032156398
0.030472108
0.029025562
0.027790094
0.02674808
0.025883517
0.025181546
0.024632367
0.024228901
0.023964016
0.023830724
3.4258011
2.8818384
2.4278134
2.0485473
1.7314332
1.4659922
1.2435583
1.0569273
0.90013387
0.76823046
0.65710909
0.56335739
0.48414453
0.41710823
0.36028413
0.31203887
0.27100777
0.23605241
0.20621954
0.18071325
0.15886666
0.14012202
0.12400784
0.11012932
0.098158973
0.087815568
0.078861489
0.071099489
0.064357471
0.058497567
0.053396206
0.048951735
0.045078175
0.041698792
0.03875533
0.036188296
0.03395723
0.032019791
0.030345141
0.028906108
0.027678154
0.02664168
0.025780684
0.025082788
0.024536771
0.024134899
0.023870669
0.023737353
3.384265
2.847623
2.3996231
2.0252938
1.712221
1.4501014
1.2303894
1.0459975
0.89104528
0.76066426
0.65079732
0.55808226
0.47972642
0.41340108
0.35716477
0.30940922
0.26878632
0.23417196
0.2046207
0.17934937
0.15770213
0.13912176
0.12314788
0.10938963
0.097517385
0.087256902
0.078372974
0.07066923
0.063981172
0.058164909
0.053098736
0.04868829
0.044839648
0.041484803
0.038558469
0.036010837
0.033792549
0.031868568
0.030204061
0.028773981
0.027552909
0.026523133
0.025667278
0.024973477
0.024429587
0.024030471
0.023769153
0.023636897
4.7345274
3.9735216
3.3396425
2.8108433
2.3692995
2.0002677
1.6915381
1.4329859
1.2161989
1.0342149
0.8812505
0.75250286
0.6439861
0.55238781
0.47495445
0.40939329
0.35379463
0.30656753
0.26638212
0.23213088
0.20288657
0.17787237
0.15643873
0.13803743
0.12221436
0.1085827
0.096819636
0.086648278
0.077840415
0.07020247
0.063569133
0.057798483
0.052775564
0.048398358
0.044581234
0.041250246
0.038345669
0.035815037
0.033612835
0.031701099
0.030049264
0.028628954
0.027415646
0.026391287
0.025542285
0.024853085
0.024313294
0.023917214
0.023653897
0.023525208
5.5619526
4.6637393
3.915494
3.2918276
2.7714277
2.3367847
1.9734245
1.6693482
1.4146157
1.2009652
1.021564
0.87072527
0.74372969
0.63666118
0.54626067
0.46982012
0.40507935
0.35016103
0.30350039
0.26378728
0.22993159
0.20101402
0.17627379
0.1550701
0.13686394
0.12120333
0.10770772
0.096060163
0.085988249
0.077263438
0.069695516
0.063122156
0.057404779
0.052423528
0.048081762
0.044297473
0.040993781
0.038111897
0.035601298
0.033416501
0.031520478
0.029879571
0.028468869
0.027265734
0.026249141
0.025405427
0.024720578
0.024184735
0.023789971
0.023530344
0.023400747
5.4699345
4.5881904
3.8534541
3.2407415
2.7293191
2.3020435
1.9447277
1.6456124
1.3949552
1.184657
1.0080174
0.85945217
0.73433045
0.62880807
0.53968966
0.46430685
0.400445
0.34625848
0.30020512
0.26099862
0.22756139
0.19899667
0.17455206
0.15359705
0.13559923
0.12011318
0.10676393
0.095242152
0.085273856
0.07663872
0.069146618
0.062636553
0.056973614
0.052039844
0.047738556
0.043987887
0.040713998
0.037858343
0.035369249
0.033202641
0.031321767
0.02969523
0.028295357
0.02710196
0.026094093
0.025256048
0.024576869
0.024045118
0.023653768
0.023395078
0.023265992
5.3720144
4.5078053
3.7873853
3.1863446
2.6844725
2.2650297
1.9141448
1.62031
1.37399
1.1672609
0.99355538
0.84741302
0.72428806
0.62041753
0.53266062
0.45841067
0.39548709
0.34207902
0.29667545
0.25800661
0.22502034
0.19683376
0.1727048
0.15201324
0.13423692
0.11893837
0.10574814
0.094358211
0.084503578
0.0759647
0.068553143
0.06211348
0.0565087
0.051625954
0.047368177
0.043653636
0.040411264
0.0375825
0.035116602
0.032970591
0.031107243
0.029494294
0.028106819
0.026923313
0.025925055
0.02509293
0.024420755
0.02389202
0.023503453
0.023248054
0.023118709
5.2682283
4.4225629
3.7172818
3.1286094
2.6368693
2.2257303
1.8816569
1.5934211
1.3517011
1.14876
0.97816662
0.83459461
0.713593
0.6114745
0.52517193
0.45212132
0.3901977
0.33761872
0.29290262
0.25480813
0.22230367
0.19451977
0.17072545
0.1503163
0.13277651
0.11767892
0.10465692
0.093409544
0.083675676
0.075239785
0.067915905
0.061549023
0.056008198
0.051177917
0.046967219
0.043290923
0.040083085
0.037285588
0.034844203
0.032718477
0.030872816
0.029277143
0.027903628
0.026729357
0.025739274
0.024915852
0.024248684
0.023725238
0.023341554
0.023086811
0.022960628
5.158604
4.3324733
3.6431587
3.0675478
2.5864981
2.184132
1.8472569
1.5649362
1.3280808
1.1291411
0.96184833
0.82099376
0.70223894
0.60197878
0.51721256
0.44543562
0.38456815
0.33286836
0.28888456
0.25140398
0.21940739
0.19204859
0.16861449
0.14850466
0.13121724
0.11633164
0.1034895
0.092394139
0.082788046
0.074461969
0.067230401
0.060944217
0.055469969
0.050698104
0.046536862
0.042902865
0.039731049
0.036963985
0.034548326
0.032446985
0.030620046
0.029041244
0.027682253
0.026520099
0.025540311
0.024726651
0.024065685
0.023547497
0.023165131
0.022913802
0.022788428
5.0432264
4.2375903
3.5650521
3.0031728
2.5333761
2.1402431
1.8109472
1.534856
1.3031241
1.1084053
0.94459259
0.80660499
0.69021957
0.59192055
0.5087764
0.43834804
0.37859841
0.32782738
0.28462046
0.24778385
0.21632998
0.18942182
0.16636562
0.14657195
0.12955511
0.11489577
0.10224377
0.09130927
0.081842413
0.073631309
0.066498879
0.060295366
0.054892993
0.050184292
0.046074453
0.042487001
0.039353812
0.036619057
0.034233728
0.032155209
0.030350148
0.028788879
0.027444131
0.026296874
0.025326451
0.024520304
0.023865785
0.02335367
0.022975656
0.022727642
0.022604492
4.9222016
4.1380044
3.4830271
2.9355378
2.4775409
2.0940835
1.7727459
1.5031951
1.2768444
1.0865568
0.92640013
0.79142959
0.67753564
0.58129986
0.49986686
0.43085859
0.37228452
0.3224974
0.280104
0.24395091
0.21306476
0.18663553
0.16397883
0.14452536
0.12778775
0.11336893
0.10091759
0.090156626
0.080832418
0.072744868
0.065718993
0.05960407
0.054278951
0.04963499
0.045581183
0.042040557
0.038950071
0.03625015
0.033895658
0.031841523
0.030061
0.028517014
0.027189792
0.026054277
0.025096246
0.024299053
0.023652708
0.023146409
0.022774186
0.022526956
0.02240434
4.7956876
4.0338422
3.3971842
2.8647158
2.4190429
2.0457067
1.7326842
1.4699744
1.2492535
1.063608
0.90727892
0.77547123
0.66419428
0.5701238
0.49048427
0.42296247
0.36562943
0.31686968
0.27533754
0.23989961
0.20961579
0.18368942
0.16145517
0.14235481
0.12591808
0.11174713
0.099514955
0.088930645
0.079760198
0.071803303
0.064887523
0.058868075
0.053623782
0.049049433
0.045056161
0.041566689
0.038518525
0.035856697
0.033532137
0.031508864
0.029749821
0.028227332
0.026915395
0.025795588
0.024848612
0.024062498
0.023425132
0.022924502
0.022555037
0.022311778
0.022189947
4.6638999
3.9252682
3.3076507
2.7908044
2.3579575
1.9951632
1.6908103
1.435229
1.2203853
1.0395829
0.88725084
0.75874765
0.65020188
0.55839317
0.48063226
0.41466923
0.35863227
0.31095427
0.27032348
0.23563708
0.20598301
0.18058272
0.1587931
0.14006505
0.12394216
0.11003835
0.098026062
0.087633354
0.078625462
0.070806241
0.064006753
0.05808844
0.052929318
0.048427222
0.044496969
0.041060115
0.038058746
0.035437396
0.033147265
0.031152201
0.02941954
0.027917343
0.026624275
0.025519745
0.02458782
0.023811476
0.023180409
0.02268663
0.022322454
0.022083546
0.021961844
4.5271069
3.8124989
3.2145991
2.7139433
2.2944029
1.9425394
1.6471836
1.3990124
1.1902744
1.0145088
0.86633722
0.74127459
0.63557578
0.54612775
0.47032248
0.40598438
0.35130184
0.30474876
0.26505781
0.23116018
0.20216429
0.17731699
0.15599016
0.13765453
0.12185995
0.10823567
0.096460467
0.086266568
0.077428651
0.069752614
0.063075734
0.057262382
0.052192918
0.047768763
0.043902838
0.040524927
0.037572357
0.034992142
0.032737322
0.030774309
0.029067099
0.027588502
0.026315345
0.025226627
0.024307221
0.023541957
0.022921186
0.022433609
0.022074844
0.02183829
0.021719088
4.3856237
3.6957849
3.1182313
2.6342953
2.2284976
1.8879423
1.6018929
1.3613939
1.1589783
0.98843132
0.8445729
0.72307844
0.62033339
0.53333438
0.45956174
0.39691664
0.34364148
0.29826321
0.25955297
0.22647361
0.19816601
0.17389675
0.15305406
0.13512455
0.11967568
0.10634015
0.094811642
0.084827939
0.076167359
0.068641354
0.06209648
0.056392157
0.051417633
0.047075212
0.04327787
0.039959935
0.037056677
0.034519971
0.032305776
0.03037441
0.028694343
0.027240412
0.025987288
0.024916661
0.024010034
0.023257945
0.022644437
0.022166217
0.021812054
0.0215796
0.021463713
4.2398352
3.5754384
3.0187946
2.5520554
2.1604026
1.8314956
1.5550378
1.3224429
1.1265553
0.96140083
0.82199901
0.70419143
0.60450481
0.52004079
0.4483746
0.3874826
0.33566628
0.29150551
0.25381213
0.2215877
0.19399288
0.1703212
0.14998086
0.13248038
0.11738937
0.10435735
0.093085183
0.083320348
0.074844739
0.067477227
0.061065515
0.055477483
0.050601596
0.04634225
0.042619005
0.039361454
0.03651463
0.03402341
0.031850096
0.029951695
0.028303275
0.026872411
0.025640387
0.024586226
0.023697157
0.022954151
0.0223541
0.021882585
0.021534771
0.021303886
0.021191033
4.0901742
3.4518058
2.9165765
2.4674527
2.0903033
1.7733451
1.5067369
1.2822683
1.0930867
0.93348169
0.79866272
0.68465488
0.58812004
0.50627146
0.43677926
0.37769575
0.32738751
0.28448755
0.24784845
0.21650322
0.18964782
0.1665982
0.14678319
0.12972177
0.11500258
0.10228622
0.091282095
0.081741932
0.073459893
0.066257723
0.059986719
0.054518141
0.049745613
0.04557473
0.041927832
0.038736081
0.035944633
0.033502083
0.031369628
0.029506815
0.027887411
0.026484506
0.025274893
0.02424011
0.023365534
0.022638897
0.022047677
0.021583952
0.021241401
0.021016865
0.020902265
3.9371412
3.3252917
2.8118945
2.3807471
2.0184099
1.7136624
1.4571241
1.2409737
1.0586664
0.90473786
0.77462792
0.66452052
0.5712179
0.4920575
0.42480178
0.36758056
0.31882662
0.27722486
0.24167011
0.21123572
0.18514163
0.16273521
0.14346024
0.12685347
0.11252244
0.10013044
0.089402943
0.080097863
0.072016387
0.064985626
0.058859899
0.053516848
0.048851659
0.044772279
0.041202764
0.038080251
0.035347089
0.0329566
0.030866087
0.029040589
0.027453617
0.026077877
0.024891338
0.023876994
0.023019822
0.022305582
0.021725565
0.021270015
0.020933256
0.020712942
0.020601786
3.7812864
3.1963466
2.7051139
2.2922387
1.9449658
1.6526454
1.4063668
1.1986911
1.0233914
0.87527022
0.74996763
0.64384054
0.55385009
0.4774396
0.41247626
0.3571629
0.31000254
0.26973248
0.23529137
0.20579313
0.18048542
0.1587377
0.14002235
0.12388413
0.10994764
0.097896337
0.087452452
0.078391689
0.070515371
0.063661696
0.057687199
0.052474172
0.047918141
0.043935423
0.040449106
0.037396468
0.034724345
0.03238357
0.030341194
0.028553667
0.026998318
0.025652123
0.024490097
0.023496472
0.022656172
0.02195577
0.021386962
0.020941174
0.020611273
0.02039531
0.020285189
3.6232105
3.0654585
2.5966386
2.2022498
1.8702319
1.5905069
1.354633
1.1555646
0.98738417
0.84515914
0.72474664
0.6226838
0.53606239
0.46245959
0.39983346
0.34647209
0.30093955
0.26202862
0.22873306
0.20018995
0.17568573
0.15461759
0.13647233
0.12081487
0.10729001
0.095583384
0.085435252
0.076624098
0.068963742
0.062289903
0.056471262
0.05139206
0.046950751
0.043065449
0.03966406
0.036685384
0.034074306
0.031789714
0.029790704
0.02804537
0.026526295
0.025209093
0.024072665
0.02310052
0.022278157
0.02159068
0.021033988
0.020597435
0.020274797
0.020061058
0.019954254
3.4635633
2.9331579
2.4868995
2.1111328
1.7945
1.527485
1.3021239
1.1117493
0.95077751
0.81452035
0.69906393
0.60111488
0.51791821
0.44716656
0.38691645
0.33553731
0.29166322
0.25414519
0.22201017
0.19444433
0.17076263
0.15038485
0.1328224
0.1176639
0.10455356
0.093201726
0.083355795
0.074801106
0.067358178
0.060873281
0.055213786
0.050273288
0.045949055
0.042165422
0.038850803
0.035946355
0.033400415
0.031172639
0.029221896
0.027518351
0.026035151
0.024747623
0.023637681
0.02268557
0.021881801
0.021212132
0.020666649
0.020239987
0.019924451
0.019716535
0.019612236
3.303052
2.8000122
2.3763623
2.0192788
1.7180829
1.4638348
1.2490431
1.0674229
0.91370805
0.78347073
0.67301391
0.57922133
0.49948846
0.43161726
0.37377023
0.32440238
0.28220994
0.24609718
0.21514329
0.18857138
0.1657256
0.1460522
0.12908757
0.11443061
0.10174905
0.090756927
0.081218885
0.072927212
0.065708568
0.05941381
0.053919529
0.049117458
0.04491627
0.04123441
0.038010228
0.035184247
0.032706613
0.030533558
0.028632771
0.026973425
0.025525414
0.024270568
0.023184631
0.022258375
0.021472948
0.020818938
0.020286128
0.019869608
0.019561212
0.019357365
0.019255567
3.1423898
2.6666221
2.2655194
1.9270774
1.641305
1.3998333
1.1956176
1.0227696
0.87632502
0.75213049
0.64669644
0.55708545
0.48083241
0.41586457
0.36044314
0.31310292
0.27260792
0.23791945
0.20816251
0.18259425
0.16059603
0.14163778
0.12527361
0.11112851
0.098879691
0.088257005
0.079034087
0.071007177
0.064017299
0.057919401
0.052591782
0.047931979
0.043854976
0.04028073
0.037147388
0.034398666
0.031988928
0.029876537
0.028027432
0.026410941
0.025000239
0.023777169
0.022720128
0.021816534
0.021049952
0.02041125
0.019893337
0.019486709
0.019186353
0.01898608
0.018886659
2.9823333
2.5336116
2.1548827
1.834962
1.5645272
1.3357578
1.1420861
0.97797916
0.83880067
0.72064182
0.62022977
0.534799
0.46203556
0.39997902
0.34699422
0.30168795
0.26289727
0.22964204
0.20108759
0.1765346
0.15538971
0.13715137
0.12139873
0.10776863
0.095959683
0.085712002
0.076802623
0.069049172
0.062291092
0.056391373
0.051233698
0.046720393
0.042768384
0.039302916
0.036263325
0.03359437
0.03125531
0.02920264
0.027404971
0.025832241
0.024461233
0.023269558
0.022241505
0.021361389
0.020616157
0.019993413
0.019487494
0.019091542
0.01879751
0.018605809
0.018507707
2.8236575
2.4016104
2.0449799
1.7433608
1.4881002
1.27192
1.0886897
0.93326333
0.80129662
0.68914049
0.59372536
0.51246271
0.44317779
0.38402861
0.33347119
0.29020148
0.25312308
0.22130053
0.19395175
0.17041611
0.1501296
0.13261593
0.11747796
0.10436843
0.093002261
0.083127967
0.074539885
0.067061112
0.060535082
0.054836427
0.049849635
0.045485863
0.041660036
0.038304131
0.035360264
0.032773601
0.030503755
0.028511069
0.026766673
0.025240084
0.023907703
0.02275243
0.021752205
0.020895689
0.020170621
0.019565814
0.019073482
0.018689541
0.018401962
0.018214208
0.018119802
2.6671242
2.2712716
1.936341
1.6527235
1.412398
1.2086159
1.0356877
0.88882833
0.76398983
0.65777177
0.56730822
0.49017651
0.42434137
0.36807977
0.31994131
0.27869818
0.24332116
0.21292978
0.18678585
0.16426362
0.14483388
0.12804962
0.1135232
0.10093737
0.09001329
0.080517949
0.072252254
0.065047982
0.058756919
0.053259599
0.048448978
0.044233272
0.040535068
0.037289785
0.034441926
0.031938842
0.029739679
0.027809625
0.026118478
0.024636595
0.023343779
0.022220656
0.021251421
0.020421417
0.019716534
0.019128073
0.018649572
0.018274186
0.017996247
0.017814438
0.017721998
2.5134947
2.143246
1.8295207
1.5634999
1.3377897
1.1461569
0.9833363
0.84488749
0.72706094
0.6266876
0.54110261
0.46804643
0.40561808
0.35221082
0.30646548
0.26722968
0.23353827
0.20456611
0.17962152
0.15810876
0.13953421
0.12346987
0.10955973
0.097491279
0.087009825
0.077893437
0.069948665
0.063018918
0.056964256
0.051669061
0.047033545
0.042965906
0.039399296
0.036266236
0.033512759
0.031091157
0.028964646
0.027098419
0.025460018
0.024024931
0.022773126
0.021683494
0.020745374
0.019937908
0.019252938
0.018683725
0.018219215
0.017855038
0.017584736
0.017406872
0.017318661
2.3635341
2.0181817
1.7250497
1.4761282
1.2646415
1.0848483
0.93188887
0.80166081
0.69068711
0.59603778
0.51523478
0.44618006
0.38710025
0.33649851
0.29310753
0.25585083
0.22382499
0.1962544
0.172492
0.15197843
0.13425038
0.11890118
0.10559545
0.094046377
0.084006362
0.075263514
0.067641001
0.060985755
0.055167113
0.050074981
0.045609668
0.041693405
0.038254951
0.035231177
0.032576079
0.030238336
0.02818501
0.026378889
0.02479614
0.023405884
0.022194298
0.021140921
0.020229159
0.019449143
0.018785523
0.018233181
0.017781853
0.017430222
0.01716769
0.016995894
0.01691006
2.596834
2.2183279
1.8967553
1.6234483
1.3910414
1.1933155
1.0249942
0.88160096
0.75935629
0.65505141
0.5659752
0.48983529
0.42468076
0.36887324
0.32101802
0.27993233
0.2446173
0.21422192
0.18803053
0.1654316
0.14590269
0.12900449
0.11436337
0.10165965
0.090621258
0.081015821
0.072642948
0.065339256
0.05895522
0.053370632
0.048477592
0.044184877
0.040418122
0.037108632
0.034196542
0.031635985
0.029381699
0.02739943
0.025655414
0.024126981
0.022784328
0.021613624
0.020594524
0.019711779
0.018957062
0.018315069
0.01777988
0.01734239
0.017001562
0.016747475
0.016578566
0.016495643
2.8426793
2.4295433
2.0782961
1.7794925
1.5251839
1.3086385
1.1241521
0.96688011
0.83271518
0.71817908
0.62032549
0.53664625
0.46502438
0.40366007
0.35103257
0.30584762
0.26700711
0.23358522
0.20478367
0.17993875
0.15847637
0.13991079
0.12383035
0.1098809
0.097765804
0.087229104
0.078050458
0.070045578
0.063054511
0.056938805
0.05158376
0.046890087
0.042767195
0.039149309
0.035965071
0.033164265
0.030697178
0.028526905
0.026615169
0.024934445
0.023456908
0.022162651
0.021030703
0.020047471
0.019193995
0.018462473
0.017842236
0.01732539
0.016902271
0.016570923
0.016325416
0.01616364
0.016082157
3.1002279
2.6512431
2.26924
1.94397
1.666868
1.4306938
1.2292985
1.0574694
0.9107796
0.78546248
0.67833306
0.58667785
0.50819466
0.44092785
0.38322168
0.33366526
0.29106407
0.25439912
0.22280759
0.19555771
0.17201813
0.15166358
0.13403439
0.11874742
0.10547837
0.09393747
0.083890199
0.075131257
0.067484611
0.060798785
0.054947583
0.049819453
0.045318393
0.041367727
0.037890775
0.034832338
0.032139649
0.029766038
0.027676713
0.025836973
0.024216381
0.022793313
0.021544258
0.020451722
0.019501357
0.018678461
0.017970925
0.017373123
0.01687128
0.016464401
0.016143606
0.015904797
0.015747906
0.015669585
2.8827026
2.4690734
2.1165412
1.8158814
1.559347
1.3403705
1.1533598
0.99356539
0.85694643
0.74006523
0.64000522
0.55427306
0.48075885
0.41766437
0.36346601
0.31685834
0.27674336
0.2421709
0.21234592
0.18658727
0.16431189
0.14502533
0.12830356
0.11378902
0.10117364
0.090192471
0.080622376
0.072270443
0.064971513
0.058585907
0.052991552
0.048084544
0.043773242
0.039985509
0.036651641
0.033716202
0.031127939
0.028848354
0.026838135
0.025067228
0.023507682
0.022135355
0.020931282
0.019878311
0.018960879
0.018166346
0.017485193
0.016906089
0.016422734
0.016027566
0.015717448
0.015488812
0.015335866
0.015260984
2.6773604
2.2968775
1.9720321
1.6945203
1.4573504
1.2545777
1.081143
0.93271509
0.80562376
0.69673016
0.60336532
0.52325744
0.45446617
0.39534548
0.34448717
0.30069746
0.26294868
0.23038411
0.20224893
0.17792221
0.15685801
0.13859913
0.12275153
0.10898062
0.09699525
0.086554551
0.077445676
0.069485473
0.062525397
0.056428406
0.051081004
0.046387459
0.042263653
0.038633628
0.035438462
0.03262103
0.030137605
0.027947139
0.026015773
0.024311321
0.022810313
0.021489164
0.020330043
0.019315043
0.018429791
0.017662934
0.017004724
0.01644593
0.015979575
0.015598527
0.015299207
0.01507611
0.014929643
0.014857114
2.4849315
2.1352789
1.8362317
1.5803239
1.3612506
1.1736503
1.0129231
0.87515973
0.75701457
0.65563446
0.56857955
0.49377265
0.42944326
0.374078
0.32638255
0.28525729
0.24976401
0.21909648
0.19257335
0.1696068
0.14970082
0.13242291
0.11740597
0.1043447
0.092966109
0.083040945
0.074371784
0.066792782
0.060155879
0.054336833
0.049231647
0.044743794
0.040796136
0.037320243
0.034257586
0.031556194
0.029173905
0.027069278
0.025211599
0.023572543
0.022128375
0.020857314
0.019740797
0.018762579
0.017909759
0.01717019
0.016535459
0.015997513
0.015546314
0.015177908
0.014888228
0.0146749
0.014531564
0.014460628
2.3059487
1.9847543
1.7095647
1.4736631
1.2713762
1.0978576
0.94895398
0.82111797
0.7113175
0.61694583
0.53578948
0.46594681
0.40579795
0.35395284
0.30923279