/*--------------------------------*- C++ -*----------------------------------*\
| =========                 |                                                 |
| \\      /  F ield         | OpenFOAM: The Open Source CFD Toolbox           |
|  \\    /   O peration     | Version:  2312                                  |
|   \\  /    A nd           | Website:  www.openfoam.com                      |
|    \\/     M anipulation  |                                                 |
\*---------------------------------------------------------------------------*/
FoamFile
{
    version     2.0;
    format      ascii;
    arch        "LSB;label=32;scalar=64";
    class       volScalarField;
    location    "0.09";
    object      T;
}
// * * * * * * * * * * * * * * * * * * * * * * * * * * * * * * * * * * * * * //

dimensions      [0 0 0 1 0 0 0];

internalField   nonuniform List<scalar> 
3224
(
358.26116
356.98965
355.74719
354.53402
353.35032
352.19627
351.07203
349.97774
348.91357
347.87964
346.87609
345.90307
344.9607
344.04912
343.16846
342.31885
341.50041
340.71329
339.95761
339.2335
338.54109
337.88051
337.25189
336.65535
336.09103
335.55905
335.05953
334.59261
334.1584
333.75702
333.38861
333.05327
332.75112
332.48229
332.24688
332.04502
331.87681
331.74237
331.6418
331.57519
331.54296
358.25952
356.9884
355.74625
354.53333
353.34986
352.19603
351.07199
349.97791
348.91393
347.8802
346.87684
345.90401
344.96183
344.05043
343.16994
342.32051
341.50225
340.71529
339.95977
339.23582
338.54356
337.88313
337.25465
336.65825
336.09406
335.5622
335.0628
334.59599
334.16188
333.76061
333.39228
333.05702
332.75495
332.48618
332.25083
332.04901
331.88085
331.74644
331.64589
331.57927
331.54681
358.25503
356.98439
355.74262
354.53004
353.34689
352.19335
351.06961
349.97581
348.91211
347.87865
346.87556
345.90299
344.96106
344.04991
343.16967
342.32046
341.50243
340.7157
339.9604
339.23666
338.5446
337.88436
337.25607
336.65985
336.09583
335.56413
335.06488
334.59821
334.16424
333.76308
333.39487
333.05971
332.75773
332.48905
332.25377
332.05202
331.8839
331.74953
331.64902
331.58242
331.54967
358.2477
356.9776
355.73628
354.52411
353.34135
352.1882
351.06483
349.97139
348.90804
347.87492
346.87217
345.89993
344.95832
344.04748
343.16755
342.31864
341.5009
340.71444
339.95941
339.23592
338.54412
337.88412
337.25605
336.66005
336.09624
335.56473
335.06567
334.59917
334.16536
333.76435
333.39628
333.06124
332.75937
332.49079
332.25559
332.05391
331.88585
331.75152
331.65105
331.58449
331.5515
359.53569
358.23766
356.96803
355.7272
354.51552
353.33324
352.18055
351.05762
349.96463
348.90171
347.869
346.86666
345.89481
344.95359
344.04312
343.16355
342.315
341.4976
340.71147
339.95676
339.23358
338.54207
337.88235
337.25456
336.65881
336.09524
335.56396
335.06512
334.59882
334.16519
333.76436
333.39644
333.06155
332.75981
332.49134
332.25624
332.05464
331.88664
331.75237
331.65193
331.58542
331.55224
359.52339
358.22552
356.95637
355.71607
354.50493
353.32316
352.17098
351.04855
349.95604
348.89359
347.86134
346.85945
345.88803
344.94723
344.03718
343.15801
342.30984
341.49281
340.70705
339.95269
339.22984
338.53865
337.87924
337.25174
336.65627
336.09296
335.56193
335.06332
334.59724
334.16382
333.76317
333.39542
333.06068
332.75908
332.49072
332.25573
332.05422
331.88629
331.75207
331.65167
331.58521
331.5519
359.50906
358.21168
356.94305
355.70331
354.49273
353.31152
352.15988
351.03799
349.94599
348.88405
347.8523
346.85089
345.87994
344.9396
344.02999
343.15124
342.30349
341.48686
340.70149
339.94749
339.225
338.53415
337.87507
337.24787
336.6527
336.08967
335.55891
335.06054
334.59469
334.16148
333.76103
333.39346
333.05888
332.75743
332.4892
332.25432
332.05289
331.88504
331.75087
331.65051
331.58408
331.55069
359.49174
358.19502
356.92701
355.68791
354.47797
353.2974
352.14639
351.0251
349.93371
348.87235
347.84117
346.84031
345.8699
344.93008
344.02097
343.14272
342.29544
341.47926
340.69433
339.94075
339.21867
338.52821
337.8695
337.24266
336.64782
336.0851
335.55464
335.05655
334.59096
334.15799
333.75776
333.39039
333.056
332.75471
332.48663
332.25187
332.05055
331.88278
331.74867
331.64834
331.58193
331.5485
360.79586
359.47139
358.17535
356.90804
355.66967
354.46046
353.28061
352.13031
351.00973
349.91901
348.85831
347.82778
346.82755
345.85775
344.91852
344.00999
343.13229
342.28554
341.46989
340.68545
339.93235
339.21073
338.52071
337.86241
337.23597
336.64151
336.07915
335.54902
335.05125
334.58595
334.15325
333.75327
333.38613
333.05195
332.75084
332.48291
332.24829
332.04709
331.87941
331.74537
331.64508
331.57868
331.54522
360.77162
359.44772
358.15244
356.88592
355.64837
354.43999
353.26096
352.11146
350.99166
349.90172
348.84177
347.81197
346.81244
345.84333
344.90477
343.99689
343.11981
342.27367
341.4586
340.67472
339.92216
339.20105
338.51152
337.85369
337.22769
336.63365
336.0717
335.54194
335.04452
334.57955
334.14716
333.74746
333.38057
333.04662
332.74571
332.47796
332.2435
332.04242
331.87484
331.74087
331.64063
331.57425
331.54077
362.09575
360.74359
359.42045
358.12603
356.86043
355.6238
354.41635
353.23824
352.08964
350.97072
349.88164
348.82253
347.79355
346.79482
345.82648
344.88867
343.9815
343.10513
342.25966
341.44524
340.66198
339.91003
339.18949
338.50051
337.84321
337.21771
336.62414
336.06262
335.53329
335.03626
334.57165
334.13959
333.7402
333.3736
333.0399
332.73922
332.47167
332.23738
332.03644
331.86897
331.73509
331.6349
331.56853
331.53504
362.06256
360.71149
359.3893
358.09588
356.8313
355.59572
354.3893
353.21221
352.06463
350.9467
349.85858
348.80041
347.77233
346.77449
345.80701
344.87003
343.96368
343.08808
342.24336
341.42966
340.6471
339.89581
339.17592
338.48754
337.83082
337.20587
336.61282
336.0518
335.52293
335.02633
334.56213
334.13045
333.7314
333.36511
333.03169
332.73126
332.46393
332.22982
332.02904
331.8617
331.72791
331.62777
331.56142
331.52793
363.40354
362.02491
360.67504
359.35399
358.06171
356.79829
355.56387
354.35861
353.18266
352.0362
350.91936
349.83231
348.77519
347.74813
346.75127
345.78474
344.84869
343.94322
343.06849
342.22461
341.41171
340.62992
339.87936
339.16017
338.47247
337.81639
337.19205
336.59958
336.0391
335.51074
335.01462
334.55086
334.11959
333.72092
333.35497
333.02186
332.72171
332.45462
332.22072
332.02011
331.85291
331.71922
331.61914
331.55281
331.51933
363.3596
361.98245
360.63396
359.31421
358.02323
356.76112
355.52799
354.32401
353.14933
352.00411
350.88849
349.80262
348.74665
347.72071
346.72494
345.75947
344.82443
343.91996
343.04617
342.20321
341.39119
340.61025
339.86051
339.1421
338.45514
337.79976
337.17609
336.58426
336.02438
335.49658
335.00098
334.53771
334.10689
333.70864
333.34306
333.0103
332.71044
332.44362
332.20995
332.00953
331.84248
331.7089
331.60889
331.54259
331.50911
364.71443
363.31042
361.93489
360.58794
359.26967
357.98016
356.71949
355.48781
354.28525
353.11197
351.96812
350.85384
349.76927
348.71457
347.68987
346.69529
345.73099
344.79707
343.89368
343.02094
342.17899
341.36794
340.58793
339.83908
339.12152
338.43538
337.78078
337.15784
336.5667
336.00748
335.48029
334.98527
334.52254
334.09221
333.69441
333.32925
332.99686
332.69734
332.43081
332.19738
331.99717
331.83028
331.69682
331.5969
331.53063
331.49716
364.65772
363.2556
361.88187
360.53665
359.22005
357.93217
356.67312
355.44303
354.24205
353.0703
351.92796
350.81515
349.73202
348.67871
347.65536
346.6621
345.69907
344.76639
343.86419
342.9926
342.15175
341.34176
340.56277
339.8149
339.09828
338.41302
337.75927
337.13714
336.54676
335.98825
335.46174
334.96735
334.5052
334.07541
333.6781
333.3134
332.98141
332.68225
332.41604
332.18288
331.9829
331.81619
331.68287
331.58303
331.51679
331.48335
366.02318
364.59486
363.1948
361.82306
360.47975
359.16501
357.87895
356.62169
355.39336
354.1941
353.02405
351.88335
350.77215
349.6906
348.63882
347.61695
346.62513
345.66349
344.73216
343.83126
342.96092
342.12128
341.31246
340.53458
339.78777
339.07217
338.38789
337.73506
337.1138
336.52425
335.96652
335.44074
334.94704
334.48552
334.05632
333.65956
333.29534
332.9638
332.66503
332.39916
332.16631
331.96657
331.80006
331.66689
331.56715
331.50095
331.46753
365.95138
364.52541
363.12763
361.75807
360.41689
359.10421
357.82016
356.56487
355.33847
354.1411
352.9729
351.83401
350.72458
349.64474
348.59463
347.57438
346.58413
345.62401
344.69414
343.79466
342.9257
342.08737
341.27981
340.50315
339.7575
339.04301
338.35978
337.70796
337.08766
336.49901
335.94213
335.41715
334.92418
334.46336
334.0348
333.63862
333.27494
332.94387
332.64554
332.38005
332.14751
331.94804
331.78175
331.64874
331.54911
331.48296
331.44956
365.87222
364.44896
363.05369
361.68655
360.34769
359.03728
357.75544
356.50231
355.27803
354.08273
352.91655
351.77964
350.67213
349.59416
348.54587
347.52739
346.53884
345.58038
344.65211
343.75417
342.88669
342.04979
341.24361
340.46826
339.72388
339.01059
338.32851
337.67778
337.05851
336.47084
335.91488
335.39076
334.89861
334.43853
334.01067
333.61512
333.25202
332.92148
332.6236
332.35852
332.12634
331.92716
331.7611
331.62827
331.52876
331.46267
331.42929
365.78538
364.3651
362.97258
361.60807
360.27178
358.96385
357.68443
356.43367
355.2117
354.01865
352.85468
351.71992
350.6145
349.53857
348.49225
347.47568
346.489
345.53232
344.60579
343.70953
342.84366
342.00831
341.20362
340.4297
339.68668
338.9747
338.29386
337.64431
337.02617
336.43955
335.88459
335.36141
334.87013
334.41087
333.98375
333.58889
333.22642
332.89644
332.59907
332.33443
332.10262
331.90376
331.73796
331.60532
331.50594
331.43992
331.40657
367.13522
365.69066
364.27343
362.88388
361.52225
360.18874
358.88352
357.60675
356.35857
355.13912
353.94853
352.78695
351.65452
350.55138
349.47765
348.43347
347.41898
346.43431
345.47958
344.55493
343.66047
342.79635
341.96269
341.1596
340.38723
339.64569
338.93512
338.25563
337.60736
336.99042
336.40495
335.85107
335.3289
334.83856
334.38017
333.95387
333.55975
333.19795
332.86858
332.57176
332.30759
332.07619
331.87768
331.71215
331.57972
331.48049
331.41455
331.38124
367.02872
365.58745
364.1735
362.78715
361.42864
360.09817
358.7959
357.52201
356.27663
355.05991
353.87199
352.71302
351.58311
350.48243
349.41109
348.36923
347.35699
346.37449
345.42187
344.49924
343.60675
342.74451
341.91266
341.11132
340.34061
339.60067
338.89162
338.21358
337.56669
336.95106
336.36682
335.8141
335.29302
334.80369
334.34626
333.92082
333.52751
333.16644
332.83773
332.54149
332.27784
332.04688
331.84874
331.68351
331.55131
331.45224
331.38638
331.35311
369.87069
368.37794
366.913
365.47525
364.06483
362.68194
361.3268
359.99962
358.70057
357.42979
356.18746
354.97371
353.78868
352.63251
351.50534
350.40732
349.33856
348.29921
347.28939
346.30924
345.35888
344.43845
343.54807
342.68786
341.85797
341.0585
340.28959
339.55137
338.84396
338.16749
337.52208
336.90785
336.32495
335.77347
335.25356
334.76534
334.30892
333.88442
333.49197
333.13169
332.80368
332.50808
332.24498
332.0145
331.81676
331.65186
331.5199
331.421
331.35524
331.32202
371.25201
369.73685
368.2485
366.78743
365.35353
363.94691
362.56776
361.21629
359.89267
358.59708
357.32969
356.09065
354.8801
353.69819
352.54506
351.42085
350.32569
349.25972
348.22306
347.21586
346.23824
345.29033
344.37225
343.48415
342.62613
341.79834
341.00089
340.23392
339.49755
338.7919
338.11711
337.47329
336.86058
336.2791
335.72898
335.21033
334.72328
334.26795
333.84446
333.45294
333.0935
332.76626
332.47133
332.20882
331.97886
331.78155
331.617
331.48532
331.38661
331.32095
331.28777
371.1025
369.59198
368.10822
366.65145
365.22175
363.81925
362.44414
361.09661
359.77684
358.485
357.22126
355.98577
354.77869
353.60014
352.45029
351.32926
350.23719
349.17421
348.14047
347.13608
346.16118
345.21589
344.30036
343.41469
342.55903
341.7335
340.93822
340.17332
339.43894
338.73518
338.0622
337.42009
336.80901
336.22906
335.68038
335.16308
334.67729
334.22314
333.80074
333.41021
333.05167
332.72525
332.43104
332.16918
331.93977
331.74293
331.57875
331.44736
331.34886
331.28331
331.2502
370.94092
369.43544
367.95658
366.5045
365.07936
363.68133
362.31058
360.9673
359.65167
358.36387
357.10407
355.87241
354.66905
353.49413
352.3478
351.23019
350.14145
349.08169
348.05107
347.0497
346.07772
345.13526
344.22244
343.3394
342.48626
341.66315
340.8702
340.10753
339.37528
338.67356
338.0025
337.36224
336.75289
336.17458
335.62744
335.11159
334.62716
334.17426
333.75302
333.36356
333.00599
332.68044
332.38702
332.12585
331.89703
331.70068
331.53692
331.40584
331.30756
331.24214
331.20909
370.76668
369.26663
367.79304
366.34604
364.92583
363.5326
362.16655
360.82785
359.51669
358.23324
356.97766
355.75012
354.55077
353.37975
352.2372
351.12327
350.03809
348.98179
347.95451
346.95638
345.98754
345.0481
344.1382
343.25797
342.40753
341.58702
340.79656
340.03627
339.30629
338.60675
337.93776
337.29946
336.69198
336.11543
335.56994
335.05564
334.57265
334.1211
333.7011
333.31278
332.95625
332.63164
332.33906
332.07862
331.85043
331.65462
331.49129
331.36056
331.26251
331.19724
331.16426
370.5792
369.08497
367.61702
366.17548
364.76059
363.37255
362.01154
360.67776
359.3714
358.09261
356.84158
355.61847
354.42341
353.25657
352.11808
351.00808
349.92672
348.87413
347.85044
346.85578
345.89028
344.95408
344.0473
343.17008
342.32253
341.5048
340.717
339.95926
339.23172
338.5345
337.86772
337.23152
336.62602
336.05135
335.50763
334.99499
334.51354
334.06343
333.64476
333.25765
332.90223
332.57862
332.28693
332.02728
331.79978
331.60454
331.44168
331.3113
331.21352
331.1484
331.1155
370.37787
368.88985
367.42794
365.99228
364.58311
363.20062
361.84503
360.51654
359.21531
357.94154
356.69538
355.47699
354.28654
353.12417
351.99003
350.88425
349.80698
348.75834
347.73848
346.74753
345.78562
344.85288
343.94943
343.07542
342.23096
341.41618
340.63123
339.87621
339.15127
338.45653
337.79211
337.15815
336.55477
335.9821
335.44026
334.92939
334.44959
334.00101
333.58375
333.19795
332.84372
332.52117
332.23044
331.97162
331.74485
331.55023
331.38787
331.25788
331.16038
331.09543
331.06261
370.16206
368.68067
367.22523
365.79587
364.39281
363.01629
361.66651
360.34366
359.04794
357.77952
356.53857
355.32526
354.13973
352.98214
351.85264
350.75137
349.67846
348.63405
347.61829
346.63129
345.6732
344.74415
343.84426
342.97367
342.1325
341.32089
340.53896
339.78684
339.06467
338.37257
337.71067
337.07909
336.47797
335.90743
335.3676
334.85861
334.38057
333.93362
333.51787
333.13345
332.78048
332.45907
332.16936
331.91144
331.68544
331.49147
331.32965
331.20009
331.10288
331.03812
331.00538
369.93115
368.45684
367.00831
365.58567
364.18916
362.81901
361.47544
360.15864
358.8688
357.6061
356.37072
355.16281
353.98254
352.83006
351.70551
350.60904
349.54078
348.50089
347.48948
346.50671
345.55269
344.62756
343.73146
342.86451
342.02685
341.2186
340.4399
339.69087
338.97164
338.28235
337.62312
336.99409
336.39537
335.8271
335.28941
334.78241
334.30624
333.86102
333.44688
333.06393
332.7123
332.39211
332.10348
331.84651
331.62134
331.42808
331.26683
331.13771
331.04083
330.97627
330.94363
369.68453
368.21776
366.7766
365.36113
363.97161
362.60827
361.27132
359.96096
358.6774
357.4208
356.19135
354.98922
353.81455
352.6675
351.54823
350.45687
349.39358
348.35848
347.35172
346.37343
345.42374
344.50279
343.61072
342.74765
341.91371
341.10903
340.33376
339.58801
338.87192
338.18561
337.52922
336.90288
336.30672
335.74086
335.20543
334.70056
334.22637
333.783
333.37056
332.98918
332.63898
332.32007
332.03259
331.77664
331.55235
331.35983
331.19919
331.07055
330.97402
330.90967
330.87713
369.42159
367.96286
366.52953
365.12171
363.73963
362.38353
361.05364
359.75015
358.47327
357.22317
356.00004
354.80404
353.63533
352.49407
351.38041
350.29449
349.23647
348.20647
347.20464
346.23111
345.28603
344.36952
343.48172
342.62276
341.79278
340.9919
340.22026
339.47799
338.76522
338.08208
337.42871
336.80523
336.21177
335.64846
335.11544
334.61282
334.14074
333.69933
333.28869
332.90897
332.56028
332.24275
331.95648
331.70162
331.47826
331.28653
331.12654
330.99841
330.90225
330.83813
330.80571
369.14176
367.69156
366.26657
364.86687
363.49271
362.14432
360.82193
359.52574
358.25596
357.01277
355.79635
354.60687
353.4445
352.30938
351.20168
350.12153
349.0691
348.04451
347.04791
346.07944
345.13924
344.22744
343.34417
342.48957
341.66378
340.86692
340.09913
339.36055
338.6513
337.97152
337.32133
336.70088
336.11029
335.54969
335.01921
334.51899
334.04913
333.60979
333.20107
332.8231
332.47602
332.15993
331.87497
331.62124
331.39888
331.20799
331.0487
330.92111
330.82534
330.76147
330.72917
368.84447
367.40333
365.98719
364.59612
363.23036
361.89015
360.57573
359.28729
358.02505
356.78919
355.57989
354.39733
353.24166
352.11306
351.01167
349.93764
348.89113
347.87228
346.88122
345.91811
344.98307
344.07625
343.19778
342.34779
341.52643
340.73383
339.97012
339.23543
338.52991
337.85368
337.20687
336.58962
336.00206
335.44432
334.91654
334.41883
333.95134
333.51418
333.10749
332.73138
332.38599
332.07144
331.78785
331.53534
331.31402
331.12403
330.96546
330.83846
330.74311
330.6795
330.64734
368.52923
367.09768
365.69092
364.30899
362.95214
361.6206
360.31462
359.03439
357.78014
356.55204
355.35028
354.17503
353.02648
351.90477
350.81006
349.74251
348.70227
347.68947
346.70428
345.74682
344.81725
343.91569
343.04229
342.19718
341.3805
340.5924
339.83299
339.10242
338.40083
337.72834
337.0851
336.47123
335.88687
335.33216
334.80721
334.31217
333.84717
333.41232
333.00777
332.63363
332.29003
331.9771
331.69496
331.44372
331.22352
331.03447
330.87668
330.75029
330.65539
330.59207
330.56004
368.19556
366.77417
365.37732
364.00506
362.65763
361.33527
360.03822
358.76668
357.52086
356.30097
355.10718
353.93968
352.79863
351.6842
350.59655
349.53584
348.50222
347.49583
346.51682
345.56534
344.64152
343.74552
342.87747
342.0375
341.22577
340.4424
339.68753
338.9613
338.26386
337.59532
336.95583
336.34553
335.76455
335.21301
334.69107
334.19884
333.73645
333.30404
332.90174
332.52968
332.18797
331.87675
331.59613
331.34625
331.12722
330.93917
330.7822
330.65646
330.56203
330.49901
330.46714
367.84306
366.4324
365.04603
363.68399
362.34651
361.03383
359.7462
358.48383
357.24693
356.0357
354.85032
353.69098
352.55786
351.45111
350.3709
349.3174
348.29075
347.2911
346.31861
345.37343
344.45568
343.56553
342.70311
341.86856
341.06203
340.28365
339.53356
338.8119
338.11882
337.45444
336.81891
336.21235
335.63492
335.08674
334.56794
334.07867
333.61904
333.1892
332.78927
332.41939
332.07967
331.77025
331.49124
331.24278
331.02499
330.83799
330.6819
330.55683
330.46291
330.40021
330.3685
367.47142
366.07207
364.69675
363.34548
362.01848
360.71602
359.43832
358.18561
356.9581
355.75599
354.57947
353.42873
352.30394
351.20528
350.13291
349.08699
348.06768
347.07513
346.10949
345.17092
344.25957
343.37556
342.51906
341.69021
340.88914
340.116
339.37094
338.65408
337.96558
337.30557
336.67419
336.07158
335.49787
334.95321
334.43772
333.95155
333.49483
333.06768
332.67025
332.30265
331.96502
331.65749
331.38018
331.13322
330.91673
330.73083
330.57565
330.45131
330.35792
330.29556
330.26402
367.0804
365.69296
364.32927
362.98933
361.67337
360.38165
359.1144
357.87184
356.6542
355.46168
354.29447
353.15277
352.03674
350.94657
349.88243
348.84448
347.83287
346.84777
345.88934
344.95771
344.05305
343.17551
342.32522
341.50233
340.707
339.93936
339.19956
338.48774
337.80404
337.14861
336.52159
335.92311
335.35331
334.81234
334.30033
333.81741
333.36372
332.9394
332.54458
332.17939
331.84395
331.53841
331.26287
331.01748
330.80236
330.61763
330.46341
330.33983
330.247
330.185
330.15363
366.66989
365.29497
363.94348
362.61544
361.31108
360.03063
358.77434
357.54245
356.33517
355.15271
353.99527
352.86303
351.7562
350.67493
349.61941
348.58981
347.58628
346.60899
345.65809
344.73374
343.8361
342.96531
342.12153
341.30489
340.51556
339.75368
339.01939
338.31284
337.63417
336.98353
336.36106
335.76691
335.2012
334.66409
334.15571
333.6762
333.22569
332.80433
332.41224
332.04956
331.71642
331.41296
331.13929
330.89554
330.68185
330.49834
330.34513
330.22234
330.1301
330.06848
330.0373
366.23991
364.8781
363.53943
362.22386
360.93163
359.663
358.4182
357.19747
356.00103
354.8291
353.68188
352.55956
351.46233
350.39038
349.34388
348.32301
347.32792
346.35879
345.41578
344.49904
343.60873
342.745
341.90801
341.09791
340.31485
339.55898
338.83044
338.1294
337.45598
336.81035
336.19263
335.60299
335.04155
334.50847
334.00388
333.52793
333.08075
332.66247
332.27324
331.91319
331.58245
331.28115
331.00942
330.7674
330.5552
330.37297
330.22081
330.09886
330.00724
329.94602
329.91504
365.79062
364.44254
363.11727
361.81475
360.53522
359.27893
358.04613
356.83706
355.65194
354.49101
353.35445
352.24248
351.15529
350.09306
349.05598
348.04421
347.05793
346.09732
345.16252
344.25371
343.37104
342.51468
341.68477
340.88148
340.10496
339.35535
338.63281
337.9375
337.26956
336.62913
336.01638
335.43143
334.87445
334.34556
333.84493
333.37268
332.92895
332.51389
332.12764
331.77032
331.44208
331.14305
330.87335
330.63312
330.42249
330.24158
330.09053
329.96945
329.87847
329.81767
329.7869
365.32236
363.98865
362.67736
361.38846
360.12217
358.87874
357.65845
356.46152
355.28821
354.13872
353.01328
351.91209
350.83534
349.78323
348.75594
347.75365
346.77654
345.82478
344.89854
343.99798
343.12326
342.27455
341.45202
340.6558
339.88607
339.14298
338.42668
337.73732
337.07507
336.44006
335.83245
335.25239
334.70003
334.17551
333.67898
333.21058
332.77045
332.35873
331.97557
331.6211
331.29546
330.99878
330.73119
330.49282
330.28382
330.1043
329.95439
329.83422
329.74391
329.68356
329.65301
364.83567
363.51697
362.22027
360.94553
359.693
358.46295
357.25565
356.07135
354.91029
353.77269
352.65879
351.56879
350.50289
349.46128
348.44417
347.45172
346.48412
345.54155
344.62418
343.73218
342.86571
342.02494
341.21004
340.42117
339.65848
338.92214
338.2123
337.52913
336.87277
336.24338
335.64111
335.06611
334.51854
333.99854
333.50626
333.04185
332.60545
332.1972
331.81725
331.46572
331.14277
330.84853
330.58313
330.3467
330.13938
329.9613
329.81258
329.69336
329.60375
329.54385
329.51353
364.33132
363.02834
361.74679
360.48675
359.24848
358.03228
356.83844
355.6672
354.51883
353.39356
352.29161
351.21319
350.15852
349.12779
348.1212
347.13893
346.18118
345.24812
344.33993
343.45678
342.59884
341.76629
340.95929
340.178
339.4226
338.69324
337.99008
337.31329
336.66302
336.03944
335.44268
334.87292
334.3303
333.81498
333.32709
332.8668
332.43425
332.02959
331.65294
331.30447
330.9843
330.69258
330.42944
330.19502
329.98944
329.81285
329.66537
329.54712
329.45824
329.39882
329.36874
363.81039
362.52393
361.25804
360.01314
358.78958
357.58768
356.40772
355.24998
354.11471
353.00215
351.91253
350.84608
349.80299
348.78349
347.78776
346.816
345.8684
344.94515
344.04642
343.1724
342.32326
341.49917
340.70031
339.92685
339.17896
338.45679
337.76052
337.09031
336.44632
335.82871
335.23764
334.67327
334.13575
333.62524
333.14188
332.68584
332.25726
331.85628
331.48305
331.13772
330.82042
330.5313
330.27049
330.03813
329.83436
329.6593
329.51309
329.39586
329.30773
329.2488
329.21896
364.56579
363.27562
362.0054
360.75541
359.52602
358.31756
357.13035
355.96468
354.82082
353.69902
352.59954
351.52261
350.46846
349.43729
348.42932
347.44476
346.4838
345.54664
344.63347
343.74447
342.87983
342.03973
341.22435
340.43385
339.66843
338.92824
338.21346
337.52426
336.86081
336.22326
335.61179
335.02656
334.46772
333.93544
333.42987
332.95116
332.49948
332.07497
331.67778
331.30806
330.96595
330.6516
330.36515
330.10674
329.8765
329.67457
329.50109
329.35619
329.24
329.15264
329.09422
329.06464
365.29419
364.00127
362.72793
361.47426
360.2405
359.02696
357.83396
356.6618
355.51076
354.38112
353.27314
352.18706
351.12313
350.08158
349.06262
348.06648
347.09335
346.14346
345.21699
344.31414
343.4351
342.58006
341.74921
340.94273
340.1608
339.4036
338.6713
337.96408
337.28211
336.62557
335.99462
335.38943
334.81016
334.25698
333.73006
333.22954
332.75559
332.30837
331.88802
331.49471
331.12857
330.78977
330.47843
330.19471
329.93874
329.71068
329.51064
329.33878
329.19522
329.08009
328.99353
328.93562
328.9063
365.99482
364.70027
363.42512
362.16911
360.93238
359.7152
358.51784
357.34062
356.18382
355.04771
353.93259
352.8387
351.76631
350.71565
349.68695
348.68046
347.69637
346.73492
345.79631
344.88074
343.98842
343.11953
342.27429
341.45287
340.65546
339.88225
339.13343
338.40917
337.70965
337.03505
336.38555
335.76131
335.16251
334.58933
334.04191
333.52044
333.02507
332.55596
332.11328
331.69718
331.30781
330.94533
330.60988
330.30161
330.02067
329.76721
329.54135
329.34325
329.17303
329.03084
328.9168
328.83104
328.77367
328.74462
365.37218
364.09656
362.83971
361.60148
360.38209
359.18181
358.00094
356.83976
355.69857
354.57765
353.47728
352.39772
351.33922
350.30204
349.28641
348.29256
347.32072
346.37112
345.44396
344.53946
343.65781
342.79924
341.96392
341.15207
340.36387
339.59951
338.85918
338.14307
337.45137
336.78424
336.14187
335.52444
334.93213
334.3651
333.82353
333.30759
332.81743
332.35324
331.91516
331.50335
331.11798
330.7592
330.42716
330.12201
329.84389
329.59295
329.36934
329.17319
329.00464
328.86384
328.7509
328.66597
328.60914
328.58036
364.74266
363.48629
362.24809
361.02799
359.82622
358.6431
357.47893
356.334
355.20861
354.10305
353.0176
351.95251
350.90806
349.8845
348.88207
347.901
346.94154
346.0039
345.08831
344.19497
343.32412
342.47594
341.65066
340.84846
340.06955
339.31412
338.58236
337.87447
337.19064
336.53105
335.89588
335.28532
334.69954
334.13872
333.60304
333.09267
332.60778
332.14853
331.71509
331.30762
330.92628
330.57123
330.24262
329.94061
329.66533
329.41695
329.1956
329.00142
328.83456
328.69516
328.58334
328.49923
328.44295
328.41445
364.11027
362.87328
361.65392
360.45212
359.26815
358.10233
356.95498
355.82641
354.71693
353.62681
352.55635
351.50582
350.47549
349.46561
348.47643
347.50821
346.56116
345.63554
344.73155
343.84944
342.9894
342.15167
341.33644
340.54392
339.77433
339.02785
338.30469
337.60505
336.92911
336.27707
335.64912
335.04544
334.46621
333.91162
333.38184
332.87706
332.39743
331.94314
331.51435
331.11122
330.73392
330.38261
330.05745
329.75857
329.48615
329.24033
329.02124
328.82905
328.66388
328.52588
328.41517
328.3319
328.27617
328.24794
363.4795
362.2619
361.06139
359.87793
358.71178
357.56329
356.43278
355.32057
354.22697
353.15228
352.0968
351.0608
350.04456
349.04833
348.07238
347.11696
346.1823
345.26865
344.37624
343.50531
342.65606
341.82872
341.02352
340.24065
339.48033
338.74278
338.02818
337.33674
336.66867
336.02415
335.40338
334.80655
334.23384
333.68544
333.16154
332.66231
332.18793
331.73857
331.31441
330.9156
330.54232
330.19473
329.87299
329.57725
329.30766
329.06438
328.84756
328.65733
328.49384
328.35724
328.24765
328.16521
328.11003
328.08208
362.85541
361.65709
360.47533
359.31009
358.16164
357.03034
355.91653
354.82055
353.7427
352.68331
351.64266
350.62105
349.61876
348.63605
347.67319
346.73044
345.80804
344.90624
344.02528
343.16539
342.32681
341.50976
340.71446
339.94113
339.18998
338.46123
337.75509
337.07177
336.41146
335.77436
335.16068
334.57061
334.00435
333.46207
332.94396
332.45022
331.98101
331.53652
331.11693
330.72239
330.35308
330.00916
329.69079
329.39814
329.13136
328.89059
328.67599
328.48771
328.32589
328.19066
328.08217
328.00056
327.94591
327.91824
362.24369
361.06448
359.90121
358.75388
357.62284
356.50844
355.41104
354.33099
353.26861
352.22423
351.19815
350.19066
349.20205
348.2326
347.28258
346.35225
345.44186
344.55167
343.68193
342.83287
342.00474
341.19776
340.41215
339.64816
338.90599
338.18587
337.48801
336.81261
336.1599
335.53007
334.92333
334.33988
333.7799
333.24361
332.73117
332.24279
331.77865
331.33892
330.92379
330.53342
330.16799
329.82766
329.5126
329.22297
328.95892
328.72061
328.50819
328.32181
328.16161
328.02774
327.92033
327.83951
327.7854
327.75799
361.6507
360.49049
359.34523
358.2153
357.10115
356.00315
354.92169
353.85711
352.80975
351.77994
350.768
349.77421
348.79888
347.84229
346.90471
345.98642
345.08768
344.20875
343.34988
342.51131
341.69329
340.89606
340.11985
339.3649
338.63142
337.91964
337.22979
336.56207
335.91671
335.29391
334.69388
334.11682
333.56294
333.03242
332.52547
332.04228
331.58303
331.1479
330.73708
330.35074
329.98906
329.6522
329.34034
329.05362
328.79222
328.55629
328.34598
328.16144
328.00281
327.87024
327.76387
327.68383
327.63023
327.60309
362.24339
361.0856
359.94265
358.81435
357.701
356.60298
355.52069
354.45448
353.40472
352.37175
351.35589
350.35748
349.37681
348.41418
347.4699
346.54423
345.63746
344.74985
343.88168
343.03319
342.20465
341.3963
340.60839
339.84115
339.09482
338.36964
337.66583
336.98362
336.32324
335.68489
335.06879
334.47516
333.9042
333.35613
332.83113
332.32941
331.85116
331.39657
330.96583
330.55913
330.17663
329.81853
329.48498
329.17616
328.89222
328.63335
328.39968
328.19137
328.00858
327.85145
327.72013
327.61475
327.53546
327.48235
327.45545
361.69571
360.55479
359.42824
358.31595
357.21821
356.1354
355.06789
354.01605
352.98024
351.96081
350.9581
349.97242
349.00409
348.05342
347.12071
346.20624
345.3103
344.43316
343.5751
342.73638
341.91725
341.11798
340.33882
339.58
338.84177
338.12438
337.42805
336.75301
336.0995
335.46773
334.85792
334.27029
333.70506
333.16242
332.6426
332.14578
331.67216
331.22195
330.79532
330.39247
330.01358
329.65882
329.32837
329.0224
328.74108
328.48456
328.25301
328.04659
327.86544
327.70972
327.57956
327.47511
327.39651
327.34386
327.3172
361.19215
360.06696
358.95566
357.8582
356.77489
355.70611
354.65224
353.61365
352.5907
351.58375
350.59313
349.61918
348.66222
347.72256
346.80049
345.89633
345.01035
344.14284
343.29407
342.46432
341.65385
340.86293
340.0918
339.34071
338.60993
337.89968
337.21022
336.54176
335.89455
335.26882
334.66478
334.08266
333.52267
332.98503
332.46994
331.97761
331.50825
331.06204
330.63918
330.23986
329.86427
329.51258
329.18497
328.88161
328.60268
328.34833
328.11872
327.91402