/*--------------------------------*- C++ -*----------------------------------*\
| =========                 |                                                 |
| \\      /  F ield         | OpenFOAM: The Open Source CFD Toolbox           |
|  \\    /   O peration     | Version:  2312                                  |
|   \\  /    A nd           | Website:  www.openfoam.com                      |
|    \\/     M anipulation  |                                                 |
\*---------------------------------------------------------------------------*/
FoamFile
{
    version     2.0;
    format      ascii;
    arch        "LSB;label=32;scalar=64";
    class       volVectorField;
    location    "0.09";
    object      U;
}
// * * * * * * * * * * * * * * * * * * * * * * * * * * * * * * * * * * * * * //

dimensions      [0 1 -1 0 0 0 0];

internalField   nonuniform List<vector> 
3224
(
(0.39536615 0.0028721606 0)
(0.3833397 0.0028346686 0)
(0.37168443 0.002799145 0)
(0.36039695 0.0027651871 0)
(0.34947459 0.0027326765 0)
(0.33891449 0.0027016729 0)
(0.32871373 0.0026722469 0)
(0.31886941 0.0026444545 0)
(0.30937858 0.002618342 0)
(0.30023825 0.0025939519 0)
(0.2914453 0.0025713247 0)
(0.28299649 0.0025504984 0)
(0.27488838 0.0025315069 0)
(0.26711729 0.0025143793 0)
(0.25967927 0.0024991369 0)
(0.25257002 0.0024857934 0)
(0.24578491 0.002474351 0)
(0.23931884 0.0024648014 0)
(0.2331663 0.0024571204 0)
(0.22732122 0.0024512706 0)
(0.22177704 0.0024471958 0)
(0.21652657 0.0024448243 0)
(0.21156206 0.0024440638 0)
(0.20687507 0.0024448063 0)
(0.20245654 0.0024469219 0)
(0.19829673 0.0024502671 0)
(0.19438522 0.0024546781 0)
(0.1907109 0.0024599798 0)
(0.18726202 0.0024659803 0)
(0.18402616 0.0024724803 0)
(0.1809903 0.0024792687 0)
(0.17814082 0.0024861324 0)
(0.17546356 0.0024928494 0)
(0.17294399 0.0024991988 0)
(0.17056685 0.0025049524 0)
(0.16831811 0.0025098733 0)
(0.1661783 0.002513724 0)
(0.1641484 0.0025161774 0)
(0.16215367 0.0025173596 0)
(0.16041833 0.0025163519 0)
(0.1578644 0.0025163197 0)
(0.39540944 0.0077055517 0)
(0.3833853 0.0075909868 0)
(0.37173243 0.0074795977 0)
(0.36044722 0.0073707239 0)
(0.34952708 0.0072641995 0)
(0.3389692 0.0071600178 0)
(0.32877067 0.0070581814 0)
(0.31892856 0.0069586847 0)
(0.30943992 0.0068615223 0)
(0.30030175 0.0067666948 0)
(0.29151093 0.0066742134 0)
(0.28306422 0.0065840988 0)
(0.27495818 0.0064963827 0)
(0.26718911 0.0064111058 0)
(0.25975307 0.006328319 0)
(0.25264576 0.00624808 0)
(0.24586252 0.0061704548 0)
(0.23939828 0.0060955128 0)
(0.2332475 0.0060233281 0)
(0.22740413 0.0059539735 0)
(0.2218616 0.0058875237 0)
(0.21661273 0.0058240476 0)
(0.21164975 0.0057636112 0)
(0.20696424 0.0057062708 0)
(0.20254714 0.0056520763 0)
(0.19838871 0.0056010655 0)
(0.19447853 0.0055532663 0)
(0.19080551 0.0055086912 0)
(0.18735789 0.0054673409 0)
(0.18412326 0.0054291981 0)
(0.18108861 0.0053942315 0)
(0.17824032 0.0053623875 0)
(0.17556424 0.0053335926 0)
(0.17304584 0.0053077407 0)
(0.17066986 0.0052846924 0)
(0.16842227 0.0052642338 0)
(0.16628353 0.0052461408 0)
(0.16425471 0.0052298428 0)
(0.16226066 0.0052159813 0)
(0.16052693 0.0052015352 0)
(0.15797571 0.0052003316 0)
(0.39548999 0.012540435 0)
(0.38347096 0.012349192 0)
(0.3718229 0.012161999 0)
(0.36054232 0.011978212 0)
(0.34962679 0.011797681 0)
(0.33907351 0.011620333 0)
(0.32887955 0.0114461 0)
(0.31904199 0.011274914 0)
(0.30955785 0.011106718 0)
(0.30042414 0.010941469 0)
(0.29163772 0.010779151 0)
(0.28319534 0.010619768 0)
(0.27509355 0.010463347 0)
(0.26732864 0.010309943 0)
(0.25989666 0.010159634 0)
(0.25279331 0.010012525 0)
(0.24601391 0.0098687419 0)
(0.23955339 0.009728436 0)
(0.23340619 0.0095917751 0)
(0.22756628 0.0094589467 0)
(0.22202705 0.009330151 0)
(0.21678135 0.0092056019 0)
(0.21182139 0.0090855183 0)
(0.20713876 0.0089701261 0)
(0.20272439 0.0088596489 0)
(0.19856855 0.0087543112 0)
(0.19466084 0.0086543261 0)
(0.19099016 0.0085598996 0)
(0.18754477 0.0084712175 0)
(0.18431227 0.0083884522 0)
(0.18127966 0.008311745 0)
(0.17843334 0.0082412086 0)
(0.17575916 0.0081769121 0)
(0.17324261 0.0081188735 0)
(0.17086842 0.0080670383 0)
(0.16862256 0.0080212285 0)
(0.16648539 0.0079812319 0)
(0.16445814 0.0079462475 0)
(0.16246469 0.0079174357 0)
(0.16073374 0.0078889913 0)
(0.15818545 0.0078864985 0)
(0.39560818 0.017374263 0)
(0.38359693 0.017106722 0)
(0.37195599 0.016843731 0)
(0.36068242 0.016585007 0)
(0.3497739 0.016330441 0)
(0.3392276 0.016079903 0)
(0.3290406 0.015833252 0)
(0.31920993 0.015590358 0)
(0.30973264 0.015351109 0)
(0.30060568 0.015115426 0)
(0.29182594 0.014883259 0)
(0.28339012 0.014654598 0)
(0.27529477 0.014429468 0)
(0.26753618 0.014207936 0)
(0.26011036 0.01399011 0)
(0.25301299 0.01377614 0)
(0.24623941 0.013566214 0)
(0.2397845 0.013360561 0)
(0.23364272 0.013159447 0)
(0.227808 0.01296317 0)
(0.22227374 0.012772058 0)
(0.21703278 0.012586466 0)
(0.21207732 0.012406769 0)
(0.20739896 0.012233358 0)
(0.20298863 0.012066634 0)
(0.19883661 0.011907003 0)
(0.19493248 0.011754866 0)
(0.19126519 0.011610618 0)
(0.187823 0.011474634 0)
(0.18459353 0.01134727 0)
(0.18156379 0.011228845 0)
(0.17872021 0.011119634 0)
(0.17604865 0.011019854 0)
(0.17353461 0.010929645 0)
(0.17116284 0.010849049 0)
(0.16891929 0.010777924 0)
(0.16678421 0.010716094 0)
(0.16475904 0.010662521 0)
(0.16276607 0.010618931 0)
(0.16103902 0.010575599 0)
(0.15849309 0.010572931 0)
(0.40814318 0.022556575 0)
(0.39576444 0.022205777 0)
(0.38376302 0.0218619 0)
(0.37213142 0.021523021 0)
(0.36086728 0.021189312 0)
(0.34996819 0.020860672 0)
(0.33943128 0.020536904 0)
(0.32925362 0.020217798 0)
(0.31943222 0.019903161 0)
(0.30996411 0.019592831 0)
(0.30084624 0.019286686 0)
(0.29207545 0.01898465 0)
(0.28364846 0.018686696 0)
(0.27556176 0.018392848 0)
(0.26781164 0.018103188 0)
(0.26039408 0.01781785 0)
(0.25330476 0.017537032 0)
(0.24653897 0.017260982 0)
(0.24009159 0.01699001 0)
(0.23395705 0.016724476 0)
(0.22812928 0.016464789 0)
(0.22260167 0.016211405 0)
(0.21736702 0.01596482 0)
(0.21241756 0.015725561 0)
(0.20774488 0.015494187 0)
(0.2033399 0.015271271 0)
(0.19919291 0.015057401 0)
(0.19529352 0.014853166 0)
(0.19163067 0.014659148 0)
(0.18819265 0.014475911 0)
(0.1849671 0.014303993 0)
(0.18194106 0.014143887 0)
(0.17910098 0.013996036 0)
(0.17643276 0.013860803 0)
(0.17392192 0.013738455 0)
(0.17155319 0.013629131 0)
(0.16931256 0.013532749 0)
(0.16718008 0.013449154 0)
(0.16515758 0.013377227 0)
(0.16316481 0.013318794 0)
(0.16144346 0.01326139 0)
(0.15889803 0.013255682 0)
(0.40831885 0.0271805 0)
(0.3959524 0.026757924 0)
(0.38396206 0.02634157 0)
(0.3723416 0.025931035 0)
(0.36108877 0.025526589 0)
(0.35020099 0.025128084 0)
(0.33967536 0.024735252 0)
(0.32950889 0.024347815 0)
(0.31969861 0.023965523 0)
(0.3102415 0.023588165 0)
(0.30113451 0.023215584 0)
(0.29237446 0.022847678 0)
(0.28395802 0.022484404 0)
(0.27588169 0.022125789 0)
(0.2681417 0.021771924 0)
(0.26073402 0.021422974 0)
(0.2536543 0.021079176 0)
(0.24689781 0.02074084 0)
(0.24045941 0.020408347 0)
(0.2343335 0.020082147 0)
(0.22851399 0.019762755 0)
(0.22299425 0.019450744 0)
(0.21776709 0.019146742 0)
(0.21282472 0.018851422 0)
(0.20815872 0.018565494 0)
(0.20376003 0.018289696 0)
(0.19961893 0.018024786 0)
(0.19572504 0.017771525 0)
(0.19206734 0.017530673 0)
(0.18863412 0.01730297 0)
(0.18541307 0.017089123 0)
(0.18239124 0.016889792 0)
(0.17955512 0.016705574 0)
(0.17689064 0.016536974 0)
(0.17438335 0.016384381 0)
(0.17201801 0.016248024 0)
(0.16978059 0.016127929 0)
(0.16765103 0.016023827 0)
(0.16563144 0.015935137 0)
(0.16363914 0.015861581 0)
(0.16192375 0.015797957 0)
(0.1593786 0.015770016 0)
(0.40853531 0.031583001 0)
(0.39618333 0.031090196 0)
(0.38420603 0.030604403 0)
(0.3725988 0.030125532 0)
(0.36135933 0.029653673 0)
(0.35048489 0.029188596 0)
(0.33997255 0.028729958 0)
(0.32981928 0.028277415 0)
(0.32002209 0.027830664 0)
(0.31057795 0.027389453 0)
(0.30148376 0.02695359 0)
(0.29273632 0.026522949 0)
(0.28433228 0.026097477 0)
(0.27626809 0.025677197 0)
(0.26853997 0.025262214 0)
(0.26114384 0.024852721 0)
(0.25407532 0.024448995 0)
(0.24732965 0.0240514 0)
(0.24090166 0.023660389 0)
(0.23478573 0.023276495 0)
(0.22897575 0.022900333 0)
(0.22346506 0.022532586 0)
(0.21824646 0.022174007 0)
(0.21331214 0.021825404 0)
(0.20865368 0.021487633 0)
(0.20426203 0.021161586 0)
(0.20012748 0.020848178 0)
(0.19623966 0.020548338 0)
(0.19258755 0.020262989 0)
(0.1891595 0.019993036 0)
(0.1859432 0.01973935 0)
(0.18292575 0.019502747 0)
(0.18009369 0.01928397 0)
(0.17743297 0.019083657 0)
(0.1749292 0.018902322 0)
(0.17256715 0.018740273 0)
(0.17033281 0.018597678 0)
(0.16820614 0.018474058 0)
(0.166189 0.018369795 0)
(0.16419885 0.018280969 0)
(0.16248545 0.018216684 0)
(0.15994372 0.018153525 0)
(0.40880888 0.036103849 0)
(0.39647436 0.035538437 0)
(0.38451339 0.034981232 0)
(0.37292255 0.034432067 0)
(0.36169952 0.033890886 0)
(0.3508415 0.033357358 0)
(0.34034549 0.032831059 0)
(0.33020845 0.032311581 0)
(0.32042734 0.031798569 0)
(0.31099912 0.031291729 0)
(0.30192064 0.030790836 0)
(0.29318868 0.03029574 0)
(0.28479983 0.029806376 0)
(0.27675051 0.029322767 0)
(0.26903689 0.028845034 0)
(0.26165487 0.028373394 0)
(0.2546 0.027908167 0)
(0.24786751 0.027449774 0)
(0.24145217 0.026998739 0)
(0.23534834 0.026555681 0)
(0.22954987 0.026121313 0)
(0.22405009 0.025696435 0)
(0.21884176 0.025281923 0)
(0.21391708 0.024878724 0)
(0.20926761 0.02448784 0)
(0.20488431 0.024110319 0)
(0.20075746 0.023747239 0)
(0.19687672 0.023399693 0)
(0.1932311 0.023068772 0)
(0.18980896 0.022755551 0)
(0.18659805 0.022461065 0)
(0.18358551 0.022186287 0)
(0.18075791 0.021932111 0)
(0.17810128 0.021699313 0)
(0.17560125 0.021488533 0)
(0.17324268 0.021300169 0)
(0.1710115 0.021134529 0)
(0.16888796 0.020990969 0)
(0.16687301 0.02087072 0)
(0.164887 0.020766605 0)
(0.16317165 0.020700005 0)
(0.1606376 0.02060473 0)
(0.42183218 0.041396538 0)
(0.4091375 0.040744541 0)
(0.3968232 0.040104852 0)
(0.38488168 0.039474229 0)
(0.37331039 0.03885278 0)
(0.36210694 0.038240319 0)
(0.35126844 0.037636408 0)
(0.34079185 0.037040543 0)
(0.3306741 0.036452257 0)
(0.32091212 0.035871142 0)
(0.3115028 0.035296861 0)
(0.30244299 0.034729157 0)
(0.29372939 0.034167859 0)
(0.28535856 0.033612887 0)
(0.27732687 0.033064269 0)
(0.26963044 0.032522137 0)
(0.26226511 0.031986737 0)
(0.25522641 0.031458432 0)
(0.24850948 0.030937702 0)
(0.24210909 0.030425141 0)
(0.23601952 0.029921456 0)
(0.23023461 0.029427462 0)
(0.22474766 0.028944072 0)
(0.2195514 0.028472291 0)
(0.21463801 0.028013204 0)
(0.20999905 0.027567961 0)
(0.20562546 0.027137767 0)
(0.20150756 0.026723864 0)
(0.19763502 0.026327512 0)
(0.19399686 0.025949974 0)
(0.19058149 0.025592491 0)
(0.18737671 0.025256265 0)
(0.1843697 0.024942433 0)
(0.1815471 0.024652039 0)
(0.17889499 0.024386002 0)
(0.17639907 0.024145089 0)
(0.17404428 0.0239298 0)
(0.17181652 0.023740565 0)
(0.16969643 0.023576662 0)
(0.16768367 0.023439868 0)
(0.16570338 0.023320787 0)
(0.16398351 0.023248543 0)
(0.16145963 0.023128926 0)
(0.42218966 0.046235055 0)
(0.4095193 0.045508098 0)
(0.39722768 0.044791842 0)
(0.38530875 0.044085707 0)
(0.37376022 0.04338993 0)
(0.36257953 0.042704169 0)
(0.35176372 0.042027882 0)
(0.34130969 0.041360493 0)
(0.33121433 0.040701472 0)
(0.32147453 0.040050362 0)
(0.31208714 0.039406784 0)
(0.30304896 0.03877045 0)
(0.29435665 0.038141165 0)
(0.2860067 0.037518842 0)
(0.27799543 0.036903506 0)
(0.2703189 0.036295307 0)
(0.2629729 0.03569452 0)
(0.25595289 0.035101552 0)
(0.24925396 0.034516939 0)
(0.24287083 0.033941351 0)
(0.23679775 0.033375581 0)
(0.2310285 0.032820547 0)
(0.22555634 0.032277277 0)
(0.22037399 0.031746906 0)
(0.21547361 0.031230656 0)
(0.21084673 0.030729829 0)
(0.20648432 0.030245786 0)
(0.20237668 0.029779934 0)
(0.19851352 0.029333701 0)
(0.19488389 0.028908521 0)
(0.19147625 0.028505805 0)
(0.18827842 0.028126925 0)
(0.18527768 0.027773179 0)
(0.18246071 0.027445767 0)
(0.17981368 0.02714575 0)
(0.17732235 0.026874029 0)
(0.17497177 0.026631211 0)
(0.1727478 0.026417832 0)
(0.1706316 0.026233163 0)
(0.16862121 0.026079254 0)
(0.16664791 0.025945434 0)
(0.16492182 0.025864999 0)
(0.16241002 0.025727076 0)
(0.43562096 0.052028349 0)
(0.4225942 0.051203419 0)
(0.4099511 0.050397002 0)
(0.3976851 0.049601713 0)
(0.38579205 0.048817943 0)
(0.37426954 0.048045729 0)
(0.36311483 0.047284585 0)
(0.35232489 0.046533872 0)
(0.34189657 0.045792942 0)
(0.33182672 0.045061207 0)
(0.32211219 0.044338161 0)
(0.31274978 0.043623387 0)
(0.30373623 0.042916563 0)
(0.29506814 0.042217474 0)
(0.28674196 0.041526022 0)
(0.27875392 0.040842238 0)
(0.27110002 0.040166284 0)
(0.26377599 0.039498468 0)
(0.25677723 0.038839239 0)
(0.25009877 0.038189195 0)
(0.24373527 0.037549077 0)
(0.23768092 0.036919769 0)
(0.23192945 0.03630229 0)
(0.22647411 0.035697787 0)
(0.22130756 0.035107519 0)
(0.21642194 0.034532852 0)
(0.2118088 0.033975235 0)
(0.20745908 0.03343619 0)
(0.2033631 0.032917286 0)
(0.19951059 0.032420122 0)
(0.19589065 0.031946301 0)
(0.19249176 0.031497407 0)
(0.18930183 0.031074979 0)
(0.18630818 0.03068048 0)
(0.18349759 0.030315266 0)
(0.1808563 0.029980545 0)
(0.17837016 0.029677351 0)
(0.17602435 0.029406405 0)
(0.17380469 0.029168334 0)
(0.17169292 0.028962464 0)
(0.1696853 0.028790881 0)
(0.16771999 0.028642461 0)
(0.16598669 0.028552048 0)
(0.16348841 0.028400169 0)
(0.43603853 0.057208026 0)
(0.42304315 0.056302708 0)
(0.4104297 0.055413379 0)
(0.39819268 0.054536804 0)
(0.38632889 0.053673202 0)
(0.37483569 0.052822374 0)
(0.36371022 0.0519837 0)
(0.35294937 0.051156448 0)
(0.34254994 0.050339902 0)
(0.33250876 0.04953342 0)
(0.3228226 0.048736449 0)
(0.31348824 0.047948531 0)
(0.30450234 0.047169316 0)
(0.29586144 0.046398569 0)
(0.28756191 0.045636182 0)
(0.27959993 0.04488219 0)
(0.27197142 0.044136774 0)
(0.26467203 0.043400271 0)
(0.2576971 0.042673175 0)
(0.2510416 0.041956144 0)
(0.24470011 0.041249995 0)
(0.23866677 0.040555699 0)
(0.23293528 0.03987438 0)
(0.2274988 0.039207298 0)
(0.22235 0.038555845 0)
(0.21748098 0.037921523 0)
(0.21288327 0.037305934 0)
(0.20854782 0.036710756 0)
(0.20446497 0.036137722 0)
(0.20062447 0.035588599 0)
(0.19701545 0.035065163 0)
(0.19362646 0.034569168 0)
(0.19044546 0.034102321 0)
(0.18745984 0.033666251 0)
(0.18465649 0.03326247 0)
(0.18202173 0.032892335 0)
(0.17954151 0.032557013 0)
(0.17720114 0.032257345 0)
(0.17498642 0.03199404 0)
(0.1728797 0.031766518 0)
(0.17087543 0.031576738 0)
(0.16891898 0.031413779 0)
(0.16717795 0.031312156 0)
(0.1646947 0.031149692 0)
(0.44984124 0.06353664 0)
(0.43649388 0.062524651 0)
(0.42353281 0.061534224 0)
(0.41095197 0.060559563 0)
(0.39874744 0.059599441 0)
(0.38691629 0.058653742 0)
(0.37545575 0.057722057 0)
(0.36436281 0.056803639 0)
(0.3536343 0.055897671 0)
(0.343267 0.055003375 0)
(0.33325765 0.054120057 0)
(0.32360302 0.053247118 0)
(0.31429979 0.052384064 0)
(0.30534458 0.051530515 0)
(0.29673384 0.050686217 0)
(0.28846389 0.049851057 0)
(0.28053081 0.049025073 0)
(0.27293047 0.048208464 0)
(0.26565842 0.047401599 0)
(0.25870993 0.046605018 0)
(0.2520799 0.04581944 0)
(0.24576284 0.045045755 0)
(0.23975284 0.044285026 0)
(0.23404352 0.043538477 0)
(0.22862802 0.042807486 0)
(0.22349896 0.042093572 0)
(0.21864842 0.041398378 0)
(0.21406792 0.040723653 0)
(0.2097484 0.040071232 0)
(0.20568023 0.039443013 0)
(0.20185317 0.03884093 0)
(0.1982564 0.038266928 0)
(0.19487854 0.037722932 0)
(0.19170761 0.037210818 0)
(0.18873109 0.036732378 0)
(0.18593594 0.036289283 0)
(0.18330862 0.035883038 0)
(0.18083516 0.035514944 0)
(0.17850103 0.035185967 0)
(0.17629204 0.034896887 0)
(0.17419109 0.03464726 0)
(0.17219089 0.034438798 0)
(0.17024405 0.03426131 0)
(0.16849522 0.034147646 0)
(0.16602851 0.033977247 0)
(0.4502926 0.06907828 0)
(0.43698365 0.067979491 0)
(0.42405936 0.066900272 0)
(0.41151456 0.065837986 0)
(0.39934607 0.064791965 0)
(0.38755103 0.063761835 0)
(0.37612653 0.062746977 0)
(0.36506947 0.061746531 0)
(0.35437661 0.060759605 0)
(0.34404467 0.059785364 0)
(0.33407039 0.058823063 0)
(0.32445044 0.057872062 0)
(0.31518147 0.056931831 0)
(0.30626001 0.056001961 0)
(0.29768245 0.055082184 0)
(0.28944502 0.054172378 0)
(0.28154372 0.053272589 0)
(0.27397434 0.052383034 0)
(0.26673235 0.051504115 0)
(0.25981294 0.05063642 0)
(0.25321093 0.049780726 0)
(0.24692076 0.048938 0)
(0.24093645 0.048109393 0)
(0.23525157 0.047296233 0)
(0.2298592 0.046500012 0)
(0.22475193 0.045722377 0)
(0.21992182 0.044965109 0)
(0.21536036 0.044230105 0)
(0.21105851 0.043519355 0)
(0.20700664 0.042834918 0)
(0.20319456 0.042178896 0)
(0.19961148 0.0415534 0)
(0.19624609 0.040960527 0)
(0.19308647 0.040402318 0)
(0.19012021 0.03988073 0)
(0.18733437 0.039397591 0)
(0.18471551 0.038954554 0)
(0.18224978 0.038553057 0)
(0.17992282 0.038194188 0)
(0.17772044 0.037878805 0)
(0.17562609 0.037606613 0)
(0.17363085 0.037379038 0)
(0.17169433 0.037186977 0)
(0.16993801 0.037060768 0)
(0.16748943 0.03688449 0)
(0.46442702 0.075980259 0)
(0.45077075 0.074764569 0)
(0.4375034 0.073574124 0)
(0.42461898 0.07240334 0)
(0.41211383 0.071251073 0)
(0.399985 0.070116746 0)
(0.38822959 0.068999771 0)
(0.37684458 0.06789935 0)
(0.36582678 0.066814522 0)
(0.35517291 0.06574433 0)
(0.34487965 0.064687886 0)
(0.33494367 0.0636444 0)
(0.32536162 0.062613189 0)
(0.31613006 0.061593689 0)
(0.30724545 0.060585469 0)
(0.29870411 0.059588242 0)
(0.29050216 0.058601885 0)
(0.28263556 0.057626448 0)
(0.27509996 0.056662171 0)
(0.26789079 0.055709488 0)
(0.26100313 0.054769035 0)
(0.25443173 0.05384165 0)
(0.24817094 0.052928375 0)
(0.24221473 0.052030449 0)
(0.23655659 0.051149301 0)
(0.23118957 0.050286539 0)
(0.22610621 0.049443936 0)
(0.22129853 0.048623409 0)
(0.21675804 0.047827001 0)
(0.21247567 0.047056856 0)
(0.20844182 0.046315192 0)
(0.20464633 0.045604274 0)
(0.20107848 0.044926382 0)
(0.19772699 0.044283777 0)
(0.19458006 0.043678667 0)
(0.19162535 0.043113171 0)
(0.18885002 0.042589275 0)
(0.18624078 0.04210878 0)
(0.18378388 0.041673259 0)
(0.18146513 0.041283928 0)
(0.17927039 0.04094172 0)
(0.17718357 0.040646513 0)
(0.17519432 0.040399441 0)
(0.17326882 0.040192729 0)
(0.17150567 0.040053706 0)
(0.16907685 0.0398731 0)
(0.46488194 0.081906262 0)
(0.45127159 0.080596864 0)
(0.43804854 0.079310932 0)
(0.4252076 0.078046 0)
(0.41274582 0.076801294 0)
(0.40066032 0.075576171 0)
(0.38894811 0.074369858 0)
(0.3776061 0.073181405 0)
(0.36663101 0.072009771 0)
(0.35601953 0.070853939 0)
(0.3457683 0.069712973 0)
(0.33587395 0.068586038 0)
(0.32633304 0.067472415 0)
(0.31714209 0.066371508 0)
(0.30829746 0.065282862 0)
(0.29979541 0.064206177 0)
(0.29163197 0.063141326 0)
(0.28380298 0.062088371 0)
(0.27630405 0.061047571 0)
(0.26913048 0.060019396 0)
(0.26227728 0.059004527 0)
(0.25573911 0.058003866 0)
(0.24951025 0.057018529 0)
(0.24358458 0.056049842 0)
(0.23795556 0.055099337 0)
(0.23261615 0.054168733 0)
(0.22755887 0.053259928 0)
(0.22277572 0.052374973 0)
(0.21825817 0.051516055 0)
(0.21399718 0.050685468 0)
(0.20998317 0.049885588 0)
(0.20620599 0.049118841 0)
(0.202655 0.04838767 0)
(0.19931897 0.0476945 0)
(0.1961862 0.047041705 0)
(0.19324444 0.046431562 0)
(0.19048098 0.045866214 0)
(0.18788263 0.04534761 0)
(0.1854358 0.044877457 0)
(0.18312644 0.044457102 0)
(0.18094047 0.044087564 0)
(0.17886222 0.043768902 0)
(0.17688013 0.043501997 0)
(0.1749664 0.043280523 0)
(0.17319737 0.043128592 0)
(0.17079004 0.042944808 0)
(0.47930383 0.089421679 0)
(0.46535095 0.087984973 0)
(0.45178986 0.086576886 0)
(0.43861442 0.085192515 0)
(0.42582081 0.08383085 0)
(0.41340622 0.08249115 0)
(0.40136777 0.081172651 0)
(0.38970243 0.079874422 0)
(0.37840698 0.078595395 0)
(0.36747813 0.077334459 0)
(0.35691251 0.076090546 0)
(0.34670672 0.074862676 0)
(0.33685734 0.073649973 0)
(0.32736088 0.072451681 0)
(0.31821377 0.071267177 0)
(0.30941231 0.070095984 0)
(0.30095266 0.068937791 0)
(0.29283077 0.067792471 0)
(0.28504239 0.066660095 0)
(0.27758302 0.065540946 0)
(0.27044788 0.064435529 0)
(0.26363189 0.063344574 0)
(0.25712962 0.062269042 0)
(0.25093528 0.061210125 0)
(0.24504266 0.060169237 0)
(0.23944516 0.059148008 0)
(0.23413571 0.058148268 0)
(0.22910675 0.057172038 0)
(0.22435028 0.0562215 0)
(0.21985776 0.055298983 0)
(0.21562014 0.054406927 0)
(0.21162785 0.053547863 0)
(0.20787082 0.052724374 0)
(0.20433842 0.051939063 0)
(0.20101953 0.051194519 0)
(0.19790251 0.050493274 0)
(0.19497524 0.049837764 0)
(0.19222511 0.049230285 0)
(0.18963907 0.048672937 0)
(0.18720365 0.048167561 0)
(0.18490499 0.047715636 0)
(0.18272907 0.047318277 0)
(0.18066055 0.046975735 0)
(0.17868691 0.046688702 0)
(0.17678577 0.046452336 0)
(0.17501209 0.046287517 0)
(0.17262805 0.046101383 0)
(0.47972796 0.095756725 0)
(0.46582882 0.094217985 0)
(0.45232007 0.092707142 0)
(0.43919614 0.091221578 0)
(0.42645381 0.089760515 0)
(0.41409033 0.088323161 0)
(0.40210276 0.086908614 0)
(0.390488 0.08551581 0)
(0.37924278 0.084143592 0)
(0.36836375 0.08279079 0)
(0.35784752 0.081456289 0)
(0.34769065 0.080139069 0)
(0.33788966 0.078838218 0)
(0.328441 0.077552948 0)
(0.31934102 0.076282606 0)
(0.31058596 0.075026699 0)
(0.30217186 0.073784907 0)
(0.29409461 0.072557105 0)
(0.28634985 0.071343375 0)
(0.27893299 0.070144026 0)
(0.27183915 0.068959596 0)
(0.26506317 0.067790867 0)
(0.25859953 0.06663886 0)
(0.25244234 0.065504841 0)
(0.24658534 0.064390308 0)
(0.24102184 0.06329699 0)
(0.23574473 0.062226829 0)
(0.23074642 0.06118196 0)
(0.22601887 0.060164699 0)
(0.22155352 0.059177508 0)
(0.21734134 0.058222974 0)
(0.2133728 0.057303777 0)
(0.20963783 0.056422654 0)
(0.20612588 0.055582365 0)
(0.20282591 0.054785655 0)
(0.19972636 0.054035215 0)
(0.19681522 0.053333638 0)
(0.19408002 0.05268337 0)
(0.19150782 0.052086659 0)
(0.18908532 0.051545484 0)
(0.18679878 0.051061458 0)
(0.18463429 0.050635808 0)
(0.1825768 0.050268979 0)
(0.18061303 0.04996156 0)
(0.17872541 0.049710153 0)
(0.17694856 0.04953254 0)
(0.17458968 0.049344632 0)
(0.48015041 0.10225281 0)
(0.4663091 0.10060705 0)
(0.45285667 0.09899037 0)
(0.4397884 0.097400843 0)
(0.42710146 0.095837632 0)
(0.41479308 0.094299864 0)
(0.40286029 0.092786506 0)
(0.39129992 0.091296392 0)
(0.38010866 0.089828293 0)
(0.36928313 0.08838099 0)
(0.3588199 0.086953329 0)
(0.34871548 0.085544254 0)
(0.33896636 0.084152817 0)
(0.32956891 0.082778201 0)
(0.32051941 0.081419731 0)
(0.31181401 0.080076897 0)
(0.30344868 0.078749374 0)
(0.2954192 0.077437039 0)
(0.28772112 0.076139991 0)
(0.28034977 0.074858561 0)
(0.27330016 0.073593328 0)
(0.26656703 0.07234512 0)
(0.26014477 0.07111502 0)
(0.25402743 0.069904367 0)
(0.24820866 0.068714744 0)
(0.24268171 0.067547975 0)
(0.23743941 0.066406109 0)
(0.23247414 0.065291399 0)
(0.22777781 0.064206283 0)
(0.22334188 0.06315336 0)
(0.21915732 0.062135355 0)
(0.2152146 0.061155094 0)
(0.21150373 0.060215463 0)
(0.2080142 0.059319375 0)
(0.20473504 0.058469729 0)
(0.2016548 0.05766937 0)
(0.19876158 0.056921044 0)
(0.19604302 0.056227347 0)
(0.19348633 0.055590672 0)
(0.19107835 0.05501314 0)
(0.1888055 0.054496502 0)
(0.18665398 0.05404211 0)
(0.18460891 0.05365061 0)
(0.18265658 0.053322574 0)
(0.18078351 0.053055967 0)
(0.1790052 0.052865696 0)
(0.17667342 0.052676392 0)
(0.48056478 0.10891034 0)
(0.46678562 0.10715466 0)
(0.45339382 0.10542938 0)
(0.44038552 0.10373305 0)
(0.42775816 0.10206485 0)
(0.41550899 0.10042381 0)
(0.40363497 0.098808794 0)
(0.3921329 0.097218559 0)
(0.38099942 0.095651818 0)
(0.37023114 0.094107313 0)
(0.35982459 0.092583857 0)
(0.34977625 0.091080357 0)
(0.34008253 0.089595838 0)
(0.33073976 0.088129455 0)
(0.32174415 0.086680514 0)
(0.31309174 0.085248494 0)
(0.30477843 0.083833064 0)
(0.29679991 0.082434109 0)
(0.28915163 0.081051743 0)
(0.28182881 0.079686326 0)
(0.27482639 0.078338474 0)
(0.26813901 0.077009063 0)
(0.26176096 0.07569924 0)
(0.25568622 0.074410412 0)
(0.24990835 0.073144248 0)
(0.24442056 0.071902666 0)
(0.2392156 0.070687816 0)
(0.23428582 0.069502066 0)
(0.22962312 0.068347976 0)
(0.22521894 0.067228272 0)
(0.22106425 0.066145817 0)
(0.21714956 0.065103576 0)
(0.21346491 0.064104581 0)
(0.20999986 0.063151893 0)
(0.20674353 0.062248559 0)
(0.20368456 0.061397576 0)
(0.20081116 0.060601838 0)
(0.19811109 0.05986409 0)
(0.19557171 0.059186871 0)
(0.19318 0.058572443 0)
(0.19092253 0.058022703 0)
(0.1887856 0.05753914 0)
(0.18675452 0.057122609 0)
(0.18481531 0.05677375 0)
(0.18295795 0.056491776 0)
(0.1811801 0.056288998 0)
(0.17887744 0.056098528 0)
(0.49507039 0.11763479 0)
(0.48096503 0.11573198 0)
(0.46725227 0.11386379 0)
(0.45392534 0.11202702 0)
(0.44098137 0.11022096 0)
(0.42841791 0.10844482 0)
(0.41623215 0.10669756 0)
(0.404421 0.10497797 0)
(0.39298123 0.10328473 0)
(0.38190946 0.10161652 0)
(0.37120228 0.099972044 0)
(0.36085617 0.098350091 0)
(0.35086758 0.096749537 0)
(0.34123289 0.095169381 0)
(0.33194833 0.093608756 0)
(0.32301005 0.09206695 0)
(0.31441402 0.090543435 0)
(0.30615605 0.08903788 0)
(0.29823171 0.087550178 0)
(0.29063639 0.086080462 0)
(0.2833652 0.084629121 0)
(0.27641299 0.083196808 0)
(0.26977429 0.081784452 0)
(0.26344333 0.080393257 0)
(0.25741399 0.079024704 0)
(0.25167977 0.077680541 0)
(0.24623379 0.076362778 0)
(0.24106878 0.075073666 0)
(0.23617704 0.073815682 0)
(0.23155044 0.072591504 0)
(0.22718041 0.071403982 0)
(0.22305795 0.07025611 0)
(0.21917358 0.069150988 0)
(0.21551739 0.068091789 0)
(0.21207902 0.067081714 0)
(0.20884764 0.066123959 0)
(0.20581202 0.065221664 0)
(0.20296045 0.06437787 0)
(0.20028085 0.06359547 0)
(0.1977607 0.062877146 0)
(0.19538713 0.062225305 0)
(0.19314685 0.061641992 0)
(0.19102629 0.061128852 0)
(0.18901087 0.060686956 0)
(0.1870866 0.060317084 0)
(0.18524626 0.060019574 0)
(0.18347096 0.059804445 0)
(0.18119951 0.059612924 0)
(0.49537772 0.12474024 0)
(0.48134474 0.12272183 0)
(0.46770213 0.12073754 0)
(0.45444449 0.11878615 0)
(0.44156938 0.11686732 0)
(0.42907425 0.11498021 0)
(0.41695621 0.11312371 0)
(0.40521215 0.11129654 0)
(0.39383879 0.10949735 0)
(0.38283275 0.10772477 0)
(0.37219059 0.1059775 0)
(0.36190878 0.10425428 0)
(0.35198372 0.10255399 0)
(0.34241172 0.10087558 0)
(0.33318898 0.099218179 0)
(0.32431156 0.097581064 0)
(0.31577535 0.095963698 0)
(0.30757607 0.094365755 0)
(0.29970921 0.09278714 0)
(0.29217006 0.091228006 0)
(0.28495364 0.089688771 0)
(0.2780547 0.088170131 0)
(0.27146769 0.086673063 0)
(0.26518675 0.085198832 0)
(0.25920567 0.083748988 0)
(0.25351788 0.082325358 0)
(0.24811646 0.080930041 0)
(0.24299407 0.079565386 0)
(0.23814297 0.078233976 0)
(0.23355503 0.0769386 0)
(0.22922166 0.07568223 0)
(0.22513387 0.074467983 0)
(0.22128221 0.073299091 0)
(0.21765683 0.07217886 0)
(0.21424741 0.071110629 0)
(0.21104323 0.070097734 0)
(0.20803314 0.069143457 0)
(0.20520556 0.068250983 0)
(0.20254852 0.067423347 0)
(0.20004965 0.066663377 0)
(0.1976962 0.065973626 0)
(0.19547507 0.065356296 0)
(0.19337277 0.064813197 0)
(0.19137484 0.064345623 0)
(0.18946744 0.063954566 0)
(0.18764555 0.063641351 0)
(0.18587511 0.06341402 0)
(0.18363702 0.063221483 0)
(0.52474395 0.13641797 0)
(0.51000031 0.13420097 0)
(0.49565163 0.13202196 0)
(0.48169564 0.12988283 0)
(0.46812764 0.12777877 0)
(0.45494409 0.12570962 0)
(0.44214253 0.1236749 0)
(0.42972028 0.12167371 0)
(0.4176744 0.11970487 0)
(0.40600174 0.11776705 0)
(0.39469902 0.11585889 0)
(0.38376284 0.11397899 0)
(0.37318973 0.11212602 0)
(0.36297615 0.11029872 0)
(0.35311846 0.10849593 0)
(0.34361293 0.1067166 0)
(0.33445568 0.10495984 0)
(0.3256427 0.10322492 0)
(0.31716981 0.1015113 0)
(0.30903264 0.099818658 0)
(0.3012266 0.098146921 0)
(0.29374688 0.096496263 0)
(0.28658842 0.094867135 0)
(0.27974587 0.093260271 0)
(0.2732136 0.091676701 0)
(0.26698566 0.090117747 0)
(0.26105576 0.08858503 0)
(0.25541727 0.087080454 0)
(0.2500632 0.085606202 0)
(0.24498617 0.084164718 0)
(0.24017841 0.082758687 0)
(0.23563176 0.081391005 0)
(0.23133763 0.08006476 0)
(0.22728705 0.078783187 0)
(0.22347059 0.077549644 0)
(0.21987846 0.076367564 0)
(0.2165004 0.07524042 0)
(0.21332577 0.074171682 0)
(0.21034351 0.073164769 0)
(0.20754217 0.072223006 0)
(0.20490991 0.071349571 0)
(0.20243448 0.070547435 0)
(0.20010329 0.069819301 0)
(0.19790337 0.069167531 0)
(0.19582135 0.068594116 0)
(0.19384288 0.068100577 0)
(0.1919544 0.067688174 0)
(0.19015255 0.067359088 0)
(0.18838941 0.067119695 0)
(0.18618694 0.066926114 0)
(0.53986618 0.1465134 0)
(0.5248097 0.14412866 0)
(0.51015025 0.14178461 0)
(0.49588436 0.13948168 0)
(0.48200928 0.13721749 0)
(0.46852094 0.13499041 0)
(0.45541649 0.13280029 0)
(0.44269331 0.13064648 0)
(0.43034864 0.12852802 0)
(0.41837948 0.12644367 0)
(0.40678267 0.12439208 0)
(0.39555491 0.12237186 0)
(0.38469282 0.12038162 0)
(0.37419289 0.11842 0)
(0.36405158 0.11648573 0)
(0.35426519 0.11457763 0)
(0.34482995 0.11269466 0)
(0.33574193 0.11083589 0)
(0.32699704 0.10900061 0)
(0.31859104 0.10718828 0)
(0.31051946 0.10539859 0)
(0.30277765 0.10363149 0)
(0.29536069 0.10188716 0)
(0.28826343 0.1001661 0)
(0.28148045 0.098469087 0)
(0.27500602 0.096797196 0)
(0.26883412 0.095151812 0)
(0.26295838 0.09353462 0)
(0.25737211 0.091947601 0)
(0.25206826 0.090393022 0)
(0.2470394 0.088873415 0)
(0.24227774 0.087391562 0)
(0.23777509 0.085950465 0)
(0.23352288 0.084553317 0)
(0.22951212 0.083203471 0)
(0.22573346 0.081904401 0)
(0.22217711 0.080659665 0)
(0.2188329 0.079472861 0)
(0.21569028 0.078347588 0)
(0.21273828 0.0772874 0)
(0.20996556 0.076295757 0)
(0.20736041 0.075375978 0)
(0.20491071 0.074531178 0)
(0.20260402 0.073764209 0)
(0.2004275 0.073077603 0)
(0.1983679 0.072473537 0)
(0.19641099 0.07195377 0)
(0.1945436 0.071519872 0)
(0.19276352 0.071174756 0)
(0.19101031 0.070923427 0)
(0.18884578 0.070728735 0)
(0.53978016 0.15454547 0)
(0.52481437 0.15202907 0)
(0.51024419 0.14955415 0)
(0.49606612 0.1471214 0)
(0.48227704 0.14472868 0)
(0.46887377 0.14237536 0)
(0.45585357 0.14006101 0)
(0.44321375 0.13778486 0)
(0.43095147 0.13554587 0)
(0.41906373 0.13334278 0)
(0.40754734 0.13117424 0)
(0.39639901 0.12903883 0)
(0.38561534 0.12693516 0)
(0.37519283 0.12486187 0)