/*--------------------------------*- C++ -*----------------------------------*\
| =========                 |                                                 |
| \\      /  F ield         | OpenFOAM: The Open Source CFD Toolbox           |
|  \\    /   O peration     | Version:  2312                                  |
|   \\  /    A nd           | Website:  www.openfoam.com                      |
|    \\/     M anipulation  |                                                 |
\*---------------------------------------------------------------------------*/
FoamFile
{
    version     2.0;
    format      ascii;
    arch        "LSB;label=32;scalar=64";
    class       volScalarField;
    location    "0.03";
    object      alphat;
}
// * * * * * * * * * * * * * * * * * * * * * * * * * * * * * * * * * * * * * //

dimensions      [1 -1 -1 0 0 0 0];

internalField   nonuniform List<scalar> 
3275
(
0.0048112548
0.0053140331
0.0059294232
0.0065881436
0.0072781143
0.0079928747
0.0087487231
0.0095502459
0.010395353
0.011274182
0.01217297
0.012999132
0.013830852
0.014635502
0.015373308
0.01602518
0.016572232
0.017020723
0.017390077
0.017695283
0.017953996
0.018164697
0.018339675
0.018484736
0.01860455
0.018702911
0.018782924
0.01884715
0.018897715
0.018936398
0.018964696
0.018983875
0.018995005
0.018998988
0.018996547
0.018988349
0.018970714
0.018952692
0.018931287
0.018905973
0.018877117
0.018845088
0.018807667
0.018769502
0.018729315
0.018686627
0.018641575
0.018594264
0.018544776
0.018493174
0.018439503
0.018383795
0.0048662494
0.0054269633
0.006034245
0.0066785592
0.0073545403
0.0080544733
0.0088001332
0.0095936703
0.010432501
0.011305906
0.012199872
0.013023136
0.013850863
0.01465208
0.015386851
0.016036056
0.016580806
0.017027392
0.017395206
0.017699182
0.017956886
0.018166804
0.01834116
0.018485721
0.018605134
0.018703172
0.018782924
0.018846938
0.018897332
0.018935877
0.018964064
0.018983154
0.018994217
0.018998154
0.018995676
0.018987305
0.018969711
0.01895176
0.018930333
0.018905006
0.018876138
0.018844082
0.018806676
0.018768554
0.018728372
0.018685694
0.018640654
0.018593357
0.018543884
0.018492299
0.018438648
0.01838296
0.0050170317
0.0056682342
0.0062504735
0.0068624762
0.0075091896
0.0081774949
0.0089019322
0.0096802716
0.010506648
0.011369179
0.012253464
0.0130711
0.013890681
0.014685075
0.01541379
0.016057669
0.016597811
0.0170406
0.017405351
0.017706883
0.017962582
0.018170949
0.018344068
0.018487639
0.018606258
0.018703656
0.018782892
0.01884649
0.018896548
0.018934821
0.01896279
0.018981709
0.018992641
0.01899649
0.018993963
0.018985194
0.018967726
0.018949909
0.018928441
0.018903091
0.018874201
0.018842083
0.018804714
0.018766681
0.018726509
0.01868385
0.018638835
0.018591566
0.018542125
0.018490574
0.01843696
0.018381312
0.0053563317
0.0060819224
0.0065841346
0.0071409159
0.0077424673
0.0083589798
0.0090523495
0.0098090876
0.010616948
0.011463242
0.012333
0.013142748
0.013949831
0.014734112
0.015453806
0.016089746
0.016623003
0.017060145
0.017420352
0.017718263
0.017970989
0.018177059
0.018348345
0.01849045
0.01860789
0.01870434
0.018782812
0.018845794
0.018895353
0.018933224
0.018960872
0.018979535
0.018990272
0.018993994
0.018991466
0.018981935
0.018964791
0.018947139
0.01892561
0.018900231
0.018871315
0.018839082
0.018801789
0.018763883
0.018723728
0.018681098
0.01863612
0.018588894
0.0185395
0.018488
0.018434441
0.01837885
0.0061417411
0.0067037374
0.0070766691
0.0075156651
0.0080342712
0.0086136209
0.0092545049
0.0099787543
0.01076221
0.011587042
0.012437308
0.013237673
0.014027787
0.014798658
0.015506439
0.016131895
0.016656039
0.01708575
0.017439991
0.017733152
0.017981977
0.018185037
0.018353919
0.018494098
0.018609991
0.018705196
0.018782663
0.018844833
0.018893737
0.01893108
0.018958304
0.018976631
0.018987108
0.018990654
0.01898831
0.018977364
0.018960983
0.018943451
0.018921842
0.018896429
0.018867499
0.018835055
0.018797915
0.01876016
0.01872003
0.018677439
0.018632511
0.018585342
0.018536011
0.018484579
0.018431092
0.018375576
0.0081121922
0.0076051037
0.0076687975
0.0079537553
0.0083640005
0.008885527
0.0094971946
0.010178307
0.010930417
0.011730341
0.012557145
0.013348341
0.014118697
0.014873408
0.015567347
0.016180617
0.016694153
0.017115258
0.017462613
0.017750297
0.017994616
0.018194209
0.018360315
0.018498267
0.018612371
0.018706134
0.018782437
0.018843667
0.018891812
0.01892854
0.018955272
0.018973208
0.018983376
0.018986674
0.018984138
0.018972378
0.01895668
0.018939098
0.018917409
0.018891964
0.018863058
0.018830251
0.018793397
0.018755784
0.018715683
0.01867314
0.01862827
0.018581169
0.018531912
0.018480558
0.018427155
0.018371726
0.010627664
0.0086344232
0.008312345
0.0084230432
0.0087398666
0.0091919996
0.0097552105
0.010406581
0.01111591
0.011888429
0.01268753
0.013470583
0.014220863
0.014955673
0.015634378
0.01623417
0.016735958
0.017147589
0.017487383
0.017769062
0.018008434
0.018204231
0.018367289
0.018502795
0.018614931
0.018707106
0.018782128
0.018842322
0.018889628
0.018925678
0.018951865
0.018969369
0.018979192
0.018982185
0.018979256
0.018967031
0.018951927
0.018934219
0.018912447
0.018886969
0.018858175
0.018824754
0.018788411
0.018750886
0.018710823
0.018668334
0.01862353
0.018576503
0.018527329
0.018476063
0.018422754
0.018367424
0.013478673
0.0099042108
0.009094603
0.0089831076
0.0091784128
0.0095525395
0.010054277
0.010664278
0.011337604
0.012072477
0.012842274
0.013607646
0.01434118
0.01505106
0.015712112
0.016296179
0.016784223
0.017184869
0.017515924
0.01779067
0.018024318
0.018215744
0.018375275
0.018507949
0.018617804
0.018708137
0.01878167
0.018840661
0.018886992
0.018922251
0.018947803
0.018964803
0.018974227
0.01897685
0.018973302
0.018960899
0.018946307
0.01892843
0.018906564
0.018881042
0.018852189
0.018818438
0.018782557
0.018745084
0.01870507
0.018662645
0.01861792
0.018570983
0.018521905
0.018470744
0.018417544
0.018362335
0.016199648
0.011331463
0.0099856293
0.0096238267
0.0096766579
0.009960194
0.010397812
0.010952733
0.011591343
0.012286378
0.013020702
0.013760144
0.014479129
0.015160747
0.015800574
0.016366596
0.016838845
0.017227004
0.017548153
0.017815051
0.0180422
0.018228701
0.018384223
0.018513679
0.018620941
0.018709177
0.018781013
0.018838631
0.018883849
0.018918202
0.018943027
0.018959451
0.018968427
0.018970649
0.018966155
0.018953965
0.01893973
0.018921662
0.018899695
0.018874123
0.018845073
0.018811216
0.018775756
0.018738319
0.018698363
0.018656016
0.018611383
0.01856455
0.018515586
0.018464545
0.018411472
0.018356393
0.01851678
0.012840059
0.010969324
0.010337657
0.010233548
0.010415175
0.010781462
0.011278562
0.011870377
0.0125297
0.013223969
0.013932397
0.01462864
0.015286579
0.015899454
0.016445224
0.01689962
0.017273834
0.017583941
0.017842104
0.018061989
0.018243035
0.018394072
0.018519931
0.01862429
0.018710175
0.018780106
0.018836182
0.018880149
0.018913477
0.018937482
0.018953257
0.018961744
0.018963614
0.018957581
0.018946289
0.018932101
0.018913848
0.018891779
0.018866179
0.018836754
0.018803028
0.018767933
0.018730531
0.018690644
0.018648387
0.018603861
0.018557147
0.018508314
0.018457413
0.018404484
0.01834955
0.020370305
0.014346677
0.012021346
0.01111643
0.010845505
0.010916676
0.011203405
0.01163963
0.0121796
0.012794567
0.013453328
0.014124253
0.014790108
0.015425646
0.016010962
0.016531714
0.016966223
0.017325128
0.017623099
0.017871683
0.018083573
0.018258652
0.018404743
0.018526637
0.018627792
0.018711074
0.018778894
0.018833261
0.018875842
0.018908021
0.018931112
0.018946159
0.018954122
0.018955028
0.018948297
0.018937716
0.018923352
0.018904922
0.018882751
0.018857212
0.018827094
0.018793848
0.018759013
0.018721658
0.018681852
0.018639699
0.018595295
0.018548719
0.018500034
0.01844929
0.018396526
0.018341752
0.021809715
0.015783836
0.013111715
0.011948303
0.011507009
0.011461613
0.011663035
0.012032283
0.01251864
0.01308427
0.013700701
0.014337479
0.014967209
0.015573038
0.016133793
0.016626853
0.017038174
0.017380577
0.017665369
0.017903596
0.018106801
0.018275427
0.018416129
0.018533713
0.018631374
0.01871181
0.018777317
0.018829811
0.018870873
0.018901775
0.018923859
0.018938094
0.018945596
0.018944782
0.018938352
0.018928045
0.018913433
0.018894819
0.018872531
0.018846815
0.018816364
0.018783661
0.018748922
0.018711636
0.018671925
0.018629892
0.018585627
0.018539205
0.018490687
0.01844012
0.018387542
0.018332944
0.022917701
0.017109612
0.014209235
0.012818253
0.012210449
0.012045572
0.012157458
0.012455675
0.012883183
0.013398751
0.013968296
0.014564863
0.015161051
0.015732063
0.016262174
0.016730093
0.017116
0.017439809
0.01771041
0.017937592
0.018131483
0.018293201
0.018428096
0.018541055
0.018634949
0.018712303
0.0187753
0.018825765
0.018865191
0.018894672
0.018915661
0.018928969
0.018935366
0.018933683
0.018927673
0.018917139
0.018902279
0.018883474
0.018861075
0.018834958
0.018804554
0.018772295
0.018737605
0.018700402
0.018660802
0.018618904
0.018574795
0.018528546
0.018480214
0.018429845
0.018377478
0.018323068
0.023774047
0.018304935
0.01528581
0.013709285
0.012946257
0.012662741
0.012682761
0.012906863
0.013272103
0.013733711
0.014255687
0.014807964
0.015365226
0.015903083
0.016398885
0.016835666
0.017198522
0.017504205
0.017757775
0.017973371
0.018157388
0.018311779
0.018440467
0.018548536
0.018638412
0.018712457
0.018772756
0.018821043
0.018858743
0.018886627
0.01890646
0.018918777
0.018923329
0.018921997
0.018915817
0.018904952
0.018889827
0.018870818
0.01884838
0.018821499
0.018791674
0.018759626
0.018724998
0.018687892
0.018648418
0.018606673
0.018562738
0.01851668
0.018468555
0.018418403
0.018366257
0.018312086
0.02444328
0.019366424
0.016318858
0.014603937
0.013703342
0.013305971
0.013234001
0.01338214
0.01368266
0.014087491
0.014559005
0.01506573
0.015580675
0.016080587
0.016543206
0.016946423
0.017283798
0.017569088
0.01780929
0.018010583
0.018184264
0.018330923
0.01845302
0.018556014
0.018641639
0.01871216
0.018769583
0.018815551
0.018851492
0.01887753
0.018896198
0.01890654
0.018910805
0.018909251
0.018902636
0.018891418
0.018876012
0.018856766
0.018833974
0.018806907
0.018777559
0.018745579
0.018711031
0.018674038
0.018634708
0.018593133
0.01854939
0.018503544
0.018455647
0.018405735
0.018353823
0.018299933
0.024973394
0.020299351
0.017292076
0.015485697
0.014469728
0.013966979
0.013805243
0.013876997
0.014111261
0.014457348
0.01487597
0.015334799
0.015805967
0.016265039
0.016690426
0.017060397
0.017372969
0.017635865
0.017860159
0.018049693
0.018212994
0.018350354
0.018465468
0.018563344
0.018644495
0.018711281
0.01876566
0.018809163
0.01884345
0.018867211
0.018883812
0.018893828
0.018897304
0.018895139
0.018888067
0.018876474
0.018860775
0.018841284
0.018817766
0.018791223
0.018762006
0.018730091
0.018695639
0.018658776
0.018619606
0.018578219
0.018534688
0.018489074
0.018441427
0.01839178
0.018340116
0.018286542
0.02539833
0.021112462
0.018194639
0.016339987
0.015233269
0.014636674
0.014389687
0.014386163
0.014553656
0.01483972
0.015203769
0.015612608
0.016037908
0.016454782
0.016840608
0.017175903
0.017461812
0.017705491
0.017911971
0.01808904
0.018240478
0.018370451
0.018478597
0.018570421
0.018646831
0.018709672
0.018760856
0.018801694
0.018833391
0.01885587
0.01887112
0.018879891
0.018882443
0.018879587
0.018872045
0.018860055
0.018844054
0.018823796
0.018800448
0.018774121
0.018744937
0.018713096
0.018678754
0.018642036
0.018603045
0.018561865
0.018518566
0.018473206
0.018425831
0.018376455
0.018325102
0.018271843
0.025740954
0.021814203
0.019019988
0.017154692
0.015982312
0.015305556
0.014979862
0.014903686
0.015004972
0.015230493
0.015538847
0.015896225
0.016273854
0.016646548
0.016991656
0.017291704
0.017551065
0.017773988
0.017964742
0.018129195
0.018268122
0.018390099
0.01849109
0.01857698
0.018648476
0.018707163
0.018755044
0.018793102
0.018822342
0.018843214
0.018857051
0.01886461
0.018866136
0.018862503
0.018854515
0.018842093
0.018825226
0.018805056
0.018781777
0.018755434
0.018726286
0.018694528
0.01866031
0.018623754
0.018584959
0.018544006
0.018500959
0.018455874
0.018408799
0.018359704
0.018308708
0.018255775
0.026022638
0.022424354
0.019764845
0.017920276
0.016706216
0.015964116
0.015567864
0.015423063
0.015459784
0.015625037
0.015877169
0.016182084
0.016510737
0.016837761
0.01714018
0.01740698
0.017639816
0.017842237
0.018016914
0.018167769
0.018296585
0.018409321
0.018502662
0.01858283
0.018649254
0.018703555
0.0187481
0.018783303
0.018810109
0.018829183
0.018841536
0.018847923
0.018848294
0.018843771
0.018835439
0.018821924
0.01880515
0.01878488
0.018761467
0.018735097
0.018705989
0.018674323
0.018640242
0.018603865
0.018565284
0.018524577
0.018481804
0.018437015
0.018390245
0.0183415
0.01829086
0.018238287
0.026258621
0.022958289
0.020435364
0.018629801
0.017395669
0.016603204
0.016145628
0.015937409
0.015912214
0.016018263
0.016214256
0.016466207
0.016744975
0.01702524
0.017285593
0.017519837
0.017727531
0.017909546
0.018068117
0.018205674
0.018324041
0.018426751
0.018514049
0.018588008
0.018648978
0.018698583
0.018739921
0.0187722
0.018796547
0.018813695
0.01882449
0.01882982
0.018828829
0.018823216
0.018814222
0.018800597
0.018783461
0.018762987
0.018739449
0.01871305
0.018683984
0.018652419
0.018618489
0.018582306
0.018543959
0.018503518
0.01846104
0.018416568
0.018370122
0.018321768
0.018271497
0.026459339
0.023428386
0.021041315
0.019279686
0.018042725
0.017214321
0.016705191
0.016439653
0.016356075
0.016404717
0.016545243
0.016744238
0.016972612
0.017205335
0.017426678
0.017629994
0.017812854
0.017975403
0.018118104
0.018242444
0.018350275
0.018443392
0.018523829
0.018591316
0.018647347
0.018693084
0.018730475
0.018759699
0.018781537
0.018796665
0.018805781
0.018809496
0.018807724
0.018801469
0.018791503
0.018777494
0.018760015
0.018739323
0.018715663
0.018689234
0.018660215
0.018628758
0.018594992
0.018559019
0.018520924
0.01848077
0.018438609
0.018394456
0.018348404
0.018300433
0.018250563
0.026632208
0.023844655
0.021590689
0.019878101
0.018641274
0.01778978
0.017238948
0.016922751
0.016785033
0.016778698
0.016864947
0.017011525
0.017189368
0.017377752
0.017562785
0.01773675
0.017895924
0.018038968
0.018166283
0.018277985
0.018375045
0.018459116
0.018531829
0.018593488
0.018644349
0.018685966
0.018719577
0.0187457
0.018764984
0.018778025
0.018785403
0.018787616
0.018784877
0.01877785
0.018767073
0.018752588
0.018734758
0.018713839
0.018690056
0.018663597
0.018634629
0.018603291
0.018569699
0.018533953
0.018496127
0.01845628
0.018414428
0.018370672
0.018325007
0.01827745
0.018228008
0.026782661
0.024215232
0.022090197
0.020431129
0.019198877
0.018325637
0.017739915
0.017379912
0.017192814
0.017134419
0.017167968
0.017263247
0.017394529
0.017542503
0.017693719
0.017839859
0.017976271
0.018100691
0.018212314
0.018311683
0.0183983
0.018473596
0.018538296
0.018594183
0.018639889
0.018677247
0.018707126
0.018730125
0.018746821
0.018757724
0.018763328
0.018764066
0.018760254
0.018752377
0.018740848
0.018725846
0.01870765
0.018686496
0.018662585
0.018636097
0.018607184
0.018575972
0.018542565
0.01850706
0.018469522
0.01842997
0.018388508
0.018345138
0.018299888
0.018252769
0.018203784
0.026914769
0.024546766
0.022545571
0.020943559
0.019720941
0.018829044
0.018209654
0.017807313
0.017573475
0.01746653
0.017451758
0.017500596
0.017589453
0.017700184
0.017819722
0.017939405
0.018053905
0.018160221
0.018256889
0.018343521
0.018419628
0.018486351
0.018543729
0.018593096
0.018633915
0.018666939
0.018693078
0.018712926
0.018727007
0.018735735
0.01873953
0.018738786
0.018733834
0.018725054
0.018712782
0.01869724
0.018678664
0.018657265
0.01863322
0.018606701
0.018577847
0.018546768
0.018513553
0.018478304
0.018441046
0.018401859
0.018360772
0.018317814
0.018273001
0.018226346
0.027031649
0.024844715
0.022961741
0.021419326
0.020211456
0.019305097
0.018654524
0.018212013
0.017933467
0.017780599
0.017720621
0.017726444
0.017775942
0.017851863
0.017941443
0.018035799
0.018129097
0.018217736
0.01829966
0.018373855
0.018439713
0.018497376
0.018547639
0.018590419
0.018626415
0.018655087
0.018677437
0.018694093
0.018705541
0.01871206
0.018714008
0.018711753
0.018705612
0.018695886
0.018682862
0.01866676
0.018647787
0.018626133
0.018601943
0.018575391
0.018546597
0.018515659
0.018482635
0.018447649
0.018410711
0.018371882
0.018331193
0.018288665
0.018244312
0.018198139
0.027135722
0.025113578
0.023342968
0.021861766
0.020673463
0.019757449
0.019079214
0.018599126
0.018278147
0.018081458
0.017978547
0.017943756
0.017956087
0.01799897
0.018059874
0.018129756
0.018202381
0.018273645
0.01834098
0.018402881
0.018458473
0.018507486
0.01854993
0.018586641
0.018616925
0.018641753
0.018660225
0.018673738
0.01868247
0.01868674
0.018686788
0.018682982
0.018675612
0.0186649
0.0186511
0.018634415
0.018615027
0.018593111
0.018568752
0.018542161
0.018513427
0.018482622
0.018449817
0.018415093
0.018378481
0.018340024
0.018299747
0.018257668
0.018213795
0.018168126
0.027228891
0.025357079
0.023692931
0.022273758
0.021109354
0.020188718
0.01948704
0.018972535
0.018611774
0.018373181
0.01822912
0.018155432
0.01813212
0.018143187
0.018176291
0.018222262
0.018274534
0.018328575
0.018381371
0.018430993
0.018476251
0.018516541
0.018551633
0.018581663
0.018606089
0.018626685
0.01864148
0.018651914
0.018657876
0.018659817
0.018657953
0.018652555
0.018643891
0.018632144
0.018617538
0.018600241
0.018580411
0.01855819
0.018533687
0.018507045
0.018478353
0.01844768
0.018415088
0.018380635
0.018344355
0.018306279
0.018266427
0.018224811
0.018181433
0.018136287
0.027312676
0.025578314
0.024014815
0.022657817
0.02152106
0.020600782
0.019880295
0.019335056
0.018937235
0.01865909
0.018475453
0.018364185
0.018306294
0.018286342
0.018292172
0.018314521
0.01834655
0.018383359
0.018421533
0.018458764
0.018493542
0.01852495
0.018552489
0.018575942
0.018594995
0.018609858
0.018621709
0.018628402
0.018631906
0.018631463
0.01862761
0.018620542
0.018610543
0.018597701
0.01858225
0.018564305
0.018544001
0.018521457
0.018496776
0.018470066
0.018441408
0.01841086
0.018378474
0.018344293
0.018308347
0.018270658
0.018231238
0.018190095
0.018147226
0.018102617
0.0273883
0.025779862
0.024311365
0.023016144
0.021910177
0.020994993
0.020260513
0.019688632
0.019256901
0.018941641
0.018720146
0.018572448
0.018480777
0.018430309
0.01840912
0.018407906
0.018419609
0.01843901
0.01846234
0.018486943
0.018510991
0.018533278
0.01855304
0.018569814
0.018583263
0.018593337
0.018600401
0.018603796
0.018604635
0.018601498
0.018595941
0.018587084
0.018575718
0.018561687
0.018545352
0.018526712
0.018505893
0.01848299
0.018458093
0.018431292
0.01840265
0.018372214
0.018340022
0.018306107
0.018270491
0.018233188
0.018194204
0.01815354
0.018111187
0.018067127
0.02745676
0.025963886
0.024584956
0.023350676
0.022278045
0.021372323
0.020628662
0.020034491
0.019572348
0.019222553
0.018965327
0.018782319
0.018657559
0.01857692
0.01852879
0.018503896
0.018495025
0.018496693
0.018504822
0.018516434
0.0185294
0.018542234
0.018553922
0.018563788
0.018571372
0.018576448
0.018578932
0.018578768
0.018575939
0.01857098
0.018562873
0.018552062
0.018539649
0.018524244
0.018507012
0.018487608
0.01846622
0.018442908
0.018417748
0.018390821
0.018362168
0.018331821
0.018299806
0.018266142
0.018230845
0.018193921
0.01815537
0.018115184
0.018073352
0.018029847
0.027518879
0.026132211
0.024837636
0.023663115
0.022625807
0.021733475
0.020985291
0.020373312
0.019884542
0.019503119
0.019212223
0.018995502
0.018838383
0.018727884
0.018652809
0.018604011
0.018574201
0.018557693
0.018550142
0.018548285
0.018549709
0.018552663
0.018555893
0.018558516
0.018559918
0.018559702
0.018557622
0.018553457
0.018547469
0.018539406
0.018528548
0.01851664
0.018502148
0.018485321
0.018467484
0.018447183
0.018425163
0.018401372
0.018375884
0.018348788
0.018320086
0.018289797
0.018257929
0.018224494
0.018189496
0.018152936
0.018114807
0.018075093
0.018033777
0.017990827
0.027575341
0.026286379
0.025071179
0.023954959
0.022954446
0.022078955
0.02133065
0.020705346
0.020193934
0.019784085
0.019461891
0.019213218
0.019024695
0.01888472
0.018782708
0.018709752
0.018658574
0.018623363
0.018599563
0.018583659
0.018572984
0.018565536
0.018559832
0.018554787
0.018549614
0.018543762
0.018536842
0.018528573
0.018518822
0.018507743
0.018494603
0.018479646
0.01846403
0.018446119
0.01842631
0.018405609
0.018382963
0.018358597
0.018332681
0.018305371
0.01827657
0.018246295
0.018214535
0.018181291
0.018146563
0.018110343
0.018072615
0.018033359
0.017992547
0.017950145
0.027626726
0.026427712
0.025287128
0.024227528
0.023264818
0.022409133
0.021664774
0.021030523
0.02050056
0.020065728
0.019714885
0.019436107
0.019217638
0.019048703
0.018919859
0.018822533
0.018749561
0.018695086
0.018654407
0.018623808
0.018600394
0.018581936
0.018566735
0.018553508
0.018541296
0.018529388
0.018517265
0.018504544
0.018490966
0.018476333
0.01846067
0.0184435
0.018424909
0.018406019
0.018385363
0.018363063
0.018339134
0.018314857
0.01828835
0.018260806
0.018231832
0.018201517
0.01816981
0.018136707
0.018102205
0.018066288
0.018028932
0.017990108
0.017949782
0.017907912
0.027673529
0.026557347
0.025486829
0.024481995
0.023557673
0.022724279
0.021987552
0.021348541
0.020804129
0.020347933
0.019971362
0.019664645
0.019417703
0.019220816
0.019065418
0.018943627
0.018848497
0.01877422
0.01871602
0.018670035
0.018633185
0.01860304
0.018577702
0.018555701
0.018535907
0.018517454
0.018499689
0.018482114
0.018464359
0.01844614
0.018427229
0.018407708
0.018387129
0.018365787
0.018342907
0.018320275
0.0182956
0.018269989
0.018242659
0.018215426
0.018186133
0.018155725
0.018123996
0.018090962
0.018056627
0.018020965
0.017983939
0.017945511
0.017905639
0.017864275
0.027716178
0.026676277
0.025671472
0.024719406
0.023833684
0.023024603
0.022298782
0.021658934
0.021104103
0.020630259
0.020231103
0.019898896
0.019625235
0.019401688
0.019220283
0.019074112
0.018956589
0.018862046
0.018785715
0.018723653
0.018672643
0.018630089
0.018593917
0.018562484
0.018534496
0.018508939
0.018485021
0.018462129
0.018439786
0.018417621
0.018395344
0.018372751
0.018349876
0.018326317
0.018301811
0.018276483
0.018251603
0.018225179
0.018197355
0.018168543
0.01813972
0.018109261
0.018077396
0.01804433
0.01801009
0.017974619
0.017937868
0.017899787
0.017860326
0.017819431
0.02775505
0.026785373
0.025842114
0.024940706
0.024093462
0.023310276
0.022598209
0.021961136
0.021399764
0.020912011
0.020493572
0.020138578
0.019840238
0.019591418
0.019385088
0.019214831
0.01907486
0.01895972
0.018864734
0.018785949
0.018720065
0.018664363
0.018616625
0.018575054
0.018538204
0.01850492
0.018474278
0.018445545
0.01841814
0.018391599
0.018365556
0.018339729
0.018313897
0.018287994
0.018261605
0.018234617
0.01820701
0.018180171
0.018152128
0.018122677
0.018092283
0.018062055
0.018030389
0.017997146
0.017962917
0.017927563
0.017891016
0.017853218
0.017814112
0.017773635
0.027790478
0.026885413
0.025999706
0.02514676
0.024337579
0.023581457
0.022885568
0.022254527
0.021690281
0.021192301
0.020757975
0.020383099
0.020062399
0.019790019
0.01955995
0.019366352
0.019204109
0.019068227
0.018954199
0.018858135
0.018776716
0.018707148
0.018647106
0.018594664
0.018548247
0.018506565
0.018468572
0.018433419
0.018400418
0.018369013
0.018338755
0.018309281
0.018280296
0.01825155
0.018222878
0.01819408
0.018164867
0.018135226
0.018106639
0.018077329
0.018046368
0.018014925
0.017982148
0.017949786
0.017915518
0.017880189
0.017843759
0.017806164
0.017767338
0.017727213
0.027822765
0.026977095
0.026145116
0.025338372
0.024566581
0.023838314
0.023160607
0.022538486
0.021974764
0.021470115
0.021023317
0.020631611
0.0202911
0.019997155
0.019744785
0.019528959
0.019344887
0.019188343
0.01905507
0.018941311
0.018843791
0.018759699
0.018686642
0.018622604
0.018565897
0.018515119
0.018469109
0.018426909
0.01838773
0.018350921
0.018315949
0.018282371
0.018249823
0.018217994
0.018186618
0.018155479
0.018124544
0.018093323
0.018061884
0.018031844
0.018001153
0.017968838
0.01793565
0.017901649
0.017868172
0.017832994
0.017796572
0.017759078
0.017720441
0.017680585
0.027852203
0.027061047
0.026279143
0.025516305
0.024781011
0.024081042
0.02342312
0.022812419
0.022252317
0.021744373
0.02128847
0.020883064
0.020525475
0.02021221
0.019939269
0.019702431
0.019497482
0.019320607
0.019168113
0.019036426
0.018922383
0.01882321
0.018736495
0.018660169
0.018592464
0.018531886
0.018477174
0.018427272
0.018381294
0.018338501
0.018298272
0.018260091
0.018223521
0.018188191
0.018153786
0.018120037
0.018086707
0.018053803
0.018020835
0.017988207
0.017955621
0.017924285
0.017890441
0.017855899
0.017820658
0.017786115
0.017750049
0.017712533
0.017673972
0.017634284
0.027879128
0.027137812
0.02640254
0.025681299
0.024981421
0.024309882
0.023672966
0.023075804
0.022522087
0.022013987
0.021552235
0.021136273
0.020764463
0.02043433
0.020142811
0.019886491
0.019661823
0.019465309
0.019293877
0.019144255
0.019013451
0.018898783
0.018797876
0.018708646
0.018629282
0.018558222
0.018494128
0.018435857
0.01838244
0.018333051
0.018286993
0.01824367
0.01820258
0.018163289
0.018125428
0.018088679
0.018052769
0.01801748
0.017982667
0.01794809
0.017913286
0.017880521
0.017847367
0.017812051
0.01777623
0.01773981
0.017704242
0.017667254
0.017628634
0.01758899
0.027903556
0.027208349
0.02651605
0.02583409
0.025168394
0.024525137
0.023910099
0.02332822
0.022783306
0.022277922
0.02181341
0.021389983
0.021006869
0.020662479
0.020354601
0.020080591
0.019837557
0.019622531
0.019432697
0.019265385
0.019117803
0.018987415
0.018871929
0.018769293
0.01867769
0.018595522
0.018521398
0.018454109
0.018392611
0.018336007
0.018283524
0.018234498
0.018188357
0.01814461
0.018102829
0.018062647
0.018023746
0.017985849
0.01794871
0.017912097
0.01787595
0.017839862
0.017805763
0.017771097
0.01773447
0.017697439
0.017659887
0.017623315
0.017585317
0.017545571
0.027925698
0.027272964
0.02662063
0.025975423
0.025342548
0.024727191
0.024134585
0.023569377
0.023035342
0.022535249
0.022070855
0.021642949
0.021251447
0.020895508
0.020573669
0.020283997
0.020024238
0.019791964
0.019584691
0.019400219
0.019236099
0.019089987
0.018959723
0.018843333
0.018739033
0.018645225
0.018560489
0.018483574
0.018413382
0.018348953
0.018289451
0.018234148
0.01818241
0.018133687
0.018087498
0.018043422
0.018001092
0.017960187
0.017920419
0.01788153
0.017843299
0.017805634
0.017768161
0.017732815
0.017696584
0.017658717
0.017620527
0.017581862
0.017544276
0.017505137
0.027945918
0.02733173
0.026717011
0.026106138
0.025504556
0.024916523
0.024346623
0.02379915
0.023277732
0.022785204
0.022323565
0.021894011
0.021496982
0.021132242
0.020798968
0.020495859
0.020221257
0.01997326
0.019749844
0.019549011
0.019368866
0.01920728
0.019062265
0.018931967
0.018814672
0.018708819
0.018612993
0.018525923
0.018446478
0.018373652
0.01830656
0.018244417
0.018186536
0.018132312
0.01808121
0.018032761
0.01798655
0.017942211
0.017899417
0.017857876
0.017817331
0.017777554
0.01773832
0.01769955
0.017662943
0.017625135
0.017586102
0.017546757
0.017506954
0.017468303
0.027964378
0.027385512
0.026805158
0.026227324
0.025655181
0.025093725
0.024546575
0.024017608
0.023510236
0.023027242
0.022570739
0.02214218
0.021742384
0.021371579
0.02102947
0.020715301
0.020427948
0.020166006
0.01992789
0.019711912
0.019516549
0.019340019
0.019180536
0.019036401
0.018906015
0.018787883
0.018680626
0.018582986
0.018493818
0.018412093
0.018336889
0.018267379
0.01820283
0.018142589
0.018086075
0.018032771
0.017982218
0.017934006
0.017887769
0.017843177
0.017799936
0.017757777
0.017716454
0.017675744
0.017635579
0.017597782
0.017558519
0.017518275
0.01747771
0.017436713
0.02798126
0.027434793
0.026886252
0.026338882
0.025795682
0.02525954
0.024734987
0.024225055
0.023732875
0.023261102
0.022811857
0.022386729
0.021986785
0.021612599
0.021264283
0.020941535
0.020643694
0.020369806
0.020118704
0.019889078
0.019679589
0.019488935
0.019315547
0.019157911
0.019014569
0.01888413
0.018765284
0.018656809
0.018557577
0.018466553
0.018382797
0.018305456
0.018233763
0.018167025
0.018104622
0.018045995
0.017990645
0.017938121
0.017888018
0.017839971
0.017793647
0.017748745
0.017704984
0.017662112
0.01761992
0.017578283
0.017539849
0.017498854
0.017457251
0.0174154
0.027996748
0.027480072
0.026961023
0.026442203
0.025926028
0.025415305
0.024912639
0.024422061
0.023945985
0.023486866
0.023046756
0.022627283
0.022229657
0.021854682
0.021502776
0.021173993
0.020868059
0.020584416
0.020322273
0.020080671
0.019858533
0.019654876
0.019468443
0.019297924
0.01914203
0.018999502
0.018869124
0.018749742
0.018640267
0.018539684
0.018447054
0.018361515
0.018282279
0.018208626
0.018139904
0.018075523
0.018014945
0.017957687
0.017903307
0.017851405
0.017801616
0.017753603
0.017707051
0.017661656
0.017617088
0.017572847
0.017532151
0.017491512
0.017448602
0.017405641
0.028011032
0.027521865
0.027030255
0.026538258
0.026047784
0.025561143
0.025080979
0.024609544
0.024150271
0.023705029
0.023275716
0.022863925
0.022470921
0.022097646
0.021744725
0.021412481
0.021100948
0.020809895
0.020538866
0.020287221
0.020054187
0.019838937
0.019640627
0.01945815
0.019290401
0.019136274
0.018994676
0.018864542
0.01874485
0.018634626
0.018532955
0.018438982
0.018351914
0.018271019
0.018195626
0.018125118
0.018058932
0.017996553
0.017937512
0.017881377
0.017827754
0.017776277
0.017726607
0.017678425
0.017631435
0.017585396
0.017540371
0.017498514
0.01745551
0.017411289
0.028024311
0.027560721
0.027094794
0.026628125
0.026162188
0.025698864
0.025240396
0.024789142
0.024346907
0.023916573
0.023499546
0.023097296
0.022711074
0.022341881
0.021990469
0.021657345
0.021342774
0.021046789
0.020769213
0.020509684
0.020267698
0.020042632
0.019833922
0.019640727
0.019462131
0.019297199
0.019144976
0.019004511
0.018874869
0.018755139
0.01864445
0.018541974
0.018446931
0.018358592
0.018276278
0.018199359
0.018127255
0.018059429
0.017995389
0.017934679
0.01787688
0.017821603
0.017768489
0.017717205
0.017667449
0.017618971
0.017571608
0.017525234
0.017482422
0.017437185