/*--------------------------------*- C++ -*----------------------------------*\
| =========                 |                                                 |
| \\      /  F ield         | OpenFOAM: The Open Source CFD Toolbox           |
|  \\    /   O peration     | Version:  2312                                  |
|   \\  /    A nd           | Website:  www.openfoam.com                      |
|    \\/     M anipulation  |                                                 |
\*---------------------------------------------------------------------------*/
FoamFile
{
    version     2.0;
    format      ascii;
    arch        "LSB;label=32;scalar=64";
    class       volScalarField;
    location    "0.03";
    object      CH4;
}
// * * * * * * * * * * * * * * * * * * * * * * * * * * * * * * * * * * * * * //

dimensions      [0 0 0 0 0 0 0];

internalField   nonuniform List<scalar> 
3275
(
0.96858627
0.85949125
0.74141777
0.63944889
0.55585399
0.48959428
0.43599946
0.39207847
0.35559111
0.32495857
0.29888058
0.28010034
0.26295532
0.24769041
0.23465027
0.22341816
0.21365377
0.20508193
0.19748732
0.19070273
0.18459753
0.17906721
0.17402622
0.16940525
0.16514711
0.16120416
0.15753628
0.15410946
0.15089458
0.14786651
0.14500342
0.14228628
0.13969845
0.13722552
0.13485554
0.13257728
0.13049498
0.1283738
0.12629069
0.12426184
0.12227912
0.1203331
0.11851778
0.1166506
0.11477882
0.11292497
0.11108285
0.109248
0.10741641
0.10558442
0.10374864
0.10190559
0.95132146
0.82630466
0.71489933
0.62060036
0.5429066
0.48106059
0.43017822
0.38801645
0.35267634
0.32283043
0.29730787
0.27883524
0.26197368
0.24691448
0.23402613
0.22290799
0.21323056
0.20472614
0.19718465
0.19044256
0.18437181
0.17886977
0.17385223
0.16925092
0.16500941
0.16108062
0.15742492
0.15400865
0.15080297
0.14778297
0.14492699
0.14221614
0.13963383
0.13716566
0.13480001
0.13252945
0.13044929
0.12832912
0.12624938
0.12422356
0.12224382
0.12030137
0.11848812
0.11662162
0.11475211
0.11289994
0.11105949
0.10922621
0.10739606
0.10556539
0.10373084
0.10188931
0.90239467
0.75863007
0.66327264
0.58435606
0.51796321
0.46466446
0.41899063
0.38010779
0.34696592
0.31864539
0.29420692
0.27632797
0.26003013
0.24537442
0.23278551
0.22189268
0.21238742
0.20401665
0.1965806
0.18992292
0.18392067
0.17847486
0.173504
0.16894181
0.16473338
0.16083281
0.15720137
0.15380609
0.15061871
0.14761477
0.14477293
0.14207456
0.13950324
0.1370445
0.13468691
0.13243309
0.13035601
0.12823798
0.12616485
0.12414491
0.12217094
0.12023589
0.11842631
0.11656078
0.11469544
0.11284681
0.11100962
0.10917935
0.10735197
0.10552384
0.10369169
0.10185287
0.79360996
0.65297617
0.59131027
0.5344464
0.48326856
0.441938
0.40324849
0.36879401
0.33872644
0.31256842
0.2896848
0.27263742
0.25717148
0.24310104
0.23094963
0.22038714
0.21113503
0.20296127
0.19568096
0.18914821
0.18324747
0.17788511
0.1729836
0.16847958
0.16432038
0.16046182
0.15686651
0.15350252
0.15034243
0.14736242
0.14454168
0.14186194
0.13930704
0.13686234
0.134515
0.13229046
0.13021446
0.12810055
0.12603727
0.12402597
0.12206034
0.12013721
0.11833218
0.11646816
0.11460892
0.11276563
0.11093328
0.10910744
0.10728413
0.10545976
0.10363114
0.10179616
0.57293404
0.51938421
0.5022256
0.47585788
0.4441377
0.41290108
0.38350753
0.35466136
0.32831712
0.30482366
0.28389453
0.26784678
0.25345749
0.2401374
0.22854862
0.21841261
0.20948869
0.20157118
0.19449408
0.18812475
0.1823571
0.17710434
0.17229405
0.16786665
0.16377236
0.15996925
0.15642166
0.15309903
0.14997503
0.1470267
0.14423389
0.14157885
0.13904581
0.13661992
0.13428154
0.13210622
0.130023
0.1279172
0.12586695
0.12386691
0.12191166
0.12000645
0.11820535
0.11634398
0.11449275
0.11265652
0.11083057
0.10901059
0.10719265
0.10537322
0.10354921
0.10171908
0.22631873
0.38091005
0.41745677
0.41825664
0.40523811
0.38479243
0.36177195
0.33909318
0.31685258
0.29620047
0.27742725
0.26239675
0.24920463
0.23674422
0.22578839
0.2161346
0.20758373
0.19995875
0.19311457
0.18693316
0.18131897
0.17619291
0.17148828
0.16714976
0.16313088
0.15939226
0.15590024
0.15262583
0.14954392
0.1466326
0.14387242
0.14124627
0.13873894
0.13633619
0.13401866
0.13187978
0.12979305
0.1277019
0.12566651
0.12367943
0.12173475
0.11985504
0.11805417
0.11619745
0.11435551
0.11252753
0.11070907
0.10889593
0.10708427
0.10527061
0.10345189
0.10162703
0.10679997
0.28166053
0.34698259
0.36733437
0.36701278
0.35651353
0.34059724
0.32255597
0.30488588
0.28708644
0.27060156
0.25653485
0.24453471
0.23305821
0.22277481
0.21363812
0.20548967
0.19818167
0.19159094
0.18561475
0.18016863
0.17518169
0.17059333
0.16635277
0.16241713
0.15874981
0.15531929
0.15209828
0.14906307
0.14619283
0.14346891
0.14087488
0.1383962
0.13602
0.13373031
0.13162081
0.12953431
0.12746137
0.1254424
0.12346966
0.12153365
0.11969043
0.11788204
0.11603349
0.11420168
0.11238285
0.11057271
0.10876719
0.10696253
0.1051553
0.10334241
0.10152276
0.060736441
0.20681621
0.28373786
0.31813968
0.32906599
0.32719945
0.31834636
0.30528115
0.29146945
0.27697113
0.26280267
0.25011412
0.23916714
0.22884291
0.2193078
0.21075352
0.20306143
0.19611472
0.18981438
0.18407428
0.1788222
0.17399634
0.16954296
0.16541634
0.16157769
0.15799359
0.15463496
0.15147645
0.14849593
0.1456739
0.14299256
0.14043625
0.13799122
0.13564658
0.13339369
0.13130933
0.12922793
0.1271771
0.12517741
0.12322192
0.12130334
0.11948834
0.117676
0.11583942
0.11401937
0.11221127
0.11041093
0.10861439
0.106818
0.10501836
0.10321233
0.10139769
0.040403299
0.15452802
0.23135132
0.27344251
0.2928472
0.29830968
0.2954378
0.28752922
0.27715024
0.26584772
0.25417577
0.24316164
0.23316734
0.22408249
0.21539587
0.20748309
0.20029729
0.19375356
0.18777923
0.18230539
0.17727299
0.17263019
0.16833063
0.16433414
0.16060649
0.15711782
0.15384177
0.15075514
0.14783762
0.14507124
0.14243905
0.13992632
0.13751997
0.13521131
0.13300697
0.13094093
0.12887167
0.12684639
0.1248689
0.12293346
0.12104008
0.11924734
0.11743476
0.11561311
0.11380668
0.112011
0.11022202
0.1084359
0.10664911
0.10485836
0.10306048
0.10125005
0.029931084
0.11835738
0.18912876
0.23418989
0.25919291
0.27044878
0.27268561
0.26926971
0.26252769
0.25393679
0.2447931
0.23557327
0.22678887
0.21874665
0.21105905
0.20383406
0.19719927
0.19109655
0.18548187
0.18030323
0.1755155
0.1710774
0.16695046
0.16310031
0.15949779
0.15611697
0.15293442
0.14992929
0.14708329
0.14438028
0.1418041
0.13934103
0.13697837
0.13470825
0.13257117
0.13050914
0.1284634
0.12646653
0.12451416
0.12260071
0.1207419
0.118965
0.11715673
0.11535251
0.11356165
0.11178016
0.11000417
0.10823001
0.10645424
0.10467375
0.10288573
0.10108595
0.023704598
0.093106266
0.15561696
0.20040968
0.22858959
0.24407674
0.25056286
0.25094545
0.24756219
0.2417539
0.23473081
0.22742813
0.22004794
0.21295698
0.20624616
0.19981785
0.19377337
0.18814482
0.182921
0.17806474
0.17354551
0.16933321
0.16539737
0.16170957
0.15824629
0.15498582
0.15190784
0.14899398
0.14622818
0.14359658
0.14108344
0.1386764
0.13636257
0.13415024
0.13206333
0.13001311
0.12800015
0.12603473
0.1241105
0.1222187
0.12040926
0.11863737
0.1168402
0.11505553
0.11328224
0.11151679
0.10975553
0.10799492
0.10623168
0.10446291
0.10268648
0.10090206
0.019549987
0.075099072
0.12919519
0.17174233
0.20121314
0.21953771
0.2293338
0.23297528
0.23246265
0.22928077
0.22441014
0.21873888
0.21285829
0.20688451
0.20101058
0.19541516
0.19002986
0.18490218
0.18009779
0.17558872
0.1713603
0.16739397
0.16366724
0.16015734
0.15684721
0.15371957
0.15075727
0.14794452
0.14526763
0.14271579
0.14027289
0.13792859
0.13566643
0.13353491
0.13147695
0.12945325
0.12747852
0.12554808
0.12365568
0.12179726
0.12002751
0.11825997
0.11648343
0.11472006
0.11296635
0.11121886
0.10947414
0.10772878
0.10597964
0.10422407
0.10246071
0.10069653
0.016537477
0.061908117
0.10835759
0.14763469
0.17702606
0.19701587
0.2092488
0.21554288
0.21755432
0.21663235
0.21382211
0.20981879
0.20522758
0.20044558
0.19552313
0.19064175
0.18595414
0.18137472
0.17701614
0.17287601
0.16895868
0.16525738
0.16175704
0.15843983
0.15529636
0.1523139
0.14947835
0.14677653
0.14419708
0.14173382
0.13936833
0.1370944
0.13490437
0.13283732
0.13080865
0.12882817
0.12689533
0.12500359
0.12314615
0.12133261
0.11959154
0.11783467
0.11608365
0.11434382
0.1126118
0.11088429
0.109158
0.10742967
0.10569627
0.10395541
0.10220617
0.10046872
0.014226375
0.051972791
0.091833666
0.12746207
0.15585353
0.17657227
0.19046908
0.19883026
0.20297516
0.204057
0.20304637
0.200656
0.1973902
0.19364987
0.18971016
0.18564096
0.18157545
0.17752807
0.17368323
0.16992951
0.16634106
0.16292252
0.15966509
0.15655409
0.15359027
0.15076509
0.14806723
0.145486
0.14301202
0.14064697
0.13836561
0.13616853
0.13407359
0.13204518
0.13006464
0.12813406
0.12624732
0.1243983
0.12257668
0.12082492
0.11909535
0.11736131
0.11563842
0.11392446
0.11221634
0.11051092
0.10880505
0.1070956
0.10537965
0.10365509
0.10192107
0.10021908
0.012385223
0.044291172
0.078613327
0.11060599
0.13743904
0.15817708
0.17308201
0.18297528
0.18885248
0.19166964
0.19226179
0.19131721
0.1893346
0.1866687
0.18359691
0.18034029
0.17694181
0.17347353
0.17005558
0.16675404
0.16350941
0.16039002
0.15739129
0.15449802
0.15172618
0.14907012
0.14652063
0.14406953
0.14170771
0.13945229
0.13726068
0.13516933
0.13313658
0.13116497
0.12924354
0.12736749
0.1255312
0.12372979
0.12195891
0.1202519
0.11853988
0.11683769
0.11514529
0.11345961
0.11177767
0.11009651
0.10841315
0.10672456
0.10502782
0.10332092
0.10161362
0.099933112
0.010879983
0.038211282
0.067921304
0.096500418
0.12148607
0.14173599
0.15711502
0.16806833
0.17529948
0.17956572
0.18157366
0.1819251
0.18111318
0.17948943
0.17730943
0.17479588
0.17202658
0.16917644
0.16624366
0.16333763
0.1604422
0.15766209
0.15493764
0.15227017
0.14970219
0.14722676
0.14483598
0.14252464
0.1402786
0.13814829
0.1360736
0.13405373
0.13209973
0.13019922
0.12834182
0.12652505
0.12474356
0.12299375
0.12129108
0.11960584
0.11792776
0.11626098
0.1146017
0.1129468
0.11129344
0.10963881
0.10798013
0.10631452
0.10463889
0.10294869
0.10128246
0.099608709
0.0096260834
0.03329965
0.059173292
0.084653433
0.10768897
0.12711227
0.14254838
0.15415882
0.16239888
0.16783892
0.17105556
0.17256908
0.17281607
0.17215113
0.17083425
0.16905248
0.16693658
0.16461628
0.16221022
0.15971698
0.15720839
0.15472741
0.15228396
0.14986911
0.14751731
0.1452338
0.14301148
0.14085061
0.13874801
0.13672594
0.13475596
0.13283436
0.13096742
0.12914479
0.127356
0.12560343
0.12388097
0.12220506
0.12054275
0.11889344
0.11725671
0.11562844
0.11400507
0.11238357
0.11076123
0.10913548
0.10750379
0.10586348
0.10421174
0.10254863
0.10091395
0.099240928
0.008566367
0.029260665
0.051931665
0.074651781
0.095754108
0.11414518
0.12932691
0.14126186
0.15020552
0.15656235
0.16078454
0.16330746
0.16451526
0.16472651
0.16420173
0.16314079
0.16165566
0.15989238
0.15795715
0.1558792
0.15377902
0.15160673
0.14945739
0.14729788
0.14517188
0.14309122
0.14104578
0.1390439
0.13708735
0.13518656
0.13332827
0.13150913
0.12973687
0.12799916
0.12628254
0.12459945
0.1229593
0.12133242
0.11971682
0.11811579
0.11652392
0.11493735
0.11335282
0.1117674
0.11017862
0.10858417
0.10698184
0.10536939
0.10374435
0.10211682
0.10050146
0.098834503
0.0076604695
0.025888139
0.045867953
0.066155661
0.085412391
0.10266464
0.11737076
0.12936466
0.1387495
0.14578961
0.15082366
0.15420365
0.15625765
0.15727053
0.1574785
0.15707764
0.1562119
0.1549879
0.15352577
0.15188306
0.15014117
0.14829882
0.14646438
0.14455896
0.14266739
0.14080069
0.13893832
0.13710268
0.13529712
0.13352742
0.13178778
0.13007492
0.12840568
0.12676092
0.12511754
0.12353012
0.12194472
0.12037626
0.1188186
0.11727005
0.11572665
0.11418506
0.11264237
0.11109578
0.10954315
0.10798245
0.10641193
0.10483012
0.10323582
0.10165185
0.10003796
0.098390201
0.0068787525
0.023035636
0.040735754
0.058889223
0.076425148
0.092502069
0.1065849
0.11843299
0.12803968
0.13555621
0.14122214
0.14531131
0.14809535
0.14982171
0.15070386
0.15092107
0.15062196
0.149928
0.14893156
0.14771257
0.14633837
0.14484179
0.14328697
0.1416508
0.14000718
0.13836639
0.13668896
0.13502629
0.13337747
0.13174694
0.13013286
0.12852763
0.12697186
0.12543084
0.12387577
0.12235588
0.12084398
0.11934165
0.11784562
0.11635356
0.11486224
0.11336893
0.11187121
0.11036622
0.10885237
0.10732786
0.1057915
0.10424268
0.10269771
0.10113029
0.099530941
0.0061988109
0.020596595
0.036349761
0.052630673
0.068585418
0.0834976
0.096866866
0.10841715
0.11806737
0.12588153
0.13201597
0.13667425
0.14007376
0.14242322
0.14391106
0.14470215
0.14493576
0.14473191
0.14418912
0.14338716
0.14237953
0.14122017
0.13995862
0.13860354
0.13719941
0.13576752
0.1342971
0.13281506
0.13132882
0.12984442
0.12836384
0.12688737
0.12543304
0.12398551
0.12253199
0.12109262
0.1196576
0.11822589
0.11679543
0.11536381
0.11392816
0.11248644
0.11103692
0.10957626
0.10810384
0.10661794
0.10511794
0.1036215
0.10210519
0.10055402
0.098981547
0.0056033241
0.018491671
0.032569505
0.047203874
0.061716534
0.075504252
0.08811287
0.099257375
0.10881021
0.11677101
0.12322889
0.1283265
0.13223114
0.13511393
0.13713745
0.13844951
0.13917953
0.13943929
0.13932437
0.1389159
0.13827745
0.13744832
0.13648466
0.13540347
0.13424607
0.13303155
0.13176728
0.1304708
0.12915212
0.12781962
0.12647838
0.1251315
0.12378804
0.12244233
0.1210893
0.11973737
0.11838341
0.11702652
0.11566573
0.11429851
0.11292202
0.11153507
0.11013725
0.10872345
0.10729521
0.10585022
0.10440615
0.10294595
0.10144897
0.099929592
0.098386469
0.0050786674
0.016660572
0.029286849
0.042469855
0.055671709
0.068390385
0.080222057
0.090888345
0.1002357
0.10821854
0.11487364
0.12029285
0.12459914
0.1279286
0.1304177
0.13219556
0.1333792
0.13407218
0.13436425
0.13433147
0.13404026
0.13353663
0.13287494
0.13206124
0.13115367
0.13016052
0.12910368
0.12799632
0.12684904
0.12567299
0.12447596
0.12326157
0.12203576
0.1207981
0.11954754
0.11828815
0.11701943
0.1157413
0.11445441
0.11315563
0.1118416
0.11051234
0.10917036
0.10780533
0.10642426
0.10504017
0.10363527
0.10220069
0.10074065
0.099255163
0.097743124
0.0046139703
0.01505666
0.026417381
0.038317663
0.050330878
0.062042758
0.073100978
0.083243325
0.09230459
0.10020903
0.10695409
0.11259063
0.11720382
0.12089778
0.1237836
0.12597111
0.1275635
0.12865457
0.12932749
0.12965431
0.12969609
0.12950567
0.12913086
0.128585
0.12793148
0.12715855
0.12631108
0.12539553
0.12442201
0.1234057
0.12235734
0.12127888
0.12017577
0.11905113
0.11790619
0.1167436
0.11556402
0.11436815
0.11315964
0.11193361
0.11068498
0.1094154
0.10813526
0.10681909
0.10550704
0.10416099
0.10279335
0.10139956
0.099978374
0.098528964
0.004200454
0.013643287
0.023894367
0.034657836
0.045594851
0.056365599
0.066667231
0.076259581
0.084976116
0.092722717
0.099468402
0.10523175
0.11006634
0.11404797
0.11726394
0.1198051
0.12176015
0.12321219
0.12423675
0.12490076
0.12526227
0.12537122
0.12527213
0.12499485
0.12457928
0.12402987
0.12339544
0.12267371
0.12187418
0.12101941
0.1201244
0.11918502
0.11820832
0.11720078
0.11616486
0.11510291
0.11401602
0.11290483
0.11177993
0.11063161
0.10945069
0.10824015
0.10703323
0.1057784
0.10450914
0.10321306
0.10189088
0.10054035
0.099160239
0.097749874
0.0038309536
0.012391257
0.021664429
0.031417598
0.04138105
0.051277166
0.06084864
0.069880304
0.078211422
0.085738585
0.092411354
0.098223693
0.10320338
0.10740173
0.11088445
0.11372432
0.11599558
0.11777016
0.11911522
0.12009173
0.12075382
0.12114896
0.12131846
0.12129517
0.12111295
0.12079427
0.12036006
0.11982905
0.11920921
0.11851569
0.1177806
0.11698233
0.11613415
0.11524719
0.11432357
0.11336579
0.11237506
0.11134838
0.11031421
0.10925018
0.10813853
0.10700136
0.10584774
0.1046583
0.10344338
0.10219938
0.10092568
0.099620962
0.098284229
0.09691504
0.0034995646
0.011277013
0.01968441
0.028537263
0.037620283
0.046707237
0.055581479
0.064053593
0.07197328
0.079234557
0.085774845
0.091570074
0.096627515
0.10097787
0.10466777
0.10775326
0.11029467
0.11235269
0.11398575
0.11524828
0.11618972
0.11685427
0.11728083
0.11750245
0.11754918
0.11744761
0.11721337
0.11687597
0.11643428
0.11591083
0.11532243
0.11466748
0.11395425
0.11319122
0.11238291
0.11153259
0.11064262
0.10971493
0.10876113
0.10777285
0.10674284
0.10568017
0.10458955
0.10346435
0.1023076
0.10111829
0.099895846
0.098639455
0.097348413
0.096022495
0.0032013783
0.010281339
0.017919067
0.025967498
0.034254244
0.042595188
0.050809186
0.058731813
0.066225922
0.073187742
0.079548291
0.085271066
0.090347581
0.094791651
0.098633442
0.10191399
0.10468053
0.10698288
0.10887062
0.11039132
0.11158922
0.1125047
0.11317393
0.1136287
0.11389744
0.11400478
0.11397044
0.11381545
0.11355403
0.11319816
0.11276074
0.11224948
0.11167171
0.1110346
0.11034402
0.10960379
0.10881726
0.10798765
0.10712065
0.10621386
0.10526489
0.10427785
0.10325547
0.10219593
0.10110025
0.099968253
0.09879967
0.097594064
0.096351012
0.095070495
0.0029322806
0.0093883964
0.016339351
0.023667234
0.031233539
0.038888487
0.046481412
0.053871171
0.060935015
0.067574661
0.07371903
0.079323831
0.084369005
0.088854948
0.092798009
0.096226032
0.099174351
0.10168244
0.10379127
0.10554139
0.10697158
0.10811799
0.10901368
0.10968838
0.11016878
0.11047838
0.11063731
0.11066393
0.11057562
0.11038035
0.11009931
0.10973194
0.10928998
0.10877977
0.10820869
0.10758049
0.10689933
0.10616876
0.10539259
0.10457114
0.10370437
0.10279466
0.10184392
0.10085218
0.099820106
0.098747927
0.097635669
0.096483221
0.095290419
0.094057443
0.0026887973
0.008585014
0.014921111
0.021602038
0.028516119
0.035541469
0.042553254
0.049431397
0.056067722
0.062371495
0.068272696
0.073722901
0.078694121
0.083176474
0.087175041
0.090706387
0.09379524
0.096471551
0.098768072
0.10071846
0.10235586
0.10371199
0.10481645
0.10569646
0.10637672
0.10687936
0.10722394
0.10742801
0.10750711
0.10747361
0.10734195
0.10711576
0.10681331
0.10642968
0.10597948
0.1054645
0.10489017
0.10425997
0.10357737
0.10284406
0.10206117
0.10123062
0.10035409
0.099432365
0.098466235
0.097456209
0.096402601
0.095305576
0.094165213
0.092981891
0.0024679739
0.0078601416
0.013644107
0.019742854
0.02606602
0.032514327
0.038984625
0.045375483
0.051592759
0.057554356
0.063193545
0.068460555
0.073322487
0.077761994
0.081775265
0.085369483
0.088560167
0.091368703
0.093820185
0.095941644
0.097760674
0.099304413
0.10059883
0.10166827
0.10253523
0.10322019
0.10374164
0.10411618
0.10435859
0.10448158
0.10449683
0.1044148
0.10424302
0.10398546
0.10365994
0.10325827
0.10279188
0.10226314
0.10167596
0.10103287
0.10033555
0.099585937
0.098785707
0.09793606
0.097037995
0.096092279
0.095099481
0.094060015
0.092974186
0.091842564
0.0022672815
0.0072044381
0.012491248
0.018065011
0.023852343
0.029772274
0.035739719
0.041669477
0.04748045
0.053099556
0.0584648
0.063527156
0.068251195
0.07261455
0.076606688
0.080227222
0.08348389
0.086390551
0.088965342
0.09122909
0.093204013
0.094912704
0.09637738
0.097619352
0.09865869
0.099514003
0.10020234
0.10073923
0.10113861
0.10141284
0.101573
0.10162876
0.10158896
0.10145954
0.10124827
0.10096411
0.10060735
0.1001805
0.09968986
0.099138565
0.09852824
0.097861115
0.097138943
0.096363184
0.095535077
0.09465562
0.093725613
0.09274569
0.091716367
0.090638393
0.0020845423
0.0066099509
0.011448008
0.016547436
0.021848428
0.027284833
0.032786537
0.038282279
0.043702773
0.048983825
0.054068987
0.058911479
0.063475176
0.0677347
0.071674747
0.075289041
0.078578934
0.081551842
0.084219733
0.086597752
0.088703047
0.090553805
0.092168493
0.0935653
0.094761729
0.095774328
0.096618519
0.097308525
0.097857316
0.09827659
0.098576855
0.098767462
0.098856691
0.098851218
0.09876013
0.098586609
0.098334102
0.09801469
0.097621047
0.097162822
0.096640479
0.096057108
0.095414408
0.094714057
0.093957538
0.093146058
0.092280617
0.091362044
0.090391047
0.089368547
0.0019178705
0.0060698648
0.010501957
0.015172033
0.020031178
0.025025243
0.030096473
0.035185452
0.040233389
0.045184501
0.049988237
0.054601038
0.058987486
0.063120767
0.066982478
0.070561996
0.073855604
0.076865357
0.079597887
0.08206326
0.084273956
0.086243985
0.087988167
0.089521566
0.090859051
0.092014987
0.093003017
0.093835919
0.094525525
0.095082668
0.095517195
0.095837967
0.096052918
0.096169053
0.096193142
0.096131737
0.095987272
0.095766456
0.0954683
0.095108175
0.09467397
0.094175369
0.093613187
0.092989417
0.092305823
0.091563781
0.090764451
0.089908834
0.088997808
0.088032454
0.0017656244
0.0055783045
0.0096423987
0.01392318
0.018380505
0.022969954
0.027643941
0.032353045
0.037047641
0.041679696
0.046204542
0.050582415
0.054779599
0.05876908
0.062530704
0.066050873
0.069322019
0.072341877
0.075112589
0.077639795
0.079931773
0.081998671
0.083851841
0.085503298
0.08696528
0.088249912
0.089368961
0.090333649
0.091154541
0.091841458
0.092403449
0.09284878
0.093184936
0.093418693
0.093556296
0.093603248
0.093564573
0.093444439
0.09324463
0.092970558
0.092630296
0.09221798
0.091736881
0.091190431
0.090580788
0.089909365
0.089177438
0.088386155
0.087536544
0.086629831
0.0016263681
0.0051301767
0.0088600775
0.012787328
0.016878873
0.021098191
0.025406049
0.029761405
0.034122546
0.038448415
0.042699983
0.046841532
0.050841704
0.054674218
0.058318232
0.061758321
0.064984175
0.067990182
0.070774825
0.073339985
0.075690255
0.07783229
0.079774223
0.081525167
0.083094792
0.084492986
0.085729595
0.086814215
0.087756047
0.088563794
0.089245594
0.089808986
0.090260904
0.090607687
0.090855141
0.091008492
0.09107233
0.091051019
0.090948412
0.090766508
0.090508984
0.090183975
0.089787608
0.089318652
0.088783708
0.088183794
0.087520287
0.086794459
0.086007479
0.085160697
0.0014988399
0.0047210435
0.0081469455
0.011752674
0.015510921
0.019391589
0.023362302
0.027389004
0.03143675
0.035470653
0.039456926
0.043363913
0.047162989
0.050829269
0.054342055
0.057685004
0.060846035
0.063817082
0.066593749
0.069174828
0.071561762
0.073758126
0.075769136
0.077601202
0.079261547
0.08075788
0.08209813
0.083290236
0.084341979
0.085260863
0.086054026
0.086728185
0.087289606
0.087744091
0.088096982
0.088353153
0.088516999
0.088592503
0.08858319
0.088493534
0.088324227
0.088080209
0.087760085
0.08737582
0.086916321
0.086388486
0.085794103
0.085134571
0.084411178
0.083625389
0.0013819265
0.0043470199
0.0074959716
0.01080889
0.014263147
0.017833879
0.021494336
0.025216272
0.028970479
0.032727455
0.036458178
0.040134898
0.04373189
0.047226089
0.05059756
0.053829766
0.056909639
0.05982746
0.062576682
0.06515364
0.067557169
0.069788202
0.07184937
0.07374463
0.075478926
0.07705789
0.078487585
0.079774301
0.080924378
0.081944075
0.082839467
0.083616375
0.084280311
0.084836453
0.085289628
0.085644292
0.085904533
0.086074089
0.086156367
0.086154449
0.086072723
0.085910972
0.085671922
0.085358286
0.084979196
0.084525304
0.084000399
0.083407685
0.082748554
0.082024561
0.0012746417
0.0040046899
0.0069009871
0.0099469077
0.013123647
0.016410618
0.019785688
0.023225429
0.026705469
0.030200957
0.033687115
0.037139846
0.040536325
0.043855545
0.047078762
0.050189802
0.05317523
0.056024352
0.058729125
0.061284021
0.063685791
0.065933165
0.068026549
0.069967727
0.071759568
0.073405769
0.074910621
0.076278809
0.077515245
0.078624928
0.079612834
0.080483836
0.081242636
0.081893721
0.082441337
0.082889463
0.083241805
0.083501786
0.083672576
0.083757109
0.083758015
0.083679238
0.083519663
0.083283001
0.082971224
0.082593413
0.082141076
0.081615357
0.081020845
0.08035917
0.0011761096
0.0036910383
0.0063565576
0.0091587315
0.012081892
0.015108955
0.018221581
0.021400332
0.024624893
0.02787439
0.031127781
0.034364296
0.037563902
0.040707739
0.043778523
0.046760848
0.049641396
0.052409038
0.055054808
0.057571856
0.059955335
0.062202206
0.064311019
0.066281678
0.068115214
0.069813567
0.071379375
0.072815803
0.074126376
0.075314849
0.076385091
0.077340999
0.078186426
0.078925124
0.079560706
0.080096617
0.080536112
0.080882252
0.081137893
0.08130571
0.081388163
0.081387508
0.081307206
0.081146186
0.080907938
0.080594217
0.080214122
0.079759464
0.079229589
0.078630444
0.0010855543
0.0034033988
0.0058578758
0.0084372894
0.011128545
0.013917436
0.016788743
0.019726329
0.022713274
0.025732081
0.028764953
0.031794102
0.034802097
0.037772215
0.040688765
0.043537379
0.046305225
0.048981154
0.051555751
0.054021319
0.056371864
0.058602986
0.060711734
0.062696445
0.064556562
0.066292463
0.067905291
0.069396795
0.070769189
0.072025024
0.073167081
0.07419828
0.075121605
0.075940044
0.07665654
0.077273961
0.077795066
0.078222493
0.078558744
0.078806184
0.078967033
0.079043357
0.079037227
0.078951581
0.078785411
0.078541949
0.078222814
0.077837196
0.077376558
0.076839822
0.0010022751
0.0031393999
0.0054006838
0.0077763048
0.0102553
0.012825824
0.015475234
0.01819012
0.020956395
0.023759419
0.026584183
0.029415532
0.032238413
0.035038141
0.037800661
0.040512799
0.043162464
0.045738811
0.048232339
0.050634916
0.05293979
0.055141579
0.057236176
0.059220649
0.061093114
0.062852604
0.064498937
0.06603258
0.067454532
0.06876621
0.069969345
0.071065901
0.072057996
0.072947843
0.073737697
0.074429815
0.075026428
0.075529709
0.075941765
0.07626462
0.076500212
0.076650376
0.076716869
0.076701737
0.076607139
0.076432374
0.076180384
0.075852677
0.075458614
0.074988848
0.00092563932
0.0028969181
0.004981192
0.0071701926
0.0094547451
0.011824954
0.014270296
0.016779625
0.019341211
0.021942815
0.024571816
0.027215352
0.029860499
0.03249447
0.035104812
0.037679613
0.040207687
0.042678726
0.04508342
0.047413521
0.049661872
0.051822434
0.053890263
0.055861448
0.057733037
0.059502938
0.061169826
0.062733041
0.064192484
0.065548523
0.066801906
0.067953679
0.069005119
0.069957669
0.07081289
0.071572417
0.072237927
0.072811104
0.073293628
0.073687149
0.073993286
0.074213611
0.074349655
0.074402916
0.0743755
0.074268611
0.074082094
0.073818561
0.073479444
0.073074479
0.0008550817
0.0026740447
0.0045960015
0.0066139669
0.0087202485
0.010906592
0.01316422
0.015483859
0.017855742
0.02026965
0.022714982
0.02518086
0.027656242
0.030130066
0.032591398
0.035029592
0.037434448
0.03979635
0.042106388
0.044356441
0.046539227
0.048648342
0.050678285
0.052624436
0.054483018
0.056251038
0.057926221
0.059506937
0.060992123
0.062381207
0.063674031
0.064870786
0.065971944
0.066978205
0.067890448
0.068709685
0.069437028
0.070073661
0.07062081
0.071079733
0.071451698
0.071737979
0.07193985
0.072058588
0.072095465
0.072052739
0.071930493
0.071729359
0.071451589
0.071098716
0.00079009016
0.0024690687
0.00424205
0.0061031378
0.0080458573
0.010063315
0.012148209
0.014292809
0.016488982
0.018728197
0.021001566
0.023299909
0.025613827
0.0279338
0.030250298
0.032553897
0.034835406
0.037085989
0.039297279
0.041461462
0.043571347
0.045620407
0.047602827
0.049513521
0.051348116
0.053102928
0.054774923
0.05636167
0.057861284
0.059272368
0.060593958
0.06182546
0.062966604
0.064017384
0.064978022
0.065848922
0.066630639
0.067323847
0.067929314
0.068447884
0.068880459
0.069227988
0.069491462
0.069671906
0.06977038
0.069787974
0.06972717
0.069586783
0.069368475
0.069074254
0.00073019818
0.0022804396
0.0039165799
0.0056336404
0.0074261771
0.0092884108
0.011214264
0.013197315
0.015230781
0.017307543
0.019420156
0.021560885
0.023721754
0.025894603
0.028071172
0.03024318
0.032402429
0.034540898
0.036650845
0.038724894
0.040756101
0.042738009
0.044664694
0.046530811
0.048331599
0.050062881
0.051721047
0.05330303
0.054806268
0.05622867
0.057568569
0.058824679
0.059996052
0.061082034
0.06208223
0.062996464
0.063824749
0.064567259
0.065224303
0.065796306
0.066283793
0.066687372
0.067007728
0.067245617
0.067401857
0.067477329
0.067473142
0.067391627
0.067230573
0.066992999
0.00067497757
0.0021067419
0.00361708
0.0052017869
0.0068562856
0.0085757398
0.010355071
0.012188948
0.014071736
0.015997485
0.017959965
0.019952665
0.021968827
0.024001482
0.026043497
0.028087641
0.030126656
0.032153333
0.034160598
0.036141589
0.038089722
0.039998752
0.041862812
0.043676473
0.045434766
0.047133199
0.048767756
0.050334895
0.051831524
0.053254987
0.054603028
0.055873765
0.057065656
0.058177464
0.05920823
0.060157237
0.061023986
0.061808171
0.062509652
0.063128441
0.063664681
0.064118635
0.064490672
0.064781261
0.064990965
0.065120436
0.065170431
0.065142559
0.065037211
0.064853837
0.00062403129
0.0019466699
0.0033412392
0.0048041881
0.0063316689
0.0079196367
0.0095638602
0.011259894
0.01300306
0.014788413
0.016610727
0.018464527
0.020344094
0.022243483
0.024156559
0.026077031
0.027998512
0.029914573
0.031818812
0.033704924
0.035566758
0.037398378
0.039194105
0.040948565
0.042656731
0.044313954
0.045915967
0.047458901
0.048939278
0.050354001
0.051700347
0.052975938
0.054178728
0.055306973
0.056359213
0.057334242
0.05823109
0.059048998
0.059787404
0.060445916
0.061024307
0.061522492
0.061940526
0.062278586
0.062536974
0.06271611
0.062816535
0.062838896
0.062785182
0.062654154
0.00057698593
0.0017990021
0.0030869016
0.0044376854
0.0058481205
0.0073148265
0.0088342818
0.010402792
0.012016459
0.01367117
0.015362568
0.017086038
0.018836741
0.020609615
0.022399386
0.024200601
0.02600766
0.027814866
0.02961647
0.031406733
0.033179979
0.034930646
0.03665333
0.038342826
0.039994174
0.041602696
0.043164012
0.044674061
0.046129109
0.047525747
0.048860896
0.050131792
0.051335976
0.052471283
0.05353582
0.054527955
0.055446295
0.056289673
0.057057129
0.057747898
0.058361395
0.058897202
0.059355061
0.059734862
0.060036641
0.060260574
0.060406976
0.060476298
0.060469379
0.00053348383
0.0016625751
0.0028520193
0.0040992829
0.0054016504
0.0067562998
0.0081603039
0.0096105973
0.011103942
0.012636901
0.014205841
0.015806894
0.017435954
0.019088707
0.020760626
0.022446987
0.0241429
0.025843331
0.027543152
0.029237182
0.03092023
0.032587148
0.034232866
0.035852432
0.037441048
0.038994115
0.040507256
0.041976338
0.04339749
0.044767109
0.046081871
0.047338729
0.048534912
0.049667916
0.050735496
0.05173566
0.052666651
0.053526942
0.054315218
0.055030372
0.055671487
0.056237831
0.056728847
0.057144145
0.057483498
0.057746839
0.057934259
0.058045997
0.058082351
0.00049317464
0.0015362558
0.0026346037
0.0037860757
0.0049883909
0.0062391956
0.0075360599
0.0088764438
0.01025766
0.011676846
0.013130951