/*--------------------------------*- C++ -*----------------------------------*\
| =========                 |                                                 |
| \\      /  F ield         | OpenFOAM: The Open Source CFD Toolbox           |
|  \\    /   O peration     | Version:  2312                                  |
|   \\  /    A nd           | Website:  www.openfoam.com                      |
|    \\/     M anipulation  |                                                 |
\*---------------------------------------------------------------------------*/
FoamFile
{
    version     2.0;
    format      ascii;
    arch        "LSB;label=32;scalar=64";
    class       volScalarField;
    location    "0.03";
    object      k;
}
// * * * * * * * * * * * * * * * * * * * * * * * * * * * * * * * * * * * * * //

dimensions      [0 2 -2 0 0 0 0];

internalField   nonuniform List<scalar> 
3275
(
11.307849
12.194286
13.14004
14.147444
15.268969
16.555498
18.033651
19.689026
21.479592
23.345113
25.213999
27.035969
28.761346
30.318636
31.646583
32.690443
33.39489
33.79426
33.966284
33.968191
33.853895
33.634942
33.344858
33.001841
32.619793
32.209405
31.778947
31.334849
30.882126
30.424708
29.965678
29.507458
29.051952
28.600647
28.154667
27.714953
27.282438
26.857525
26.440279
26.030892
25.629553
25.236382
24.851447
24.474703
24.105924
23.744936
23.391605
23.045744
22.707141
22.375568
22.050786
21.732549
11.372554
12.251137
13.161385
14.152963
15.270075
16.556769
18.035956
19.690933
21.479571
23.342253
25.20812
27.026743
28.74846
30.302455
31.627549
32.669072
33.371812
33.770248
33.942007
33.944154
33.830379
33.612235
33.323093
32.981087
32.600073
32.190713
31.76126
31.318131
30.866335
30.4098
29.951606
29.494175
29.039414
28.588808
28.143483
27.704394
27.272465
26.848095
26.431357
26.022448
25.62156
25.228818
24.844282
24.467904
24.099474
23.738825
23.385812
23.040249
22.701928
22.370622
22.046092
21.728088
11.502283
12.339798
13.18915
14.157678
15.270053
16.558704
18.040277
19.694482
21.479257
23.336306
25.196192
27.008173
28.722615
30.270055
31.589465
32.626319
33.325621
33.722205
33.893451
33.89609
33.783367
33.566846
33.279594
32.939613
32.560673
32.153376
31.725938
31.284753
30.834818
30.380052
29.923533
29.467685
29.014415
28.565211
28.121201
27.683363
27.252606
26.829322
26.413602
26.005651
25.605665
25.213781
24.830045
24.454409
24.086682
23.726701
23.374317
23.029347
22.691585
22.360808
22.036776
21.719239
11.672139
12.405891
13.197793
14.152055
15.265884
16.560712
18.046
19.698885
21.477878
23.326598
25.177654
26.979821
28.683478
30.221195
31.532156
32.562041
33.256138
33.650003
33.820546
33.823982
33.712879
33.498823
33.214425
32.877494
32.501669
32.097469
31.673056
31.234788
30.787643
30.335529
29.881522
29.428045
28.977008
28.529903
28.087865
27.651901
27.222898
26.801242
26.387047
25.980531
25.581896
25.191296
24.808759
24.43424
24.067566
23.708582
23.357138
23.013054
22.676128
22.34614
22.022852
21.706014
11.75609
12.381165
13.166987
14.128139
15.25587
16.562536
18.052104
19.702946
21.474319
23.312157
25.151674
26.941026
28.630554
30.155492
31.455338
32.476009
33.163148
33.553497
33.723235
33.727841
33.618975
33.408262
33.127703
32.794854
32.42319
32.02312
31.602736
31.168352
30.724919
30.276333
29.825667
29.375343
28.927276
28.482963
28.043548
27.610077
27.183403
26.763909
26.351743
25.947137
25.550298
25.161404
24.78046
24.407431
24.042159
23.684499
23.334303
22.991397
22.655581
22.32664
22.00434
21.688434
11.379744
12.242792
13.095949
14.089809
15.241258
16.563431
18.05794
19.705278
21.467616
23.292958
25.119161
26.893808
28.567088
30.077211
31.364188
32.374128
33.053115
33.439493
33.608469
33.614609
33.508485
33.301794
33.025798
32.697781
32.331025
31.935818
31.520171
31.09035
30.651277
30.206834
29.760088
29.313465
28.868882
28.427843
27.991513
27.560964
27.13702
26.720062
26.310279
25.907917
25.513188
25.126292
24.74722
24.375942
24.012316
23.656211
23.307481
22.965957
22.631444
22.303733
21.982592
21.667779
11.229353
12.098042
13.014198
14.047452
15.225212
16.562722
18.062126
19.705377
21.457387
23.268982
25.080495
26.839088
28.494693
29.988465
31.26128
32.259339
32.929262
33.311399
33.479745
33.487784
33.384856
33.182767
32.911932
32.589349
32.228098
31.838333
31.427983
31.003261
30.569056
30.129236
29.686865
29.24437
28.803674
28.366287
27.933404
27.506113
27.08521
26.671081
26.26396
25.864103
25.471734
25.087062
24.71008
24.340757
23.978972
23.624602
23.277508
22.937527
22.604469
22.27813
21.958284
21.644693
11.173121
11.978832
12.933424
14.003243
15.207297
16.56001
18.063758
19.702017
21.441966
23.237311
25.031537
26.771599
28.407108
29.881829
31.138148
32.122309
32.781533
33.158948
33.326864
33.337407
33.238437
33.041947
32.777296
32.461188
32.106475
31.72316
31.319077
30.900382
30.471927
30.037567
29.600361
29.162738
28.726627
28.293553
27.864743
27.441292
27.023973
26.613185
26.209208
25.812311
25.422729
25.04068
24.666165
24.299154
23.939543
23.587223
23.242063
22.903903
22.572564
22.247847
21.929531
21.617384
11.159092
11.901433
12.866575
13.962637
15.189054
16.555053
18.06168
19.693479
21.419615
23.196275
24.970353
26.68936
28.302426
29.755465
30.992829
31.96101
32.607826
32.980157
33.147996
33.161794
33.067659
32.877906
32.620552
32.312047
31.964981
31.589192
31.192411
30.780729
30.358962
29.930948
29.499742
29.067781
28.636996
28.208934
27.78486
27.365865
26.952704
26.545801
26.145479
25.752024
25.365684
24.986682
24.615034
24.250711
23.89363
23.543695
23.200782
22.864742
22.535403
22.212571
21.896035
21.585568
11.165731
11.864093
12.820437
13.929775
15.171856
16.547464
18.054565
19.677855
21.388179
23.143914
24.894964
26.590127
28.178445
29.60737
30.823178
31.773222
32.405992
32.773043
32.941334
32.959295
32.870994
32.689247
32.440396
32.140704
31.802467
31.435346
31.046962
30.643337
30.229246
29.808511
29.384188
28.958717
28.53404
28.111728
27.693088
27.279197
26.870799
26.468354
26.072227
25.68272
25.300104
24.924599
24.556239
24.195001
23.840826
23.493629
23.153298
22.819693
22.492649
22.171985
21.857494
21.548957
11.182639
11.856859
12.79554
13.906416
15.156215
16.53646
18.040769
19.653093
21.345288
23.077837
24.803184
26.471574
28.032754
29.43523
30.626901
31.556499
32.173826
32.535633
32.705101
32.728299
32.646969
32.474602
32.235558
31.94597
31.617816
31.260568
30.881733
30.487258
30.081879
29.669403
29.252885
28.834773
28.417022
28.00124
27.58876
27.180648
26.777648
26.380265
25.9889
25.603876
25.225487
24.853952
24.489323
24.131591
23.780716
23.436631
23.099234
22.768394
22.443961
22.125759
21.813593
21.507251
11.203995
11.869197
12.788383
13.891953
15.141575
16.520814
18.018442
19.616894
21.28846
22.995379
24.692454
26.331338
27.862742
29.236413
30.401488
31.308151
31.909046
32.265965
32.437561
32.467244
32.394155
32.232647
32.004809
31.726692
31.409939
31.063826
30.695744
30.311563
29.915976
29.512779
29.105027
28.69518
28.285211
27.87677
27.471207
27.069577
26.672641
26.280951
25.894941
25.514962
25.141326
24.774257
24.413822
24.060035
23.712878
23.372296
23.038202
22.710478
22.388984
22.073556
21.76401
21.460142
11.226321
11.8923
12.793449
13.883899
15.126325
16.498772
17.985423
19.56673
21.214993
22.89379
24.559945
26.166704
27.665776
29.008092
30.144093
31.025096
31.609312
31.962104
32.137036
32.17463
32.111181
31.962109
31.746958
31.481752
31.177778
30.844116
30.488038
30.115338
29.730663
29.337803
28.939815
28.539173
28.137881
27.737621
27.339755
26.94534
26.555164
26.169824
25.789787
25.415438
25.047106
24.685018
24.329264
23.979883
23.636878
23.300209
22.969805
22.645563
22.327355
22.015029
21.708412
21.407311
11.247421
11.919043
12.804594
13.878471
15.107927
16.468055
17.939263
19.499913
21.122
22.770111
24.40274
25.974702
27.438934
28.747412
29.851688
30.703463
31.272366
31.622217
31.801934
31.849046
31.796758
31.661781
31.460875
31.21008
30.920313
30.600465
30.257687
29.897692
29.525087
29.143657
28.756462
28.366
27.97431
27.583096
27.193733
26.807293
26.4246
26.046292
25.672872
25.304762
24.942304
24.585733
24.235168
23.890675
23.552275
23.219949
22.89364
22.573263
22.258703
21.949822
21.646459
21.348433
11.265669
11.94362
12.815586
13.871093
15.083099
16.425897
17.877229
19.413578
21.006468
22.621216
24.217726
25.75227
27.179078
28.451271
29.521357
30.34113
30.896187
31.244676
31.430863
31.4892
31.44972
31.330545
31.145506
30.910671
30.636583
30.331947
30.0038
29.657768
29.298419
28.929541
28.5542
28.174924
27.793782
27.412501
27.032473
26.654797
26.280334
25.909764
25.54363
25.182387
24.826393
24.475897
24.131049
23.791943
23.458621
23.131084
22.809294
22.493181
22.182647
21.87757
21.577802
21.283171
11.279569
11.960873
12.820418
13.856778
15.048015
16.369111
17.796321
19.304689
20.865255
22.44387
24.001625
25.49616
26.882975
28.116377
29.149981
29.936544
30.479189
30.828085
31.022623
31.094022
31.069082
30.9674
30.799906
30.582616
30.325701
30.037705
29.725543
29.394756
29.049874
28.694689
28.332293
27.965231
27.595601
27.225159
26.855324
26.487223
26.121759
25.759654
25.401496
25.047768
24.698846
24.355003
24.016421
23.68322
23.355467
23.033182
22.716349
22.404917
22.098804
21.797904
21.502084
21.211187
11.287369
11.96565
12.81331
13.830399
14.998485
16.294157
17.693287
19.170042
20.695101
22.23473
23.751046
25.202962
26.547224
27.739315
28.734088
29.488038
30.020175
30.371491
30.576299
30.662633
30.654143
30.571511
30.423278
30.225128
29.98689
29.716971
29.422162
29.107907
28.778723
28.438398
28.090046
27.736235
27.379098
27.020423
26.661655
26.303959
25.948281
25.595391
25.245915
24.900365
24.559142
24.222549
23.890799
23.564039
23.242361
22.92581
22.614389
22.308068
22.006785
21.710451
21.418949
21.132136
11.286657
11.951817
12.788616
13.786869
14.930116
16.197225
17.564647
19.006275
20.492631
21.990362
23.462497
24.86915
26.168262
27.316476
28.269442
28.994227
29.518408
29.874353
30.091401
30.19447
30.204594
30.142123
30.015051
29.837602
29.619514
29.369105
29.093009
28.796575
28.484316
28.160019
27.826817
27.487303
27.143651
26.797679
26.450868
26.104421
25.759335
25.416421
25.076345
24.739652
24.406775
24.078045
23.753707
23.433939
23.118858
22.808536
22.502997
22.202233
21.906203
21.614837
21.328036
21.045673
11.280665
11.926781
12.740944
13.721315
14.838452
16.074302
17.406725
18.809876
20.254367
21.707242
23.13239
24.49109
25.742413
26.84419
27.752626
28.454497
28.973835
29.336677
29.567876
29.689429
29.720274
29.678886
29.574935
29.419628
29.223099
28.993622
28.737568
28.460224
28.166101
27.85899
27.542038
27.217867
26.888692
26.556367
26.222408
25.888068
25.554387
25.222219
24.892273
24.565129
24.241254
23.921012
23.604681
23.292469
22.984522
22.680936
22.381763
22.087016
21.796675
21.51069
21.228985
20.951457
11.271622
11.894203
12.674791
13.629282
14.719075
15.921239
17.215677
18.577196
19.976735
21.381771
22.757052
24.06506
25.265884
26.318737
27.185667
27.869632
28.387231
28.75913
29.006249
29.147894
29.201165
29.182153
29.10276
28.971016
28.797393
28.590228
28.355485
28.098455
27.823651
27.534856
27.235238
26.927443
26.61373
26.295988
25.975783
25.654404
25.332942
25.012295
24.693216
24.376323
24.062117
23.750999
23.443279
23.139197
22.838931
22.542602
22.250288
21.962027
21.677822
21.397645
21.121439
11.260606
11.856289
12.59731
13.50853
14.567648
15.73378
16.987525
18.304471
19.65609
21.01029
22.332724
23.587271
24.73474
25.735885
26.570704
27.241561
27.760255
28.14311
28.407646
28.570727
28.647763
28.652638
28.598578
28.491792
28.342556
28.158841
27.946583
27.711034
27.456679
27.187291
26.906052
26.615645
26.318362
26.016131
25.710563
25.402995
25.094563
24.786212
24.478738
24.1728
23.868935
23.56758
23.269082
22.973714
22.681682
22.393138
22.108188
21.826893
21.54928
21.275344
21.00504
11.2482
11.814473
12.51278
13.371483
14.380388
15.507561
16.718189
17.987845
19.288748
20.589104
21.855558
23.053914
24.144954
25.102132
25.911703
26.573413
27.095486
27.490757
27.773829
27.959332
28.061054
28.09148
28.062772
27.982612
27.858777
27.699586
27.510904
27.297918
27.065067
26.816116
26.554256
26.282206
26.002288
25.71647
25.426405
25.133481
24.838878
24.54359
24.248454
23.954171
23.661319
23.37037
23.081708
22.795639
22.512401
22.232177
21.955099
21.681256
21.4107
21.143446
20.879471
11.234768
11.769778
12.423897
13.225705
14.173315
15.243315
16.403547
17.623396
18.87106
20.114539
21.321552
22.461271
23.503009
24.424591
25.213985
25.869406
26.396406
26.804971
27.107197
27.315697
27.442719
27.499631
27.496867
27.444062
27.346621
27.212882
27.048735
26.859276
26.648889
26.421321
26.179775
25.926993
25.665329
25.396785
25.123059
24.845586
24.565592
24.284117
24.002041
23.720107
23.438931
23.159026
22.880811
22.604627
22.330744
22.059375
21.790682
21.524781
21.261749
21.001627
20.74442
11.220575
11.722999
12.332474
13.075934
13.95676
14.958824
16.054435
17.21229
18.399543
19.583804
20.733995
21.821509
22.820425
23.711564
24.483938
25.134698
25.667302
26.089367
26.410793
26.642364
26.794878
26.878591
26.902866
26.876926
26.807031
26.699451
26.560626
26.395512
26.208425
26.003086
25.782698
25.550023
25.307439
25.05698
24.800385
24.539135
24.2745
24.007563
23.739248
23.470339
23.201492
22.933259
22.666095
22.400376
22.136405
21.874426
21.614631
21.357162
21.102124
20.849583
11.205837
11.674794
12.239817
12.925231
13.737439
14.666118
15.688664
16.776049
17.896513
19.018381
20.111718
21.149584
22.108783
22.971982
23.728702
24.375185
24.913151
25.348192
25.688255
25.942439
26.120158
26.230587
26.282298
26.28317
26.241118
26.160312
26.047405
25.907281
25.744184
25.561793
25.363302
25.15148
24.928723
24.697094
24.458366
24.214062
23.965494
23.713787
23.459906
23.204675
22.94879
22.69284
22.437318
22.182633
21.929123
21.677063
21.426673
21.178125
20.931546
20.687023
11.19074
11.625731
12.146923
12.775643
13.519735
14.373269
15.318588
16.330348
17.379328
18.435592
19.470665
20.459049
21.379226
22.21494
22.955831
23.597273
24.139469
24.58623
24.943739
25.219521
25.421665
25.558274
25.637105
25.66533
25.650132
25.596839
25.510196
25.395505
25.256913
25.098042
24.922059
24.731728
24.529451
24.317314
24.097119
23.870426
23.638582
23.402752
23.163939
22.923005
22.680687
22.43761
22.194301
21.951205
21.708691
21.467067
21.226581
20.987434
20.749778
20.51372
11.175447
11.57631
12.054596
12.628585
13.306514
14.085621
14.952651
15.88641
16.861039
17.849115
18.82405
19.761812
20.642102
21.449315
22.172987
22.807647
23.352141
23.808678
24.18183
24.477643
24.702927
24.864733
24.969984
25.025248
25.036712
25.010414
24.950418
24.861379
24.747617
24.612669
24.459656
24.291323
24.110069
23.91799
23.716911
23.508418
23.293892
23.07453
22.851372
22.625315
22.397133
22.167486
21.936935
21.705959
21.474958
21.244271
21.014176
20.7849
20.556621
20.329472
11.160106
11.526972
11.963496
12.485064
13.09964
13.80664
14.596498
15.452082
16.351226
17.269496
18.18257
19.068042
19.906715
20.683469
21.387664
22.013044
22.557236
23.021004
23.407439
23.721194
23.967848
24.153412
24.283962
24.365411
24.403376
24.403036
24.369742
24.306375
24.217559
24.106748
23.977002
23.83103
23.671213
23.499645
23.318164
23.128376
22.931686
22.729318
22.522343
22.311692
22.098171
21.882473
21.665193
21.446838
21.227843
21.008573
20.789335
20.570385
20.351925
20.134114
11.144847
11.478105
11.874176
12.345808
12.900309
13.538499
14.253771
15.032672
15.856707
16.704634
17.554652
18.38618
19.181178
19.925029
20.606962
21.220044
21.760833
22.228802
22.625684
22.954827
23.220629
23.428076
23.582395
23.688808
23.752363
23.777786
23.769782
23.732257
23.668266
23.581599
23.475236
23.351825
23.213715
23.062986
22.901475
22.730796
22.55237
22.367445
22.177113
21.982336
21.783948
21.582673
21.379134
21.173868
20.967337
20.759936
20.551999
20.343808
20.135591
19.927532
11.129782
11.430043
11.787098
12.211353
12.709265
13.282487
13.926695
14.631604
15.382139
16.160232
16.946723
17.723012
18.472352
19.18074
19.837404
20.434892
20.968859
21.437649
21.841768
22.183356
22.465687
22.692751
22.868923
22.998716
23.086596
23.136855
23.153572
23.140745
23.101523
23.03879
22.955725
22.854904
22.738615
22.60891
22.467615
22.316336
22.156506
21.989382
21.816075
21.637569
21.454726
21.268291
21.078915
20.88716
20.693515
20.498402
20.30218
20.105157
19.907584
19.70967
11.115011
11.383075
11.702642
12.082088
12.526945
13.039288
13.616499
14.250915
14.930506
15.640206
16.363481
17.0838
17.785842
18.456378
19.084807
19.663346
20.186937
20.652966
21.06086
21.411654
21.707569
21.951639
22.147399
22.298646
22.409248
22.483016
22.52362
22.534506
22.519178
22.480131
22.420079
22.341683
22.247155
22.138512
22.01754
21.88583
21.744816
21.595751
21.439762
21.277847
21.110887
20.939648
20.7648
20.586929
20.406546
20.224098
20.039969
19.854489
19.667933
19.480532
11.100617
11.33744
11.621117
11.95829
12.353573
12.809176
13.323717
13.89164
14.503529
15.147046
15.808168
16.472437
17.126055
17.756725
18.354201
18.91057
19.420265
19.879898
20.287971
20.644538
20.950852
21.209042
21.421829
21.592297
21.72371
21.81937
21.882528
21.9163
21.923631
21.907562
21.870127
21.813794
21.740801
21.65308
21.552392
21.440291
21.318189
21.187335
21.048857
20.903765
20.752947
20.597186
20.437166
20.273492
20.106696
19.937245
19.765544
19.591945
19.416744
19.240194
11.086668
11.293335
11.542769
11.840148
12.189221
12.592151
13.048414
13.554103
14.101988
14.68213
15.282823
15.89162
16.496288
17.08558
17.649784
18.181054
18.673518
19.123203
19.527854
19.886676
20.200054
20.469277
20.696294
20.883493
21.033533
21.149201
21.233309
21.288616
21.317778
21.323315
21.307858
21.273091
21.221207
21.154116
21.073508
20.980902
20.877687
20.765079
20.6442
20.516064
20.38156
20.241479
20.096514
19.947285
19.79434
19.638164
19.479179
19.317755
19.154209
18.988813
11.073222
11.250918
11.467784
11.727775
12.033857
12.388028
12.790333
13.238134
13.725977
14.24598
14.788517
15.34303
15.898833
16.445807
16.974919
17.478572
17.950777
18.387171
18.784909
19.142489
19.459538
19.736592
19.974874
20.176114
20.342375
20.475927
20.579138
20.654392
20.704034
20.730326
20.735424
20.721583
20.690243
20.643295
20.582416
20.509057
20.424547
20.33009
20.22679
20.115643
19.997527
19.873238
19.743477
19.608868
19.469972
19.327288
19.181252
19.032249
18.880612
18.72663
11.060322
11.210308
11.396293
11.621224
11.887369
12.196498
12.549016
12.943229
13.375106
13.838486
14.32556
14.8275
15.335106
15.83941
16.332161
16.806163
17.255489
17.675558
18.063104
18.416066
18.733436
19.015082
19.261577
19.474028
19.653932
19.803052
19.923309
20.016705
20.085259
20.130958
20.155728
20.161407
20.14991
20.122517
20.080825
20.0263
19.960195
19.883665
19.797787
19.703549
19.601801
19.493322
19.378823
19.25893
19.134211
19.00517
18.872256
18.735864
18.59634
18.453987
11.048003
11.171594
11.328386
11.520494
11.749588
12.017178
12.323872
12.668667
13.04865
13.459072
13.89368
14.345184
14.805775
15.267621
15.723307
16.166154
16.590444
16.991544
17.365922
17.711104
18.025568
18.308622
18.560258
18.781022
18.97188
19.134105
19.269185
19.378735
19.464441
19.528005
19.571108
19.595383
19.602394
19.593752
19.57065
19.534372
19.486214
19.427263
19.358541
19.281
19.195478
19.102734
19.00347
18.898304
18.78781
18.672493
18.552807
18.429155
18.301893
18.171334
11.036289
11.134835
11.264106
11.425544
11.620304
11.849633
12.114234
12.413596
12.745668
13.10684
13.492167
13.895701
14.310893
14.731001
15.149461
15.560188
15.957791
16.337719
16.696322
17.030849
17.339389
17.620793
17.874561
18.100738
18.299807
18.472587
18.620143
18.743716
18.844656
18.924374
18.984298
19.025845
19.050396
19.059281
19.053833
19.03521
19.00438
18.962504
18.910547
18.849401
18.779829
18.702627
18.618478
18.527973
18.431669
18.330078
18.223656
18.112808
17.997896
17.879241
11.025195
11.100063
11.203464
11.336294
11.499276
11.693403
11.919397
12.177092
12.465087
12.780682
13.120006
13.478259
13.850016
14.229546
14.61112
14.989283
15.359057
15.716085
16.056722
16.378066
16.677938
16.954834
17.207853
17.436612
17.641164
17.82191
17.979525
18.114889
18.229024
18.323048
18.398134
18.455475
18.496259
18.521652
18.53278
18.530724
18.516657
18.491202
18.455469
18.410296
18.356284
18.294345
18.225079
18.149066
18.06684
17.978899
17.885701
17.787652
17.685114
17.578411
11.014739
11.067286
11.146439
11.252637
11.386242
11.548014
11.738646
11.958202
12.205769
12.479357
12.775971
13.091776
13.422321
13.762792
14.108258
14.453899
14.795198
15.128078
15.449002
15.755027
16.043813
16.313604
16.563186
16.791824
16.999202
17.185352
17.350591
17.495459
17.620668
17.72705
17.815523
17.887052
17.942628
17.983244
18.009876
18.023474
18.024942
18.015348
17.995167
17.965423
17.926387
17.879403
17.824699
17.762893
17.694532
17.62009
17.540002
17.454673
17.364465
17.269701
11.004957
11.036478
11.092987
11.174445
11.280929
11.412991
11.57127
11.755977
11.966556
12.201567
12.458716
12.734965
13.0267
13.329917
13.640421
13.954012
14.266655
14.57461
14.874525
15.163508
15.439155
15.699552
15.943256
16.169259
16.376938
16.566008
16.736469
16.888552
17.022678
17.139406
17.239407
17.323422
17.39224
17.446678
17.487556
17.515691
17.531879
17.53691
17.531572
17.516475
17.49218
17.459519
17.41893
17.370964
17.316151
17.254958
17.187793
17.115038
17.037045
16.95414
10.995763
11.007787
11.043056
11.101578
11.183059
11.28787
11.416583
11.569495
11.746307
11.946002
12.166837
12.406428
12.661859
12.929834
13.20682
13.489204
13.77343
14.056124
14.334176
14.604818
14.86566
15.114716
15.350394
15.571482
15.77712
15.966759
16.140125
16.297179
16.438073
16.563117
16.672742
16.767474
16.847905
16.914672
16.968439
17.009881
17.039674
17.058486
17.066961
17.065696
17.055443
17.036504
17.009523
16.974969
16.933318
16.885029
16.830507
16.770104
16.70415
16.632958
10.987149
10.981095
10.99668
11.033893
11.092358
11.172207
11.273933
11.397879
11.54393
11.711383
11.898931
12.104712
12.326393
12.561279
12.806422
13.058746
13.31516
13.57266
13.828416
14.079832
14.324602
14.560733
14.786557
15.00073
15.202211
15.390248
15.564339
15.72421
15.86978
16.001129
16.118471
16.222124
16.31249
16.390032
16.455254
16.508692
16.550892
16.582408
16.603786
16.615556
16.618248
16.612458
16.59848
16.576808
16.547863
16.51207
16.469821
16.421464
16.3673
16.307616
10.979169
10.956193
10.9538
10.971277
11.008564
11.065583
11.142713
11.240314
11.358397
11.496496
11.653638
11.828378
12.01886
12.222892
12.438034
12.661692
12.891205
13.123937
13.357347
13.589052
13.816873
14.038867
14.253354
14.458914
14.65439
14.838873
15.011686
15.172361
15.320615
15.456327
15.579511
15.690299
15.788911
15.875641
15.950843
16.014907
16.068254
16.111323
16.144557
16.168402
16.183304
16.189695
16.187978
16.17865
16.16186
16.138091
16.107691
16.070992
16.028292
15.979846
10.971802
10.933194
10.914039
10.913719
10.931443
10.967616
11.022373
11.09606
11.188773
11.300219
11.429683
11.576049
11.737842
11.913292
12.100388
12.296958
12.500736
12.709432
12.920796
13.132672
13.343042
13.550059
13.752076
13.947652
14.135564
14.3148
14.48455
14.644193
14.793281
14.931521
15.058754
15.174939
15.280132
15.374472
15.458161
15.531456
15.594651
15.648069
15.692052
15.726953
15.753129
15.770938
15.780724
15.782825
15.777674
15.7654
15.746371
15.720894
15.689256
15.651707
10.965035
10.912063
10.87752
10.860707
10.860965
10.87798
10.912433
10.964467
11.034229
11.12155
11.225912
11.346453
11.482008
11.631145
11.792218
11.963418
12.142828
12.328477
12.518395
12.71066
12.903432
13.094989
13.283755
13.468312
13.647414
13.81999
13.985141
14.142133
14.290388
14.42947
14.559074
14.679009
14.789183
14.889592
14.9803
15.061434
15.133167
15.19571
15.249301
15.294199
15.330678
15.359015
15.379491
15.39239
15.398002
15.396594
15.38848
15.373731
15.352717
15.325655
10.958861
10.892772
10.844188
10.812349
10.796546
10.796594
10.812502
10.844993
10.894064
10.959632
11.041321
11.138472
11.25016
11.375231
11.512338
11.659979
11.816543
11.980348
12.149684
12.322853
12.498205
12.674158
12.849235
13.022073
13.19144
13.356245
13.515537
13.668504
13.814474
13.952899
14.083353
14.205519
14.319177
14.424194
14.520509
14.608129
14.687112
14.757562
14.819617
14.873444
14.919228
14.957173
14.98749
15.010398
15.026127
15.034913
15.036941
15.032492
15.02163
15.004623
10.953276
10.875308
10.81401
10.768582
10.738276
10.72285
10.722469
10.737233
10.767729
10.813775
10.875094
10.951177
11.04129
11.144502
11.259709
11.385669
11.52103
11.664365
11.814201
11.969054
12.127456
12.287979
12.449257
12.610007
12.76904
12.925273
13.077738
13.22558
13.368058
13.504545
13.634521
13.757565
13.873349
13.981628
14.082232
14.175059
14.260061
14.337241
14.406642
14.46834
14.52244
14.569067
14.608362
14.640483
14.665598
14.683884
14.695518
14.700646
14.699412
14.692067
10.948284
10.859676
10.786985
10.729386
10.686105
10.656853
10.641753
10.641082
10.65486
10.683489
10.726629
10.78387
10.854626
10.938141
11.033512
11.13971
11.255602
11.379982
11.511588
11.649132
11.79132
11.936875
12.084555
12.233167
12.381586
12.528764
12.67374
12.815641
12.95369
13.087205
13.215596
13.338363
13.455088
13.565436
13.669141
13.766004
13.855883
13.938688
14.014374
14.082933
14.14439
14.198794
14.246221
14.286761
14.320523
14.34763
14.36821
14.382397
14.390269
14.391938
10.943894
10.845901
10.763152
10.694804
10.640063
10.598606
10.570518
10.556055
10.555434
10.568527
10.595577
10.636122
10.689676
10.755621
10.833212
10.921595
11.019825
11.126879
11.241682
11.363121
11.490065
11.62138
11.755947
11.892674
12.030512
12.168463
12.305594
12.441038
12.574004
12.703778
12.829724
12.951283
13.067971
13.179376
13.285153
13.385022
13.478757
13.566187
13.647185
13.721666
13.78958
13.850906
13.905652
13.953848
13.995543
14.030803
14.059714
14.082377
14.098834
10.940126
10.834041
10.7426
10.66495
10.600279
10.548236
10.508875
10.482432
10.469123
10.46903
10.481875
10.50781
10.546271
10.596742
10.658606
10.73115
10.813581
10.905036
11.004598
11.111308
11.224182
11.34222
11.464421
11.589796
11.717378
11.84623
11.975462
12.104229
12.231746
12.357285
12.480186
12.599849
12.715742
12.827396
12.934402
13.036412
13.133131
13.224315
13.309766
13.389328
13.462884
13.530347
13.591663
13.646801
13.695757
13.738545
13.775206
13.805791
13.830326
10.93701
10.824184
10.725475
10.640019
10.566991
10.506013
10.457111
10.420502
10.396398
10.384895
10.385922
10.39914
10.424595
10.461676
10.509868
10.568574
10.637123
10.714787
10.800782
10.894284
10.994438
11.100366
11.211179
11.325986
11.443901
11.564059
11.685618
11.80777
11.929748
12.050829
12.170342
12.287666
12.402237
12.513544
12.621132
12.724597
12.823586
12.917797
13.006969
13.090885
13.169367
13.24227
13.309481
13.370915
13.426514
13.476248
13.520112
13.558119
13.590233
10.93459
10.816455
10.711983
10.620299
10.540558
10.472357
10.415695
10.37077
10.337787
10.316849
10.307929
10.310812
10.32519
10.35097
10.387559
10.434452
10.491082
10.556828
10.631022
10.712953
10.80188
10.897032
10.997622
11.102851
11.211916
11.324018
11.438375
11.55422
11.670815
11.787455
11.903472
12.018238
12.131173
12.241737
12.349443
12.453845
12.554548
12.651198
12.743485
12.83114
12.913932
12.991662
13.064168
13.131313
13.192993
13.249127
13.299658
13.344549
13.383744
10.932919
10.811019
10.702398
10.606168
10.52146
10.44784
10.38528
10.333957
10.294066
10.265712
10.24888
10.24344
10.249055
10.265522
10.292595
10.329725
10.376428
10.432175
10.496391
10.568465
10.647751
10.733574
10.825238
10.922027
11.023216
11.128075
11.235878
11.345908
11.457463
11.569864
11.682457
11.794621
11.905769
12.01535
12.122853
12.227808
12.329785
12.428394
12.523285
12.614146
12.700701
12.782709
12.859961
12.932278
12.99951
13.061532
13.118247
13.169574
13.215447
10.932067
10.808079
10.697063
10.598111
10.510318
10.433212
10.366731
10.311028
10.266281
10.232589
10.209943
10.198228
10.197247
10.206549
10.226159
10.255574
10.294345
10.342015
10.398088
10.462035
10.533294
10.611273
10.695355
10.7849
10.879257
10.97776
11.079742
11.184536
11.291483
11.399936
11.509265
11.618865
11.728154
11.836581
11.943625
12.048802
12.15166
12.251784
12.348794
12.442345
12.532127
12.617863
12.699306
12.776242
12.84848
12.915862
12.978252
13.035537
13.087622
10.932108
10.807861
10.696353
10.596651
10.5078
10.42928
10.360989
10.303045
10.255606
10.218756
10.192484
10.17668
10.171161
10.175568
10.189694
10.213383
10.246137
10.287562
10.337232
10.394686
10.459438
10.530967
10.608733
10.692165
10.780672
10.873653
10.970495
11.070583
11.173306
11.278055
11.384234
11.491258
11.598564
11.705609
11.811877
11.916878
12.020151
12.121267
12.219827
12.315463
12.407841
12.496656
12.581632
12.662524
12.739114
12.811209
12.878644
12.941276
12.99898
10.933127
10.810625
10.700708
10.602406
10.514694
10.436984
10.369111
10.311149
10.26322
10.22539
10.197634
10.179841
10.171838
10.173363
10.184033
10.203905
10.232467
10.269374
10.314252
10.366703
10.426298
10.492583
10.565076
10.643278
10.726671
10.814717
10.906866
11.002557
11.101221
11.202293
11.305213
11.409432
11.514412
11.619628
11.724579
11.828781
11.931776
12.033131
12.132439
12.229321
12.323426
12.414431
12.502042
12.585989
12.666031
12.741953
12.813561
12.88069
12.943186
10.935212
10.816653
10.710612
10.616063
10.531884
10.457382
10.3923
10.336644
10.290487
10.253864
10.226731
10.208971
10.200409
10.200822
10.209783
10.227422
10.25326
10.286994
10.328302
10.376837
10.43223
10.494088
10.561994
10.635509
10.714173
10.797508
10.885022
10.976214
11.070574
11.167589
11.266744
11.367528
11.469437
11.571978
11.674672
11.777054
11.878679
11.979121
12.077977
12.174866
12.269432
12.361344
12.450294
12.536001
12.618207
12.696678
12.771203
12.841596
12.907684
10.938451
10.826255
10.726608
10.638394
10.56034
10.491593
10.431759
10.380741
10.338549
10.305178
10.280567
10.264587
10.257067
10.257786
10.266382
10.28295
10.307078
10.338509
10.376964
10.422148
10.473745
10.531422
10.594823
10.663575
10.737282
10.815532
10.897896
10.983934
11.073193
11.165217
11.259542
11.355705
11.453249
11.551719
11.65067
11.749666
11.848285
11.94612
12.042781
12.137898
12.231119
12.322115
12.410576
12.496215
12.578766
12.657987
12.733654
12.805567
12.87354
10.942935
10.83979
10.749338
10.670292
10.601144
10.540789
10.488629
10.444428
10.408126
10.379689
10.359048
10.346082