/*--------------------------------*- C++ -*----------------------------------*\
| =========                 |                                                 |
| \\      /  F ield         | OpenFOAM: The Open Source CFD Toolbox           |
|  \\    /   O peration     | Version:  2312                                  |
|   \\  /    A nd           | Website:  www.openfoam.com                      |
|    \\/     M anipulation  |                                                 |
\*---------------------------------------------------------------------------*/
FoamFile
{
    version     2.0;
    format      ascii;
    arch        "LSB;label=32;scalar=64";
    class       volScalarField;
    location    "0.03";
    object      Ma;
}
// * * * * * * * * * * * * * * * * * * * * * * * * * * * * * * * * * * * * * //

dimensions      [0 0 0 0 0 0 0];

internalField   nonuniform List<scalar> 
3275
(
0.072406069
0.065122522
0.055943583
0.047781291
0.041118662
0.035898629
0.031806112
0.028544492
0.025920992
0.023766494
0.022006101
0.020545665
0.019326243
0.018265478
0.017350252
0.016554634
0.015853975
0.015231157
0.014672792
0.014168443
0.013709822
0.013290194
0.012903987
0.012546667
0.012214434
0.011904105
0.011612984
0.011338779
0.011079527
0.010833543
0.010599363
0.010375714
0.010161485
0.0099556771
0.0097572933
0.0095664158
0.0093814819
0.0092020684
0.0090272551
0.0088571892
0.0086913979
0.008529595
0.0083710923
0.0082159184
0.0080634989
0.0079138423
0.007766731
0.0076219722
0.0074793805
0.0073388381
0.0072002
0.0070633545
0.071690139
0.063359654
0.054094585
0.046372787
0.040135566
0.035224961
0.031341141
0.028215558
0.025682851
0.023590541
0.021872868
0.02044242
0.0192442
0.018199865
0.017296756
0.016510385
0.015816916
0.015199773
0.014645953
0.014145292
0.013689692
0.013272567
0.012888451
0.012532892
0.012202154
0.011893102
0.011603082
0.011329831
0.011071409
0.010826152
0.010592614
0.010369532
0.010155807
0.0099504402
0.0097524739
0.0095619568
0.0093773424
0.0091982202
0.0090236792
0.008853858
0.0086882965
0.0085267051
0.0083683857
0.0082133906
0.0080611294
0.007911627
0.0077646572
0.0076200275
0.0074775648
0.0073371355
0.007198606
0.0070618595
0.069606086
0.059442989
0.050386156
0.043646191
0.038251833
0.033929923
0.030441072
0.027576242
0.02521801
0.023245834
0.021611052
0.020239136
0.019082278
0.018070208
0.017190942
0.016422791
0.015743521
0.015137601
0.014592785
0.014099435
0.013649836
0.013237683
0.012857726
0.012505673
0.012177913
0.011871411
0.011583588
0.011312239
0.011055477
0.010811674
0.010579417
0.010357468
0.010144753
0.0099402703
0.0097431451
0.0095533343
0.0093693642
0.0091908232
0.0090168257
0.0088474931
0.0086824009
0.0085212289
0.0083632707
0.0082086223
0.0080566835
0.0079074851
0.0077607948
0.0076164258
0.007474205
0.0073340038
0.0071956859
0.0070591428
0.064015189
0.052674788
0.044845861
0.039787511
0.035623318
0.032106826
0.029161223
0.026660316
0.024547158
0.02274528
0.0212289
0.019941517
0.018844321
0.017879258
0.017034866
0.016293432
0.015635045
0.015045675
0.014514164
0.014031639
0.013590937
0.013186169
0.012812398
0.012465564
0.012142243
0.011839544
0.011554999
0.011286493
0.01103221
0.010790581
0.01056024
0.010339986
0.010128783
0.0099256233
0.0097297725
0.0095409789
0.009357992
0.0091803155
0.0090071301
0.0088385233
0.0086741306
0.0085135772
0.0083561533
0.0082020208
0.0080505578
0.0079018079
0.0077555284
0.0076115388
0.0074696757
0.0073298036
0.0071917945
0.0070555377
0.04980108
0.042027316
0.037810382
0.035126011
0.032434957
0.02991218
0.027584792
0.025514277
0.023699139
0.022107075
0.020738082
0.019557796
0.018536016
0.017631057
0.016831599
0.016124683
0.0154934
0.014925583
0.014411453
0.013943106
0.013514084
0.013119031
0.012753411
0.012413464
0.01209601
0.011798343
0.011518141
0.011253404
0.011002411
0.010763668
0.01053587
0.010317868
0.01010867
0.0099072756
0.0097131603
0.0095256155
0.0093439916
0.0091674503
0.0089953411
0.0088276915
0.0086642182
0.0085044647
0.0083477539
0.0081942895
0.0080434511
0.0078952806
0.0077495307
0.0076060307
0.0074646203
0.0073251692
0.0071875496
0.0070516599
0.021330811
0.02962901
0.030575276
0.030431689
0.029158901
0.027581508
0.025908581
0.024270278
0.022764328
0.021395806
0.020185618
0.01912387
0.018185399
0.017347274
0.016598524
0.015930663
0.015330228
0.014787049
0.014292858
0.013840831
0.013425287
0.013041473
0.012685302
0.012353356
0.012042727
0.011750925
0.011475791
0.011215458
0.010968311
0.010732946
0.01050813
0.010292766
0.010085916
0.0098866043
0.0096944464
0.0095085069
0.0093284401
0.0091532154
0.0089823753
0.0088158482
0.0086534484
0.0084946073
0.0083387576
0.0081860716
0.0080359627
0.0078884655
0.0077433311
0.0076003974
0.0074595122
0.0073205444
0.0071833731
0.0070478972
0.0094305514
0.020756825
0.024400593
0.026072545
0.026020637
0.025278319
0.024198865
0.02299449
0.021785746
0.020642531
0.019593793
0.018656688
0.017806319
0.017037746
0.016343238
0.015717231
0.015150047
0.014633536
0.014161004
0.013726757
0.013325936
0.012954426
0.012608621
0.012285466
0.011982351
0.011697016
0.01142748
0.011172018
0.010929135
0.010697521
0.010476019
0.010263596
0.01005936
0.0098623952
0.0096723981
0.0094883198
0.0093099841
0.0091362617
0.0089668648
0.0088016249
0.0086404571
0.008482624
0.0083278152
0.008176022
0.0080267679
0.0078800572
0.0077356486
0.007593388
0.0074531278
0.0073147421
0.0071781119
0.007043145
0.0055199128
0.014844551
0.019276737
0.022021373
0.022922037
0.022921177
0.022396515
0.021614889
0.020719136
0.019806276
0.018931618
0.018125632
0.017375325
0.016682608
0.016048973
0.015470158
0.014940662
0.014454537
0.014006788
0.013592964
0.013209104
0.012851809
0.01251801
0.012205057
0.011910681
0.011632883
0.011369884
0.011120119
0.01088223
0.010655018
0.010437413
0.010228451
0.010027297
0.0098331239
0.0096456484
0.0094638147
0.0092875159
0.0091156083
0.0089479328
0.008784243
0.008624512
0.0084679502
0.0083143846
0.0081636737
0.0080154592
0.0078697055
0.0077261854
0.007584751
0.0074452623
0.0073075954
0.0071716372
0.0070372979
0.0044194247
0.01096768
0.015199644
0.018420374
0.019982529
0.020585266
0.020558722
0.020167949
0.019582949
0.018903458
0.018207248
0.017536955
0.016895957
0.016284723
0.01571712
0.015190413
0.014702712
0.014250492
0.013830541
0.013439726
0.013075046
0.012733879
0.012413742
0.012112429
0.011828046
0.011558886
0.011303394
0.011060184
0.010828049
0.010605915
0.010392815
0.010187859
0.0099902755
0.0097993708
0.0096147639
0.0094355829
0.0092616322
0.0090918653
0.0089261888
0.008764322
0.0086062443
0.0084511989
0.0082990754
0.0081496384
0.0080026435
0.0078580113
0.007715534
0.0075750707
0.0074364871
0.0072996653
0.0071644968
0.0070308963
0.0039666393
0.0084117257
0.012053965
0.015329774
0.01728671
0.018340245
0.018731633
0.018693775
0.018396051
0.017949344
0.017431306
0.016899685
0.016370029
0.015847832
0.015349279
0.014879065
0.014436851
0.014021766
0.013632438
0.013267105
0.012923756
0.012600595
0.012295763
0.012007522
0.011734394
0.011474991
0.011227993
0.010992211
0.010766609
0.010550251
0.010342281
0.010141891
0.0099483933
0.0097612665
0.0095798132
0.0094037631
0.0092324644
0.0090651769
0.0089017813
0.0087420203
0.0085858137
0.0084325306
0.0082820436
0.0081340814
0.0079884846
0.0078451387
0.0077038578
0.0075645076
0.0074269622
0.0072911087
0.007156845
0.0070240885
0.0037326979
0.0067445976
0.0096888254
0.012752956
0.014882567
0.016238964
0.016957931
0.017223732
0.017185907
0.016956004
0.016615767
0.016221462
0.015803252
0.015374322
0.014948688
0.014537479
0.014143945
0.013768853
0.013412712
0.013075164
0.012755182
0.012451831
0.012163901
0.011890142
0.01162952
0.011380989
0.011143478
0.010916008
0.010697729
0.010487853
0.010285649
0.010090395
0.0099015313
0.0097185578
0.009540818
0.009368226
0.0091999249
0.0090354542
0.0088746306
0.0087172794
0.0085631369
0.0084118826
0.0082632269
0.0081169469
0.0079729281
0.0078310361
0.0076911067
0.0075530138
0.0074166393
0.0072818773
0.0071486342
0.0070168339
0.0036067702
0.0056697627
0.0079499716
0.01065639
0.012789286
0.014316584
0.015273447
0.015785455
0.015975352
0.015942601
0.015768782
0.015511655
0.015203272
0.014866552
0.014517814
0.014167864
0.013825046
0.013492402
0.013171686
0.012863999
0.012569259
0.012287415
0.012017912
0.011759992
0.011513094
0.011276537
0.011049499
0.01083122
0.010621056
0.010418373
0.010222578
0.010033043
0.0098494074
0.009670912
0.0094974704
0.009328654
0.0091637394
0.0090024175
0.008844473
0.0086897838
0.0085380121
0.0083890136
0.0082423879
0.0080980045
0.0079557488
0.0078154846
0.0076770678
0.0075403815
0.007405317
0.0072717759
0.0071396734
0.0070089391
0.0035295988
0.0049760587
0.0066952269
0.0089860892
0.011004258
0.012592956
0.01370406
0.014404265
0.014783442
0.014925862
0.014904259
0.014776259
0.014577173
0.014330777
0.014058098
0.013772511
0.013481893
0.01319329
0.012909869
0.012633842
0.012366017
0.01210723
0.011857572
0.011616774
0.011384772
0.011161259
0.010945658
0.010737439
0.010536177
0.010341392
0.01015265
0.0099694383
0.0097914729
0.0096180804
0.0094493645
0.0092846661
0.0091235404
0.0089657015
0.0088109649
0.0086591935
0.0085101001
0.0083635768
0.008219212
0.0080769412
0.0079366417
0.007798187
0.0076614513
0.0075263284
0.0073927195
0.0072605347
0.007129702
0.0070001544
0.0034742344
0.0045228958
0.0058032602
0.0076796853
0.0095097974
0.01107499
0.012266895
0.013099518
0.013628656
0.013919606
0.014034607
0.014025652
0.013929631
0.013772533
0.013574593
0.013352499
0.013116078
0.012873255
0.012627989
0.012385109
0.012145636
0.011911273
0.011682747
0.011460258
0.011244249
0.011034809
0.010831576
0.01063426
0.010442678
0.01025648
0.010075447
0.0098991856
0.0097272741
0.0095596731
0.0093960154
0.0092358697
0.009078923
0.0089249138
0.008773739
0.0086251097
0.0084790338
0.0083352064
0.0081933517
0.0080534133
0.0079152726
0.0077788178
0.0076439404
0.0075105461
0.007378547
0.0072478638
0.00711843
0.0069902067
0.0034309423
0.0042211775
0.0051758703
0.0066744662
0.0082790311
0.0097595027
0.010971178
0.01188533
0.012525857
0.012937613
0.013170356
0.01326912
0.013268636
0.013195738
0.013071525
0.012911997
0.01272939
0.012532616
0.012327708
0.012118428
0.011908487
0.011699716
0.011493435
0.011290323
0.011091319
0.010896926
0.01070694
0.010521335
0.010340199
0.01016325
0.0099906032
0.0098216855
0.0096566509
0.0094951981
0.0093370295
0.0091818752
0.0090294947
0.008879679
0.008732351
0.0085872421
0.0084444328
0.0083035572
0.0081644654
0.0080270858
0.0078913154
0.007757059
0.0076242254
0.0074927332
0.0073625063
0.0072334758
0.0071055916
0.0069788175
0.0033959712
0.0040152586
0.004736562
0.0059119341
0.0072804712
0.0086360455
0.0098194688
0.010770836
0.011486545
0.011991502
0.012321992
0.012514921
0.012601378
0.012606763
0.012552219
0.012453996
0.012324912
0.012173829
0.012009128
0.011834923
0.011655467
0.011472929
0.011289778
0.011107004
0.010925908
0.01074746
0.010571533
0.010398396
0.010228479
0.01006139
0.0098975747
0.0097368939
0.0095791447
0.0094242719
0.0092720625
0.0091223268
0.0089749089
0.008829667
0.0086864442
0.0085452569
0.0084059503
0.0082683139
0.0081322378
0.0079976508
0.0078644703
0.0077326186
0.007602022
0.007472613
0.0073443282
0.0072171105
0.0070909309
0.0069657355
0.0033673383
0.0038704594
0.0044278787
0.0053400562
0.0064812126
0.0076893728
0.0088090209
0.0097607186
0.010518991
0.01109069
0.011498759
0.011771236
0.011934444
0.012011398
0.012021831
0.011981979
0.011904517
0.011799458
0.011674388
0.01153544
0.011386723
0.011231611
0.01107236
0.01091052
0.010748085
0.010586397
0.01042525
0.010265282
0.01010709
0.0099507206
0.0097964681
0.0096443752
0.0094944192
0.0093466074
0.009200814
0.0090569228
0.0089148789
0.0087744813
0.0086358311
0.0084988126
0.0083633057
0.0082291938
0.0080963897
0.0079648361
0.0078344714
0.007705237
0.007577077
0.007449939
0.0073237743
0.0071985372
0.007074218
0.0069507389
0.0033436793
0.0037651544
0.0042082559
0.0049142866
0.0058490452
0.0069014328
0.0079331162
0.0088558647
0.0096284406
0.010242441
0.010708421
0.01104548
0.011274404
0.011414972
0.011485101
0.011499788
0.01147174
0.011410983
0.011325475
0.01122167
0.011103707
0.010976333
0.010841506
0.010701203
0.010558047
0.010413862
0.010268125
0.010121959
0.0099761578
0.0098310308
0.0096868883
0.0095439277
0.0094022562
0.0092619665
0.0091230432
0.0089854295
0.0088490516
0.0087139903
0.0085802136
0.0084476507
0.0083162545
0.0081859493
0.008056678
0.0079284034
0.0078010857
0.0076746864
0.0075491682
0.0074244945
0.0073006349
0.0071775505
0.007055247
0.0069336353
0.003323958
0.0036858134
0.0040486482
0.0045978753
0.0053538285
0.0062528813
0.0071822481
0.008054083
0.0088174251
0.0094519215
0.0099572759
0.010344088
0.010627311
0.010822936
0.010946409
0.011011463
0.011029771
0.011011399
0.010964217
0.010894771
0.010807878
0.01070817
0.010597969
0.010479525
0.01035618
0.010230125
0.010100299
0.0099684817
0.0098356405
0.0097022624
0.0095687417
0.009435428
0.0093024982
0.0091701668
0.0090385835
0.0089075386
0.0087773638
0.0086479462
0.0085193487
0.0083915656
0.0082645828
0.0081383663
0.008012892
0.0078881453
0.0077641093
0.0076407667
0.0075180991
0.0073960884
0.007274716
0.0071539761
0.0070338336
0.0069142541
0.0033073647
0.0036239296
0.0039293566
0.0043616357
0.0049684083
0.0057242138
0.0065451176
0.0073507991
0.0080861472
0.0087223394
0.009250141
0.0096724816
0.0099985657
0.01024033
0.010410395
0.010520701
0.010581978
0.010603441
0.01059292
0.01055686
0.010500365
0.010427986
0.010342755
0.010246287
0.010143208
0.010035451
0.0099219999
0.009805003
0.0096856073
0.0095644389
0.0094420049
0.0093188346
0.0091950535
0.0090710806
0.0089471961
0.0088232782
0.0086995826
0.0085761471
0.0084530649
0.0083303764
0.0082081055
0.0080862593
0.0079648469
0.0078438783
0.0077233607
0.0076032988
0.0074836947
0.0073645474
0.0072458641
0.0071276277
0.0070098231
0.0032932566
0.0035740905
0.0038372916
0.0041832435
0.0046691858
0.0052966143
0.006009447
0.006739691
0.0074328869
0.0080551501
0.00859041
0.0090350334
0.0093928628
0.0096717519
0.0098813248
0.010031483
0.010131529
0.010189973
0.010214017
0.010209897
0.010182846
0.010137275
0.010076508
0.010002492
0.0099199158
0.009830308
0.009733549
0.009631789
0.0095262295
0.0094176634
0.0093067251
0.0091940176
0.0090799031
0.008964765
0.0088489014
0.0087324306
0.0086155755
0.0084984602
0.0083812163
0.0082639296
0.008146664
0.0080294667
0.0079123797
0.0077954389
0.0076786768
0.0075621211
0.0074457943
0.0073297219
0.00721391
0.007098354
0.0069830691
0.0032811279
0.0035328034
0.0037638796
0.0040462058
0.0044363937
0.0049525994
0.0055626392
0.0062132471
0.0068544019
0.0074502934
0.0079801582
0.0084350796
0.0088141386
0.0091213024
0.0093631842
0.00954746
0.0096818759
0.0097737927
0.0098299401
0.009856039
0.0098571119
0.009837541
0.009800709
0.0097491263
0.009686754
0.0096152779
0.0095354704
0.0094492025
0.0093577751
0.0092621336
0.0091630407
0.0090611791
0.0089570515
0.0088510841
0.0087436278
0.0086349346
0.0085252555
0.0084147806
0.0083036843
0.0081920971
0.0080801228
0.0079678471
0.0078553453
0.0077426794
0.0076299089
0.0075170847
0.0074042564
0.0072914573
0.0071786984
0.0070660159
0.0069534269
0.0032705867
0.0034977817
0.0037035211
0.0039386717
0.0042541024
0.0046764996
0.0051923196
0.0057632459
0.0063463037
0.0069064497
0.007420281
0.0078749615
0.0082655704
0.008592547
0.008859592
0.0090721106
0.0092361741
0.0093579367
0.0094432011
0.0094974045
0.0095250706
0.0095304152
0.0095167885
0.0094870573
0.0094445555
0.0093912435
0.0093283792
0.0092577126
0.0091806046
0.0090981244
0.0090111481
0.0089204332
0.0088265826
0.0087300906
0.0086313712
0.0085307644
0.0084285698
0.0083250352
0.0082203795
0.0081147766
0.0080083686
0.0079012786
0.0077936159
0.0076854672
0.0075769219
0.0074680588
0.0073589369
0.0072495999
0.0071400991
0.0070304763
0.0069207559
0.0032613334
0.0034675061
0.0036525541
0.0038522748
0.0041098725
0.0044548326
0.0048868319
0.0053811971
0.0059034036
0.0064212889
0.0069106659
0.007356123
0.0077496021
0.0080884783
0.0083737599
0.0086086454
0.0087974918
0.0089451563
0.0090565064
0.0091362653
0.0091886285
0.009217541
0.0092261848
0.0092174757
0.0091943903
0.0091590478
0.0091129778
0.0090578861
0.0089951694
0.00892599
0.0088513173
0.0087719741
0.0086886409
0.0086018834
0.0085121792
0.0084199351
0.0083255034
0.0082291844
0.0081312422
0.0080318918
0.0079313107
0.0078296587
0.0077270812
0.0076236847
0.0075196013
0.0074149078
0.0073096935
0.0072040295
0.0070979801
0.0069916
0.0032531406
0.0034409492
0.00360857
0.0037811804
0.0039942001
0.0042763193
0.0046356195
0.0050587987
0.0055201103
0.005991765
0.0064503756
0.0068792187
0.0072679776
0.007611517
0.0079084681
0.00815997
0.0083686976
0.0085381778
0.0086722767
0.0087749504
0.0088499314
0.0089006733
0.0089303575
0.0089417059
0.008937412
0.0089196345
0.0088900632
0.0088503827
0.0088020096
0.0087461671
0.0086838957
0.0086160698
0.0085434325
0.0084666149
0.0083861524
0.0083025074
0.0082160822
0.0081272252
0.0080362449
0.0079433947
0.0078488838
0.007752907
0.0076556519
0.0075572403
0.0074578223
0.0073575132
0.0072564162
0.0071546238
0.0070522162
0.0069492653
0.0032458354
0.0034174019
0.0035699695
0.003721353
0.0038999567
0.0041317221
0.0044293144
0.0047881365
0.0051906715
0.0056143431
0.0060378175
0.0064442017
0.0068217864
0.0071635248
0.0074660503
0.0077286561
0.0079524292
0.0081395865
0.0082929635
0.0084157033
0.0085109631
0.0085817688
0.0086309049
0.0086611649
0.0086748014
0.0086740444
0.0086605135
0.0086359608
0.0086017554
0.0085591774
0.0085093095
0.0084530615
0.0083912291
0.0083244957
0.008253447
0.0081785915
0.0081003771
0.0080191945
0.0079353953
0.0078492697
0.0077610516
0.0076709776
0.0075792517
0.007486038
0.0073915005
0.0072957795
0.0071989996
0.007101271
0.0070026918
0.0069033494
0.003239285
0.0033963617
0.003535675
0.0036700125
0.0038218749
0.004013627
0.0042597642
0.0045617914
0.0049092839
0.0052850985
0.0056708341
0.0060503994
0.0064115113
0.0067458228
0.0070483888
0.0073169201
0.0075510611
0.0077517842
0.0079209011
0.0080607227
0.0081737708
0.0082625927
0.0083296355
0.0083773523
0.008407874
0.008423364
0.0084252858
0.0084154544
0.0083951238
0.008365624
0.0083280604
0.0082833658
0.0082323713
0.0081757995
0.0081142776
0.0080483505
0.0079785079
0.0079051782
0.007828744
0.0077495283
0.0076678063
0.0075838353
0.0074978424
0.0074100243
0.0073205646
0.0072296259
0.0071373525
0.0070438737
0.0069493042
0.0068537479
0.003233386
0.0033774615
0.0035049448
0.0036252436
0.003756107
0.003916195
0.0041200266
0.0043729584
0.0046702258
0.0049998348
0.0053467979
0.0056965858
0.0060370746
0.0063592125
0.0066569149
0.0069266082
0.0071666799
0.0073769612
0.0075582816
0.0077121275
0.007840359
0.0079450066
0.0080281351
0.0080918555
0.0081381245
0.0081687486
0.0081855115
0.0081897157
0.008182913
0.008166191
0.0081407324
0.0081074728
0.0080672695
0.0080208642
0.0079689195
0.007912004
0.0078506446
0.0077852983
0.007716378
0.0076442367
0.0075691801
0.0074914876
0.007411409
0.0073291674
0.0072449672
0.0071589915
0.0070714042
0.0069823517
0.0068919651
0.0068003648
0.0032280555
0.0033604229
0.0034772535
0.0035857187
0.0036998635
0.0038349023
0.0040043146
0.0042155401
0.0044679981
0.0047542087
0.0050627107
0.0053810536
0.0056978853
0.0060040015
0.0062926156
0.0065591882
0.0068010653
0.0070170717
0.0072071275
0.0073719273
0.00751267
0.0076308516
0.0077281206
0.0078062276
0.0078668807
0.0079116848
0.007942232
0.0079598153
0.0079659734
0.0079615706
0.0079479848
0.0079259467
0.0078964053
0.0078600935
0.007817711
0.00776983
0.0077170121
0.0076597337
0.0075984357
0.0075334958
0.0074652432
0.0073939777
0.0073199696
0.007243465
0.007164688
0.007083841
0.0070011052
0.0069166443
0.0068306053
0.0067431236
0.0032232261
0.0033450266
0.0034522148
0.0035505073
0.0036511288
0.0037662892
0.0039078979
0.0040841977
0.0042974493
0.0045438603
0.0048153107
0.005101693
0.0053928924
0.0056800339
0.0059560458
0.0062157471
0.0064556771
0.0066738135
0.0068692659
0.0070419934
0.0071925564
0.0073219158
0.0074312839
0.007522038
0.0075955994
0.0076533592
0.0076967163
0.0077269204
0.0077451716
0.007752747
0.0077505044
0.007739364
0.0077203348
0.0076939554
0.007661054
0.0076221669
0.0075778932
0.0075287169
0.0074751049
0.0074174534
0.0073561081
0.0072913875
0.007223579
0.0071529481
0.0070797374
0.007004166
0.0069264322
0.0068467145
0.0067651749
0.0066819633
0.0032188412
0.003331094
0.0034295323
0.0035189439
0.0036084446
0.0037077349
0.0038269752
0.0039743584
0.0041538732
0.0043645389
0.0046011822
0.0048560766
0.0051206433
0.005386727
0.0056473462
0.0058969941
0.0061316467
0.0063486114
0.006546307
0.0067240333
0.0068817541
0.0070199115
0.007139278
0.0072408529
0.0073257524
0.0073951331
0.007450186
0.0074920401
0.0075217679
0.0075404833
0.0075490625
0.0075485842
0.0075396074
0.0075229352
0.0074994172
0.007469415
0.0074336298
0.0073925369
0.0073466255
0.0072963058
0.0072419324
0.0071838409
0.0071223306
0.0070576836
0.0069901585
0.0069199895
0.0068473891
0.0067725504
0.0066956491
0.0066168475
0.003214853
0.0033184742
0.0034089688
0.0034905402
0.0035707491
0.0036572647
0.0037585332
0.003882181
0.004033071
0.0042122129
0.0044168683
0.0046415511
0.004879351
0.0051231144
0.0053662675
0.0056032696
0.005829775
0.0060426063
0.0062396265
0.0064195689
0.0065818596
0.0067264532
0.0068536946
0.006964209
0.0070588
0.0071383725
0.0072038987
0.0072563487
0.00729667
0.00732584
0.007344726
0.0073541221
0.0073549925
0.0073477876
0.0073332037
0.0073120245
0.0072846266
0.0072515404
0.0072132899
0.0071703001
0.0071229202
0.0070715056
0.0070163592
0.0069577768
0.0068960308
0.0068313671
0.0067640116
0.0066941693
0.0066220275
0.0065477613
0.0032112197
0.0033070372
0.0033903259
0.0034649255
0.0035372601
0.0036133935
0.0037002082
0.0038044937
0.0039313769
0.0040831547
0.0042589773
0.0044553307
0.0046669664
0.0048878971
0.0051122017
0.0053345607
0.0055505343
0.0057566475
0.0059503514
0.0061299181
0.0062943083
0.0064430351
0.0065760405
0.0066935896
0.0067961751
0.006884441
0.0069591348
0.0070210492
0.0070709925
0.0071098032
0.0071382733
0.0071571385
0.0071670918
0.0071690068
0.0071632716
0.007150502
0.007131214
0.0071061294
0.0070754408
0.0070397329
0.0069993216
0.0069545945
0.0069058428
0.0068533738
0.0067974714
0.0067383907
0.0066763673
0.0066116177
0.0065443401
0.006474718
0.0032079049
0.0032966678
0.003373432
0.0034418078
0.0035073913
0.0035750016
0.0036501596
0.0037387141
0.0038456519
0.0039739973
0.0041242704
0.0042945921
0.0044812577
0.0046795018
0.0048842212
0.0050905229
0.0052940775
0.0054912918
0.0056793512
0.0058561803
0.0060203571
0.0061710107
0.0063077172
0.0064304043
0.0065392643
0.0066346806
0.006717174
0.0067873497
0.0068458629
0.0068934098
0.0069306803
0.0069583342
0.0069769988
0.0069873789
0.0069899264
0.0069854811
0.0069741609
0.0069566875
0.0069333918
0.0069049548
0.0068714324
0.0068333663
0.0067910042
0.006744663
0.0066946381
0.0066411885
0.0065845597
0.0065249765
0.0064626444
0.0063977575
0.0032048766
0.0032872644
0.0033581353
0.0034209484
0.0034806938
0.0035412399
0.0036069596
0.0036827634
0.0037732533
0.0038817641
0.0040097333
0.0041565604
0.0043198904
0.0044961465
0.004681125
0.0048705104
0.0050602536
0.0052468069
0.0054272331
0.0055992249
0.0057610684
0.0059115747
0.0060500007
0.0061759685
0.0062893884
0.0063903918
0.0064792759
0.0065564541
0.0066224196
0.006677723
0.006722937
0.00675863
0.0067853601
0.0068037284
0.0068142366
0.0068173865
0.0068138624
0.0068038489
0.0067878171
0.0067661896
0.0067395786
0.006708129
0.0066721143
0.0066318772
0.0065877287
0.0065399281
0.0064887273
0.0064343578
0.0063770331
0.0063169501
0.0032021064
0.0032787348
0.0033442986
0.003402145
0.0034568145
0.0035114575
0.0035695017
0.0036349819
0.0037119878
0.0038038728
0.0039126244
0.0040385817
0.0041805059
0.0043359073
0.0045014926
0.0046736126
0.0048486298
0.0050231825
0.0051943425
0.0053596854
0.0055172982
0.0056657471
0.0058040242
0.0059314846
0.0060477833
0.0061528148
0.0062466617
0.0063295473
0.0064017992
0.0064638207
0.0065160603
0.0065589864
0.0065930791
0.0066188454
0.0066367581
0.0066472777
0.006650824
0.0066480696
0.0066390987
0.0066242094
0.0066040026
0.0065791669
0.0065494985
0.0065152941
0.006476982
0.0064348139
0.0063890452
0.006339911
0.0062876261
0.0062323959
0.0031995689
0.0032709967
0.0033317971
0.003385222
0.0034354688
0.0034851492
0.0035369266
0.0035940525
0.0036600566
0.0037381211
0.0038305019
0.0039381806
0.0040607927
0.004196789
0.0043437408
0.0044986979
0.0046585213
0.0048201466
0.0049807701
0.0051379574
0.005289689
0.0054343619
0.0055707627
0.0056980253
0.0058155814
0.0059231114
0.0060204966
0.0061077783
0.0061851197
0.0062527784
0.0063110752
0.0063603734
0.006401064
0.0064335664
0.0064582949
0.0064756631
0.0064860739
0.0064899007
0.0064876871
0.006479315
0.0064653933
0.0064469566
0.0064233345
0.0063952305
0.0063626727
0.0063260878
0.0062857237
0.0062418152
0.0061945812
0.0061442246
0.0031972413
0.003263975
0.0033205164
0.0033700236
0.0034164207
0.0034619167
0.0035085637
0.0035589338
0.0036159985
0.0036826574
0.0037612311
0.0038530996
0.0039585448
0.0040767904
0.0042061848
0.0043444633
0.0044890273
0.004637189
0.0047863638
0.004934202
0.0050786654
0.0052180569
0.0053510205
0.0054765178
0.0055937957
0.0057023472
0.0058018728
0.0058922426
0.005973464
0.006045651
0.0061089989
0.0061637609
0.0062102344
0.0062487507
0.0062796568
0.0063033096
0.0063200776
0.0063303308
0.00633427
0.0063316962
0.0063239538
0.0063121081
0.0062944268
0.0062718578
0.0062450854
0.0062140276
0.0061790071
0.0061402865
0.0060980798
0.0060525952
0.0031951036
0.0032576034
0.0033103526
0.0033564102
0.0033994712
0.003441441
0.0034838874
0.0035288033
0.0035786356
0.0036359443
0.003702977
0.0037813215
0.0038717072
0.0039739616
0.0040870972
0.0042094854
0.0043390721
0.0044735916
0.0046107477
0.0047483553
0.0048844353
0.0050172696
0.0051454208
0.0052677311
0.0053833031
0.0054914754
0.0055917902
0.005683965
0.0057678606
0.0058434565
0.0059108241
0.0059701082
0.0060215079
0.0060652674
0.0061016585
0.0061309765
0.0061535426
0.0061697367
0.0061796255
0.0061819454
0.0061802985
0.0061751815
0.0061630121
0.0061459242
0.006124416
0.0060988718
0.0060691728
0.0060355648
0.0059983379
0.0059576914
0.003193138
0.0032518208
0.0033012109
0.0033442563
0.0033844493
0.0034234629
0.003462482
0.0035030128
0.0035470244
0.0035967196
0.0036541851
0.0037210771
0.0037984074
0.003886451
0.0039847619
0.0040922732
0.00420745
0.004328462
0.0044533461
0.0045801418
0.0047069965
0.0048322351
0.0049544
0.0050722645
0.005184832
0.0052913198
0.0053911414
0.0054838802
0.0055692675
0.0056471568
0.0057175041
0.0057803461
0.0058357863
0.0058839787
0.0059251171
0.0059594224
0.005987138
0.0060085117
0.0060236247
0.0060320689
0.0060361779
0.0060356694
0.0060291979
0.0060175502
0.0060013816
0.0059808606
0.0059564157
0.0059279255
0.0058955863
0.005859717
0.0031913279
0.0032465746
0.0032930058
0.0033334496
0.0033712078
0.0034077704
0.0034440182
0.003481051
0.0035204134
0.0035639562
0.0036135563
0.0036708396
0.0037369721
0.0038125403
0.0038975196
0.0039913174
0.0040928703
0.0042007724
0.0043134121
0.0044290948
0.0045461459
0.0046629904
0.0047782033
0.0048905407
0.0049989485
0.0051025617
0.0052006927
0.0052928169
0.0053785519
0.005457641
0.0055299318
0.0055953612
0.0056539373
0.0057057283
0.0057508468
0.0057894408
0.0058216804
0.00584774
0.0058677414
0.0058817905
0.005890874
0.0058947312
0.0058935023
0.0058872596
0.0058761658
0.0058607011
0.0058410126
0.0058175198
0.0057900857
0.0057588894
0.0031896594
0.0032418174
0.0032856619
0.0033238903
0.0033596196
0.0033941883
0.0034282334
0.0034625156
0.0034982069
0.0035368255
0.003580016
0.00362931
0.0036859314
0.0037506664
0.0038238031
0.0039051323
0.0039940008
0.0040893971
0.0041900589
0.0042945781
0.0044014953
0.0045093791
0.0046168857
0.0047227982
0.0048260482
0.0049257241
0.00502107
0.0051114773
0.0051964726
0.0052757031
0.0053489219
0.0054159727
0.0054767759
0.0055313158
0.0055796282
0.0056217898
0.0056579066
0.0056881028
0.0057125072
0.0057312926
0.0057448827
0.005753321
0.0057566157
0.0057552948
0.0057492146
0.0057385274
0.0057236219
0.0057046233
0.0056819466
0.0056554334
0.0031881193
0.0032375087
0.003279112
0.0033154906
0.0033495751
0.0033825723
0.0034149186
0.0034470902
0.0034799343
0.0035146632
0.003552684
0.0035953959
0.0036440118
0.003699431
0.00376216
0.0038322883
0.0039095042
0.003993149
0.0040822907
0.0041758111
0.0042724865
0.0043710621
0.0044703125
0.0045690882
0.0046663447
0.0047611595
0.0048527396
0.0049404195
0.0050236569
0.0051020213
0.0051751855
0.0052429106
0.0053050377
0.0053614728
0.0054121798
0.005457166
0.005496478
0.0055301881
0.0055583956
0.0055812366
0.005598929
0.0056115779
0.0056192772
0.0056221655
0.0056207343
0.0056147163
0.0056043167
0.0055898319
0.005571394
0.005549421
0.0031866969
0.0032336107
0.0032732983
0.0033081744
0.003340982
0.003372804
0.0034039077
0.0034345266
0.0034652256
0.0034969388
0.0035308432
0.0035681845
0.0036101208
0.0036575971
0.0037112642
0.0037714323
0.0038380663
0.0039108091
0.0039890305
0.0040718906
0.0041584085
0.0042475251
0.0043381622
0.0044292697
0.0045198605
0.0046090344
0.0046959905
0.0047800347
0.0048605773
0.0049371313
0.0050093031
0.0050767867
0.0051393508
0.0051968337
0.0052491297
0.0052961846
0.0053379833
0.0053745477
0.0054059286
0.0054322127
0.0054535177
0.0054699421
0.005481589
0.0054885871
0.0054910561
0.0054894484
0.0054833848
0.005473134
0.0054589457
0.0054409665
0.0031853809
0.0032300933
0.0032681698
0.0033018779
0.0033337631
0.0033647881
0.0033950691
0.0034246305
0.0034537885
0.0034832281
0.0035139078
0.0035469146
0.003583322
0.0036240766
0.003669912
0.0037212969
0.0037784103
0.0038411463
0.0039091397
0.0039818089
0.0040584091
0.004138086
0.004219926
0.0043030029
0.0043864147
0.0044693113
0.0045509129
0.0046305207
0.0047075229
0.0047813938
0.0048516931
0.0049180584
0.0049802013
0.0050378978
0.0050909835
0.0051393432
0.0051829074
0.0052216433
0.0052555536
0.0052846704
0.005309053
0.0053287667
0.0053438944
0.0053545434
0.0053608354
0.0053628215
0.0053609554
0.0053546838
0.0053444627
0.005330495
0.0031841624
0.0032269293
0.003263686
0.0032965472
0.0033278556
0.0033584468
0.0033882977
0.0034172457
0.0034453876
0.0034731837
0.0035013916