/*--------------------------------*- C++ -*----------------------------------*\
| =========                 |                                                 |
| \\      /  F ield         | OpenFOAM: The Open Source CFD Toolbox           |
|  \\    /   O peration     | Version:  2312                                  |
|   \\  /    A nd           | Website:  www.openfoam.com                      |
|    \\/     M anipulation  |                                                 |
\*---------------------------------------------------------------------------*/
FoamFile
{
    version     2.0;
    format      ascii;
    arch        "LSB;label=32;scalar=64";
    class       volScalarField;
    location    "0.03";
    object      N2;
}
// * * * * * * * * * * * * * * * * * * * * * * * * * * * * * * * * * * * * * //

dimensions      [0 0 0 0 0 0 0];

internalField   nonuniform List<scalar> 
3275
(
0.023538483
0.10423884
0.19099512
0.26572774
0.32704033
0.37578925
0.41542545
0.44813402
0.47554115
0.49877218
0.51874457
0.5332584
0.54662824
0.55863376
0.56896776
0.57792779
0.58576058
0.59266861
0.59881202
0.60431614
0.60927955
0.6137816
0.61788777
0.62165135
0.62511655
0.62832038
0.63129412
0.63406442
0.63665418
0.63908319
0.64136871
0.64352583
0.64556777
0.64750601
0.64935011
0.65110907
0.65270356
0.65431387
0.65588114
0.65739346
0.65885737
0.66028038
0.66159506
0.66293439
0.6642644
0.66556936
0.66685452
0.66812361
0.66938012
0.6706273
0.67186819
0.67310585
0.036546895
0.12902689
0.21080806
0.279848
0.33679271
0.38227518
0.41989795
0.45129334
0.47783875
0.50047354
0.52002023
0.53429548
0.54744276
0.55928462
0.56949634
0.57836347
0.58612459
0.59297651
0.59907531
0.60454346
0.60947749
0.61395529
0.61804123
0.62178777
0.6252385
0.62842994
0.63139301
0.63415403
0.63673568
0.63915756
0.64143679
0.64358834
0.64562536
0.64755934
0.64939957
0.65115212
0.65274454
0.65435364
0.65591793
0.65742759
0.65888893
0.66030895
0.66162181
0.66296028
0.66428831
0.6655918
0.66687548
0.66814319
0.66939842
0.67064443
0.67188426
0.67312069
0.07342628
0.17970866
0.24948454
0.30707069
0.35562786
0.39477097
0.42851502
0.45745812
0.48234872
0.50382476
0.52253889
0.5363527
0.54905681
0.56057723
0.57054748
0.57923079
0.58684994
0.59359055
0.59960076
0.60499743
0.60987306
0.61430262
0.61834829
0.62206091
0.62548283
0.62864962
0.63159141
0.63433397
0.63689947
0.63930716
0.64157386
0.64371433
0.64574157
0.6476671
0.64950006
0.65123874
0.65282793
0.65443452
0.655993
0.65749746
0.65895377
0.66036763
0.66167716
0.66301425
0.66433863
0.66563901
0.66691981
0.66818486
0.66943765
0.67068141
0.67191917
0.67315336
0.1557203
0.25920667
0.30368392
0.34473614
0.38194014
0.41217478
0.44069066
0.46630884
0.48887599
0.50870343
0.52621974
0.53938493
0.55143384
0.56248712
0.57210403
0.58051752
0.5879277
0.59450413
0.60038343
0.60567427
0.61046332
0.61482127
0.61880711
0.6224693
0.62584835
0.62897841
0.63188852
0.63460355
0.63714498
0.63953151
0.64177953
0.64390345
0.64591608
0.64782902
0.64965247
0.65136717
0.65295421
0.65455638
0.65610617
0.65760297
0.65905198
0.66045602
0.66176124
0.66309621
0.66441527
0.66571097
0.6669875
0.66824863
0.66949781
0.67073826
0.67197293
0.67320392
0.32386036
0.36078168
0.37118212
0.38927396
0.41188255
0.43449097
0.45603432
0.47741874
0.49715628
0.51494247
0.53094675
0.54332806
0.55452703
0.56497993
0.57414157
0.58220615
0.5893451
0.59570778
0.60141614
0.60656849
0.61124399
0.61550786
0.61941499
0.62301075
0.62633328
0.62941487
0.63228312
0.63496176
0.63747136
0.63982988
0.64205316
0.64415516
0.64614834
0.64804444
0.64985887
0.65153376
0.6531246
0.65471885
0.65625716
0.65774394
0.65918377
0.66057325
0.66187427
0.66320599
0.66451805
0.66580754
0.66707842
0.66833437
0.6695788
0.67081487
0.67204548
0.67327238
0.5916202
0.46726152
0.43619558
0.43352479
0.44192369
0.45632267
0.47301148
0.48972025
0.5063222
0.52191837
0.53624646
0.54782352
0.55807476
0.56783828
0.57648651
0.58415583
0.59098602
0.59710439
0.60261668
0.60760967
0.61215419
0.6163093
0.62012524
0.62364393
0.6269008
0.62992601
0.63274553
0.63538176
0.63785424
0.64018005
0.64237442
0.64445079
0.64642112
0.64829663
0.6500925
0.65173716
0.65332857
0.65490964
0.65643479
0.65791001
0.65934022
0.66070939
0.66200864
0.66333543
0.66463936
0.66592159
0.66718587
0.66843577
0.66967463
0.67090559
0.67213151
0.67335389
0.68545823
0.54482126
0.49105034
0.47307864
0.47167641
0.47847357
0.48970624
0.50283643
0.51593914
0.52932222
0.54186305
0.55266975
0.56197388
0.57094805
0.57904948
0.58629413
0.59279076
0.59864412
0.60394286
0.60876174
0.61316276
0.61719841
0.62091401
0.62434775
0.62753213
0.63049504
0.63326061
0.63584988
0.63828118
0.64057069
0.64273296
0.64478082
0.64672569
0.6485777
0.65034935
0.65196895
0.65355779
0.65512274
0.65663334
0.65809576
0.65951751
0.6608582
0.66216107
0.66348024
0.66477528
0.66604944
0.66730636
0.66854952
0.66978219
0.67100745
0.67222818
0.67344595
0.7217153
0.60407732
0.54095953
0.51181837
0.50153014
0.50160941
0.50739351
0.51665449
0.5267603
0.53757667
0.54829647
0.55800386
0.56646153
0.57451045
0.58200162
0.58876694
0.59488468
0.60043561
0.60548947
0.61010792
0.6143432
0.61824051
0.6218396
0.62517455
0.62827448
0.63116466
0.6338672
0.63640151
0.63878459
0.64103152
0.6431561
0.6451705
0.64708547
0.64890957
0.65064962
0.652247
0.65382909
0.65537457
0.65686808
0.65831515
0.65972166
0.66103958
0.66234311
0.6636516
0.66493628
0.66620098
0.66744924
0.66868445
0.6699098
0.67112833
0.67234293
0.67355602
0.73772653
0.64570379
0.58272793
0.54741589
0.53037201
0.5246278
0.52572815
0.53097579
0.53837097
0.54668495
0.55543595
0.56380606
0.57148687
0.57853844
0.58533678
0.59157298
0.59726966
0.60248281
0.60726151
0.61165379
0.61570135
0.61944142
0.62290773
0.62612984
0.62913313
0.63193992
0.63457008
0.63704119
0.63936875
0.64156654
0.64364761
0.64562336
0.64750396
0.64929619
0.65099511
0.65257502
0.65414451
0.65566749
0.6571413
0.65857055
0.65995576
0.66125489
0.662556
0.66385136
0.66512404
0.66637777
0.66761599
0.66884198
0.67005883
0.6712695
0.67247686
0.67368543
0.74598247
0.67455031
0.61658246
0.57894287
0.55742127
0.54705732
0.54407605
0.54579284
0.55032009
0.55647314
0.56322311
0.57015578
0.57685326
0.58305504
0.58903928
0.59470666
0.59994432
0.60478728
0.60926216
0.61340352
0.61724196
0.62080615
0.62412347
0.6272187
0.63011305
0.63282564
0.63537385
0.63777333
0.64003787
0.64217972
0.64421125
0.64614297
0.6479847
0.64974251
0.65138541
0.65295829
0.65450604
0.6560039
0.65745539
0.65886495
0.66022163
0.66150622
0.66280125
0.66408133
0.66534028
0.66658148
0.6678082
0.66902361
0.67023071
0.67143231
0.67263105
0.67383052
0.75090062
0.69471067
0.64351945
0.60621531
0.58218964
0.5684475
0.562072
0.56074009
0.56261525
0.56654921
0.57159142
0.57698852
0.5825469
0.58796369
0.59314813
0.59815863
0.60290374
0.60734811
0.61149255
0.61535975
0.61896859
0.6223388
0.62549117
0.62844564
0.63121881
0.63382629
0.6362829
0.63860218
0.64079607
0.64287495
0.64485073
0.64673281
0.64853105
0.65023903
0.65183857
0.65339783
0.6549163
0.65638627
0.65781271
0.65920236
0.66051931
0.6617968
0.66308044
0.66434333
0.66558679
0.66681381
0.6680275
0.66923091
0.67042691
0.67161817
0.67280688
0.67399386
0.75419014
0.70910471
0.66478314
0.6294222
0.60444578
0.58846208
0.57944331
0.57549729
0.57506811
0.57690943
0.58021799
0.58428611
0.58863048
0.59313044
0.59761954
0.60194284
0.60613926
0.6101619
0.61395158
0.61752338
0.6208835
0.62404238
0.62701432
0.62981456
0.63245447
0.634946
0.63730131
0.63953178
0.64164737
0.64365596
0.64556967
0.64739621
0.64914811
0.65078797
0.65235985
0.65389366
0.65537821
0.65681714
0.65821531
0.65957599
0.66085987
0.6621302
0.66339517
0.66463925
0.6658654
0.66707652
0.66827558
0.66946549
0.67064901
0.67182861
0.67300603
0.67417698
0.75658161
0.7196632
0.68156845
0.64896408
0.62415886
0.60689917
0.595951
0.58989057
0.58741546
0.58743924
0.58909512
0.59180692
0.5950905
0.59861608
0.60231921
0.60604479
0.60966108
0.61322312
0.6166357
0.61989349
0.6229875
0.62591873
0.62869539
0.63132861
0.63382354
0.6361884
0.63843277
0.64056586
0.64259563
0.64452629
0.64637161
0.648136
0.64982516
0.65140891
0.65295216
0.65444721
0.65589453
0.65729912
0.65866619
0.65998903
0.66124737
0.66250544
0.66374782
0.66497107
0.66617802
0.66737146
0.66855419
0.66972903
0.67089861
0.67206521
0.67323033
0.67438073
0.75842109
0.72762767
0.69489214
0.66532974
0.64143788
0.62367126
0.61143066
0.60373169
0.59954376
0.59793882
0.59814069
0.59954782
0.6017454
0.60440661
0.60730032
0.61035158
0.61344431
0.61655722
0.6195385
0.62246726
0.62527992
0.62796839
0.63053565
0.63299012
0.63532885
0.63755658
0.63968054
0.6417078
0.64364466
0.64548911
0.64726008
0.6489566
0.65056472
0.65211153
0.6536111
0.65506174
0.65646809
0.65783479
0.65916955
0.66044179
0.66168649
0.66292304
0.66414051
0.66534083
0.66652661
0.66770048
0.66886514
0.67002325
0.67117739
0.67232955
0.67348129
0.6746052
0.75989029
0.73379538
0.70556394
0.67901488
0.65647729
0.6387804
0.62578685
0.61688871
0.61131845
0.60831589
0.60720842
0.60744262
0.60859398
0.61036888
0.61253796
0.61491554
0.61744979
0.62007614
0.62269242
0.62524012
0.62775864
0.63019049
0.63253498
0.63480066
0.63697256
0.63905298
0.64104729
0.64296043
0.64479834
0.64654697
0.64823848
0.64984423
0.65139592
0.65289115
0.65433804
0.65574016
0.65710169
0.65842632
0.65971734
0.66095085
0.6621769
0.66338496
0.66457536
0.66575059
0.66691315
0.66806553
0.66921026
0.67034992
0.67148704
0.67262353
0.6737539
0.67486026
0.76109443
0.73868532
0.71420549
0.69047624
0.66951368
0.65229291
0.6389823
0.62927313
0.62263363
0.61846986
0.61621717
0.61538773
0.61558445
0.6165042
0.61793397
0.61968955
0.62169409
0.62380474
0.62601044
0.62821997
0.63043951
0.63258273
0.63469143
0.63676108
0.63875601
0.64067929
0.64253507
0.64432579
0.64606111
0.64770119
0.64929165
0.65083222
0.65231407
0.65374613
0.65513596
0.65648536
0.65779823
0.65907723
0.6603113
0.66152209
0.66271712
0.66389362
0.66505457
0.66620247
0.66733969
0.66846856
0.66959145
0.6707108
0.67182924
0.67295028
0.67404948
0.67514766
0.76209994
0.74264263
0.72128532
0.70011134
0.68079483
0.66431662
0.65102568
0.64083517
0.63341169
0.62831513
0.62508942
0.62331605
0.62263942
0.62277302
0.62349139
0.62463616
0.62609408
0.62775505
0.62951943
0.63137707
0.63326814
0.6351529
0.63702003
0.63887208
0.64067971
0.64243632
0.64414522
0.64580445
0.64741513
0.64895893
0.65045691
0.65191104
0.65331603
0.65467913
0.65600778
0.65730015
0.65856058
0.65977714
0.66097383
0.66215103
0.66330917
0.66445136
0.66558037
0.66669862
0.6678083
0.66891158
0.67001061
0.67110765
0.67220515
0.67330346
0.67437749
0.67547103
0.76295176
0.74590278
0.72715441
0.70825412
0.69055983
0.67498226
0.66195938
0.65155761
0.64360136
0.63778514
0.63375579
0.63116626
0.62970585
0.62911347
0.62917829
0.62972734
0.63065756
0.63185027
0.63321491
0.634719
0.63626559
0.63788391
0.639499
0.64113068
0.64274295
0.6443238
0.64587859
0.64739907
0.64888237
0.65031917
0.65171863
0.65308241
0.65440412
0.65569231
0.6569564
0.65818716
0.65937757
0.66054912
0.66170316
0.66283728
0.66395543
0.66506049
0.66615498
0.66724116
0.66832106
0.6693966
0.67046969
0.67154226
0.67261656
0.67368615
0.67474262
0.67582768
0.76368163
0.74863007
0.73207624
0.71517909
0.6990279
0.68442932
0.67184851
0.66144915
0.65317457
0.64683163
0.64215992
0.63888189
0.6367343
0.63548536
0.63494048
0.63494145
0.63535924
0.63609889
0.63706356
0.63819998
0.6394393
0.64077519
0.64212249
0.64353412
0.64494398
0.64634008
0.64773533
0.64911084
0.65046235
0.65178396
0.65307896
0.65434878
0.65558031
0.65678696
0.65798493
0.65913437
0.66027409
0.66139312
0.66249578
0.6635832
0.66465821
0.66572327
0.66678056
0.66783225
0.66888006
0.6699257
0.67097071
0.67201646
0.67306441
0.67409977
0.6751499
0.67621763
0.7643129
0.7509412
0.73624851
0.72110908
0.70639339
0.69279637
0.68077177
0.67053792
0.66212287
0.6554231
0.65025838
0.64641554
0.64367866
0.64184795
0.64074878
0.64023274
0.6401788
0.64047836
0.64105063
0.64182918
0.64275496
0.64379694
0.6449023
0.64608238
0.64727948
0.6484815
0.64971509
0.65093997
0.65215473
0.65335441
0.6545391
0.6557132
0.65684616
0.65796269
0.6590829
0.66017071
0.66124547
0.66230577
0.66335379
0.66439105
0.66541976
0.6664419
0.66745928
0.66847399
0.66948738
0.67050093
0.6715158
0.67253272
0.67354162
0.67455998
0.6755948
0.76486321
0.75292111
0.7398199
0.72622321
0.71282472
0.70021469
0.68881419
0.6788656
0.67045351
0.66354281
0.65801994
0.65372903
0.65049915
0.64816323
0.64656822
0.64557842
0.64507737
0.64496785
0.64516113
0.64558948
0.64620357
0.64695849
0.64781227
0.64875219
0.64974229
0.65076239
0.6518177
0.65288575
0.65395887
0.65503082
0.65609872
0.65716103
0.65820352
0.6592366
0.66026875
0.66128485
0.66229155
0.66328926
0.66427922
0.6652629
0.66624219
0.66721852
0.66819316
0.66916846
0.67014506
0.67112437
0.67210709
0.67308202
0.67406495
0.67506594
0.67607682
0.76534622
0.75463307
0.74290312
0.73066374
0.71846559
0.70680489
0.69606186
0.68648246
0.67818575
0.67118649
0.66542451
0.66079315
0.65716264
0.65439731
0.6523661
0.65094813
0.65003608
0.64953626
0.64937174
0.64946919
0.64977306
0.650247
0.65084668
0.65155192
0.65232993
0.65316164
0.65403902
0.65494628
0.65587362
0.65681305
0.65775931
0.65870862
0.65965314
0.66059609
0.66154032
0.66247907
0.66341407
0.66434556
0.66527394
0.66620067
0.66712749
0.66805517
0.66898411
0.66991768
0.6708551
0.67179806
0.67273534
0.67367833
0.67464077
0.67561384
0.67659879
0.76577271
0.75612515
0.74558494
0.73454283
0.72343531
0.71267484
0.70259828
0.69344333
0.68534742
0.67835991
0.67246177
0.66758707
0.66364213
0.66052025
0.65811232
0.6563135
0.65502747
0.65416805
0.65365996
0.65344264
0.65345243
0.65365176
0.65399658
0.65447187
0.65503626
0.65567654
0.65637506
0.65711874
0.65789713
0.65870028
0.65952093
0.66035461
0.66119567
0.66204342
0.66289771
0.66375485
0.66461455
0.6654764
0.66633965
0.66720602
0.66807745
0.66895388
0.66983374
0.67072368
0.67161934
0.6725124
0.67341461
0.6743319
0.67526198
0.67620531
0.67716294
0.76615125
0.75743456
0.7479331
0.73795002
0.7278314
0.71791724
0.7085007
0.69980405
0.69197198
0.68507649
0.67912916
0.67409664
0.66991578
0.6665061
0.66377961
0.66164782
0.66002641
0.65883787
0.65801301
0.65749225
0.65721948
0.65715528
0.65725675
0.65750378
0.65785315
0.65830263
0.65882123
0.65939942
0.66002687
0.66069103
0.66138258
0.66209775
0.66283119
0.66357963
0.66434121
0.66511314
0.6658942
0.66668333
0.66747779
0.66828026
0.66909366
0.66991681
0.67074308
0.67158863
0.67242785
0.6732852
0.67415292
0.6750342
0.67593018
0.67684187
0.76648878
0.75859056
0.75000117
0.74095752
0.73173436
0.72261038
0.71383704
0.70561694
0.69809401
0.69135355
0.68542903
0.68031252
0.67596622
0.67233267
0.66934355
0.66692628
0.6650089
0.66352322
0.66240671
0.66160355
0.66106298
0.66074331
0.66061048
0.66063266
0.66077719
0.6610349
0.66137197
0.66178351
0.66225962
0.66278324
0.66334235
0.66393643
0.66455916
0.66520494
0.66587094
0.66655444
0.66725381
0.66796789
0.66868949
0.66942418
0.67017733
0.67094688
0.67171163
0.67250415
0.67330311
0.67411648
0.67494392
0.67578705
0.67664697
0.67752442
0.76679099
0.75961645
0.75183199
0.74362404
0.73521119
0.72682098
0.71866672
0.71092926
0.70374631
0.69720934
0.69136653
0.68622917
0.68177999
0.67798134
0.67478257
0.67212614
0.66995231
0.66820242
0.66682115
0.66575771
0.66496593
0.66440591
0.6640427
0.66385091
0.66379486
0.6638597
0.66402248
0.66426997
0.6645916
0.66497468
0.66539721
0.66586844
0.66637853
0.66691887
0.66748657
0.66807875
0.66869356
0.66933196
0.66997552
0.67063759
0.67132878
0.67203498
0.67275018
0.6734865
0.67423724
0.6750047
0.67578935
0.67659217
0.67741404
0.67825541
0.76706256
0.76053106
0.75346025
0.74599776
0.73831803
0.73060635
0.7230421
0.71578404
0.70896016
0.70266286
0.69694917
0.69184431
0.68734721
0.68343678
0.68007791
0.67722686
0.67483552
0.67285476
0.67123669
0.6699362
0.66891169
0.66812603
0.66754648
0.6671454
0.66689345
0.66677445
0.66676493
0.66684835
0.66701676
0.66725437
0.66754776
0.66789468
0.66828794
0.66872029
0.66918734
0.66968559
0.67021235
0.67076541
0.67133672
0.67193083
0.67255169
0.67319322
0.67385213
0.67453237
0.67523187
0.67595121
0.67669076
0.67745114
0.67823297
0.6790365
0.76730736
0.76134976
0.75491425
0.74811853
0.74110218
0.73401594
0.72700961
0.72022072
0.71376553
0.70773364
0.70218642
0.6971585
0.69266116
0.68868676
0.68521356
0.6822101
0.67963913
0.67746067
0.67563432
0.67412089
0.67288348
0.6718883
0.67110492
0.67050635
0.67006695
0.66976641
0.66958968
0.66951349
0.66953019
0.6696243
0.6697863
0.67000858
0.67028455
0.67060738
0.67097194
0.67137419
0.67181075
0.6722785
0.67277301
0.673295
0.67384532
0.6744209
0.67501963
0.67564236
0.67628823
0.67695723
0.67764951
0.67836537
0.67910523
0.6798691
0.76752869
0.7620852
0.75621737
0.7500195
0.74360372
0.73709257
0.73061054
0.72427547
0.71819106
0.71244159
0.70708937
0.70217475
0.69771793
0.69372193
0.6901761
0.68705976
0.68434549
0.6820019
0.67999585
0.67829415
0.67686469
0.67567734
0.67470436
0.67392048
0.67330248
0.67283053
0.67248762
0.67225506
0.67212469
0.67207919
0.67210889
0.67220649
0.67236515
0.67257766
0.67283851
0.67314328
0.67348808
0.67386952
0.67428425
0.67473123
0.67520979
0.67571786
0.67625375
0.6768171
0.67740723
0.67802382
0.67866677
0.67933613
0.6800321
0.68075453
0.76772929
0.76274795
0.75738902
0.7517285
0.74585677
0.73987349
0.7338817
0.72798151
0.72226406
0.71680678
0.71167043
0.70689815
0.70251616
0.69853554
0.69495467
0.691762
0.68893881
0.68646159
0.68430411
0.68243902
0.68083902
0.67947782
0.67833065
0.6773745
0.6765882
0.67595292
0.67545182
0.67506881
0.67479132
0.67461089
0.67451001
0.67448486
0.67452599
0.67462808
0.67478457
0.67499099
0.67524292
0.67553693
0.67586981
0.67623967
0.67664501
0.67708397
0.67755497
0.6780571
0.67858956
0.6791518
0.67974349
0.68036447
0.68101474
0.68169396
0.76791152
0.76334686
0.7584455
0.75326903
0.74789054
0.74239115
0.73685594
0.73136935
0.72601053
0.72084926
0.71594304
0.7113356
0.70705674
0.70312332
0.69954077
0.69630512
0.69340515
0.69082443
0.68854309
0.68653935
0.68479065
0.68327459
0.68196955
0.68085503
0.67991193
0.6791228
0.67847174
0.67794412
0.67752751
0.67721126
0.67698222
0.6768372
0.67676295
0.67675555
0.67680702
0.67691487
0.67707323
0.67727894
0.67752858
0.67781977
0.67815052
0.67851893
0.67892335
0.67936258
0.67983562
0.68034175
0.68088041
0.68145125
0.68205408
0.68268841
0.76807739
0.76388941
0.75940059
0.75466106
0.74973014
0.74467395
0.7395626
0.73446696
0.72945507
0.72458885
0.71992145
0.71549552
0.71134256
0.70748321
0.70392819
0.70067959
0.69773252
0.6950767
0.69269805
0.69057995
0.68870439
0.68705285
0.68560688
0.68434866
0.68326123
0.68232878
0.6815367
0.68087153
0.68032133
0.67987532
0.67952279
0.67925578
0.67907035
0.67895449
0.67890298
0.67891214
0.67897633
0.67909344
0.67925895
0.67947038
0.67972547
0.68002212
0.68035858
0.68073344
0.68114555
0.68159398
0.68207801
0.6825971
0.68315088
0.68373872
0.76822866
0.76438201
0.76026601
0.75592164
0.75139723
0.74674675
0.74202793
0.73729997
0.7326209
0.72804498
0.7236204
0.71938758
0.71537823
0.71161518
0.70811282
0.70487793
0.70191077
0.69920633
0.6967556
0.69454669
0.69256586
0.69079829
0.68922873
0.68784206
0.68662354
0.68555917
0.68463579
0.68384116
0.68316409
0.68259436
0.6821224
0.68174012
0.68144009
0.68121997
0.68106709
0.68097827
0.68094998
0.68097788
0.68105882
0.68118987
0.68136856
0.68159253
0.68185995
0.68216926
0.68251914
0.68290851
0.68333649
0.68380238
0.68430565
0.68484554
0.76836681
0.76483013
0.76105179
0.75706545
0.7529106
0.74863141
0.74427537
0.73989179
0.73552982
0.73123653
0.72705492
0.72302243
0.71916988
0.715521
0.71209252
0.70889463
0.70593164
0.70320291
0.7007038
0.69842664
0.69636156
0.69449726
0.69282159
0.69132208
0.68998629
0.68880209
0.68775789
0.68684274
0.68604643
0.68535953
0.68477331
0.68428002
0.68387282
0.68354623
0.68329157
0.68310945
0.68298913
0.6829291
0.68292623
0.68297603
0.68307808
0.68322878
0.68342639
0.68366924
0.68395587
0.68428505
0.68465578
0.68506721
0.68551867
0.68600928
0.76849318
0.7652385
0.76176658
0.75810516
0.75428663
0.75034718
0.74632592
0.7422638
0.73820226
0.73418174
0.73024013
0.72641146
0.72272489
0.71920407
0.71586697
0.71272605
0.7097887
0.70705774
0.70453222
0.7022081
0.70007901
0.69813688
0.69637248
0.69477594
0.69333705
0.69204564
0.69089173
0.68986573
0.68895857
0.6881617
0.68746721
0.68686786
0.68635715
0.68592917
0.68557752
0.68529774
0.68508974
0.68494325
0.68485666
0.68482713
0.68485199
0.68492901
0.6850564
0.68523221
0.68545485
0.68572298
0.68603549
0.68639141
0.68678996
0.68723012
0.76860891
0.76561124
0.76241788
0.75905177
0.75553959
0.75191106
0.74819838
0.74443551
0.74065724
0.73689807
0.73319103
0.72956657
0.72605169
0.72266922
0.71943749
0.71637033
0.71347726
0.71076378
0.70823192
0.70588071
0.70370685
0.70170515
0.69986912
0.6981913
0.69666371
0.69527805
0.69402602
0.69289945
0.69189044
0.69099146
0.69019542
0.68949573
0.68888632
0.68836155
0.68791597
0.68754498
0.6872444
0.68701509
0.68684739
0.68673865
0.68668747
0.68669166
0.68674805
0.68685665
0.68701485
0.68722135
0.68747492
0.68777452
0.68811925
0.688508
0.76871501
0.76595192
0.7630122
0.7599149
0.75668204
0.75333808
0.74990957
0.74642466
0.74291244
0.73940217
0.73592237
0.73249998
0.72915951
0.72592246
0.72280689
0.71982722
0.71699432
0.71431565
0.71179552
0.70943553
0.70723492
0.70519111
0.70330001
0.70155646
0.69995452
0.69848778
0.69714956
0.69593314
0.69483184
0.69383918
0.69294898
0.69215535
0.6914528
0.69083615
0.69030055
0.68984165
0.68945546
0.68913838
0.68889215
0.68870768
0.68858118
0.6885127
0.68850003
0.68854068
0.68863426
0.68877885
0.68897306
0.68921577
0.68950602
0.6898426
0.76881239
0.76626369
0.76355525
0.76070294
0.75772499
0.75464158
0.75147462
0.74824742
0.74498425
0.74170981
0.73844855
0.73522402
0.73205817
0.72897083
0.72597928
0.72309799
0.7203385
0.71770955
0.71521719
0.71286499
0.71065435
0.70858485
0.70665457
0.70486039
0.70319831
0.70166367
0.7002514
0.69895616
0.69777254
0.69669515
0.69571872
0.69483815
0.69404862
0.69334551
0.69272449
0.69218156
0.69171306
0.69131562
0.69098618
0.69072729
0.69052963
0.69038973
0.69030796
0.69028253
0.69031148
0.69039385
0.69052857
0.69071413
0.69094947
0.69123336
0.76890184
0.76654932
0.76405205
0.7614233
0.75867819
0.75583342
0.75290707
0.74991846
0.7468878
0.74383585
0.74078346
0.737751
0.7347579
0.73182216
0.72895992
0.72618524
0.72350986
0.72094324
0.7184926
0.71616301
0.71395757
0.71187767
0.70992323
0.70809296
0.70638459
0.7047951
0.70332092
0.70195809
0.70070242
0.69954962
0.69849536
0.69753539
0.69666556
0.69588191
0.69518064
0.69455818
0.69401122
0.6935367
0.6931319
0.69279518
0.69252429
0.69231922
0.69216962
0.69207837
0.69204407
0.69206498
0.69213986
0.69226827
0.69244857
0.69267948
0.76898407
0.76681126
0.76450704
0.76208251
0.75955027
0.75692415
0.75421911
0.75145114
0.74863706
0.74579428
0.74294044
0.74009308
0.7372692
0.7344849
0.73175499
0.72909279
0.72650986
0.72401593
0.72161892
0.71932494
0.71713839
0.7150621
0.71309753
0.71124495
0.70950364
0.70787205
0.70634801
0.70492886
0.7036116
0.70239299
0.70126967
0.70023824
0.6992953
0.69843752
0.69766168
0.69696471
0.69634368
0.69579585
0.69531872
0.69490998
0.69456672
0.69429375
0.69408168
0.69392586
0.6938289
0.69378939
0.69380576
0.69387666
0.69400208
0.69418002
0.76905971
0.76705167
0.76492412
0.76268636
0.76034889
0.7579232
0.75542169
0.75285759
0.75024489
0.74759814
0.74493224
0.74226217
0.73960266
0.73696796
0.73437146
0.73182552
0.72934121
0.72692821
0.72459475
0.72234757
0.720192
0.71813199
0.71617022
0.71430825
0.7125467
0.71088533
0.70932322
0.70785893
0.70649056
0.70521592
0.70403258
0.70293797
0.70192947
0.70100442
0.70016018
0.69939419
0.69870398
0.69808719
0.69754158
0.69706506
0.69665558
0.6963115
0.69603668
0.69582184
0.69566361
0.69556452
0.69552327
0.6955384
0.69560863
0.69573388
0.76912933
0.7672725
0.76530679
0.76323999
0.76108088
0.75883902
0.75652468
0.75414884
0.75172312
0.74925965
0.74677097
0.7442698
0.74176885
0.73928056
0.73681692
0.73438918
0.73200774
0.72968195
0.72742004
0.7252291
0.72311502
0.72108254
0.71913529
0.71727589
0.71550603
0.71382663
0.71223788
0.71073941
0.70933037
0.70800953
0.70677535
0.70562612
0.70455993
0.70357482
0.70266875
0.7018397
0.70108566
0.70040469
0.6997949
0.6992545
0.69878176
0.69837512
0.69803306
0.69775976
0.69754532
0.69738818
0.69729034
0.69725063
0.6972676
0.69733998
0.76919344
0.76747548
0.76565815
0.76374799
0.76175235
0.75967917
0.757537
0.75533494
0.75308261
0.75079015
0.74846807
0.74612714
0.74377822
0.74143212
0.73909943
0.73679027
0.73451424
0.73228017
0.73009609
0.72796911
0.72590544
0.72391033
0.7219881
0.72014216
0.7183751
0.71668875
0.71508428
0.71356227
0.71212281
0.71076554
0.70948979
0.70829462
0.70717886
0.70614121
0.70518024
0.70429447
0.7034824
0.70274248
0.70207324
0.70147319
0.70094091
0.70047504
0.7000743
0.69973743
0.69946878
0.69925795
0.69910525
0.69901183
0.69897666
0.6989981
0.76925252
0.76766218
0.76598099
0.76421448
0.76236877
0.76045048
0.75846671
0.75642501
0.75433337
0.75220023
0.75003438
0.7478449
0.74564104
0.74343213
0.74122742
0.73903595
0.7368664
0.734727
0.73262538
0.73056852
0.72856269
0.7266134
0.72472542
0.72290274
0.72114863
0.71946568
0.71785583
0.7163205
0.71486058
0.71347652
0.71216843
0.71093609
0.70977904
0.7086966
0.70768796
0.70675217
0.70588822
0.70509502
0.70437146
0.70371644
0.70312882
0.70260752
0.70215146
0.70175961
0.70143099
0.70117006
0.70096632
0.70082102
0.70073486
0.70070682
0.76930696
0.767834
0.76627785
0.76464316
0.76293508
0.76115911
0.75932114
0.75742743
0.75548463
0.75349973
0.7514801
0.74943335
0.74736736
0.7452901
0.74320961
0.74113387
0.73907067
0.73702754
0.73501162
0.73302958
0.73108758
0.72919123
0.72734551
0.7255548
0.72382284
0.7221528
0.72054728
0.71900833
0.71753756
0.71613612
0.7148048
0.71354407
0.71235408
0.71123479
0.71018595
0.70920713
0.70829781
0.70745735
0.70668505
0.70598015
0.70534186
0.70476935
0.7042618
0.70381835
0.70343821
0.70312079
0.70287187
0.70267761
0.70254225
0.70246586
0.76935718
0.76799223
0.766551
0.76503741
0.76345576
0.76181066
0.76010697
0.75834988
0.7565449
0.75469786
0.75281488
0.75090237
0.74896698
0.74701551
0.74505492
0.74309217
0.74113421
0.73918782
0.7372596
0.73535581
0.73348238
0.73164482
0.7298482
0.72809708
0.72639553
0.7247471
0.72315489
0.72162149
0.72014906
0.71873935
0.71739376
0.71611332
0.71489881
0.71375072
0.71266933
0.71165474
0.71070687
0.70982554
0.70901044
0.70826119
0.70757731
0.70695828
0.70640352
0.70591236
0.70548396
0.70511695
0.70481978
0.70458192
0.70439952
0.70427678
0.76940351
0.76813804
0.76680255
0.76540031
0.76393494
0.76241027
0.76083034
0.75919945
0.75752214
0.75580325
0.7540479
0.75226145
0.7504495
0.74861785
0.74677247
0.74491943
0.74306483
0.74121477
0.73937524
0.73755205
0.73575079
0.73397678
0.73223501
0.73053009
0.72886627
0.72724735
0.72567676
0.72415747
0.72269212
0.72128293
0.71993179
0.71864026
0.71740961
0.71624084
0.71513473
0.71409183
0.71311253
0.71219705
0.71134548
0.7105578
0.70983387
0.70917347
0.7085763
0.70804198
0.70757006
0.70716013
0.7068125
0.70653235
0.70630877
0.70614221
0.76944629
0.76827254
0.76703442
0.76573471
0.76437641
0.76296272
0.76149699
0.75998277
0.75842381
0.75682412
0.75518796
0.75351981
0.75182439
0.75010663
0.74837163
0.74662465
0.74487105
0.74311624
0.7413656
0.73962448
0.73789807
0.7361914
0.73450929
0.73285629
0.73123668
0.72965439
0.72811305
0.72661591
0.72516592
0.72376569
0.7224175
0.72112334
0.71988491
0.71870365
0.71758078
0.71651726
0.71551391
0.71457133
0.71368999
0.71287021
0.7121122
0.71141603
0.7107817
0.7102091
0.70969808
0.70924846
0.70886018
0.70853317
0.7082734
0.70806707
0.76948585
0.76839675
0.76724845
0.76604328
0.76478375
0.76347251
0.76211232
0.76070613
0.75925703
0.75776833
0.75624356
0.75468648
0.75310106
0.75149147
0.74986207
0.7482174
0.74656214
0.74490106
0.74323898
0.74158074
0.73993112
0.73829482
0.73667641
0.73508028
0.73351064
0.73197144
0.73046639
0.72899891
0.72757217
0.72618902
0.72485207
0.72356363
0.72232575
0.72114026
0.72000871
0.71893249
0.71791274
0.71695045
0.71604642
0.7152013
0.71441562
0.71368976
0.71302399
0.71241846
0.71187324
0.71138827
0.71096336
0.71059772
0.71029987
0.76952247
0.76851166
0.76744639
0.76632859
0.76516038
0.76394393
0.76268155
0.76137562
0.76002873
0.7586436
0.75722315
0.75577052
0.75428904
0.75278226
0.7512539
0.74970787
0.74814824
0.74657919
0.74500502
0.74343008
0.74185872
0.74029527
0.73874401
0.73720912
0.73569464
0.73420446
0.73274227
0.73131156
0.72991559
0.72855741
0.72723982
0.72596536
0.72473639
0.72355499
0.72242306
0.72134226
0.72031409
0.71933983
0.71842061
0.71755737
0.71675094
0.71600197
0.71531101
0.71467846
0.71410461
0.71358966
0.71313369
0.71273685
0.71239994
0.76955647
0.76861827
0.76762996
0.76659317
0.76550966
0.76438124
0.76320979
0.76199727
0.7607458
0.75945763
0.7581352
0.75678112
0.75539817
0.75398937
0.75255789
0.75110711
0.74964056
0.7481619
0.74667493
0.74518354
0.74369166
0.74220326
0.74072227
0.73925261
0.73779811
0.73636252
0.73494944
0.73356232
0.73220447
0.73087898
0.72958878
0.72833659
0.72712494
0.72595613
0.7248323
0.72375537
0.7227271
0.72174903
0.72082256
0.71994893
0.71912919
0.71836428
0.71765497
0.71700192
0.71640565
0.71586655
0.71538493
0.71496111
0.71459583
0.76958816
0.76871756
0.76780091
0.76683957
0.765835
0.76478871
0.76370222
0.76257717
0.76141526
0.76021837
0.75898851
0.75772786
0.75643878
0.7551238
0.75378565
0.75242724
0.75105161
0.74966199
0.74826172
0.74685425
0.74544311
0.74403189
0.7426242
0.74122365
0.73983381
0.73845824
0.73710037
0.73576357
0.73445108
0.73316599
0.73191128
0.73068972
0.72950397
0.72835648
0.72724955
0.72618529
0.72516565
0.7241924
0.72326717
0.72239141
0.72156642
0.72079334
0.7200732
0.71940684
0.71879502
0.71823831
0.7177372
0.71729209
0.71690356
0.76961787
0.76881059
0.76796105
0.76707041
0.76613991
0.76517076
0.76416424
0.76312166
0.76204443
0.7609341
0.75979233
0.75862096
0.75742196
0.75619749
0.75494989
0.75368165
0.75239543
0.75109404
0.74978041
0.74845761
0.74712876
0.74579711
0.74446591
0.74313846
0.74181805
0.74050799
0.73921152
0.73793184
0.73667207
0.73543523
0.73422425
0.73304194
0.73189095