/*--------------------------------*- C++ -*----------------------------------*\
| =========                 |                                                 |
| \\      /  F ield         | OpenFOAM: The Open Source CFD Toolbox           |
|  \\    /   O peration     | Version:  2312                                  |
|   \\  /    A nd           | Website:  www.openfoam.com                      |
|    \\/     M anipulation  |                                                 |
\*---------------------------------------------------------------------------*/
FoamFile
{
    version     2.0;
    format      ascii;
    arch        "LSB;label=32;scalar=64";
    class       volScalarField;
    location    "0.03";
    object      O2;
}
// * * * * * * * * * * * * * * * * * * * * * * * * * * * * * * * * * * * * * //

dimensions      [0 0 0 0 0 0 0];

internalField   nonuniform List<scalar> 
3275
(
0.0036639367
0.010661876
0.015022721
0.017741736
0.020222048
0.023013886
0.02639656
0.030411801
0.035033225
0.04012855
0.045537486
0.050148553
0.05501375
0.059903545
0.064509086
0.068798326
0.072765678
0.076422961
0.079788657
0.082882543
0.085723644
0.088330001
0.090719021
0.092906282
0.094905895
0.096730586
0.098391802
0.099899826
0.1012639
0.10249234
0.10359264
0.10457153
0.1054351
0.10618876
0.10683728
0.1073851
0.1078134
0.10817307
0.1084487
0.10863971
0.1087496
0.10878164
0.10874144
0.10862898
0.10844724
0.10820089
0.10789247
0.10752503
0.10710172
0.10662571
0.10610019
0.10552813
0.0060701426
0.014097621
0.017797286
0.01992149
0.022010736
0.024512705
0.027684162
0.031521962
0.035998177
0.040964055
0.046255651
0.050786181
0.055562382
0.060375778
0.064916571
0.069151203
0.073072623
0.076691262
0.08002435
0.08309061
0.085908198
0.088494451
0.090866194
0.093038531
0.095025193
0.096838591
0.098489914
0.099989235
0.10134562
0.10256725
0.10366148
0.10463496
0.1054937
0.10624307
0.10688771
0.10743117
0.10785671
0.10821391
0.10848686
0.10867546
0.10878317
0.10881325
0.10877139
0.10865733
0.1084741
0.10822623
0.10791646
0.1075478
0.10712334
0.10664628
0.10611984
0.10554717
0.012971271
0.021839005
0.023773737
0.024501373
0.025714074
0.027577441
0.030273971
0.033755023
0.037932801
0.042634072
0.047687976
0.052058069
0.056654485
0.061315991
0.065727974
0.069854039
0.073684169
0.077225997
0.080494255
0.083505563
0.086276356
0.088822576
0.091159887
0.093302465
0.095263282
0.097054125
0.098685674
0.10016758
0.10150857
0.10271653
0.10379859
0.1047612
0.10561023
0.10635096
0.10698791
0.10752226
0.10794243
0.10829456
0.10856207
0.10874575
0.108849
0.10887503
0.10882964
0.10871209
0.10852575
0.10827494
0.10796247
0.10759132
0.10716457
0.10668539
0.10615708
0.10558294
0.029935896
0.035971937
0.033685398
0.03178867
0.031488378
0.032282173
0.034193302
0.037121187
0.04083159
0.045125959
0.049818754
0.053951883
0.05827656
0.062712921
0.066933936
0.070899181
0.074594094
0.078022123
0.081194274
0.084124062
0.086825385
0.089312122
0.091598236
0.093696532
0.09561886
0.097376092
0.098978153
0.10043408
0.10175208
0.10293961
0.10400347
0.10494982
0.10578429
0.10651208
0.1071379
0.10765766
0.10807047
0.10841479
0.10867411
0.10885038
0.1089469
0.10896683
0.10891604
0.10879315
0.10860211
0.1083469
0.10803038
0.1076555
0.10722531
0.10674296
0.1062118
0.10563529
0.070935716
0.059625091
0.048163876
0.042111535
0.039456858
0.038729967
0.039519047
0.041620928
0.044679585
0.048418312
0.052622682
0.05644807
0.060410392
0.064550225
0.068520868
0.072275535
0.075793391
0.079072335
0.082118473
0.084941271
0.08755132
0.089959826
0.092178536
0.094218478
0.096090042
0.097802904
0.099366007
0.10078758
0.10207515
0.10323564
0.10427539
0.10520018
0.10601532
0.10672588
0.10733796
0.10783608
0.10824087
0.10857431
0.10882272
0.1089891
0.10907666
0.10908846
0.10903038
0.10890033
0.10870302
0.10844198
0.10812008
0.10774023
0.10730545
0.10681887
0.10628385
0.10570406
0.15540231
0.090678095
0.066244121
0.05480024
0.048888675
0.046225814
0.045838142
0.046923007
0.049170486
0.052243605
0.055863591
0.059340096
0.062885064
0.066676665
0.070359049
0.073871516
0.077185638
0.080292899
0.083193748
0.085893023
0.088397553
0.090715495
0.092856075
0.094828298
0.096640887
0.098302146
0.099819897
0.10120144
0.10245354
0.10358246
0.10459404
0.10549361
0.10628612
0.10697624
0.10756983
0.10804765
0.10844158
0.10876128
0.10899693
0.10915174
0.10922875
0.10923108
0.10916424
0.10902584
0.10882113
0.10855325
0.10822502
0.10783934
0.10739917
0.10690761
0.10636799
0.10578419
0.19280148
0.11973876
0.0856843
0.068395868
0.059429766
0.05479121
0.052846962
0.052823044
0.054129237
0.056455594
0.059410884
0.062510836
0.065621208
0.069012545
0.072381167
0.075629445
0.078721119
0.081640733
0.084382543
0.086946407
0.089335085
0.091553448
0.093608002
0.09550557
0.097253066
0.098857307
0.10032489
0.10166212
0.1028749
0.10396881
0.10494912
0.10582069
0.10658802
0.10725525
0.1078272
0.10828502
0.10866577
0.10896984
0.10919129
0.10933318
0.1093984
0.10939031
0.10931341
0.10916583
0.10895285
0.10867731
0.10834202
0.10794982
0.10750364
0.1070065
0.10646172
0.10587317
0.20771465
0.14586188
0.10686485
0.084422068
0.07163543
0.064623967
0.061000926
0.059626308
0.059902936
0.06133395
0.063551636
0.066125594
0.068799072
0.071717116
0.074726818
0.077671964
0.080508031
0.083211714
0.085770141
0.08817757
0.090432161
0.092535062
0.094489699
0.096300431
0.097972107
0.099509843
0.10091885
0.10220426
0.10337103
0.10442392
0.10536757
0.10620628
0.10694405
0.10758429
0.10812993
0.10856627
0.10893042
0.10921599
0.10942071
0.10954739
0.10959871
0.1095784
0.10948943
0.10933113
0.10910834
0.10882377
0.10848014
0.10808024
0.10762695
0.10712324
0.10657232
0.10597773
0.21433485
0.16536497
0.12675354
0.10117208
0.085189879
0.075505692
0.07007847
0.067283707
0.066401327
0.066869165
0.068257964
0.070183844
0.072400993
0.074798166
0.077396367
0.080001205
0.082549795
0.085010153
0.08736136
0.089591614
0.091693991
0.093665529
0.095506262
0.097217833
0.098802781
0.10026432
0.10160611
0.102832
0.10394585
0.1049515
0.10585287
0.10665368
0.10735737
0.10796655
0.10848052
0.10889423
0.10923785
0.10950202
0.1096874
0.10979645
0.10983167
0.10979714
0.10969408
0.10952339
0.10928921
0.10899413
0.1086408
0.10823195
0.10777039
0.10725905
0.10670105
0.10609872
0.21779736
0.17913685
0.14382447
0.11733695
0.099152047
0.087265015
0.079852368
0.075632558
0.073544037
0.072988359
0.073498238
0.0747055
0.076361055
0.078261033
0.080383657
0.082615428
0.08484685
0.087038073
0.089159219
0.091192228
0.093124677
0.094949172
0.096662098
0.098262188
0.099749441
0.10112499
0.1023908
0.1035493
0.10460316
0.10555514
0.10640848
0.10716615
0.10783114
0.10840548
0.10888091
0.10927206
0.1095904
0.10983028
0.10999357
0.11008247
0.11009934
0.11004837
0.10992918
0.10974431
0.10949706
0.10918992
0.10882546
0.10840633
0.10793528
0.10741521
0.10684927
0.10624003
0.21990758
0.18887327
0.15773982
0.13201969
0.11278693
0.099268599
0.090208641
0.084436511
0.081214688
0.07959995
0.079211705
0.07965274
0.080668262
0.082061658
0.08369838
0.085508836
0.087396292
0.089294942
0.091164683
0.092981482
0.094727036
0.096389282
0.097960789
0.099437262
0.10081593
0.10209569
0.10327669
0.10435987
0.10534656
0.10623832
0.10703771
0.10774688
0.10836841
0.10890026
0.10933823
0.10970186
0.10999055
0.11020312
0.11034147
0.11040758
0.11040386
0.11033387
0.11019662
0.10999567
0.10973356
0.10941273
0.10903563
0.10860483
0.108123
0.10759301
0.10701821
0.10640226
0.22135891
0.19591074
0.16885197
0.14482149
0.12552879
0.11104688
0.10070727
0.093611584
0.089214703
0.08661068
0.085309546
0.08497654
0.085322096
0.08614839
0.087313465
0.088681065
0.090191545
0.091777464
0.093376424
0.094959626
0.096502427
0.097987969
0.099404955
0.10074605
0.10200546
0.10317975
0.10426718
0.10526708
0.10617941
0.10700428
0.10774372
0.10839887
0.10897264
0.10945366
0.10985555
0.11018551
0.11044084
0.11062291
0.11073336
0.11077393
0.1107474
0.11065547
0.11049832
0.11027923
0.11000043
0.10966419
0.10927287
0.10882893
0.10833495
0.10779378
0.107209
0.1065866
0.22244542
0.20114438
0.17770131
0.15573057
0.13705902
0.12222827
0.11103761
0.10293782
0.097399287
0.093851339
0.091713711
0.090602525
0.090279096
0.09052058
0.0911746
0.092115433
0.093230326
0.094479507
0.095790603
0.09712493
0.098450599
0.099746017
0.10099611
0.10219066
0.10332055
0.10437993
0.10536516
0.10627394
0.1071048
0.10785601
0.1085295
0.10912486
0.10964255
0.11007339
0.11043525
0.11072527
0.11094372
0.111092
0.1111715
0.11118381
0.11113178
0.11101527
0.11083614
0.11059683
0.11029938
0.10994595
0.10953875
0.10908014
0.10857258
0.1080189
0.1074228
0.10679477
0.22330539
0.20515148
0.18479087
0.16493319
0.1472775
0.13257685
0.12094186
0.11210981
0.10569672
0.10121788
0.098292023
0.096466289
0.095479453
0.095140033
0.095279226
0.095765077
0.096492834
0.097403454
0.098400648
0.099473579
0.10056957
0.10166276
0.10273452
0.10377224
0.10476288
0.1056983
0.10657296
0.10738296
0.10812546
0.10879611
0.10939781
0.10992789
0.11038093
0.11076343
0.11107796
0.11132369
0.11150158
0.11161269
0.11165809
0.11163961
0.11155872
0.11141541
0.11121199
0.11095028
0.11063218
0.11025969
0.1098349
0.10936001
0.10883738
0.10826976
0.10766086
0.10702903
0.22401111
0.20830382
0.19052816
0.17267826
0.15622641
0.14198483
0.1302456
0.12095456
0.11387753
0.10866299
0.10495644
0.10247119
0.10087058
0.099960781
0.099591665
0.099627637
0.099956114
0.10051078
0.101211
0.10199967
0.10285555
0.10373596
0.10461906
0.10549087
0.10633323
0.10713616
0.10789227
0.1085961
0.10924383
0.10982675
0.11035113
0.11080563
0.11119761
0.11152402
0.11178574
0.11198315
0.11211676
0.11218726
0.11219544
0.11214326
0.11203027
0.1118579
0.11162776
0.11134142
0.11100058
0.11060711
0.11016294
0.10967013
0.10913087
0.10854776
0.10792836
0.10728591
0.22460448
0.21084421
0.19522668
0.17921053
0.1640193
0.15043941
0.13885415
0.12934771
0.121813
0.11601631
0.11168246
0.10853909
0.10637765
0.10493945
0.10407679
0.10366878
0.10360465
0.10379948
0.10418535
0.10469884
0.10530945
0.10596181
0.10664707
0.10734554
0.1080314
0.10869395
0.10932403
0.10991461
0.11046211
0.11094934
0.11138644
0.11176894
0.11209234
0.11235632
0.11256086
0.11270589
0.11279146
0.11281784
0.11278601
0.11269626
0.11254869
0.11234467
0.11208534
0.11177206
0.11140635
0.1109899
0.11052452
0.11001211
0.10945462
0.1088535
0.10822708
0.1075665
0.22511212
0.2129347
0.19912288
0.18474581
0.17079465
0.15798603
0.14673619
0.13721371
0.12940791
0.12318252
0.11833875
0.11465897
0.11193621
0.11001517
0.1086976
0.10786192
0.1074091
0.10725353
0.1073224
0.10755442
0.1079084
0.1083378
0.10882033
0.10933429
0.10985613
0.11037119
0.1108684
0.11133879
0.11177547
0.11216702
0.11251511
0.11281595
0.11306557
0.11326237
0.11340536
0.11349399
0.11352773
0.11350679
0.11343126
0.11330076
0.11311598
0.11287761
0.11258659
0.112244
0.11185121
0.11140975
0.11092129
0.1103876
0.10981056
0.10919305
0.10855426
0.10787086
0.22555221
0.21468629
0.20239407
0.18946533
0.17669112
0.16469967
0.15390388
0.14451835
0.13660003
0.13008858
0.12485259
0.12072737
0.11754276
0.11513901
0.1134002
0.11217581
0.11134776
0.11084839
0.11060516
0.11055661
0.11065225
0.11085313
0.11112789
0.11145298
0.11180492
0.11216641
0.11252473
0.11286901
0.11319039
0.11347941
0.1137333
0.11394782
0.11411883
0.1142439
0.11432104
0.11434931
0.1143277
0.11425581
0.11413286
0.1139589
0.113734
0.11345857
0.11313329
0.11275901
0.1123369
0.11186833
0.11135488
0.11079824
0.1102003
0.10956743
0.10890933
0.10820294
0.22593772
0.21617671
0.20517372
0.19351776
0.18183646
0.17066639
0.1603956
0.15125834
0.14335573
0.13668376
0.13116673
0.12668783
0.12311352
0.12031006
0.11815346
0.11655906
0.11539404
0.11456347
0.11401589
0.11368901
0.1135302
0.11349973
0.11356333
0.11369643
0.11387415
0.1140771
0.1142915
0.1145046
0.11470614
0.11488696
0.11504177
0.11516542
0.11525327
0.11530232
0.11530938
0.11527375
0.11519284
0.11506618
0.11489289
0.11467242
0.11440451
0.11408929
0.11372719
0.11331877
0.11286505
0.11236725
0.11182687
0.11124565
0.11062579
0.10997873
0.10929156
0.10856534
0.22627828
0.21746127
0.20756215
0.19702363
0.18634349
0.17597278
0.16626328
0.15745123
0.14966391
0.14293724
0.13723946
0.13249478
0.12860374
0.12545871
0.12295431
0.12099252
0.11950313
0.11837553
0.1175355
0.11693799
0.11652796
0.11626637
0.11611962
0.11605844
0.11605913
0.11609967
0.11616626
0.11624399
0.11632153
0.11638937
0.11644064
0.11646917
0.11646958
0.1164387
0.11637199
0.11626803
0.11612438
0.11593973
0.11571292
0.11544296
0.11512916
0.11477142
0.11436995
0.11392492
0.11343729
0.11290808
0.11233874
0.11173113
0.11109429
0.11041965
0.10970624
0.22658126
0.21858031
0.20963487
0.20007976
0.19030947
0.18070057
0.17156421
0.16312723
0.15552977
0.14883463
0.14304329
0.1381137
0.13397651
0.13054885
0.12774374
0.12547532
0.1236611
0.12224714
0.12114013
0.12028732
0.1196317
0.11914245
0.11878691
0.11853123
0.11835342
0.11823008
0.11814562
0.11808469
0.11803468
0.11798557
0.11792942
0.11785903
0.11776843
0.11765324
0.11750913
0.11733346
0.1171236
0.11687771
0.11659433
0.11627196
0.11590943
0.11550644
0.11506312
0.11457898
0.11405512
0.11349227
0.11289187
0.11226306
0.11159826
0.11089301
0.11015619
0.22685243
0.21956394
0.21144909
0.20276287
0.19381704
0.18492422
0.17635607
0.16832335
0.16096952
0.15437412
0.14856283
0.14352031
0.13920292
0.13554986
0.13249153
0.12995528
0.12786925
0.12616598
0.12480535
0.12370907
0.12282639
0.12211488
0.12155542
0.12110607
0.12075078
0.1204621
0.12022515
0.12002337
0.11984299
0.11967372
0.11950696
0.11933433
0.11914916
0.11894635
0.11872134
0.11847067
0.11819132
0.11788106
0.11753823
0.11716068
0.11674662
0.11629567
0.11580818
0.11528234
0.11471999
0.11412123
0.11349496
0.11283559
0.11213566
0.11140398
0.11064232
0.22709637
0.22043512
0.21304885
0.20513325
0.19693442
0.18870976
0.18069411
0.17307939
0.16600612
0.15956298
0.15379238
0.14869939
0.14426133
0.1404364
0.13717115
0.13440618
0.13208049
0.13013507
0.12851538
0.12719297
0.12608415
0.12516637
0.12441518
0.12377267
0.12324361
0.12278907
0.12239956
0.1220559
0.1217431
0.12145121
0.12117145
0.12089383
0.12061105
0.12031761
0.12000858
0.11967988
0.119328
0.11895038
0.11854549
0.11811021
0.11764186
0.11714018
0.11660658
0.11603618
0.11543324
0.11480403
0.11414186
0.11344381
0.11271387
0.11195404
0.11116586
0.22731679
0.22121168
0.21446861
0.2072389
0.19971695
0.19211332
0.18462869
0.17743512
0.17066631
0.16441459
0.15873331
0.15364253
0.14913605
0.14518815
0.14175994
0.13880462
0.1362718
0.13411104
0.13227491
0.13072432
0.12939552
0.12828322
0.12734305
0.12651818
0.1258245
0.12520293
0.12466275
0.12417748
0.12373079
0.12331452
0.12292047
0.12253573
0.12215275
0.12176608
0.12137036
0.12096091
0.12053372
0.1200858
0.11961666
0.1191215
0.11859607
0.11804054
0.11745995
0.11684129
0.11620446
0.1155313
0.11482884
0.11409618
0.11333431
0.11254468
0.22751672
0.22190768
0.21573567
0.20911854
0.20221009
0.1951818
0.18820343
0.18142703
0.17497688
0.16894499
0.16339113
0.158346
0.15381616
0.14978919
0.14623892
0.14313007
0.14042224
0.13807326
0.1360418
0.13428893
0.13276817
0.13145027
0.13032623
0.12934065
0.12847378
0.1276931
0.12700811
0.12638289
0.12580101
0.1252591
0.12475111
0.12425768
0.12377229
0.12329028
0.12280568
0.1223132
0.12180819
0.12128686
0.12075201
0.12019548
0.11961002
0.11899634
0.11837082
0.11770634
0.11701957
0.1163048
0.11556293
0.11479385
0.11399829
0.11317747
0.22769865
0.22253442
0.21687194
0.21080366
0.20445155
0.19795482
0.19145589
0.18508737
0.17896261
0.17317036
0.16777332
0.16280935
0.15829461
0.15422745
0.15059255
0.14736486
0.14451318
0.14200313
0.13979944
0.13786704
0.13616887
0.13467562
0.13336064
0.13221588
0.13118081
0.13026376
0.12942247
0.12865911
0.12794761
0.12727886
0.12666042
0.12605682
0.12546697
0.12488813
0.12431301
0.12373571
0.12315092
0.122552
0.12195152
0.12133337
0.12068474
0.12001662
0.11933224
0.11862064
0.11788646
0.11712793
0.11634504
0.11553784
0.11470691
0.11385326
0.22786468
0.22310104
0.21789519
0.21232014
0.20647288
0.20046622
0.1944188
0.18844498
0.18264645
0.17710672
0.17188869
0.16703452
0.16256737
0.15849408
0.15480835
0.15149407
0.14852826
0.14588382
0.14353149
0.14144115
0.13958207
0.13792719
0.13645223
0.13513766
0.13394247
0.13288415
0.13189649
0.13100651
0.13016607
0.1293787
0.12863785
0.1279248
0.12723313
0.12655698
0.12589034
0.12522702
0.12456175
0.12389014
0.1232144
0.12252602
0.12181776
0.1210925
0.12035096
0.11958842
0.11880556
0.1180015
0.117176
0.11632905
0.11546114
0.11457305
0.22801657
0.22361509
0.21882002
0.21368944
0.20830068
0.20274506
0.19712091
0.19152584
0.18604981
0.18076981
0.17574689
0.17102526
0.16663282
0.16258289
0.15887654
0.15550523
0.15245327
0.1497002
0.14722255
0.14499528
0.14299271
0.14119076
0.139567
0.13810033
0.13676365
0.13554401
0.13443752
0.13340064
0.1324481
0.13154292
0.13068442
0.12986161
0.12906762
0.12829369
0.12753509
0.12678496
0.1260381
0.12529035
0.12454
0.12378153
0.12301006
0.12222515
0.12142611
0.12061036
0.11977728
0.11892611
0.11805645
0.11716824
0.11626181
0.11533779
0.22815581
0.2240828
0.21965854
0.21492948
0.20995751
0.20481652
0.19958762
0.19435349
0.18919268
0.18417498
0.17935819
0.17478669
0.17049126
0.16648994
0.16278965
0.15938814
0.15627605
0.15343885
0.15085851
0.14851483
0.14638659
0.14445288
0.14269353
0.14108883
0.13961789
0.13826583
0.13701977
0.13585049
0.13478269
0.13375319
0.13279358
0.13186161
0.13096665
0.13009443
0.12924425
0.12840692
0.12757766
0.12675203
0.12592688
0.1250979
0.12426114
0.12341473
0.1225572
0.12168661
0.12080186
0.11990213
0.11898689
0.11805599
0.11710965
0.11614832
0.22828368
0.22450943
0.22042088
0.21605539
0.21146264
0.20670244
0.20184151
0.19694934
0.19209382
0.18733724
0.18273324
0.17832496
0.17414452
0.17021315
0.16654222
0.1631346
0.15998628
0.15708798
0.15442661
0.15198646
0.14975035
0.14770064
0.1458197
0.14409002
0.14249415
0.14101719
0.13964494
0.13835915
0.13715304
0.13602955
0.13495036
0.13390891
0.13292653
0.13195424
0.13101449
0.13008986
0.12917791
0.12827358
0.12737326
0.12647331
0.12556997
0.12466074
0.12374367
0.12281694
0.12187927
0.1209297
0.11996761
0.11899275
0.11800521
0.11700532
0.22840128
0.22489943
0.22111559
0.21707998
0.21283261
0.20842194
0.20390268
0.19933292
0.19477079
0.19027117
0.18588293
0.18164707
0.17759572
0.17375203
0.17013056
0.1667382
0.16357539
0.16063739
0.15791546
0.15539803
0.15307163
0.15092179
0.14893354
0.14709177
0.14538149
0.14378884
0.1423004
0.14090231
0.13958538
0.13834189
0.13714646
0.13602336
0.13492995
0.13386068
0.13284288
0.13183017
0.13083604
0.12985271
0.12887691
0.12790577
0.12693513
0.12596221
0.12498474
0.12400087
0.12300921
0.12200872
0.12099868
0.11997874
0.11894889
0.11790931
0.22850959
0.2252566
0.22174997
0.21801422
0.21408172
0.20999174
0.20578908
0.20152206
0.19724005
0.19299086
0.18881836
0.18476068
0.18084907
0.17710744
0.17355248
0.17019414
0.1670364
0.16407834
0.16131506
0.15873863
0.15633902
0.15410475
0.15202353
0.15008259
0.14826912
0.14657071
0.1449753
0.14347113
0.14204834
0.14069717
0.13940317
0.13816127
0.1369852
0.13583278
0.13470646
0.1336218
0.13254904
0.1314866
0.13043503
0.12939306
0.12835485
0.1273178
0.12627934
0.12523758
0.12419111
0.12313884
0.12207996
0.12101401
0.11994089
0.11886068
0.22860944
0.22558422
0.22233026
0.21886757
0.21522238
0.21142658
0.2075168
0.20353307
0.19951704
0.19550994
0.19155064
0.18767398
0.18390963
0.18028141
0.1768072
0.17349906
0.17036377
0.16740352
0.16461667
0.16199852
0.15954211
0.15723878
0.15507877
0.1530516
0.15114649
0.14935267
0.14765954
0.14605678
0.14453488
0.14308438
0.14169488
0.14035927
0.13906998
0.13784074
0.13663837
0.13545819
0.13429459
0.13317201
0.13204388
0.13093279
0.12982698
0.12872583
0.1276261
0.12652597
0.12542414
0.12431946
0.12321106
0.12209838
0.12098124
0.11985961
0.22870157
0.22588514
0.22286189
0.21964821
0.21626543
0.21273946
0.20910025
0.20538085
0.20161619
0.19784151
0.19409084
0.19039556
0.18678326
0.18327702
0.17989511
0.17665094
0.17355333
0.17060694
0.16781283
0.16516911
0.1626715
0.16031394
0.15808903
0.15598848
0.15400344
0.15212481
0.15034344
0.14865033
0.1470368
0.14549427
0.14401423
0.14258967
0.14121461
0.1398871
0.13858651
0.13734235
0.13610548
0.13489439
0.13368799
0.13252306
0.13134888
0.13018443
0.12902343
0.12786466
0.12670717
0.12554974
0.12439139
0.12323149
0.12206976
0.12090613
0.22878664
0.22616185
0.22334957
0.22036327
0.21722036
0.21394192
0.2105524
0.20707904
0.20355097
0.19999811
0.19644993
0.1929343
0.18947646
0.18609825
0.18281772
0.17964897
0.17660217
0.17368388
0.17089731
0.16824292
0.1657188
0.16332118
0.16104486
0.15888355
0.15683025
0.15487751
0.15301764
0.15124288
0.14954558
0.1479182
0.14635339
0.14484457
0.14338586
0.14197196
0.14059275
0.13924571
0.13795047
0.13666725
0.13539448
0.13413807
0.13291577
0.13169183
0.13046949
0.1292519
0.12803878
0.12682857
0.12562013
0.12441275
0.12320612
0.1220001
0.22886524
0.22641653
0.22379743
0.22101902
0.21809555
0.21504419
0.21188492
0.20864012
0.20533398
0.20199172
0.19863867
0.19529926
0.19199623
0.18874987
0.18557754
0.18249344
0.17950858
0.1766308
0.17386504
0.17121362
0.16867666
0.16625239
0.16393758
0.1617278
0.15961778
0.15760164
0.15567309
0.15382564
0.15205273
0.15034783
0.14870455
0.14711687
0.14557914
0.14408577
0.14263007
0.14120772
0.13981409
0.13847136
0.13714189
0.13581919
0.13451022
0.13323553
0.13196224
0.13068547
0.12941729
0.12815463
0.12689625
0.12564142
0.1243898
0.12314123
0.2289379
0.22665114
0.2242091
0.22162097
0.21889841
0.21605543
0.21310833
0.21007548
0.20697691
0.20383375
0.20066756
0.19749958
0.19435
0.19123733
0.18817793
0.18518571
0.18227195
0.17944536
0.17671208
0.17407595
0.17153872
0.16910036
0.16675935
0.16451295
0.16235748
0.16028852
0.15830116
0.15639012
0.15454996
0.15277511
0.15106008
0.14939952
0.14778823
0.14622108
0.14469276
0.14319884
0.1417351
0.1402976
0.13891003
0.13754039
0.13617064
0.13482084
0.13347328
0.13216208
0.13084085
0.12952648
0.12821862
0.12691662
0.12562017
0.12432912
0.22900509
0.22686739
0.22458783
0.22217402
0.21963552
0.21698379
0.21423213
0.21139558
0.20849066
0.20553499
0.20254682
0.19954439
0.19654545
0.19356664
0.19062308
0.18772804
0.18489274
0.18212628
0.17943563
0.17682575
0.17429969
0.17185886
0.16950322
0.1672315
0.16504147
0.16293008
0.16089369
0.15892821
0.15702924
0.15519222
0.1534125
0.15168546
0.1500065
0.14837109
0.14677476
0.14521338
0.14368314
0.1421805
0.14070234
0.13927494
0.13786471
0.13645177
0.13504899
0.13365747
0.13230287
0.13094263
0.12958601
0.12823739
0.12689652
0.12556331
0.22906725
0.22706683
0.22493649
0.22268252
0.22031278
0.21783663
0.21526493
0.21260996
0.20988533
0.20710567
0.20428629
0.20144277
0.19859051
0.19574428
0.19291784
0.19012358
0.18737237
0.18467335
0.18203398
0.17945995
0.17695532
0.17452265
0.17216313
0.16987678
0.16766263
0.16551889
0.16344308
0.16143223
0.15948298
0.15759169
0.15575458
0.15396775
0.1522273
0.15052932
0.14886998
0.14724564
0.14565288
0.14408862
0.14255063
0.14104162
0.13955977
0.13812076
0.13666338
0.1352183
0.13378568
0.1323922
0.13099717
0.12960273
0.12821812
0.12684331
0.22912475
0.22725086
0.22525766
0.22315037
0.22093545
0.21862054
0.21621451
0.21372739
0.21117033
0.20855543
0.20589547
0.20320365
0.20049321
0.1977771
0.19506765
0.19237626
0.18971319
0.18708739
0.18450645
0.18197654
0.17950242
0.1770875
0.174734
0.17244301
0.17021466
0.16804824
0.16594238
0.16389511
0.16190406
0.15996648
0.15807941
0.15623971
0.15444417
0.15268952
0.15097252
0.14929004
0.14763909
0.14601691
0.14442106
0.14284967
0.14129656
0.13979715
0.13831379
0.13681665
0.13533402
0.13386516
0.13243776
0.13101174
0.12958431
0.12816874
0.22917796
0.22742073
0.22555366
0.22358107
0.22150826
0.2193415
0.21708798
0.2147559
0.21235436
0.20989333
0.20738344
0.20483577
0.20226161
0.19967221
0.19707847
0.19449069
0.19191841
0.18937016
0.18685343
0.18437459
0.18193885
0.17955025
0.17721177
0.17492538
0.17269213
0.17051228
0.16838539
0.16631046
0.16428598
0.16231007
0.16038057
0.15849507
0.15665103
0.15484582
0.15307679
0.15134131
0.14963685
0.14796101
0.14631154
0.1446864
0.14308319
0.14150124
0.13996989
0.13845007
0.13691931
0.13540426
0.13390436
0.13244821
0.13099466
0.12953942
0.2292272
0.22757758
0.22582659
0.22397779
0.22203552
0.22000491
0.21789181
0.21570286
0.21344552
0.21112793
0.2087589
0.20634767
0.2039038
0.20143695
0.19895666
0.19647211
0.193992
0.19152432
0.18907629
0.18665425
0.18426361
0.18190883
0.17959345
0.17732011
0.17509062
0.17290605
0.1707668
0.16867267
0.16662299
0.16461667
0.16265227
0.16072812
0.15884232
0.15699287
0.15517768
0.15339464
0.15164167
0.14991676
0.14821802
0.14654367
0.14489203
0.14326183
0.14165179
0.14009295
0.13853973
0.13698067
0.13543862
0.13391298
0.13243328
0.13095556
0.22927278
0.22772246
0.22607836
0.2243434
0.22252113
0.22061571
0.2186319
0.21657509
0.21445132
0.21226727
0.21003014
0.20774764
0.20542779
0.2030788
0.20070893
0.19832629
0.19593867
0.19355345
0.19117741
0.18881671
0.18647678
0.18416231
0.18187719
0.17962456
0.17740682
0.1752257
0.17308229
0.17097713
0.16891027
0.16688132
0.16488955
0.16293394
0.16101325
0.15912604
0.15727078
0.15544587
0.1536497
0.15188066
0.15013723
0.14841796
0.1467215
0.14504669
0.14339253
0.14175826
0.14017598
0.13859356
0.13701208
0.13544827
0.13390208
0.13240386
0.22931498
0.22785634
0.22631072
0.22468052
0.22296863
0.22117841
0.21931371
0.21737888
0.21537881
0.21331892
0.21120513
0.20904376
0.20684153
0.20460537
0.20234234
0.20005951
0.19776382
0.19546193
0.19316014
0.19086428
0.18857965
0.18631099
0.1840624
0.18183734
0.17963865
0.17746857
0.17532877
0.17322038
0.1711441
0.16910017
0.16708849
0.16510865
0.16315999
0.16124166
0.15935263
0.15749182
0.15565806
0.15385016
0.15206696
0.15030736
0.1485703
0.14685486
0.14516024
0.14348584
0.14183146
0.14023058
0.13862583
0.1370267
0.13544592
0.13388442
0.22935406
0.22798011
0.22652531
0.2249916
0.22338133
0.2216972
0.21994229
0.21812011
0.21623459
0.21429011
0.21229148
0.2102439
0.20815292
0.20602436
0.20386421
0.20167857
0.19947353
0.19725504
0.19502884
0.19280038
0.19057471
0.18835648
0.18614985
0.18395847
0.18178546
0.17963344
0.17750454
0.17540038
0.17332219
0.17127076
0.16924655
0.1672497
0.1652801
0.16333742
0.16142114
0.15953064
0.1576652
0.15582404
0.15400638
0.15221145
0.15043848
0.1486868
0.14695578
0.14524489
0.14355392
0.14188409
0.14027701
0.13865192
0.13703884
0.13544644
0.22939027
0.22809462
0.22672364
0.2252789
0.22376228
0.22217596
0.22052238
0.21880431
0.21702492
0.21518771
0.21329659
0.21135578
0.20936984
0.20734363
0.20528219
0.20319074
0.20107456
0.1989389
0.19678894
0.19462966
0.1924658
0.19030183
0.18814184
0.18598955
0.18384824
0.18172078
0.17960963
0.17751681
0.17544396
0.17339236
0.17136293
0.16935631
0.16737288
0.16541278
0.16347598
0.16156229
0.15967142
0.15780298
0.15595658
0.15413175
0.15232807
0.15054508
0.14878231
0.14703912
0.14531423
0.1436036
0.14195798
0.14032894
0.13868655
0.1370662
0.22942385
0.22820067
0.22690716
0.22554458
0.22411442
0.22261841
0.22105846
0.21943677
0.21775581
0.21601841
0.21422768
0.21238705
0.21050024
0.20857127
0.20660434
0.20460389
0.20257444
0.20052061
0.19844698
0.19635807
0.19425826
0.19215173
0.19004243
0.18793405
0.18582992
0.18373307
0.18164615
0.17957148
0.17751103
0.17546645
0.17343909
0.17142999
0.16943996
0.16746958
0.16551925
0.16358918
0.1616795
0.15979019
0.15792122
0.15607247
0.15424381
0.15243509
0.15064614
0.14887673
0.14712666
0.14539629
0.14369031
0.14204361
0.14039788
0.13875367
0.22945504
0.22829904
0.22707728
0.22579073
0.22444057
0.22302812
0.2215549
0.2200226
0.21843316
0.21678879
0.21509196
0.21334545
0.21155225
0.20971567
0.2078392
0.20592656
0.20398163
0.20200838
0.20001086
0.19799311
0.19595911
0.19391274
0.19185774
0.18979765
0.18773579
0.18567522
0.18361873
0.18156882
0.17952771
0.17749734
0.17547937
0.1734752
0.17148601
0.16951276
0.16755621
0.16561699
0.16369557
0.1617923
0.15990749
0.15804135
0.15619408
0.15436583
0.15255675
0.15076701
0.1489969
0.14724718
0.14551971
0.14381664
0.1421787
0.14052542
0.22948408
0.22839053
0.22723539
0.22601942
0.22474351
0.22340867
0.22201606
0.22056696
0.21906287
0.2175055
0.21589679
0.21423893
0.21253437
0.21078576
0.20899601
0.20716821
0.20530565
0.20341175
0.20149003
0.19954406
0.19757743
0.19559368
0.19359629
0.19158863
0.18957389
0.18755512
0.18553514
0.18351655
0.18150173
0.17949282
0.17749173
0.17550015
0.17351955
0.17155122
0.16959626
0.16765561
0.1657301
0.16382041
0.16192716
0.16005089
0.15819209
0.15635123
0.15452874
0.15272506
0.15094067
0.14917605
0.14743125
0.14570391
0.14404405
0.22951122
0.22847595
0.22738295
0.22623277
0.22502611
0.22376369
0.22244637
0.22107511
0.21965103
0.21817543
0.21664982
0.21507592
0.21345566
0.21179122
0.21008495
0.20833944
0.20655744
0.20474188
0.20289579
0.20102233
0.19912466
0.19720601
0.19526955
0.19331843
0.19135569
0.18938426
0.18740694
0.18542637
0.18344498
0.18146506
0.17948869
0.17751777
0.17555401
0.17359895
0.17165398
0.16972032
0.16779911
0.16589132
0.16399787
0.16211959
0.16025727
0.15841164
0.15658342
0.1547733
0.152982
0.15121027
0.14945903
0.14772997
0.14602873
0.22953672
0.22855617
0.22752147
0.22643304
0.22529138
0.22409701
0.22285052
0.22155262
0.2202041
0.21880596
0.21735932
0.21586552
0.21432609
0.21274275
0.21111746
0.20945232
0.20774966
0.20601194
0.20424178
0.20244191
0.20061515
0.19876436
0.19689243
0.19500224
0.19309663
0.1911784
0.18925025
0.18731476
0.18537441
0.18343152
0.18148828
0.17954672
0.17760874
0.17567608
0.17375034
0.171833
0.16992543
0.16802888
0.16614453
0.16427347
0.16241675
0.16057537
0.15875029
0.15694247
0.15515284
0.15338241
0.15163236
0.14990467
0.14820329
0.22956089
0.22863213
0.22765262
0.22662266
0.22554259
0.22441278
0.22323361
0.22200555
0.22072916
0.21940515
0.21803438
0.21661785
0.21515676
0.21365247
0.21210657
0.2105208
0.20889708
0.20723751
0.20554431
0.20381986
0.2020666
0.20028708
0.19848387
0.19665961
0.19481689
0.19295833
0.19108649
0.18920386
0.18731286
0.18541581
0.18351495
0.18161237
0.17971009
0.17780999
0.17591383
0.17402329
0.17213993
0.17026523
0.16840058
0.16654732
0.16470673
0.16288004
0.16106845
0.15927316
0.15749533
0.15573616
0.15399698
0.15227939
0.1505852
0.22958406
0.2287049