/*--------------------------------*- C++ -*----------------------------------*\
| =========                 |                                                 |
| \\      /  F ield         | OpenFOAM: The Open Source CFD Toolbox           |
|  \\    /   O peration     | Version:  2312                                  |
|   \\  /    A nd           | Website:  www.openfoam.com                      |
|    \\/     M anipulation  |                                                 |
\*---------------------------------------------------------------------------*/
FoamFile
{
    version     2.0;
    format      ascii;
    arch        "LSB;label=32;scalar=64";
    class       volScalarField;
    location    "0.03";
    object      p;
}
// * * * * * * * * * * * * * * * * * * * * * * * * * * * * * * * * * * * * * //

dimensions      [1 -1 -2 0 0 0 0];

internalField   nonuniform List<scalar> 
3275
(
99919.671
99918.355
99926.544
99929.4
99930.951
99931.33
99930.789
99930.167
99929.549
99928.812
99929.104
99929.353
99928.682
99928.82
99929.289
99929.888
99930.666
99931.597
99932.659
99933.83
99935.093
99936.437
99937.85
99939.323
99940.846
99942.413
99944.017
99945.651
99947.309
99948.987
99950.68
99952.383
99954.094
99955.807
99957.517
99959.244
99960.937
99962.601
99964.266
99965.912
99967.537
99969.142
99970.717
99972.251
99973.765
99975.25
99976.701
99978.116
99979.491
99980.826
99982.122
99983.379
99919.137
99915.036
99924.54
99927.592
99929.767
99930.624
99930.325
99929.886
99929.394
99928.749
99929.082
99929.368
99928.751
99928.904
99929.388
99929.998
99930.783
99931.718
99932.783
99933.954
99935.216
99936.558
99937.968
99939.437
99940.956
99942.519
99944.117
99945.745
99947.398
99949.07
99950.757
99952.454
99954.159
99955.865
99957.569
99959.289
99960.976
99962.633
99964.293
99965.932
99967.55
99969.152
99970.72
99972.249
99973.758
99975.237
99976.683
99978.092
99979.463
99980.794
99982.086
99983.339
99925.897
99909.35
99920.165
99923.857
99927.424
99929.202
99929.336
99929.226
99928.981
99928.511
99928.922
99929.276
99928.764
99928.946
99929.459
99930.09
99930.89
99931.836
99932.907
99934.082
99935.346
99936.687
99938.095
99939.561
99941.077
99942.635
99944.228
99945.851
99947.498
99949.164
99950.844
99952.535
99954.233
99955.932
99957.631
99959.343
99961.021
99962.672
99964.326
99965.958
99967.57
99969.166
99970.728
99972.251
99973.754
99975.227
99976.667
99978.071
99979.437
99980.764
99982.052
99983.3
99937.508
99898.878
99912.743
99918.357
99924.179
99927.146
99927.918
99928.248
99928.341
99928.12
99928.635
99929.085
99928.727
99928.948
99929.503
99930.167
99930.989
99931.951
99933.033
99934.214
99935.481
99936.824
99938.232
99939.696
99941.209
99942.762
99944.351
99945.968
99947.609
99949.268
99950.942
99952.626
99954.317
99956.008
99957.702
99959.405
99961.074
99962.719
99964.365
99965.99
99967.595
99969.185
99970.74
99972.257
99973.754
99975.22
99976.654
99978.052
99979.413
99980.735
99982.018
99983.262
99864.146
99868.405
99901.538
99912.083
99920.299
99924.523
99926.276
99927.082
99927.538
99927.61
99928.243
99928.811
99928.653
99928.922
99929.528
99930.234
99931.086
99932.069
99933.165
99934.355
99935.628
99936.973
99938.382
99939.844
99941.354
99942.904
99944.487
99946.099
99947.733
99949.386
99951.052
99952.729
99954.412
99956.093
99957.785
99959.477
99961.134
99962.773
99964.412
99966.029
99967.627
99969.21
99970.756
99972.267
99973.757
99975.217
99976.643
99978.035
99979.39
99980.707
99981.985
99983.223
99660.244
99817.164
99890.029
99906.194
99916.514
99921.732
99924.417
99925.891
99926.713
99927.055
99927.799
99928.49
99928.563
99928.893
99929.55
99930.303
99931.188
99932.195
99933.308
99934.509
99935.789
99937.138
99938.547
99940.008
99941.515
99943.061
99944.639
99946.244
99947.872
99949.517
99951.176
99952.844
99954.519
99956.191
99957.878
99959.557
99961.203
99962.837
99964.467
99966.074
99967.666
99969.24
99970.778
99972.281
99973.764
99975.216
99976.636
99978.02
99979.369
99980.68
99981.952
99983.185
99754.471
99813.063
99883.073
99901.253
99912.943
99919.155
99922.601
99924.672
99925.911
99926.506
99927.334
99928.144
99928.466
99928.88
99929.574
99930.379
99931.301
99932.333
99933.464
99934.677
99935.964
99937.316
99938.726
99940.186
99941.69
99943.231
99944.804
99946.403
99948.023
99949.661
99951.311
99952.971
99954.636
99956.3
99957.979
99959.645
99961.281
99962.908
99964.529
99966.126
99967.711
99969.275
99970.803
99972.299
99973.775
99975.218
99976.63
99978.008
99979.35
99980.654
99981.92
99983.147
99830.434
99826.543
99880.456
99897.698
99909.907
99916.807
99920.849
99923.406
99925.017
99925.931
99926.855
99927.773
99928.321
99928.868
99929.592
99930.453
99931.415
99932.477
99933.628
99934.854
99936.15
99937.507
99938.918
99940.377
99941.878
99943.415
99944.982
99946.574
99948.186
99949.816
99951.458
99953.108
99954.764
99956.42
99958.089
99959.741
99961.366
99962.986
99964.597
99966.185
99967.761
99969.314
99970.832
99972.321
99973.788
99975.223
99976.627
99977.996
99979.331
99980.629
99981.888
99983.108
99850.855
99838.701
99880.215
99895.526
99907.513
99914.718
99919.203
99922.133
99924.067
99925.315
99926.392
99927.379
99928.13
99928.839
99929.608
99930.519
99931.526
99932.62
99933.794
99935.035
99936.34
99937.703
99939.116
99940.575
99942.074
99943.607
99945.168
99946.753
99948.358
99949.978
99951.611
99953.252
99954.898
99956.547
99958.205
99959.841
99961.458
99963.07
99964.669
99966.248
99967.816
99969.356
99970.864
99972.346
99973.803
99975.23
99976.625
99977.987
99979.314
99980.605
99981.857
99983.07
99855.567
99848.107
99880.935
99894.384
99905.701
99912.924
99917.695
99920.917
99923.125
99924.66
99925.928
99927.007
99927.918
99928.772
99929.627
99930.583
99931.635
99932.763
99933.962
99935.221
99936.537
99937.906
99939.321
99940.78
99942.278
99943.807
99945.362
99946.94
99948.537
99950.149
99951.773
99953.403
99955.039
99956.682
99958.325
99959.947
99961.556
99963.159
99964.747
99966.317
99967.874
99969.402
99970.901
99972.374
99973.822
99975.24
99976.626
99977.98
99979.299
99980.582
99981.827
99983.033
99860.549
99856.481
99882.257
99894.022
99904.433
99911.469
99916.365
99919.8
99922.24
99924.005
99925.451
99926.671
99927.7
99928.676
99929.642
99930.657
99931.746
99932.909
99934.136
99935.412
99936.739
99938.116
99939.534
99940.994
99942.491
99944.016
99945.565
99947.136
99948.725
99950.328
99951.942
99953.562
99955.19
99956.824
99958.45
99960.06
99961.661
99963.253
99964.83
99966.392
99967.937
99969.452
99970.941
99972.406
99973.844
99975.252
99976.629
99977.974
99979.285
99980.56
99981.797
99982.996
99866.498
99864.181
99884.076
99894.284
99903.672
99910.371
99915.256
99918.812
99921.431
99923.392
99924.987
99926.343
99927.504
99928.578
99929.642
99930.736
99931.867
99933.06
99934.315
99935.609
99936.949
99938.333
99939.755
99941.215
99942.712
99944.233
99945.777
99947.34
99948.921
99950.516
99952.12
99953.73
99955.351
99956.972
99958.581
99960.18
99961.773
99963.354
99964.919
99966.472
99968.003
99969.506
99970.986
99972.441
99973.869
99975.267
99976.635
99977.971
99979.273
99980.54
99981.769
99982.961
99872.258
99871.054
99886.249
99895.032
99903.364
99909.624
99914.389
99917.985
99920.721
99922.836
99924.566
99926.035
99927.319
99928.502
99929.644
99930.811
99931.997
99933.221
99934.502
99935.813
99937.167
99938.56
99939.984
99941.445
99942.943
99944.461
99945.998
99947.554
99949.127
99950.712
99952.306
99953.907
99955.518
99957.123
99958.719
99960.309
99961.891
99963.46
99965.015
99966.556
99968.074
99969.565
99971.035
99972.48
99973.897
99975.286
99976.644
99977.971
99979.264
99980.522
99981.743
99982.926
99877.565
99877.085
99888.632
99896.139
99903.446
99909.207
99913.771
99917.336
99920.132
99922.355
99924.197
99925.772
99927.156
99928.438
99929.668
99930.895
99932.123
99933.394
99934.703
99936.029
99937.393
99938.795
99940.222
99941.684
99943.184
99944.698
99946.229
99947.776
99949.341
99950.917
99952.502
99954.095
99955.691
99957.281
99958.866
99960.446
99962.016
99963.572
99965.118
99966.645
99968.149
99969.63
99971.089
99972.523
99973.93
99975.308
99976.656
99977.973
99979.257
99980.506
99981.719
99982.894
99882.453
99882.376
99891.123
99897.501
99903.853
99909.092
99913.397
99916.872
99919.678
99921.968
99923.895
99925.56
99927.035
99928.397
99929.706
99930.994
99932.269
99933.575
99934.91
99936.258
99937.63
99939.042
99940.469
99941.93
99943.435
99944.945
99946.469
99948.008
99949.565
99951.131
99952.708
99954.288
99955.869
99957.448
99959.022
99960.59
99962.147
99963.693
99965.226
99966.739
99968.23
99969.7
99971.148
99972.571
99973.966
99975.334
99976.672
99977.978
99979.253
99980.492
99981.696
99982.863
99886.942
99887.044
99893.652
99899.04
99904.525
99909.244
99913.255
99916.596
99919.37
99921.689
99923.672
99925.406
99926.958
99928.394
99929.767
99931.106
99932.435
99933.776
99935.129
99936.491
99937.882
99939.302
99940.726
99942.186
99943.699
99945.203
99946.72
99948.25
99949.8
99951.357
99952.921
99954.487
99956.057
99957.624
99959.186
99960.741
99962.286
99963.821
99965.339
99966.838
99968.318
99969.776
99971.212
99972.623
99974.007
99975.363
99976.691
99977.987
99979.251
99980.482
99981.676
99982.834
99891.042
99891.187
99896.169
99900.695
99905.41
99909.629
99913.329
99916.503
99919.209
99921.525
99923.538
99925.322
99926.934
99928.432
99929.86
99931.247
99932.617
99933.99
99935.365
99936.742
99938.146
99939.566
99940.996
99942.453
99943.977
99945.473
99946.982
99948.504
99950.044
99951.59
99953.142
99954.697
99956.255
99957.809
99959.358
99960.901
99962.434
99963.954
99965.458
99966.944
99968.412
99969.858
99971.281
99972.68
99974.053
99975.398
99976.714
99977.999
99979.253
99980.474
99981.659
99982.808
99894.769
99894.886
99898.641
99902.425
99906.463
99910.213
99913.6
99916.586
99919.197
99921.481
99923.502
99925.315
99926.971
99928.516
99929.991
99931.421
99932.825
99934.223
99935.614
99937.013
99938.423
99939.845
99941.28
99942.728
99944.272
99945.756
99947.255
99948.769
99950.298
99951.832
99953.373
99954.917
99956.462
99958.003
99959.539
99961.07
99962.589
99964.094
99965.584
99967.058
99968.512
99969.946
99971.356
99972.743
99974.103
99975.436
99976.741
99978.016
99979.259
99980.469
99981.644
99982.784
99898.153
99898.213
99901.045
99904.197
99907.647
99910.965
99914.046
99916.835
99919.331
99921.561
99923.567
99925.391
99927.074
99928.654
99930.165
99931.629
99933.061
99934.478
99935.887
99937.299
99938.714
99940.144
99941.576
99943.004
99944.593
99946.053
99947.539
99949.045
99950.562
99952.086
99953.614
99955.146
99956.679
99958.207
99959.73
99961.246
99962.75
99964.242
99965.719
99967.179
99968.62
99970.04
99971.438
99972.811
99974.159
99975.48
99976.773
99978.037
99979.269
99980.468
99981.634
99982.764
99901.232
99901.226
99903.367
99905.987
99908.931
99911.857
99914.647
99917.235
99919.603
99921.761
99923.735
99925.554
99927.249
99928.851
99930.387
99931.874
99933.327
99934.761
99936.184
99937.605
99939.026
99940.458
99941.886
99943.29
99944.935
99946.361
99947.834
99949.332
99950.838
99952.351
99953.866
99955.387
99956.906
99958.421
99959.929
99961.431
99962.92
99964.398
99965.861
99967.307
99968.734
99970.141
99971.525
99972.886
99974.221
99975.529
99976.81
99978.062
99979.283
99980.471
99981.626
99904.043
99903.977
99905.6
99907.776
99910.29
99912.866
99915.384
99917.773
99920.006
99922.08
99924.006
99925.805
99927.499
99929.111
99930.661
99932.162
99933.629
99935.074
99936.506
99937.934
99939.36
99940.793
99942.225
99943.654
99945.226
99946.673
99948.144
99949.632
99951.127
99952.628
99954.131
99955.638
99957.143
99958.644
99960.138
99961.625
99963.1
99964.564
99966.012
99967.444
99968.857
99970.249
99971.62
99972.967
99974.289
99975.585
99976.853
99978.093
99979.302
99980.479
99981.623
99906.623
99906.509
99907.743
99909.552
99911.703
99913.969
99916.237
99918.436
99920.531
99922.512
99924.38
99926.146
99927.826
99929.435
99930.987
99932.494
99933.968
99935.419
99936.856
99938.288
99939.717
99941.15
99942.585
99944.026
99945.541
99946.999
99948.466
99949.945
99951.429
99952.918
99954.409
99955.901
99957.392
99958.878
99960.358
99961.829
99963.29
99964.738
99966.172
99967.589
99968.987
99970.365
99971.722
99973.055
99974.363
99975.646
99976.902
99978.129
99979.326
99980.492
99981.625
99909.006
99908.857
99909.8
99911.307
99913.151
99915.148
99917.189
99919.209
99921.168
99923.05
99924.851
99926.575
99928.229
99929.824
99931.368
99932.873
99934.347
99935.8
99937.237
99938.669
99940.099
99941.529
99942.962
99944.405
99945.888
99947.344
99948.805
99950.272
99951.745
99953.221
99954.699
99956.177
99957.653
99959.124
99960.589
99962.045
99963.49
99964.923
99966.341
99967.743
99969.126
99970.489
99971.831
99973.15
99974.445
99975.714
99976.956
99978.171
99979.355
99980.509
99981.631
99911.224
99911.053
99911.776
99913.035
99914.622
99916.384
99918.224
99920.076
99921.904
99923.687
99925.415
99927.087
99928.705
99930.276
99931.805
99933.3
99934.768
99936.217
99937.652
99939.081
99940.506
99941.931
99943.36
99944.799
99946.259
99947.708
99949.16
99950.616
99952.076
99953.539
99955.003
99956.466
99957.927
99959.383
99960.831
99962.272
99963.701
99965.118
99966.52
99967.906
99969.274
99970.622
99971.949
99973.254
99974.534
99975.789
99977.018
99978.219
99979.391
99980.533
99913.305
99913.121
99913.68
99914.735
99916.106
99917.665
99919.324
99921.025
99922.728
99924.411
99926.062
99927.676
99929.252
99930.791
99932.298
99933.777
99935.233
99936.673
99938.101
99939.523
99940.942
99942.36
99943.781
99945.211
99946.654
99948.092
99949.533
99950.977
99952.424
99953.873
99955.322
99956.77
99958.215
99959.654
99961.087
99962.511
99963.924
99965.324
99966.711
99968.08
99969.432
99970.765
99972.077
99973.366
99974.632
99975.873
99977.088
99978.275
99979.434
99980.563
99915.273
99915.085
99915.519
99916.408
99917.596
99918.979
99920.479
99922.04
99923.625
99925.212
99926.785
99928.338
99929.865
99931.368
99932.846
99934.304
99935.743
99937.169
99938.586
99939.998
99941.407
99942.816
99944.227
99945.645
99947.072
99948.498
99949.927
99951.357
99952.789
99954.223
99955.657
99957.089
99958.517
99959.94
99961.356
99962.763
99964.159
99965.543
99966.912
99968.265
99969.601
99970.918
99972.214
99973.487
99974.738
99975.964
99977.165
99978.339
99979.484
99980.6
99917.148
99916.963
99917.302
99918.055
99919.09
99920.321
99921.678
99923.112
99924.588
99926.081
99927.577
99929.066
99930.543
99932.004
99933.45
99934.881
99936.299
99937.707
99939.109
99940.507
99941.904
99943.301
99944.7
99946.105
99947.515
99948.927
99950.341
99951.756
99953.174
99954.592
99956.009
99957.424
99958.835
99960.241
99961.64
99963.029
99964.408
99965.774
99967.126
99968.462
99969.781
99971.081
99972.361
99973.619
99974.854
99976.065
99977.251
99978.41
99979.542
99980.644
99918.949
99918.77
99919.038
99919.68
99920.586
99921.684
99922.915
99924.234
99925.608
99927.012
99928.433
99929.858
99931.281
99932.698
99934.107
99935.508
99936.901
99938.289
99939.672
99941.053
99942.434
99943.816
99945.201
99946.591
99947.984
99949.379
99950.778
99952.177
99953.578
99954.98
99956.38
99957.777
99959.171
99960.558
99961.938
99963.31
99964.67
99966.019
99967.353
99968.672
99969.973
99971.256
99972.519
99973.761
99974.98
99976.176
99977.346
99978.491
99979.608
99980.697
99920.69
99920.521
99920.735
99921.286
99922.083
99923.066
99924.185
99925.4
99926.679
99927.999
99929.346
99930.708
99932.077
99933.448
99934.818
99936.186
99937.551
99938.913
99940.275
99941.636
99942.999
99944.364
99945.732
99947.105
99948.48
99949.858
99951.24
99952.621
99954.004
99955.388
99956.77
99958.149
99959.523
99960.893
99962.254
99963.606
99964.948
99966.278
99967.594
99968.895
99970.178
99971.444
99972.69
99973.915
99975.117
99976.297
99977.452
99978.581
99979.684
99980.758
99922.386
99922.228
99922.4
99922.877
99923.582
99924.465
99925.485
99926.605
99927.796
99929.038
99930.314
99931.614
99932.928
99934.252
99935.581
99936.913
99938.247
99939.582
99940.92
99942.259
99943.601
99944.946
99946.295
99947.648
99949.005
99950.364
99951.727
99953.09
99954.453
99955.818
99957.182
99958.54
99959.895
99961.245
99962.586
99963.92
99965.242
99966.553
99967.85
99969.132
99970.397
99971.645
99972.873
99974.081
99975.266
99976.429
99977.568
99978.682
99979.769
99980.829
99924.047
99923.901
99924.042
99924.458
99925.085
99925.882
99926.813
99927.846
99928.957
99930.124
99931.333
99932.572
99933.833
99935.109
99936.395
99937.69
99938.991
99940.297
99941.607
99942.921
99944.24
99945.563
99946.891
99948.223
99949.56
99950.899
99952.241
99953.584
99954.928
99956.273
99957.614
99958.952
99960.289
99961.617
99962.938
99964.251
99965.553
99966.844
99968.122
99969.384
99970.631
99971.86
99973.07
99974.26
99975.428
99976.574
99977.696
99978.794
99979.865
99980.911
99925.684
99925.55
99925.667
99926.033
99926.593
99927.314
99928.167
99929.122
99930.158
99931.256
99932.401
99933.581
99934.789
99936.017
99937.26
99938.516
99939.782
99941.056
99942.337
99943.625
99944.918
99946.218
99947.522
99948.832
99950.146
99951.463
99952.784
99954.106
99955.428
99956.751
99958.072
99959.388
99960.702
99962.01
99963.309
99964.601
99965.883
99967.153
99968.41
99969.653
99970.881
99972.091
99973.282
99974.453
99975.603
99976.732
99977.837
99978.918
99979.973
99981.003
99927.304
99927.183
99927.282
99927.606
99928.11
99928.765
99929.547
99930.432
99931.399
99932.432
99933.515
99934.639
99935.794
99936.975
99938.175
99939.391
99940.621
99941.861
99943.112
99944.37
99945.637
99946.91
99948.19
99949.475
99950.765
99952.059
99953.356
99954.656
99955.956
99957.256
99958.554
99959.849
99961.139
99962.424
99963.702
99964.973
99966.232
99967.48
99968.717
99969.939
99971.148
99972.338
99973.51
99974.662
99975.794
99976.903
99977.991
99979.054
99980.093
99981.107
99928.916
99928.807
99928.892
99929.182
99929.637
99930.235
99930.954
99931.775
99932.679
99933.65
99934.675
99935.744
99936.849
99937.982
99939.139
99940.315
99941.507
99942.713
99943.931
99945.159
99946.397
99947.642
99948.895
99950.154
99951.419
99952.688
99953.961
99955.236
99956.512
99957.788
99959.063
99960.334
99961.601
99962.864
99964.118
99965.364
99966.602
99967.829
99969.042
99970.244
99971.433
99972.603
99973.755
99974.887
99975.999
99977.09
99978.159
99979.205
99980.227
99981.224
99930.527
99930.429
99930.504
99930.765
99931.179
99931.726
99932.389
99933.151
99933.996
99934.91
99935.88
99936.897
99937.952
99939.039
99940.152
99941.287
99942.442
99943.612
99944.796
99945.992
99947.199
99948.415
99949.64
99950.872
99952.109
99953.352
99954.599
99955.848
99957.099
99958.35
99959.599
99960.846
99962.089
99963.328
99964.559
99965.78
99966.993
99968.197
99969.388
99970.568
99971.737
99972.887
99974.018
99975.13
99976.222
99977.293
99978.343
99979.371
99980.375
99981.355
99932.142
99932.055
99932.122
99932.359
99932.737
99933.24
99933.853
99934.562
99935.352
99936.212
99937.13
99938.096
99939.103
99940.144
99941.214
99942.309
99943.424
99944.558
99945.707
99946.87
99948.045
99949.23
99950.425
99951.628
99952.837
99954.052
99955.272
99956.494
99957.718
99958.942
99960.166
99961.387
99962.605
99963.818
99965.024
99966.221
99967.408
99968.586
99969.754
99970.912
99972.064
99973.193
99974.301
99975.391
99976.462
99977.513
99978.544
99979.552
99980.538
99981.501
99933.767
99933.691
99933.753
99933.969
99934.316
99934.779
99935.347
99936.007
99936.747
99937.556
99938.424
99939.342
99940.302
99941.299
99942.326
99943.379
99944.456
99945.552
99946.665
99947.794
99948.935
99950.089
99951.252
99952.425
99953.604
99954.79
99955.981
99957.175
99958.371
99959.568
99960.764
99961.959
99963.149
99964.336
99965.515
99966.688
99967.85
99969.001
99970.14
99971.273
99972.418
99973.523
99974.606
99975.672
99976.722
99977.752
99978.761
99979.75
99980.717
99981.662
99935.408
99935.342
99935.399
99935.598
99935.918
99936.346
99936.873
99937.489
99938.183
99938.944
99939.765
99940.636
99941.55
99942.503
99943.487
99944.5
99945.537
99946.595
99947.672
99948.765
99949.872
99950.992
99952.123
99953.264
99954.412
99955.568
99956.728
99957.893
99959.059
99960.228
99961.396
99962.562
99963.725
99964.884
99966.036
99967.181
99968.317
99969.441
99970.547
99971.643
99972.809
99973.881
99974.934
99975.975
99977
99978.009
99978.998
99979.967
99980.914
99981.84
99937.07
99937.012
99937.067
99937.252
99937.547
99937.944
99938.435
99939.01
99939.66
99940.376
99941.151
99941.978
99942.848
99943.757
99944.699
99945.671
99946.668
99947.688
99948.727
99949.784
99950.856
99951.942
99953.039
99954.147
99955.263
99956.386
99957.515
99958.649
99959.785
99960.923
99962.062
99963.199
99964.333
99965.463
99966.588
99967.705
99968.812
99969.908
99970.976
99972.011
99973.256
99974.265
99975.283
99976.3
99977.301
99978.286
99979.254
99980.202
99981.129
99982.036
99938.757
99938.708
99938.761
99938.933
99939.207
99939.576
99940.033
99940.57
99941.18
99941.854
99942.586
99943.369
99944.196
99945.062
99945.963
99946.894
99947.851
99948.832
99949.833
99950.853
99951.889
99952.939
99954.001
99955.075
99956.157
99957.247
99958.344
99959.445
99960.55
99961.657
99962.764
99963.871
99964.975
99966.076
99967.172
99968.26
99969.341
99970.411
99971.467
99972.513
99973.622
99974.643
99975.647
99976.644
99977.624
99978.586
99979.531
99980.457
99981.364
99982.25
99940.474
99940.433
99940.485
99940.645
99940.901
99941.245
99941.671
99942.174
99942.746
99943.38
99944.07
99944.811
99945.596
99946.421
99947.28
99948.17
99949.087
99950.028
99950.991
99951.973
99952.972
99953.985
99955.012
99956.049
99957.097
99958.153
99959.216
99960.284
99961.356
99962.43
99963.505
99964.58
99965.654
99966.724
99967.79
99968.849
99969.902
99970.946
99971.981
99973.011
99974.049
99975.053
99976.038
99977.01
99977.969
99978.909
99979.83
99980.734
99981.619
99982.485
99942.225
99942.191
99942.242
99942.394
99942.633
99942.954
99943.352
99943.822
99944.358
99944.955
99945.606
99946.306
99947.049
99947.833
99948.651
99949.5
99950.377
99951.278
99952.202
99953.145
99954.105
99955.081
99956.071
99957.072
99958.084
99959.104
99960.132
99961.165
99962.203
99963.244
99964.286
99965.329
99966.37
99967.408
99968.443
99969.473
99970.496
99971.512
99972.52
99973.522
99974.519
99975.498
99976.458
99977.405
99978.338
99979.256
99980.155
99981.034
99981.897
99982.741
99944.014
99943.987
99944.039
99944.182
99944.406
99944.706
99945.078
99945.518
99946.021
99946.581
99947.193
99947.854
99948.557
99949.3
99950.077
99950.885
99951.722
99952.583
99953.467
99954.37
99955.292
99956.229
99957.181
99958.145
99959.119
99960.103
99961.094
99962.092
99963.095
99964.1
99965.108
99966.117
99967.125
99968.131
99969.133
99970.131
99971.124
99972.11
99973.089
99974.06
99975.024
99975.974
99976.909
99977.829
99978.735
99979.627
99980.503
99981.36
99982.199
99983.02
99945.847
99945.826
99945.878
99946.013
99946.224
99946.505
99946.853
99947.264
99947.735
99948.26
99948.836
99949.458
99950.122
99950.824
99951.56
99952.328
99953.123
99953.944
99954.787
99955.651
99956.532
99957.431
99958.343
99959.268
99960.205
99961.151
99962.105
99963.065
99964.031
99965.001
99965.973
99966.947
99967.92
99968.892
99969.862
99970.827
99971.788
99972.742
99973.69
99974.63
99975.562
99976.482
99977.39
99978.283
99979.161
99980.026
99980.876
99981.71
99982.526
99983.324
99947.726
99947.712
99947.764
99947.893
99948.091
99948.354
99948.68
99949.064
99949.504
99949.996
99950.535
99951.119
99951.744
99952.406
99953.102
99953.829
99954.583
99955.362
99956.165
99956.987
99957.828
99958.686
99959.559
99960.444
99961.341
99962.248
99963.164
99964.087
99965.015
99965.947
99966.883
99967.82
99968.758
99969.695
99970.63
99971.562
99972.489
99973.411
99974.326
99975.235
99976.134
99977.024
99977.902
99978.768
99979.62
99980.455
99981.278
99982.087
99982.88
99983.654
99949.658
99949.65
99949.703
99949.826
99950.012
99950.258
99950.562
99950.92
99951.33
99951.789
99952.294
99952.841
99953.427
99954.049
99954.704
99955.389
99956.102
99956.84
99957.601
99958.382
99959.181
99959.998
99960.829
99961.674
99962.531
99963.398
99964.274
99965.158
99966.047
99966.941
99967.839
99968.739
99969.64
99970.541
99971.44
99972.336
99973.229
99974.117
99974.999
99975.875
99976.742
99977.6
99978.448
99979.284
99980.108
99980.916
99981.711
99982.492
99983.26
99984.011
99951.647
99951.645
99951.698
99951.816
99951.991
99952.22
99952.503
99952.836
99953.217
99953.644
99954.114
99954.624
99955.172
99955.754
99956.368
99957.012
99957.683
99958.378
99959.096
99959.835
99960.593
99961.367
99962.157
99962.96
99963.775
99964.601
99965.437
99966.28
99967.129
99967.984
99968.843
99969.704
99970.567
99971.43
99972.293
99973.153
99974.01
99974.863
99975.711
99976.552
99977.386
99978.212
99979.028
99979.834
99980.628
99981.409
99982.175
99982.929
99983.669
99984.395
99953.698
99953.701
99953.755
99953.867
99954.031
99954.244
99954.506
99954.814
99955.167
99955.563
99955.998
99956.471
99956.98
99957.522
99958.095
99958.697
99959.325
99959.978
99960.653
99961.349
99962.063
99962.794
99963.541
99964.302
99965.075
99965.859
99966.653
99967.454
99968.263
99969.077
99969.896
99970.718
99971.541
99972.366
99973.19
99974.013
99974.834
99975.65
99976.463
99977.269
99978.069
99978.861
99979.645
99980.419
99981.182
99981.934
99982.673
99983.396
99984.108
99984.807
99955.815
99955.823
99955.878
99955.984
99956.137
99956.334
99956.575
99956.859
99957.183
99957.546
99957.947
99958.383
99958.853
99959.355
99959.886
99960.445
99961.03
99961.64
99962.271
99962.923
99963.593
99964.281
99964.984
99965.702
99966.432
99967.173
99967.923
99968.683
99969.449
99970.222
99970.999
99971.78
99972.564
99973.349
99974.134
99974.918
99975.7
99976.48
99977.255
99978.026
99978.791
99979.548
99980.299
99981.04
99981.772
99982.494
99983.203
99983.897
99984.579
99958.004
99958.017
99958.072
99958.172
99958.313
99958.494
99958.714
99958.971
99959.266
99959.597
99959.962
99960.361
99960.791
99961.252
99961.741
99962.257
99962.798
99963.363
99963.95
99964.558
99965.184
99965.827
99966.486
99967.159
99967.845
99968.542
99969.25
99969.966
99970.689
99971.419
99972.154
99972.893
99973.635
99974.379
99975.124
99975.869
99976.612
99977.353
99978.091
99978.825
99979.553
99980.275
99980.991
99981.699
99982.398
99983.087
99983.766
99984.43
99985.083
99960.27
99960.286
99960.341
99960.434
99960.562
99960.726
99960.923
99961.154
99961.419
99961.716
99962.045
99962.404
99962.794
99963.212
99963.658
99964.13
99964.627
99965.148
99965.69
99966.253
99966.834
99967.432
99968.047
99968.675
99969.316
99969.969
99970.632
99971.304
99971.984
99972.67
99973.362
99974.058
99974.758
99975.46
99976.163
99976.867
99977.57
99978.272
99978.97
99979.666
99980.357
99981.043
99981.722
99982.395
99983.06
99983.717
99984.363
99984.996
99985.624
99962.617
99962.636
99962.69
99962.775
99962.889
99963.033
99963.206
99963.409
99963.641
99963.903
99964.193
99964.512
99964.86
99965.235
99965.636
99966.064
99966.516
99966.991
99967.488
99968.006
99968.542
99969.096
99969.665
99970.249
99970.845
99971.453
99972.071
99972.698
99973.334
99973.976
99974.623
99975.276
99975.932
99976.591
99977.252
99977.914
99978.575
99979.236
99979.895
99980.551
99981.203
99981.851
99982.494
99983.131
99983.761
99984.383
99984.996
99985.598
99986.191
99965.052
99965.073
99965.123
99965.198
99965.296
99965.418
99965.564
99965.736
99965.933
99966.156
99966.405
99966.682
99966.985
99967.315
99967.671
99968.053
99968.459
99968.89
99969.342
99969.815
99970.307
99970.816
99971.341
99971.88
99972.432
99972.995
99973.568
99974.15
99974.74
99975.337
99975.94
99976.547
99977.159
99977.774
99978.391
99979.01
99979.629
99980.248
99980.866
99981.481
99982.094
99982.703
99983.308
99983.907
99984.501
99985.087
99985.665
99986.235
99986.795
99967.581
99967.602
99967.647
99967.708
99967.786
99967.883
99967.998
99968.134
99968.292
99968.473
99968.677
99968.907
99969.163
99969.446
99969.755
99970.091
99970.452
99970.838
99971.246
99971.676
99972.125
99972.591
99973.072
99973.568
99974.075
99974.594
99975.122
99975.659
99976.204
99976.756
99977.313
99977.875
99978.442
99979.012
99979.584
99980.159
99980.734
99981.31
99981.885
99982.459
99983.031
99983.6
99984.165
99984.726
99985.281
99985.83
99986.373
99986.907
99987.434
99970.212
99970.23
99970.265
99970.309
99970.362
99970.428
99970.507
99970.602
99970.715
99970.848
99971.003
99971.182
99971.387
99971.619
99971.88
99972.169
99972.486
99972.829
99973.196
99973.584
99973.992
99974.418
99974.858
99975.312
99975.777
99976.252
99976.737
99977.229
99977.729
99978.234
99978.746
99979.262
99979.782
99980.306
99980.833
99981.363
99981.893
99982.425
99982.956
99983.487
99984.016
99984.544
99985.068
99985.589
99986.105
99986.616
99987.121
99987.619
99988.11
99972.954
99972.964
99972.983
99973.004
99973.026
99973.054
99973.089
99973.136
99973.196
99973.273
99973.371
99973.492
99973.641
99973.82
99974.031
99974.274
99974.548
99974.851
99975.18
99975.533
99975.905
99976.294
99976.697
99977.112
99977.538
99977.972
99978.414
99978.862
99979.317
99979.777
99980.242
99980.712
99981.186
99981.663
99982.143
99982.626
99983.111
99983.597
99984.083
99984.569
99985.055
99985.539
99986.021
99986.5
99986.976
99987.447
99987.913
99988.373
99988.827
99975.818
99975.813
99975.809
99975.797
99975.779
99975.76
99975.742
99975.729
99975.726
99975.736
99975.766
99975.821
99975.906
99976.028
99976.187
99976.386
99976.621
99976.891
99977.19
99977.514
99977.858
99978.217
99978.589
99978.971
99979.36
99979.756
99980.158
99980.564
99980.975
99981.39
99981.809
99982.232
99982.659
99983.088
99983.521
99983.956
99984.394
99984.833
99985.273
99985.713
99986.153
99986.593
99987.031
99987.467
99987.9
99988.33
99988.755
99989.176
99989.591
99978.818
99978.789
99978.748
99978.692
99978.623
99978.545
99978.461
99978.376
99978.294
99978.222
99978.169
99978.143
99978.155
99978.212
99978.319
99978.478
99978.684
99978.932
99979.213
99979.52
99979.847
99980.187
99980.536
99980.891
99981.251
99981.613
99981.977
99982.343
99982.712
99983.083
99983.456
99983.832
99984.211
99984.592
99984.977
99985.363
99985.752
99986.143
99986.535
99986.928
99987.321
99987.714
99988.107
99988.498
99988.887
99989.273
99989.656
99990.035
99990.41
99981.972
99981.903
99981.81
99981.695
99981.561
99981.409
99981.244
99981.068