/*--------------------------------*- C++ -*----------------------------------*\
| =========                 |                                                 |
| \\      /  F ield         | OpenFOAM: The Open Source CFD Toolbox           |
|  \\    /   O peration     | Version:  2312                                  |
|   \\  /    A nd           | Website:  www.openfoam.com                      |
|    \\/     M anipulation  |                                                 |
\*---------------------------------------------------------------------------*/
FoamFile
{
    version     2.0;
    format      ascii;
    arch        "LSB;label=32;scalar=64";
    class       volScalarField;
    location    "0.03";
    object      Qdot;
}
// * * * * * * * * * * * * * * * * * * * * * * * * * * * * * * * * * * * * * //

dimensions      [1 -1 -3 0 0 0 0];

internalField   nonuniform List<scalar> 
3275
(
74716421
5.0849202e+08
8.1275611e+08
8.8178254e+08
8.4812461e+08
7.8670161e+08
7.2269385e+08
6.5926595e+08
5.9568718e+08
5.3016457e+08
4.62505e+08
4.066849e+08
3.5207762e+08
3.0114119e+08
2.5683647e+08
2.1901027e+08
1.8708164e+08
1.6028818e+08
1.3785983e+08
1.1909345e+08
1.0337757e+08
90190858
79095019
69729192
61796711
55054441
49303305
44380210
40151358
36506737
33355676
30623279
28247542
26177131
24369839
22789979
21477496
20264602
19187914
18243340
17414737
16687781
16084074
15534243
15049298
14630108
14270595
13965339
13709690
13499671
13331882
13203437
1.9412578e+08
8.1929022e+08
1.0595668e+09
1.0385136e+09
9.4383161e+08
8.4566387e+08
7.5862506e+08
6.8023569e+08
6.072326e+08
5.3584831e+08
4.6473807e+08
4.0718407e+08
3.5168367e+08
3.0031131e+08
2.5587535e+08
2.180686e+08
1.8622507e+08
1.5953836e+08
1.372172e+08
1.1854909e+08
1.0291921e+08
89805829
78771616
69457139
61567268
54860309
49138444
44239656
40031034
36403301
33266373
30545827
28180028
26117901
24317685
22746395
21437955
20228135
19155490
18214378
17388848
16664813
16063154
15514699
15031513
14613939
14255818
13951786
13697228
13488188
13321268
13193552
7.691669e+08
1.6654453e+09
1.6258942e+09
1.3659745e+09
1.1334875e+09
9.6025305e+08
8.2651457e+08
7.1938635e+08
6.2840442e+08
5.4599936e+08
4.6849544e+08
4.0770229e+08
3.5064355e+08
2.9851313e+08
2.5388048e+08
2.1614861e+08
1.8449452e+08
1.580314e+08
1.3592979e+08
1.1746075e+08
1.02004e+08
89037702
78126789
68914898
61110070
54473540
48810043
43959711
39791422
36197357
33088611
30391706
28045746
26000127
24213660
22660423
21359352
20155843
19091296
18157100
17337711
16619688
16022088
15476522
14996888
14582464
14227105
13925511
13673120
13466015
13300817
13174620
3.1130463e+09
3.4642947e+09
2.5819316e+09
1.8511989e+09
1.3956426e+09
1.1182207e+09
9.1728528e+08
7.7049604e+08
6.5516629e+08
5.581798e+08
4.7241148e+08
4.0731687e+08
3.4847822e+08
2.95489e+08
2.5071891e+08
2.1318435e+08
1.8185954e+08
1.5575527e+08
1.3399487e+08
1.1583017e+08
1.0063559e+08
87890704
77164714
68106292
60428480
53897033
48320562
43542451
39434262
35890368
32823617
30161955
27845596
25824566
24057367
22533888
21241619
20048117
18995680
18071777
17261478
16552768
15960978
15419870
14945557
14535809
14184564
13886607
13637450
13433227
13270601
13146702
1.195146e+10
6.436233e+09
3.689368e+09
2.3925775e+09
1.6947993e+09
1.2760712e+09
1.0132593e+09
8.2360351e+08
6.8156471e+08
5.6896563e+08
4.7466052e+08
4.0477166e+08
3.4452908e+08
2.908987e+08
2.4621769e+08
2.0909131e+08
1.7828218e+08
1.5269603e+08
1.3141052e+08
1.1366104e+08
98819958
86371401
75891710
67037034
59527488
53135059
47673618
42990913
38962100
35484465
32473180
29858079
27580892
25592507
23847561
22370286
21084214
19905561
18869143
17958792
17160288
16464677
15879914
15344968
14877710
14474143
14128341
13835202
13590327
13389923
13230705
13109866
1.8599244e+10
7.7883439e+09
4.3058327e+09
2.758135e+09
1.9190313e+09
1.4046134e+09
1.0803784e+09
8.6238259e+08
6.9976545e+08
5.743377e+08
4.7351669e+08
3.9912049e+08
3.3842422e+08
2.8478213e+08
2.4055723e+08
2.0409701e+08
1.7399271e+08
1.4906665e+08
1.2836521e+08
1.1111614e+08
96695784
84597131
74406749
65790542
58477481
52247141
46919694
42348060
38411631
35011122
32064399
29503517
27272050
25322516
23610699
22172670
20897440
19739226
18721305
17826669
17041353
16362652
15784664
15257421
14798403
14402046
14062603
13775095
13535228
13339292
13184062
13066788
1.3047646e+09
5.0311615e+09
3.930233e+09
2.7406477e+09
1.9688008e+09
1.4611264e+09
1.1132259e+09
8.7220364e+08
7.0467352e+08
5.7170971e+08
4.68061e+08
3.8987599e+08
3.2970719e+08
2.7714866e+08
2.3381782e+08
1.9831189e+08
1.6910655e+08
1.4497557e+08
1.2495579e+08
1.082796e+08
94335042
82628945
72761400
64410313
57315164
51264315
46085099
41636263
37801945
34486692
31611341
29110405
26929549
25023557
23351564
21949394
20689021
19554585
18557081
17679822
16907984
16250882
15677879
15160102
14710180
14321820
13989436
13708187
13473888
13282920
13132124
13018777
18271742
1.5790734e+09
2.6131822e+09
2.3273669e+09
1.8208968e+09
1.4065405e+09
1.0944645e+09
8.5586461e+08
6.8923625e+08
5.5862813e+08
4.555444e+08
3.7692184e+08
3.1739016e+08
2.6726143e+08
2.2540871e+08
1.9126326e+08
1.632426e+08
1.4011305e+08
1.2092933e+08
1.0494373e+08
91566266
80324562
70836998
62796835
55956662
50115538
45109373
40803817
37088623
33872866
31080809
28649839
26528044
24673162
23050413
21683904
20444095
19337847
18364201
17507422
16753982
16116857
15551571
15045633
14606346
14227363
13903265
13629367
13401612
13216489
13070914
12962081
235379.47
2.8013404e+08
1.2351658e+09
1.6131345e+09
1.4936919e+09
1.242279e+09
1.0069016e+09
8.069888e+08
6.5106791e+08
5.3113806e+08
4.3468728e+08
3.5948488e+08
3.0111636e+08
2.5468758e+08
2.1517498e+08
1.8286113e+08
1.5634699e+08
1.3444522e+08
1.1626401e+08
1.0109373e+08
88378787
77675879
68627059
60944643
54397218
48796593
43988720
39847268
36268502
33166772
30470171
28119391
26065150
24268522
22706269
21373726
20161524
19087617
18141328
17308126
16577661
15959824
15405013
14913053
14486039
14117872
13803342
13537938
13317752
13139395
12999886
12896519
5285.4412
35849930
4.3194346e+08
9.0671486e+08
1.0621552e+09
9.988656e+08
8.6110045e+08
7.1928936e+08
5.9355299e+08
4.8831319e+08
4.0436988e+08
3.3619799e+08
2.8182563e+08
2.3899259e+08
2.0305885e+08
1.7306159e+08
1.4839551e+08
1.2795759e+08
1.1095164e+08
96724505
84769055
74680133
66129174
58851390
52634490
47305154
42720839
38764341
35339343
32366290
29777401
27517133
25538861
23806289
22320259
21015427
19840405
18802650
17887217
17080381
16378034
15778754
15237434
14761468
14348417
13992558
13688924
13433202
13221652
13051023
12918463
12821483
244.814
4077760.4
1.2025844e+08
4.1998928e+08
6.5287267e+08
7.2120622e+08
6.8304933e+08
6.0176395e+08
5.1636943e+08
4.3471538e+08
3.6443876e+08
3.0714956e+08
2.5947806e+08
2.2063478e+08
1.887661e+08
1.6188256e+08
1.3940543e+08
1.2066213e+08
1.0500239e+08
91843842
80742743
71341381
63346087
56518611
50669119
45641224
41305260
37554201
34300029
31470230
29001210
26841781
24947825
23296852
21877721
20609285
19479586
18481839
17600796
16822275
16155061
15572225
15048086
14590039
14192670
13850649
13559281
13314472
13112663
12950757
12826050
12736404
22.087145
479435.91
28829232
1.6533427e+08
3.4966506e+08
4.6701119e+08
4.9799435e+08
4.7298498e+08
4.2571195e+08
3.7168484e+08
3.1897157e+08
2.7259026e+08
2.3370648e+08
2.0055796e+08
1.7257884e+08
1.4928561e+08
1.2944685e+08
1.1260357e+08
98449574
86475493
76316870
67672022
60286818
53952526
48505332
43807603
39743718
36217746
33150766
30478529
28141191
26092844
24289578
22739732
21376058
20156699
19077936
18124253
17281340
16537591
15903323
15338752
14836298
14397984
14018028
13691406
13413707
13181072
12990142
12837988
12722031
12640760
3.4119946
63944.072
6388923.5
57388936
1.6576491e+08
2.7246887e+08
3.3351631e+08
3.4780531e+08
3.3259842e+08
3.0336639e+08
2.6941221e+08
2.3556247e+08
2.0499513e+08
1.7860241e+08
1.5542376e+08
1.354519e+08
1.1855119e+08
1.0386341e+08
91353718
80661815
71521662
63694208
56967768
51164798
46151527
41810360
38040528
34757917
31893273
29392482
27197949
25271098
23577507
22119189
20815154
19658236
18634775
17729178
16927825
16225003
15621341
15079037
14601200
14184569
13823776
13514134
13251529
13032355
12853469
12712121
12605756
12534100
0.79282663
10122.984
1388109.4
18230110
70962569
1.4453481e+08
2.0574215e+08
2.3868498e+08
2.4602843e+08
2.3650678e+08
2.1856556e+08
1.9719385e+08
1.7548846e+08
1.5527437e+08
1.372523e+08
1.2112217e+08
1.0695319e+08
94438827
83805782
74465431
66401850
59440941
53413691
48173146
43620797
39659273
36202948
33180012
30530905
28215022
26173128
24376567
22812139
21430139
20201485
19113427
18149736
17296212
16538875
15884803
15307558
14793196
14342156
13949148
13609268
13318192
13072117
12867708
12702046
12572602
12477136
12415445
0.24916929
1927.0066
309126.47
5486027.4
28030560
70547730
1.1756481e+08
1.5317658e+08
1.7191791e+08
1.7603e+08
1.7034063e+08
1.5938609e+08
1.4599315e+08
1.3200995e+08
1.1856415e+08
1.0627032e+08
94995933
84788149
75791710
67969171
61017073
54956687
49658464
45001681
40931325
37368196
34241499
31492030
29068626
26951129
25069647
23428042
21970276
20680817
19537000
18522531
17622853
16825504
16119783
15509439
14962902
14480875
14058663
13691182
13373948
13103013
12874904
12686563
12535310
12418854
12335560
12284296
0.097778073
438.52448
72749.655
1611854
10437468
32113658
62701365
92272087
1.1361514e+08
1.2484963e+08
1.275421e+08
1.2433472e+08
1.1773347e+08
1.0935022e+08
1.0030853e+08
91405522
82814234
74957796
67709396
61233876
55392901
50297271
45745629
41680745
38106600
34955323
32170183
29705111
27512635
25608502
23910600
22398473
21062293
19877110
18822895
17886361
17054564
16316853
15670684
15097523
14588959
14141719
13750363
13410261
13117366
12868120
12659392
12488415
12352746
12250282
12180572
12140179
0.045218067
117.51391
18432.15
473951.38
3737896
13824170
31488226
52440376
71184217
84440843
91599049
93625656
91982517
88066001
82843787
77000031
70961602
65076047
59588960
54442679
49740030
45502662
41690710
38245909
35175489
32443303
30006509
27834260
25896873
24189501
22665713
21305318
20097401
19021788
18061100
17206361
16445832
15777792
15181783
14652782
14185938
13775639
13417077
13106127
12839200
12613142
12425175
12272836
12153910
12066978
12011127
11982625
0.02365114
36.400226
5074.724
142151.1
1310673.2
5704943.1
15030466
28286451
42426911
54547099
63123051
67960228
69624325
68926601
66664006
63439470
59606622
55570178
51575064
47677658
44081703
40677344
37589900
34743656
32172322
29859205
27771098
25893915
24209459
22708024
21362202
20155597
19080550
18118811
17254291
16484695
15805822
15198260
14656493
14177125
13754180
13382802
13058838
12778703
12539281
12337835
12171955
12039488
11938336
11868475
11826799
11811403
0.013588155
12.791979
1522.1972
44086.824
456881.93
2285978.2
6884467.5
14575983
24154254
33732057
41780980
47557615
50995192
52412129
52264400
51017793
49024192
46556970
43891712
41153555
38486269
35889558
33506072
31222407
29135823
27234306
25487625
23902344
22467696
21175382
20009191
18956719
18017947
17173524
16405791
15732456
15124009
14581804
14099101
13671505
13294364
12963661
12675922
12428116
12217614
12042104
11899555
11788168
11706342
11653759
11627202
11626216
0.0083994517
5.0146761
496.69145
14266.074
160291.66
899686.5
3053720.3
7223758
13195410
20026198
26602711
32102566
36138328
38677197
39893855
40049372
39415547
38230487
36685457
34938177
33109825
31259524
29473987
27727792
26108642
24603831
23182147
21880637
20689916
19605255
18617851
17716834
16917051
16193057
15527568
14937819
14407622
13933725
13511525
13137330
12807547
12518993
12268880
12054726
11874401
11726021
11607935
11518702
11457629
11422495
11412301
0.0055016032
2.1607475
175.64549
4841.918
57140.63
351259.25
1323026.3
3466133.7
6950463.8
11450731
16325695
20923438
24784736
27691176
29618458
30663805
30978977
30732152
30078513
29149445
28038579
26829573
25590968
24341655
23133318
21982057
20881565
19851964
18895710
18013163
17201561
16457364
15785587
15174426
14615170
14113221
13661530
13256905
12896158
12576474
12295186
12049918
11838560
11659148
11510066
11389846
11297216
11231777
11191236
11174737
11181791
0.0037767492
1.0104628
66.997501
1728.3889
20840.623
137174.35
564210.3
1620500.9
3547069.8
6327572.6
9678027.2
13184235
16459295
19235168
21381133
22878673
23781167
24179698
24175564
23870783
23350872
22674852
21910750
21089045
20253833
19426757
18617405
17841153
17105734
16415824
15773169
15178248
14633647
14134678
13677461
13263604
12890109
12554876
12255916
11991291
11759164
11557924
11386139
11242279
11125278
11034052
10968465
10926559
10907338
10910639
10935766
0.002693319
0.50736794
27.421541
649.69296
7816.6675
53941.486
238432.76
742570.42
1762149.5
3391074.5
5555505.6
8043816.6
10592530
12967230
15006294
16628335
17817645
18603124
19038281
19182469
19104885
18853775
18484529
18020394
17509525
16969650
16419590
15873397
15341211
14830856
14347216
13893164
13471482
13081516
12722359
12394946
12098391
11831790
11594257
11384630
11201799
11044878
10913142
10805308
10720968
10660137
10621093
10603337
10606537
10630327
10674311
0.0019830308
0.27105485
11.979551
257.18291
3026.7505
21478.654
100437.41
335304.8
856008.45
1768685.3
3095939.8
4760060.6
6613411.3
8488791
10241510
11771112
13024448
13987914
14675533
15116796
15352149
15416030
15349427
15176038
14936885
14641350
14316241
13973269
13623258
13276232
12939054
12615810
12310157
12023908
11758074
11513978
11292035
11092379
10915169
10759829
10625849
10513020
10421479
10349725
10299110
10267759
10255895
10263131
10289232
10334035
0.0014994611
0.15288941
5.5573768
107.12648
1213.4197
8702.2498
42401.091
149958.41
408400.98
901004.4
1679546.4
2737717.7
4011397
5400913.1
6799708.4
8116665.4
9287327.9
10275536
11069161
11673491
12106028
12388429
12541813
12591018
12562908
12468776
12332840
12163781
11972105
11769623
11564202
11359883
11161203
10971582
10793207
10628004
10477263
10341879
10223147
10120712
10034509
9964926.3
9913495.1
9877930.9
9859807.1
9858553.9
9874203.7
9906692.3
9955989.8
10022061
0.0011597763
0.090458447
2.7243381
46.88842
504.61353
3602.2204
18029.344
66758.754
192233.44
450008.06
889708.19
1533934.6
2367826.7
3343599
4395000.8
5453530.6
6460561.6
7373491.4
8166759.4
8829691.5
9363276.9
9775585.2
10079225
10284101
10414208
10476818
10490656
10463641
10406254
10327670
10237779
10138821
10036253
9934633.2
9836656.1
9744741.2
9660753.9
9585922.9
9523149.9
9471564.9
9431411.2
9404321.1
9391075.7
9391223.2
9405534.9
9434129.5
9477224.2
9534996
9607602.7
9695168.8
0.00091458935
0.055826106
1.4048811
21.526203
217.92969
1528.5227
7756.4133
29726.359
89677.531
221239.18
461742.8
839484.14
1362890.8
2017063.1
2768209
3572553
4385549.1
5168679.8
5893008.6
6539969.9
7100400.5
7572326.6
7958901.2
8265759.2
8505224.3
8680113.4
8807518.8
8891538.1
8942242.9
8966993.8
8972990.7
8964682
8946623.7
8923175.7
8897422.8
8872134.2
8849558.1
8831554
8820227.6
8816210.7
8820322
8833855.6
8857738.1
8892344.9
8938361.8
8996244.5
9066415.9
9149250
9245073.3
9354172.4
0.00073362553
0.035768614
0.75890127
10.344563
97.791642
666.61965
3389.5512
13299.475
41648.847
107507.08
235604.66
450061.38
766710.49
1187806.9
1701233.8
2283799.2
2906592.7
3540291.3
4159096.1
4742906.2
5277949.5
5756245.2
6174597.9
6533411
6837016.4
7089547.5
7293539.8
7461506.8
7593053.7
7699021.6
7783081.8
7849915.5
7903136.7
7947018.9
7984363.9
8018119.5
8050656.4
8084037.5
8120173.1
8160307.5
8205614.7
8257359.4
8316600
8384105.9
8460659.8
8546922.7
8643488.7
8750891.6
8869601.5
9000049.1
0.00059729292
0.02369584
0.42778627
5.192158
45.594096
299.39847
1509.7384
6003.3306
19340.794
51849.496
118633.63
237111.74
422654.74
684200.98
1021725.6
1426306.3
1882322.4
2370647.9
2871759.2
3368089.5
3845406.7
4293288.6
4705002.4
5077075
5408986.2
5701549.9
5956542.1
6180018.4
6368859.3
6535694.8
6678200.8
6804660.9
6915458.4
7015314.7
7105909.4
7190424.3
7271059.4
7349859.4
7428635.7
7508832.8
7591804.1
7678848
7771111.1
7869555.5
7975067.9
8088441.1
8210395
8341583.5
8482591
8633964.5
0.00049227143
0.016172937
0.2507525
2.7157824
22.077649
138.6741
687.34349
2744.351
9017.5099
24920.843
59172.836
123172.19
228958.07
386407.31
600777.8
871488.88
1192370.2
1553049.3
1940853.8
2342663.5
2746353.9
3141698.1
3520783.9
3878081.2
4210303.5
4515804.7
4794365.9
5047708
5276766.2
5480587.4
5667501.4
5838461.1
5991708.2
6136289.4
6269759.1
6396328.9
6517537.1
6635309.8
6751299.6
6866902.2
6983532.3
7102489.8
7224952.8
7351960.1
7484457.3
7623309.5
7769314.4
7923206.2
8085650.1
8257277.6
0.00041078909
0.011336917
0.15234959
1.4769687
11.094607
66.298539
320.59574
1274.6931
4237.4206
11984.357
29348.623
63308.961
122255.67
214512.11
346598.53
521847.64
739791.43
996378.61
1284821.4
1596730.1
1923234.3
2255890.7
2587305
2911478.8
3223923.2
3521528.4
3802467.4
4066162.2
4312362
4541156.3
4756420.2
4953532.5
5140305.4
5317810
5482525.4
5642445.5
5796388.8
5946352.8
6093719
6239613
6385475.1
6532538
6681953.6
6834755.5
6991889.4
7154238.3
7322631.3
7497842.4
7680583.3
7871537.5
0.00034581931
0.0081419515
0.095668562
0.83330981
5.7803986
32.7321
153.47284
603.27735
2013.8663
5788.1407
14529.192
32311.493
64553.694
117387.72
196654.92
306840.93
450275.88
626796.5
833895.49
1067217
1321238.5
1589958.4
1867483
2148460.1
2428343.8
2703498.9
2971231
3229751.3
3477892
3715153.3
3942402.3
4159644.9
4363686.5
4561349.8
4752642.4
4934768.8
5113218.8
5288461.7
5461172.5
5631888.4
5802230
5973239
6146002.9
6321483.2
6500564.8
6684098.9
6872903.4
7067754.7
7269376.4
7478472.2
0.00029375398
0.0059754719
0.061925193
0.486698
3.1187742
16.689464
75.504008
291.60771
971.00051
2817.4931
7205.5676
16433.693
33818.49
63511.592
110021.95
177554.46
269350.91
387208.67
531275.23
700128.34
891061.55
1100491.9
1324387.3
1558650.1
1799416
2043255
2287292.2
2529255
2767424.7
3000667.6
3228537.4
3450665.4
3667149.7
3874570.9
4078153.7
4278272.4
4475749.2
4666446.4
4858558.9
5048306.6
5238197
5428725.9
5620958.3
5815716.6
6013762
6215873.2
6422822.1
6635353.8
6854172.3
7079971.2
0.00025146038
0.0044729552
0.04121741
0.29363956
1.7403163
8.7864299
38.208903
144.23855
476.25401
1386.6943
3592.3001
8358.2904
17637.118
34079.412
60863.94
101357.86
158684.8
235308.85
332730.68
451348.97
590488.11
748564.31
923320.02
1112093.9
1312070.3
1520487.6
1734794.9
1952754.9
2172493
2392540.9
2611854.1
2829622.3
3045243.2
3257783.9
3469560.3
3674994
3881550.3
4086104
4291957.7
4492856.2
4697481.2
4902899.5
5110547
5320981.9
5534769.5
5752596.3
5975164.2
6203160
6437240.1
6678060.7
0.00021673121
0.003409041
0.028150202
0.1826412
1.0029748
4.7739314
19.899594
73.115375
238.16656
692.05311
1806.1556
4265.4587
9187.3287
18193.573
33389.933
57230.649
92284.329
140950.68
205190.92
286326.35
384935.81
500854.39
633260.86
780813.19
941815.56
1114381.5
1296579.6
1486550.5
1682592.5
1883224.6
2087215.8
2293546.6
2501391.9
2710114.4
2920014.8
3130656.7
3337930.5
3547561.5
3759521.5
3972826.7
4184043.5
4399275.5
4618266
4840681.7
5066812.9
5297290.2
5532735.6
5773755.8
6020936.1
6274872.1
0.00018803759
0.0026403477
0.019685673
0.11689296
0.59613573
2.675078
10.668318
38.023675
121.66411
351.0976
918.52855
2191.0903
4795.6561
9694.1438
18220.046
32051.158
53109.641
83402.945
124835.9
179031.01
247188.95
330008.34
427668.83
539868.04
665903.48
804767.16
955255
1116066.5
1285891.3
1463480
1647692
1837514.4
2032082.1
2230717.3
2433087.9
2638810.6
2847713.3
3055456.2
3267063.4
3483419.4
3703267.2
3922713
4147307.2
4378038.7
4612976.6
4852891.6
5098307.8
5349731.8
5607658.2
5872603.3
0.00016420746
0.0020748916
0.014070345
0.076836243
0.36488605
1.5446308
5.8868727
20.301765
63.581461
181.45658
473.7222
1136.2607
2516.2214
5171.5275
9919.1506
17854.137
30325.526
48865.857
75083.557
110536.51
156609.01
214411.6
284716.32
367931.53
464113.14
573003.22
694093.05
826684.4
969961.26
1123051.8
1285080.6
1455208.4
1632666.6
1816796.9
2007093.9
2203121.2
2404562.8
2611217.9
2818684
3030910.3
3250596.9
3474330.7
3704857.8
3936092.1
4176106.1
4422172
4674550.2
4933627.1
5199793.6
5473473.4
0.00014411437
0.001653427
0.010262655
0.051784696
0.22966063
0.9181591
3.3424961
11.133296
34.03072
95.70582
248.33578
596.45085
1330.9112
2770.4262
5403.6251
9921.1894
17226.925
28419.82
44745.829
67525.091
98065.674
137577.34
187097.62
247438.74
319159.4
402560.74
497703.04
604435.91
722444.59
851287.56
990444.49
1139355.1
1297456.2
1464216.4
1639164
1821879.4
2012011.8
2209281.8
2413458.1
2619941.6
2832993.8
3055122.9
3284526.6
3520944
3759545.2
4007657.4
4263960.7
4527867.5
4799662.8
5079672.4
0.00012699129
0.0013338217
0.0076248145
0.03572457
0.1484224
0.56124328
1.9517765
6.2715547
18.669018
51.585856
132.57983
317.66664
711.53905
1494.5739
2954.1472
5515.115
9762.4874
16449.256
26484.603
40901.785
60808.938
87329.549
121540.9
164418.4
216791.9
279317.36
352464.66
436520.22
531601.49
637679.96
754606.6
882150.62
1020018
1167888.3
1325437
1492349.6
1668335.1
1853123.3
2046378.7
2246947.4
2455707.2
2667464.3
2892459.7
3126012.2
3367935.5
3613225.4
3868804
4134703.6
4409461.1
4693306.7
0.00011233875
0.0010881853
0.0057646441
0.025189059
0.098347665
0.35239475
1.1712893
3.6285311
10.502242
28.444853
72.197588
172.00725
385.41109
814.06399
1625.165
3075.4442
5534.0532
9499.6902
15607.357
24621.725
37416.388
54940.783
78178.814
108104.33
145638.68
191614.69
246749.97
311630.75
386706.22
472292.02
568581.06
675659.61
793524.14
922112.01
1061308.1
1210969.8
1370939.4
1541053.8
1721135.1
1910964
2111089.8
2315905.7
2529873.8
2757559.1
2994894.2
3241894.9
3493389
3756151.7
4031200
4316341.9
9.9778689e-05
0.00089705876
0.0044290639
0.018124403
0.06672132
0.2270066
0.72179684
2.1554542
6.0593995
16.057144
40.152057
94.848249
211.94148
448.72617
901.92866
1724.864
3146.2553
5488.1443
9179.698
14763.823
22894.491
34323.986
49880.966
70441.663
96897.469
130122.34
170943.19
220115.57
278306.17
346082.49
423909.37
512151.72
611081.92
720890.83
841700.41
973572.41
1116536.4
1270579.7
1435669.2
1611755.9
1798869.2
1996814.3
2201198.3
2416610.9
2646629.5
2887526.6
3139328.8
3396709.5
3666650.9
3950546.1
8.9049467e-05
0.00074651505
0.0034516294
0.013291899
0.046281463
0.149844
0.45633321
1.3139096
3.5853379
9.2832818
22.825399
53.333204
118.52758
250.82216
506.09849
975.29823
1798.3899
3179.5566
5401.7893
8838.6462
13961.054
21337.541
31627.121
45565.152
63943.461
87586.725
117327.41
153981.51
198327.03
251086.51
312914.34
384389.11
466010.72
558201.46
661310.34
775619.4
901351.52
1038673.7
1187723.4
1348590.9
1521351.5
1706029.2
1902650
2106786.9
2323950.7
2556258.8
2800600.1
3057057.5
3320148.6
3597436.7
7.970525e-05
0.00062656132
0.0027270424
0.0099205622
0.032779797
0.10122892
0.29567692
0.82131022
2.1749456
5.4973783
13.270822
30.611106
67.503796
142.4123
287.69599
557.16556
1035.8374
1851.5383
3187.523
5294.8008
8502.5872
13225.343
19965.103
29308.355
41917.448
58517.157
79877.614
106795.1
140072.32
180499.67
228838.6
285808.09
352074.44
428244.64
514862.91
612410.11
721305.33
841909.14
974528.1
1119419.5
1276789.9
1446822.8
1629647.6
1825358
2029555.7
2248693
2483234.1
2731005.9
2992079.8
3260816.1
7.1597426e-05
0.00053053997
0.0021812919
0.0075268497
0.023674869
0.069897641
0.19613244
0.52601291
1.351944
3.3339955
7.8931811
17.945257
39.190332
82.244245
165.94631
322.1721
602.38724
1085.9796
1890.1135
3180.4982
5182.1262
8188.8443
12570.58
18777.169
27338.091
38857.876
54007.42
73511.863
98136.024
128668.49
165905.53
210635.82
263626.74
325612.95
397287.26
479294.09
572225.24
676617.68
792953.26
921659.65
1063112.6
1217637.6
1385512.5
1566951.5
1762127.4
1966595.7
2187548.9
2424440.1
2675723
2941375.9
6.4276274e-05
0.00045228858
0.0017662891
0.005799263
0.017414005
0.049270556
0.13303391
0.34482656
0.86049487
2.0699206
4.8023342
10.748153
23.208393
48.356137
97.245453
188.83459
354.27975
642.68227
1128.3244
1919.2136
3166.4942
5074.0404
7907.3925
12001.099
17763.611
25679.071
36305.647
50270.395
68260.958
91014.7
119306.02
153932.73
195702.24
245418.4
303869.4
371817.29
449989.28
539070.8
639700.55
752467.28
877908.36
1016510.1
1168709.6
1334895.7
1515389.4
1710297.2
1914176.6
2137386
2376852
2631569
5.8115558e-05
0.00038800827
0.0014449774
0.004531036
0.013027264
0.035407342
0.092152045
0.23112433
0.56029501
1.3147126
2.9876836
6.576574
14.022605
28.961157
57.940982
112.30861
210.97617
384.28045
679.08479
1165.1647
1942.7559
3150.9465
4976.4164
7661.8762
11513.463
16906.38
24288.168
34179.208
47170.264
63917.16
85132.902
111577.72
144047.66
183362.33
230352.5
285847.98
350666.36
425602.9
511421.81
608849.22
718568.2
841216.64
977390.32
1127659.4
1292632.5
1473232.5
1663849.6
1869637.8
2095369.6
2337041.7
5.2519399e-05
0.00033503615
0.0011933968
0.0035863248
0.0099015882
0.025906591
0.065105736
0.15818854
0.37279953
0.85347373
1.8992853
4.1091293
8.6426418
17.669671
35.11187
67.813302
127.30652
232.35704
412.46085
712.42724
1198.0948
1963.1039
3136.5007
4890.8072
7450.0448
11097.121
16179.972
23115.902
32393.69
44573.184
60282.313
80211.627
105106.65
135758.46
172992.97
217659.39
270618.55
332731.22
404847.26
487795.66
582376.24
689353.53
809453.8
943365.98
1091741.4
1255143.6
1433619.9
1623236.6
1830747.5
2057250.1
4.7592036e-05
0.00029079704
0.00099502846
0.0028717417
0.007633844
0.019270342
0.046843162
0.11039909
0.25312465
0.56558122
1.2324123
2.6194111
5.4301146
10.977233
21.63556
41.568634
77.848588
142.11259
252.91241
438.9083
743.02583
1227.6298
1980.6719
3122.6601
4814.1681
7263.4859
10733.931
15550.299
22103.956
30856.113
42338.992
57154.661
75971.549
99518.741
128578.31
163976.05
206570.96
257244.08
316886.9
386390.05
466632.62
558472.7
662739.34
780225.06
911673.52
1057745.1
1218930.3
1395561.5
1583102.3
1791185.2
4.3082566e-05
0.00025407959
0.00083568194
0.0023244984
0.0059631662
0.014551751
0.034267073
0.078431788
0.17509716
0.38199148
0.81504698
1.7012491
3.4736574
6.9366335
13.543701
25.848816
48.213465
87.874656
156.49866
272.35677
463.25599
770.33305
1252.7692
1993.4106
3105.1903
4738.1354
7086.6473
10396.661
14972.237
21181.13
29458.904
40311.256
54314.276
72112.545
94415.058
121989.1
155652.29
196263.2
244710.72
301902.91
368755.45
446180.51
535076.23
636316.95
750744.46
879163.93
1022375.1
1181390.4
1351610.3
3.9126861e-05
0.000222799
0.00070666489
0.0018997955
0.0047111549
0.011135334
0.025441425
0.056609309
0.12314854
0.26241708
0.54827721
1.1235572
2.2582206
4.450616
8.5985808
16.279688
30.195897
54.856202
97.589938
170.00017
289.97647
484.38486
792.5337
1270.4753
1996.1483
3075.2878
4647.9424
6895.3501
10046.85
14386.445
20258.615
28072.962
38307.353
51509.251
68295.056
89347.364
115410.18
147282.22
185808.49
231870.53
286375.66
350245.65
424405.35
509771.62
607242.75
717687.49
841926.69
980666.38
1134162.9
3.5650176e-05
0.00019590129
0.00060144185
0.0015644313
0.0037589138
0.0086180066
0.019126351
0.041416906
0.087843519
0.18288881
0.37416816
0.75253793
1.4879301
2.8916517
5.5218221
10.35707
19.074478
34.481601
61.167791
106.45625
181.75229
304.39208
500.0956
806.11278
1275.1236
1979.908
3018.7374
4521.368
6655.4413
9633.0243
13716.968
19226.72
26543.227
36112.57
48448.04
64130.412
83806.278
108184.4
138030.1
174157.92
217422.7
268709.5
328922.72
398974.9
479775.32
572216.92
677153.54
795339.98
927301.81
3.2460985e-05
0.00017305784
0.00051419048
0.0012964449
0.0030223855
0.0067292147
0.014523267
0.030623742
0.063355272
0.12889202
0.2581667
0.50935757
0.99002358
1.8953677
3.5730271
6.6300011
12.104681
21.736505
38.377171
66.600487
113.58124
190.32521
313.34012
506.83697
805.54096
1258.1698
1931.6009
2915.6972
4328.7047
6323.0687
9091.4527
12872.691
17957.362
24692.652
33486.188
44808.531
59194.087
77240.262
99604.746
127000.94
160191.59
199980.86
247205.1
302722.62
367402.68
442113.23
527704.55
624983.99
734707.65
2.9518758e-05
0.00015271957
0.0004409495
0.0010790781
0.0024433577
0.0052878043
0.01110275
0.022807021
0.046025807
0.091476836
0.17930192
0.34678932
0.66196969
1.2469648
2.3173761
4.2472171
7.673635
13.661828
23.958395
41.370986
70.322572
117.63951
193.64207
313.61221
499.71364
783.43191
1208.5863
1834.9361
2742.3651
4035.5804
5849.2094
8353.1252
11757.779
16319.278
22343.934
30191.973
40280.15
53083.005
69132.583
89016.473
113374.14
142891.56
178294.32
220339.36
269805.57
327483.34
394163.5
470629.27
557684.23
2.6873605e-05
0.00013488497
0.00037825011
0.00089949322
0.0019791669
0.0041658694
0.0085119865
0.017032547
0.033514732
0.065041787
0.12464942
0.23608089
0.44199428
0.81796856
1.495982
2.7029347
4.822707
8.4939866
14.761097
25.301418
42.760306
71.232709
116.93886
189.1489
301.41564
473.17547
731.7722
1114.9467
1673.8137
2476.3169
3611.1197
5191.8435
7361.526
10297.125
14213.865
19369.185
26066.059
34655.42
45537.502
59161.873
76026.055
96672.642
121684.9
151680.93
187306.45
229226.2
278114.11
334642.58
399482.43
2.4351787e-05
0.00011904849
0.00032415832
0.00074925402
0.0016024025
0.0032775851
0.0065136317
0.01268803
0.024323186
0.04603332
0.086139601
0.15949955
0.292352
0.53046133
0.9526448
1.6928216
2.9753082
5.1703317
8.8795679
15.065389
25.242037
41.752406
68.16005
109.79184
174.47195
273.49119
422.85596
644.85778
969.99596
1439.2708
2106.8437
3043.0345
4337.5965
6103.174
8478.8189
11633.409
15768.792
21122.458
27969.558
36624.065
47438.934
60805.113
77149.338
96930.642
120635.58
148772.16
181862.51
220435.32
265029.92
2.2011915e-05
0.00010467576
0.0002768903
0.000621224
0.0012898416
0.002561623
0.0049482872
0.0093664005
0.017465564
0.032176964
0.058667139
0.10596413
0.18967656
0.33653412
0.59178369
1.0311375
1.779704
3.0415671
5.1451379
8.6115113
14.255581
23.332767
37.747801
60.34581
95.309774
148.69171
229.10696
348.62144
523.85895
777.35066
1139.1389
1648.6336
2356.7036
3327.9611
4643.1803
6401.7628
8724.1441
11754.018
15660.238
20638.264
26910.997
34728.899
44369.264
56134.573
70349.855
87358.983
107519.86
131199.04
158772.71
1.9803014e-05
9.1076423e-05
0.00023433356
0.00050967597
0.0010268647
0.0019781158
0.0037039948
0.0067996176
0.01230366
0.022004288
0.038980933
0.068461237
0.11928171
0.20623062
0.35380808
0.60222558
1.0167666
1.7022015
2.8247654
4.6449686
7.5659186
12.203266
19.484746
30.789197