/*--------------------------------*- C++ -*----------------------------------*\
| =========                 |                                                 |
| \\      /  F ield         | OpenFOAM: The Open Source CFD Toolbox           |
|  \\    /   O peration     | Version:  2312                                  |
|   \\  /    A nd           | Website:  www.openfoam.com                      |
|    \\/     M anipulation  |                                                 |
\*---------------------------------------------------------------------------*/
FoamFile
{
    version     2.0;
    format      ascii;
    arch        "LSB;label=32;scalar=64";
    class       volScalarField;
    location    "0.03";
    object      T;
}
// * * * * * * * * * * * * * * * * * * * * * * * * * * * * * * * * * * * * * //

dimensions      [0 0 0 1 0 0 0];

internalField   nonuniform List<scalar> 
3275
(
998.58881
987.9847
970.29481
948.38447
924.50636
900.76278
877.6069
855.39108
834.26277
814.30975
795.47707
780.71857
766.26458
752.53983
740.13507
728.92369
718.77173
709.54862
701.14024
693.45121
686.40267
679.92788
673.96883
668.47681
663.41008
658.73276
654.41379
650.42621
646.74647
643.35394
640.23045
637.36001
634.72855
632.32383
630.13579
628.15511
626.4655
624.87543
623.44879
622.19741
621.11452
620.19316
619.4682
618.86274
618.39511
618.06987
617.88384
617.83311
617.91395
618.12291
618.45675
618.91272
997.91035
984.47227
965.90207
943.90753
920.42866
897.41541
874.86118
853.14945
832.42036
812.79474
794.23245
779.63574
765.3593
751.77429
739.48216
728.36213
718.28473
709.12297
700.76557
693.11929
686.10692
679.66299
673.73047
668.2614
663.21466
658.55486
654.25133
650.27743
646.60987
643.22824
640.11453
637.25288
634.6293
632.23159
630.04996
628.07837
626.39286
624.80592
623.38405
622.137
621.05817
620.14081
619.41887
618.81562
618.3508
618.02845
617.84496
617.79656
617.87959
618.09058
618.42627
618.88363
995.64364
976.38504
956.39448
934.56498
912.09305
890.71488
869.42686
848.69017
828.75306
809.78009
791.75686
777.47508
763.55775
750.24932
738.18101
727.24263
717.31357
708.27391
700.01801
692.45691
685.51667
679.13428
673.25468
667.83144
662.82464
658.19985
653.9272
649.98068
646.33752
642.97773
639.88363
637.03964
634.43193
632.0483
629.87913
627.92701
626.2489
624.66855
623.25638
622.01815
620.94759
620.03859
619.32288
618.72462
618.26568
617.94892
617.77057
617.72692
617.81435
618.02946
618.3689
618.82944
989.41873
960.59424
940.58086
919.86634
899.33249
880.79223
861.40491
842.07878
823.31672
805.31139
788.08909
774.25394
760.88093
747.98014
736.24328
725.57414
715.86516
707.00684
698.90184
691.4675
684.63466
678.344
672.54335
667.18849
662.24132
657.66884
653.44235
649.53678
645.93013
642.60303
639.53832
636.72078
634.13691
631.77437
629.62239
627.70307
626.03327
624.4636
623.06605
621.84105
620.78288
619.8869
619.18035
618.5899
618.13988
617.83146
617.66082
617.62431
617.71839
617.93967
618.2848
618.75034
969.43326
933.21842
914.79943
899.23709
883.11794
866.89483
850.67395
833.41144
816.1912
799.4525
783.28836
769.99727
757.35325
744.98792
733.68547
723.36932
713.94931
705.32942
697.42309
690.15587
683.46481
677.29535
671.59909
666.33475
661.46654
656.96339
652.7981
648.94685
645.38866
642.10499
639.07932
636.29699
633.74487
631.41059
629.27754
627.4106
625.7448
624.19146
622.81342
621.60597
620.56404
619.68642
618.99133
618.41166
617.97357
617.67623
617.51587
617.48889
617.59183
617.82137
618.17415
618.64656
890.4745
884.57622
881.29043
874.33315
864.56718
852.00134
837.89789
823.29626
807.98872
792.70165
777.78076
765.04756
753.24325
741.51315
730.71088
720.80145
711.71511
703.37101
695.69498
688.6218
682.09559
676.06726
670.49271
665.33396
660.55798
656.13585
652.04214
648.25446
644.75302
641.52026
638.54038
635.79934
633.28463
630.98448
628.88264
627.05878
625.40229
623.87229
622.51695
621.33004
620.30648
619.45251
618.76922
618.20283
617.77881
617.49449
617.3462
617.33044
617.44382
617.68308
618.04493
618.52573
736.55311
823.33683
843.652
847.2077
843.41098
835.33981
824.40137
811.86002
799.00988
785.29669
771.79523
759.59322
748.64523
737.67846
727.42112
717.95719
709.23727
701.19652
693.77432
686.91539
680.57148
674.69943
669.25979
664.21822
659.54464
655.21255
651.19846
647.48153
644.04329
640.86725
637.93842
635.24345
632.77051
630.50914
628.44615
626.66077
625.0183
623.51592
622.18587
621.02183
620.01737
619.19348
618.52032
617.96982
617.56149
617.29173
617.15695
617.15374
617.2788
617.52894
617.90101
618.39167
600.4798
750.48349
798.38864
815.2617
818.98409
815.95394
808.93869
799.0691
788.408
776.73449
764.73981
753.44509
743.24572
733.21437
723.58079
714.63081
706.33485
698.64577
691.51868
684.90934
678.77818
673.08882
667.80713
662.90287
658.34941
654.12305
650.20254
646.56882
643.20496
640.09577
637.22711
634.58646
632.16277
629.94746
627.93378
626.18586
624.56402
623.09477
621.79454
620.65772
619.67909
618.88406
618.22532
617.69452
617.30473
617.05218
616.93339
616.94503
617.08391
617.34694
617.73111
618.23449
507.26384
677.91959
749.40512
779.81766
791.90621
794.43512
791.46326
784.93
776.41572
766.88614
756.65204
746.57814
737.05874
728.07285
719.17502
710.80694
702.99232
695.70325
688.91305
682.58931
676.7021
671.22264
666.12274
661.37667
656.96176
652.85752
649.04518
645.50774
642.23001
639.19834
636.39947
633.82184
631.45513
629.29285
627.34154
625.62812
624.03539
622.60461
621.33897
620.23381
619.28752
618.52137
617.88144
617.37399
617.00582
616.77332
616.67314
616.7021
616.85709
617.13512
617.53326
618.0496
447.42576
612.8244
699.74091
742.2983
762.70209
771.08303
772.35404
769.23227
763.37712
755.80793
747.50556
738.83821
730.28407
722.18575
714.1986
706.47348
699.19655
692.35503
685.94366
679.94183
674.33025
669.08853
664.1949
659.62851
655.37122
651.40611
647.71715
644.2896
641.11027
638.16735
635.4484
632.94294
630.64114
628.53749
626.66773
624.9799
623.42834
622.04109
620.81498
619.74573
618.83918
618.10202
617.4857
617.00523
616.66193
616.4525
616.37375
616.42263
616.59617
616.89146
617.30554
617.8357
408.84361
558.25544
652.06385
704.09067
732.10473
746.2333
751.90113
752.18654
749.14673
743.85015
737.27712
730.23574
722.89911
715.63702
708.56845
701.62112
694.93729
688.58898
682.59822
676.95453
671.6504
666.67467
662.01232
657.64757
653.56746
649.75901
646.2092
642.90568
639.83749
636.99512
634.36668
631.94304
629.71441
627.68991
625.88982
624.23785
622.73807
621.3997
620.21832
619.18835
618.33159
617.62193
617.03494
616.58513
616.27014
616.08697
616.03262
616.10421
616.2989
616.61388
617.04611
617.59106
383.29937
514.20201
608.23671
666.50145
700.89842
720.35775
730.32108
734.08661
733.81369
730.92043
726.28682
720.7182
714.77414
708.56911
702.30919
696.20519
690.20786
684.39492
678.86633
673.61638
668.65133
663.97002
659.5643
655.42337
651.54038
647.90663
644.51219
641.34727
638.40333
635.67396
633.14701
630.81543
628.66642
626.74515
624.99982
623.39966
621.95933
620.67579
619.54485
618.5635
617.75501
617.0766
616.52589
616.11049
615.82742
615.67388
615.64709
615.74433
615.96293
616.30019
616.75326
617.31341
365.82474
479.20847
569.2226
630.60289
669.84405
693.95588
707.93913
715.09128
717.63017
717.06402
714.47162
710.54175
705.8697
700.86192
695.57612
690.21751
684.97237
679.76427
674.73985
669.91792
665.32293
660.96447
656.84097
652.94596
649.28025
645.83961
642.61718
639.6058
636.79939
634.19624
631.78206
629.55388
627.5071
625.67785
623.99207
622.46142
621.08701
619.86453
618.7897
617.86633
617.10465
616.46407
615.95489
615.57797
615.33064
615.2103
615.21439
615.3404
615.58583
615.94812
616.42558
616.99968
353.45819
451.48093
535.24466
597.14931
639.61273
667.51928
685.09726
695.434
700.71716
702.48647
701.86735
699.6551
696.38815
692.49089
688.26335
683.79378
679.24345
674.64079
670.21384
665.85144
661.65638
657.64905
653.8335
650.20595
646.7778
643.54897
640.51553
637.67292
635.01717
632.5546
630.26433
628.15016
626.2306
624.47465
622.86893
621.41719
620.11582
618.96105
617.94712
617.09366
616.37526
615.78136
615.3183
614.98415
614.77657
614.69318
614.73168
614.88974
615.16508
615.55513
616.05724
616.65053
344.41232
429.39116
506.04422
566.56907
610.73927
641.49837
662.13513
675.36329
683.24144
687.28811
688.62872
688.09664
686.28839
683.60895
680.37164
676.83202
673.0564
669.13552
665.22353
661.41097
657.64423
654.01614
650.53456
647.19462
644.02431
641.02628
638.19905
635.5407
633.0478
630.74232
628.58632
626.61772
624.79962
623.13812
621.62622
620.26133
619.04041
617.9607
617.0196
616.23173
615.56422
615.02464
614.61241
614.32553
614.1619
614.11942
614.196
614.38959
614.69812
615.119
615.64621
616.26471
337.58685
411.62272
481.11669
539.01212
583.60142
616.27611
639.37129
655.12649
665.38829
671.59492
674.84746
675.97661
675.60447
674.18072
672.01512
669.37352
666.36298
663.1937
659.88263
656.57042
653.25096
650.05971
646.93894
643.90367
641.01177
638.26377
635.66012
633.20204
630.88143
628.75404
626.76324
624.91291
623.21684
621.66722
620.25791
618.98811
617.85532
616.85781
616.00266
615.27436
614.66947
614.18981
613.83341
613.5985
613.48324
613.48581
613.60435
613.83709
614.18232
614.63795
615.1892
615.84099
332.28934
397.16378
459.87623
514.42356
558.42326
592.15206
617.08735
634.95863
647.34313
655.54965
660.6218
663.37175
664.42031
664.23323
663.16223
661.44941
659.26545
656.77716
654.13567
651.36092
648.54581
645.75738
643.01557
640.32456
637.73307
635.25458
632.89179
630.65151
628.53699
626.5762
624.74504
623.04419
621.48281
620.05584
618.75796
617.59185
616.55505
615.65647
614.87803
614.22136
613.68686
613.27276
612.97744
612.79942
612.73717
612.78911
612.95366
613.22932
613.61485
614.10519
614.68722
615.37871
328.07366
385.25247
441.74993
492.61792
535.29597
569.33735
595.51702
615.07275
629.28432
639.29551
646.06371
650.36114
652.79559
653.8357
653.83617
653.07911
651.73235
649.98274
647.97266
645.75712
643.48613
641.12484
638.7875
636.4538
634.1826
631.99312
629.8876
627.88089
625.98178
624.20683
622.54786
621.00616
619.59153
618.29835
617.12035
616.06694
615.14458
614.33663
613.64411
613.06985
612.61204
612.26935
612.04058
611.9246
611.92017
612.02602
612.24079
612.56326
612.99359
613.51771
614.13982
614.87321
324.6462
375.32058
426.22158
473.34025
514.20727
547.95932
574.84043
595.65244
611.37659
622.97132
631.28584
637.03375
640.79524
643.03073
644.09979
644.27675
643.78308
642.78144
641.42833
639.81329
638.04874
636.15254
634.25425
632.2871
630.35629
628.47554
626.64185
624.88364
623.2119
621.63907
620.16517
618.79246
617.53736
616.38986
615.33883
614.41929
613.60149
612.89563
612.3
611.81523
611.44064
611.17546
611.01892
610.97033
611.02876
611.19322
611.4626
611.83567
612.31115
612.87635
613.547
614.32114
321.80877
366.94618
412.85095
456.3099
495.07219
528.07259
555.18387
576.8473
593.76585
606.70707
616.39818
623.47943
628.49059
631.87309
633.98068
635.0957
635.43446
635.19177
634.5109
633.50375
632.27262
630.87294
629.39019
627.81546
626.25282
624.70073
623.14953
621.65445
620.22317
618.86727
617.59145
616.39614
615.31512
614.32698
613.41818
612.62262
611.92644
611.33256
610.84115
610.45304
610.16838
609.98699
609.90856
609.93291
610.0594
610.2874
610.616
611.04398
611.56399
612.18207
612.90213
319.424
359.81331
401.27463
441.25005
477.76029
509.67366
536.62362
558.77125
576.57561
590.62029
601.50487
609.78642
615.95393
620.42045
623.52729
625.55494
626.73148
627.23474
627.23111
626.8419
626.16061
625.26404
624.22404
623.07023
621.86709
620.64331
619.40523
618.18914
617.01178
615.88675
614.82282
613.82718
612.91856
612.09068
611.33988
610.68264
610.11626
609.64268
609.26309
608.9789
608.79105
608.69992
608.70561
608.80867
609.00861
609.30527
609.69793
610.17967
610.75592
611.43181
612.20089
317.39412
353.68268
391.19726
427.90739
462.11748
492.71587
519.19261
541.50358
559.90522
574.81328
586.70158
596.03912
603.25673
608.73227
612.78873
615.6984
617.68784
618.94543
619.61443
619.83781
619.72085
619.33557
618.75516
618.02664
617.20432
616.32525
615.40892
614.48516
613.57467
612.69356
611.85388
611.06631
610.3442
609.68901
609.10243
608.59425
608.16644
607.82152
607.56151
607.38859
607.30457
607.31034
607.40625
607.59402
607.87294
608.24356
608.69976
609.24513
609.88723
610.6197
611.44175
315.64783
348.37087
382.37884
416.06028
447.98748
477.12438
502.88855
525.09189
543.82972
559.37158
572.07336
582.31617
590.46894
596.86953
601.81662
605.56865
608.34552
610.33284
611.68584
612.51853
612.96583
613.09685
612.98847
612.69271
612.26499
611.74493
611.16067
610.54124
609.90978
609.28477
608.68086
608.1112
607.58789
607.11668
606.70252
606.35313
606.07278
605.86496
605.73231
605.67805
605.70504
605.81456
606.0067
606.28552
606.64896
607.09345
607.62358
608.24308
608.94979
609.74307
610.62257
314.13193
343.7356
374.62397
405.51623
435.22375
462.81395
487.68579
509.55751
528.40118
544.3636
557.69441
568.6907
577.65913
584.89389
590.66458
595.21113
598.74251
601.43823
603.45029
604.90296
605.91913
606.56601
606.9307
607.07574
607.05316
606.90371
606.66166
606.35744
606.0162
605.65861
605.30123
604.95965
604.64632
604.36965
604.13685
603.95556
603.83152
603.76929
603.77173
603.84343
603.98873
604.20922
604.50309
604.88002
605.32751
605.85913
606.47093
607.16467
607.94069
608.79907
312.80594
339.66517
367.77308
396.10895
423.69042
449.698
473.54808
494.90638
513.65615
529.84514
543.63055
555.23165
564.89422
572.86712
579.38767
584.67367
588.91965
592.29617
594.9504
597.00776
598.58173
599.75953
600.60091
601.18563
601.57506
601.80542
601.91459
601.93527
601.89435
601.81462
601.71358
601.61006
601.51712
601.44496
601.40257
601.39836
601.43934
601.53135
601.67635
601.88103
602.15214
602.4917
602.89105
603.3689
603.91605
604.53762
605.23418
606.00711
606.85712
607.7844
311.63847
336.07085
361.69523
387.69537
413.26297
437.69012
460.43261
481.13513
499.62165
515.86387
529.94133
542.00361
552.23879
560.85041
568.04174
574.00589
578.9202
582.94371
586.21653
588.86082
590.98441
592.6762
594.01198
595.03723
595.84583
596.45395
596.92607
597.27809
597.54602
597.75387
597.91755
598.06171
598.19891
598.34062
598.49748
598.67901
598.89343
599.14881
599.4432
599.7872
600.19176
600.65347
601.17233
601.75718
602.40685
603.12416
603.91065
604.76778
605.69653
606.69738
310.60477
332.88141
356.28243
380.15257
403.82834
426.70562
448.29126
468.23138
486.31505
502.45863
516.67925
529.06611
539.75429
548.90359
556.68275
563.25864
568.78936
573.42031
577.2824
580.49193
583.15165
585.34928
587.15963
588.64293
589.87471
590.8668
591.70504
592.38987
592.9743
593.47585
593.91597
594.3162
594.69142
595.05569
595.42018
595.79564
596.19118
596.61456
597.06952
597.56418
598.10634
598.69763
599.34026
600.03958
600.79733
601.61605
602.49776
603.44417
604.45656
605.53575
309.68507
330.03905
351.4451
373.37499
395.28461
416.66286
437.07208
456.17479
473.74416
489.65921
503.88915
516.47284
527.49831
537.08439
545.36606
552.48335
558.57378
563.76747
568.18437
571.93309
575.11071
577.80214
580.08115
582.01157
583.65673
585.06028
586.24794
587.29036
588.18481
588.98683
589.70966
590.37418
590.99523
591.59029
592.17017
592.74736
593.33175
593.93176
594.55377
595.20521
595.89298
596.62106
597.39307
598.21343
599.08509
600.01087
600.99316
602.034
603.13497
604.29727
308.86335
327.49637
347.10845
367.27189
387.54038
407.4842
426.72086
444.93831
461.90792
477.48626
491.60774
504.27102
515.52371
525.44762
534.14564
541.7313
548.32094
554.02828
558.96093
563.21845
566.89128
570.06023
572.79683
575.16444
577.22121
579.01359
580.58022
581.9757
583.18849
584.30398
585.30275
586.23921
587.11194
587.94592
588.74792
589.5341
590.31468
591.09898
591.89473
592.70939
593.54991
594.42159
595.329
596.27661
597.26803
598.30647
599.39472
600.53514
601.72966
602.97986
308.1265
325.21421
343.20968
361.76511
380.51402
399.09663
417.18252
434.48966
450.79737
465.95169
479.86351
492.50084
503.87803
514.04438
523.07333
531.05297
538.07856
544.24686
549.65223
554.38407
558.52526
562.15134
565.3304
568.12359
570.58604
572.76493
574.702
576.44017
578.00597
579.40824
580.71038
581.92654
583.04354
584.126
585.15474
586.1568
587.14029
588.11584
589.09195
590.07617
591.07604
592.09773
593.1466
594.22746
595.3444
596.50106
597.7006
598.94574
600.23876
601.58159
307.46365
323.15987
339.69575
356.78719
374.1328
391.43213
408.40227
424.79267
440.39685
455.05926
468.67677
481.19528
492.60287
502.92139
512.19802
520.49724
527.8939
534.4678
540.29951
545.46755
550.04643
554.10546
557.70823
560.91268
563.77122
566.33025
568.63142
570.71338
572.60604
574.33413
575.94405
577.41354
578.80874
580.14331
581.39203
582.61753
583.80974
584.98295
586.14587
587.3056
588.47092
589.64867
590.84487
592.06477
593.31287
594.59319
595.90928
597.26422
598.66063
600.1008
306.86572
321.30585
336.52155
352.27971
368.33196
384.42781
400.32656
415.80859
430.68517
444.8055
458.06003
470.37993
481.7335
492.12034
501.56502
510.11068
517.81308
524.73546
530.94457
536.50764
541.49016
545.95445
549.95883
553.5572
556.79892
559.72862
562.38671
564.80983
567.02935
569.07379
570.97592
572.75413
574.39788
575.9737
577.48697
578.92198
580.32491
581.70188
583.05803
584.39842
585.73483
587.07422
588.42335
589.78786
591.17257
592.58184
594.0196
595.4893
596.99391
598.53605
306.32506
319.62885
333.6485
348.19192
363.05392
378.0258
392.90375
407.49724
421.63683
435.18068
448.01855
460.07313
471.29865
481.67744
491.21535
499.93688
507.88034
515.09337
521.62922
527.5437
532.89295
537.73175
542.11249
546.08444
549.69341
552.9815
555.98724
558.74571
561.28824
563.64364
565.83993
567.8989
569.84145
571.65456
573.39608
575.07803
576.71401
578.27512
579.83172
581.35593
582.8688
584.37483
585.88215
587.39659
588.92311
590.46641
592.03079
593.62006
595.23754
596.88618
305.83516
318.10898
331.04345
344.47958
358.24743
372.17308
386.08459
399.81793
413.22314
426.16979
438.55114
450.28629
461.32043
471.6231
481.1853
490.01576
498.13741
505.58355
512.39459
518.61517
524.29196
529.4719
534.20098
538.52335
542.48077
546.11226
549.45399
552.53925
555.3984
558.05942
560.54827
562.88707
565.09487
567.18328
569.19148
571.08078
572.93144
574.72182
576.48729
578.17909
579.87488
581.55149
583.22193
584.89141
586.56466
588.24678
589.94248
591.65593
593.39078
595.1503
305.39046
316.72915
328.67772
341.10401
353.86686
366.82128
379.82251
392.73025
405.41321
417.7536
429.6509
441.02445
451.81448
461.98176
471.50594
480.38307
488.62286
496.24585
503.28055
509.76098
515.72449
521.21009
526.2571
530.90419
535.18866
539.14601
542.80959
546.21056
549.37773
552.33779
555.11532
557.73217
560.20776
562.55939
564.81078
566.97311
569.02061
571.02215
572.98464
574.9046
576.75863
578.60528
580.44389
582.27347
584.09797
585.92332
587.75472
589.59671
591.45321
593.3278
304.98616
315.47459
326.5264
338.03126
349.87156
361.9263
374.07382
386.19465
398.17486
409.90956
421.30615
432.28687
442.79031
452.77184
462.203
471.06995
479.37156
487.11731
494.32507
501.01896
507.22743
512.98166
518.31425
523.25816
527.84595
532.10921
536.07817
539.78144
543.24589
546.49661
549.55686
552.44787
555.18903
557.7985
560.29512
562.69325
565.00692
567.20487
569.35395
571.46979
573.546
575.55389
577.54988
579.54491
581.52438
583.49685
585.46796
587.44251
589.4247
591.41832
304.6181
314.33247
324.56773
335.2314
346.22521
357.44803
368.7977
380.17285
391.47531
402.61271
413.5012
424.06773
434.25173
444.00597
453.29662
462.1026
470.4142
478.23167
485.56361
492.42521
498.83664
504.82156
510.40594
515.61699
520.48234
525.02945
529.2851
533.27509
537.024
540.55505
543.89003
547.04919
550.05136
552.91424
555.65482
558.28794
560.82736
563.28574
565.62786
567.91299
570.17619
572.38885
574.58392
576.70975
578.84568
580.96856
583.08294
585.19375
587.30534
589.42171
304.28264
313.29156
322.78263
332.67803
342.89537
353.35002
363.95622
374.62819
385.28179
395.83643
406.21719
416.35685
426.19741
435.69123
444.80151
453.5021
461.77692
469.61883
477.02857
484.01354
490.58637
496.76375
502.56525
508.01243
513.12795
517.93499
522.4567
526.7158
530.73434
534.53344
538.13319
541.55254
544.80935
547.92046
550.90175
553.76773
556.5318
559.20627
561.80224
564.2787
566.69958
569.1027
571.47099
573.8071
576.07161
578.33982
580.60065
582.85103
585.0954
587.3379
303.97662
312.34201
321.15428
330.34769
339.85296
349.59913
359.51422
369.52578
379.562
389.55308
399.43285
409.14037
418.62144
427.82962
436.72701
445.2844
453.48113
461.30446
468.7488
475.81487
482.50871
488.84063
494.82427
500.47572
505.81279
510.85434
515.61977
520.12857
524.40006
528.45305
532.30571
535.97546
539.47888
542.83171
546.04884
549.14414
552.13048
555.01965
557.82136
560.53573
563.17371
565.70715
568.25213
570.75896
573.23168
575.628
578.02213
580.41498
582.79515
585.16683
303.69721
311.47511
319.6678
328.21952
337.07187
346.16524
355.43918
364.83262
374.28446
383.73461
393.12511
402.40149
411.51397
420.41849
429.07748
437.46028
445.5433
453.30975
460.74913
467.85674
474.63294
481.08245
487.21348
493.03703
498.56624
503.81573
508.80114
513.53867
518.04474
522.33572
526.42769
530.33628
534.07661
537.66317
541.10975
544.42938
547.6343
550.73589
553.74448
556.66904
559.52644
562.25595
564.93119
567.61084
570.24867
572.85054
575.37131
577.88609
580.40462
582.90813
303.44196
310.68315
318.30995
326.2749
334.52861
343.02094
351.7011
360.51763
369.41873
378.35288
387.26971
396.12104
404.86181
413.45105
421.85259
430.03563
437.97499
445.65117
453.05011
460.16283
466.98507
473.51669
479.76114
485.72479
491.41638
496.8465
502.0271
506.97107
511.69192
516.20342
520.51943
524.65368
528.61963
532.43035
536.09844
539.63595
543.05431
546.36433
549.5761
552.69907
555.74312
558.71457
561.56309
564.36623
567.17037
569.9312
572.65441
575.29212
577.92335
580.56087
303.20864
309.95927
317.06891
324.49711
332.20198
340.14124
348.27222
356.55161
364.93556
373.38008
381.84166
390.27803
398.64892
406.91684
415.04776
423.01165
430.78288
438.34037
445.66765
452.75259
459.58724
466.1675
472.49268
478.56506
484.38939
489.97247
495.32275
500.44988
505.36445
510.07762
514.60094
518.94611
523.12482
527.1486
531.02874
534.77617
538.4014
541.91445
545.32487
548.64166
551.87344
555.02784
558.11232
561.07222
563.99897
566.9192
569.79475
572.63157
575.37896
578.12308
302.99526
309.2973
315.93412
322.87113
330.07276
337.50333
345.12694
352.90716
360.80695
368.78888
376.81556
384.85014
392.85698
400.80225
408.65449
416.38512
423.96888
431.38412
438.61286
445.64083
452.45733
459.05508
465.42999
471.58079
477.50872
483.21714
488.7112
493.9975
499.08376
503.97858
508.69115
513.23108
517.60821
521.83245
525.91366
529.86154
533.68554
537.39483
540.9982
544.50407
547.92044
551.25483
554.5143
557.70534
560.77008
563.81449
566.84155
569.82417
572.76745
575.61779
302.80003
308.69162
314.89597
321.38334
328.12347
335.08626
342.24148
349.55852
357.00615
364.5526
372.16584
379.81399
387.46575
395.09088
402.66073
410.14863
417.53033
424.78427
431.89183
438.83741
445.6084
452.19511
458.59072
464.79106
470.79431
476.60081
482.21271
487.63375
492.86895
497.9244
502.80698
507.52421
512.08403
516.49465
520.76443
524.90176
528.91494
532.81216
536.60137
540.29028
543.88632
547.39657
550.82778
554.18618
557.47722
560.6391
563.79023
566.91742
570.00076
573.04349
302.62131
308.13719
313.94572
320.02131
326.33812
332.87071
339.59374
346.48144
353.50754
360.64514
367.86693
375.14541
382.4533
389.76383
397.05119
404.29086
411.46
418.53774
425.50546
432.34688
439.0482
445.59806
451.98757
458.2102
464.26163
470.13957
475.84355
481.37472
486.73559
491.92986
496.96221
501.83807
506.56349
511.14497
515.58933
519.90356
524.09476
528.17003
532.1364
536.0008
539.76999
543.45057
547.04893
550.57126
554.02305
557.40688
560.64311
563.90035
567.12356
570.30044
302.45763
307.62935
313.07534
318.77353
324.70185
330.83874
337.16293
343.65287
350.28645
357.04096
363.89316
370.81947
377.7962
384.79986
391.8074
398.79655
405.74617
412.63643
419.44918
426.16805
432.77864
439.26853
445.62735
451.84679
457.92053
463.8441
469.61479
475.23144
480.69432
486.00495
491.16587
496.18056
501.05321
505.78861
510.39201
514.869
519.2254
523.46717
527.60035
531.63099
535.56512
539.40876
543.16795
546.84912
550.46005
554.01418
557.41168
560.75755
564.11881
567.4282
302.30758
307.16377
312.27736
317.62931
323.20072
328.97337
334.92936
341.0507
347.3189
353.71478
360.21866
366.81036
373.46945
380.17538
386.90775
393.64657
400.37245
407.06691
413.7126
420.29348
426.79503
433.20429
439.50995
445.70244
451.77391
457.71816
463.53062
469.20818
474.74913
480.153
485.42043
490.55301
495.55318
500.42407
505.16938
509.79328
514.30029
518.6952
522.98299
527.16876
531.2577
535.2551
539.1663
542.99681
546.75214
550.43672
554.04606
557.51135
560.96045
564.39815
302.16985
306.73633
311.5447
316.57848
321.82149
327.25832
332.87398
338.65343
344.58122
350.64132
356.81704
363.09119
369.44619
375.86419
382.32724
388.81751
395.31744
401.81
408.2789
414.70873
421.08522
427.39528
433.62713
439.7704
445.81613
451.75686
457.58651
463.30039
468.89509
474.36842
479.7193
484.94762
490.05417
495.04051
499.90884
504.66192
509.303
513.83565
518.26376
522.59144
526.82299
530.96282
535.01548
538.98555
542.87742
546.69465
550.43855
554.10975
557.62519
561.16385
302.04316
306.34305
310.87048
315.61115
320.55121
325.67765
330.97794
336.43957
342.04963
347.79474
353.66088
359.63342
365.69729
371.83704
378.03695
384.28124
390.55412
396.84008
403.124
409.39135
415.62836
421.82217
427.96089
434.03372
440.03105
445.94448
451.76685
457.4922
463.11575
468.63387
474.04395
479.34441
484.53453
489.6144
494.58481
499.44721
504.20352
508.85617
513.40793
517.86189
522.22139
526.48998
530.67137
534.76941
538.78802
542.73127
546.60424
550.41747
554.06608
301.92622
305.97995
310.24782
314.71744
319.37694
324.21533
329.2222
334.38716
339.69952
345.14808
350.7211
356.40626
362.19062
368.06086
374.00331
380.00402
386.04894
392.12403
398.21543
404.3096
410.39352
416.45475
422.48161
428.46323
434.38967
440.25196
446.0422
451.75349
457.38
462.91692
468.36041
473.70756
478.95636
484.10557
489.1547
494.10391
498.95394
503.70604
508.36191
512.92359
517.39347
521.7742
526.06867
530.27995
534.41129
538.46599
542.44714
546.35619
550.18612
301.81773
305.64293
309.66968
313.88719
318.2853
322.85475
327.58689
332.47317
337.50476
342.67236
347.96614
353.3757
358.8901
364.49783
370.18701
375.94542
381.76059
387.61993
393.51083
399.42085
405.3378
411.2499
417.14589
423.01509
428.84754
434.63403
440.3662
446.03656
451.63852
457.16636
462.61526
467.98125
473.26118
478.45269
483.55412
488.56448
493.48337
498.31096
503.04787
507.69517
512.25426
516.72692
521.11517
525.4213
529.64781
533.7973
537.87205
541.87271
545.79586
301.71628
305.32766
309.12857
313.10961
317.26206
321.57815
326.05071
330.67273
335.43697
340.33575
345.36087
350.50357
355.75459
361.10411
366.54179
372.05696
377.63861
383.27552
388.95635
394.66974
400.40445
406.14948
411.89417
417.62826
423.342
429.02621
434.6724
440.27273
445.82014
451.30831
456.73168
462.08545
467.36556
472.5687
477.6922
482.73405
487.69285
492.56774
497.35835
502.06478
506.68752
511.22742
515.68568
520.06376
524.36338
528.58643
532.73472
536.80959
540.81235
301.62037
305.0294
308.61634
312.37296
316.29174
320.36614
324.59026
328.95839
333.46461
338.10263
342.86564
347.7463
352.73675
357.82864
363.01306
368.2807
373.62188
379.02668
384.48495
389.98646
395.52097
401.07833
406.64863
412.22218
417.78969
423.34223
428.87141
434.36934
439.82874
445.24294
450.6059
455.91224
461.15722
466.33675
471.44735
476.48616
481.45088
486.33972
491.15143
495.88519
500.54061
505.11767
509.61672
514.0384
518.38364
522.65361
526.84966
530.97347
535.02872
301.5283
304.74294
308.124
311.66424
315.35713
319.19716
323.17948
327.29943
331.55224
335.93276
340.43538
345.05397
349.7819
354.61206
359.53683
364.54811
369.63747
374.79617
380.01522
385.2855
390.59779
395.94291
401.31175
406.69537
412.08506
417.4724
422.84928
428.20801
433.54134
438.84249
444.1052
449.32373
454.49289
459.60802
464.66503
469.66035
474.59093
479.45422
484.24813
488.97105
493.62175
498.19939
502.70349
507.1339
511.49074
515.77438
519.98533
524.12428
528.19283
301.43822
304.46245
307.64156
310.96903
314.43916
318.04724
321.78926
325.66147
329.66001
333.78072
338.01901
342.3698
346.82752
351.38613
356.03916
360.77965
365.60026
370.49338
375.45115
380.46552
385.52835
390.63143
395.76658
400.92569
406.1008
411.28411
416.46806
421.64532
426.80891
431.95217
437.06884
442.15304
447.19936
452.20279
457.15881
462.06332
466.91269
471.70374
476.43369
481.1002
485.70131
490.23541
494.70127
499.09794
503.42479
507.68138
511.86749
515.98314
520.02983
301.34806
304.18158
307.15805
310.27151
313.51685
316.88996
320.38751
324.00645
327.74371
331.59598
335.55955
339.63027
343.8035
348.07418
352.43684
356.88555
361.41401
366.01569
370.68379
375.41135
380.19128
385.01642
389.87957
394.77356
399.69127
404.62569
409.56992
414.51723
419.46106
424.39509
429.31326
434.20979
439.07923
443.91645
448.71667
453.47547
458.1888
462.85299
467.46472
472.02105
476.51937
480.95742
485.33325
489.64521
493.89191
498.0722
502.18509
506.2298
510.20698
301.25564
303.89357
306.66188
309.55492
312.56793
315.69722
318.93992
322.29358
325.75583
329.32409
332.99549
336.7667
340.63399
344.59317
348.6397
352.76862
356.97461
361.25215
365.59548
369.9987
374.45579
378.96065
383.50713
388.08907
392.70028
397.33464
401.98604
406.64846
411.31598
415.98276
420.64316
425.29166
429.92297
434.53203
439.114
443.66433
448.17871
452.65316
457.08397
461.46772
465.8013
470.08187
474.30689
478.47408
482.5814
486.62702
490.60928
494.5268
498.37979
301.15883
303.59175
306.14155
308.80259
311.57015
314.44073
317.41181
320.48145
323.64791
326.9094
330.26383
333.70876
337.24131
340.85819
344.55572
348.32988
352.17631
356.09044
360.06751
364.10266
368.19091
372.32724
376.50656
380.72375
384.97365
389.25107
393.5508
397.86765
402.1964
406.53189
410.869
415.20266
419.52794
423.83999
428.13412
432.40578
436.65065
440.86456
445.04357
449.18398
453.28228
457.33522
461.33977
465.29313
469.19271
473.03611
476.82112
480.54581
484.21003
301.05576
303.27037
305.58714
307.99997
310.50387
313.09526
315.77183
318.53217
321.37527
324.3002
327.30582
330.39065