/*--------------------------------*- C++ -*----------------------------------*\
| =========                 |                                                 |
| \\      /  F ield         | OpenFOAM: The Open Source CFD Toolbox           |
|  \\    /   O peration     | Version:  2312                                  |
|   \\  /    A nd           | Website:  www.openfoam.com                      |
|    \\/     M anipulation  |                                                 |
\*---------------------------------------------------------------------------*/
FoamFile
{
    version     2.0;
    format      ascii;
    arch        "LSB;label=32;scalar=64";
    class       volVectorField;
    location    "0.03";
    object      U;
}
// * * * * * * * * * * * * * * * * * * * * * * * * * * * * * * * * * * * * * //

dimensions      [0 1 -1 0 0 0 0];

internalField   nonuniform List<vector> 
3275
(
(54.965218 0.35770059 0)
(48.128863 0.85727411 0)
(40.019448 0.89972425 0)
(33.104575 0.76938229 0)
(27.655586 0.59745981 0)
(23.515899 0.45229001 0)
(20.345871 0.34459683 0)
(17.870943 0.26556341 0)
(15.913375 0.20752864 0)
(14.331128 0.16481524 0)
(13.051603 0.13401517 0)
(12.030615 0.11062703 0)
(11.177086 0.091563127 0)
(10.440749 0.077230531 0)
(9.8137 0.06610759 0)
(9.2751359 0.057326272 0)
(8.8064892 0.050286008 0)
(8.3945839 0.044536248 0)
(8.0292312 0.039768508 0)
(7.7025635 0.035768804 0)
(7.4084018 0.032383725 0)
(7.1417832 0.029495773 0)
(6.8986455 0.027014307 0)
(6.6757078 0.024867308 0)
(6.4702472 0.022998743 0)
(6.2800006 0.021362887 0)
(6.1030662 0.019923739 0)
(5.9378363 0.018650621 0)
(5.7829438 0.017519098 0)
(5.6372195 0.016508342 0)
(5.4996551 0.015601583 0)
(5.3693761 0.014784222 0)
(5.2456232 0.014043021 0)
(5.1277225 0.013368968 0)
(5.0150244 0.012736273 0)
(4.9074488 0.012185454 0)
(4.8045253 0.011681116 0)
(4.7050548 0.011187546 0)
(4.6088308 0.010726905 0)
(4.5159376 0.010302161 0)
(4.426059 0.0098947062 0)
(4.3389771 0.0095079026 0)
(4.2544942 0.0091505716 0)
(4.1721843 0.0088054154 0)
(4.0918302 0.0084696391 0)
(4.0134397 0.008146929 0)
(3.9368599 0.0078399379 0)
(3.8619518 0.0075406378 0)
(3.7885832 0.0072532812 0)
(3.7166586 0.0069745687 0)
(3.6460713 0.0067029841 0)
(3.5767339 0.0064372505 0)
(54.204669 1.1996952 0)
(46.363544 2.6371995 0)
(38.315653 2.6704738 0)
(31.856432 2.2495139 0)
(26.811323 1.7462794 0)
(22.956308 1.3306611 0)
(19.969593 1.0211961 0)
(17.611218 0.792552 0)
(15.729432 0.62334811 0)
(14.197965 0.4980091 0)
(12.952732 0.40711785 0)
(11.95469 0.33778025 0)
(11.117833 0.28099709 0)
(10.394027 0.23814017 0)
(9.7761075 0.20481321 0)
(9.244407 0.17847765 0)
(8.7810225 0.15737545 0)
(8.3732182 0.14016697 0)
(8.0111131 0.12592275 0)
(7.6870523 0.11399676 0)
(7.3950072 0.10392254 0)
(7.1301258 0.095350278 0)
(6.8884283 0.088003724 0)
(6.666695 0.081666284 0)
(6.4622497 0.076167958 0)
(6.2728656 0.071372576 0)
(6.0966694 0.067170668 0)
(5.9320755 0.063471722 0)
(5.777734 0.060201321 0)
(5.63249 0.057298127 0)
(5.4953465 0.054711034 0)
(5.3654378 0.052397165 0)
(5.2420128 0.050317855 0)
(5.1243975 0.048446462 0)
(5.0119662 0.046706609 0)
(4.9046366 0.045217176 0)
(4.8019108 0.043869027 0)
(4.7026175 0.042553597 0)
(4.6065668 0.041341548 0)
(4.5138288 0.040234287 0)
(4.424095 0.039189742 0)
(4.337147 0.038272811 0)
(4.2527778 0.037393833 0)
(4.1705747 0.036547271 0)
(4.0903191 0.035741777 0)
(4.0120239 0.034977681 0)
(3.935531 0.03426091 0)
(3.8607023 0.033566602 0)
(3.7874116 0.03290689 0)
(3.7155559 0.032269803 0)
(3.6450341 0.031651938 0)
(3.5757559 0.031049343 0)
(52.002543 2.6077611 0)
(42.547184 4.5666121 0)
(34.956558 4.2910042 0)
(29.472974 3.522553 0)
(25.209964 2.7350582 0)
(21.889995 2.105125 0)
(19.247125 1.6303685 0)
(17.109084 1.2759488 0)
(15.371754 1.010698 0)
(13.937835 0.81226911 0)
(12.758869 0.66723252 0)
(11.805371 0.55579057 0)
(11.00103 0.46395301 0)
(10.301759 0.39430794 0)
(9.7017661 0.34000187 0)
(9.1835711 0.29695855 0)
(8.7305637 0.26239612 0)
(8.3308608 0.23416716 0)
(7.9751811 0.21077291 0)
(7.6562846 0.19116856 0)
(7.3684379 0.17459634 0)
(7.1070064 0.16048883 0)
(6.8681717 0.1483956 0)
(6.6488335 0.13796195 0)
(6.4464095 0.12890968 0)
(6.2587444 0.12101642 0)
(6.0840201 0.11410287 0)
(5.9206942 0.10802011 0)
(5.7674523 0.10264569 0)
(5.6231671 0.097879266 0)
(5.4868638 0.093636455 0)
(5.3576948 0.089846735 0)
(5.234925 0.086446754 0)
(5.117881 0.08339327 0)
(5.0059835 0.080562694 0)
(4.8991435 0.078149688 0)
(4.7968107 0.075963422 0)
(4.6978718 0.073831317 0)
(4.6021665 0.071879324 0)
(4.5097378 0.070098355 0)
(4.4202981 0.068425339 0)
(4.3336165 0.066974256 0)
(4.2494709 0.065579638 0)
(4.1674761 0.064237928 0)
(4.0874201 0.062964347 0)
(4.0093118 0.061768642 0)
(3.9329901 0.060639571 0)
(3.8583201 0.05955885 0)
(3.7851763 0.058526381 0)
(3.7134583 0.057532197 0)
(3.6430637 0.0565698 0)
(3.5739065 0.055632598 0)
(46.36927 5.344753 0)
(36.193471 6.5823443 0)
(30.109781 5.5556785 0)
(26.190316 4.4409899 0)
(23.018403 3.4767709 0)
(20.41431 2.7220123 0)
(18.233599 2.1364408 0)
(16.396727 1.6916813 0)
(14.859532 1.3534661 0)
(13.562434 1.0966412 0)
(12.477378 0.90663584 0)
(11.587507 0.75911734 0)
(10.82995 0.63647696 0)
(10.166222 0.54275972 0)
(9.592324 0.46944284 0)
(9.0938545 0.41105568 0)
(8.6560577 0.36400489 0)
(8.2682633 0.32546683 0)
(7.9220517 0.29345309 0)
(7.6107814 0.26657573 0)
(7.3291455 0.24381868 0)
(7.0728257 0.22442137 0)
(6.8382385 0.20777567 0)
(6.6224588 0.19340181 0)
(6.4230406 0.18092134 0)
(6.2379341 0.17003331 0)
(6.0654024 0.16049242 0)
(5.9039672 0.1520965 0)
(5.7523652 0.14467683 0)
(5.6095105 0.13809686 0)
(5.4744616 0.13224011 0)
(5.3463969 0.12701027 0)
(5.2246059 0.12231945 0)
(5.1084154 0.11810864 0)
(4.9973158 0.11422134 0)
(4.891204 0.11090902 0)
(4.7894547 0.10789145 0)
(4.6910461 0.10495499 0)
(4.5958564 0.10228257 0)
(4.5038866 0.099843641 0)
(4.4148841 0.097558963 0)
(4.3285984 0.095566518 0)
(4.2447819 0.093668851 0)
(4.1630979 0.091838018 0)
(4.0833366 0.090109385 0)
(4.0055037 0.088486599 0)
(3.9294336 0.086955224 0)
(3.8549952 0.085490881 0)
(3.7820683 0.084092653 0)
(3.7105495 0.082746636 0)
(3.6403409 0.081444048 0)
(3.5713553 0.080176633 0)
(33.599278 6.7126238 0)
(27.013236 7.7641301 0)
(24.219856 6.1192863 0)
(22.374139 4.8896533 0)
(20.460132 3.918065 0)
(18.657522 3.1449777 0)
(17.00187 2.5175727 0)
(15.517247 2.0236729 0)
(14.218933 1.6398007 0)
(13.087932 1.3425983 0)
(12.118572 1.1190204 0)
(11.308005 0.94309207 0)
(10.609284 0.79522518 0)
(9.9907056 0.68090632 0)
(9.4501995 0.5911796 0)
(8.977072 0.51925386 0)
(8.5589169 0.46100999 0)
(8.1865614 0.41311508 0)
(7.8526666 0.37319703 0)
(7.5513462 0.33959361 0)
(7.2778339 0.31107643 0)
(7.0282148 0.28672175 0)
(6.7992062 0.26578894 0)
(6.5881073 0.24768678 0)
(6.3926493 0.23194981 0)
(6.2109182 0.21820664 0)
(6.0412822 0.20615457 0)
(5.8823458 0.19554107 0)
(5.7329132 0.1861564 0)
(5.5919521 0.1778298 0)
(5.458564 0.1704163 0)
(5.3319619 0.16379398 0)
(5.211467 0.15785198 0)
(5.0964123 0.15251061 0)
(4.9863718 0.14762704 0)
(4.8812148 0.14343995 0)
(4.7802344 0.13959345 0)
(4.6825321 0.13587296 0)
(4.588024 0.13250584 0)
(4.4966586 0.12942787 0)
(4.408229 0.12655157 0)
(4.3224623 0.12401458 0)
(4.2390795 0.12162576 0)
(4.1578004 0.11931664 0)
(4.0784259 0.11714381 0)
(4.0009498 0.11510505 0)
(3.925205 0.11317658 0)
(3.8510663 0.11133733 0)
(3.7784157 0.10957803 0)
(3.7071529 0.10788487 0)
(3.6371804 0.10624728 0)
(3.5684161 0.10465373 0)
(10.764647 7.3341419 0)
(17.409877 6.8915293 0)
(18.605729 5.7493963 0)
(18.712423 4.8431303 0)
(17.929135 4.0456517 0)
(16.866099 3.3500423 0)
(15.711607 2.7486259 0)
(14.575863 2.2506816 0)
(13.52214 1.8503514 0)
(12.564921 1.5328855 0)
(11.718845 1.2893128 0)
(10.994119 1.0947523 0)
(10.359693 0.9293763 0)
(9.7911062 0.79943994 0)
(9.2879471 0.69713271 0)
(8.8432879 0.61447861 0)
(8.4473438 0.54715802 0)
(8.0925341 0.49153595 0)
(7.7726966 0.44499079 0)
(7.4827736 0.40568137 0)
(7.2185951 0.37222737 0)
(6.9766961 0.34358749 0)
(6.7541302 0.31892181 0)
(6.5484483 0.29755299 0)
(6.3575816 0.27894589 0)
(6.1797704 0.26267469 0)
(6.0135023 0.24838909 0)
(5.857476 0.23579662 0)
(5.7105725 0.22465168 0)
(5.5718215 0.21475618 0)
(5.4403737 0.20593989 0)
(5.3154812 0.19806011 0)
(5.1965001 0.19098397 0)
(5.0827854 0.1846089 0)
(4.9739861 0.17885004 0)
(4.8699294 0.17386015 0)
(4.7698512 0.16923381 0)
(4.672987 0.16480192 0)
(4.5792788 0.16080422 0)
(4.4886199 0.15714089 0)
(4.4008544 0.15373153 0)
(4.3156932 0.15067944 0)
(4.2328216 0.1478379 0)
(4.1520172 0.14508581 0)
(4.0730938 0.14250796 0)
(3.9960322 0.14008329 0)
(3.9206655 0.13778917 0)
(3.8468737 0.13560096 0)
(3.7745437 0.13350791 0)
(3.7035754 0.1314933 0)
(3.6338754 0.12954408 0)
(3.565362 0.12764775 0)
(4.1266553 3.0858757 0)
(11.539753 4.5498428 0)
(14.186918 4.8247107 0)
(15.49687 4.4762459 0)
(15.579427 3.9517084 0)
(15.139022 3.3935887 0)
(14.433025 2.8616584 0)
(13.621707 2.3930543 0)
(12.802937 1.9992707 0)
(12.017435 1.6766461 0)
(11.295637 1.4235577 0)
(10.659012 1.2183437 0)
(10.091033 1.0422398 0)
(9.5747875 0.90101328 0)
(9.1112084 0.78928628 0)
(8.6968489 0.69833888 0)
(8.3247045 0.62378456 0)
(7.9887912 0.56185887 0)
(7.6841581 0.50980635 0)
(7.4066078 0.46568679 0)
(7.152593 0.42802088 0)
(6.9191235 0.39568788 0)
(6.703609 0.36777937 0)
(6.5038681 0.34355197 0)
(6.3180472 0.32241722 0)
(6.1445525 0.3039083 0)
(5.9819997 0.28763769 0)
(5.8291889 0.27327948 0)
(5.6850849 0.26055845 0)
(5.5487844 0.24925401 0)
(5.4194916 0.23917503 0)
(5.2965012 0.23016109 0)
(5.179205 0.22206036 0)
(5.066999 0.21474767 0)
(4.9595894 0.2082128 0)
(4.8567492 0.20248508 0)
(4.7576922 0.19713426 0)
(4.6617863 0.19206289 0)
(4.5689833 0.18749271 0)
(4.47913 0.18329257 0)
(4.3921147 0.17940921 0)
(4.3076419 0.17588377 0)
(4.225365 0.17262106 0)
(4.1451084 0.16946317 0)
(4.0667084 0.16651558 0)
(3.9901266 0.16373879 0)
(3.9152012 0.16110822 0)
(3.841817 0.15860033 0)
(3.7698642 0.15619897 0)
(3.6992459 0.15388713 0)
(3.6298703 0.15165008 0)
(3.5616606 0.14947326 0)
(2.4448901 1.1978367 0)
(7.9320037 2.6470731 0)
(10.742959 3.7380937 0)
(12.644701 3.9024319 0)
(13.346673 3.6850745 0)
(13.421097 3.3060551 0)
(13.118141 2.8776568 0)
(12.615308 2.4655262 0)
(12.028116 2.0987769 0)
(11.417581 1.784999 0)
(10.826042 1.531357 0)
(10.283845 1.322431 0)
(9.7875438 1.1414391 0)
(9.3284043 0.99286094 0)
(8.9087713 0.87407314 0)
(8.5282728 0.77674914 0)
(8.1829047 0.6963524 0)
(7.8683816 0.62914637 0)
(7.581049 0.57235215 0)
(7.3176393 0.52400618 0)
(7.0752829 0.48257663 0)
(6.8515147 0.44689649 0)
(6.644139 0.41601674 0)
(6.4512717 0.38914356 0)
(6.2713026 0.36564922 0)
(6.1028253 0.34503652 0)
(5.9445995 0.32688924 0)
(5.7955405 0.31085288 0)
(5.6547086 0.29662701 0)
(5.5212777 0.28397155 0)
(5.3945129 0.27267802 0)
(5.2737569 0.26256998 0)
(5.1584417 0.25347796 0)
(5.0480254 0.24525924 0)
(4.9422543 0.23797886 0)
(4.840834 0.23151842 0)
(4.7429977 0.22544906 0)
(4.648244 0.21976289 0)
(4.5565169 0.21463019 0)
(4.46763 0.20989978 0)
(4.3815068 0.20556096 0)
(4.2978519 0.201573 0)
(4.2162968 0.19788362 0)
(4.136705 0.19432725 0)
(4.0589374 0.19101492 0)
(3.9829359 0.18788814 0)
(3.9085469 0.18492528 0)
(3.8356594 0.18209866 0)
(3.7641683 0.17939184 0)
(3.6939788 0.17678425 0)
(3.6250026 0.17426015 0)
(3.5571644 0.17180427 0)
(1.9221101 0.57295706 0)
(5.6479445 1.4577078 0)
(8.1607874 2.7446176 0)
(10.232064 3.2453272 0)
(11.313514 3.3031963 0)
(11.775475 3.1130692 0)
(11.81091 2.8072095 0)
(11.585723 2.4707172 0)
(11.21734 2.1473729 0)
(10.77783 1.8561681 0)
(10.317998 1.6111576 0)
(9.8738869 1.4050959 0)
(9.4528758 1.2248167 0)
(9.0541845 1.0734919 0)
(8.6820193 0.95020507 0)
(8.3385116 0.84858576 0)
(8.0225734 0.76392942 0)
(7.7317291 0.69262516 0)
(7.4636666 0.63198274 0)
(7.2160897 0.58010106 0)
(6.9868431 0.53544267 0)
(6.7740267 0.49683349 0)
(6.5758697 0.46331274 0)
(6.3908101 0.43405666 0)
(6.2175063 0.40840968 0)
(6.0547583 0.38586166 0)
(5.9014842 0.36597379 0)
(5.7567263 0.34837125 0)
(5.6196524 0.33273039 0)
(5.4895229 0.31879902 0)
(5.3656714 0.30635195 0)
(5.2474938 0.29520209 0)
(5.1344666 0.28515949 0)
(5.0261324 0.27608541 0)
(4.9222521 0.26808932 0)
(4.8224579 0.26090053 0)
(4.7260521 0.25413032 0)
(4.6326493 0.24785809 0)
(4.5421688 0.24217527 0)
(4.4544136 0.23692803 0)
(4.3693279 0.23214889 0)
(4.2866168 0.22771488 0)
(4.205909 0.22359633 0)
(4.1270985 0.21965242 0)
(4.0500707 0.21597778 0)
(3.9747473 0.21250691 0)
(3.9009859 0.20921399 0)
(3.8286804 0.20607273 0)
(3.7577297 0.20306136 0)
(3.6880429 0.20015981 0)
(3.619535 0.19734914 0)
(3.552135 0.19461458 0)
(1.6703134 0.26664557 0)
(4.1763477 0.7325573 0)
(6.2678566 1.9238225 0)
(8.2589761 2.592604 0)
(9.5240604 2.8599709 0)
(10.248032 2.8432501 0)
(10.548621 2.6646054 0)
(10.560227 2.4145742 0)
(10.389968 2.1465957 0)
(10.111692 1.8893738 0)
(9.7802305 1.6621779 0)
(9.4349759 1.4651051 0)
(9.0912207 1.2907318 0)
(8.754868 1.1412497 0)
(8.4326102 1.0165114 0)
(8.1286805 0.91271155 0)
(7.8444371 0.825525 0)
(7.5792856 0.75144551 0)
(7.3322818 0.68796969 0)
(7.1021116 0.63334464 0)
(6.8873489 0.58608003 0)
(6.6866866 0.54503165 0)
(6.4988002 0.50926364 0)
(6.322466 0.47793819 0)
(6.1566339 0.45039069 0)
(6.0003272 0.42611215 0)
(5.8526329 0.40465339 0)
(5.7127312 0.3856235 0)
(5.5799081 0.36868293 0)
(5.4535199 0.35357048 0)
(5.3329749 0.34005047 0)
(5.2177266 0.32792442 0)
(5.1073066 0.31698494 0)
(5.0013539 0.30713603 0)
(4.8996138 0.29844894 0)
(4.8016586 0.29053699 0)
(4.7069044 0.2831074 0)
(4.6150555 0.27628002 0)
(4.5259939 0.27006782 0)
(4.4395383 0.26432805 0)
(4.3556406 0.25912468 0)
(4.2739993 0.25426422 0)
(4.1942632 0.2497219 0)
(4.1163545 0.2454052 0)
(4.0401732 0.24137739 0)
(3.9656263 0.23756924 0)
(3.8925839 0.23395481 0)
(3.8209447 0.230504 0)
(3.750613 0.22719473 0)
(3.6815015 0.22400348 0)
(3.6135294 0.22091072 0)
(3.546628 0.21790131 0)
(1.5198672 0.071883857 0)
(3.2273452 0.28199393 0)
(4.9026651 1.2779641 0)
(6.6857412 1.9941422 0)
(7.9917341 2.398626 0)
(8.8677465 2.5249592 0)
(9.3601043 2.4662582 0)
(9.5628472 2.3058918 0)
(9.5641288 2.1006182 0)
(9.4325752 1.8855272 0)
(9.2221904 1.6841045 0)
(8.9735168 1.5022191 0)
(8.707067 1.3382009 0)
(8.4336891 1.1946282 0)
(8.1626336 1.0719315 0)
(7.9001302 0.96819947 0)
(7.6494142 0.8802414 0)
(7.4116373 0.80480662 0)
(7.1872489 0.73961443 0)
(6.9759005 0.68313096 0)
(6.7768857 0.63396091 0)
(6.5895064 0.59103213 0)
(6.4128926 0.55346859 0)
(6.2461684 0.52043973 0)
(6.0885945 0.49128448 0)
(5.9394304 0.4655191 0)
(5.7979391 0.44269061 0)
(5.663447 0.42240148 0)
(5.5353687 0.40429916 0)
(5.4131647 0.38812261 0)
(5.2963233 0.37362635 0)
(5.1843596 0.36060481 0)
(5.0768807 0.34884532 0)
(4.9736095 0.33831606 0)
(4.8742489 0.32895112 0)
(4.7783603 0.32033839 0)
(4.6854899 0.31230988 0)
(4.5953976 0.30496044 0)
(4.5079324 0.29824355 0)
(4.4229488 0.29205198 0)
(4.3403899 0.28644131 0)
(4.2599457 0.28116921 0)
(4.1813105 0.27621935 0)
(4.1044266 0.27154928 0)
(4.0292 0.26717957 0)
(3.9555296 0.26304657 0)
(3.8832985 0.25911984 0)
(3.8124112 0.2553693 0)
(3.7427774 0.25176912 0)
(3.6743143 0.24829544 0)
(3.6069463 0.24492628 0)
(3.5406085 0.24164632 0)
(1.4224755 -0.049001936 0)
(2.6108888 0.0027072292 0)
(3.9265725 0.78618094 0)
(5.4545666 1.4737568 0)
(6.7081182 1.9507931 0)
(7.6483184 2.1837409 0)
(8.2653776 2.2292493 0)
(8.6129968 2.1550958 0)
(8.756091 2.0152705 0)
(8.7530587 1.8473562 0)
(8.6534385 1.6775711 0)
(8.4963112 1.5165086 0)
(8.3051508 1.3669049 0)
(8.0941892 1.2326984 0)
(7.8746146 1.1154007 0)
(7.6544863 1.0142791 0)
(7.4385912 0.92732203 0)
(7.2295126 0.85196184 0)
(7.0290245 0.78624704 0)
(6.8377152 0.72886418 0)
(6.6555705 0.67856035 0)
(6.4825033 0.63437053 0)
(6.3180947 0.59551972 0)
(6.1618143 0.56120035 0)
(6.0132511 0.53077149 0)
(5.87191 0.50379903 0)
(5.7372307 0.47983567 0)
(5.6086927 0.45848294 0)
(5.4858486 0.43938251 0)
(5.3682704 0.42227959 0)
(5.2555297 0.40692299 0)
(5.1472117 0.39310118 0)
(5.0430169 0.38064072 0)
(4.9427168 0.36950233 0)
(4.8459732 0.35947576 0)
(4.7523971 0.35021937 0)
(4.6616491 0.34166039 0)
(4.5735148 0.33382573 0)
(4.4878329 0.3266394 0)
(4.4044967 0.32004496 0)
(4.3234248 0.31404259 0)
(4.2443122 0.30837426 0)
(4.1669134 0.30304714 0)
(4.0911805 0.29804381 0)
(4.0170191 0.29334962 0)
(3.9443288 0.28890633 0)
(3.8730049 0.2846815 0)
(3.8029581 0.28064283 0)
(3.7341045 0.27676301 0)
(3.6663662 0.27301635 0)
(3.5996729 0.26937962 0)
(3.5339628 0.26583723 0)
(1.3551375 -0.1196161 0)
(2.203665 -0.16811861 0)
(3.2294022 0.42098719 0)
(4.50332 1.0382968 0)
(5.6511872 1.5371567 0)
(6.5911054 1.8404851 0)
(7.2760549 1.9698188 0)
(7.72505 1.9732449 0)
(7.9794825 1.8973965 0)
(8.0846408 1.7787947 0)
(8.0830343 1.6444596 0)
(8.0103004 1.5084222 0)
(7.8905537 1.3769437 0)
(7.7400746 1.2552404 0)
(7.57136 1.1461506 0)
(7.3937305 1.0501679 0)
(7.213275 0.96613833 0)
(7.0338086 0.89227062 0)
(6.8582142 0.82726017 0)
(6.6879303 0.76997899 0)
(6.5236064 0.71936792 0)
(6.3657564 0.67458968 0)
(6.2143948 0.63500852 0)
(6.0693238 0.59985647 0)
(5.9304766 0.56852414 0)
(5.7976073 0.54066124 0)
(5.6703264 0.51582934 0)
(5.5482706 0.49363707 0)
(5.4311393 0.47372604 0)
(5.3186218 0.45585669 0)
(5.2103748 0.43977501 0)
(5.1060738 0.42527827 0)
(5.005502 0.41224947 0)
(4.9084449 0.40054645 0)
(4.8145682 0.38990353 0)
(4.723566 0.38009538 0)
(4.6351787 0.37107028 0)
(4.5492049 0.36279598 0)
(4.4655016 0.35519063 0)
(4.3839889 0.34824011 0)
(4.304552 0.34186221 0)
(4.226915 0.33582322 0)
(4.1508942 0.33015784 0)
(4.0764405 0.32484403 0)
(4.0034593 0.31984639 0)
(3.9318568 0.31511216 0)
(3.8615398 0.31060593 0)
(3.7924261 0.30629453 0)
(3.7244385 0.30214847 0)
(3.6575048 0.29814064 0)
(3.5915612 0.29424798 0)
(3.5265493 0.29045104 0)
(1.3062392 -0.1590281 0)
(1.9292095 -0.27095233 0)
(2.7293017 0.15486069 0)
(3.7740163 0.68416657 0)
(4.792129 1.1690693 0)
(5.6885607 1.5107508 0)
(6.396437 1.7021116 0)
(6.9084475 1.7711689 0)
(7.2449011 1.7543895 0)
(7.4372496 1.6844906 0)
(7.5193904 1.5874966 0)
(7.5221424 1.4792755 0)
(7.4684997 1.3687354 0)
(7.3753073 1.2623412 0)
(7.2558066 1.1639478 0)
(7.1200916 1.0752725 0)
(6.975055 0.996018 0)
(6.8256266 0.92520385 0)
(6.6755834 0.86215273 0)
(6.5270575 0.80596186 0)
(6.3813129 0.75589483 0)
(6.2394387 0.7112446 0)
(6.1018568 0.67153062 0)
(5.9686752 0.63604139 0)
(5.8401883 0.60420798 0)
(5.7163981 0.57580604 0)
(5.5970691 0.55040302 0)
(5.4819991 0.52762075 0)
(5.3710426 0.50711179 0)
(5.2640094 0.48865768 0)
(5.1606462 0.47201243 0)
(5.0607329 0.45700687 0)
(4.9641024 0.44350793 0)
(4.8705555 0.4312879 0)
(4.7798155 0.42012633 0)
(4.6916531 0.40986901 0)
(4.6058597 0.40044169 0)
(4.5222548 0.39178233 0)
(4.4407306 0.38382854 0)
(4.3612143 0.37655945 0)
(4.2835641 0.36982757 0)
(4.2075578 0.36345901 0)
(4.133061 0.35749665 0)
(4.0600166 0.35189941 0)
(3.9883352 0.34662473 0)
(3.9179327 0.34162251 0)
(3.8487267 0.33685613 0)
(3.7806431 0.33229051 0)
(3.7136118 0.32789514 0)
(3.6475676 0.32364152 0)
(3.5824516 0.31950647 0)
(3.5182102 0.31546828 0)
(1.2698307 -0.17918188 0)
(1.7405134 -0.33101211 0)
(2.3678573 -0.036112515 0)
(3.2168987 0.40235999 0)
(4.1003514 0.85078766 0)
(4.927506 1.2049767 0)
(5.6250511 1.4375629 0)
(6.1681103 1.558715 0)
(6.559923 1.5936941 0)
(6.8189339 1.5695723 0)
(6.9699691 1.509927 0)
(7.0381296 1.4310242 0)
(7.0440491 1.3433066 0)
(7.0039714 1.2543163 0)
(6.9311187 1.1688035 0)
(6.8359054 1.0893571 0)
(6.7257454 1.0165044 0)
(6.6063338 0.95027686 0)
(6.482083 0.89044781 0)
(6.35575 0.83639762 0)
(6.2291439 0.78769261 0)
(6.1038441 0.74392728 0)
(5.9806445 0.70469306 0)
(5.8599303 0.66939243 0)
(5.7423754 0.6374881 0)
(5.6282202 0.60893291 0)
(5.5173533 0.58328334 0)
(5.4097407 0.56018247 0)
(5.3053974 0.5393159 0)
(5.2042573 0.52048467 0)
(5.1061655 0.50347481 0)
(5.0109867 0.48811683 0)
(4.9185933 0.4742239 0)
(4.8288398 0.46158662 0)
(4.7415168 0.45003526 0)
(4.6564522 0.43942563 0)
(4.573483 0.42966894 0)
(4.4924644 0.42069589 0)
(4.4133187 0.41246981 0)
(4.3359656 0.40491207 0)
(4.2602638 0.39786322 0)
(4.1860519 0.39122049 0)
(4.1132263 0.38500143 0)
(4.0417242 0.3791542 0)
(3.9714667 0.37363305 0)
(3.9023803 0.36839091 0)
(3.8343937 0.36338879 0)
(3.7674411 0.35859167 0)
(3.7014606 0.35396689 0)
(3.6363938 0.34948578 0)
(3.5721892 0.34512473 0)
(3.5087956 0.34085946 0)
(1.2423709 -0.1871342 0)
(1.6081903 -0.36367744 0)
(2.104106 -0.17102165 0)
(2.7914646 0.18195992 0)
(3.5466675 0.58175854 0)
(4.2918625 0.92921233 0)
(4.9562641 1.1847487 0)
(5.5051512 1.344298 0)
(5.9292382 1.4223272 0)
(6.2358156 1.4393323 0)
(6.4410357 1.4153959 0)
(6.5639704 1.3659987 0)
(6.6220427 1.3021308 0)
(6.6300474 1.231945 0)
(6.6005525 1.1609328 0)
(6.543741 1.0923323 0)
(6.4673139 1.0274704 0)
(6.377431 0.96717543 0)
(6.2788766 0.91171715 0)
(6.1748426 0.86084318 0)
(6.0676932 0.81439531 0)
(5.9593949 0.77229196 0)
(5.8510306 0.7341181 0)
(5.7432524 0.69955994 0)
(5.6371169 0.66803575 0)
(5.533091 0.63974486 0)
(5.4311406 0.61419858 0)
(5.3314183 0.59106685 0)
(5.2341002 0.57011937 0)
(5.1392449 0.55114853 0)
(5.0467838 0.53397205 0)
(4.9566537 0.51838698 0)
(4.8687971 0.50422587 0)
(4.7831302 0.49131643 0)
(4.6994967 0.47950313 0)
(4.6177802 0.46863909 0)
(4.5378669 0.45864225 0)
(4.4596546 0.4494485 0)
(4.3830789 0.44100933 0)
(4.308056 0.43319862 0)
(4.234476 0.42589636 0)
(4.1622254 0.41903683 0)
(4.0912182 0.41260488 0)
(4.0213946 0.40654625 0)
(3.9526885 0.40081509 0)
(3.8850379 0.39536491 0)
(3.8183825 0.39015669 0)
(3.7526658 0.38515391 0)
(3.687834 0.38032384 0)
(3.6238375 0.37563711 0)
(3.5606294 0.37106983 0)
(3.498164 0.36659378 0)
(1.2214139 -0.18734078 0)
(1.5134865 -0.37848609 0)
(1.9094752 -0.26444522 0)
(2.4658386 0.012172486 0)
(3.1049991 0.3585451 0)
(3.764697 0.6860696 0)
(4.3817772 0.94955561 0)
(4.9176974 1.1346985 0)
(5.3549806 1.246547 0)
(5.6921167 1.2989025 0)
(5.9375825 1.3077362 0)
(6.1046036 1.2868454 0)
(6.2069582 1.2469531 0)
(6.2573901 1.1963413 0)
(6.2672997 1.1409054 0)
(6.2462647 1.0843789 0)
(6.2019228 1.0288687 0)
(6.1405798 0.97574275 0)
(6.0672183 0.92571749 0)
(5.9853496 0.87894012 0)
(5.8977456 0.83567844 0)
(5.8066298 0.79595542 0)
(5.7133965 0.7594796 0)
(5.6189145 0.72624674 0)
(5.5245892 0.69554017 0)
(5.4311166 0.66795781 0)
(5.3384681 0.64288633 0)
(5.2470272 0.62004195 0)
(5.1571151 0.59929553 0)
(5.0688929 0.58042646 0)
(4.9823845 0.5632687 0)
(4.8976121 0.54762122 0)
(4.8145923 0.53336393 0)
(4.7332921 0.5203353 0)
(4.6536095 0.50838625 0)
(4.575487 0.49737985 0)
(4.4988644 0.48725408 0)
(4.4236684 0.47792988 0)
(4.3498443 0.46932568 0)
(4.2773296 0.46132572 0)
(4.206051 0.45384798 0)
(4.1359258 0.44682888 0)
(4.0668852 0.44023296 0)
(3.9988789 0.43400818 0)
(3.9318545 0.42810793 0)
(3.865762 0.42248716 0)
(3.8005524 0.41710605 0)
(3.7361791 0.41192842 0)
(3.6725974 0.40692021 0)
(3.6097658 0.4020541 0)
(3.5476439 0.3973009 0)
(3.4861906 0.3926367 0)
(1.2051744 -0.18278045 0)
(1.4442232 -0.38155505 0)
(1.7640257 -0.32729094 0)
(2.2154764 -0.1166939 0)
(2.7530417 0.17626417 0)
(3.3296012 0.47568609 0)
(3.8918744 0.73555029 0)
(4.4017174 0.93504235 0)
(4.8371491 1.071663 0)
(5.1902995 1.1530094 0)
(5.4633121 1.1907493 0)
(5.6641118 1.1963985 0)
(5.8027606 1.1797662 0)
(5.8896031 1.1488285 0)
(5.9345033 1.1095563 0)
(5.9461353 1.0660009 0)
(5.9317743 1.0208349 0)
(5.8975876 0.97590376 0)
(5.8485424 0.93228056 0)
(5.7884009 0.89053138 0)
(5.7201685 0.85125133 0)
(5.6462345 0.81456069 0)
(5.5682884 0.78049607 0)
(5.4872889 0.74918341 0)
(5.4050552 0.71971033 0)
(5.3224951 0.69330934 0)
(5.2394599 0.66909432 0)
(5.1566286 0.64687625 0)
(5.0744508 0.62660293 0)
(4.993176 0.60807504 0)
(4.9129217 0.59115042 0)
(4.8337978 0.57564901 0)
(4.7558955 0.56147557 0)
(4.679227 0.54848399 0)
(4.6037464 0.53653716 0)
(4.5294623 0.52552486 0)
(4.4563534 0.51538072 0)
(4.3843679 0.50599976 0)
(4.3134816 0.49730314 0)
(4.243661 0.48920346 0)
(4.1748603 0.481628 0)
(4.107022 0.47451013 0)
(4.040097 0.46780625 0)
(3.9740482 0.46146627 0)
(3.9088374 0.45544359 0)
(3.8444269 0.4496943 0)
(3.7807799 0.44417874 0)
(3.7178597 0.43886061 0)
(3.6556318 0.4337073 0)
(3.5940623 0.4286886 0)
(3.5331175 0.42377765 0)
(3.4727627 0.41894568 0)
(1.1923571 -0.17545556 0)
(1.3923928 -0.37690813 0)
(1.6537928 -0.36765477 0)
(2.0217379 -0.21289396 0)
(2.4722875 0.029544459 0)
(2.9715138 0.29656452 0)
(3.4763823 0.54443071 0)
(3.9517768 0.74891341 0)
(4.3740738 0.90195313 0)
(4.7312877 1.0058173 0)
(5.0206924 1.0680324 0)
(5.2456901 1.0975249 0)
(5.4128281 1.1027312 0)
(5.5299428 1.0909441 0)
(5.6051406 1.0679264 0)
(5.6459679 1.0378527 0)
(5.6590903 1.0037331 0)
(5.6503004 0.9677736 0)
(5.6244083 0.9313695 0)
(5.5852623 0.89549214 0)
(5.5359483 0.86088844 0)
(5.4790138 0.82792362 0)
(5.4163595 0.7968933 0)
(5.3488489 0.76797866 0)
(5.2788779 0.74040519 0)
(5.2075158 0.71557683 0)
(5.1343125 0.69257574 0)
(5.0603509 0.67132038 0)
(4.9861828 0.65180719 0)
(4.9121316 0.63387979 0)
(4.8384031 0.61742231 0)
(4.7651928 0.60228461 0)
(4.6926647 0.58838861 0)
(4.6208753 0.57560114 0)
(4.5498411 0.56381503 0)
(4.4796226 0.55293416 0)
(4.4102301 0.54286611 0)
(4.3416493 0.53352272 0)
(4.2738919 0.52483624 0)
(4.2069477 0.51673163 0)
(4.1407953 0.50913695 0)
(4.0754031 0.50198828 0)
(4.0107428 0.49523921 0)
(3.9467919 0.48884106 0)
(3.8835268 0.48274813 0)
(3.8209233 0.47691765 0)
(3.7589565 0.47131072 0)
(3.697601 0.46589188 0)
(3.6368314 0.46062878 0)
(3.5766228 0.45549091 0)
(3.5169484 0.45044928 0)
(3.4577803 0.44547895 0)
(1.1820357 -0.166687 0)
(1.3526862 -0.36724792 0)
(1.5689795 -0.39151753 0)
(1.8705947 -0.28323455 0)
(2.2477072 -0.086882344 0)
(2.6771244 0.14624748 0)
(3.1253469 0.37649137 0)
(3.5616727 0.578557 0)
(3.9628708 0.74067528 0)
(4.3147285 0.86084109 0)
(4.6110673 0.94285596 0)
(4.8516547 0.99300095 0)
(5.0399161 1.018065 0)
(5.1812549 1.0243749 0)
(5.2819388 1.0172299 0)
(5.3482626 1.000744 0)
(5.3860691 0.97807681 0)
(5.4006167 0.95164804 0)
(5.3964245 0.92312848 0)
(5.377257 0.89377528 0)
(5.3462026 0.86448793 0)
(5.3058747 0.8359044 0)
(5.2582821 0.80839071 0)
(5.2042432 0.7822087 0)
(5.1465922 0.75762335 0)
(5.086486 0.73458084 0)
(5.0232825 0.71308995 0)
(4.958392 0.69313795 0)
(4.8924524 0.67468946 0)
(4.8258547 0.6576344 0)
(4.7588873 0.64188525 0)
(4.6918272 0.62734298 0)
(4.6249021 0.61393077 0)
(4.5582199 0.60152931 0)
(4.4918544 0.59005982 0)
(4.4259043 0.57943771 0)
(4.360426 0.56956365 0)
(4.2954443 0.56037796 0)
(4.230999 0.55181241 0)
(4.1671053 0.54379843 0)
(4.1037669 0.53626911 0)
(4.0409771 0.5291655 0)
(3.9787286 0.52244053 0)
(3.9170148 0.51604753 0)
(3.8558271 0.50994203 0)
(3.7951551 0.50408307 0)
(3.7349867 0.49843314 0)
(3.6753075 0.49295779 0)
(3.6161023 0.48762506 0)
(3.5573536 0.48240317 0)
(3.499044 0.47726605 0)
(1.173551 -0.15732987 0)
(1.3215414 -0.35442354 0)
(1.5026898 -0.40329673 0)
(1.7515611 -0.33322655 0)
(2.0672838 -0.17786919 0)
(2.4349908 0.021807753 0)
(2.8294682 0.23103868 0)
(3.2249329 0.42511855 0)
(3.5998566 0.59014198 0)
(3.939272 0.72091427 0)
(4.2348085 0.81808142 0)
(4.4834969 0.88541712 0)
(4.6861455 0.92795459 0)
(4.8459307 0.9508669 0)
(4.9673349 0.95880882 0)
(5.055336 0.95564943 0)
(5.1148345 0.94452834 0)
(5.1504273 0.92795979 0)
(5.1662264 0.90779943 0)
(5.165788 0.88548156 0)
(5.1521131 0.8620766 0)
(5.1277641 0.8384113 0)
(5.0947826 0.81492947 0)
(5.0542986 0.79201069 0)
(5.0088749 0.77086524 0)
(4.95973 0.75001878 0)
(4.906681 0.73041938 0)
(4.8510206 0.71211516 0)
(4.793464 0.69504383 0)
(4.7344945 0.67914204 0)
(4.6744845 0.66435636 0)
(4.6137775 0.65064188 0)
(4.5526514 0.63791818 0)
(4.4912722 0.62609104 0)
(4.4297716 0.6150973 0)
(4.3682843 0.60487691 0)
(4.3069075 0.59534086 0)
(4.2457061 0.58643847 0)
(4.1847458 0.57810709 0)
(4.1240689 0.5702855 0)
(4.0637039 0.56291386 0)
(4.0036684 0.55593843 0)
(3.9439755 0.54931354 0)
(3.8846354 0.54299506 0)
(3.8256549 0.53694044 0)
(3.7670381 0.53111127 0)
(3.7087853 0.52547212 0)
(3.650894 0.51998914 0)
(3.5933574 0.51462999 0)
(3.5361696 0.50936522 0)
(3.479319 0.50416958 0)
(1.1664366 -0.14791944 0)
(1.2965432 -0.33970851 0)
(1.4500524 -0.40627016 0)
(1.6568536 -0.36726242 0)
(1.9215256 -0.24771658 0)
(2.2354794 -0.079814321 0)
(2.5803434 0.10674232 0)
(2.9351813 0.2888925 0)
(3.2808996 0.45184211 0)
(3.6028405 0.58820978 0)
(3.8914866 0.69611982 0)
(4.141969 0.77710994 0)
(4.3530217 0.83447848 0)
(4.5258969 0.87217077 0)
(4.6634337 0.89407621 0)
(4.7692902 0.90366107 0)
(4.8473779 0.90389537 0)
(4.9015648 0.89726632 0)
(4.9354529 0.8857319 0)
(4.9522907 0.87082475 0)
(4.9549186 0.85374874 0)
(4.9457704 0.83546071 0)
(4.9268573 0.81655935 0)
(4.8996251 0.79756722 0)
(4.8662074 0.77964721 0)
(4.8278647 0.7616191 0)
(4.7849548 0.7443746 0)
(4.7385698 0.72806183 0)
(4.6894826 0.7126799 0)
(4.63826 0.69821654 0)
(4.5853515 0.68465873 0)
(4.5311538 0.67199697 0)
(4.4759899 0.66016712 0)
(4.4200843 0.64910561 0)
(4.3636208 0.63876761 0)
(4.3067698 0.62910764 0)
(4.2496653 0.62005622 0)
(4.1924098 0.61156835 0)
(4.135096 0.6035907 0)
(4.0777926 0.59607067 0)
(4.0205524 0.58895619 0)
(3.9634164 0.58219895 0)
(3.9064181 0.57575654 0)
(3.8495843 0.56958799 0)
(3.7929378 0.56365359 0)
(3.7364975 0.55791842 0)
(3.6802761 0.55234852 0)
(3.6242814 0.54691028 0)
(3.568519 0.54157378 0)
(3.5129912 0.53631209 0)
(3.4576952 0.53109929 0)
(1.1603631 -0.1387754 0)
(1.2760384 -0.32398273 0)
(1.4075954 -0.40287929 0)
(1.5807127 -0.38882786 0)
(1.8030437 -0.30011845 0)
(2.0706183 -0.1616011 0)
(2.370572 0.0018934729 0)
(2.6863858 0.16954144 0)
(3.0017024 0.32657619 0)
(3.3028743 0.46429042 0)
(3.5800483 0.57891591 0)
(3.8271878 0.67010406 0)
(4.0414896 0.73955431 0)
(4.2226285 0.78999509 0)
(4.3719873 0.82447294 0)
(4.4919814 0.84593962 0)
(4.5855363 0.85708166 0)
(4.6557623 0.86024831 0)
(4.7056991 0.85739432 0)
(4.7382088 0.85011119 0)
(4.755893 0.83968289 0)
(4.7610148 0.82713988 0)
(4.7555074 0.8132275 0)
(4.7409558 0.79858857 0)
(4.7192039 0.7841054 0)
(4.691521 0.76931215 0)
(4.6585993 0.75479989 0)
(4.6214368 0.74081316 0)
(4.5808305 0.72742644 0)
(4.5374114 0.71468275 0)
(4.491692 0.70261153 0)
(4.4441129 0.69123212 0)
(4.395038 0.6805109 0)
(4.3447446 0.67041345 0)