/*--------------------------------*- C++ -*----------------------------------*\
| =========                 |                                                 |
| \\      /  F ield         | OpenFOAM: The Open Source CFD Toolbox           |
|  \\    /   O peration     | Version:  2312                                  |
|   \\  /    A nd           | Website:  www.openfoam.com                      |
|    \\/     M anipulation  |                                                 |
\*---------------------------------------------------------------------------*/
FoamFile
{
    version     2.0;
    format      ascii;
    arch        "LSB;label=32;scalar=64";
    class       volScalarField;
    location    "0.04";
    object      CO2;
}
// * * * * * * * * * * * * * * * * * * * * * * * * * * * * * * * * * * * * * //

dimensions      [0 0 0 0 0 0 0];

internalField   nonuniform List<scalar> 
3257
(
0.0050818259
0.0047839419
0.0045002516
0.0042304167
0.0039740239
0.0037306395
0.0034998209
0.0032811204
0.0030740872
0.0028782699
0.002693218
0.0025184835
0.0023536224
0.0021981964
0.0020517734
0.0019139293
0.0017842486
0.0016623253
0.0015477637
0.0014401787
0.0013391969
0.0012444563
0.0011556071
0.0010723119
0.00099424538
0.00092109501
0.0008525606
0.00078835439
0.00072820091
0.0006718368
0.0006190106
0.00056948249
0.00052302398
0.00047941763
0.00043845667
0.00039994465
0.00036369508
0.000329531
0.00029728464
0.00026679696
0.0002379173
0.00021050297
0.00018441882
0.00015953689
0.00013573591
0.00011290117
9.0924062e-05
6.9701661e-05
4.9136438e-05
2.9135823e-05
9.6120329e-06
0.0050992391
0.0048000109
0.0045150775
0.0042440878
0.0039866202
0.0037422352
0.0035104857
0.0032909198
0.0030830829
0.0028865202
0.0027007777
0.002525404
0.0023599523
0.0022039808
0.0020570548
0.0019187474
0.0017886403
0.001666325
0.0015514033
0.0014434881
0.0013422034
0.0012471854
0.0011580824
0.001074555
0.0009962764
0.00092293229
0.00085422104
0.0007898535
0.0007295529
0.00067305469
0.00062010627
0.0005704668
0.00052390684
0.00048020805
0.00043916285
0.00040057404
0.00036425443
0.00033002645
0.00029772171
0.00026718066
0.00023825215
0.00021079301
0.00018466771
0.00015974773
0.00013591147
0.00011304437
9.1037356e-05
6.9787117e-05
4.9195729e-05
2.9170417e-05
9.6231401e-06
0.0051322963
0.0048305853
0.0045433237
0.0042701571
0.0040106569
0.0037643766
0.0035308616
0.0033096531
0.0031002901
0.002902311
0.0027152555
0.0025386663
0.0023720903
0.0022150804
0.0020671963
0.0019280057
0.0017970854
0.0016740222
0.0015584132
0.0014498669
0.0013480034
0.0012524549
0.001162866
0.0010788939
0.0010002086
0.00092649276
0.00085744194
0.00079276434
0.00073218074
0.00067542429
0.00062224029
0.00057238594
0.00052562996
0.00048175236
0.000440544
0.00040180627
0.00036535064
0.00033099834
0.00029857989
0.00026793469
0.00023891065
0.00021136376
0.00018515764
0.0001601627
0.00013625795
0.00011332715
9.12608e-05
6.995516e-05
4.9311934e-05
2.9237951e-05
9.6448306e-06
0.0051790821
0.0048738713
0.0045833263
0.0043070866
0.0040447149
0.003795755
0.0035597429
0.0033362106
0.0031246877
0.0029247036
0.0027357893
0.0025574788
0.0023893108
0.0022308301
0.0020815886
0.0019411468
0.0018090743
0.001684951
0.0015683678
0.001458927
0.0013562428
0.001259942
0.001169664
0.0010850612
0.0010057989
0.00093155566
0.00086202291
0.00079690517
0.00073591975
0.00067879656
0.00062527793
0.00057511826
0.00052808372
0.00048395194
0.00044251159
0.00040356203
0.0003669129
0.0003323837
0.00029980338
0.0002690099
0.00023984987
0.00021217804
0.00018585591
0.00016075549
0.00013675266
0.00011373093
9.1579984e-05
7.0195389e-05
4.9478216e-05
2.9334716e-05
9.6759934e-06
0.0052378106
0.0049282104
0.0046335478
0.0043534537
0.0040874793
0.0038351569
0.0035960109
0.0033695618
0.0031553275
0.0029528264
0.0027615783
0.0025811067
0.0024109399
0.0022506124
0.0020996668
0.0019576539
0.0018241347
0.0016986806
0.0015808741
0.0014703101
0.0013665954
0.0012693499
0.0011782066
0.0010928118
0.0010128249
0.00093791925
0.00086778121
0.00080211064
0.00074062047
0.00068303659
0.00062909754
0.00057855425
0.00053116968
0.00048671847
0.00044498654
0.00040577074
0.00036887835
0.00033412675
0.00030134291
0.00027036299
0.00024103192
0.00021320146
0.00018673567
0.00016150182
0.00013737561
0.00011423946
9.1982081e-05
7.0498141e-05
4.968789e-05
2.9456831e-05
9.7153761e-06
0.0053067949
0.0049920364
0.0046925352
0.0044079119
0.0041377043
0.0038814309
0.0036386025
0.003408726
0.003191306
0.0029858476
0.0027918578
0.0026088474
0.0024363325
0.0022738359
0.0021208886
0.0019770308
0.0018418127
0.0017147957
0.001595553
0.0014836703
0.0013787458
0.0012803915
0.0011882325
0.0011019079
0.0010210707
0.00094538756
0.00087453917
0.00080821981
0.00074613731
0.00068801279
0.00063358038
0.00058258691
0.00053479157
0.0004899655
0.0004478914
0.00040836314
0.00037118529
0.00033617269
0.00030315001
0.00027195128
0.00024241752
0.00021440401
0.00018776846
0.00016237801
0.000138107
0.00011483658
9.2454301e-05
7.085377e-05
4.9934263e-05
2.9600383e-05
9.7617076e-06
0.0053844552
0.0050638813
0.0047589265
0.0044691987
0.0041942206
0.0039334953
0.0036865181
0.0034527805
0.0032317722
0.0030229832
0.002825906
0.0026400372
0.002464879
0.0022999409
0.0021447411
0.0019988072
0.0018616778
0.0017329029
0.0016120449
0.0014986792
0.0013923946
0.0012927936
0.0011994929
0.0011121234
0.0010303305
0.00095377383
0.00088212733
0.0008150791
0.00075233122
0.00069359943
0.00063861291
0.00058711387
0.00053885724
0.00049361023
0.00045115194
0.00041127287
0.00037377452
0.00033846893
0.00030517819
0.00027373248
0.00024397433
0.00021575357
0.00018892743
0.00016336124
0.00013892774
0.00011550666
9.2984251e-05
7.1252913e-05
5.0210821e-05
2.9761556e-05
9.8137459e-06
0.0054693224
0.00514238
0.0048314541
0.0045361386
0.0042559393
0.0039903424
0.0037388261
0.0035008651
0.0032759325
0.0030635018
0.0028630496
0.0026740566
0.0024960101
0.0023284047
0.0021707445
0.0020225437
0.0018833275
0.0017526338
0.0016300131
0.0015150295
0.0014072611
0.0013063004
0.0012117547
0.0011232461
0.0010404115
0.0009629028
0.00089038663
0.00082254432
0.00075907161
0.00069967841
0.00064408844
0.00059203889
0.00054328003
0.00049757479
0.00045469828
0.00041443739
0.00037659025
0.0003409658
0.00030738176
0.00027566787
0.00024566591
0.00021722037
0.00019018715
0.0001644299
0.00013981976
0.00011623491
9.3560184e-05
7.1686684e-05
5.0511375e-05
2.9936722e-05
9.8703085e-06
0.0055600396
0.0052262714
0.0049089472
0.0046076457
0.0043218544
0.0040510411
0.0037946658
0.0035521848
0.0033230533
0.0031067273
0.0029026658
0.0027103329
0.0025291993
0.0023587439
0.0021984556
0.0020478337
0.0019063897
0.001773648
0.0016491462
0.0015324365
0.0014230856
0.0013206752
0.0012248025
0.0011350798
0.0010511352
0.0009726123
0.00089916987
0.00083048198
0.00076623761
0.00070614037
0.00064990819
0.00059727286
0.00054797969
0.000501787
0.0004584657
0.00041779874
0.00037958069
0.00034361565
0.00030972002
0.00027772461
0.0002474621
0.00021877741
0.00019152414
0.00016556399
0.00014076628
0.00011700756
9.4171174e-05
7.2146814e-05
5.0830165e-05
3.0122501e-05
9.9302932e-06
0.0056553611
0.005314398
0.0049903315
0.0046827238
0.0043910432
0.0041147376
0.0038532479
0.0036060108
0.0033724625
0.0031520401
0.0029441844
0.0027483414
0.0025639645
0.0023905159
0.0022274682
0.0020743052
0.0019305236
0.0017956336
0.0016691594
0.0015506403
0.0014396309
0.0013357017
0.0012384388
0.0011474449
0.0010623384
0.00098275408
0.00090834252
0.00083877012
0.00077371874
0.00071288541
0.00065598189
0.00060273437
0.00055288288
0.00050618096
0.00046239503
0.00042130398
0.00038269702
0.00034637613
0.00031215993
0.00027986812
0.00024933388
0.0002203997
0.00019291692
0.00016674519
0.00014175196
0.00011781205
9.4807228e-05
7.2625736e-05
5.1161916e-05
3.0315798e-05
9.9926915e-06
0.0057541513
0.0054057048
0.0050746279
0.0047604655
0.0044626654
0.0041806549
0.0039138544
0.0036616804
0.0034235489
0.0031988774
0.0029870873
0.0027876059
0.0025998683
0.0024233193
0.0022574142
0.002101621
0.0019554206
0.0018183084
0.0016897947
0.0015694052
0.0014566822
0.0013511839
0.0012524857
0.0011601793
0.0010738737
0.00099319428
0.00091778311
0.00084729865
0.00078141535
0.00071982337
0.00066222815
0.00060834998
0.0005579235
0.00051069722
0.00046643298
0.00042490369
0.00038589586
0.00034921462
0.00031466554
0.00028206897
0.00025125537
0.00022206475
0.00019434612
0.00016795702
0.00014276298
0.00011863704
9.5459342e-05
7.3116635e-05
5.150188e-05
3.0513827e-05
1.0056595e-05
0.0058553806
0.0054992361
0.0051609504
0.0048400501
0.0045359616
0.0042480911
0.0039758373
0.0037185959
0.0034757618
0.0032467321
0.0030309082
0.0028276979
0.0026365174
0.0024567932
0.0022879632
0.0021294785
0.0019808039
0.0018414195
0.0017108211
0.0015885206
0.0014740472
0.0013669469
0.0012667836
0.0011731382
0.0010856094
0.0010038133
0.00092738324
0.00085596935
0.00078923853
0.00072687391
0.00066857442
0.00061405431
0.00056304267
0.00051528288
0.00047053014
0.00042855429
0.00038914566
0.00035209445
0.00031720709
0.00028430092
0.0002532036
0.00022375257
0.00019579452
0.00016918483
0.00014378706
0.00011947247
9.6119526e-05
7.3613464e-05
5.1845843e-05
3.0714118e-05
1.01212e-05
0.0059581229
0.0055941328
0.0052485029
0.0049207408
0.0046102508
0.004316417
0.0040386162
0.0037762222
0.0035286086
0.0032951512
0.0030752308
0.0028682351
0.0026735611
0.0024906164
0.002318821
0.0021576086
0.0020064276
0.0018647423
0.0017320336
0.0016077995
0.0014915557
0.0013828357
0.0012811916
0.0011861933
0.0010974292
0.0010145058
0.00093704725
0.0008646956
0.00079710995
0.00073396625
0.00067495681
0.00061978977
0.00056818857
0.00051988917
0.00047464354
0.00043222581
0.00039240957
0.0003549861
0.00031975848
0.00028654096
0.0002551584
0.00022544565
0.00019724705
0.00017041579
0.00014481348
0.00012030954
9.6780788e-05
7.4110932e-05
5.2190122e-05
3.0914513e-05
1.0185803e-05
0.0060615504
0.005689628
0.0053365755
0.0050018812
0.0046849267
0.0043850735
0.0041016757
0.003834085
0.0035816529
0.0033437336
0.0031196869
0.0029088801
0.0027106902
0.0025245058
0.0023497285
0.0021857745
0.0020320754
0.0018880795
0.0017532525
0.0016270781
0.0015090585
0.0013987147
0.0012955865
0.0011992328
0.0011092315
0.0010251794
0.00094669175
0.00087340195
0.00080496138
0.00074103878
0.00068131977
0.00062550633
0.0005733136
0.00052447443
0.00047874526
0.00043588176
0.00039565881
0.00035786402
0.00032229708
0.00028876918
0.00025710234
0.00022712884
0.00019869065
0.00017163881
0.00014583293
0.00012114064
9.7437098e-05
7.4604483e-05
5.2531547e-05
3.1113154e-05
1.0249801e-05
0.0061649293
0.0057850423
0.0054245402
0.0050828915
0.0047594545
0.0044535676
0.0041645622
0.0038917671
0.0036345115
0.0033921278
0.0031639542
0.0029493374
0.0027476343
0.0025582142
0.00238046
0.0022137701
0.0020575593
0.0019112596
0.0017743216
0.0016462144
0.0015264266
0.0014144664
0.0013098616
0.0012121599
0.0011209288
0.001035755
0.00095624491
0.00088202347
0.0008127342
0.00074803861
0.00068761562
0.000631158
0.00057837811
0.00052901319
0.0004827996
0.0004394945
0.00039886877
0.00036070634
0.00032480358
0.00029096858
0.00025902056
0.00022878925
0.00020011424
0.00017284446
0.00014683754
0.00012195933
9.8083341e-05
7.5090251e-05
5.2867431e-05
3.1308471e-05
1.0312685e-05
0.0062676144
0.0058797794
0.0055118466
0.005163264
0.0048333665
0.0045214691
0.0042268801
0.0039489053
0.0036868513
0.0034400283
0.0032077531
0.0029893513
0.0027841598
0.0025915281
0.0024108207
0.002241418
0.0020827176
0.0019341356
0.0017951071
0.0016650867
0.0015435495
0.0014299906
0.0013239261
0.0012248923
0.0011324463
0.001046165
0.00096564575
0.00089050506
0.00082037869
0.0007549209
0.00069380044
0.00063670779
0.00058335942
0.00053347096
0.00048678045
0.00044304073
0.00040201871
0.00036349471
0.00032726175
0.00029312489
0.0002609006
0.00023041605
0.00020150853
0.00017402485
0.00014782071
0.00012276022
9.8715248e-05
7.5565017e-05
5.3195539e-05
3.1499157e-05
1.037403e-05
0.0063690438
0.005973321
0.0055980168
0.0052425587
0.0049062582
0.0045884065
0.0042882885
0.004005187
0.0037383859
0.0034871732
0.0032508441
0.0030287033
0.0028200671
0.0026242657
0.0024406449
0.0022685672
0.0021074132
0.0019565828
0.0018154957
0.0016835923
0.0015603338
0.0014452029
0.0013377035
0.0012373609
0.0011437215
0.0010563529
0.00097484322
0.00089880069
0.00082785333
0.00076164417
0.0006998404
0.00064213606
0.00058822458
0.00053782349
0.00049066616
0.00044650116
0.0004050915
0.00036621392
0.00032965818
0.00029522636
0.00026273218
0.00023200034
0.00020286587
0.00017517349
0.00014877705
0.00012353888
9.9329328e-05
7.6026151e-05
5.3514047e-05
3.168415e-05
1.0433494e-05
0.0064687335
0.006065221
0.0056826405
0.0053203988
0.0049777835
0.0046540623
0.0043484966
0.0040603463
0.0037888723
0.0035333407
0.0032930249
0.0030672086
0.0028551881
0.0026562741
0.0024697936
0.0022950915
0.0021315314
0.0019784971
0.0018353932
0.0017016457
0.0015767024
0.0014600333
0.0013511306
0.0012495083
0.0011547029
0.0010662722
0.00098379537
0.00090687256
0.00083511939
0.00076817827
0.00070571913
0.00064741172
0.00059295152
0.00054205104
0.00049443912
0.00044986012
0.00040807323
0.00036885169
0.00033198205
0.00029726348
0.00026450703
0.00023353497
0.00020418013
0.00017628521
0.0001497022
0.0001242918
9.9922794e-05
7.6471556e-05
5.3821507e-05
3.1862607e-05
1.0490804e-05
0.0065662716
0.0061551009
0.0057653701
0.0053964654
0.0050476505
0.0047181695
0.0044072605
0.0041141603
0.0038381074
0.0035783455
0.0033341267
0.003104714
0.0028893835
0.0026874267
0.0024981521
0.0023208868
0.0021549779
0.0019997932
0.0018547224
0.0017191772
0.0015925922
0.001474425
0.001364156
0.0012612885
0.0011653488
0.0010758853
0.00099246847
0.00091468497
0.00084215085
0.00077451026
0.0007114077
0.00065251511
0.00059752263
0.00054613793
0.00049808536
0.00045310521
0.00041095292
0.00037139831
0.00033422482
0.00029922878
0.00026621864
0.00023501433
0.0002054465
0.00017735593
0.00015059282
0.00012501623
0.00010049349
7.6899616e-05
5.4116802e-05
3.2033879e-05
1.0545754e-05
0.0066613124
0.0062426438
0.0058459156
0.0054704932
0.0051156168
0.004780507
0.0044643786
0.0041664456
0.0038859241
0.003622036
0.0033740121
0.0031410948
0.0029225404
0.0027176212
0.0025256277
0.0023458695
0.0021776772
0.002020403
0.0018734217
0.0017361313
0.0016079532
0.0014883329
0.0013767392
0.001272665
0.0011756265
0.0010851629
0.0010008301
0.00092221636
0.00084893829
0.00078061359
0.00071688906
0.00065743098
0.00060192435
0.00055007208
0.00050159417
0.00045622694
0.00041372218
0.0003738464
0.00033638002
0.00030111661
0.00026786212
0.00023643418
0.00020666139
0.00017838262
0.00015144636
0.00012571013
0.00010103981
7.7309134e-05
5.4399111e-05
3.2197494e-05
1.0598193e-05
0.0067535713
0.0063275895
0.0059240393
0.0055422658
0.0051814854
0.0048408954
0.004519688
0.0042170543
0.0039321885
0.0036642908
0.0034125712
0.0031762516
0.002954569
0.0027467768
0.0025521476
0.0023699739
0.0021995702
0.0020402732
0.0018914434
0.0017524651
0.001622747
0.0015017225
0.0013888494
0.0012836101
0.0011855111
0.0010940761
0.0010088635
0.00092946098
0.00085545779
0.00078647401
0.0007221505
0.00066214806
0.00060614667
0.00055384462
0.0005049577
0.00045921837
0.00041637491
0.00037619061
0.00033844297
0.00030292289
0.00026943393
0.00023779151
0.00020782222
0.00017936313
0.00015226108
0.00012637207
0.00010156064
7.7699283e-05
5.466787e-05
3.2353129e-05
1.0648018e-05
0.0068428192
0.0064097293
0.0059995515
0.0056116106
0.0052450997
0.0048991932
0.0045730605
0.0042658707
0.0039767961
0.0037050159
0.0034497192
0.0032101084
0.0029854008
0.002774832
0.0025776566
0.0023931506
0.0022206125
0.0020593643
0.0019087521
0.001768147
0.0016369453
0.0015145686
0.0014004641
0.0012941038
0.0011949778
0.0011026131
0.0010165666
0.00093639765
0.00086169801
0.0007920815
0.00072718317
0.00066665853
0.00061018269
0.00055744948
0.00050817061
0.00046207481
0.00041890698
0.00037842732
0.00034041053
0.00030464493
0.00027093177
0.00023908435
0.00020892735
0.00018029608
0.00015303583
0.00012700116
0.0001020553
7.8069557e-05
5.4922739e-05
3.2500591e-05
1.069517e-05
0.0069288767
0.0064889009
0.0060723053
0.0056783951
0.0053063403
0.0049552926
0.0046243993
0.0043128077
0.0040196689
0.0037441412
0.0034853937
0.0032426091
0.0030149861
0.0028017423
0.0026021151
0.0024153644
0.0022407731
0.0020776485
0.0019253232
0.0017831552
0.0016505288
0.0015268543
0.0014115681
0.0013041251
0.0012040194
0.0011107754
0.0010239211
0.00094301812
0.00086765176
0.00079742975
0.00073198156
0.00067095758
0.0006140282
0.00056088297
0.00051122968
0.00046479348
0.000421316
0.00038055449
0.00034228093
0.00030628122
0.00027235435
0.00024031162
0.00020997587
0.00018118076
0.00015377006
0.00012759695
0.00010252345
7.8419721e-05
5.5163565e-05
3.26398e-05
1.0739627e-05
0.0070116097
0.0065649835
0.0061421924
0.0057425222
0.0053651201
0.0050091159
0.0046736351
0.0043578038
0.0040607522
0.0037816184
0.0035195517
0.0032737159
0.0030432914
0.0028274783
0.0026254974
0.0024365926
0.0022600319
0.0020951085
0.0019411415
0.0017974765
0.001663486
0.0015385694
0.0014221449
0.001313672
0.0012126415
0.0011185481
0.001030922
0.00094931812
0.00087331539
0.00080251565
0.00073654302
0.00067504294
0.00061768129
0.00056414348
0.00051413356
0.00046737324
0.00042360103
0.00038257133
0.00034405356
0.00030783126
0.00027370129
0.00024147304
0.00021096759
0.00018201701
0.00015446365
0.00012815939
0.00010296505
7.874977e-05
5.5390359e-05
3.2770768e-05
1.0781395e-05
0.007090924
0.0066378936
0.0062091386
0.005803926
0.0054213812
0.0050606121
0.0047207231
0.0044008197
0.0041000118
0.0038174176
0.0035521675
0.0033034065
0.0030702976
0.0028520236
0.0026477894
0.0024568234
0.002278379
0.0021117358
0.0019562
0.001811105
0.0016758121
0.0015497019
0.0014321973
0.0013227541
0.0012208324
0.0011259293
0.001037568
0.00095529672
0.00087868825
0.00080733881
0.00074086734
0.00067891455
0.00062114199
0.00056723115
0.00051688245
0.00046981434
0.00042576236
0.00038447818
0.00034572875
0.00030929539
0.00027497294
0.00024256894
0.00021190282
0.00018280515
0.00015511689
0.00012868872
0.00010338035
7.9059894e-05
5.5603263e-05
3.2893587e-05
1.0820509e-05
0.0071667606
0.0067075809
0.0062730999
0.0058625688
0.0054750911
0.0051097534
0.00476564
0.0044418359
0.0041374314
0.0038515256
0.0035832302
0.0033316725
0.003095998
0.0028753733
0.0026689875
0.0024760543
0.002295813
0.0021275298
0.0019704987
0.0018240413
0.0016874998
0.0015602592
0.0014417388
0.0013313627
0.0012285935
0.0011329208
0.001043861
0.00096095585
0.00088377227
0.00081190109
0.00074495632
0.00068257414
0.00062441198
0.00057014756
0.00051947786
0.00047211821
0.00042780131
0.00038627625
0.00034730764
0.00031067468
0.00027617027
0.00024360022
0.00021278237
0.00018354587
0.00015573041
0.0001291855
0.00010376978
7.9350439e-05
5.580253e-05
3.3008411e-05
1.085702e-05
0.0072390911
0.0067740245
0.0063340592
0.0059184368
0.0055262392
0.0051565325
0.0048083807
0.0044808495
0.0041730101
0.003883943
0.003612742
0.0033585168
0.0031203966
0.0028975319
0.0026890968
0.0024942907
0.0023123393
0.0021424962
0.0019840432
0.001836283
0.001698561
0.0015702593
0.0014507644
0.001339503
0.0012359298
0.0011395274
0.0010498055
0.00096629975
0.00088857142
0.00081620623
0.00074881345
0.00068602496
0.00062749427
0.00057289549
0.00052192235
0.00047428721
0.00042972006
0.00038796755
0.00034879205
0.00031197075
0.00027729475
0.00024456817
0.00021360739
0.00018424021
0.00015630509
0.00012965045
0.00010413395
7.9621879e-05
5.59885e-05
3.3115449e-05
1.0891e-05
0.0073079132
0.0068372309
0.0063920242
0.0059715378
0.0055748345
0.0052009592
0.0048489562
0.0045178724
0.0042067603
0.0039146827
0.0036407157
0.0033839525
0.0031435062
0.0029185121
0.0027081298
0.0025115447
0.0023279697
0.0021566462
0.0019968367
0.0018478462
0.0017090181
0.0015797005
0.0014592827
0.001347183
0.001242849
0.0011457563
0.0010554081
0.00097133457
0.00089309142
0.00082025949
0.00075244358
0.00068927148
0.00063039295
0.0005754787
0.00052421937
0.00047632448
0.00043152146
0.00038955465
0.00035018431
0.00031318572
0.00027834824
0.00024547447
0.00021437936
0.00018488943
0.00015684201
0.00013008448
0.0001044736
7.987479e-05
5.6161584e-05
3.3214945e-05
1.0922532e-05
0.0073732514
0.0068972287
0.0064470259
0.0060218984
0.0056209023
0.0052430583
0.004887391
0.0045529285
0.0042387056
0.0039437674
0.0036671734
0.0034080009
0.0031653474
0.0029383335
0.0027261049
0.0025278339
0.0023427209
0.0021699883
0.0020088992
0.0018587579
0.0017188731
0.0015885951
0.0014673048
0.0013544133
0.0012493607
0.0011516163
0.0010606772
0.000976068
0.00089733932
0.00082406737
0.00075585268
0.00069231916
0.00063311303
0.00057790176
0.00052637305
0.00047823377
0.00043320891
0.00039104062
0.00035148717
0.00031432203
0.00027933296
0.00024632106
0.00021509996
0.000185495
0.00015734243
0.00013048866
0.00010478957
8.0109825e-05
5.6322248e-05
3.3307179e-05
1.0951708e-05
0.0074351861
0.0069540418
0.0064991046
0.0060695601
0.0056644813
0.005282867
0.0049237208
0.0045860522
0.0042688786
0.0039712284
0.003692145
0.0034306902
0.0031859468
0.0029570212
0.0027430459
0.0025431804
0.0023566069
0.0021825461
0.0020202623
0.0018690239
0.0017281415
0.0015969574
0.0014748444
0.0013612063
0.0012554765
0.0011571181
0.0010656225
0.00098050895
0.0009013233
0.00082763734
0.00075904757
0.00069517422
0.00063566015
0.0005801698
0.00052838806
0.0004800193
0.00043478622
0.00039242889
0.0003527037
0.00031538245
0.00028025133
0.00024711008
0.00021577108
0.00018605855
0.00015780773
0.00013086412
0.0001050828
8.0327696e-05
5.6470993e-05
3.3392452e-05
1.0978629e-05
0.0070077534
0.0065483049
0.0061145694
0.0057056198
0.0053204322
0.0049579905
0.0046172863
0.00429732
0.0039971041
0.0037156665
0.0034520543
0.003205336
0.0029746049
0.0027589803
0.0025576043
0.002369655
0.0021943563
0.0020309356
0.0018786632
0.0017368413
0.0016048039
0.0014819165
0.0013675759
0.0012612092
0.0011622735
0.0010702548
0.00098466725
0.00090505234
0.00083097759
0.00076203572
0.00069784346
0.00063804051
0.00058228842
0.00053026948
0.00048168566
0.00043625752
0.00039372316
0.00035383723
0.00031636991
0.00028110596
0.00024784382
0.00021639471
0.00018658179
0.00015823936
0.00013121207
0.00010535425
8.0529155e-05
5.6608354e-05
3.347108e-05
1.1003401e-05
0.007058306
0.0065946608
0.0061569804
0.0057443744
0.0053558093
0.0049902529
0.0046466804
0.0043240765
0.0040214382
0.0037377789
0.0034721314
0.0032235509
0.0029911177
0.0027739342
0.002571136
0.0023819066
0.0022054321
0.0020409417
0.0018876969
0.0017449917
0.0016121524
0.0014885376
0.0013735372
0.0012665726
0.001167095
0.0010745855
0.00098855343
0.00090853603
0.00083409688
0.00076482508
0.00070033411
0.00064026066
0.00058426357
0.00053202266
0.00048323768
0.00043762714
0.00039492733
0.00035489122
0.0003172875
0.00028189959
0.00024852469
0.00021697295
0.00018706653
0.00015863885
0.00013153379
0.00010560495
8.0714978e-05
5.6734877e-05
3.354339e-05
1.102613e-05
0.0071059106
0.0066382707
0.0061968673
0.0057808123
0.0053890611
0.0050205669
0.0046742899
0.0043491998
0.0040442791
0.0037585272
0.0034909634
0.0032406303
0.0030065915
0.002787941
0.0025838219
0.0023933789
0.0022157999
0.002050305
0.0018961474
0.0017526133
0.0016190219
0.0014947248
0.0013791061
0.001271581
0.0011715959
0.0010786267
0.0009921785
0.00091178441
0.00083700432
0.00076742394
0.00070265367
0.00064232738
0.00058610138
0.00053365316
0.00048468035
0.00043889958
0.00039604541
0.00035586926
0.00031813841
0.00028263501
0.00024915515
0.00021750793
0.0001875146
0.00015900776
0.00013183055
0.00010583594
8.0885958e-05
5.6851121e-05
3.3609712e-05
1.1046927e-05
0.0071506523
0.0066792268
0.0062343118
0.0058150077
0.0054202563
0.0050489966
0.0047001744
0.0043727454
0.0040656783
0.0037779593
0.0035085948
0.0032566118
0.0030210632
0.0028010524
0.0025956832
0.0024041019
0.0022254872
0.0020590508
0.001904038
0.0017597276
0.0016254319
0.0015004963
0.0013842988
0.0012762496
0.0011757897
0.0010823908
0.00099555376
0.00091480775
0.00083970925
0.00076984077
0.00070480981
0.00064424764
0.00058780812
0.0005351666
0.00048601875
0.00044007939
0.00039708147
0.00035677497
0.00031892585
0.00028331509
0.00024973769
0.00021800181
0.00018792785
0.00015934765
0.00013210366
0.00010604824
8.1042889e-05
5.6957646e-05
3.3670378e-05
1.1065902e-05
0.007192616
0.0067176201
0.006269399
0.0058470394
0.0054494678
0.0050756095
0.0047243967
0.0043947716
0.00408569
0.0037961253
0.0035250692
0.0032715356
0.0030345892
0.0028132934
0.0026067535
0.0024141065
0.0022345224
0.0020672052
0.0019113925
0.0017663563
0.0016314023
0.0015058701
0.0013891321
0.0012805934
0.0011796904
0.0010858905
0.00099869067
0.00091761647
0.00084222111
0.00077208413
0.0007068103
0.00064602841
0.00058939011
0.0005365687
0.00048725798
0.00044117114
0.00039803961
0.000357612
0.00031965306
0.00028394264
0.00025027479
0.00021845675
0.00018830814
0.00015966008
0.00013235441
0.00010624289
8.118656e-05
5.7055005e-05
3.3725717e-05
1.1083162e-05
0.0072318967
0.006753544
0.006302217
0.0058769888
0.0054767713
0.0051004759
0.0047470219
0.0044153388
0.00410437
0.0038130746
0.00354043
0.0032854632
0.0030471987
0.0028247013
0.0026170669
0.0024234239
0.0022429344
0.0020747946
0.0019182352
0.0017725215
0.0016369534
0.0015108647
0.0013936228
0.0012846278
0.0011833119
0.0010891385
0.0010016007
0.000920221
0.00084454936
0.00077416256
0.00070866285
0.0006476767
0.00059085364
0.00053786509
0.00048840313
0.00044217939
0.00039892388
0.00035838396
0.00032032322
0.0002845205
0.00025076891
0.00021887488
0.0001886573
0.00015994661
0.00013258406
0.00010642092
8.131775e-05
5.7143747e-05
3.3776053e-05
1.1098815e-05
0.0072685959
0.0067870945
0.0063328557
0.0059049398
0.0055022442
0.0051236675
0.0047681165
0.0044345084
0.0041217732
0.0038288543
0.0035547435
0.0032984277
0.0030589326
0.0028353135
0.0026266578
0.0024320859
0.002250752
0.0020818454
0.0019245901
0.0017782454
0.0016421053
0.0015154985
0.0013977875
0.0012883679
0.001186668
0.0010921472
0.0010042954
0.00092263168
0.00084670336
0.00077608456
0.00071037512
0.00064919939
0.00059220493
0.00053906138
0.00048945922
0.00044310862
0.00039973829
0.0003590944
0.00032093948
0.00028505142
0.00025122248
0.00021925831
0.00018897711
0.00016020873
0.00013279386
0.00010658331
8.1437218e-05
5.7224404e-05
3.3821701e-05
1.1112963e-05
0.0073028182
0.0068183694
0.0063614061
0.0059309768
0.005525965
0.0051452569
0.0047877474
0.0044523409
0.0041379507
0.0038435354
0.0035680471
0.0033104738
0.0030698317
0.0028451676
0.0026355608
0.0024401238
0.0022580041
0.002088384
0.0019304814
0.0017835499
0.0016468781
0.0015197897
0.0014016428
0.001291829
0.0011897724
0.0010949291
0.0010067858
0.0009248587
0.00084869233
0.00077785844
0.00071195465
0.00065060328
0.00059345008
0.00054016305
0.00049043115
0.00044396322
0.00040048675
0.0003597468
0.00032150492
0.00028553812
0.00025163785
0.00021960907
0.00018926933
0.00016044791
0.00013298504
0.00010673105
8.1545704e-05
5.7297494e-05
3.3862966e-05
1.1125709e-05
0.0073346699
0.0068474675
0.00638796
0.0059551849
0.0055480124
0.0051653169
0.0048059809
0.0044688915
0.0041529779
0.0038571595
0.0035803891
0.0033216456
0.0030799365
0.0028543007
0.0026438097
0.002447569
0.0022647191
0.0020944363
0.0019359328
0.0017884565
0.0016512913
0.0015237562
0.0014052051
0.0012950256
0.0011926385
0.0010974964
0.0010090831
0.00092691203
0.0008505253
0.00077949235
0.00071340876
0.00065189497
0.00059459505
0.00054117543
0.00049132372
0.00044474747
0.00040117307
0.00036034454
0.00032202253
0.00028598322
0.00025201732
0.00021992914
0.00018953564
0.0001606656
0.00013315876
0.00010686506
8.1643919e-05
5.7363517e-05
3.3900143e-05
1.1137147e-05
0.0073642574
0.0068744874
0.0064126088
0.0059776487
0.0055684647
0.0051839188
0.0048228763
0.0044842401
0.0041669008
0.0038697786
0.0035918171
0.0033319868
0.0030892872
0.0028627495
0.0026514381
0.0024544518
0.002270925
0.0021000279
0.0019409674
0.0017929864
0.0016553642
0.0015274155
0.0014084902
0.0012979723
0.0011952793
0.0010998609
0.0010111979
0.00092880138
0.00085221103
0.00078099422
0.0007147446
0.0006530809
0.0005956456
0.00054210372
0.00049214156
0.00044546552
0.00040180094
0.0003608909
0.0003224952
0.00028638925
0.0002523631
0.00022022043
0.00018977769
0.00016086315
0.00013331615
0.00010698625
8.173255e-05
5.7422953e-05
3.3933516e-05
1.1147372e-05
0.0073916866
0.0068995269
0.006435443
0.005998452
0.0055873984
0.0052011269
0.0048385179
0.0044984369
0.0041797751
0.0038814436
0.0036023779
0.0033415402
0.0030979229
0.0028705499
0.0026584789
0.0024608024
0.002276649
0.0021051836
0.0019456079
0.0017971603
0.0016591155
0.0015307845
0.0014115135
0.0013006831
0.0011977076
0.0011020341
0.0010131407
0.00093053616
0.00085375801
0.00078237169
0.00071596908
0.00065416728
0.00059660732
0.00054295291
0.00049288914
0.00044612136
0.00040237391
0.00036138902
0.0003229257
0.00028675866
0.00025267731
0.00022048479
0.00018999703
0.00016104188
0.00013345829
0.00010709548
8.1812252e-05
5.7476261e-05
3.3963354e-05
1.1156471e-05
0.0074170617
0.0069226826
0.0064565519
0.0060176763
0.0056048825
0.0052170291
0.0048529601
0.0045115414
0.0041916552
0.0038922046
0.0036121171
0.0033503479
0.0031058819
0.0028777368
0.0026649638
0.0024666498
0.0022819178
0.0021099276
0.0019498764
0.001800998
0.0016625635
0.0015338798
0.00141429
0.0013031714
0.0011999357
0.0011040271
0.0010149215
0.00093212542
0.00085517443
0.00078363215
0.00071708883
0.00065516008
0.00059748558
0.00054372781
0.00049357078
0.00044671882
0.0004028954
0.00036184193
0.0003233167
0.00028709377
0.00025296198
0.00022072396
0.00019019517
0.00016120306
0.00013358622
0.00010719358
8.1883652e-05
5.7523878e-05
3.3989916e-05
1.1164529e-05
0.0074404854
0.0069440491
0.0064760218
0.0060353957
0.0056210088
0.0052316844
0.0048662662
0.0045236114
0.0042025942
0.0039021101
0.0036210794
0.0033584504
0.0031132015
0.0028843441
0.0026709239
0.0024720222
0.0022867569
0.0021142833
0.0019537939
0.001804519
0.0016657255
0.0015367173
0.001416834
0.0013054504
0.0012019753
0.0011058506
0.00101655
0.0009335779
0.00085646816
0.00078478269
0.00071811024
0.00065606503
0.00059828551
0.00054443303
0.00049419058
0.00044726159
0.00040336867
0.00036225252
0.00032367075
0.00028739683
0.00025321907
0.00022093962
0.00019037353
0.00016134788
0.00013370093