/*--------------------------------*- C++ -*----------------------------------*\
| =========                 |                                                 |
| \\      /  F ield         | OpenFOAM: The Open Source CFD Toolbox           |
|  \\    /   O peration     | Version:  2312                                  |
|   \\  /    A nd           | Website:  www.openfoam.com                      |
|    \\/     M anipulation  |                                                 |
\*---------------------------------------------------------------------------*/
FoamFile
{
    version     2.0;
    format      ascii;
    arch        "LSB;label=32;scalar=64";
    class       volScalarField;
    location    "0.04";
    object      f_Bilger;
}
// * * * * * * * * * * * * * * * * * * * * * * * * * * * * * * * * * * * * * //

dimensions      [0 0 0 0 0 0 0];

internalField   nonuniform List<scalar> 
3257
(
0.0024714262
0.0023105054
0.0021588817
0.0020161165
0.0018817878
0.001755486
0.0016368129
0.0015253827
0.0014208221
0.0013227706
0.0012308803
0.001144816
0.0010642556
0.00098888948
0.0009184207
0.00085256485
0.00079104985
0.00073361571
0.00068001433
0.00063000923
0.00058337526
0.00053989828
0.00049937489
0.00046161201
0.00042642664
0.00039364543
0.00036310432
0.00033464822
0.00030813061
0.00028341316
0.0002603654
0.00023886432
0.00021879403
0.00020004539
0.00018251567
0.00016610822
0.0001507321
0.00013630181
0.00012273694
0.00010996188
9.7905524e-05
8.6500997e-05
7.5685382e-05
6.5399468e-05
5.5587452e-05
4.6196816e-05
3.7178054e-05
2.8484438e-05
2.0071838e-05
1.1898489e-05
3.9248547e-06
0.002479319
0.0023177429
0.0021655133
0.002022188
0.0018873423
0.0017605633
0.0016414504
0.0015296151
0.0014246818
0.0013262877
0.0012340828
0.00114773
0.001066905
0.00099129669
0.00092060629
0.00085454786
0.00079284783
0.00073524482
0.00068148945
0.00063134402
0.00058458226
0.00054098898
0.00050035982
0.0004625008
0.00042722808
0.00039436755
0.00036375444
0.000335233
0.00030865612
0.00028388491
0.0002607884
0.0002392431
0.00021913271
0.0002003477
0.00018278497
0.00016634756
0.00015094423
0.0001364892
0.00012290182
0.00011010626
9.8031203e-05
8.660959e-05
7.5778336e-05
6.5478012e-05
5.5652685e-05
4.624988e-05
3.7219909e-05
2.8515901e-05
2.0093579e-05
1.1911109e-05
3.928881e-06
0.0024942328
0.0023314267
0.0021780578
0.0020336785
0.0018978587
0.0017701804
0.001650238
0.0015376386
0.0014320021
0.0013329613
0.0012401623
0.0011532644
0.0010719396
0.00099587333
0.00092476384
0.00085832216
0.00079627193
0.00073834918
0.0006843021
0.00063389072
0.00058688665
0.00054307276
0.00050224283
0.00046420123
0.00042876253
0.00039575117
0.00036500106
0.00033635523
0.0003096654
0.00028479169
0.00026160213
0.00023997238
0.00021978533
0.00020093071
0.00018330477
0.0001668099
0.00015135433
0.00013685176
0.00012322107
0.00011038601
9.8274876e-05
8.6820249e-05
7.5958714e-05
6.5630415e-05
5.5779626e-05
4.6353232e-05
3.7301379e-05
2.8577024e-05
2.0135743e-05
1.1935548e-05
3.9367031e-06
0.0025152979
0.0023507576
0.0021957818
0.0020499155
0.0019127211
0.0017837735
0.0016626604
0.0015489822
0.0014423526
0.0013423986
0.0012487607
0.0011610927
0.0010790618
0.0010023486
0.00093064695
0.00086366367
0.00080111851
0.00074274383
0.00068828438
0.000637497
0.00059015032
0.00054602444
0.00050491057
0.00046661069
0.00043093716
0.00039771239
0.0003667684
0.00033794648
0.00031109677
0.0002860779
0.00026275656
0.00024100719
0.00022071152
0.00020175826
0.0001840427
0.00016746638
0.00015193672
0.00013736673
0.0001236746
0.0001107835
9.8621168e-05
8.7119705e-05
7.6214865e-05
6.5847333e-05
5.5960218e-05
4.650028e-05
3.7417348e-05
2.8664103e-05
2.0195876e-05
1.1970456e-05
3.9479097e-06
0.0025416856
0.0023749736
0.0022179857
0.0020702572
0.0019313413
0.001800804
0.0016782245
0.001563195
0.0014553214
0.0013542235
0.0012595346
0.0011709019
0.0010879864
0.0010104628
0.00093801932
0.00087035757
0.00080719238
0.00074825154
0.00069327548
0.00064201706
0.00059424115
0.0005497244
0.00050825479
0.0004696313
0.00043366355
0.00040017137
0.00036898444
0.00033994186
0.00031289178
0.00028769098
0.00026420448
0.00024230516
0.00022187333
0.0002027964
0.00018496848
0.00016829003
0.00015266748
0.00013801292
0.00012424374
0.00011128235
9.9055807e-05
8.7495041e-05
7.6536697e-05
6.6119683e-05
5.6186996e-05
4.6684968e-05
3.7563043e-05
2.8773549e-05
2.0271501e-05
1.2014397e-05
3.9620384e-06
0.0025726122
0.0024033539
0.0022440067
0.0020940948
0.0019531605
0.0018207595
0.0016964607
0.001579847
0.0014705152
0.0013680764
0.0012721555
0.0011823923
0.0010984401
0.0010199668
0.000946654
0.00087819727
0.00081430565
0.00075470152
0.00069912029
0.00064731009
0.00059903144
0.00055405689
0.00051217064
0.00047316818
0.00043685588
0.00040305057
0.00037157915
0.0003422782
0.0003149935
0.00028957969
0.00026589981
0.00024382491
0.00022323365
0.00020401193
0.00018605246
0.00016925442
0.00015352311
0.00013876954
0.00012491015
0.00011186645
9.9564013e-05
8.793496e-05
7.6913554e-05
6.6438609e-05
5.6452572e-05
4.6901277e-05
3.7733709e-05
2.8901785e-05
2.0360139e-05
1.2065923e-05
3.9786198e-06
0.0026073434
0.0024352223
0.002273223
0.0021208568
0.0019776539
0.0018431581
0.0017169274
0.0015985337
0.0014875636
0.0013836183
0.0012863138
0.0011952808
0.0011101645
0.0010306249
0.00095633626
0.00088698722
0.00082228034
0.00076193191
0.00070567169
0.00065324249
0.00060439991
0.00055891192
0.00051655845
0.00047713106
0.00044043245
0.00040627611
0.00037448581
0.00034489526
0.00031734763
0.00029169511
0.00026779852
0.00024552689
0.00022475702
0.00020537307
0.00018726623
0.00017033424
0.0001544811
0.00013961664
0.00012565623
0.00011251987
0.00010013358
8.8427409e-05
7.7335379e-05
6.6795578e-05
5.6749824e-05
4.7143387e-05
3.7924741e-05
2.9045335e-05
2.0459376e-05
1.2123624e-05
3.9971955e-06
0.0026451972
0.0024699507
0.0023050564
0.0021500115
0.0020043329
0.0018675517
0.0017392133
0.001618878
0.0015061212
0.0014005335
0.0013017206
0.0012093036
0.0011229187
0.0010422173
0.00096686564
0.00089654477
0.00083095014
0.00076979142
0.00071279212
0.00065968929
0.00061023312
0.00056418655
0.0005213249
0.00048143539
0.00044431676
0.00040977878
0.00037764186
0.00034773657
0.0003199032
0.00029399131
0.00026985931
0.00024737398
0.0002264101
0.00020684999
0.00018858311
0.00017150568
0.00015552026
0.00014053542
0.00012646477
0.00011322803
0.00010075084
8.8961238e-05
7.779266e-05
6.7182532e-05
5.7072023e-05
4.7405799e-05
3.8131781e-05
2.920091e-05
2.0566925e-05
1.2186159e-05
4.0173294e-06
0.0026855451
0.0025069602
0.002338974
0.0021810689
0.0020327474
0.0018935267
0.0017629392
0.0016405324
0.0015258698
0.0014185305
0.0013181093
0.0012242171
0.0011364803
0.0010545411
0.00097805716
0.00090670139
0.00084016163
0.00077814043
0.00072035466
0.00066653515
0.00061642633
0.00056978579
0.00052638385
0.00048600314
0.00044843813
0.00041349467
0.00038098954
0.00035074997
0.00032261318
0.00029642592
0.000272044
0.00024933186
0.00022816211
0.00020841507
0.00018997841
0.0001727467
0.00015662098
0.00014150789
0.00012732042
0.00011397855
0.00010140449
8.9526346e-05
7.8276643e-05
6.7592018e-05
5.7412934e-05
4.7683412e-05
3.8350784e-05
2.9365451e-05
2.0680659e-05
1.2252282e-05
4.0386158e-06
0.0027278123
0.0025457213
0.0023744887
0.0022135811
0.0020624857
0.0019207054
0.0017877584
0.0016631793
0.0015465185
0.0014373432
0.0013352367
0.001239799
0.0011506463
0.0010674112
0.00098974204
0.00091730331
0.00084977482
0.00078685161
0.00072824353
0.00067367491
0.00062288409
0.00057562302
0.00053165679
0.00049076319
0.0004527322
0.00041736555
0.00038447622
0.00035388793
0.00032543469
0.00029896029
0.00027431784
0.0002513693
0.000229985
0.0002100432
0.00019142967
0.00017403725
0.00015776483
0.0001425181
0.00012821072
0.00011475848
0.00010208368
9.0113414e-05
7.8779329e-05
6.8017242e-05
5.7766874e-05
4.7971574e-05
3.8578061e-05
2.9536172e-05
2.0798637e-05
1.2320856e-05
4.0606848e-06
0.0027714769
0.0025857535
0.0024111584
0.0022471416
0.0020931747
0.0019487453
0.0018133572
0.001686531
0.001567804
0.0014567308
0.0013528827
0.0012558484
0.0011652334
0.0010806602
0.0010017679
0.00092821175
0.00085966341
0.00079581009
0.00073635437
0.00068101379
0.00062952038
0.00058162023
0.00053707301
0.00049565149
0.00045714101
0.00042133902
0.00038805456
0.00035710773
0.0003283292
0.00030155972
0.0002766496
0.00025345822
0.00023185358
0.0002117118
0.0001929167
0.0001753587
0.0001589355
0.00014355377
0.00012912225
0.00011555686
0.00010277876
9.0714088e-05
7.929354e-05
6.8452103e-05
5.8128741e-05
4.8266111e-05
3.8810299e-05
2.9710568e-05
2.0919118e-05
1.2390862e-05
4.0832043e-06
0.002816069
0.0026266244
0.0024485855
0.0022813854
0.0021244792
0.001977339
0.0018394538
0.0017103297
0.0015894904
0.0014764776
0.0013708502
0.0012721854
0.0011800775
0.0010941388
0.0010139984
0.00093930274
0.00086971467
0.00080491342
0.00074459411
0.0006884673
0.00063625856
0.00058770795
0.00054256959
0.00050061109
0.00046161304
0.00042536852
0.00039168251
0.00036037141
0.0003312625
0.00030419339
0.00027901154
0.00025557371
0.0002337455
0.00021340087
0.0001944209
0.00017669468
0.0001601211
0.00014460122
0.00013004393
0.00011636391
0.00010348123
9.1320975e-05
7.9812921e-05
6.8891207e-05
5.8494025e-05
4.8563332e-05
3.9044574e-05
2.988643e-05
2.1040564e-05
1.2461398e-05
4.1058817e-06
0.0028611687
0.0026679477
0.0024864152
0.0023159865
0.0021561003
0.0020062128
0.0018657974
0.0017343459
0.001611368
0.001496392
0.0013889645
0.0012886505
0.0011950333
0.0011077145
0.0010263133
0.00095046678
0.00087982905
0.00081407119
0.00075288068
0.00069596102
0.00064303115
0.00059382507
0.0005480912
0.00050559193
0.00046610304
0.00042941315
0.00039532315
0.0003636457
0.0003342046
0.00030683432
0.0002813794
0.00025769398
0.00023564123
0.00021509207
0.00019592617
0.00017803392
0.00016130794
0.00014564947
0.00013096606
0.00011717114
0.00010418365
9.1927629e-05
8.0331936e-05
6.9329852e-05
5.8858797e-05
4.8860024e-05
3.9278338e-05
3.0061833e-05
2.1161638e-05
1.2531683e-05
4.1284627e-06
0.0029064037
0.0027093817
0.0025243336
0.0023506572
0.0021877745
0.0020351251
0.0018921673
0.0017583779
0.0016332525
0.001516306
0.0014070721
0.001305104
0.0012099736
0.0011212715
0.0010386072
0.00096160816
0.00088991966
0.00082320453
0.00076114258
0.00070343011
0.00064977946
0.00059991843
0.00055358976
0.00051055056
0.00047057176
0.00043343749
0.00039894454
0.00036690178
0.00033712956
0.00030945916
0.00028373222
0.00025980021
0.00023752293
0.00021676986
0.00019742205
0.00017936291
0.00016248534
0.00014668909
0.00013188032
0.00011797123
0.00010487962
9.2528516e-05
8.0845831e-05
6.9764005e-05
5.9219689e-05
4.9153435e-05
3.9509412e-05
3.0235133e-05
2.1281198e-05
1.2601048e-05
4.1507308e-06
0.0029514476
0.0027506263
0.0025620658
0.0023851457
0.002219271
0.0020638651
0.0019183707
0.0017822496
0.0016549833
0.001536073
0.0014250398
0.0013214246
0.0012247879
0.0011347097
0.0010507891
0.00097264425
0.00089991153
0.0008322455
0.00076931822
0.00071081885
0.00065645304
0.00060594243
0.00055902405
0.00051544974
0.00047498558
0.00043741122
0.00040251936
0.00037011507
0.00034001525
0.00031204802
0.00028605212
0.00026187525
0.00023937586
0.00021842475
0.00019889536
0.00018067145
0.00016364427
0.00014771207
0.00013277965
0.00011875799
0.00010556375
9.3118955e-05
8.1350591e-05
7.0190263e-05
5.9573859e-05
4.9441244e-05
3.9735959e-05
3.0404946e-05
2.1398283e-05
1.2668934e-05
4.1725044e-06
0.0029960161
0.0027914214
0.0025993733
0.0024192338
0.0022503905
0.0020922508
0.0019442415
0.0018058097
0.0016764225
0.0015555676
0.0014427534
0.0013375085
0.001239382
0.0011479433
0.0010627813
0.00098350461
0.00090974087
0.00084113632
0.00077735535
0.00071807996
0.00066300916
0.00061185847
0.00056435923
0.00052025806
0.00047931618
0.00044130884
0.00040602462
0.00037326489
0.0003428431
0.00031458421
0.00028832282
0.00026390542
0.00024119163
0.00022004406
0.00020033654
0.00018195104
0.00016477718
0.00014871174
0.00013365818
0.00011952626
0.00010623155
9.3695063e-05
8.1842888e-05
7.0605804e-05
5.9918957e-05
4.9721535e-05
3.9956465e-05
3.0570132e-05
2.1512103e-05
1.2734878e-05
4.1936346e-06
0.0030398654
0.0028315436
0.002636052
0.0024527348
0.0022809627
0.0021201267
0.0019696382
0.0018289293
0.0016974528
0.0015746832
0.001460116
0.0013532678
0.0012536763
0.0011609002
0.0010745184
0.0009941301
0.00091935415
0.00084982862
0.00078521025
0.00072517396
0.00066941222
0.00061763443
0.00056956635
0.00052494941
0.00048354007
0.00044510919
0.00040944134
0.00037633417
0.00034559775
0.00031705247
0.00029053193
0.00026588355
0.00024295823
0.000221619
0.00020173776
0.00018319472
0.0001658779
0.00014968265
0.00013451111
0.00012027185
0.00010687936
9.4253685e-05
8.2320019e-05
7.1008344e-05
6.025308e-05
4.9992758e-05
4.0169707e-05
3.0729771e-05
2.1622022e-05
1.2798512e-05
4.2140023e-06
0.0030827883
0.0028708035
0.002671929
0.0024854912
0.0023108441
0.0021473623
0.001994442
0.0018515003
0.0017179763
0.001593331
0.0014770471
0.0013686295
0.0012676046
0.0011735206
0.0010859464
0.0010044719
0.00092870729
0.0008582826
0.00079284703
0.00073206852
0.00067563305
0.00062324407
0.00057462179
0.00052950256
0.00048763816
0.00044879513
0.0004127541
0.00037930908
0.0003482651
0.00031944187
0.00029267356
0.00026779841
0.00024466774
0.00022314251
0.00020309273
0.00018439691
0.00016694151
0.00015062046
0.00013533463
0.00012099143
0.00010750429
9.479232e-05
8.2779847e-05
7.1396077e-05
6.0574729e-05
5.0253694e-05
4.0374727e-05
3.0883144e-05
2.1727546e-05
1.2859548e-05
4.2335153e-06
0.0031246117
0.0029090433
0.0027068606
0.0025173722
0.0023399156
0.0021738495
0.0020185548
0.001873434
0.0017379125
0.0016114379
0.0014934807
0.001383534
0.0012811132
0.0011857559
0.0010970214
0.0010144904
0.00093776472
0.00086646624
0.00080023688
0.0007387377
0.00068164837
0.00062866645
0.00057950676
0.00053390065
0.00049159532
0.00045235311
0.00041595075
0.00038217678
0.00035083587
0.00032174789
0.00029473739
0.00026964304
0.00024631396
0.00022460908
0.00020439658
0.0001855533
0.0001679642
0.00015152182
0.0001361258
0.00012168243
0.00010810412
9.5309054e-05
8.322074e-05
7.1767631e-05
6.0882765e-05
5.0503422e-05
4.0570799e-05
3.1029711e-05
2.1828301e-05
1.2917771e-05
4.2521051e-06
0.0031651935
0.0029461338
0.0027407292
0.0025482712
0.0023680806
0.0021995008
0.0020418974
0.0018946588
0.0017571966
0.0016289457
0.0015093643
0.001397934
0.0012941594
0.0011975678
0.0011077089
0.0010241548
0.00094649853
0.00087435449
0.00080735731
0.00074516136
0.0006874401
0.00063388539
0.00058420676
0.00053813071
0.00049539997
0.00045577275
0.00041901985
0.00038492978
0.00035330697
0.00032396122
0.00029671753
0.00027141221
0.00024789224
0.0002260146
0.00020564567
0.00018666068
0.00016894313
0.00015238424
0.00013688246
0.00012234296
0.00010867721
9.5802488e-05
8.3641512e-05
7.2122009e-05
6.1176368e-05
5.0741278e-05
4.0757407e-05
3.1169087e-05
2.1924026e-05
1.2973031e-05
4.269724e-06
0.00320442
0.0029819717
0.0027734414
0.0025781035
0.0023952628
0.0022242472
0.0020644076
0.0019151185
0.0017757782
0.001645809
0.0015246571
0.0014117929
0.0013067103
0.0012089267
0.0011179827
0.0010334413
0.00095488762
0.00088192849
0.00081419147
0.00075132443
0.00069299482
0.00063888891
0.00058871113
0.00054218324
0.00049904362
0.00045904409
0.00042195578
0.00038756648
0.00035567016
0.00032607708
0.00029860975
0.0002731022
0.00024939931
0.00022735616
0.00020683744
0.0001877168
0.00016987635
0.00015320601
0.00013760309
0.00012297173
0.00010922245
9.6271677e-05
8.4041362e-05
7.2458546e-05
6.1454991e-05
5.0966827e-05
4.0934213e-05
3.1301024e-05
2.2014553e-05
1.3025233e-05
4.2863425e-06
0.0032422025
0.003016477
0.002804925
0.0026068041
0.0024214036
0.0022480362
0.0020860385
0.0019347712
0.0017936197
0.0016619941
0.001539329
0.0014250837
0.0013187419
0.0012198114
0.0011278235
0.0010423329
0.00096291691
0.00088917483
0.00082072746
0.00075721638
0.00069830316
0.00064366873
0.00059301251
0.00054605171
0.00050251789
0.00046216349
0.00042475845
0.00039007977
0.00035792186
0.00032809236
0.00030041133
0.0002747106
0.00025083304
0.00022863192
0.00020797028
0.00018872027
0.00017076262
0.00015398608
0.00013828681
0.00012356797
0.00010973918
9.6716063e-05
8.4419828e-05
7.277686e-05
6.1718329e-05
5.1179828e-05
4.1101035e-05
3.142539e-05
2.2099796e-05
1.3074329e-05
4.3019466e-06
0.003278475
0.0030495904
0.0028351269
0.0026343258
0.0024464609
0.0022708302
0.0021067564
0.0019535869
0.0018106946
0.0016774775
0.001553359
0.001437788
0.0013302379
0.0012302073
0.0011372187
0.0010508186
0.00097057657
0.00089608486
0.0008269577
0.00076283053
0.00070335932
0.00064821975
0.00059710645
0.00054972945
0.00050582114
0.00046513239
0.00042742198
0.00039246733
0.00036006009
0.00033000533
0.00030212077
0.00027623613
0.00025219235
0.00022984095
0.00020904338
0.00018967038
0.00017160138
0.00015472394
0.00013893319
0.00012413134
0.00011022713
9.7135421e-05
8.477673e-05
7.3076813e-05
6.1966276e-05
5.1380205e-05
4.1257821e-05
3.1542154e-05
2.2179736e-05
1.3120312e-05
4.3165355e-06
0.0033131915
0.003081271
0.0028640108
0.0026606364
0.0024704064
0.0022926044
0.0021265396
0.0019715466
0.0018269861
0.0016922446
0.0015667346
0.0014498947
0.0013411888
0.0012401063
0.0011461612
0.0010588921
0.00097786129
0.00090265407
0.00083287833
0.00076816363
0.0007081605
0.00065253961
0.00060098807
0.00055321684
0.00050895642
0.00046794619
0.00042994534
0.00039472837
0.00036208421
0.00033181548
0.00030373768
0.00027767848
0.00025347699
0.00023098306
0.00021005663
0.00019056706
0.00017239257
0.00015541959
0.00013954226
0.00012466185
0.00011068633
9.7529803e-05
8.5112129e-05
7.335847e-05
6.2198899e-05
5.1568022e-05
4.140463e-05
3.1651366e-05
2.2254415e-05
1.3163209e-05
4.3301191e-06
0.0033463233
0.0031114937
0.0028915553
0.0026857176
0.0024932244
0.0023133455
0.0021453768
0.0019886407
0.0018424861
0.0017062885
0.0015794501
0.0014613992
0.0013515908
0.0012495052
0.0011546486
0.0010665517
0.0009847697
0.00090888146
0.00083848868
0.00077321526
0.00071270651
0.00065662532
0.0006046597
0.00055651853
0.00051192045
0.00047060522
0.00043232895
0.00039686332
0.00036399469
0.00033352331
0.00030526255
0.00027903815
0.00025468745
0.00023205873
0.00021101047
0.00019141075
0.0001731366
0.00015607341
0.00014011435
0.00012515986
0.0001111171
9.7899498e-05
8.5426286e-05
7.3622066e-05
6.2416405e-05
5.1743459e-05
4.1541613e-05
3.1753146e-05
2.232392e-05
1.3203075e-05
4.3427165e-06
0.0033778567
0.0031402475
0.0029177516
0.0027095628
0.0025149101
0.0023330499
0.0021632655
0.0020048676
0.0018571939
0.0017196092
0.0015915057
0.0014723023
0.0013614449
0.0012584055
0.0011626823
0.001073799
0.00099130369
0.00091476899
0.00084379075
0.00077798742
0.00071699635
0.00066048114
0.00060812768
0.00055963262
0.00051471492
0.00047311113
0.00043457441
0.00039887372
0.00036579296
0.00033513015
0.00030669663
0.00028031629
0.00025582481
0.00023306894
0.00021190582
0.00019220229
0.00017383426
0.00015668612
0.00014065014
0.00012562595
0.00011151997
9.8244982e-05
8.5719625e-05
7.3867971e-05
6.2619115e-05
5.1906786e-05
4.1668991e-05
3.184767e-05
2.2388378e-05
1.3239986e-05
4.3543539e-06
0.0034077904
0.003167533
0.0029426024
0.0027321759
0.0025354681
0.0023517225
0.0021802109
0.0020202326
0.0018711148
0.0017322121
0.001602907
0.0014826094
0.0013707565
0.0012668123
0.0011702677
0.0010806389
0.00099746794
0.00092032114
0.00084878876
0.00078248121
0.00072103614
0.00066411516
0.00061139155
0.00056256221
0.00051734277
0.00047546666
0.00043668425
0.00040076191
0.00036748121
0.00033663803
0.00030804179
0.00028151462
0.00025689063
0.00023401515
0.000212744
0.00019294287
0.00017448662
0.00015725869
0.0001411505
0.00012606091
0.00011189565
9.8566886e-05
8.5992701e-05
7.409667e-05
6.2807443e-05
5.2058353e-05
4.178705e-05
3.1935156e-05
2.2447945e-05
1.3274037e-05
4.3650632e-06
0.0034361332
0.0031933609
0.0029661203
0.0027535698
0.002554911
0.0023693757
0.0021962247
0.002034747
0.0018842595
0.0017441074
0.0016136637
0.0014923297
0.0013795343
0.0012747341
0.0011774123
0.0010870789
0.0010032694
0.00092554437
0.000853486
0.00078670447
0.00072483574
0.00066752837
0.00061445583
0.00056531153
0.0005198079
0.00047767543
0.00043866181
0.00040253096
0.00036906223
0.0003380495
0.00030930035
0.00028263527
0.00025788687
0.00023489911
0.00021352661
0.00019363395
0.00017509501
0.00015779232
0.00014161651
0.0001264657
0.00011224499
9.8865961e-05
8.6246171e-05
7.4308731e-05
6.2981875e-05
5.2198564e-05
4.1896116e-05
3.2015858e-05
2.2502803e-05
1.3305336e-05
4.3748807e-06
0.0034629006
0.0032177524
0.0029883283
0.0027737661
0.0025732586
0.0023860275
0.0022113238
0.0020484266
0.001896643
0.0017553091
0.0016237889
0.0015014756
0.0013877901
0.0012821815
0.0011841265
0.0010931284
0.0010087168
0.00093044423
0.00085789197
0.00079066896
0.00072839766
0.00067072674
0.00061732605
0.00056788568
0.000522115
0.00047974173
0.00044051101
0.00040418445
0.00037053931
0.00033936756
0.00031047506
0.00028368073
0.00025881577
0.00023572287
0.00021425551
0.00019427722
0.00017566093
0.00015828836
0.00014204937
0.0001268414
0.00011256895
9.9143049e-05
8.6480771e-05
7.450479e-05
6.3142952e-05
5.2327869e-05
4.1996553e-05
3.2090056e-05
2.2553148e-05
1.3334002e-05
4.383846e-06
0.0034881073
0.0032407532
0.0030092585
0.0027927932
0.0025905362
0.0024017012
0.0022255297
0.0020612912
0.0019082838
0.0017658344
0.0016332988
0.001510062
0.0013955376
0.0012891676
0.0011904221
0.0010987984
0.001013818
0.00093503181
0.00086202036
0.00079437871
0.00073172931
0.0006737171
0.00062000849
0.0005702904
0.00052426934
0.00048167038
0.00044223625
0.00040572641
0.00037191611
0.00034059554
0.00031156893
0.00028465374
0.00025967983
0.00023648869
0.00021493272
0.00019487448
0.00017618603
0.00015874828
0.0001424504
0.00012718918
0.00011286856
9.9399061e-05
8.6697294e-05
7.468553e-05
6.3291251e-05
5.2446749e-05
4.2088748e-05
3.2158047e-05
2.2599193e-05
1.336016e-05
4.3920006e-06
0.0032623926
0.0030289536
0.0028106849
0.0026067731
0.0024164232
0.0022388667
0.0020733637
0.001919203
0.0017757031
0.0016422117
0.001518106
0.0014027926
0.0012957069
0.0011963127
0.0011040992
0.0010185857
0.00093932277
0.00086587677
0.0007978426
0.00073483886
0.00067650694
0.00062251
0.00057253197
0.00052627664
0.00048346659
0.00044384229
0.00040716114
0.00037319654
0.00034173699
0.0003125852
0.00028555722
0.00026048168
0.00023719896
0.00021556041
0.0001954277
0.00017667205
0.00015917365
0.00014282099
0.00012751028
0.00011314492
9.9634952e-05
8.689657e-05
7.4851665e-05
6.3427379e-05
5.2555706e-05
4.2173104e-05
3.222014e-05
2.2641154e-05
1.338394e-05
4.3993877e-06
0.0032827823
0.0030474537
0.0028274743
0.0026220003
0.0024302226
0.002251362
0.0020846691
0.001929424
0.0017849368
0.0016505474
0.001525626
0.0014095723
0.0013018152
0.0012018108
0.0011090449
0.0010230374
0.00094332428
0.00086947153
0.00080107011
0.000737735
0.00067910421
0.00062483783
0.000574617
0.00052814292
0.00048513583
0.0004453341
0.00040849318
0.00037438473
0.00034279566
0.00031352724
0.00028639424
0.00026122411
0.00023785616
0.00021614082
0.00019593887
0.00017712079
0.00015956607
0.00014316257
0.00012780596
0.00011339914
9.9851707e-05
8.7079456e-05
7.5003929e-05
6.3551956e-05
5.2655254e-05
4.2250035e-05
3.2276651e-05
2.2679254e-05
1.3405473e-05
4.406051e-06
0.0033018782
0.0030647827
0.002843194
0.0026362503
0.0024431302
0.0022630445
0.0020952345
0.0019389717
0.0017935585
0.0016583275
0.0015326417
0.0014158946
0.0013075074
0.0012069318
0.0011136552
0.001027182
0.00094704816
0.00087281547
0.00080407116
0.00074042677
0.00068151716
0.00062699952
0.00057655234
0.00052987441
0.00048668379
0.00044671684
0.00040972721
0.00037548491
0.00034377538
0.00031439853
0.00028716792
0.00026190992
0.00023846284
0.00021667623
0.00019641006
0.0001775341
0.00015992719
0.00014347662
0.00012807753
0.00011363237
0.00010005032
8.7246817e-05
7.5143065e-05
6.3665609e-05
5.274591e-05
4.2319956e-05
3.2327898e-05
2.2713717e-05
1.3424893e-05
4.4120343e-06
0.0033197224
0.0030809772
0.0028578798
0.0026495576
0.0024551787
0.0022739446
0.0021050879
0.0019478723
0.0018015924
0.001665574
0.0015391736
0.0014217771
0.0013128005
0.0012116976
0.0011179404
0.0010310328
0.00095050658
0.00087591971
0.0008068559
0.00074292345
0.00068375424
0.00062900275
0.00057834498
0.00053147747
0.00048811622
0.00044799573
0.00041086795
0.00037650137
0.00034468002
0.00031520256
0.00028788144
0.00026254198
0.00023902158
0.00021716895
0.00019684334
0.00017791382
0.00016025865
0.00014376458
0.00012832628
0.00011384575
0.0001002318
8.7399518e-05
7.5269814e-05
6.3768965e-05
5.2828193e-05
4.238328e-05
3.2374197e-05
2.2744766e-05
1.3442331e-05
4.4173811e-06
0.003336366
0.0030960795
0.0028715709
0.0026619587
0.002466402
0.0022840938
0.0021142586
0.0019561525
0.0018090633
0.0016723098
0.0015452415
0.0014272381
0.0013177183
0.0012161203
0.0011219153
0.0010346033
0.00095371189
0.00087879553
0.00080943462
0.00074523439
0.00068582396
0.00063085525
0.00058000195
0.00053295848
0.00048943892
0.00044917602
0.00041192017
0.00037743841
0.00034551347
0.00031594286
0.00028853796
0.00026312313
0.00023953493
0.00021762129
0.00019724076
0.0001782618
0.00016056211
0.00014402794
0.0001285535
0.00011404042
0.00010039713
8.7538416e-05
7.5384911e-05
6.3862641e-05
5.2902613e-05
4.2440417e-05
3.2415859e-05
2.2772618e-05
1.3457917e-05
4.4221339e-06
0.0033518604
0.0031101346
0.0028843081
0.0026734912
0.0024768349
0.0022935242
0.0021227762
0.0019638399
0.0018159963
0.0016785573
0.0015508653
0.0014323034
0.0013222745
0.001220216
0.0011255949
0.0010379071
0.00095667649
0.00088145424
0.0008118176
0.00074736896
0.00068773483
0.00063256476
0.00058153027
0.0005343238
0.00049065765
0.00045026294
0.00041288858
0.00037830029
0.00034627959
0.0003166229
0.0002891406
0.00026365619
0.00024000542
0.00021803551
0.00019760436
0.00017857986
0.00016083917
0.0001442681
0.00012876046
0.00011421748
0.00010054728
8.7664353e-05
7.5489074e-05
6.3947243e-05
5.2969668e-05
4.2491765e-05
3.2453189e-05
2.2797488e-05
1.3471777e-05
4.4263344e-06
0.0033662566
0.0031231884
0.0028961332
0.0026841934
0.0024865126
0.0023022684
0.0021306707
0.0019709619
0.0018224161
0.0016843377
0.0015560728
0.0014369885
0.001326487
0.0012240011
0.001128994
0.0010409577
0.00095941273
0.00088390707
0.00081401505
0.00074933643
0.00068949528
0.00063413891
0.00058293685
0.0005355797
0.00049177809
0.00045126162
0.00041377784
0.00037909122
0.00034698216
0.00031724608
0.00028969245
0.00026414393
0.00024043554
0.00021841384
0.00019793612
0.00017886976
0.00016109142
0.00014448649
0.00012894839
0.00011437802
0.0001006832
8.7778147e-05
7.5583004e-05
6.4023361e-05
5.3029845e-05
4.2537712e-05
3.2486481e-05
2.2819583e-05
1.3484033e-05
4.4300228e-06
0.0033796053
0.0031352871
0.0029070882
0.002694104
0.0024954707
0.0023103589
0.002137972
0.0019775456
0.0018283458
0.0016896809
0.0015608811
0.0014413126
0.0013303732
0.0012274917
0.0011321272
0.0010437685
0.00096193276
0.00088616506
0.00081603703
0.00075114593
0.00069111357
0.00063558522
0.00058422851
0.00053673234
0.0004928058
0.00045217709
0.00041459248
0.00037981528
0.00034762489
0.00031781575
0.00029019649
0.00026458904
0.00024082771
0.00021875844
0.000198238
0.00017913323
0.0001613204
0.00014468446
0.0001291185
0.0001145231
0.00010080581
8.7880594e-05
7.5667378e-05
6.4091565e-05
5.3083613e-05
4.2578634e-05
3.2516022e-05
2.2839102e-05
1.3494803e-05
4.4332376e-06
0.0033919568
0.0031464763
0.0029172151
0.0027032613
0.0025037443
0.0023178282
0.0021447095
0.0019836158
0.0018338169
0.0016946056
0.0015653111
0.0014452949
0.0013339507
0.0012307035
0.001135009
0.0010463526
0.00096424851
0.00088823907
0.00081789337
0.00075280638
0.00069259781
0.00063691101
0.00058541188
0.00053778773
0.00049374622
0.00045301425
0.00041533692
0.00038047649
0.00034821135
0.00031833513
0.00029065565
0.00026499413
0.00024118427
0.00021907142
0.00019851185
0.00017937196
0.00016152758
0.00014486332
0.00012927194
0.00011465374
0.00010091599
8.7972456e-05
7.5742851e-05
6.4152404e-05
5.3131423e-05
4.261489e-05
3.2542084e-05
2.2856237e-05
1.35042e-05
4.436016e-06
0.0034033605
0.0031568013
0.002926555
0.0027117032
0.0025113683
0.0023247077
0.0021509098
0.0019892059
0.0018388502
0.0016991344
0.0015693831
0.0014489538
0.0013372363
0.0012336521
0.0011376534
0.0010487227
0.0009663716
0.00089013963
0.00081959364
0.00075432646
0.00069395584
0.00063812339
0.00058649338
0.00053875167
0.00049460459
0.00045377785
0.00041601546
0.00038107868
0.00034874504
0.00031880735
0.00029107272
0.00026536173
0.00024150747
0.00021935479
0.00019875949
0.00017958754
0.0001617144
0.00014502435
0.00012940984
0.0001147709
0.0001010146
8.8054469e-05
7.5810046e-05
6.4206403e-05
5.3173708e-05
4.2646823e-05
3.2564929e-05
2.2871171e-05
1.3512332e-05
4.4383932e-06
0.0034138647
0.0031663063
0.0029351487
0.0027194667
0.0025183763
0.0023310262
0.0021566083
0.0019943384
0.0018434697
0.0017032891
0.0015731172
0.0014523076
0.0013402467
0.0012363524
0.0011400741
0.0010508915
0.00096831331
0.00089187698
0.00082114711
0.00075571455
0.00069519527
0.00063922923
0.00058747923
0.00053962978
0.00049538599
0.00045447246
0.00041663219
0.00038162556
0.00034922928
0.00031923541
0.00029145041
0.00026569424
0.00024179949
0.0002196105
0.00019898265
0.00017978151
0.00016188222
0.00014516874
0.00012953325
0.00011487554
0.00010110245
8.8127332e-05
7.5869561e-05
6.4254062e-05
5.3210878e-05
4.2674763e-05
3.2584805e-05
2.2884077e-05
1.35193e-05
4.4404027e-06
0.0034235166
0.0031750343
0.0029430353
0.0027265879
0.0025247992
0.0023368207
0.0021618292
0.001999039
0.0018476986
0.0017070909
0.0015765327
0.001455374
0.0013429977
0.0012388191
0.0011422844
0.0010528707
0.00097008453
0.00089346099
0.00082256272
0.00075697875
0.00069632341
0.00064023515
0.0005883754
0.00054042744
0.00049609527
0.00045510245
0.00041719108
0.00038212071
0.00034966728
0.00031962219
0.00029179129
0.000265994
0.00024206239
0.0002198404
0.00019918297
0.00017995535
0.00016203235
0.00014529766
0.00012964319
0.00011496852
0.0001011803
8.819171e-05
7.5921963e-05
6.4295858e-05
5.3243324e-05
4.2699018e-05
3.2601949e-05
2.2895121e-05
1.3525202e-05
4.4420761e-06
0.0034323617
0.003183027
0.002950253
0.0027330995
0.0025306755
0.0023421173
0.0021665997
0.0020033323
0.0018515596
0.0017105605
0.0015796483
0.0014581698