/*--------------------------------*- C++ -*----------------------------------*\
| =========                 |                                                 |
| \\      /  F ield         | OpenFOAM: The Open Source CFD Toolbox           |
|  \\    /   O peration     | Version:  2312                                  |
|   \\  /    A nd           | Website:  www.openfoam.com                      |
|    \\/     M anipulation  |                                                 |
\*---------------------------------------------------------------------------*/
FoamFile
{
    version     2.0;
    format      ascii;
    arch        "LSB;label=32;scalar=64";
    class       volScalarField;
    location    "0.04";
    object      Ma;
}
// * * * * * * * * * * * * * * * * * * * * * * * * * * * * * * * * * * * * * //

dimensions      [0 0 0 0 0 0 0];

internalField   nonuniform List<scalar> 
3257
(
0.0013616149
0.0013442594
0.0013273979
0.0013110064
0.0012950615
0.00127954
0.0012644194
0.0012496777
0.0012352933
0.0012212456
0.0012075147
0.001194082
0.0011809297
0.0011680414
0.001155402
0.0011429977
0.0011308163
0.0011188472
0.0011070812
0.001095511
0.0010841307
0.0010729362
0.0010619252
0.0010510967
0.0010404518
0.0010299927
0.0010197235
0.0010096495
0.00099977778
0.00099011649
0.00098067522
0.0009714648
0.00096249729
0.00095378591
0.00094534507
0.00093719037
0.00092933862
0.00092180798
0.00091461808
0.00090779028
0.00090134803
0.00089531739
0.00088972779
0.00088461294
0.00088001237
0.00087597437
0.00087255919
0.00086984456
0.00086794169
0.00086704895
0.00086758041
0.0012797083
0.0012636381
0.0012480919
0.0012330462
0.0012184772
0.0012043619
0.0011906769
0.0011773997
0.001164508
0.0011519802
0.0011397953
0.0011279334
0.0011163755
0.0011051036
0.0010941011
0.0010833525
0.0010728438
0.0010625626
0.0010524977
0.0010426398
0.001032981
0.0010235151
0.0010142378
0.0010051459
0.00099623841
0.00098751559
0.00097897943
0.00097063343
0.00096248262
0.0009545335
0.00094679401
0.0009392735
0.00093198271
0.00092493382
0.00091814037
0.00091161746
0.00090538172
0.00089945157
0.00089384743
0.00088859205
0.00088371104
0.00087923355
0.00087519311
0.00087162853
0.00086858667
0.00086612413
0.00086430836
0.00086322108
0.00086298747
0.0008638355
0.00086591598
0.0012236095
0.0012083398
0.0011936225
0.001179434
0.0011657509
0.0011525495
0.0011398064
0.0011274985
0.0011156029
0.0011040973
0.0010929598
0.0010821696
0.0010717064
0.0010615512
0.0010516858
0.0010420935
0.0010327587
0.0010236674
0.0010148069
0.0010061661
0.0009977355
0.00098950716
0.00098147482
0.00097363386
0.00096598129
0.00095851579
0.00095123764
0.00094414872
0.0009372525
0.000930554
0.00092405979
0.00091777796
0.00091171814
0.00090589151
0.00090031087
0.00089499071
0.00088994733
0.00088519906
0.00088076647
0.0008766728
0.00087294441
0.0008696113
0.00086670766
0.00086427376
0.0008623571
0.00086101242
0.00086029982
0.00086028716
0.00086108993
0.00086293384
0.00086580323
0.0011697674
0.0011552266
0.0011412712
0.0011278779
0.001115023
0.0011026828
0.0010908335
0.0010794513
0.0010685128
0.0010579945
0.0010478738
0.0010381285
0.0010287371
0.0010196789
0.0010109345
0.0010024854
0.0009943142
0.00098640512
0.0009787436
0.0009713166
0.00096411264
0.00095712183
0.00095033588
0.0009437482
0.00093735383
0.00093114949
0.00092513359
0.00091930617
0.00091366895
0.00090822528
0.00090298015
0.0008979402
0.00089311373
0.00088851074
0.00088414298
0.00088002405
0.00087616954
0.00087259716
0.000869327
0.00086638186
0.00086378758
0.00086157339
0.00085977302
0.00085842514
0.00085757364
0.00085726702
0.00085755445
0.00085848797
0.00086017422
0.00086285106
0.00086639291
0.00111794
0.0011040549
0.0010907934
0.0010781323
0.001066048
0.0010545166
0.0010435137
0.0010330149
0.0010229958
0.0010134322
0.0010042999
0.00099557541
0.00098723573
0.00097925856
0.00097162249
0.0009643071
0.0009572931
0.00095056246
0.00094409848
0.0009378859
0.00093191097
0.00092616152
0.00092062703
0.00091529861
0.00091016909
0.00090523303
0.00090048667
0.00089592802
0.00089155681
0.0008873745
0.0008833843
0.00087959116
0.00087600181
0.00087262482
0.00086947061
0.00086655155
0.00086388211
0.00086147893
0.00085936098
0.00085754977
0.0008560698
0.00085494873
0.00085421816
0.00085391341
0.00085407345
0.0008547399
0.00085595147
0.00085774678
0.00086022888
0.0008636592
0.00086782814
0.0010685737
0.0010552672
0.0010426277
0.0010306322
0.0010192571
0.0010084779
0.00099827
0.00098860813
0.00097946686
0.00097082064
0.00096264401
0.00095491172
0.00094759893
0.00094068135
0.00093413544
0.00092793851
0.00092206893
0.0009165062
0.00091123113
0.00090622591
0.00090147424
0.00089696137
0.00089267423
0.00088860142
0.00088473327
0.00088106193
0.00087758129
0.00087428708
0.00087117685
0.00086824998
0.00086550768
0.00086295303
0.000860591
0.00085842847
0.00085647431
0.00085473942
0.00085323687
0.00085198196
0.00085099211
0.00085028705
0.00084988812
0.00084982173
0.00085011729
0.00085080587
0.00085192141
0.00085349925
0.00085556936
0.00085815984
0.00086137408
0.00086550327
0.00087026896
0.0010216317
0.0010088307
0.0009967454
0.00098535303
0.00097462987
0.00096455127
0.0009550918
0.00094622532
0.00093792517
0.00093016434
0.00092291561
0.00091615177
0.00090984582
0.00090397112
0.0008985016
0.00089341196
0.0008886778
0.00088427584
0.00088018399
0.00087638157
0.00087284937
0.00086956978
0.00086652684
0.00086370638
0.00086109601
0.0008586852
0.0008564653
0.00085442957
0.0008525732
0.00085089331
0.00084938898
0.00084806123
0.00084691311
0.00084594967
0.000845178
0.00084460734
0.00084424917
0.00084411706
0.00084422652
0.00084459389
0.00084524127
0.00084619362
0.00084747511
0.00084911241
0.00085113523
0.00085357391
0.00085645164
0.0008597884
0.00086369026
0.00086848183
0.0008738262
0.00097701516
0.00096465174
0.00095305823
0.0009422122
0.00093208986
0.00092266615
0.00091391485
0.00090580871
0.00089831959
0.0008914187
0.00088507675
0.0008792642
0.00087395145
0.00086910909
0.00086470812
0.00086072015
0.00085711763
0.00085387401
0.00085096395
0.0008483635
0.00084605017
0.00084400314
0.00084220333
0.00084063348
0.00083927824
0.00083812422
0.00083716003
0.0008363763
0.00083576572
0.00083532304
0.00083504509
0.00083493078
0.00083498115
0.00083519933
0.00083559065
0.00083616266
0.00083692515
0.00083788968
0.00083906845
0.00084047895
0.00084214199
0.00084407654
0.00084630383
0.00084884808
0.00085173583
0.00085499332
0.00085863833
0.00086268435
0.00086724124
0.00087266907
0.00087858067
0.00093462859
0.00092264036
0.00091148205
0.00090113164
0.00089156525
0.00088275731
0.00087468066
0.00086730669
0.00086060548
0.00085454609
0.00084909675
0.00084422512
0.00083989854
0.00083608433
0.00083275004
0.00082986369
0.00082739407
0.00082531093
0.00082358522
0.00082218927
0.000821097
0.00082028403
0.00081972784
0.00081940785
0.00081930554
0.00081940448
0.00081969039
0.00082015116
0.00082077692
0.00082156
0.00082249495
0.00082357858
0.00082480997
0.00082619048
0.00082772381
0.000829416
0.00083127457
0.00083330725
0.00083552694
0.00083795054
0.00084059379
0.00084347358
0.00084660971
0.00085002409
0.00085374017
0.00085778092
0.00086215996
0.0008668854
0.00087207133
0.00087811432
0.0008845843
0.00089436527
0.00088269603
0.00087192278
0.00086202396
0.0008529756
0.0008447515
0.00083732335
0.00083066086
0.00082473199
0.00081950321
0.00081493974
0.00081100591
0.00080766543
0.00080488176
0.00080261841
0.00080083925
0.00079950886
0.00079859276
0.00079805772
0.00079787196
0.00079800539
0.00079842976
0.00079911885
0.00080004855
0.00080119697
0.00080254452
0.00080407395
0.00080577039
0.00080762135
0.00080961678
0.00081174903
0.00081401289
0.00081640559
0.00081892685
0.00082157879
0.00082436501
0.00082728911
0.00083036004
0.00083359113
0.00083699527
0.00084058562
0.00084437778
0.00084838972
0.00085264093
0.00085715253
0.00086194516
0.00086702924
0.00087240839
0.00087820076
0.00088483989
0.00089185991
0.00085610996
0.00084471021
0.00083427882
0.00082479479
0.000816234
0.00080856949
0.00080177155
0.00079580784
0.00079064374
0.00078624256
0.00078256596
0.00077957426
0.00077722689
0.00077548274
0.00077430064
0.00077363967
0.00077345957
0.00077372112
0.00077438639
0.00077541906
0.00077678469
0.00077845086
0.00078038741
0.00078256652
0.00078496283
0.00078755354
0.00079031839
0.00079323976
0.00079630265
0.00079949471
0.00080280622
0.00080623013
0.00080976205
0.00081340012
0.00081714402
0.00082099342
0.00082495354
0.00082903428
0.00083324547
0.00083759735
0.00084210203
0.00084677383
0.00085162886
0.00085668475
0.00086196086
0.00086747609
0.00087323845
0.00087924759
0.00088562533
0.00089284196
0.00090040308
0.00081974312
0.00080857041
0.00079844502
0.00078934656
0.00078125074
0.00077412965
0.00076795182
0.00076268247
0.00075828378
0.00075471531
0.00075193437
0.00074989656
0.00074855621
0.00074786692
0.00074778203
0.00074825515
0.00074924055
0.00075069367
0.00075257141
0.00075483251
0.00075743782
0.00076035052
0.00076353634
0.00076696365
0.00077060358
0.00077443011
0.00077842006
0.00078255316
0.00078681204
0.00079118224
0.00079565222
0.00080021336
0.00080485976
0.00080958717
0.0008143913
0.00081927387
0.00082424146
0.00082930077
0.00083445902
0.00083972545
0.00084511127
0.00085062962
0.00085629521
0.00086212425
0.00086813473
0.00087434429
0.00088075915
0.00088737538
0.00089431773
0.00090209274
0.00091018482
0.00078514405
0.00077416327
0.00076431559
0.00075558134
0.000747936
0.00074135044
0.00073579106
0.00073122004
0.00072759573
0.00072487309
0.0007230043
0.0007219393
0.00072162643
0.00072201311
0.00072304639
0.00072467362
0.00072684298
0.00072950396
0.00073260784
0.00073610803
0.00073996043
0.00074412364
0.00074855917
0.00075323158
0.00075810852
0.00076316087
0.00076836266
0.00077369119
0.00077912696
0.0007846537
0.0007902584
0.00079593101
0.0008016633
0.000807447
0.00081328033
0.00081916674
0.00082510979
0.00083111369
0.00083718483
0.00084333174
0.00084956483
0.00085589632
0.0008623399
0.0008689107
0.00087562568
0.00088250164
0.00088954347
0.00089674399
0.00090423001
0.00091254336
0.00092115492
0.00075219352
0.00074137699
0.00073178645
0.00072340306
0.00071620193
0.00071015243
0.00070521831
0.00070135802
0.00069852524
0.00069666944
0.00069573659
0.00069566997
0.00069641093
0.00069789969
0.00070007617
0.00070288066
0.00070625455
0.00071014087
0.00071448484
0.00071923428
0.00072433993
0.00072975574
0.00073543902
0.00074135057
0.00074745474
0.00075371948
0.00076011632
0.00076662037
0.00077321041
0.0007798688
0.00078658121
0.00079333534
0.00080011889
0.00080692654
0.00081375868
0.00082061576
0.00082749899
0.00083441199
0.00084136065
0.00084835294
0.00085539871
0.00086250948
0.00086969821
0.00087697927
0.00088436889
0.00089188329
0.00089952648
0.00090728831
0.00091529659
0.00092412727
0.00093324548
0.00072077587
0.00071010336
0.00070075714
0.00069271927
0.00068596436
0.00068045985
0.0006761662
0.00067303732
0.00067102118
0.00067006063
0.0006700943
0.00067105758
0.0006728837
0.00067550466
0.00067885228
0.00068285903
0.00068745886
0.00069258787
0.00069818489
0.00070419195
0.00071055457
0.00071722208
0.00072414772
0.00073128874
0.00073860642
0.0007460661
0.00075363712
0.00076129293
0.00076901103
0.00077677267
0.00078456131
0.00079236056
0.00080016153
0.00080796154
0.00081575793
0.00082354893
0.00083133538
0.00083912063
0.00084691028
0.00085471196
0.00086253512
0.00087039087
0.00087829165
0.00088625131
0.00089428555
0.00090241034
0.00091062911
0.00091892897
0.00092743769
0.00093676379
0.00094637467
0.00069078063
0.00068023928
0.00067113225
0.00066344255
0.00065714406
0.00065220176
0.00064857204
0.0006462032
0.00064503632
0.00064500629
0.00064604303
0.00064807275
0.00065101928
0.00065480532
0.00065935362
0.00066458809
0.00067043469
0.0006768222
0.00068368288
0.00069095288
0.0006985726
0.00070648693
0.00071464527
0.00072300164
0.00073151462
0.00074014733
0.00074886747
0.00075764739
0.00076646367
0.00077529546
0.00078412209
0.00079293109
0.00080171665
0.00081047297
0.00081919527
0.00082788165
0.00083653296
0.00084515247
0.00085374567
0.00086232004
0.00087088485
0.00087945095
0.0008880305
0.00089663698
0.00090528581
0.00091399282
0.00092276127
0.00093157568
0.00094056268
0.00095036163
0.00096045031
0.00066210375
0.00065168791
0.00064282246
0.00063549143
0.0006296676
0.00062531283
0.00062237842
0.0006208058
0.00062052772
0.00062146956
0.00062355098
0.00062668754
0.00063079235
0.00063577767
0.00064155632
0.00064804295
0.0006551551
0.00066281402
0.00067094531
0.00067947941
0.0006883518
0.00069750323
0.00070687967
0.00071643234
0.00072611757
0.00073589687
0.000745737
0.0007556096
0.00076548932
0.00077535116
0.00078517891
0.0007949636
0.0008046962
0.00081436889
0.00082397702
0.00083351895
0.00084299568
0.00085241062
0.00086176933
0.00087107931
0.0008803498
0.00088959154
0.00089881656
0.00090803818
0.00091727163
0.00092653281
0.00093582503
0.00094513046
0.00095457345
0.00096482228
0.00097537326
0.0006346484
0.0006243594
0.00061574529
0.00060879106
0.00060346795
0.00059973382
0.00059753363
0.0005968004
0.00059745681
0.00059941699
0.00060258859
0.00060687494
0.00061217707
0.00061839571
0.00062543293
0.00063319362
0.00064158663
0.00065052562
0.00065992973
0.00066972393
0.00067983919
0.0006902126
0.0007007872
0.00071151193
0.00072234155
0.00073323676
0.00074416384
0.00075509277
0.00076599407
0.00077684768
0.00078764136
0.00079836273
0.00080900086
0.00081954834
0.00083000106
0.00084035779
0.00085061989
0.00086079103
0.000870877
0.00088088544
0.00089082569
0.00090070852
0.00091054598
0.00092035132
0.00093013971
0.00093992724
0.00094971752
0.00095949059
0.00096936735
0.00098004293
0.00099104036
0.00060832548
0.00059817134
0.00058982542
0.00058327351
0.00057848473
0.00057541178
0.00057399172
0.00057414733
0.0005757892
0.00057881817
0.00058312803
0.00058860817
0.00059514627
0.00060263048
0.00061095152
0.00062000417
0.00062968855
0.00063991095
0.00065058436
0.00066162879
0.00067297126
0.00068454578
0.0006962931
0.00070816058
0.00072010233
0.00073207881
0.00074405496
0.00075599671
0.00076788001
0.00077968917
0.00079140834
0.00080302338
0.00081452408
0.00082590386
0.00083715929
0.0008482897
0.00085929692
0.00087018504
0.00088096017
0.00089163019
0.00090220464
0.00091269446
0.00092311179
0.00093346994
0.00094378409
0.00095407061
0.00096433362
0.00097455124
0.00098483985
0.00099591914
0.0010073471
0.00058305379
0.00057304892
0.00056499483
0.00055887793
0.00055466428
0.00055230001
0.00055171238
0.00055281171
0.00055549419
0.00055964512
0.00056514238
0.00057185984
0.00057967049
0.00058844919
0.0005980748
0.00060843199
0.00061941236
0.00063091523
0.00064284808
0.00065512657
0.0006676745
0.00068042351
0.00069331282
0.00070628922
0.00071930684
0.00073232522
0.00074530545
0.0007582193
0.00077104745
0.00078377036
0.00079637059
0.00080883507
0.00082115475
0.00083332399
0.00084534013
0.00085720318
0.00086891555
0.00088048181
0.00089190847
0.00090320377
0.00091437753
0.00092544092
0.00093640626
0.000947287
0.00095809843
0.00096885721
0.00097956816
0.00099020775
0.0010008867
0.001012347
0.0010241896
0.00055875999
0.00054892487
0.00054119282
0.0005355504
0.0005319595
0.00053035787
0.00053066062
0.00053276301
0.00053654419
0.00054187148
0.00054860481
0.00055660092
0.00056571709
0.00057581426
0.00058675941
0.00059842729
0.00061070149
0.00062347508
0.00063665075
0.00065014071
0.00066386633
0.00067775776
0.00069175375
0.0007058013
0.00071985406
0.00073386805
0.00074781062
0.00076165853
0.00077538835
0.00078897922
0.00080241512
0.00081568452
0.00082877957
0.00084169562
0.00085443085
0.00086698601
0.00087936417
0.00089157043
0.00090361179
0.00091549692
0.00092723597
0.00093884041
0.00095032283
0.00096169685
0.0009729779
0.000984183
0.00099531782
0.0010063574
0.0010174059
0.0010292249
0.0010414665
0.00053537842
0.00052573927
0.00051836568
0.00051324373
0.0005103296
0.00050955038
0.00051080624
0.00051397435
0.0005189139
0.00052547166
0.00053348757
0.00054279983
0.00055324926
0.00056468267
0.00057695539
0.00058993283
0.00060349139
0.0006175188
0.00063191395
0.00064658653
0.00066145647
0.00067645357
0.00069151699
0.00070659369
0.00072163419
0.00073660118
0.00075146718
0.00076620464
0.00078078907
0.00079520148
0.0008094278
0.00082345794
0.00083728525
0.00085090609
0.00086431953
0.00087752713
0.00089053262
0.00090334174
0.00091596203
0.0009284026
0.00094067402
0.0009527881
0.00096475772
0.00097659675
0.00098832075
0.00099994714
0.0010114826
0.0010229009
0.0010342988
0.0010464548
0.0010590804
0.00051285069
0.00050343919
0.00049646644
0.00049191709
0.00048973967
0.00048984774
0.00049212324
0.0004964218
0.00050257945
0.00051041981
0.00051976096
0.00053042147
0.0005422253
0.00055500535
0.00056860591
0.00058288401
0.00059770993
0.00061296717
0.00062855198
0.00064437259
0.00066034872
0.00067641082
0.00069249843
0.00070855582
0.00072454061
0.00074042075
0.00075616439
0.00077174321
0.00078713505
0.00080232326
0.00081729548
0.00083204301
0.00084656036
0.00086084493
0.00087489676
0.00088871821
0.00090231378
0.00091568984
0.00092885451
0.00094181741
0.00095458953
0.00096718306
0.00097961121
0.00099188809
0.0010040295
0.0010160531
0.0010279667
0.0010397434
0.0010514714
0.0010639433
0.0010769382
0.00049112531
0.00048197826
0.0004754544
0.0004715356
0.00047016017
0.00047122475
0.00047458909
0.00048008344
0.00048751737
0.00049668882
0.00050739241
0.00051942642
0.00053259801
0.00054672688
0.00056164734
0.00057720924
0.0005932781
0.00060973451
0.00062647327
0.00064340259
0.00066044299
0.00067752569
0.00069458803
0.00071158181
0.00072847004
0.00074521629
0.00076178832
0.00077816062
0.0007943138
0.00081023312
0.00082590778
0.00084133042
0.00085649674
0.00087140524
0.0008860569
0.00090045497
0.00091460471
0.00092851319
0.0009421891
0.00095564259
0.00096888511
0.00098192923
0.00099478849
0.0010074773
0.0010200116
0.0010324095
0.0010446799
0.0010567954
0.001068835
0.0010816026
0.0010949526
0.00047015709
0.0004613162
0.00045529468
0.0004520698
0.00045156642
0.00045366008
0.00045818387
0.00046493849
0.00047370366
0.00048424935
0.00049634561
0.00050977027
0.00052431439
0.00053978557
0.00055600959
0.0005728307
0.00059011113
0.00060773002
0.0006255823
0.00064357722
0.00066163636
0.00067968923
0.00069768104
0.00071556929
0.00073331276
0.00075087502
0.00076822708
0.00078534663
0.00080221639
0.00081882338
0.00083515827
0.00085121504
0.00086699065
0.00088248467
0.0008976991
0.00091263807
0.0009273076
0.00094171548
0.000955871
0.00096978483
0.00098346887
0.00099693608
0.0010102004
0.0010232764
0.0010361803
0.0010489305
0.0010615373
0.0010739729
0.0010863065
0.0010993503
0.0011130419
0.00044990668
0.0004414183
0.00043595773
0.00043349513
0.00043393792
0.00043713557
0.00044288946
0.0004509663
0.00046111272
0.00047306891
0.0004865798
0.00050140329
0.00051731555
0.00053411372
0.00055161684
0.00056966534
0.00058811982
0.00060685968
0.00062578119
0.00064479493
0.00066382133
0.00068279798
0.00070167621
0.0007204098
0.00073895784
0.00075728749
0.00077537334
0.00079319543
0.00081073844
0.00082799101
0.00084494534
0.00086159679
0.00087794353
0.00089398628
0.00090972803
0.00092517378
0.00094033036
0.00095520622
0.00096981127
0.00098415669
0.00099825483
0.001012119
0.0010257636
0.0010392034
0.0010524548
0.0010655366
0.0010784602
0.001091198
0.001103809
0.0011171102
0.0011311306
0.00043033994
0.00042225488
0.00041741878
0.00041579139
0.00041725774
0.00042163544
0.00042868856
0.00043814535
0.00044971651
0.00046311117
0.00047804937
0.00049427029
0.00051153702
0.00052963832
0.00054838855
0.00056762623
0.0005872123
0.00060702772
0.00062697043
0.00064695042
0.00066689645
0.00068675269
0.00070646748
0.00072599528
0.00074529904
0.00076434984
0.00078312484
0.00080160628
0.00081978064
0.00083763827
0.00085517287
0.00087238118
0.00088926262
0.00090581902
0.00092205433
0.00093797446
0.00095358699
0.00096890105
0.00098392713
0.00099867692
0.0010131632
0.0010273997
0.001041401
0.0010551824
0.0010687604
0.0010821539
0.0010953758
0.001108399
0.0011212715
0.0011348121
0.0011491489
0.0004114274
0.00040380084
0.00039965734
0.00039894215
0.00040151181
0.00040714542
0.00041556379
0.0004264524
0.00043948367
0.00045433535
0.00047070358
0.00048831078
0.00050690929
0.00052628191
0.00054624057
0.00056662409
0.00058729523
0.00060813693
0.00062904718
0.00064994451
0.0006707648
0.00069145021
0.00071195015
0.00073222311
0.00075223629
0.00077196366
0.00079138478
0.00081048388
0.00082924936
0.0008476732
0.00086575065
0.0008834798
0.00090086128
0.00091789801
0.00093459491
0.00095095873
0.0009669978
0.00098272189
0.00099814206
0.0010132705
0.0010281204
0.0010427059
0.0010570418
0.0010711438
0.0010850284
0.001098715
0.0011122176
0.0011255101
0.0011386291
0.0011523919
0.0011670334
0.0003931437
0.00038603514
0.00038265677
0.00038293418
0.00038668819
0.00039365194
0.00040349679
0.00041586156
0.00043037896
0.00044669592
0.00046448664
0.0004834594
0.00050335857
0.00052396364
0.00054508659
0.00056656828
0.00058827385
0.0006100871
0.00063191464
0.00065368268
0.00067532638
0.00069678939
0.00071802528
0.00073899703
0.00075967509
0.00078003611
0.0008000619
0.00081973875
0.00083905688
0.00085800996
0.00087659469
0.00089481049
0.00091265919
0.00093014474
0.00094727301
0.00096405154
0.00098048939
0.00099659695
0.0010123858
0.0010278686
0.001043059
0.0010579715
0.0010726211
0.0010870238
0.0011011964
0.0011151583
0.0011289249
0.0011424713
0.0011558227
0.0011697911
0.0011847261
0.00037546795
0.00036894032
0.00036640375
0.00036775687
0.00037277639
0.00038114125
0.00039246732
0.00040634359
0.00042236274
0.00044014252
0.00045933803
0.00047964657
0.00050080772
0.00052260048
0.00054483893
0.00056736683
0.00059005106
0.00061278423
0.00063548111
0.0006580686
0.00068048395
0.00070267516
0.00072460047
0.00074622647
0.00076752662
0.00078848008
0.00080907092
0.00082928746
0.00084912171
0.00086856892
0.00088762726
0.00090629742
0.00092458235
0.00094248701
0.00096001815
0.00097718409
0.00099399458
0.0010104606
0.0010265942
0.0010424086
0.0010579177
0.0010731363
0.0010880799
0.0011027646
0.0011172074
0.0011314279
0.0011454427
0.0011592283
0.0011727989
0.001186957
0.0012021748
0.00035250273
0.00035088788
0.00035340163
0.00035976653
0.00036959859
0.0003824525
0.00039786537
0.00041539077
0.00043462011
0.00045519295
0.00047679934
0.00049917734
0.00052210799
0.00054540875
0.00056892608
0.00059253595
0.00061613967
0.00063965412
0.00066300907
0.00068614639
0.00070901898
0.00073158906
0.00075382658
0.00077570782
0.00079721442
0.00081833266
0.00083905279
0.00085936854
0.00087927675
0.00089877693
0.00091787099
0.00093656297
0.00095485878
0.00097276599
0.00099029367
0.0010074522
0.0010242531
0.001040709
0.0010568334
0.0010726407
0.0010881459
0.0011033649
0.001118314
0.0011330102
0.0011474734
0.0011617213
0.0011757325
0.0011895096
0.0012038421
0.0012193326
0.00033671007
0.00033610074
0.00033986113
0.00034764863
0.00035900738
0.00037342611
0.00039038946
0.00040941421
0.00043006931
0.00045198311
0.00047484229
0.00049838654
0.00052240069
0.00054670596
0.00057115827
0.00059564287
0.00062006466
0.00064434435
0.00066841675
0.00069222886
0.00071573799
0.00073891013
0.00076171834
0.00078414164
0.00080616408
0.00082777404
0.00084896364
0.00086972828
0.00089006625
0.00090997838
0.00092946771
0.00094853931
0.00096719997
0.00098545806
0.0010033233
0.0010208068
0.0010379205
0.0010546775
0.0010710917
0.0010871779
0.0011029513
0.0011184281
0.0011336248
0.0011485588
0.0011632496
0.0011777163
0.0011919398
0.0012059116
0.0012204039
0.0012361574
0.00032155286
0.00032203584
0.00032712885
0.00033641183
0.0003493485
0.00036535814
0.00038387397
0.00040437984
0.00042642709
0.00044963755
0.00047369843
0.00049835345
0.00052339225
0.00054864607
0.00057398073
0.00059928665
0.00062447367
0.00064946815
0.00067421037
0.00069865218
0.00072275506
0.0007464885
0.0007698286
0.00079275698
0.00081526
0.00083732803
0.00085895497
0.0008801378
0.00090087619
0.00092117217
0.00094102989
0.00096045535
0.00097945619
0.00099804152
0.0010162217
0.0010340084
0.0010514141
0.0010684523
0.0010851373
0.0011014841
0.0011175084
0.0011332265
0.0011486552
0.0011638118
0.0011787162
0.0011933882
0.0012078114
0.0012219668
0.0012366048
0.0012526118
0.00030702429
0.00030868831
0.00031519838
0.00032604373
0.00034059965
0.00035821437
0.00037827262
0.00040023054
0.00042362748
0.00044808353
0.00047328974
0.00049899559
0.00052500146
0.00055114933
0.00057731179
0.00060338544
0.00062928661
0.0006549477
0.00068031428
0.0007053428
0.0007299987
0.00075425481
0.00077809009
0.00080148865
0.00082443901
0.00084693346
0.00086896755
0.00089053975
0.00091165099
0.00093230449
0.00095250537
0.00097226052
0.00099157839
0.0010104688
0.0010289427
0.0010470122
0.0010646903
0.001081991
0.0010989289
0.0011155193
0.0011317781
0.0011477219
0.0011633676
0.0011787328
0.0011938373
0.0012087017
0.0012233127
0.0012376412
0.0012524111
0.0012686629
0.00029311892
0.0002960542
0.00030406287
0.00031652964
0.00033273489
0.00035195628
0.00037353501
0.00039690594
0.00042160238
0.0004472471
0.00047353763
0.00050023501
0.00052715142
0.00055413734
0.000581073
0.00060786252
0.000634429
0.00066071071
0.00068665837
0.00071223279
0.00073740315
0.00076214541
0.00078644125
0.00081027714
0.00083364362
0.00085653475
0.00087894768
0.0009008822
0.00092234049
0.00094332679
0.00096384718
0.00098390939
0.0010035226
0.0010226971
0.0010414447
0.0010597779
0.0010777101
0.0010952557
0.0011124296
0.0011292475
0.0011457254
0.0011618802
0.001177729
0.0011932894
0.0012085812
0.001223626
0.0012384133
0.0012529049
0.0012677938
0.0012842817
0.00027983258
0.00028412997
0.00029371427
0.00030785204
0.00032572426
0.00034654114
0.00036960716
0.00039434314
0.00042028219
0.0004470536
0.00047436732
0.00050199752
0.00052976677
0.00055753486
0.00058519083
0.00061264653
0.00063983169
0.00066669033
0.00069317802
0.00071925975
0.00074490814
0.00077010217
0.00079482604
0.0008190684
0.00084282169
0.00086608166
0.00088884686
0.00091111839
0.00093289952
0.00095419549
0.00097501323
0.00099536124
0.0010152493
0.0010346886
0.0010536911
0.00107227
0.001090439
0.0011082129
0.001125607
0.0011426371
0.0011593197
0.0011756715
0.0011917101
0.0012074532
0.0012229204
0.0012381338
0.0012530864
0.001267732
0.0012827271
0.0012994427
0.00026716217
0.00027291208
0.00028414279
0.00029999001
0.00031953365
0.00034192229
0.00036643205
0.00039247729
0.00041959632
0.00044743146
0.00047570732
0.00050421062
0.00053277522
0.00056127128
0.00058959682
0.00061767127
0.00064543083
0.000672825
0.00069981397
0.0007263666
0.00075245879
0.00077807228
0.00080319363
0.00082781353
0.0008519262
0.00087552889
0.00089862152
0.00092120633
0.00094328764
0.00096487158
0.0009859659
0.0010065798
0.0010267237
0.0010464093
0.0010656491
0.0010844567
0.0011028464
0.001120833
0.0011384323
0.0011556604
0.0011725338
0.0011890697
0.0012052856
0.0012211993
0.0012368305
0.0012522015
0.001267309
0.0012820999
0.0012971889
0.0013141243
0.00025510543
0.00026239649
0.00027533631
0.00029291893
0.00031412489
0.00033804958
0.00036395019
0.00039124213
0.00041947648
0.00044831183
0.0004774878
0.00050680475
0.00053610887
0.00056528085
0.00059422752
0.00062287568
0.00065116774
0.00067905838
0.00070651212
0.00073350144
0.00076000527
0.00078600791
0.00081149813
0.00083646849
0.00086091483
0.00088483581
0.00090823259
0.00093110848
0.00095346873
0.00097532033
0.00099667175
0.0010175328
0.0010379147
0.0010578293
0.0010772899
0.0010963103
0.0011149053
0.00113309
0.0011508805
0.001168293
0.0011853444
0.0012020519
0.0012184332
0.0012345063
0.0012502906
0.0012658089
0.0012810613
0.0012959891
0.0013111603
0.0013283077
0.00024366056
0.00025257815
0.00026727986
0.00028661025
0.00030945592
0.00033486978
0.00036210015
0.00039057287
0.00041985653
0.00044962745
0.00047964173
0.00050971449
0.00053970443
0.00056950261
0.00059902439
0.00062820369
0.00065698874
0.0006853391
0.00071322332
0.00074061723
0.00076750256
0.00079386598
0.00081969827
0.00084499373
0.00086974968
0.00089396609
0.00091764522
0.00094079138
0.00096341069
0.00098551089
0.0010071011
0.0010281919
0.0010487948
0.0010689223
0.0010885881
0.0011078064
0.0011265923
0.0011449612
0.0011629295
0.0011805137
0.0011977309
0.0012145984
0.001231134
0.0012473557
0.001263283
0.0012789386
0.0012943262
0.0013093834
0.0013246253
0.001341977
0.00023282602
0.0002434505
0.00025995525
0.0002810314
0.00030548102
0.00033232705
0.00036082106
0.00039040622
0.00042067166
0.00045131358
0.00048210589
0.00051287876
0.00054350321
0.00057388035
0.00060393376
0.00063360404
0.00066284494
0.00069162053
0.00071990308
0.0007476715
0.0007749101
0.00080160774
0.00082775703
0.00085335387
0.00087839692
0.00090288734
0.00092682842
0.00095022537
0.00097308509
0.00099541603
0.001017228
0.0010385319
0.00105934
0.0010796653
0.0010995216
0.0011189237
0.0011378869
0.0011564271
0.0011745607
0.0011923045
0.0012096759
0.0012266922
0.0012433715
0.0012597318
0.0012757923
0.001291576
0.0013070894
0.001322269
0.0013375706
0.001355119
0.00022260013
0.00023500505
0.00025334067
0.00027614586
0.00030215119
0.00033036517
0.00036005277
0.00039067985
0.00042185931
0.00045330903
0.0004848212
0.00051624086
0.00054745105
0.00057836251
0.00060890657
0.00063903013
0.00066869204
0.00069786053
0.00072651129
0.00075462607
0.00078219155
0.00080919855
0.0008356414
0.0008615174
0.00088682648
0.00091157086
0.00093575477
0.00095938423
0.00098246689
0.0010050118
0.0010270294
0.0010485311
0.0010695295
0.0010900381
0.0011100712
0.0011296438
0.0011487715
0.0011674706
0.0011857577
0.0012036499
0.0012211645
0.0012383192
0.0012551322
0.0012716215
0.0012878061
0.0013037088
0.0013193394
0.0013346345
0.0013499851
0.001367723
0.0002129808
0.0002272308
0.00024741045
0.00027191315
0.00029941601
0.00032892776
0.00035973561
0.00039133327
0.00042336009
0.00045555642
0.00048773269
0.00051974847
0.00055149828
0.00058290201
0.00061389825
0.00064443972
0.00067448999
0.00070402112
0.00073301193
0.00076144675
0.0007893144
0.00081660752
0.00084332196
0.00086945634
0.00089501171
0.00091999126
0.00094440007
0.00096824492
0.0009915341
0.0010142773
0.0010364853
0.0010581702
0.001079345
0.0011000235
0.0011202204
0.0011399509
0.0011592312
0.0011780776
0.001196507
0.0012145367
0.0012321842
0.0012494675
0.0012664046
0.0012830138
0.0012993138