/*--------------------------------*- C++ -*----------------------------------*\
| =========                 |                                                 |
| \\      /  F ield         | OpenFOAM: The Open Source CFD Toolbox           |
|  \\    /   O peration     | Version:  2312                                  |
|   \\  /    A nd           | Website:  www.openfoam.com                      |
|    \\/     M anipulation  |                                                 |
\*---------------------------------------------------------------------------*/
FoamFile
{
    version     2.0;
    format      ascii;
    arch        "LSB;label=32;scalar=64";
    class       volScalarField;
    location    "0.04";
    object      N2;
}
// * * * * * * * * * * * * * * * * * * * * * * * * * * * * * * * * * * * * * //

dimensions      [0 0 0 0 0 0 0];

internalField   nonuniform List<scalar> 
3257
(
0.7680885
0.76821272
0.76832978
0.76844002
0.76854376
0.76864132
0.76873299
0.76881909
0.76889989
0.76897568
0.76904671
0.76911325
0.76917554
0.76923383
0.76928833
0.76933928
0.76938688
0.76943132
0.76947281
0.76951152
0.76954763
0.76958129
0.76961268
0.76964193
0.76966919
0.76969459
0.76971825
0.76974031
0.76976087
0.76978003
0.7697979
0.76981458
0.76983014
0.76984469
0.76985829
0.76987102
0.76988295
0.76989415
0.76990468
0.7699146
0.76992396
0.76993282
0.76994121
0.7699492
0.76995682
0.76996412
0.76997112
0.76997787
0.76998441
0.76999076
0.76999695
0.76808245
0.76820718
0.76832471
0.76843538
0.76853952
0.76863744
0.76872946
0.76881587
0.76889696
0.768973
0.76904428
0.76911104
0.76917353
0.76923201
0.76928668
0.76933778
0.76938552
0.7694301
0.7694717
0.76951052
0.76954672
0.76958048
0.76961194
0.76964126
0.76966859
0.76969405
0.76971777
0.76973988
0.76976048
0.76977968
0.76979759
0.7698143
0.7698299
0.76984447
0.76985809
0.76987085
0.7698828
0.76989402
0.76990456
0.7699145
0.76992387
0.76993274
0.76994115
0.76994915
0.76995678
0.76996408
0.76997109
0.76997785
0.76998439
0.76999075
0.76999695
0.768071
0.76819668
0.76831509
0.76842657
0.76853146
0.76863008
0.76872274
0.76880973
0.76889136
0.7689679
0.76903963
0.76910681
0.76916969
0.76922852
0.76928352
0.76933491
0.76938292
0.76942774
0.76946957
0.76950859
0.76954497
0.7695789
0.76961052
0.76963998
0.76966743
0.76969301
0.76971683
0.76973903
0.76975972
0.769779
0.76979698
0.76981375
0.76982941
0.76984403
0.7698577
0.7698705
0.76988249
0.76989375
0.76990433
0.76991429
0.76992369
0.76993258
0.76994101
0.76994903
0.76995668
0.769964
0.76997103
0.76997781
0.76998436
0.76999073
0.76999694
0.76805482
0.76818184
0.76830148
0.76841411
0.76852006
0.76861966
0.76871321
0.76880104
0.76888343
0.76896068
0.76903306
0.76910083
0.76916425
0.76922357
0.76927903
0.76933084
0.76937922
0.76942439
0.76946654
0.76950584
0.76954249
0.76957666
0.76960849
0.76963815
0.76966578
0.76969152
0.7697155
0.76973783
0.76975864
0.76977803
0.76979611
0.76981297
0.76982871
0.76984341
0.76985715
0.76987001
0.76988206
0.76989336
0.76990399
0.76991399
0.76992343
0.76993236
0.76994082
0.76994887
0.76995655
0.76996389
0.76997095
0.76997774
0.76998432
0.7699907
0.76999693
0.76803455
0.76816323
0.76828443
0.7683985
0.76850577
0.76860659
0.76870128
0.76879015
0.7688735
0.76895162
0.76902481
0.76909332
0.76915742
0.76921737
0.76927339
0.76932573
0.76937459
0.76942019
0.76946273
0.7695024
0.76953938
0.76957384
0.76960595
0.76963586
0.76966371
0.76968966
0.76971382
0.76973632
0.76975728
0.76977681
0.76979502
0.76981199
0.76982784
0.76984263
0.76985645
0.76986939
0.76988151
0.76989288
0.76990356
0.76991362
0.76992311
0.76993208
0.76994058
0.76994867
0.76995638
0.76996376
0.76997084
0.76997766
0.76998426
0.76999067
0.76999692
0.76801078
0.76814143
0.76826444
0.76838019
0.76848902
0.76859127
0.76868729
0.76877737
0.76886185
0.76894101
0.76901514
0.76908452
0.76914942
0.7692101
0.76926679
0.76931973
0.76936915
0.76941526
0.76945827
0.76949836
0.76953573
0.76957054
0.76960297
0.76963317
0.76966129
0.76968747
0.76971185
0.76973455
0.76975569
0.76977538
0.76979373
0.76981085
0.76982681
0.76984171
0.76985564
0.76986866
0.76988086
0.76989231
0.76990306
0.76991318
0.76992273
0.76993175
0.7699403
0.76994843
0.76995618
0.76996359
0.76997071
0.76997757
0.7699842
0.76999063
0.76999691
0.76798408
0.76811693
0.76824199
0.76835963
0.76847021
0.76857408
0.76867158
0.76876304
0.76884877
0.76892909
0.76900429
0.76907465
0.76914044
0.76920194
0.76925938
0.76931301
0.76936306
0.76940974
0.76945327
0.76949384
0.76953163
0.76956684
0.76959963
0.76963015
0.76965857
0.76968502
0.76970964
0.76973256
0.7697539
0.76977378
0.7697923
0.76980956
0.76982566
0.76984068
0.76985472
0.76986785
0.76988014
0.76989167
0.7699025
0.76991269
0.7699223
0.76993138
0.76993999
0.76994816
0.76995596
0.76996341
0.76997057
0.76997746
0.76998412
0.76999059
0.7699969
0.76795498
0.76809024
0.76821753
0.76833723
0.76844972
0.76855535
0.76865447
0.76874742
0.76883453
0.76891612
0.76899247
0.7690639
0.76913067
0.76919306
0.76925132
0.7693057
0.76935643
0.76940373
0.76944783
0.76948891
0.76952718
0.76956282
0.76959599
0.76962687
0.76965561
0.76968235
0.76970724
0.7697304
0.76975196
0.76977204
0.76979073
0.76980816
0.7698244
0.76983957
0.76985372
0.76986696
0.76987936
0.76989098
0.76990189
0.76991216
0.76992183
0.76993098
0.76993964
0.76994787
0.76995572
0.76996322
0.76997041
0.76997734
0.76998404
0.76999054
0.76999688
0.76792395
0.76806178
0.76819146
0.76831336
0.76842789
0.7685354
0.76863625
0.7687308
0.76881938
0.76890231
0.76897991
0.76905247
0.76912028
0.76918362
0.76924275
0.76929792
0.76934938
0.76939735
0.76944205
0.76948368
0.76952245
0.76955855
0.76959213
0.76962339
0.76965247
0.76967952
0.76970469
0.76972811
0.7697499
0.76977019
0.76978908
0.76980667
0.76982308
0.76983838
0.76985267
0.76986603
0.76987853
0.76989024
0.76990124
0.76991159
0.76992134
0.76993055
0.76993928
0.76994756
0.76995546
0.76996301
0.76997025
0.76997722
0.76998396
0.76999049
0.76999687
0.76789145
0.76803198
0.76816416
0.76828838
0.76840504
0.76851452
0.76861719
0.76871341
0.76880353
0.76888788
0.76896677
0.76904052
0.76910942
0.76917376
0.7692338
0.76928981
0.76934202
0.76939069
0.76943602
0.76947823
0.76951752
0.76955409
0.76958811
0.76961976
0.7696492
0.76967658
0.76970204
0.76972572
0.76974776
0.76976826
0.76978735
0.76980513
0.76982169
0.76983715
0.76985157
0.76986505
0.76987766
0.76988948
0.76990057
0.769911
0.76992083
0.76993011
0.7699389
0.76994725
0.76995519
0.76996279
0.76997008
0.76997709
0.76998387
0.76999044
0.76999685
0.76785787
0.7680012
0.76813597
0.76826258
0.76838145
0.76849298
0.76859753
0.76869548
0.76878719
0.768873
0.76895323
0.76902821
0.76909824
0.76916361
0.76922459
0.76928146
0.76933446
0.76938383
0.76942981
0.76947262
0.76951245
0.76954951
0.76958398
0.76961603
0.76964584
0.76967355
0.76969931
0.76972327
0.76974556
0.76976629
0.76978558
0.76980354
0.76982028
0.76983588
0.76985044
0.76986405
0.76987678
0.7698887
0.76989988
0.7699104
0.7699203
0.76992966
0.76993851
0.76994692
0.76995492
0.76996257
0.7699699
0.76997696
0.76998378
0.76999039
0.76999683
0.76782357
0.76796977
0.76810719
0.76823626
0.7683574
0.76847101
0.76857748
0.76867721
0.76877054
0.76885784
0.76893945
0.76901568
0.76908686
0.76915328
0.76921522
0.76927296
0.76932676
0.76937687
0.76942351
0.76946692
0.7695073
0.76954486
0.76957978
0.76961225
0.76964243
0.76967048
0.76969655
0.76972079
0.76974332
0.76976428
0.76978378
0.76980194
0.76981884
0.7698346
0.7698493
0.76986304
0.76987588
0.7698879
0.76989919
0.76990979
0.76991977
0.7699292
0.76993812
0.76994659
0.76995465
0.76996235
0.76996973
0.76997683
0.76998369
0.76999034
0.76999682
0.76778888
0.76793799
0.7680781
0.76820966
0.76833309
0.76844882
0.76855725
0.76865876
0.76875375
0.76884256
0.76892555
0.76900305
0.76907539
0.76914287
0.76920578
0.76926441
0.76931902
0.76936986
0.76941717
0.76946119
0.76950213
0.76954019
0.76957557
0.76960845
0.769639
0.76966739
0.76969378
0.7697183
0.76974109
0.76976228
0.76978198
0.76980032
0.7698174
0.76983332
0.76984816
0.76986202
0.76987498
0.76988711
0.76989849
0.76990918
0.76991924
0.76992874
0.76993773
0.76994626
0.76995437
0.76996212
0.76996955
0.7699767
0.76998359
0.76999028
0.7699968
0.76775409
0.76790613
0.76804895
0.76818301
0.76830875
0.76842661
0.76853699
0.76864031
0.76873694
0.76882727
0.76891165
0.76899043
0.76906393
0.76913248
0.76919636
0.76925588
0.76931129
0.76936287
0.76941085
0.76945548
0.76949697
0.76953553
0.76957137
0.76960466
0.76963559
0.76966433
0.76969102
0.76971582
0.76973886
0.76976028
0.76978019
0.76979872
0.76981597
0.76983204
0.76984703
0.76986101
0.76987409
0.76988632
0.7698978
0.76990857
0.76991872
0.76992829
0.76993734
0.76994593
0.7699541
0.7699619
0.76996938
0.76997656
0.7699835
0.76999023
0.76999678
0.76771944
0.76787441
0.76801994
0.76815649
0.76828454
0.76840452
0.76851686
0.76862197
0.76872026
0.7688121
0.76889786
0.76897791
0.76905257
0.76912218
0.76918703
0.76924742
0.76930364
0.76935595
0.7694046
0.76944983
0.76949187
0.76953093
0.76956722
0.76960092
0.76963222
0.76966129
0.76968829
0.76971337
0.76973666
0.76975831
0.76977843
0.76979715
0.76981456
0.76983079
0.76984591
0.76986002
0.76987321
0.76988555
0.76989712
0.76990798
0.7699182
0.76992784
0.76993696
0.76994561
0.76995383
0.76996168
0.76996921
0.76997644
0.76998342
0.76999018
0.76999677
0.76768516
0.76784303
0.76799125
0.76813029
0.76826062
0.76838271
0.76849698
0.76860388
0.76870379
0.76879713
0.76888427
0.76896557
0.76904138
0.76911203
0.76917784
0.7692391
0.76929611
0.76934914
0.76939845
0.76944427
0.76948685
0.76952641
0.76956314
0.76959725
0.76962892
0.76965832
0.76968562
0.76971097
0.76973451
0.76975638
0.7697767
0.7697956
0.76981318
0.76982956
0.76984481
0.76985905
0.76987235
0.76988479
0.76989645
0.7699074
0.76991769
0.7699274
0.76993659
0.76994529
0.76995357
0.76996147
0.76996904
0.76997631
0.76998333
0.76999013
0.76999675
0.76765143
0.76781218
0.76796304
0.76810453
0.76823712
0.76836129
0.76847747
0.76858612
0.76868765
0.76878246
0.76887095
0.76895348
0.76903042
0.76910209
0.76916884
0.76923096
0.76928875
0.76934248
0.76939243
0.76943885
0.76948196
0.76952199
0.76955916
0.76959367
0.76962569
0.76965542
0.76968301
0.76970863
0.76973241
0.7697545
0.76977502
0.7697941
0.76981184
0.76982836
0.76984375
0.76985811
0.76987151
0.76988405
0.7698958
0.76990683
0.7699172
0.76992698
0.76993623
0.76994499
0.76995332
0.76996127
0.76996888
0.76997619
0.76998325
0.76999008
0.76999674
0.76761841
0.76778198
0.76793546
0.76807935
0.76821416
0.76834036
0.76845842
0.76856878
0.76867189
0.76876814
0.76885795
0.76894169
0.76901973
0.76909242
0.76916008
0.76922304
0.76928158
0.76933601
0.76938659
0.76943357
0.7694772
0.7695177
0.7695553
0.76959019
0.76962257
0.76965261
0.76968049
0.76970636
0.76973038
0.76975268
0.76977339
0.76979264
0.76981054
0.7698272
0.76984272
0.76985719
0.76987071
0.76988334
0.76989518
0.76990628
0.76991673
0.76992657
0.76993588
0.76994469
0.76995308
0.76996107
0.76996872
0.76997608
0.76998317
0.76999004
0.76999672
0.76758624
0.76775257
0.7679086
0.76805484
0.76819181
0.76832
0.76843989
0.76855193
0.76865658
0.76875424
0.76884534
0.76893026
0.76900937
0.76908304
0.76915159
0.76921536
0.76927465
0.76932975
0.76938093
0.76942847
0.7694726
0.76951356
0.76955157
0.76958683
0.76961954
0.76964989
0.76967805
0.76970417
0.76972842
0.76975092
0.76977182
0.76979123
0.76980929
0.76982608
0.76984173
0.76985631
0.76986993
0.76988266
0.76989458
0.76990576
0.76991627
0.76992618
0.76993554
0.76994441
0.76995284
0.76996088
0.76996857
0.76997596
0.76998309
0.76998999
0.76999671
0.76755502
0.76772405
0.76788255
0.76803109
0.76817016
0.76830029
0.76842196
0.76853563
0.76864177
0.7687408
0.76883315
0.76891921
0.76899936
0.76907398
0.7691434
0.76920795
0.76926795
0.7693237
0.76937548
0.76942355
0.76946817
0.76950957
0.76954797
0.7695836
0.76961664
0.76964728
0.7696757
0.76970207
0.76972653
0.76974923
0.76977031
0.76978989
0.76980809
0.76982502
0.76984078
0.76985547
0.76986919
0.769882
0.769894
0.76990526
0.76991584
0.76992581
0.76993522
0.76994414
0.76995262
0.7699607
0.76996843
0.76997586
0.76998302
0.76998995
0.76999669
0.76752485
0.76769649
0.7678574
0.76800815
0.76814927
0.76828127
0.76840466
0.76851992
0.7686275
0.76872785
0.76882141
0.76890857
0.76898974
0.76906527
0.76913552
0.76920083
0.76926153
0.7693179
0.76937025
0.76941883
0.76946392
0.76950574
0.76954453
0.7695805
0.76961385
0.76964478
0.76967346
0.76970006
0.76972473
0.76974762
0.76976887
0.7697886
0.76980694
0.76982399
0.76983987
0.76985467
0.76986848
0.76988138
0.76989345
0.76990478
0.76991542
0.76992545
0.76993492
0.76994389
0.76995241
0.76996053
0.7699683
0.76997576
0.76998295
0.76998991
0.76999668
0.76749579
0.76766995
0.76783319
0.76798609
0.76812918
0.76826299
0.76838804
0.76850482
0.7686138
0.76871543
0.76881015
0.76889838
0.76898051
0.76905692
0.76912798
0.76919402
0.76925538
0.76931235
0.76936524
0.76941432
0.76945985
0.76950208
0.76954124
0.76957754
0.7696112
0.7696424
0.76967132
0.76969814
0.76972301
0.76974608
0.76976749
0.76978737
0.76980584
0.76982302
0.76983901
0.7698539
0.7698678
0.76988078
0.76989293
0.76990433
0.76991503
0.76992511
0.76993463
0.76994365
0.76995221
0.76996037
0.76996817
0.76997567
0.76998289
0.76998988
0.76999667
0.76746789
0.76764449
0.76780997
0.76796493
0.76810992
0.76824548
0.76837213
0.76849037
0.76860069
0.76870354
0.76879938
0.76888863
0.76897169
0.76904895
0.76912077
0.76918752
0.76924951
0.76930706
0.76936047
0.76941003
0.76945598
0.7694986
0.76953811
0.76957473
0.76960867
0.76964013
0.76966929
0.76969632
0.76972138
0.76974462
0.76976619
0.76978621
0.76980481
0.7698221
0.76983819
0.76985318
0.76986716
0.76988022
0.76989244
0.7699039
0.76991466
0.76992479
0.76993436
0.76994342
0.76995202
0.76996022
0.76996805
0.76997558
0.76998283
0.76998984
0.76999666
0.76744119
0.76762012
0.76778776
0.76794471
0.76809152
0.76822875
0.76835693
0.76847657
0.76858818
0.7686922
0.76878911
0.76887934
0.76896329
0.76904135
0.76911392
0.76918133
0.76924392
0.76930203
0.76935594
0.76940594
0.76945231
0.76949529
0.76953514
0.76957206
0.76960628
0.76963798
0.76966736
0.76969459
0.76971983
0.76974324
0.76976495
0.76978511
0.76980383
0.76982123
0.76983742
0.7698525
0.76986656
0.76987969
0.76989198
0.76990349
0.76991431
0.76992449
0.76993411
0.7699432
0.76995184
0.76996007
0.76996794
0.76997549
0.76998277
0.76998981
0.76999665
0.76741571
0.76759689
0.76776659
0.76792543
0.76807398
0.76821281
0.76834246
0.76846344
0.76857627
0.76868142
0.76877935
0.76887051
0.76895531
0.76903414
0.76910741
0.76917545
0.76923863
0.76929725
0.76935164
0.76940207
0.76944883
0.76949217
0.76953233
0.76956954
0.76960401
0.76963595
0.76966554
0.76969296
0.76971837
0.76974193
0.76976379
0.76978407
0.7698029
0.76982041
0.76983669
0.76985185
0.76986599
0.76987919
0.76989154
0.76990311
0.76991398
0.76992421
0.76993387
0.769943
0.76995168
0.76995994
0.76996784
0.76997542
0.76998272
0.76998978
0.76999664
0.76739146
0.76757478
0.76774645
0.7679071
0.76805731
0.76819767
0.76832871
0.76845098
0.76856498
0.7686712
0.7687701
0.76886214
0.76894774
0.76902732
0.76910125
0.7691699
0.76923362
0.76929274
0.76934758
0.76939842
0.76944554
0.76948921
0.76952967
0.76956715
0.76960187
0.76963403
0.76966382
0.76969142
0.76971699
0.7697407
0.76976269
0.76978309
0.76980203
0.76981963
0.769836
0.76985125
0.76986546
0.76987872
0.76989113
0.76990276
0.76991367
0.76992395
0.76993364
0.76994281
0.76995152
0.76995981
0.76996774
0.76997534
0.76998267
0.76998975
0.76999663
0.76736844
0.7675538
0.76772735
0.76788972
0.76804152
0.76818332
0.7683157
0.76843918
0.76855429
0.76866152
0.76876135
0.76885423
0.7689406
0.76902087
0.76909543
0.76916465
0.76922889
0.76928848
0.76934374
0.76939497
0.76944245
0.76948643
0.76952717
0.76956491
0.76959986
0.76963222
0.7696622
0.76968997
0.7697157
0.76973955
0.76976166
0.76978217
0.76980122
0.76981891
0.76983536
0.76985068
0.76986496
0.76987829
0.76989075
0.76990242
0.76991339
0.7699237
0.76993343
0.76994264
0.76995138
0.7699597
0.76996765
0.76997528
0.76998262
0.76998972
0.76999662
0.76734665
0.76753394
0.76770927
0.76787327
0.76802658
0.76816976
0.7683034
0.76842803
0.76854419
0.76865239
0.76875309
0.76884677
0.76893386
0.76901479
0.76908995
0.76915971
0.76922444
0.76928448
0.76934014
0.76939174
0.76943953
0.76948381
0.76952482
0.7695628
0.76959797
0.76963053
0.76966069
0.76968862
0.76971449
0.76973847
0.7697607
0.76978132
0.76980045
0.76981823
0.76983476
0.76985015
0.76986449
0.76987788
0.76989039
0.76990211
0.76991312
0.76992347
0.76993324
0.76994248
0.76995124
0.76995959
0.76996757
0.76997521
0.76998258
0.7699897
0.76999661
0.76732607
0.76751519
0.7676922
0.76785775
0.76801248
0.76815697
0.7682918
0.76841752
0.76853468
0.76864378
0.76874532
0.76883975
0.76892753
0.76900907
0.76908479
0.76915507
0.76922026
0.76928072
0.76933676
0.76938869
0.7694368
0.76948136
0.76952262
0.76956083
0.7695962
0.76962895
0.76965927
0.76968735
0.76971336
0.76973746
0.7697598
0.76978051
0.76979974
0.7698176
0.7698342
0.76984966
0.76986406
0.7698775
0.76989006
0.76990183
0.76991287
0.76992326
0.76993306
0.76994233
0.76995112
0.76995949
0.76996749
0.76997516
0.76998254
0.76998968
0.76999661
0.7673067
0.76749751
0.76767611
0.76784313
0.7679992
0.76814492
0.76828088
0.76840764
0.76852574
0.7686357
0.76873802
0.76883316
0.76892158
0.76900371
0.76907996
0.76915072
0.76921635
0.7692772
0.7693336
0.76938585
0.76943425
0.76947907
0.76952057
0.76955898
0.76959455
0.76962747
0.76965795
0.76968617
0.7697123
0.76973651
0.76975896
0.76977977
0.76979908
0.76981701
0.76983368
0.7698492
0.76986365
0.76987714
0.76988975
0.76990156
0.76991264
0.76992306
0.76993289
0.76994219
0.76995101
0.7699594
0.76996742
0.7699751
0.7699825
0.76998966
0.7699966
0.76748089
0.76766098
0.76782938
0.76798673
0.76813361
0.76827064
0.76839837
0.76851736
0.76862812
0.76873117
0.76882698
0.76891601
0.76899869
0.76907544
0.76914665
0.76921269
0.76927391
0.76933064
0.76938319
0.76943186
0.76947693
0.76951865
0.76955726
0.76959301
0.76962609
0.76965671
0.76968506
0.76971132
0.76973564
0.76975817
0.76977907
0.76979846
0.76981646
0.7698332
0.76984877
0.76986328
0.76987681
0.76988946
0.76990131
0.76991242
0.76992288
0.76993274
0.76994206
0.7699509
0.76995932
0.76996735
0.76997506
0.76998247
0.76998964
0.76999659
0.76746522
0.76764676
0.76781648
0.76797503
0.76812301
0.76826104
0.76838969
0.76850951
0.76862103
0.76872477
0.76882121
0.7689108
0.768994
0.76907122
0.76914285
0.76920927
0.76927084
0.76932788
0.76938071
0.76942964
0.76947493
0.76951686
0.76955566
0.76959157
0.76962481
0.76965557
0.76968404
0.7697104
0.76973482
0.76975745
0.76977843
0.76979789
0.76981596
0.76983275
0.76984838
0.76986293
0.76987651
0.7698892
0.76990108
0.76991223
0.76992271
0.76993259
0.76994194
0.7699508
0.76995924
0.76996729
0.76997501
0.76998244
0.76998962
0.76999659
0.76745055
0.76763345
0.76780441
0.76796408
0.7681131
0.76825206
0.76838157
0.76850217
0.76861441
0.76871879
0.76881582
0.76890595
0.76898963
0.76906728
0.76913931
0.76920609
0.76926797
0.76932531
0.76937841
0.76942757
0.76947308
0.76951519
0.76955417
0.76959024
0.76962361
0.7696545
0.76968309
0.76970956
0.76973407
0.76975678
0.76977783
0.76979736
0.76981549
0.76983234
0.76984801
0.76986261
0.76987623
0.76988896
0.76990087
0.76991205
0.76992256
0.76993246
0.76994183
0.76995071
0.76995917
0.76996724
0.76997497
0.76998242
0.76998961
0.76999658
0.76743684
0.76762101
0.76779312
0.76795385
0.76810384
0.76824369
0.768374
0.76849533
0.76860824
0.76871323
0.7688108
0.76890143
0.76898556
0.76906362
0.76913602
0.76920313
0.76926532
0.76932292
0.76937626
0.76942565
0.76947135
0.76951365
0.76955279
0.769589
0.76962251
0.76965352
0.76968221
0.76970877
0.76973337
0.76975616
0.76977728
0.76979687
0.76981506
0.76983196
0.76984767
0.76986232
0.76987597
0.76988873
0.76990068
0.76991188
0.76992241
0.76993234
0.76994173
0.76995063
0.7699591
0.76996719
0.76997494
0.76998239
0.76998959
0.76999658
0.76742405
0.76760941
0.76778261
0.76794433
0.76809522
0.76823589
0.76836695
0.76848897
0.7686025
0.76870805
0.76880614
0.76889723
0.76898178
0.76906022
0.76913296
0.76920038
0.76926285
0.76932071
0.76937428
0.76942387
0.76946976
0.76951223
0.76955151
0.76958786
0.76962149
0.7696526
0.7696814
0.76970805
0.76973272
0.76975558
0.76977677
0.76979642
0.76981466
0.7698316
0.76984737
0.76986204
0.76987574
0.76988853
0.7699005
0.76991173
0.76992228
0.76993224
0.76994164
0.76995056
0.76995904
0.76996714
0.7699749
0.76998237
0.76998958
0.76999658
0.76741215
0.76759861
0.76777282
0.76793547
0.7680872
0.76822865
0.76836041
0.76848306
0.76859717
0.76870325
0.76880181
0.76889334
0.76897828
0.76905707
0.76913013
0.76919784
0.76926057
0.76931866
0.76937244
0.76942222
0.76946829
0.76951091
0.76955034
0.76958681
0.76962055
0.76965176
0.76968065
0.76970738
0.76973213
0.76975506
0.7697763
0.769796
0.76981429
0.76983128
0.76984708
0.7698618
0.76987552
0.76988834
0.76990034
0.76991159
0.76992217
0.76993214
0.76994156
0.76995049
0.76995899
0.7699671
0.76997487
0.76998235
0.76998957
0.76999657
0.76740109
0.76758858
0.76776373
0.76792724
0.76807976
0.76822193
0.76835434
0.76847759
0.76859223
0.7686988
0.76879781
0.76888973
0.76897504
0.76905416
0.76912751
0.76919549
0.76925846
0.76931677
0.76937075
0.76942071
0.76946693
0.76950969
0.76954925
0.76958584
0.76961968
0.76965099
0.76967996
0.76970677
0.76973158
0.76975457
0.76977587
0.76979562
0.76981396
0.76983099
0.76984682
0.76986157
0.76987532
0.76988817
0.76990019
0.76991146
0.76992206
0.76993205
0.76994148
0.76995043
0.76995894
0.76996707
0.76997485
0.76998233
0.76998956
0.76999657
0.76739083
0.76757928
0.76775532
0.76791963
0.76807288
0.76821571
0.76834873
0.76847253
0.76858767
0.76869469
0.76879411
0.7688864
0.76897205
0.76905147
0.7691251
0.76919333
0.76925652
0.76931503
0.76936919
0.76941931
0.76946568
0.76950857
0.76954825
0.76958494
0.76961889
0.76965028
0.76967933
0.7697062
0.76973108
0.76975413
0.76977548
0.76979528
0.76981365
0.76983071
0.76984658
0.76986136
0.76987514
0.76988801
0.76990005
0.76991135
0.76992196
0.76993196
0.76994142
0.76995038
0.7699589
0.76996703
0.76997482
0.76998232
0.76998955
0.76999657
0.76738135
0.76757069
0.76774754
0.76791259
0.76806652
0.76820997
0.76834355
0.76846786
0.76858346
0.76869091
0.7687907
0.76888334
0.76896929
0.769049
0.76912288
0.76919133
0.76925473
0.76931343
0.76936776
0.76941803
0.76946453
0.76950755
0.76954733
0.76958413
0.76961815
0.76964963
0.76967875
0.76970569
0.76973063
0.76975372
0.76977512
0.76979496
0.76981337
0.76983047
0.76984637
0.76986117
0.76987498
0.76988787
0.76989993
0.76991124
0.76992187
0.76993189
0.76994136
0.76995033
0.76995886
0.769967
0.7699748
0.7699823
0.76998954
0.76999656
0.76737259
0.76756276
0.76774036
0.76790611
0.76806066
0.76820468
0.76833878
0.76846356
0.76857959
0.76868742
0.76878756
0.76888052
0.76896676
0.76904672
0.76912084
0.7691895
0.76925309
0.76931196
0.76936644
0.76941685
0.76946348
0.76950661
0.76954649
0.76958338
0.76961749
0.76964903
0.76967822
0.76970522
0.76973021
0.76975335
0.76977479
0.76979467
0.76981311
0.76983024
0.76984617
0.769861
0.76987483
0.76988774
0.76989982
0.76991115
0.76992179
0.76993182
0.7699413
0.76995028
0.76995883
0.76996698
0.76997478
0.76998229
0.76998954
0.76999656
0.76736452
0.76755546
0.76773376
0.76790014
0.76805527
0.76819982
0.7683344
0.76845961
0.76857604
0.76868422
0.76878469
0.76887793
0.76896444
0.76904464
0.76911897
0.76918783
0.76925159
0.76931061
0.76936524
0.76941577
0.76946252
0.76950575
0.76954572
0.76958269
0.76961688
0.76964849
0.76967773
0.76970479
0.76972983
0.76975301
0.76977449
0.76979441
0.76981288
0.76983004
0.76984599
0.76986085
0.76987469
0.76988762
0.76989972
0.76991106
0.76992172
0.76993176
0.76994125
0.76995025
0.7699588
0.76996695
0.76997477
0.76998228
0.76998953
0.76999656
0.76735711
0.76754875
0.7677277
0.76789467
0.76805034
0.76819536
0.76833038
0.76845599
0.76857278
0.76868129
0.76878205
0.76887557
0.76896231
0.76904273
0.76911726
0.7691863
0.76925022
0.76930939
0.76936414
0.76941479
0.76946164
0.76950496
0.76954503
0.76958207
0.76961632
0.769648
0.76967729
0.7697044
0.76972948
0.76975271
0.76977422
0.76979417
0.76981267
0.76982986
0.76984583
0.76986071
0.76987457
0.76988752
0.76989963
0.76991099
0.76992166
0.76993171
0.76994121
0.76995021
0.76995877
0.76996693
0.76997475
0.76998227
0.76998953
0.76999656
0.76735031
0.76754261
0.76772215
0.76788966
0.76804582
0.76819129
0.76832671
0.76845269
0.7685698
0.76867861
0.76877965
0.76887341
0.76896038
0.769041
0.7691157
0.7691849
0.76924897
0.76930827
0.76936314
0.7694139
0.76946084
0.76950425
0.76954439
0.7695815
0.76961582
0.76964755
0.7696769
0.76970405
0.76972917
0.76975243
0.76977398
0.76979395
0.76981248
0.76982969
0.76984569
0.76986058
0.76987446
0.76988742
0.76989955
0.76991092
0.7699216
0.76993166
0.76994117
0.76995018
0.76995874
0.76996691
0.76997474
0.76998226
0.76998952
0.76999656
0.76734411
0.767537
0.76771709
0.76788509
0.7680417
0.76818757
0.76832336
0.76844967
0.76856709
0.76867618
0.76877746
0.76887145
0.76895861
0.76903942
0.76911429
0.76918363
0.76924783
0.76930725
0.76936223
0.76941309
0.76946012
0.76950361
0.76954382
0.76958099
0.76961536
0.76964714
0.76967654
0.76970373
0.76972889
0.76975218
0.76977376
0.76979376
0.76981231
0.76982954
0.76984556
0.76986047
0.76987437
0.76988734
0.76989948
0.76991086
0.76992155
0.76993162
0.76994114
0.76995015
0.76995872
0.7699669
0.76997473
0.76998225
0.76998952
0.76999656
0.76733845
0.7675319
0.76771249
0.76788094
0.76803795
0.7681842
0.76832032
0.76844694
0.76856463
0.76867397
0.76877548
0.76886966
0.76895702
0.76903798
0.769113
0.76918248
0.76924681
0.76930633
0.76936141
0.76941235
0.76945946
0.76950302
0.7695433
0.76958053
0.76961495
0.76964678
0.76967621
0.76970344
0.76972863
0.76975196
0.76977356
0.76979359
0.76981216
0.76982941
0.76984544
0.76986037
0.76987428
0.76988727
0.76989942
0.76991081
0.76992151
0.76993159
0.76994111
0.76995013
0.76995871
0.76996689
0.76997472
0.76998225
0.76998951
0.76999656
0.76733332
0.76752728
0.76770831
0.76787717
0.76803455
0.76818114
0.76831757
0.76844446
0.7685624
0.76867197
0.76877368
0.76886805
0.76895557
0.76903669
0.76911185
0.76918145
0.76924588
0.76930551
0.76936067
0.76941169
0.76945887
0.7695025
0.76954283
0.76958011
0.76961458
0.76964645
0.76967592
0.76970318
0.76972841
0.76975176
0.76977339
0.76979343
0.76981203
0.76982929
0.76984534
0.76986028
0.7698742
0.7698872
0.76989936
0.76991076
0.76992147
0.76993155
0.76994108
0.76995011
0.76995869
0.76996687
0.76997471
0.76998224
0.76998951
0.76999656
0.76732868
0.7675231
0.76770455
0.76787377
0.76803149
0.76817837
0.76831508
0.76844222
0.7685604
0.76867016
0.76877206
0.7688666
0.76895427
0.76903553
0.7691108
0.76918051
0.76924504
0.76930476
0.76936
0.7694111
0.76945835
0.76950203
0.76954241
0.76957974
0.76961425
0.76964616
0.76967566
0.76970295
0.76972821
0.76975158
0.76977323
0.76979329
0.76981191
0.76982919
0.76984525
0.7698602
0.76987414
0.76988715
0.76989931
0.76991072
0.76992143
0.76993153
0.76994106
0.76995009
0.76995868
0.76996686
0.7699747
0.76998224
0.76998951
0.76999656
0.76732451
0.76751934
0.76770116
0.76787072
0.76802873
0.76817589
0.76831284
0.76844021
0.76855859
0.76866854
0.76877061
0.7688653
0.7689531
0.76903448
0.76910987
0.76917968
0.7692443
0.76930409
0.76935941
0.76941057
0.76945787
0.76950161
0.76954204
0.76957941
0.76961396
0.7696459
0.76967543
0.76970275
0.76972803
0.76975142
0.76977309
0.76979317
0.7698118
0.7698291
0.76984517
0.76986013
0.76987408
0.7698871
0.76989927
0.76991068
0.76992141
0.7699315
0.76994104
0.76995008
0.76995867
0.76996686
0.7699747
0.76998224
0.76998951
0.76999656
0.76732078
0.76751599
0.76769814
0.76786799
0.76802627
0.76817367
0.76831085
0.76843842
0.76855698
0.7686671
0.76876931
0.76886414
0.76895206
0.76903355
0.76910903
0.76917893
0.76924363
0.7693035
0.76935888
0.7694101
0.76945745
0.76950123
0.76954171
0.76957912
0.7696137
0.76964567
0.76967523
0.76970257
0.76972787
0.76975128
0.76977297
0.76979307
0.76981171
0.76982902
0.7698451
0.76986007
0.76987403
0.76988705
0.76989924
0.76991065
0.76992138
0.76993148
0.76994103
0.76995007
0.76995866
0.76996685
0.76997469
0.76998223
0.76998951
0.76999655
0.76731746
0.76751301
0.76769545
0.76786556
0.76802407
0.76817169
0.76830906
0.76843682
0.76855554
0.76866581
0.76876816
0.76886311
0.76895114
0.76903272
0.7691083
0.76917827
0.76924304
0.76930297
0.76935841
0.76940968
0.76945708
0.7695009
0.76954141
0.76957886
0.76961347
0.76964547
0.76967505
0.76970242
0.76972773
0.76975116
0.76977286
0.76979298
0.76981163
0.76982895
0.76984504
0.76986002
0.76987398
0.76988702
0.76989921
0.76991063
0.76992136
0.76993147
0.76994101
0.76995006
0.76995865
0.76996685
0.76997469
0.76998223
0.76998951
0.76999655
0.76731455
0.76751039
0.76769307
0.76786341
0.76802213
0.76816994
0.76830749
0.7684354
0.76855428
0.76866468
0.76876714
0.7688622
0.76895032
0.76903199
0.76910764
0.76917769
0.76924252
0.76930251
0.769358
0.76940931
0.76945676
0.76950062
0.76954116
0.76957863
0.76961327
0.76964529
0.7696749
0.76970228
0.76972761
0.76975106
0.76977277
0.7697929
0.76981156
0.76982889
0.76984499
0.76985998
0.76987395
0.76988699
0.76989918
0.76991061
0.76992134
0.76993145
0.769941
0.76995005
0.76995864
0.76996684
0.76997469
0.76998223
0.76998951
0.76999655
0.76731202
0.76750811
0.76769099
0.76786152
0.76802042
0.7681684
0.7683061
0.76843416
0.76855316
0.76866368
0.76876625
0.7688614
0.76894961
0.76903136
0.76910707
0.76917718
0.76924207
0.76930211
0.76935764
0.76940899
0.76945647
0.76950036
0.76954093
0.76957843
0.7696131
0.76964514
0.76967476
0.76970216
0.76972751
0.76975097
0.7697727
0.76979283
0.7698115
0.76982884
0.76984495
0.76985994
0.76987392
0.76988696
0.76989916
0.76991059
0.76992133
0.76993144
0.76994099
0.76995004
0.76995864
0.76996684
0.76997469
0.76998223
0.76998951
0.76999655
0.76730988
0.76750613
0.76768919
0.76785987
0.76801893
0.76816705
0.76830489
0.76843308
0.76855219
0.76866281
0.76876548
0.76886071
0.76894899
0.7690308
0.76910658
0.76917674
0.76924168
0.76930176
0.76935733
0.76940872
0.76945623
0.76950015
0.76954074
0.76957827
0.76961295
0.76964501
0.76967465
0.76970206
0.76972742
0.76975089
0.76977263
0.76979277
0.76981146
0.7698288
0.76984492
0.76985992
0.76987389
0.76988694
0.76989914
0.76991058