/*--------------------------------*- C++ -*----------------------------------*\
| =========                 |                                                 |
| \\      /  F ield         | OpenFOAM: The Open Source CFD Toolbox           |
|  \\    /   O peration     | Version:  2312                                  |
|   \\  /    A nd           | Website:  www.openfoam.com                      |
|    \\/     M anipulation  |                                                 |
\*---------------------------------------------------------------------------*/
FoamFile
{
    version     2.0;
    format      ascii;
    arch        "LSB;label=32;scalar=64";
    class       volScalarField;
    location    "0.04";
    object      nut;
}
// * * * * * * * * * * * * * * * * * * * * * * * * * * * * * * * * * * * * * //

dimensions      [0 2 -1 0 0 0 0];

internalField   nonuniform List<scalar> 
3257
(
0.036810486
0.036995781
0.037186366
0.037382367
0.037583932
0.037791209
0.038004342
0.038223475
0.038448744
0.038680282
0.038918216
0.039162667
0.03941373
0.039671518
0.039936132
0.040207671
0.040486224
0.040771872
0.041064692
0.04136475
0.041672107
0.041986815
0.042308921
0.042638463
0.042975474
0.043319979
0.043671997
0.044031543
0.044398623
0.044773239
0.045155389
0.045545065
0.045942255
0.046346941
0.046759103
0.047178717
0.047605755
0.048040187
0.048481979
0.048931096
0.0493875
0.04985115
0.050322006
0.050800026
0.051285165
0.05177738
0.052276629
0.052782868
0.053296058
0.053816168
0.054343176
0.036810646
0.036996109
0.03718686
0.037383028
0.037584763
0.037792212
0.038005522
0.038224834
0.038450285
0.038682007
0.038920126
0.039164762
0.039416011
0.039673984
0.039938783
0.040210506
0.040489242
0.040775072
0.04106807
0.041368304
0.041675833
0.04199071
0.04231298
0.042642682
0.042979847
0.043324501
0.043676662
0.044036343
0.044403552
0.04477829
0.045160555
0.045550336
0.045947623
0.046352397
0.046764637
0.04718432
0.047611416
0.048045896
0.048487725
0.048936866
0.049393282
0.049856932
0.050327774
0.050805764
0.051290858
0.05178301
0.052282174
0.052788302
0.053301342
0.053821239
0.054347917
0.036808558
0.036994385
0.03718551
0.03738206
0.037584182
0.037792025
0.038005734
0.038225449
0.038451306
0.038683437
0.038921968
0.039167012
0.039418669
0.039677048
0.039942252
0.040214376
0.040493508
0.040779728
0.041073111
0.041373722
0.04168162
0.041996857
0.042319477
0.042649517
0.042987009
0.043331976
0.043684438
0.044044405
0.044411885
0.044786878
0.04516938
0.045559382
0.045956871
0.046361828
0.046774232
0.047194058
0.047621276
0.048055855
0.048497761
0.048946955
0.049403398
0.049867049
0.050337864
0.050815799
0.051300807
0.051792839
0.052291847
0.052797781
0.053310585
0.0538302
0.054356539
0.036805263
0.036991607
0.037183263
0.037380357
0.037583033
0.03779144
0.038005719
0.038226011
0.038452451
0.038685168
0.038924287
0.039169916
0.039422157
0.039681118
0.0399469
0.040219597
0.040499296
0.040786076
0.041080009
0.041381159
0.041689585
0.042005336
0.042328455
0.042658979
0.042996938
0.043342354
0.043695245
0.044055621
0.044423487
0.044798844
0.045181685
0.045572002
0.045969779
0.046374997
0.046787634
0.047207663
0.047635053
0.048069773
0.048511785
0.048961052
0.049417532
0.049881182
0.050351957
0.050829811
0.051314693
0.051806554
0.052305341
0.052811
0.053323474
0.053842697
0.054368576
0.036800771
0.036987772
0.037180106
0.037377892
0.037581275
0.037790398
0.038005405
0.038226432
0.038453612
0.038687075
0.038926942
0.039173315
0.039426299
0.039686
0.039952517
0.040225943
0.040506362
0.040793853
0.041088484
0.04139032
0.041699416
0.04201582
0.042339574
0.042670713
0.043009264
0.04335525
0.043708685
0.044069579
0.044437935
0.044813753
0.045197026
0.045587741
0.045985883
0.046391431
0.046804362
0.047224647
0.047652255
0.048087151
0.048529298
0.048978656
0.049435181
0.049898829
0.050369553
0.050847302
0.051332025
0.051823669
0.052322178
0.052827495
0.053339558
0.053858298
0.054383613
0.036795112
0.036982901
0.037176044
0.037374657
0.037578882
0.037788861
0.038004735
0.038226638
0.038454702
0.038689053
0.03892981
0.039177068
0.039430936
0.039691518
0.03995891
0.040233203
0.040514479
0.040802814
0.041098277
0.041400927
0.041710819
0.042028
0.042352508
0.042684376
0.043023631
0.043370293
0.043724374
0.044085883
0.044454822
0.044831187
0.04521497
0.045606158
0.046004733
0.046410673
0.046823952
0.047244541
0.047672406
0.048107512
0.048549818
0.048999283
0.049455862
0.049919507
0.050390169
0.050867795
0.051352331
0.051843721
0.052341906
0.052846824
0.053358412
0.053876594
0.054401262
0.036788346
0.036977037
0.037171107
0.037370667
0.037575855
0.037786813
0.038003678
0.038226582
0.038455655
0.03869102
0.038932789
0.039181058
0.039435934
0.039697519
0.039965908
0.040241189
0.040523441
0.040812738
0.041109146
0.041412724
0.041723522
0.042041586
0.042366952
0.04269965
0.043039706
0.043387136
0.043741953
0.044104161
0.044473761
0.044850748
0.045235111
0.045626835
0.046025902
0.046432287
0.046845962
0.047266896
0.047695053
0.048130397
0.048572884
0.049022471
0.049479111
0.049942754
0.050413348
0.050890837
0.051375165
0.051866272
0.052364096
0.052868574
0.053379636
0.053897203
0.05442116
0.036780538
0.036970232
0.037165333
0.037365945
0.037572204
0.037784248
0.038002212
0.038226226
0.038456416
0.038692905
0.038935793
0.039185179
0.039441171
0.039703866
0.039973357
0.040249729
0.040533059
0.040823419
0.041120872
0.041425473
0.041737272
0.04205631
0.042382622
0.042716237
0.043057175
0.043405453
0.04376108
0.044124059
0.044494388
0.04487206
0.045257063
0.045649379
0.046048988
0.046455862
0.046869974
0.047291288
0.047719769
0.048155375
0.048598063
0.049047787
0.049504496
0.049968139
0.050438661
0.050916005
0.05140011
0.051890914
0.052388352
0.052892357
0.053402857
0.053919769
0.05444297
0.036771757
0.036962545
0.037158768
0.037360523
0.037567945
0.037781167
0.038000323
0.038225541
0.038456943
0.038694647
0.038938744
0.03918934
0.039446538
0.039710433
0.039981115
0.040258666
0.040543161
0.040834669
0.041133249
0.041438955
0.041751833
0.042071923
0.042399255
0.042733857
0.043075748
0.04342494
0.04378144
0.044145249
0.044516364
0.044894775
0.045280467
0.045673421
0.046073613
0.046481017
0.046895599
0.047317324
0.047746153
0.048182044
0.04862495
0.049074823
0.049531611
0.049995258
0.050465709
0.050942903
0.051426776
0.051917265
0.052414301
0.052917814
0.053427729
0.053943959
0.054466376
0.036762081
0.036954039
0.03715146
0.037354438
0.0375631
0.037777581
0.037998009
0.038224508
0.0384572
0.038696195
0.038941579
0.039193461
0.03945194
0.03971711
0.039989057
0.04026786
0.040553592
0.040846317
0.041146093
0.04145297
0.041766992
0.042088196
0.04241661
0.042752258
0.043095157
0.043445316
0.043802741
0.04416743
0.044539377
0.04491857
0.045304991
0.04569862
0.046099432
0.046507395
0.046922476
0.047344637
0.047773837
0.048210031
0.048653171
0.049103206
0.049560081
0.05002374
0.050494123
0.050971167
0.051454807
0.051944975
0.052441602
0.052944613
0.053453932
0.053969467
0.054491083
0.036751588
0.036944781
0.037143467
0.037347732
0.037557702
0.037773506
0.037995271
0.038223118
0.038457166
0.03869751
0.038944245
0.039197474
0.039457297
0.039723802
0.039997073
0.040277186
0.040564211
0.04085821
0.041159236
0.041467338
0.041782556
0.042104923
0.042434467
0.042771208
0.043115159
0.043466329
0.043824719
0.044190326
0.044563141
0.04494315
0.045330333
0.045724668
0.046126126
0.046534674
0.046950277
0.047372895
0.047802484
0.048238998
0.048682386
0.049132595
0.049589567
0.050053245
0.050523566
0.051000464
0.051483873
0.051973722
0.052469939
0.052972448
0.053481168
0.053996006
0.054516819
0.036740363
0.036934845
0.037134849
0.037340455
0.037551786
0.037768966
0.037992121
0.038221368
0.038456821
0.038698563
0.038946698
0.039201325
0.039462538
0.039730425
0.040005067
0.040286536
0.040574898
0.040870213
0.041172532
0.041481898
0.041798351
0.042121921
0.04245263
0.042790499
0.043135536
0.043487748
0.043847134
0.044213688
0.044587399
0.04496825
0.04535622
0.045751282
0.046153407
0.046562561
0.046978704
0.047401796
0.04783179
0.048268637
0.048712285
0.049162678
0.049619759
0.050083464
0.050553731
0.051030492
0.051513676
0.052003213
0.052499026
0.053001039
0.053509168
0.054023316
0.054543332
0.036728492
0.036924304
0.03712567
0.037332659
0.037545392
0.037763991
0.037988576
0.038219264
0.038456156
0.038699336
0.038948907
0.039204967
0.039467607
0.039736912
0.040012958
0.040295815
0.040585547
0.040882209
0.041185849
0.04149651
0.041814226
0.042139024
0.042470925
0.042809946
0.043156093
0.04350937
0.043869773
0.044237295
0.04461192
0.044993632
0.045382405
0.045778211
0.046181019
0.046590792
0.04700749
0.047431068
0.047861478
0.04829867
0.04874259
0.049193179
0.049650376
0.05011412
0.050584343
0.051060975
0.051543947
0.052033182
0.052528603
0.053030132
0.053537682
0.054051155
0.054570391
0.03671606
0.036913236
0.037115996
0.037324401
0.037538567
0.037758614
0.037984659
0.038216815
0.038455169
0.038699812
0.038950846
0.039208365
0.039472456
0.039743202
0.040020676
0.040304944
0.040596066
0.040894095
0.041199077
0.04151105
0.041830046
0.042156089
0.042489199
0.042829386
0.043176658
0.043531013
0.043892447
0.044260948
0.044636501
0.045019084
0.045408671
0.045805232
0.046208733
0.046619135
0.047036396
0.04746047
0.047891306
0.048328852
0.048773052
0.049223846
0.049681171
0.050144963
0.050615153
0.05109167
0.051574441
0.052063389
0.052558434
0.053059496
0.053566487
0.054079305
0.054597783
0.036703156
0.036901719
0.037105894
0.037315734
0.037531354
0.037752869
0.037980395
0.038214037
0.03845387
0.038699994
0.038952505
0.039211497
0.039477053
0.039749252
0.040028164
0.040313854
0.040606378
0.040905785
0.041212118
0.041525412
0.041845696
0.042172992
0.042507317
0.042848678
0.04319708
0.04355252
0.04391499
0.044284476
0.044660961
0.045044421
0.045434827
0.045832148
0.046236347
0.046647383
0.047065213
0.047489788
0.047921057
0.048358964
0.048803452
0.04925446
0.049711922
0.050175773
0.050645943
0.051122358
0.051604943
0.05209362
0.052588308
0.053088924
0.05359538
0.054107568
0.054625318
0.036689864
0.036889826
0.037095429
0.037306721
0.037523809
0.037746806
0.037975823
0.038210952
0.038452271
0.038699881
0.038953877
0.039214346
0.039481372
0.039755027
0.040035381
0.040322494
0.04061642
0.040917205
0.041224889
0.041539505
0.041861078
0.042189627
0.042525165
0.0428677
0.043217231
0.043573754
0.043937259
0.044307729
0.044685145
0.045069481
0.045460706
0.045858787
0.046263685
0.046675358
0.047093758
0.047518838
0.047950542
0.048388815
0.048833598
0.049284826
0.049742435
0.050206356
0.050676518
0.051152845
0.051635261
0.052123686
0.052618038
0.053118232
0.053624178
0.054135767
0.054652819
0.036676265
0.036877636
0.037084677
0.037297424
0.037515982
0.037740461
0.037970969
0.038207581
0.038450385
0.038699479
0.038954956
0.0392169
0.03948539
0.039760498
0.040042289
0.04033082
0.040626141
0.040928298
0.041237325
0.041553254
0.041876108
0.042205902
0.042542646
0.042886346
0.043236999
0.043594598
0.043959131
0.044330579
0.04470892
0.045094126
0.045486165
0.045885002
0.046290596
0.046702902
0.047121872
0.047547456
0.047979598
0.04841824
0.048863321
0.049314777
0.049772541
0.050236542
0.050706708
0.051182962
0.051665226
0.052153419
0.052647458
0.053147256
0.053652721
0.054163742
0.054680132
0.036662448
0.036865226
0.0370737
0.037287897
0.037507921
0.037733876
0.037965865
0.03820395
0.03844823
0.038698799
0.038955746
0.039219154
0.039489097
0.039765645
0.040048859
0.040338794
0.040635499
0.040939013
0.04124937
0.041566598
0.041890717
0.042221742
0.042559679
0.04290453
0.043256291
0.043614953
0.043980501
0.044352915
0.04473217
0.045118237
0.045511082
0.045910667
0.046316949
0.046729883
0.047149419
0.047575504
0.048008083
0.048447095
0.048892479
0.049344168
0.049802093
0.050266184
0.050736366
0.051212562
0.051694692
0.052182674
0.052676422
0.05317585
0.053680865
0.054191353
0.054707117
0.036648487
0.036852661
0.037062558
0.037278197
0.037499674
0.037727095
0.037960543
0.038200088
0.038445828
0.038697855
0.038956256
0.039221108
0.039492486
0.039770454
0.040055073
0.040346393
0.04064446
0.040949311
0.041260978
0.041579486
0.041904851
0.042237085
0.042576195
0.042922179
0.04327503
0.043634738
0.044001284
0.044374648
0.044754802
0.045141716
0.045535353
0.045935674
0.046342635
0.046756188
0.047176284
0.047602866
0.048035879
0.048475261
0.048920948
0.049372873
0.049830966
0.050295156
0.050765366
0.051241518
0.051723531
0.052211323
0.052704805
0.053203891
0.053708486
0.054218475
0.054733652
0.036634452
0.03684001
0.037051314
0.037268376
0.03749129
0.037720156
0.03795504
0.038196023
0.038443201
0.038696664
0.038956494
0.039222768
0.039495556
0.03977492
0.040060917
0.040353597
0.040653001
0.040959164
0.041272115
0.041591876
0.041918463
0.042251883
0.042592141
0.042939233
0.043293152
0.043653884
0.044021408
0.044395702
0.044776738
0.045164481
0.045558894
0.045959937
0.046367563
0.046781726
0.047202371
0.047629444
0.048062886
0.048502635
0.048948625
0.049400789
0.049859056
0.050323352
0.050793601
0.051269723
0.051751637
0.052239258
0.052732499
0.05323127
0.053735477
0.054245001
0.05475963
0.036620413
0.036827333
0.037040024
0.037258488
0.037482814
0.037713098
0.03794939
0.038191785
0.038440374
0.038695244
0.038956475
0.039224141
0.039498309
0.03977904
0.040066386
0.040360394
0.040661104
0.040968549
0.041282754
0.041603739
0.041931518
0.042266095
0.042607474
0.042955648
0.043310608
0.043672338
0.044040816
0.044416018
0.044797912
0.045186464
0.045581635
0.045983382
0.04639166
0.046806418
0.047227603
0.047655158
0.048089022
0.048529134
0.048975426
0.04942783
0.049886275
0.050350684
0.050820982
0.051297088
0.051778919
0.052266389
0.052759412
0.053257895
0.053761744
0.054270839
0.054784959
0.036606431
0.036814688
0.03702874
0.037248579
0.037474291
0.037705955
0.037943626
0.038187402
0.03843737
0.038693615
0.038956214
0.039225238
0.039500752
0.039782814
0.040071475
0.040366777
0.04066876
0.040977452
0.041292877
0.041615053
0.04194399
0.042279694
0.042622161
0.042971387
0.043327359
0.043690058
0.044059464
0.044435546
0.044818275
0.045207613
0.045603521
0.046005955
0.046414866
0.046830205
0.047251917
0.047679942
0.048114222
0.048554691
0.049001283
0.049453927
0.049912551
0.050377081
0.050847436
0.051323538
0.051805301
0.052292641
0.052785467
0.05328369
0.053787211
0.054295912
0.054809559
0.036592564
0.036802128
0.037017511
0.037238693
0.037465759
0.037698764
0.037937781
0.038182902
0.038434213
0.038691796
0.038955726
0.039226071
0.039502894
0.039786249
0.040076186
0.040372745
0.040675962
0.040985864
0.041302473
0.041625803
0.041955863
0.042292657
0.04263618
0.042986424
0.043343376
0.043707015
0.044077317
0.044454253
0.044837789
0.045227889
0.045624511
0.04602761
0.046437137
0.04685304
0.047275264
0.047703749
0.048138434
0.048579253
0.04902614
0.049479024
0.04993783
0.050402484
0.050872905
0.051349014
0.051830725
0.052317951
0.052810604
0.053308591
0.053811814
0.054320153
0.054833366
0.036578861
0.0367897
0.037006379
0.037228871
0.037457252
0.037691561
0.037931885
0.038178312
0.038430927
0.038689808
0.038955028
0.039226653
0.039504744
0.039789352
0.040080524
0.040378299
0.04068271
0.040993782
0.041311534
0.04163598
0.041967125
0.042304972
0.042649514
0.043000742
0.04335864
0.043723185
0.044094352
0.044472111
0.044856427
0.045247263
0.045644575
0.046048317
0.046458439
0.046874889
0.047297609
0.04772654
0.04816162
0.048602782
0.049049959
0.049503079
0.049962068
0.050426849
0.050897344
0.05137347
0.051855142
0.052342272
0.052834772
0.053332548
0.053835502
0.054343511
0.054856325
0.036565368
0.036777444
0.036995385
0.03721915
0.0374488
0.037684375
0.037925965
0.038173657
0.038427533
0.03868767
0.038954137
0.039227
0.039506314
0.039792132
0.040084496
0.040383444
0.040689006
0.041001206
0.04132006
0.041645581
0.041977772
0.042316632
0.042662156
0.043014331
0.043373137
0.043738554
0.044110554
0.044489105
0.044874172
0.045265716
0.045663692
0.046068054
0.04647875
0.046895727
0.047318927
0.04774829
0.048183752
0.048625249
0.049072709
0.049526062
0.049985234
0.050450146
0.05092072
0.051396872
0.051878517
0.052365568
0.052857934
0.053355522
0.053858233
0.054365944
0.054878393
0.036552121
0.036765396
0.036984561
0.037209562
0.037440435
0.037677234
0.037920048
0.038168961
0.038424054
0.038685401
0.038953071
0.039227125
0.039507618
0.0397946
0.040088112
0.040388188
0.040694857
0.041008141
0.041328054
0.041654607
0.041987802
0.042327637
0.042674103
0.043027184
0.043386864
0.043753117
0.044125916
0.044505227
0.044891015
0.045283239
0.045681853
0.04608681
0.046498057
0.046915541
0.047339203
0.047768983
0.048204816
0.048646636
0.049094373
0.049547955
0.050007308
0.050472352
0.05094301
0.051419196
0.051900827
0.052387813
0.052880063
0.053377485
0.053879979
0.054387421
0.054899538
0.036539153
0.036753585
0.036973938
0.037200133
0.037432186
0.037670165
0.037914157
0.038164246
0.038420509
0.03868302
0.038951845
0.039227044
0.03950867
0.039796769
0.040091381
0.04039254
0.040700271
0.041014594
0.041335523
0.041663065
0.041997222
0.042337989
0.042685355
0.043039306
0.04339982
0.043766874
0.044140437
0.044520477
0.044906954
0.045299828
0.045699053
0.046104579
0.046516356
0.046934326
0.047358432
0.047788613
0.048224803
0.048666936
0.049114942
0.049568748
0.050028279
0.050493457
0.050964201
0.051440429
0.051922055
0.052408989
0.052901142
0.053398418
0.053900719
0.054407919
0.054919737
0.036526491
0.036742034
0.036963541
0.03719089
0.037424079
0.037663192
0.037908315
0.038159532
0.038416918
0.038680544
0.038950476
0.039226772
0.039509482
0.039798651
0.040094318
0.040396512
0.040705258
0.041020576
0.041342475
0.041670963
0.042006039
0.042347695
0.042695922
0.043050702
0.043412014
0.043779831
0.044154124
0.044534858
0.044921994
0.045315488
0.045715296
0.046121367
0.046533648
0.046952084
0.047376615
0.04780718
0.048243714
0.048686148
0.049134414
0.049588438
0.050048144
0.050513455
0.05098429
0.051460566
0.051942195
0.052429091
0.052921161
0.05341831
0.053920441
0.054427426
0.054938973
0.036514154
0.036730766
0.036953398
0.037181854
0.037416136
0.037656335
0.037902541
0.038154836
0.038413295
0.038677989
0.03894898
0.039226323
0.03951007
0.039800261
0.040096934
0.040400116
0.040709832
0.041026098
0.041348923
0.041678312
0.042014262
0.042356767
0.042705813
0.043061383
0.043423454
0.043791999
0.044166987
0.044548381
0.044936143
0.045330229
0.045730591
0.046137181
0.046549944
0.046968823
0.047393761
0.047824693
0.048261555
0.04870428
0.049152796
0.049607031
0.05006691
0.050532353
0.05100328
0.051479607
0.051961249
0.052448117
0.052940118
0.053437159
0.053939141
0.054445935
0.054957239
0.036502138
0.036719862
0.036943541
0.037173054
0.037408378
0.037649614
0.037896852
0.038150175
0.038409658
0.038675369
0.038947369
0.039225712
0.039510446
0.039801612
0.040099243
0.040403367
0.040714006
0.041031174
0.04135488
0.041685126
0.042021908
0.042365218
0.042715043
0.043071363
0.043434155
0.043803391
0.044179038
0.04456106
0.044949417
0.045344064
0.045744954
0.046152036
0.046565256
0.046984558
0.047409882
0.047841165
0.048278341
0.048721343
0.049170101
0.04962454
0.050084585
0.050550159
0.051021179
0.051497563
0.051979224
0.052466073
0.05295802
0.053454968
0.05395682
0.054463447
0.054974534
0.036709339
0.036934022
0.03716452
0.037400826
0.037643043
0.037891262
0.038145563
0.03840602
0.038672699
0.038945659
0.039224953
0.039510626
0.039802718
0.04010126
0.040406279
0.040717795
0.041035819
0.041360361
0.041691419
0.042028991
0.042373066
0.042723629
0.04308066
0.043444136
0.043814026
0.044190298
0.044572914
0.044961834
0.045357012
0.045758402
0.046165951
0.046579605
0.046999308
0.047424998
0.047856614
0.04829409
0.048737357
0.049186345
0.049640981
0.050101189
0.05056689
0.051038004
0.051514447
0.051996133
0.052482973
0.052974876
0.053471747
0.053973487
0.054479968
0.054990863
0.036699414
0.03692488
0.037156267
0.037393492
0.037636635
0.037885782
0.03814101
0.038402392
0.03866999
0.038943862
0.039224058
0.039510623
0.039803593
0.040102999
0.040408867
0.040721213
0.04104005
0.041365383
0.041697211
0.04203553
0.042380328
0.042731589
0.043089293
0.043453415
0.043823923
0.044200786
0.044583963
0.044973415
0.045369096
0.045770957
0.046178948
0.046593013
0.047013094
0.047439133
0.047871064
0.048308824
0.048752343
0.049201552
0.049656376
0.05011674
0.050582566
0.051053773
0.051530278
0.052011994
0.052498833
0.052990703
0.05348751
0.053989155
0.05449551
0.055006235
0.036689808
0.036916062
0.03714829
0.037386378
0.037630395
0.03788042
0.038136527
0.038398784
0.038667253
0.038941988
0.03922304
0.039510449
0.039804251
0.040104476
0.040411146
0.040724278
0.041043883
0.041369963
0.041702519
0.042041543
0.042387024
0.042738945
0.043097283
0.043462014
0.043833106
0.044210525
0.044594232
0.044984186
0.04538034
0.045782647
0.046191053
0.046605505
0.047025944
0.047452311
0.047884541
0.04832257
0.048766329
0.049215747
0.049670751
0.050131266
0.050597213
0.051068512
0.051545079
0.052026829
0.052513674
0.053005521
0.053502276
0.054003841
0.054510089
0.055020665
0.036680517
0.036907552
0.037140582
0.037379487
0.03762433
0.037875185
0.038132122
0.038395206
0.038664498
0.038940051
0.03922191
0.039510117
0.039804706
0.040105704
0.040413132
0.040727006
0.041047335
0.041374121
0.041707362
0.042047052
0.042393176
0.042745717
0.043104654
0.043469958
0.043841599
0.044219541
0.044603746
0.044994172
0.045390771
0.045793496
0.046202294
0.04661711
0.047037887
0.047464562
0.047897074
0.048335357
0.048779342
0.049228959
0.049684135
0.050144794
0.050610858
0.051082247
0.051558878
0.052040666
0.052527521
0.053019353
0.053516068
0.054017568
0.054523725
0.055034172
0.036671559
0.036899346
0.037133141
0.037372819
0.037618441
0.037870079
0.038127799
0.038391666
0.038661735
0.038938058
0.03922068
0.039509641
0.039804971
0.040106698
0.040414841
0.040729414
0.041050424
0.041377875
0.041711761
0.042052076
0.042398805
0.04275193
0.043111428
0.043477271
0.043849427
0.044227861
0.044612533
0.045003401
0.045400419
0.045803537
0.046212702
0.04662786
0.047048952
0.047475918
0.047908695
0.048347217
0.048791415
0.04924122
0.049696559
0.050157355
0.050623532
0.05109501
0.051571704
0.052053532
0.052540403
0.053032228
0.053528912
0.054030359
0.054536441
0.055046777
0.036662945
0.036891447
0.037125965
0.037366374
0.037612732
0.037865107
0.038123566
0.038388169
0.03865897
0.03893602
0.039219361
0.039509031
0.03980506
0.040107473
0.040416288
0.040731518
0.04105317
0.041381244
0.041715737
0.042056639
0.042403935
0.042757608
0.043117631
0.043483979
0.043856618
0.044235512
0.044620622
0.045011904
0.045409313
0.045812798
0.046222307
0.046637785
0.047059174
0.047486412
0.047919437
0.048358183
0.048802583
0.049252565
0.049708057
0.050168984
0.050635269
0.051106832
0.05158359
0.052065459
0.05255235
0.053044174
0.053540837
0.054042241
0.054548263
0.055058504
0.036654677
0.036883853
0.037119055
0.037360152
0.037607202
0.037860272
0.038119426
0.038384721
0.038656212
0.038933946
0.039217963
0.0395083
0.039804985
0.040108042
0.040417489
0.040733336
0.041055589
0.041384248
0.041719309
0.042060761
0.042408589
0.042762773
0.043123289
0.043490109
0.043863199
0.044242523
0.044628042
0.045019712
0.045417485
0.045821314
0.046231144
0.04664692
0.047068585
0.047496078
0.047929335
0.048368291
0.048812879
0.049263027
0.049718665
0.050179716
0.050646103
0.051117749
0.051594569
0.05207648
0.052563395
0.053055223
0.053551872
0.054053245
0.054559219
0.05506938
0.036646754
0.036876564
0.037112408
0.037354151
0.037601852
0.037855575
0.038115382
0.038381329
0.038653467
0.038931843
0.039216495
0.039507458
0.039804759
0.04010842
0.040418459
0.040734884
0.0410577
0.041386907
0.041722499
0.042064466
0.04241279
0.042767452
0.043128428
0.043495688
0.043869198
0.044248924
0.044634823
0.045026854
0.045424968
0.045829116
0.046239245
0.046655299
0.047077222
0.047504951
0.047938425
0.048377577
0.04882234
0.049272645
0.049728418
0.050189586
0.050656071
0.051127795
0.051604676
0.052086631
0.052573571
0.053065409
0.053562051
0.054063402
0.054569339
0.055079435
0.036639174
0.036869575
0.037106021
0.03734837
0.037596681
0.037851017
0.038111437
0.038377995
0.038650741
0.038929719
0.039214966
0.039506515
0.039804394
0.040108621
0.040419213
0.040736178
0.041059521
0.04138924
0.041725328
0.042067774
0.042416562
0.04277167
0.043133073
0.043500743
0.043874645
0.044254743
0.044640997
0.045033362
0.045431793
0.045836237
0.046246644
0.046662957
0.047085119
0.047513068
0.047946743
0.048386078
0.048831005
0.049281454
0.049737355
0.050198632
0.05066521
0.051137009
0.051613949
0.052095947
0.052582915
0.053074766
0.053571407
0.054072743
0.054578654
0.055088697
0.03663193
0.036862882
0.03709989
0.037342806
0.037591689
0.037846599
0.038107594
0.038374725
0.03864804
0.038927581
0.039213385
0.039505484
0.039803901
0.040108657
0.040419767
0.040737237
0.041061071
0.041391267
0.041727817
0.042070709
0.042419928
0.04277545
0.043137251
0.043505301
0.043879567
0.044260011
0.044646593
0.04503927
0.045437992
0.045842712
0.046253376
0.046669929
0.047092312
0.047520465
0.047954326
0.04839383
0.048838909
0.049289494
0.049745513
0.050206892
0.050673557
0.051145427
0.051622424
0.052104464
0.052591462
0.053083329
0.053579974
0.054081303
0.054587197
0.055097198
0.036625016
0.036856479
0.037094009
0.037337456
0.037586873
0.037842321
0.038103854
0.038371521
0.038645368
0.038925436
0.039211761
0.039504371
0.039803293
0.040108543
0.040420134
0.040738074
0.041062366
0.041393005
0.041729985
0.042073293
0.042422911
0.042778817
0.043140987
0.04350939
0.043883992
0.044264757
0.044651643
0.045044606
0.0454436
0.045848574
0.046259476
0.046676249
0.047098837
0.047527179
0.047961212
0.048400871
0.048846091
0.0492968
0.04975293
0.050214404
0.05068115
0.051153088
0.051630139
0.052112221
0.052599248
0.053091134
0.053587788
0.054089116
0.054595001
0.05510497
0.036618423
0.036850357
0.037088373
0.037332314
0.037582232
0.037838182
0.038100217
0.038368385
0.038642729
0.038923289
0.0392101
0.039503189
0.039802579
0.040108289
0.040420329
0.040738707
0.041063424
0.041394475
0.041731854
0.042075546
0.042425534
0.042781797
0.043144307
0.043513036
0.04388795
0.04426901
0.044656176
0.045049404
0.045448648
0.045853856
0.046264976
0.046681953
0.047104729
0.047533244
0.047967436
0.048407239
0.048852588
0.049303413
0.049759643
0.050221207
0.050688028
0.051160029
0.051637132
0.052119254
0.052606311
0.053098218
0.053594883
0.054096215
0.0546021
0.055112046
0.03661214
0.036844508
0.037082975
0.037327376
0.037577761
0.037834181
0.038096686
0.038365321
0.038640129
0.038921147
0.03920841
0.039501944
0.039801771
0.040107909
0.040420366
0.04073915
0.041064261
0.041395694
0.041733442
0.04207749
0.04242782
0.042784411
0.043147236
0.043516266
0.043891466
0.044272798
0.044660222
0.045053694
0.045453167
0.04585859
0.046269911
0.046687075
0.047110024
0.047538698
0.047973035
0.04841297
0.048858437
0.049309368
0.049765692
0.050227337
0.050694228
0.051166288
0.051643439
0.0521256
0.052612687
0.053104616
0.053601296
0.054102636
0.054608526
0.055118457
0.036606156
0.036838921
0.037077806
0.037322637
0.037573458
0.037830318
0.03809326
0.038362331
0.03863757
0.038919015
0.039206698
0.039500646
0.039800879
0.040107413
0.040420258
0.040739418
0.041064894
0.041396681
0.041734769
0.042079145
0.042429791
0.042786684
0.043149799
0.043519105
0.043894568
0.04427615
0.044663811
0.045057506
0.045457189
0.045862809
0.046274314
0.046691648
0.047114755
0.047543574
0.047978044
0.0484181
0.048863675
0.049314703
0.049771113
0.050232832
0.050699787
0.051171902
0.051649098
0.052131296
0.052618413
0.053110364
0.053607061
0.054108414
0.054614314
0.055124237
0.036600458
0.036833586
0.037072858
0.03731809
0.03756932
0.037826589
0.03808994
0.038359415
0.038635055
0.038916897
0.03920497
0.039499302
0.039799912
0.040106814
0.040420017
0.040739526
0.041065339
0.041397451
0.041735853
0.042080531
0.042431467
0.042788639
0.043152019
0.043521578
0.043897282
0.044279093
0.04466697
0.045060869
0.045460744
0.045866544
0.046278216
0.046695707
0.047118957
0.047547909
0.047982499
0.048422664
0.048868338
0.049319454
0.049775942
0.050237729
0.050704743
0.051176908
0.051654146
0.052136379
0.052623524
0.053115498
0.053612213
0.054113581
0.054619497
0.055129418
0.036595033
0.03682849
0.037068122
0.03731373
0.037565342
0.037822994
0.038086726
0.038356577
0.038632589
0.038914797
0.039203233
0.039497921
0.03979888
0.040106122
0.040419657
0.040739486
0.04106561
0.041398022
0.041736713
0.042081668
0.04243287
0.042790296
0.043153919
0.04352371
0.043899633
0.044281653
0.044669727
0.045063813
0.045463862
0.045869825
0.04628165
0.046699281
0.047122663
0.047551734
0.047986433
0.048426698
0.048872461
0.049323657
0.049780214
0.050242064
0.050709131
0.051181342
0.051658619
0.052140884
0.052628056
0.053120053
0.053616787
0.054118173
0.054624108
0.055134031
0.036589867
0.036823621
0.03706359
0.037309551
0.037561523
0.037819533
0.038083617
0.038353817
0.038630173
0.038912722
0.039201492
0.03949651
0.039797791
0.040105348
0.040419188
0.040739313
0.041065723
0.04139841
0.041737365
0.042082575
0.042434019
0.042791677
0.043155522
0.043525524
0.043901648
0.044283857
0.04467211
0.045066364
0.045466571
0.045872682
0.046284645
0.046702404
0.047125903
0.047555082
0.047989881
0.048430234
0.048876078
0.049327345
0.049783966
0.050245871
0.050712986
0.051185238
0.051662551
0.052144846
0.052632044
0.053124063
0.053620817
0.054122222
0.054628179
0.055138109
0.036584943
0.036818963
0.037059251
0.037305548
0.037557858
0.037816202
0.038080615
0.038351137
0.038627811
0.038910672
0.039199753
0.039495074
0.039796653
0.0401045
0.040418622
0.040739019
0.041065691
0.04139863
0.041737827
0.042083268
0.042434934
0.042792804
0.04315685
0.043527042
0.043903348
0.044285728
0.044674144
0.04506855
0.0454689
0.045875145
0.046287231
0.046705105
0.04712871
0.047557986
0.047992873
0.048433306
0.048879222
0.049330553
0.04978723
0.050249184
0.050716343
0.051188632
0.051665976
0.052148299
0.052635521
0.053127561
0.053624336
0.05412576
0.054631742
0.055141682
0.036580242
0.0368145
0.037055095
0.037301715
0.037554345
0.037813002
0.038077718
0.038348537
0.038625503
0.038908654
0.039198019
0.039493621
0.039795475
0.040103589
0.04041797
0.040738616
0.041065528
0.041398697