/*--------------------------------*- C++ -*----------------------------------*\
| =========                 |                                                 |
| \\      /  F ield         | OpenFOAM: The Open Source CFD Toolbox           |
|  \\    /   O peration     | Version:  2312                                  |
|   \\  /    A nd           | Website:  www.openfoam.com                      |
|    \\/     M anipulation  |                                                 |
\*---------------------------------------------------------------------------*/
FoamFile
{
    version     2.0;
    format      ascii;
    arch        "LSB;label=32;scalar=64";
    class       volVectorField;
    location    "0.04";
    object      U;
}
// * * * * * * * * * * * * * * * * * * * * * * * * * * * * * * * * * * * * * //

dimensions      [0 1 -1 0 0 0 0];

internalField   nonuniform List<vector> 
3257
(
(0.083666299 -0.55965566 0)
(0.075032597 -0.55164276 0)
(0.066525909 -0.54375865 0)
(0.058149044 -0.53599217 0)
(0.049904668 -0.52833266 0)
(0.041795649 -0.52076997 0)
(0.033825045 -0.51329456 0)
(0.025996026 -0.50589748 0)
(0.018311852 -0.49857046 0)
(0.010775837 -0.49130594 0)
(0.0033913223 -0.48409715 0)
(-0.0038383382 -0.47693809 0)
(-0.010909814 -0.46982361 0)
(-0.01781985 -0.46274938 0)
(-0.024565289 -0.45571196 0)
(-0.031143081 -0.44870877 0)
(-0.037550304 -0.44173814 0)
(-0.043784186 -0.43479929 0)
(-0.049842125 -0.42789232 0)
(-0.055721705 -0.4210182 0)
(-0.061420706 -0.41417879 0)
(-0.06693712 -0.40737677 0)
(-0.072269159 -0.40061567 0)
(-0.077415256 -0.39389982 0)
(-0.082374076 -0.38723432 0)
(-0.087144512 -0.38062502 0)
(-0.091725686 -0.3740785 0)
(-0.096116942 -0.36760203 0)
(-0.10031784 -0.36120353 0)
(-0.10432816 -0.35489157 0)
(-0.10814787 -0.34867533 0)
(-0.1117771 -0.34256455 0)
(-0.11521619 -0.33656958 0)
(-0.11846558 -0.33070131 0)
(-0.12152586 -0.32497118 0)
(-0.1243977 -0.3193912 0)
(-0.12708182 -0.31397398 0)
(-0.129579 -0.30873271 0)
(-0.13188997 -0.30368132 0)
(-0.13401539 -0.29883447 0)
(-0.13595584 -0.29420777 0)
(-0.13771166 -0.28981794 0)
(-0.13928294 -0.28568311 0)
(-0.14066928 -0.28182323 0)
(-0.14186988 -0.2782606 0)
(-0.14288336 -0.27502096 0)
(-0.14370735 -0.27213494 0)
(-0.14433865 -0.26963993 0)
(-0.14477434 -0.26758564 0)
(-0.1450182 -0.26605149 0)
(-0.14510455 -0.2651838 0)
(0.08337788 -0.52545177 0)
(0.074685003 -0.51816013 0)
(0.066120944 -0.510997 0)
(0.057688532 -0.50395107 0)
(0.049390397 -0.49701148 0)
(0.041229376 -0.49016782 0)
(0.033208501 -0.4834103 0)
(0.025330923 -0.47672971 0)
(0.017599883 -0.47011752 0)
(0.010018681 -0.46356593 0)
(0.0025906423 -0.45706788 0)
(-0.0046809205 -0.45061712 0)
(-0.011792738 -0.44420822 0)
(-0.018741592 -0.43783662 0)
(-0.025524343 -0.43149861 0)
(-0.032137967 -0.42519137 0)
(-0.038579575 -0.41891298 0)
(-0.044846432 -0.41266239 0)
(-0.05093598 -0.40643948 0)
(-0.05684585 -0.40024497 0)
(-0.062573876 -0.39408049 0)
(-0.068118109 -0.38794851 0)
(-0.073476823 -0.38185236 0)
(-0.078648524 -0.37579615 0)
(-0.083631955 -0.36978482 0)
(-0.088426095 -0.36382405 0)
(-0.093030163 -0.35792029 0)
(-0.097443612 -0.35208066 0)
(-0.10166612 -0.34631301 0)
(-0.10569761 -0.34062583 0)
(-0.10953818 -0.33502825 0)
(-0.11318817 -0.32953004 0)
(-0.1166481 -0.32414156 0)
(-0.11991866 -0.31887378 0)
(-0.12300071 -0.31373829 0)
(-0.12589526 -0.30874728 0)
(-0.12860344 -0.30391361 0)
(-0.1311265 -0.29925081 0)
(-0.13346582 -0.29477322 0)
(-0.13562285 -0.29049602 0)
(-0.13759917 -0.28643544 0)
(-0.13939649 -0.28260895 0)
(-0.14101669 -0.2790355 0)
(-0.14246182 -0.27573582 0)
(-0.14373451 -0.27273318 0)
(-0.14483831 -0.27005385 0)
(-0.14577723 -0.26772749 0)
(-0.14655851 -0.26578689 0)
(-0.14721072 -0.26426933 0)
(-0.14780448 -0.26322794 0)
(-0.14831098 -0.26273863 0)
(0.083349907 -0.50217717 0)
(0.074544621 -0.49535616 0)
(0.065871506 -0.48866407 0)
(0.05733336 -0.48208947 0)
(0.048932764 -0.47562133 0)
(0.040672502 -0.46924913 0)
(0.032555557 -0.4629629 0)
(0.02458503 -0.45675329 0)
(0.016764112 -0.45061161 0)
(0.0090960477 -0.44452989 0)
(0.0015841055 -0.43850094 0)
(-0.0057684561 -0.43251834 0)
(-0.012958418 -0.4265765 0)
(-0.019982626 -0.42067067 0)
(-0.026838015 -0.41479699 0)
(-0.033521635 -0.40895246 0)
(-0.04003068 -0.40313499 0)
(-0.046362501 -0.39734338 0)
(-0.052514632 -0.39157733 0)
(-0.058484802 -0.38583741 0)
(-0.064270953 -0.38012508 0)
(-0.069871249 -0.37444267 0)
(-0.07528409 -0.36879333 0)
(-0.080508117 -0.36318105 0)
(-0.085542219 -0.3576106 0)
(-0.090385538 -0.35208755 0)
(-0.095037466 -0.34661819 0)
(-0.099497652 -0.34120956 0)
(-0.103766 -0.33586937 0)
(-0.10784264 -0.33060601 0)
(-0.11172799 -0.32542853 0)
(-0.11542267 -0.32034661 0)
(-0.11892755 -0.31537055 0)
(-0.12224374 -0.31051125 0)
(-0.12537257 -0.30578024 0)
(-0.12831559 -0.30118967 0)
(-0.13107462 -0.29675234 0)
(-0.13365171 -0.29248171 0)
(-0.13604919 -0.28839201 0)
(-0.13826976 -0.28449824 0)
(-0.14031649 -0.28081635 0)
(-0.14219298 -0.27736327 0)
(-0.1439033 -0.2741571 0)
(-0.14545279 -0.27121735 0)
(-0.1468484 -0.26856513 0)
(-0.14809837 -0.26622307 0)
(-0.14921161 -0.26421492 0)
(-0.15020184 -0.2625639 0)
(-0.15111615 -0.26129219 0)
(-0.15206462 -0.26042793 0)
(-0.15296021 -0.26001473 0)
(0.083392108 -0.47992081 0)
(0.074428911 -0.47354508 0)
(0.065602608 -0.46729867 0)
(0.056915951 -0.46117002 0)
(0.048371468 -0.45514799 0)
(0.039971886 -0.44922193 0)
(0.031720123 -0.44338173 0)
(0.023619213 -0.43761789 0)
(0.015672271 -0.43192161 0)
(0.0078824659 -0.42628476 0)
(0.00025298031 -0.42069999 0)
(-0.0072130148 -0.41516075 0)
(-0.014512394 -0.40966129 0)
(-0.021642103 -0.40419672 0)
(-0.028599186 -0.39876302 0)
(-0.035380812 -0.39335704 0)
(-0.041984296 -0.38797654 0)
(-0.048407123 -0.38262015 0)
(-0.054646969 -0.37728741 0)
(-0.060701712 -0.37197873 0)
(-0.066569456 -0.36669542 0)
(-0.072248538 -0.36143963 0)
(-0.077737543 -0.35621435 0)
(-0.083035311 -0.35102342 0)
(-0.088140946 -0.34587144 0)
(-0.093053821 -0.34076382 0)
(-0.097773583 -0.33570669 0)
(-0.10230015 -0.33070693 0)
(-0.10663374 -0.3257721 0)
(-0.11077482 -0.32091042 0)
(-0.11472416 -0.3161308 0)
(-0.11848281 -0.31144272 0)
(-0.12205211 -0.30685634 0)
(-0.12543369 -0.30238235 0)
(-0.1286295 -0.29803209 0)
(-0.1316418 -0.29381745 0)
(-0.13447321 -0.28975094 0)
(-0.13712673 -0.28584567 0)
(-0.13960583 -0.28211537 0)
(-0.14191449 -0.27857441 0)
(-0.14405734 -0.27523786 0)
(-0.14603977 -0.27212148 0)
(-0.14786832 -0.26924178 0)
(-0.14955102 -0.26661616 0)
(-0.15109765 -0.26426241 0)
(-0.15251955 -0.26219867 0)
(-0.15382784 -0.2604427 0)
(-0.1550378 -0.25901014 0)
(-0.15620517 -0.25791351 0)
(-0.15746471 -0.25716876 0)
(-0.15867934 -0.25680733 0)
(0.083435274 -0.45855705 0)
(0.074274593 -0.45260183 0)
(0.065256732 -0.44677635 0)
(0.056384392 -0.44106893 0)
(0.047660034 -0.43546831 0)
(0.039086318 -0.42996372 0)
(0.030666086 -0.42454493 0)
(0.022402285 -0.41920235 0)
(0.014297938 -0.41392702 0)
(0.0063561094 -0.40871071 0)
(-0.001420126 -0.40354594 0)
(-0.0090277166 -0.39842602 0)
(-0.016463664 -0.39334507 0)
(-0.023725049 -0.38829807 0)
(-0.030809061 -0.38328085 0)
(-0.037713024 -0.37829012 0)
(-0.044434419 -0.3733235 0)
(-0.050970906 -0.36837946 0)
(-0.057320347 -0.36345738 0)
(-0.063480819 -0.35855753 0)
(-0.069450636 -0.35368103 0)
(-0.075228361 -0.34882987 0)
(-0.080812817 -0.34400688 0)
(-0.086203099 -0.3392157 0)
(-0.091398584 -0.33446077 0)
(-0.096398938 -0.3297473 0)
(-0.10120412 -0.32508124 0)
(-0.1058144 -0.32046925 0)
(-0.11023035 -0.3159187 0)
(-0.11445286 -0.3114376 0)
(-0.11848312 -0.30703458 0)
(-0.12232269 -0.30271893 0)
(-0.12597344 -0.29850047 0)
(-0.12943761 -0.29438962 0)
(-0.13271782 -0.29039734 0)
(-0.13581708 -0.28653512 0)
(-0.13873887 -0.28281498 0)
(-0.14148714 -0.27924943 0)
(-0.14406641 -0.27585144 0)
(-0.14648195 -0.2726344 0)
(-0.14873975 -0.26961221 0)
(-0.15084684 -0.26679903 0)
(-0.15281156 -0.26420964 0)
(-0.15464361 -0.26185884 0)
(-0.15635452 -0.25976124 0)
(-0.15795714 -0.25793104 0)
(-0.15946296 -0.25638129 0)
(-0.16088633 -0.2551224 0)
(-0.16228776 -0.25416129 0)
(-0.1638222 -0.25350763 0)
(-0.16531356 -0.25318679 0)
(0.083425607 -0.43825663 0)
(0.0740335 -0.43269455 0)
(0.064791199 -0.42726254 0)
(0.055701334 -0.42194882 0)
(0.046766295 -0.41674202 0)
(0.037988662 -0.41163128 0)
(0.029371186 -0.40660627 0)
(0.020916714 -0.40165729 0)
(0.012628154 -0.39677529 0)
(0.0045084475 -0.39195193 0)
(-0.0034394657 -0.38717963 0)
(-0.011212679 -0.38245158 0)
(-0.018808351 -0.3777618 0)
(-0.026223729 -0.37310513 0)
(-0.033456183 -0.36847729 0)
(-0.040503225 -0.36387487 0)
(-0.047362538 -0.35929532 0)
(-0.054031999 -0.35473699 0)
(-0.060509695 -0.35019912 0)
(-0.066793944 -0.3456818 0)
(-0.072883315 -0.341186 0)
(-0.078776638 -0.33671353 0)
(-0.084473021 -0.33226705 0)
(-0.089971861 -0.32785 0)
(-0.095272855 -0.32346663 0)
(-0.10037601 -0.31912194 0)
(-0.10528165 -0.31482165 0)
(-0.10999042 -0.31057218 0)
(-0.11450332 -0.30638065 0)
(-0.11882168 -0.30225479 0)
(-0.12294719 -0.29820294 0)
(-0.12688192 -0.29423404 0)
(-0.13062831 -0.29035755 0)
(-0.13418924 -0.28658348 0)
(-0.137568 -0.28292231 0)
(-0.14076836 -0.27938499 0)
(-0.14379462 -0.27598291 0)
(-0.14665161 -0.27272788 0)
(-0.14934471 -0.26963202 0)
(-0.15188022 -0.26670757 0)
(-0.15426521 -0.26396653 0)
(-0.15650807 -0.261422 0)
(-0.15861842 -0.25908684 0)
(-0.16060682 -0.2569735 0)
(-0.1624856 -0.25509383 0)
(-0.16426813 -0.25345888 0)
(-0.16596524 -0.2520783 0)
(-0.16758945 -0.25095912 0)
(-0.16920429 -0.25010499 0)
(-0.17098258 -0.24952196 0)
(-0.17271839 -0.2492318 0)
(0.083317481 -0.41899199 0)
(0.073665268 -0.41379702 0)
(0.06417076 -0.40873229 0)
(0.054836514 -0.40378593 0)
(0.045664832 -0.3989465 0)
(0.036658206 -0.39420305 0)
(0.027819284 -0.38954518 0)
(0.019150794 -0.38496311 0)
(0.010655514 -0.3804477 0)
(0.0023362412 -0.37599054 0)
(-0.0058042421 -0.37158395 0)
(-0.013763199 -0.36722104 0)
(-0.021537971 -0.36289572 0)
(-0.029126002 -0.35860274 0)
(-0.036524868 -0.35433771 0)
(-0.043732306 -0.3500971 0)
(-0.050746234 -0.34587824 0)
(-0.057564776 -0.34167935 0)
(-0.064186281 -0.33749951 0)
(-0.070609344 -0.33333868 0)
(-0.076832824 -0.32919766 0)
(-0.082855856 -0.32507809 0)
(-0.08867787 -0.32098243 0)
(-0.094298599 -0.31691393 0)
(-0.099718096 -0.31287663 0)
(-0.10493674 -0.30887529 0)
(-0.10995525 -0.30491538 0)
(-0.1147747 -0.30100307 0)
(-0.11939651 -0.29714517 0)
(-0.1238225 -0.29334908 0)
(-0.12805484 -0.2896228 0)
(-0.13209614 -0.28597487 0)
(-0.13594942 -0.28241431 0)
(-0.13961815 -0.27895062 0)
(-0.1431063 -0.27559372 0)
(-0.14641836 -0.27235392 0)
(-0.14955942 -0.26924187 0)
(-0.15253511 -0.26626852 0)
(-0.15535141 -0.26344503 0)
(-0.15801453 -0.26078241 0)
(-0.16053318 -0.25829222 0)
(-0.16291751 -0.25598575 0)
(-0.1651771 -0.25387364 0)
(-0.16732278 -0.25196617 0)
(-0.16936718 -0.25027306 0)
(-0.17132361 -0.24880304 0)
(-0.17320194 -0.24756343 0)
(-0.17501255 -0.24655912 0)
(-0.17682096 -0.24579189 0)
(-0.17881622 -0.24526556 0)
(-0.18076966 -0.24499952 0)
(0.083073799 -0.4007138 0)
(0.073137666 -0.3958615 0)
(0.063367924 -0.39113942 0)
(0.053767047 -0.38653561 0)
(0.044337245 -0.38203857 0)
(0.035080908 -0.37763729 0)
(0.026000569 -0.3733213 0)
(0.017098823 -0.36908077 0)
(0.0083783 -0.36490651 0)
(-0.00015836437 -0.36079003 0)
(-0.0085085654 -0.35672359 0)
(-0.016669759 -0.35270023 0)
(-0.024639493 -0.34871378 0)
(-0.032415431 -0.34475891 0)
(-0.039995387 -0.34083114 0)
(-0.047377345 -0.33692682 0)
(-0.054559487 -0.33304319 0)
(-0.061540214 -0.32917834 0)
(-0.068318168 -0.32533122 0)
(-0.074892248 -0.32150163 0)
(-0.081261633 -0.31769023 0)
(-0.087425793 -0.31389848 0)
(-0.093384505 -0.31012865 0)
(-0.099137868 -0.30638378 0)
(-0.10468631 -0.30266768 0)
(-0.11003062 -0.29898488 0)
(-0.11517191 -0.29534058 0)
(-0.1201117 -0.29174064 0)
(-0.12485186 -0.28819155 0)
(-0.12939466 -0.28470038 0)
(-0.1337428 -0.28127472 0)
(-0.13789937 -0.27792268 0)
(-0.14186795 -0.2746528 0)
(-0.14565257 -0.27147407 0)
(-0.14925777 -0.26839582 0)
(-0.15268868 -0.26542772 0)
(-0.155951 -0.2625797 0)
(-0.15905102 -0.25986172 0)
(-0.16199513 -0.25728346 0)
(-0.16479139 -0.25485546 0)
(-0.1674488 -0.25258861 0)
(-0.16997627 -0.25049229 0)
(-0.17238398 -0.24857548 0)
(-0.17468348 -0.24684683 0)
(-0.17688758 -0.24531436 0)
(-0.17900927 -0.24398505 0)
(-0.18105726 -0.24286461 0)
(-0.18303979 -0.24195658 0)
(-0.18502365 -0.24126165 0)
(-0.18721268 -0.24078214 0)
(-0.18936137 -0.24053573 0)
(0.082665313 -0.38337763 0)
(0.072425929 -0.37884499 0)
(0.06236229 -0.37444229 0)
(0.052476781 -0.37015755 0)
(0.04277151 -0.36597921 0)
(0.033248757 -0.36189622 0)
(0.023910926 -0.3578981 0)
(0.014760466 -0.35397495 0)
(0.0057998476 -0.35011755 0)
(-0.0029684751 -0.34631737 0)
(-0.011542093 -0.34256662 0)
(-0.019918673 -0.3388583 0)
(-0.02809599 -0.33518617 0)
(-0.036071952 -0.33154483 0)
(-0.04384463 -0.32792973 0)
(-0.051412281 -0.32433714 0)
(-0.058773374 -0.32076419 0)
(-0.065926612 -0.31720887 0)
(-0.072870952 -0.31367 0)
(-0.079605622 -0.31014725 0)
(-0.086130143 -0.30664111 0)
(-0.092444341 -0.30315288 0)
(-0.098548362 -0.29968463 0)
(-0.10444269 -0.29623921 0)
(-0.11012814 -0.29282019 0)
(-0.11560591 -0.28943184 0)
(-0.12087755 -0.28607908 0)
(-0.125945 -0.28276748 0)
(-0.13081057 -0.27950317 0)
(-0.13547702 -0.27629285 0)
(-0.1399475 -0.27314372 0)
(-0.14422563 -0.27006343 0)
(-0.14831547 -0.26706006 0)
(-0.15222163 -0.26414207 0)
(-0.15594922 -0.26131823 0)
(-0.15950393 -0.2585976 0)
(-0.16289183 -0.25598925 0)
(-0.16611893 -0.25350183 0)
(-0.16919306 -0.25114466 0)
(-0.17212341 -0.24892747 0)
(-0.17491848 -0.24685906 0)
(-0.17758723 -0.24494794 0)
(-0.18014005 -0.24320221 0)
(-0.18258853 -0.24162935 0)
(-0.18494527 -0.24023596 0)
(-0.18722281 -0.23902773 0)
(-0.18942888 -0.23800917 0)
(-0.19156969 -0.23718298 0)
(-0.19371276 -0.2365492 0)
(-0.19607548 -0.23610906 0)
(-0.19840049 -0.23587888 0)
(0.082069701 -0.36693711 0)
(0.071511847 -0.36270246 0)
(0.061139649 -0.35859721 0)
(0.050955396 -0.35460936 0)
(0.040961088 -0.35072733 0)
(0.031158885 -0.34694004 0)
(0.021551053 -0.343237 0)
(0.012139885 -0.33960829 0)
(0.0029276732 -0.33604467 0)
(-0.0060833206 -0.33253759 0)
(-0.014890899 -0.32907925 0)
(-0.023492959 -0.32566258 0)
(-0.03188752 -0.32228133 0)
(-0.040072751 -0.31893005 0)
(-0.048047001 -0.31560411 0)
(-0.055808818 -0.31229973 0)
(-0.06335698 -0.30901395 0)
(-0.07069051 -0.30574465 0)
(-0.077808697 -0.30249055 0)
(-0.084711119 -0.2992512 0)
(-0.091397655 -0.29602692 0)
(-0.097868501 -0.29281886 0)
(-0.10412419 -0.28962891 0)
(-0.11016559 -0.28645969 0)
(-0.11599393 -0.28331455 0)
(-0.12161081 -0.2801975 0)
(-0.12701821 -0.27711318 0)
(-0.13221848 -0.27406684 0)
(-0.13721441 -0.27106427 0)
(-0.14200917 -0.2681118 0)
(-0.14660641 -0.2652162 0)
(-0.1510102 -0.26238471 0)
(-0.15522511 -0.25962491 0)
(-0.15925626 -0.25694478 0)
(-0.16310925 -0.2543525 0)
(-0.16679001 -0.2518563 0)
(-0.17030428 -0.24946394 0)
(-0.17365943 -0.247184 0)
(-0.17686434 -0.24502552 0)
(-0.17992755 -0.24299666 0)
(-0.18285768 -0.24110511 0)
(-0.18566409 -0.23935846 0)
(-0.18835719 -0.23776387 0)
(-0.19094827 -0.23632777 0)
(-0.19344959 -0.23505578 0)
(-0.19587328 -0.23395264 0)
(-0.19822619 -0.23302206 0)
(-0.20051266 -0.23226623 0)
(-0.20280043 -0.23168482 0)
(-0.2053193 -0.23127822 0)
(-0.20780443 -0.2310616 0)
(0.081270817 -0.35134425 0)
(0.07038302 -0.34738724 0)
(0.059691245 -0.34355882 0)
(0.049197677 -0.33984698 0)
(0.038904203 -0.33624013 0)
(0.028812858 -0.33272722 0)
(0.018925757 -0.32929773 0)
(0.0092450262 -0.32594177 0)
(-0.00022722922 -0.32265009 0)
(-0.0094889547 -0.31941414 0)
(-0.018538179 -0.3162261 0)
(-0.027373041 -0.31307891 0)
(-0.035991821 -0.30996628 0)
(-0.044392966 -0.30688274 0)
(-0.052575117 -0.30382362 0)
(-0.060537132 -0.30078507 0)
(-0.068278109 -0.29776407 0)
(-0.075797407 -0.29475842 0)
(-0.083094666 -0.29176673 0)
(-0.090169822 -0.28878843 0)
(-0.097023125 -0.28582372 0)
(-0.10365515 -0.28287357 0)
(-0.11006683 -0.27993969 0)
(-0.11625942 -0.27702452 0)
(-0.12223455 -0.27413116 0)
(-0.12799425 -0.27126337 0)
(-0.13354089 -0.2684255 0)
(-0.13887726 -0.2656225 0)
(-0.14400657 -0.26285981 0)
(-0.14893244 -0.26014339 0)
(-0.15365896 -0.25747962 0)
(-0.15819065 -0.25487531 0)
(-0.16253259 -0.25233761 0)
(-0.16669028 -0.24987396 0)
(-0.17066951 -0.2474918 0)
(-0.17447578 -0.24519809 0)
(-0.17811619 -0.24300069 0)
(-0.18159931 -0.24090808 0)
(-0.18493335 -0.23892792 0)
(-0.18812669 -0.23706743 0)
(-0.19118824 -0.23533357 0)
(-0.19412759 -0.23373308 0)
(-0.19695502 -0.23227224 0)
(-0.19968155 -0.23095663 0)
(-0.20231909 -0.22979114 0)
(-0.20487936 -0.22877979 0)
(-0.20736845 -0.22792577 0)
(-0.209789 -0.22723096 0)
(-0.2122085 -0.22669483 0)
(-0.21486812 -0.22631707 0)
(-0.21749939 -0.22611186 0)
(0.080258011 -0.33655049 0)
(0.069032191 -0.33285205 0)
(0.058013117 -0.32928112 0)
(0.047202867 -0.32582567 0)
(0.036603208 -0.32247417 0)
(0.02621604 -0.31921556 0)
(0.016043326 -0.31603936 0)
(0.0060870106 -0.3129357 0)
(-0.0036509959 -0.30989535 0)
(-0.013168857 -0.30690979 0)
(-0.02246484 -0.30397121 0)
(-0.031537338 -0.30107254 0)
(-0.040384904 -0.29820751 0)
(-0.049006275 -0.29537062 0)
(-0.057400399 -0.29255717 0)
(-0.065566453 -0.28976328 0)
(-0.073503871 -0.28698587 0)
(-0.081212357 -0.28422267 0)
(-0.088691911 -0.28147222 0)
(-0.095942838 -0.27873382 0)
(-0.10296577 -0.27600755 0)
(-0.10976166 -0.27329423 0)
(-0.11633184 -0.27059541 0)
(-0.12267795 -0.26791332 0)
(-0.12880205 -0.26525084 0)
(-0.13470654 -0.26261148 0)
(-0.14039423 -0.25999932 0)
(-0.1458683 -0.257419 0)
(-0.15113238 -0.25487563 0)
(-0.15619053 -0.25237481 0)
(-0.16104725 -0.24992256 0)
(-0.16570755 -0.2475253 0)
(-0.17017687 -0.24518974 0)
(-0.17446083 -0.24292258 0)
(-0.17856473 -0.24073007 0)
(-0.18249544 -0.23861943 0)
(-0.18626131 -0.2365986 0)
(-0.18987024 -0.23467474 0)
(-0.19333028 -0.23285463 0)
(-0.19664998 -0.23114484 0)
(-0.1998384 -0.22955171 0)
(-0.20290519 -0.22808124 0)
(-0.20586051 -0.22673898 0)
(-0.2087151 -0.22552988 0)
(-0.21148055 -0.22445819 0)
(-0.21416819 -0.22352746 0)
(-0.21678352 -0.22274047 0)
(-0.21932759 -0.22209892 0)
(-0.22186721 -0.22160223 0)
(-0.22465397 -0.22124944 0)
(-0.22741928 -0.22105385 0)
(0.079025503 -0.32250747 0)
(0.067456635 -0.31904977 0)
(0.056105503 -0.3157182 0)
(0.044974077 -0.31250079 0)
(0.034064 -0.30938601 0)
(0.023377032 -0.30636288 0)
(0.012914972 -0.30342095 0)
(0.0026795822 -0.30055039 0)
(-0.0073274342 -0.29774203 0)
(-0.017104468 -0.29498737 0)
(-0.026650032 -0.29227863 0)
(-0.035962785 -0.28960878 0)
(-0.045041563 -0.28697155 0)
(-0.053885404 -0.28436144 0)
(-0.062493569 -0.28177377 0)
(-0.070865567 -0.2792046 0)
(-0.079001173 -0.27665084 0)
(-0.086900448 -0.27411016 0)
(-0.094563756 -0.271581 0)
(-0.10199178 -0.26906258 0)
(-0.10918552 -0.26655487 0)
(-0.11614635 -0.26405856 0)
(-0.12287595 -0.26157503 0)
(-0.12937639 -0.25910631 0)
(-0.13565011 -0.25665509 0)
(-0.1416999 -0.25422462 0)
(-0.14752896 -0.25181872 0)
(-0.1531409 -0.24944174 0)
(-0.15853975 -0.24709848 0)
(-0.16372998 -0.24479423 0)
(-0.16871655 -0.24253468 0)
(-0.17350484 -0.24032585 0)
(-0.17810033 -0.23817378 0)
(-0.18250813 -0.23608399 0)
(-0.18673492 -0.23406313 0)
(-0.19078889 -0.23211866 0)
(-0.19467767 -0.23025725 0)
(-0.19840901 -0.22848524 0)
(-0.20199109 -0.22680884 0)
(-0.2054326 -0.22523407 0)
(-0.20874272 -0.22376667 0)
(-0.21193104 -0.22241207 0)
(-0.21500759 -0.22117522 0)
(-0.21798289 -0.22006053 0)
(-0.22086817 -0.2190718 0)
(-0.22367446 -0.21821216 0)
(-0.22640679 -0.21748414 0)
(-0.22906478 -0.21688935 0)
(-0.23171412 -0.21642718 0)
(-0.23461595 -0.21609613 0)
(-0.23750474 -0.21590865 0)
(0.0775718 -0.30916758 0)
(0.065657582 -0.30593398 0)
(0.053972276 -0.30282486 0)
(0.042517741 -0.2998283 0)
(0.03129549 -0.29693285 0)
(0.02030714 -0.29412758 0)
(0.0095543225 -0.29140212 0)
(-0.00096139042 -0.2887467 0)
(-0.01123851 -0.2861522 0)
(-0.021275661 -0.28361018 0)
(-0.031071609 -0.28111292 0)
(-0.040625286 -0.27865343 0)
(-0.049935821 -0.27622546 0)
(-0.059002556 -0.27382354 0)
(-0.067825076 -0.27144299 0)
(-0.076403226 -0.26907988 0)
(-0.084737129 -0.26673108 0)
(-0.092827207 -0.26439421 0)
(-0.10067419 -0.26206767 0)
(-0.10827915 -0.2597506 0)
(-0.11564346 -0.25744285 0)
(-0.12276886 -0.25514499 0)
(-0.12965746 -0.25285825 0)
(-0.13631168 -0.2505845 0)
(-0.14273436 -0.2483262 0)
(-0.14892868 -0.2460864 0)
(-0.15489823 -0.24386865 0)
(-0.16064701 -0.24167703 0)
(-0.16617947 -0.23951609 0)
(-0.17150051 -0.23739083 0)
(-0.17661548 -0.23530663 0)
(-0.18152977 -0.23326885 0)
(-0.18624827 -0.23128235 0)
(-0.19077753 -0.22935322 0)
(-0.19512562 -0.22748847 0)
(-0.19929995 -0.22569432 0)
(-0.20330798 -0.22397665 0)
(-0.20715761 -0.22234131 0)
(-0.2108572 -0.22079403 0)
(-0.21441554 -0.21934032 0)
(-0.2178418 -0.21798544 0)
(-0.22114554 -0.21673428 0)
(-0.22433667 -0.21559134 0)
(-0.22742545 -0.2145606 0)
(-0.23042283 -0.21364547 0)
(-0.23333958 -0.21284878 0)
(-0.23618041 -0.21217284 0)
(-0.23894357 -0.21161927 0)
(-0.24169331 -0.21118748 0)
(-0.24469944 -0.21087543 0)
(-0.2477025 -0.21069478 0)
(0.075899147 -0.29648449 0)
(0.063639689 -0.29345948 0)
(0.051620428 -0.29055704 0)
(0.039843108 -0.28776532 0)
(0.028309112 -0.28507297 0)
(0.017019909 -0.28246914 0)
(0.0059769588 -0.27994353 0)
(-0.004818362 -0.27748648 0)
(-0.015364782 -0.27508892 0)
(-0.025661167 -0.27274252 0)
(-0.03570654 -0.2704396 0)
(-0.045500113 -0.26817323 0)
(-0.05504131 -0.26593722 0)
(-0.064329786 -0.26372614 0)
(-0.073365454 -0.26153532 0)
(-0.082148497 -0.25936084 0)
(-0.090679393 -0.25719957 0)
(-0.098958924 -0.25504909 0)
(-0.10698819 -0.25290777 0)
(-0.11476863 -0.25077466 0)
(-0.12230202 -0.24864955 0)
(-0.12959047 -0.24653288 0)
(-0.13663645 -0.24442574 0)
(-0.1434428 -0.24232984 0)
(-0.15001269 -0.24024745 0)
(-0.1563497 -0.23818139 0)
(-0.16245781 -0.23613501 0)
(-0.16834143 -0.23411215 0)
(-0.17400545 -0.23211714 0)
(-0.17945516 -0.23015472 0)
(-0.18469587 -0.22822966 0)
(-0.18973233 -0.22634614 0)
(-0.19457097 -0.22450972 0)
(-0.19921976 -0.22272698 0)
(-0.20368594 -0.22100368 0)
(-0.20797673 -0.21934527 0)
(-0.21209978 -0.21775722 0)
(-0.21606316 -0.21624496 0)
(-0.21987535 -0.21481377 0)
(-0.2235452 -0.21346874 0)
(-0.22708189 -0.21221469 0)
(-0.23049493 -0.21105608 0)
(-0.23379406 -0.20999701 0)
(-0.23698937 -0.20904109 0)
(-0.24009152 -0.20819146 0)
(-0.24311109 -0.20745069 0)
(-0.24605254 -0.20682095 0)
(-0.24891295 -0.20630385 0)
(-0.2517547 -0.20589889 0)
(-0.2548555 -0.20560349 0)
(-0.25796476 -0.20542853 0)
(0.074013008 -0.28441351 0)
(0.061410537 -0.28158266 0)
(0.049059585 -0.27887222 0)
(0.036961778 -0.27627046 0)
(0.025118369 -0.27376611 0)
(0.013530679 -0.27134843 0)
(0.0021999906 -0.26900723 0)
(-0.0088725168 -0.26673293 0)
(-0.019685795 -0.2645166 0)
(-0.03023895 -0.26234996 0)
(-0.040531271 -0.26022543 0)
(-0.05056225 -0.25813617 0)
(-0.060331611 -0.25607604 0)
(-0.069839325 -0.25403966 0)
(-0.079085632 -0.25202241 0)
(-0.08807106 -0.25002038 0)
(-0.096796437 -0.24803045 0)
(-0.10526291 -0.24605019 0)
(-0.11347195 -0.24407794 0)
(-0.12142536 -0.24211269 0)
(-0.1291253 -0.24015415 0)
(-0.13657424 -0.23820267 0)
(-0.14377504 -0.23625921 0)
(-0.15073089 -0.23432532 0)
(-0.15744534 -0.23240309 0)
(-0.16392233 -0.23049517 0)
(-0.17016625 -0.22860469 0)
(-0.17618198 -0.22673535 0)
(-0.18197478 -0.22489129 0)
(-0.18754993 -0.22307665 0)
(-0.19291201 -0.22129499 0)
(-0.19806736 -0.21955137 0)
(-0.20302393 -0.21785195 0)
(-0.20778877 -0.21620202 0)
(-0.21236892 -0.2146066 0)
(-0.2167718 -0.21307079 0)
(-0.22100526 -0.21159969 0)
(-0.22507754 -0.21019833 0)
(-0.22899721 -0.20887164 0)
(-0.23277314 -0.20762429 0)
(-0.23641452 -0.20646074 0)
(-0.23993078 -0.20538509 0)
(-0.24333155 -0.20440108 0)
(-0.24662671 -0.20351206 0)
(-0.24982673 -0.20272088 0)
(-0.25294197 -0.20202995 0)
(-0.25597683 -0.2014413 0)
(-0.25892725 -0.20095659 0)
(-0.26185346 -0.20057541 0)
(-0.26504028 -0.20029465 0)
(-0.26824867 -0.20012441 0)
(0.071921586 -0.2729119 0)
(0.058980163 -0.27026182 0)
(0.046301551 -0.26772977 0)
(0.033887263 -0.26530414 0)
(0.021738419 -0.26297377 0)
(0.009856188 -0.26072805 0)
(-0.0017583225 -0.25855691 0)
(-0.013104134 -0.25645091 0)
(-0.024180423 -0.2544012 0)
(-0.03498654 -0.25239963 0)
(-0.045522037 -0.25043872 0)
(-0.055786693 -0.24851171 0)
(-0.06578053 -0.24661256 0)
(-0.075503836 -0.24473595 0)
(-0.084957182 -0.2428773 0)
(-0.094141435 -0.24103275 0)
(-0.10305778 -0.23919919 0)
(-0.11170771 -0.23737421 0)
(-0.12009308 -0.23555609 0)
(-0.12821605 -0.23374382 0)
(-0.13607914 -0.23193703 0)
(-0.14368521 -0.23013598 0)
(-0.15103745 -0.22834151 0)
(-0.15813941 -0.22655503 0)
(-0.164995 -0.22477848 0)
(-0.17160858 -0.22301434 0)
(-0.17798499 -0.22126565 0)
(-0.18412951 -0.21953595 0)
(-0.19004738 -0.21782884 0)
(-0.19574308 -0.21614723 0)
(-0.2012229 -0.21449572 0)
(-0.20649473 -0.21288005 0)
(-0.2115655 -0.21130507 0)
(-0.21644205 -0.20977533 0)
(-0.22113165 -0.20829555 0)
(-0.22564198 -0.2068705 0)
(-0.22998105 -0.20550497 0)
(-0.23415721 -0.20420365 0)
(-0.23817912 -0.20297111 0)
(-0.24205567 -0.2018117 0)
(-0.24579605 -0.20072952 0)
(-0.24940961 -0.19972838 0)
(-0.25290588 -0.19881173 0)
(-0.25629457 -0.19798265 0)
(-0.25958594 -0.19724381 0)
(-0.26279025 -0.19659742 0)
(-0.26591184 -0.19604545 0)
(-0.26894571 -0.1955896 0)
(-0.27194956 -0.19522955 0)
(-0.27521461 -0.19496168 0)
(-0.27851591 -0.19479529 0)
(0.069635364 -0.26193912 0)
(0.056360624 -0.2594574 0)
(0.043359903 -0.25709111 0)
(0.030634595 -0.25482878 0)
(0.018185692 -0.25265941 0)
(0.0060142096 -0.25057251 0)
(-0.0058789195 -0.24855817 0)
(-0.017492919 -0.24660706 0)
(-0.028827189 -0.24471048 0)
(-0.039881324 -0.24286039 0)
(-0.050655145 -0.24104945 0)
(-0.06114871 -0.23927099 0)
(-0.071362345 -0.23751906 0)
(-0.081296651 -0.23578842 0)
(-0.090952526 -0.23407457 0)
(-0.10033118 -0.2323737 0)
(-0.10943414 -0.23068271 0)
(-0.11826326 -0.22899922 0)
(-0.12682075 -0.22732152 0)
(-0.13510914 -0.22564854 0)
(-0.14313129 -0.22397986 0)
(-0.15089042 -0.22231566 0)
(-0.15839007 -0.22065667 0)
(-0.16563414 -0.21900419 0)
(-0.17262692 -0.21736003 0)
(-0.17937322 -0.21572661 0)
(-0.18587832 -0.21410687 0)
(-0.19214749 -0.21250387 0)
(-0.19818513 -0.21091992 0)
(-0.20399749 -0.20935915 0)
(-0.20959243 -0.20782693 0)
(-0.21497677 -0.20632762 0)
(-0.22015719 -0.20486532 0)
(-0.22514082 -0.20344435 0)
(-0.22993518 -0.20206916 0)
(-0.23454814 -0.20074426 0)
(-0.23898788 -0.19947411 0)
(-0.24326285 -0.19826313 0)
(-0.24738176 -0.19711555 0)
(-0.25135354 -0.19603543 0)
(-0.25518735 -0.19502658 0)
(-0.25889248 -0.19409251 0)
(-0.26247837 -0.19323644 0)
(-0.2659546 -0.19246123 0)
(-0.26933123 -0.19176936 0)
(-0.27261845 -0.19116292 0)
(-0.27582066 -0.19064379 0)
(-0.27893196 -0.19021372 0)
(-0.2820073 -0.18987251 0)
(-0.28534353 -0.18961604 0)
(-0.28873226 -0.18945272 0)
(0.067166687 -0.25145696 0)
(0.053565598 -0.24913209 0)
(0.040249593 -0.24691988 0)
(0.027219955 -0.244809 0)
(0.014477541 -0.24278862 0)
(0.0020232229 -0.24084841 0)
(-0.010142246 -0.23897859 0)
(-0.02201829 -0.23717001 0)
(-0.03360453 -0.23541411 0)
(-0.044900807 -0.23370298 0)
(-0.055907204 -0.23202942 0)
(-0.066624063 -0.23038687 0)
(-0.077052005 -0.2287695 0)
(-0.087191945 -0.22717216 0)
(-0.097045106 -0.22559041 0)
(-0.10661303 -0.22402053 0)
(-0.11589759 -0.22245945 0)
(-0.124901 -0.22090482 0)
(-0.1336258 -0.21935492 0)
(-0.14207487 -0.21780866 0)
(-0.15025143 -0.21626559 0)
(-0.15815903 -0.2147258 0)
(-0.16580155 -0.21318993 0)
(-0.17318324 -0.21165918 0)
(-0.18030887 -0.21013533 0)
(-0.18718369 -0.20862078 0)
(-0.19381299 -0.20711804 0)
(-0.20020115 -0.20562887 0)
(-0.20635443 -0.20415693 0)
(-0.21228068 -0.2027072 0)
(-0.21798657 -0.20128356 0)
(-0.22347867 -0.19988966 0)
(-0.22876398 -0.19852941 0)
(-0.2338499 -0.19720692 0)
(-0.23874421 -0.19592641 0)
(-0.24345493 -0.19469213 0)
(-0.24799037 -0.19350828 0)
(-0.25235909 -0.19237899 0)
(-0.25656983 -0.19130821 0)
(-0.26063156 -0.19029972 0)
(-0.26455339 -0.18935707 0)
(-0.26834459 -0.18848353 0)
(-0.27201451 -0.18768208 0)
(-0.27557261 -0.18695541 0)
(-0.27902882 -0.18630583 0)
(-0.28239323 -0.18573533 0)
(-0.2856704 -0.1852457 0)
(-0.28885368 -0.18483873 0)
(-0.29199493 -0.18451439 0)
(-0.29539592 -0.184268 0)
(-0.29886726 -0.18410706 0)
(0.064529373 -0.24142961 0)
(0.050610012 -0.23925096 0)
(0.036986611 -0.23718202 0)
(0.023660343 -0.23521165 0)
(0.010631938 -0.23332918 0)
(-0.0020978794 -0.23152445 0)
(-0.01452853 -0.22978786 0)
(-0.026659637 -0.22811042 0)
(-0.038491041 -0.22648374 0)
(-0.050022825 -0.22490006 0)
(-0.061255333 -0.2233523 0)
(-0.072189186 -0.22183407 0)
(-0.082825299 -0.22033963 0)
(-0.093164894 -0.21886395 0)
(-0.10320952 -0.21740268 0)
(-0.11296103 -0.21595216 0)
(-0.12242166 -0.2145094 0)
(-0.13159393 -0.21307205 0)
(-0.14048075 -0.21163842 0)
(-0.14908532 -0.21020741 0)
(-0.1574112 -0.2087785 0)
(-0.16546225 -0.20735174 0)
(-0.17324271 -0.2059277 0)
(-0.18075727 -0.20450755 0)
(-0.18801118 -0.2030931 0)
(-0.19500973 -0.2016864 0)
(-0.20175729 -0.20028869 0)
(-0.20826015 -0.19890318 0)
(-0.21452617 -0.19753446 0)
(-0.22056191 -0.19618589 0)
(-0.22637381 -0.19486066 0)
(-0.23196877 -0.19356226 0)
(-0.23735412 -0.19229447 0)
(-0.24253752 -0.19106122 0)
(-0.24752694 -0.18986652 0)
(-0.25233055 -0.18871437 0)
(-0.25695678 -0.18760871 0)
(-0.26141425 -0.18655342 0)
(-0.26571176 -0.18555219 0)
(-0.26985828 -0.18460855 0)
(-0.27386294 -0.18372581 0)
(-0.27773494 -0.18290702 0)
(-0.28148358 -0.18215497 0)
(-0.28511823 -0.18147216 0)
(-0.28864868 -0.18086078 0)
(-0.292085 -0.18032271 0)
(-0.29543191 -0.17985966 0)
(-0.29868215 -0.17947348 0)
(-0.30188425 -0.17916427 0)
(-0.30534416 -0.17892682 0)
(-0.30889386 -0.17876764 0)
(0.061738362 -0.23182373 0)
(0.047509707 -0.22978147 0)
(0.03358766 -0.22784584 0)
(0.019973285 -0.22600587 0)
(0.0066671881 -0.22425109 0)
(-0.0063300502 -0.22257153 0)
(-0.019018021 -0.22095778 0)
(-0.031396543 -0.21940102 0)
(-0.043465674 -0.21789302 0)
(-0.055225735 -0.21642622 0)
(-0.066677326 -0.21499367 0)
(-0.077821342 -0.21358912 0)
(-0.088658987 -0.21220698 0)
(-0.099191785 -0.21084232 0)
(-0.10942159 -0.20949089 0)
(-0.1193506 -0.20814913 0)