/*--------------------------------*- C++ -*----------------------------------*\
| =========                 |                                                 |
| \\      /  F ield         | OpenFOAM: The Open Source CFD Toolbox           |
|  \\    /   O peration     | Version:  2312                                  |
|   \\  /    A nd           | Website:  www.openfoam.com                      |
|    \\/     M anipulation  |                                                 |
\*---------------------------------------------------------------------------*/
FoamFile
{
    version     2.0;
    format      ascii;
    arch        "LSB;label=32;scalar=64";
    class       volScalarField;
    location    "0.02";
    object      alphat;
}
// * * * * * * * * * * * * * * * * * * * * * * * * * * * * * * * * * * * * * //

dimensions      [1 -1 -1 0 0 0 0];

internalField   nonuniform List<scalar> 
3221
(
0.028088883
0.027733484
0.027380812
0.027031161
0.026684716
0.026341611
0.026001959
0.025665854
0.025333386
0.025004642
0.024679717
0.024358716
0.024041761
0.023728992
0.023420572
0.023116687
0.022817545
0.022523375
0.022234042
0.02195057
0.021672829
0.021401074
0.021135554
0.0208765
0.020624124
0.020378607
0.020140101
0.019908718
0.019684536
0.019467591
0.01925788
0.019055361
0.018859955
0.018671547
0.01848999
0.018315108
0.018146701
0.017984544
0.017828395
0.017677998
0.017533084
0.017393376
0.017262205
0.01713498
0.017009468
0.016888226
0.016770987
0.016660192
0.016552111
0.016445606
0.016342433
0.016242183
0.028088141
0.027731586
0.027377807
0.027027032
0.026679428
0.026335131
0.025994254
0.025656899
0.025323161
0.024993133
0.024666919
0.024344632
0.024026403
0.023712383
0.023402746
0.023097691
0.022797436
0.022502148
0.022211915
0.02192757
0.021649053
0.021376632
0.02111056
0.020851075
0.020598392
0.020352693
0.02011413
0.019882814
0.019658817
0.019442172
0.019232868
0.019030856
0.018836047
0.018648319
0.018467515
0.01829345
0.018125911
0.017964667
0.017809464
0.017660037
0.017516107
0.017377389
0.017247211
0.017120851
0.016996289
0.016875971
0.016759624
0.016649692
0.016542354
0.016436614
0.016334151
0.016234573
0.028086984
0.027728203
0.027372191
0.027019145
0.026669221
0.026322553
0.025979257
0.025639444
0.025303218
0.024970686
0.024641968
0.024317193
0.023996512
0.023680097
0.023368146
0.023060877
0.022758537
0.022461172
0.022169296
0.021883366
0.02160347
0.021329889
0.021062889
0.020802716
0.020549588
0.020303689
0.020065167
0.019834126
0.019610631
0.019394699
0.019186307
0.018985388
0.018791837
0.018605511
0.018426234
0.018253801
0.018087983
0.017928525
0.017775159
0.017627599
0.017485551
0.017348711
0.01722041
0.017095647
0.016972857
0.016854247
0.016739533
0.016631171
0.01652515
0.01642077
0.016319559
0.016221138
0.02808538
0.027723406
0.027364137
0.027007762
0.026654437
0.026304301
0.025957479
0.025614093
0.025274264
0.024938122
0.024605806
0.024277474
0.023953306
0.023633505
0.023318299
0.023007942
0.022702707
0.022402537
0.022108444
0.021820409
0.021538724
0.021263686
0.020995576
0.020734646
0.020481119
0.020235174
0.019996952
0.019766544
0.019543997
0.019329309
0.01912243
0.018923269
0.018731692
0.018547528
0.018370571
0.018200589
0.018037322
0.017880491
0.017729801
0.017584941
0.017445594
0.017311433
0.017185794
0.017063264
0.016942955
0.016826721
0.016714264
0.016608057
0.01650381
0.01640127
0.016301736
0.016204845
0.028083333
0.02771723
0.027353714
0.026992982
0.026635204
0.026280532
0.02592911
0.025581082
0.025236593
0.024895801
0.024558878
0.024226019
0.023897443
0.023573394
0.023254145
0.022939995
0.022631052
0.02232787
0.022030989
0.021740545
0.021456874
0.021180297
0.020911105
0.020649559
0.020395876
0.02015023
0.019912744
0.019683488
0.019462482
0.019249691
0.019045034
0.018848379
0.018659556
0.018478355
0.018304532
0.018137816
0.017977913
0.017824511
0.017677283
0.017535889
0.017399983
0.01726921
0.017146914
0.017027172
0.016909937
0.016796626
0.01668693
0.016583338
0.016481215
0.01638087
0.016283325
0.016188219
0.028080841
0.027709678
0.027340936
0.026974831
0.02661156
0.026251301
0.025894229
0.02554052
0.025190354
0.02484393
0.024501464
0.024163196
0.023829396
0.023500361
0.023176416
0.022857853
0.02254482
0.022238321
0.021938401
0.021645438
0.021359793
0.021081802
0.020811768
0.020549947
0.02029655
0.02005173
0.019815583
0.019588149
0.019369407
0.01915928
0.018957639
0.018764308
0.018579065
0.018401652
0.018231779
0.01806913
0.017913369
0.017764146
0.017621099
0.017483859
0.017352049
0.017225285
0.017106902
0.016990426
0.016876736
0.01676678
0.016660234
0.016559599
0.016459853
0.016361942
0.016266591
0.01617342
0.028077893
0.027700726
0.027325765
0.026953264
0.026583457
0.026216565
0.025852804
0.025492396
0.025135573
0.024782584
0.024433703
0.024089229
0.023749494
0.023414857
0.023085705
0.022762131
0.022445122
0.022134961
0.021831982
0.0215366
0.021249199
0.020970128
0.020699689
0.020438131
0.020185639
0.019942338
0.019708285
0.019483471
0.019267825
0.019061214
0.018863453
0.018674304
0.018493488
0.018320689
0.018155564
0.017997744
0.017846848
0.017702481
0.017564248
0.017431753
0.017304608
0.017182411
0.017068394
0.016955561
0.016845756
0.016739472
0.016636384
0.016538928
0.016441714
0.016346368
0.016253316
0.016162139
0.028074473
0.027690326
0.02730813
0.026928187
0.02655078
0.02617619
0.025804699
0.025436591
0.02507216
0.024711722
0.024355622
0.024004232
0.023657957
0.02331723
0.022982286
0.022653857
0.022332608
0.022018814
0.021712945
0.021415442
0.021126704
0.020847083
0.020576869
0.020316285
0.020065483
0.019824539
0.019593455
0.019372164
0.019160526
0.018958342
0.018765355
0.018581261
0.018405711
0.018238328
0.018078704
0.017926417
0.017781032
0.017642106
0.017509203
0.017381903
0.017259858
0.017142939
0.017033532
0.016924569
0.016818826
0.016716394
0.016617164
0.016522915
0.016428281
0.016335527
0.016244793
0.016155583
0.028070554
0.027678406
0.027287918
0.026899452
0.026513363
0.026130002
0.025749727
0.025372908
0.024999935
0.024631214
0.02426716
0.023908235
0.02355493
0.023207618
0.022866818
0.022533548
0.022208048
0.021890849
0.021582455
0.021283325
0.020993863
0.020714407
0.020445219
0.02018648
0.019938288
0.019700655
0.019473514
0.019256717
0.019050047
0.018853225
0.018665912
0.018487726
0.018318248
0.018157027
0.018003595
0.017857468
0.017718155
0.017585159
0.017457972
0.017336062
0.017218826
0.01710953
0.017003916
0.016898906
0.016797179
0.016698226
0.016604536
0.016512582
0.016420559
0.016330339
0.016241863
0.016154536
0.028066105
0.027664873
0.027264978
0.026866863
0.02647097
0.026077743
0.025687636
0.02530112
0.024918689
0.024540863
0.024168191
0.023801213
0.023440469
0.023086226
0.022739899
0.022401693
0.022072212
0.021752028
0.021441669
0.021141598
0.020852206
0.020573799
0.020306591
0.020050701
0.019806151
0.019572872
0.019350707
0.019139416
0.01893869
0.018748154
0.018567386
0.018395917
0.01823325
0.018078865
0.017932227
0.017792797
0.017660036
0.017533405
0.017412367
0.017296384
0.017184908
0.017081527
0.016979907
0.016879575
0.01678218
0.016687297
0.016597652
0.016508173
0.016419015
0.016331334
0.016244964
0.016159426
0.028061085
0.027649612
0.027239127
0.026830176
0.026423312
0.026019093
0.025618095
0.025220914
0.024828169
0.024440505
0.024058594
0.02368313
0.023314396
0.022953779
0.022601746
0.022258901
0.021925899
0.021603344
0.02129177
0.020991627
0.02070327
0.020426948
0.020162804
0.019910872
0.019671078
0.01944325
0.019227124
0.019022355
0.018828526
0.018645166
0.018471753
0.018307735
0.018152534
0.018005558
0.017866212
0.017733904
0.017608052
0.017488087
0.017373459
0.01726364
0.017158105
0.017060317
0.016962845
0.016867219
0.016774199
0.016683417
0.016597438
0.016510415
0.016423995
0.01633873
0.016254291
0.016170385
0.028055448
0.027632487
0.027210148
0.026789106
0.026370049
0.025953681
0.025540726
0.025131927
0.024728053
0.024329897
0.023938268
0.023553672
0.023177415
0.022810282
0.022452839
0.022105838
0.021769972
0.021445852
0.021133999
0.020834822
0.020548614
0.020275543
0.020015651
0.019768863
0.019534987
0.019313728
0.0191047
0.018907438
0.018721413
0.018546045
0.018380717
0.018224786
0.018077598
0.017938493
0.017806818
0.017681932
0.017563214
0.017450062
0.017341916
0.017238306
0.017139059
0.017046535
0.016953239
0.016862156
0.016773379
0.016686836
0.016604082
0.016519426
0.016435541
0.016352501
0.016269784
0.016187316
0.028049139
0.027613342
0.027177792
0.026743326
0.0263108
0.025881094
0.025455108
0.025033764
0.024618004
0.024208785
0.023806823
0.023413336
0.023029539
0.022656081
0.022293725
0.021943254
0.021605375
0.021280687
0.020969664
0.020672648
0.020389836
0.020121282
0.019866905
0.019626491
0.019399708
0.019186124
0.018985214
0.018796385
0.018618989
0.018452337
0.018295713
0.018148392
0.018009644
0.017878749
0.017755001
0.017637717
0.017526236
0.01741991
0.017318084
0.01722002
0.017129155
0.017040231
0.016951257
0.016864426
0.016779265
0.016698348
0.016617122
0.01653502
0.016453494
0.016372378
0.016291195
0.016209948
0.028042096
0.027592001
0.027141782
0.026692475
0.026245144
0.025800879
0.025360791
0.024926011
0.024497676
0.024076751
0.023664385
0.023262219
0.022870959
0.022491602
0.022125048
0.021771999
0.021433157
0.021109077
0.020800157
0.020506629
0.020228563
0.01996587
0.019718309
0.019485507
0.019266975
0.019062122
0.01887028
0.018690721
0.018522675
0.018365346
0.018217926
0.01807961
0.017949601
0.017827127
0.01771144
0.017601826
0.017497605
0.017398129
0.017302777
0.017210918
0.017126206
0.017041084
0.016956705
0.016874071
0.016793119
0.016715829
0.016636493
0.016556855
0.016477503
0.016397995
0.016318148
0.016237889
0.028034249
0.027568266
0.027101808
0.026636156
0.026172624
0.025712554
0.025257306
0.024808249
0.024366641
0.023933575
0.023511191
0.023100281
0.022702019
0.022317476
0.021947593
0.021593048
0.021254481
0.020932354
0.020626947
0.020338345
0.020066452
0.019810999
0.019571562
0.019347587
0.019138405
0.018943262
0.01876134
0.018591773
0.018433674
0.018286144
0.018148291
0.018019238
0.017898135
0.017784164
0.017676546
0.017574547
0.017477477
0.017384703
0.01729569
0.017210233
0.017130709
0.017049379
0.016969228
0.016890039
0.016814678
0.016739454
0.016661992
0.016584579
0.016507065
0.016428922
0.016350172
0.016270666
0.02802552
0.027541918
0.027057533
0.02657394
0.026092756
0.025615618
0.025144172
0.024680053
0.024224341
0.023779649
0.023347001
0.022927749
0.022523159
0.022134342
0.021762223
0.021407492
0.021070619
0.020751943
0.020451576
0.020169417
0.019905162
0.019658334
0.019428299
0.0192143
0.019015483
0.018830922
0.018659647
0.018500661
0.018352965
0.018215568
0.018087504
0.017967838
0.017855675
0.017750165
0.017650508
0.017555953
0.017465798
0.017379365
0.017295896
0.017218758
0.017142234
0.017064989
0.016988914
0.016913541
0.016841944
0.016768188
0.016693065
0.016617693
0.016541612
0.01646465
0.016386743
0.016307753
0.028015823
0.02751272
0.027008591
0.026505371
0.026005031
0.025509556
0.025020922
0.024540615
0.02407127
0.023614546
0.023171939
0.022744966
0.022334954
0.021943015
0.021570015
0.021216564
0.02088296
0.020569353
0.020275639
0.020001482
0.019746337
0.019509484
0.01929006
0.019087094
0.018899539
0.018726297
0.018566253
0.018418288
0.018281303
0.018154227
0.018036034
0.017925745
0.017822432
0.017725227
0.01763332
0.017545959
0.017462462
0.017382258
0.01730516
0.017233689
0.017160367
0.017087282
0.017015001
0.016943441
0.01687455
0.016802258
0.01672926
0.016655528
0.016580642
0.016504611
0.016427305
0.016348602
0.028005064
0.027480412
0.026954591
0.026429962
0.025908919
0.025393847
0.024886722
0.0243903
0.0239069
0.02343827
0.022986236
0.022552403
0.022138118
0.021744439
0.02137212
0.021021601
0.020692979
0.020386156
0.020100759
0.019836169
0.019591567
0.019365968
0.019158263
0.018967261
0.018791722
0.018630386
0.018482001
0.018345341
0.018219221
0.018102509
0.017994134
0.017893085
0.01779842
0.017709262
0.0176248
0.017544281
0.017466992
0.017392131
0.017323116
0.017255052
0.017184986
0.017115616
0.017046355
0.016980001
0.01691165
0.016841207
0.016770018
0.016697484
0.016623595
0.016548238
0.016471295
0.016392659
0.027993138
0.027444713
0.026895111
0.026347207
0.025803877
0.025267692
0.024741594
0.024228696
0.023731064
0.023250926
0.022790244
0.022350667
0.021933504
0.021539696
0.021169808
0.020824035
0.020502222
0.020203959
0.01992855
0.01967506
0.01944236
0.019229184
0.019034172
0.018855913
0.018692984
0.018543975
0.018407513
0.018282283
0.018167035
0.018060591
0.017961852
0.017869796
0.017783476
0.017702023
0.017624637
0.017550599
0.017479317
0.017410646
0.017347231
0.017281744
0.017215547
0.017149692
0.017083995
0.017020399
0.016953021
0.016884462
0.016814551
0.016743044
0.01666989
0.016594962
0.016518157
0.01643938
0.027979933
0.027405319
0.026829708
0.026256577
0.025689178
0.025130737
0.024585316
0.024055405
0.02354374
0.023052739
0.02258445
0.022140508
0.021722109
0.021329997
0.020964464
0.02062538
0.020312274
0.020024366
0.019760589
0.019519651
0.019300099
0.019100376
0.018918871
0.018753965
0.018604065
0.01846763
0.018343191
0.018229363
0.01812485
0.018028452
0.017939057
0.017855648
0.017777287
0.017703121
0.017632364
0.017564279
0.017498036
0.017437078
0.017377064
0.017314096
0.017251338
0.017188294
0.017127555
0.017064182
0.016998402
0.016931262
0.016862347
0.016791627
0.016718959
0.01664423
0.016567351
0.016488241
0.027965325
0.027361906
0.026757901
0.026157476
0.025564094
0.024982991
0.024417266
0.02387027
0.023345012
0.022844058
0.02236948
0.021922819
0.021505066
0.02111667
0.02075756
0.020427197
0.020124728
0.019848943
0.019598364
0.019371316
0.019166011
0.018980601
0.018813237
0.018662108
0.018525477
0.018401695
0.018289219
0.018186619
0.018092578
0.018005888
0.01792545
0.017850261
0.017779409
0.01771207
0.017647499
0.017585094
0.017524741
0.017469108
0.017411047
0.017351568
0.017292046
0.017232358
0.017174003
0.017111298
0.017047098
0.01698095
0.016912861
0.016842671
0.016770255
0.016695511
0.016618364
0.016538745
0.027949184
0.027314131
0.026679211
0.026048885
0.025428862
0.024823619
0.024237146
0.023673215
0.023135071
0.022625362
0.0221461
0.021698628
0.021283624
0.020901134
0.020550623
0.020231055
0.019941138
0.019679175
0.019443241
0.019231269
0.019041131
0.018870705
0.018717923
0.018580809
0.018457507
0.01834629
0.018245569
0.018153895
0.018069948
0.017992538
0.017920589
0.01785313
0.017789288
0.017728262
0.017669304
0.017611579
0.017558544
0.017505881
0.017449847
0.017393444
0.017336714
0.017281339
0.017222674
0.017161532
0.017098336
0.017033052
0.016965534
0.016895641
0.01682326
0.016748305
0.016670714
0.016590429
0.027931371
0.027261629
0.026592704
0.025931026
0.025282539
0.024652189
0.02404472
0.023464259
0.022914224
0.022397262
0.021915208
0.021469084
0.02105913
0.020684865
0.02034519
0.020038495
0.01976298
0.019516421
0.019296424
0.019100527
0.018926278
0.018771303
0.018633346
0.018510299
0.018400217
0.018301327
0.018212023
0.018130858
0.018056537
0.017987899
0.017923912
0.017863652
0.017806292
0.017751093
0.017697423
0.017645197
0.017596996
0.017545853
0.017492887
0.017438818
0.017386577
0.017332043
0.017274083
0.017214011
0.017151698
0.017087025
0.017019844
0.016950031
0.016877489
0.016802146
0.016723953
0.016642863
0.027911754
0.027203728
0.026498315
0.025803187
0.02512451
0.024468292
0.023839814
0.023243513
0.022682897
0.022160492
0.021677822
0.021235439
0.020832996
0.02046936
0.020142762
0.019850973
0.019591606
0.019361874
0.019158913
0.018979882
0.018822032
0.01868277
0.018559687
0.01845058
0.018353455
0.018266521
0.018188183
0.018117022
0.018051783
0.017991357
0.017934763
0.017881135
0.017829707
0.017779765
0.017730403
0.01768508
0.017638991
0.017589766
0.017539727
0.017488619
0.017438636
0.017384365
0.017327529
0.017268335
0.017206664
0.017142363
0.017075302
0.017005373
0.016932493
0.016856605
0.016777672
0.016695656
0.027890092
0.02714014
0.026395715
0.025664545
0.024954236
0.024271567
0.023622325
0.023011185
0.022441628
0.021915906
0.021435064
0.020999013
0.020606665
0.020256098
0.019944739
0.019669831
0.019428201
0.019216522
0.019031482
0.018869884
0.018728725
0.018605233
0.018496891
0.018401441
0.018316874
0.018241414
0.018173502
0.01811177
0.01805502
0.018002206
0.017952413
0.017904842
0.01785882
0.017813831
0.017769542
0.017728372
0.017683524
0.017636907
0.017589298
0.017542244
0.017491979
0.017438499
0.017382545
0.017324012
0.01726274
0.017198592
0.017131454
0.017061233
0.01698786
0.01691129
0.016831496
0.016748451
0.027866046
0.027070968
0.026283949
0.025514458
0.024771187
0.024061695
0.023392227
0.022767584
0.022191063
0.021664456
0.02118813
0.020761168
0.020381575
0.020046516
0.019752561
0.019496269
0.01927375
0.019081124
0.018914651
0.018770827
0.018646437
0.018538584
0.018444686
0.018362472
0.018289952
0.018225397
0.018167307
0.018114384
0.0180655
0.018019683
0.01797609
0.017933991
0.01789277
0.017851934
0.017814115
0.017774001
0.017731102
0.017686437
0.017642913
0.017596643
0.017546561
0.017493948
0.017438669
0.017380556
0.017319465
0.017255275
0.017187886
0.017117219
0.017043217
0.016965846
0.016885091
0.016800932
0.027839711
0.026995205
0.026162348
0.025352269
0.024574838
0.023838397
0.02314956
0.022513104
0.02193194
0.021407173
0.020938263
0.02052326
0.020159094
0.019841899
0.019567361
0.019331255
0.019128995
0.018956177
0.01880868
0.018682747
0.018575009
0.018482492
0.018402601
0.018333088
0.018272021
0.018217741
0.018168829
0.01812407
0.01808242
0.018042986
0.01800501
0.017967864
0.017931063
0.017895197
0.017860724
0.017821793
0.017781365
0.017739247
0.017697745
0.017651347
0.017602181
0.017550264
0.017495426
0.017437519
0.017376417
0.017312013
0.017244221
0.017172974
0.017098228
0.017019958
0.016938158
0.016852816
0.027810788
0.026912343
0.026030229
0.0251773
0.024364674
0.023601434
0.022894435
0.022248225
0.021665075
0.021145137
0.020686712
0.020286596
0.019940479
0.019643335
0.019390081
0.019175512
0.018994412
0.018841907
0.018713564
0.018605432
0.01851405
0.018436425
0.01836999
0.018312563
0.018262296
0.018217625
0.018177229
0.018139986
0.018104943
0.01807129
0.01803837
0.018005771
0.017973103
0.017942402
0.017908267
0.017871702
0.017833325
0.017794844
0.017752479
0.017706882
0.017658438
0.017606986
0.017552381
0.017494493
0.017433213
0.017368447
0.017300122
0.017228184
0.017152596
0.017073345
0.016990433
0.016903856
0.027779005
0.026821829
0.025886866
0.024988849
0.024140179
0.0233506
0.02262702
0.021973489
0.021391335
0.020879447
0.02043469
0.020052391
0.019726858
0.019451849
0.019221455
0.019029505
0.018870201
0.018738272
0.018629041
0.018538438
0.018462971
0.018399678
0.018346068
0.018300057
0.018259906
0.018224165
0.018191625
0.018161267
0.018132229
0.018103766
0.018075267
0.01804672
0.018019741
0.01799011
0.017957604
0.017923106
0.017888314
0.017849666
0.017807718
0.017762848
0.01771489
0.017663698
0.017609143
0.017551113
0.01748951
0.017424257
0.01735529
0.017282566
0.01720606
0.017125763
0.017041689
0.016953837
0.027744087
0.026723038
0.025731474
0.024786173
0.023900832
0.023085716
0.022347529
0.021689487
0.021111609
0.020611176
0.020183325
0.019821707
0.019519126
0.019268181
0.019061935
0.01889341
0.018756283
0.018644965
0.018554616
0.018481117
0.018421008
0.018371409
0.018329941
0.018294648
0.018263922
0.018236442
0.018211119
0.018187048
0.018163461
0.018139657
0.018114771
0.018092022
0.018067173
0.018038731
0.018008256
0.017977322
0.017942654
0.017904385
0.017863171
0.017818807
0.017771136
0.017720026
0.017665364
0.017607052
0.017545007
0.017479161
0.017409463
0.017335878
0.01725839
0.017177
0.017091726
0.017002575
0.027705737
0.026615276
0.025563192
0.024568478
0.023646094
0.022806618
0.022056207
0.021396831
0.020826773
0.020341327
0.019933611
0.019595404
0.019317872
0.019092716
0.018911668
0.018767111
0.018652305
0.018561434
0.01848958
0.018432646
0.018387261
0.01835067
0.018320642
0.018295369
0.018273391
0.018253528
0.018234819
0.018216478
0.018197859
0.01817843
0.01815784
0.018138514
0.018114659
0.018088376
0.018061458
0.018030898
0.017996518
0.017959073
0.017918408
0.017874366
0.017826814
0.017775637
0.017720736
0.017662026
0.017599438
0.017532914
0.017462413
0.017387909
0.017309394
0.017226875
0.017140378
0.017049915
0.027663621
0.026497765
0.025381071
0.024334903
0.023375395
0.022513142
0.021753312
0.021096125
0.020537646
0.02007078
0.019686354
0.01937413
0.019123722
0.018925607
0.018770505
0.018650211
0.018557663
0.018486915
0.018433053
0.018392068
0.018360729
0.018336447
0.018317161
0.018301233
0.018287362
0.018274512
0.018261854
0.018248724
0.018234588
0.01821903
0.018203642
0.018184777
0.018162983
0.018140291
0.018113955
0.018083664
0.018050173
0.018013349
0.01797306
0.017929184
0.017881609
0.017830239
0.017774989
0.017715787
0.017652575
0.017585305
0.017513947
0.017438481
0.017358906
0.017275237
0.017187505
0.017095728
0.027617363
0.026369633
0.025184054
0.024084503
0.023088122
0.022205111
0.021439087
0.020787925
0.020244937
0.01980024
0.019442109
0.019158147
0.01893668
0.018766649
0.018637991
0.018542041
0.018471524
0.01842046
0.018384014
0.018358327
0.018340351
0.018327692
0.018318482
0.018311266
0.018304908
0.01829852
0.018291403
0.01828301
0.018272914
0.018262582
0.018248566
0.018231519
0.01821332
0.018191358
0.01816538
0.018136047
0.018103245
0.018066866
0.018026804
0.017982961
0.017935247
0.017883581
0.017827893
0.017768123
0.017704223
0.017636157
0.017563901
0.017487443
0.01740679
0.017321961
0.017232993
0.017139908
0.027566534
0.026229886
0.024970952
0.023816232
0.022783603
0.021882311
0.021113729
0.020472693
0.019949193
0.019530168
0.019201151
0.018947648
0.018756498
0.01861532
0.018513388
0.018441698
0.018392872
0.018360985
0.018341351
0.018330312
0.018325039
0.018323359
0.01832361
0.018324529
0.018325151
0.018324735
0.018322704
0.018318631
0.018313904
0.018305396
0.018293382
0.018279974
0.018262597
0.018241189
0.01821625
0.018187684
0.018155404
0.018119324
0.018079363
0.018035443
0.017987493
0.017935448
0.017879251
0.017818855
0.017754221
0.017685321
0.01761214
0.017534675
0.017452936
0.017366947
0.017276751
0.017182374
0.027510636
0.026077383
0.024740417
0.023528919
0.022461085
0.021544471
0.020777352
0.020150743
0.019650728
0.019260719
0.01896334
0.018742295
0.018582567
0.018470788
0.018395699
0.018348077
0.018320545
0.018307311
0.0183039
0.018306896
0.018313719
0.018322434
0.018331596
0.01834014
0.018347275
0.018352409
0.01835507
0.018356584
0.018354145
0.018347775
0.018339571
0.018327087
0.018310555
0.01829029
0.018266214
0.018238259
0.018206363
0.018170462
0.018130497
0.018086411
0.018038149
0.01798566
0.017928901
0.017867835
0.017802434
0.017732677
0.017658558
0.017580079
0.017497256
0.017410118
0.01731871
0.017223062
0.027449087
0.025910799
0.024490905
0.023221245
0.022119719
0.021191231
0.020429934
0.019822169
0.019349547
0.018991687
0.018728364
0.01854134
0.018413924
0.018331933
0.018283707
0.018259921
0.018253286
0.018258214
0.018270488
0.018286973
0.018305358
0.01832396
0.018341558
0.018357288
0.018370541
0.018380875
0.018389423
0.01839371
0.018393652
0.018391247
0.018384129
0.018372858
0.01835761
0.018338331
0.018314975
0.018287504
0.018255879
0.01822006
0.01818001
0.018135686
0.018087052
0.018034071
0.017976711
0.017914946
0.017848756
0.017778131
0.017703069
0.01762358
0.017539686
0.017451418
0.017358818
0.017261927
0.0273812
0.025728589
0.024220644
0.022891718
0.02175853
0.020822098
0.020071251
0.01948676
0.019045257
0.018722362
0.018495352
0.018343641
0.018249274
0.018197382
0.018176027
0.018175873
0.018189797
0.018212469
0.018239976
0.018269489
0.018298992
0.018327061
0.018352699
0.018375248
0.018394287
0.018411
0.018422813
0.018429858
0.018433955
0.01843286
0.018427355
0.018417559
0.018403456
0.018385034
0.018362283
0.018335193
0.01830375
0.018267938
0.018227736
0.018183122
0.018134072
0.018080563
0.018022576
0.017960094
0.017893107
0.017821611
0.017745612
0.017665125
0.017580178
0.017490809
0.017397033
0.017298932
0.027306151
0.025528928
0.023927589
0.022538648
0.021376394
0.020436395
0.019700792
0.0191439
0.018736987
0.018451768
0.018262884
0.018147646
0.018087018
0.018065567
0.018071161
0.018094534
0.018128785
0.018168895
0.018211291
0.01825348
0.018293752
0.018330958
0.018364318
0.018393384
0.018419264
0.018440068
0.018455016
0.018466485
0.01847224
0.018473148
0.018469359
0.018460911
0.018447839
0.018430172
0.018407934
0.018381144
0.018349814
0.018313949
0.018273546
0.018228601
0.018179105
0.018125047
0.018066418
0.018003213
0.017935427
0.017863066
0.017786143
0.017704677
0.017618703
0.027222941
0.025309652
0.023609375
0.022160111
0.020971989
0.020033181
0.019317644
0.018792434
0.018423202
0.018178193
0.018029044
0.017951421
0.017925309
0.017934778
0.017967565
0.018014519
0.018069019
0.0181264
0.018183465
0.018238083
0.018288877
0.018334985
0.018375821
0.018412394
0.018442759
0.018468066
0.018487281
0.018501049
0.018509164
0.018512083
0.018509894
0.018502691
0.018490557
0.018473562
0.018451765
0.018425213
0.018393942
0.018357979
0.018317341
0.018272038
0.018222076
0.018167457
0.018108182
0.018044253
0.017975677
0.017902466
0.017824636
0.017742216
0.017655232
0.027130343
0.025068184
0.023263264
0.021753922
0.020543745
0.019611149
0.018920345
0.018430535
0.018101935
0.017899208
0.017791396
0.017752687
0.01776211
0.017803245
0.017863714
0.017934524
0.018009376
0.018084012
0.018155655
0.018222566
0.018283724
0.018338597
0.01838785
0.018429811
0.018465739
0.01849486
0.01851772
0.018534109
0.018544617
0.018549447
0.018548764
0.018542722
0.018531453
0.018515065
0.018493651
0.018467288
0.018436037
0.018399945
0.018359048
0.018313371
0.018262933
0.018207749
0.01814783
0.018083188
0.018013836
0.017939793
0.017861083
0.01777774
0.017689783
0.02702684
0.024801432
0.022886086
0.021317588
0.02008976
0.019168469
0.018506681
0.018055439
0.017770145
0.017611674
0.017547
0.017548882
0.017595282
0.017669218
0.017758183
0.017853376
0.017948884
0.018040916
0.018127167
0.018206333
0.018277771
0.018342394
0.018398071
0.018446501
0.018486918
0.018520422
0.018546426
0.018565622
0.018578419
0.018585077
0.01858582
0.018580871
0.018570407
0.018554575
0.0185335
0.018507291
0.018476031
0.018439789
0.018398618
0.018352559
0.018301645
0.0182459
0.018185347
0.018120007
0.018049899
0.017975049
0.017895488
0.017811254
0.017722367
0.026910526
0.024505678
0.022474175
0.020848249
0.01960767
0.018702575
0.018073453
0.017663608
0.017423774
0.0173117
0.017292449
0.017337252
0.017422684
0.017531056
0.017649712
0.017770092
0.017886756
0.017996468
0.018097469
0.018188935
0.018271501
0.018344292
0.018407342
0.018461204
0.018506881
0.018544277
0.018573504
0.018595434
0.018610441
0.018618856
0.018620957
0.018617043
0.018607338
0.018592021
0.01857125
0.01854517
0.018513882
0.018477476
0.018436025
0.018389584
0.018338197
0.018281903
0.018220732
0.018154713
0.018083874
0.018008246
0.017927866
0.017842778
0.017753003
0.02677898
0.024176433
0.022023292
0.020342589
0.019094457
0.018209859
0.017616053
0.017249837
0.017057643
0.016994626
0.017023935
0.017114971
0.01724229
0.017387329
0.017537283
0.017683925
0.017822423
0.017950217
0.018066195
0.018170879
0.018263539
0.018344603
0.018414616
0.01847451
0.018525315
0.018566372
0.018598852
0.018623444
0.018640593
0.018650711
0.018654101
0.018651177
0.018642194
0.01862736
0.018606864
0.018580896
0.018549567
0.018512993
0.018471261
0.018424443
0.018372595
0.018315767
0.018253997
0.018187323
0.018115781
0.018039407
0.017958244
0.017872341
0.017781721
0.026629092
0.023808256
0.021528525
0.019796689
0.018546143
0.01768526
0.017128387
0.016807262
0.01666534
0.016655049
0.016737345
0.016879297
0.017052327
0.017236917
0.017420183
0.017594401
0.017755548
0.017901908
0.018033827
0.018150918
0.018253622
0.018343213
0.018420324
0.018486542
0.018541804
0.018586729
0.018622437
0.018649612
0.018668825
0.018680564
0.018685236
0.018683258
0.018674949
0.018660574
0.018640325
0.018614464
0.018583085
0.018546341
0.018504334
0.018457149
0.018404856
0.018347512
0.018285168
0.018217866
0.018145651
0.018068566
0.017986657
0.017899979
0.017808559
0.026456798
0.023394521
0.020984171
0.019205769
0.017957314
0.017121599
0.016607496
0.016337964
0.016250864
0.016296063
0.016432975
0.016627797
0.01685142
0.017079099
0.01729806
0.017501343
0.017686037
0.017852055
0.017999303
0.018128955
0.018242034
0.018340215
0.018424652
0.018496945
0.018556563
0.018605355
0.018644208
0.018673901
0.018695123
0.018708436
0.018714331
0.018713262
0.018705599
0.018691649
0.018671662
0.018645879
0.01861445
0.01857754
0.018535267
0.018487729
0.018435008
0.018377172
0.018314279
0.01824638
0.018173525
0.018095763
0.018013148
0.017925738
0.017833563
0.026256698
0.022927132
0.020383546
0.018563745
0.017320391
0.016521905
0.016060178
0.015848628
0.015820412
0.015923418
0.01611613
0.016364319
0.016638736
0.016913651
0.017170967
0.017404886
0.01761451
0.017799853
0.017962757
0.018105299
0.018229044
0.018335723
0.018427768
0.018505493
0.018569684
0.01862226
0.018664185
0.018696325
0.018719496
0.018734333
0.0187414
0.018741202
0.01873416
0.018720621
0.018700873
0.018675168
0.018643699
0.018606613
0.018564094
0.01851622
0.018463093
0.018404788
0.018341375
0.01827291
0.018199449
0.018121049
0.018037767
0.017949668
0.017856784
0.026021446
0.022396141
0.019718694
0.017862432
0.016640746
0.015893665
0.015493892
0.015346214
0.015380267
0.015542788
0.015791954
0.016093515
0.016418326
0.016740906
0.017039387
0.017305837
0.017540489
0.017745635
0.017924763
0.018080342
0.018214694
0.01832994
0.018429465
0.018512474
0.018581202
0.018637488
0.018682412
0.018716918
0.018741978
0.018758286
0.018766476
0.018767112
0.018760663
0.018747518
0.018727998
0.018702371
0.018670856
0.018633631
0.018590848
0.018542669
0.018489157
0.018430412
0.018366508
0.018297509
0.018223477
0.018144476
0.018060569
0.017971823
0.017878275
0.025740772
0.021789266
0.018979881
0.017104859
0.015926216
0.015245273
0.014916494
0.01483773
0.014936591
0.015159623
0.015465307
0.015819741
0.016194085
0.01656304
0.016904514
0.017204125
0.017464696
0.017690324
0.017885563
0.018054258
0.018199212
0.018323142
0.018429639
0.018518137
0.018591193
0.018651104
0.01869896
0.018735734
0.018762618
0.018780341
0.018789602
0.018791034