/*--------------------------------*- C++ -*----------------------------------*\
| =========                 |                                                 |
| \\      /  F ield         | OpenFOAM: The Open Source CFD Toolbox           |
|  \\    /   O peration     | Version:  2312                                  |
|   \\  /    A nd           | Website:  www.openfoam.com                      |
|    \\/     M anipulation  |                                                 |
\*---------------------------------------------------------------------------*/
FoamFile
{
    version     2.0;
    format      ascii;
    arch        "LSB;label=32;scalar=64";
    class       volScalarField;
    location    "0.02";
    object      k;
}
// * * * * * * * * * * * * * * * * * * * * * * * * * * * * * * * * * * * * * //

dimensions      [0 2 -2 0 0 0 0];

internalField   nonuniform List<scalar> 
3221
(
10.913783
10.75261
10.602709
10.464058
10.336569
10.220121
10.114575
10.019777
9.935554
9.8617186
9.7980628
9.7443582
9.7003546
9.6657783
9.6403313
9.6236904
9.615507
9.6154069
9.6228269
9.6376738
9.6593309
9.6873259
9.7211657
9.7603374
9.8043112
9.8525427
9.9044753
9.9595439
10.017177
10.076803
10.137847
10.199742
10.261927
10.323852
10.384982
10.444796
10.502795
10.558504
10.611471
10.661274
10.707524
10.749864
10.78794
10.821438
10.850029
10.873507
10.891679
10.904359
10.911396
10.912631
10.908084
10.897563
10.913875
10.753214
10.603947
10.465996
10.339258
10.223611
10.118917
10.025021
9.941756
9.8689327
9.8063447
9.7537642
9.7109407
9.6776
9.6534429
9.6381445
9.631354
9.6326628
9.6415945
9.6579654
9.6811814
9.7107657
9.7462195
9.7870245
9.8326446
9.882529
9.9361146
9.9928295
10.052096
10.113334
10.175965
10.239414
10.303113
10.366509
10.429058
10.490237
10.549541
10.606491
10.660631
10.711536
10.758813
10.802103
10.841048
10.87533
10.904624
10.928723
10.947433
10.960565
10.967969
10.969487
10.965136
10.954736
10.914285
10.754626
10.606503
10.469815
10.344449
10.230278
10.127164
10.034953
9.9534755
9.8825461
9.8219582
9.771484
9.7308725
9.6998478
9.6781084
9.6653262
9.6611463
9.6650942
9.6768603
9.6960833
9.7222157
9.754771
9.7932401
9.837093
9.8857819
9.9387432
9.9954012
10.055171
10.117461
10.18168
10.247235
10.31354
10.380016
10.446097
10.511231
10.574885
10.636545
10.695723
10.751958
10.804818
10.853903
10.898851
10.939298
10.974922
11.005403
11.030532
11.05011
11.063949
11.071898
11.073803
11.069678
11.059354
10.914966
10.756833
10.610395
10.475545
10.352168
10.240135
10.139307
10.049532
9.970641
9.902448
9.8447466
9.7973084
9.7598804
9.7321839
9.7139131
9.7047335
9.7042814
9.7120138
9.7278145
9.7510926
9.7813653
9.8181309
9.8608644
9.9090189
9.9620289
10.019313
10.080276
10.144314
10.210819
10.279178
10.348783
10.419029
10.489323
10.559081
10.62774
10.694751
10.759592
10.821763
10.880794
10.936244
10.987708
11.034816
11.0772
11.114536
11.146509
11.172906
11.193528
11.208184
11.216726
11.219006
11.215037
11.204661
10.915906
10.75982
10.615605
10.483159
10.362369
10.25311
10.155246
10.068625
9.9930794
9.9284242
9.8744519
9.8309323
9.7976092
9.7741993
9.7603905
9.7558411
9.7600884
9.7728211
9.7936921
9.8221459
9.8576899
9.8998034
9.9479404
10.001532
10.059989
10.122705
10.189063
10.258432
10.330181
10.403674
10.478279
10.553371
10.628335
10.702572
10.775499
10.846555
10.915203
10.980932
11.04326
11.101739
11.155956
11.205536
11.250107
11.289346
11.322946
11.350689
11.372374
11.387813
11.396861
11.399383
11.395392
11.384735
10.917098
10.763579
10.622127
10.492649
10.37504
10.269183
10.174945
10.092178
10.020719
9.9603801
9.9109548
9.8722093
9.8438827
9.8256849
9.8172945
9.818333
9.8283175
9.8470975
9.8740737
9.9087593
9.9506373
9.9991616
10.053759
10.113832
10.178761
10.247912
10.320635
10.396271
10.474158
10.553632
10.634036
10.714717
10.79504
10.874384
10.952147
11.027754
11.100652
11.17032
11.236265
11.29803
11.355195
11.407385
11.454225
11.495397
11.530603
11.559617
11.582242
11.598297
11.607646
11.610167
11.60588
11.594624
10.918542
10.768111
10.629967
10.504028
10.3902
10.288374
10.198425
10.120213
10.053575
9.9983265
9.9542587
9.9211342
9.8986854
9.8866128
9.8845826
9.8920885
9.9089674
9.9347153
9.9688141
10.010752
10.059982
10.115926
10.177978
10.245505
10.317852
10.394346
10.474304
10.557029
10.641827
10.727999
10.814859
10.901727
10.987941
11.072859
11.15586
11.236354
11.313775
11.38759
11.4573
11.522438
11.582582
11.637358
11.686395
11.72938
11.766028
11.796103
11.819413
11.835798
11.845133
11.847308
11.842362
11.830104
10.92024
10.773429
10.639149
10.517331
10.407894
10.310741
10.225757
10.152809
10.091739
10.042364
10.004473
9.9778246
9.962142
9.9571137
9.9622934
9.9774012
10.002089
10.035797
10.078018
10.128205
10.185774
10.250109
10.320561
10.396456
10.477094
10.561761
10.649729
10.740263
10.832628
10.926091
11.019931
11.11344
11.205928
11.296732
11.385215
11.470768
11.552818
11.630824
11.704279
11.772718
11.835719
11.892907
11.943925
11.988461
12.026249
12.057052
12.080684
12.097013
12.105918
12.107309
12.101256
12.087519
10.922198
10.779551
10.649707
10.532611
10.428196
10.336378
10.257057
10.190105
10.135371
10.092675
10.061804
10.042509
10.034503
10.037398
10.050814
10.074544
10.107994
10.150664
10.202005
10.261429
10.328307
10.401973
10.48173
10.566853
10.656591
10.750181
10.846846
10.945807
11.046283
11.147505
11.248717
11.349179
11.448178
11.545028
11.639077
11.729705
11.81633
11.898408
11.975433
12.046943
12.112534
12.171817
12.224464
12.270146
12.308643
12.339737
12.363244
12.379046
12.387013
12.3871
12.379412
12.363658
10.924425
10.786507
10.661692
10.549941
10.451204
10.365413
10.292479
10.232288
10.184693
10.149517
10.126544
10.115515
10.116115
10.127848
10.150664
10.183937
10.227171
10.279819
10.341287
10.410935
10.488078
10.571993
10.661924
10.757084
10.856668
10.959853
11.06581
11.173708
11.282724
11.392047
11.500885
11.60847
11.714066
11.81697
11.916516
12.012079
12.103075
12.188959
12.269232
12.343442
12.411199
12.472122
12.525898
12.572231
12.610908
12.64173
12.664548
12.679239
12.685698
12.683938
12.673991
12.655662
10.926932
10.794332
10.675166
10.569413
10.477041
10.398002
10.332222
10.279596
10.239988
10.213219
10.19907
10.197271
10.207334
10.229194
10.262321
10.306191
10.360261
10.423932
10.49655
10.577413
10.665769
10.760827
10.861761
10.967716
11.077821
11.191189
11.306934
11.424172
11.542032
11.659663
11.776241
11.890971
12.003099
12.111908
12.216728
12.316931
12.41194
12.501216
12.584271
12.660668
12.730037
12.792017
12.846324
12.892702
12.930933
12.960799
12.982276
12.995215
12.999532
12.995311
12.982464
12.960955
10.929732
10.80307
10.690203
10.591135
10.505856
10.434336
10.376519
10.332315
10.301593
10.284178
10.279841
10.288159
10.308996
10.341954
10.386486
10.442053
10.508054
10.583823
10.668636
10.761711
10.862218
10.969287
11.08201
11.199457
11.32068
11.444727
11.570648
11.697505
11.824381
11.950387
12.074669
12.196412
12.314848
12.429256
12.538967
12.643362
12.741872
12.833979
12.91921
12.997156
13.067465
13.129813
13.183949
13.229676
13.266766
13.294876
13.314304
13.324798
13.32629
13.318939
13.302521
13.277197
10.932843
10.812768
10.706889
10.615233
10.537815
10.47463
10.425642
10.390774
10.369905
10.362857
10.369281
10.388982
10.421702
10.466875
10.523975
10.5924
10.671475
10.760453
10.858522
10.96481
11.078394
11.198308
11.323555
11.453117
11.585969
11.721083
11.857446
11.994068
12.129988
12.264283
12.396076
12.524539
12.6489
12.768441
12.882504
12.990487
13.091842
13.186075
13.272747
13.351489
13.421957
13.483881
13.537027
13.581245
13.616364
13.642184
13.658758
13.665999
13.663954
13.652694
13.632044
13.602248
10.93628
10.823482
10.725319
10.641846
10.57311
10.519131
10.479898
10.45535
10.445373
10.449707
10.468102
10.500457
10.546198
10.604818
10.675722
10.758229
10.851573
10.954906
11.067313
11.187813
11.315373
11.448921
11.58736
11.729577
11.87446
12.020908
12.167845
12.31423
12.459064
12.6014
12.740345
12.87507
13.004807
13.128856
13.246578
13.357401
13.46081
13.556345
13.643607
13.72227
13.792022
13.852636
13.903932
13.945787
13.978087
14.000712
14.013639
14.016872
14.010577
13.994614
13.96907
13.934139
10.940063
10.835272
10.745597
10.671129
10.611948
10.568111
10.539629
10.526464
10.52846
10.545317
10.57712
10.623293
10.683363
10.756751
10.842777
10.940657
11.049514
11.168382
11.296217
11.431913
11.574314
11.722226
11.874441
12.029745
12.186938
12.344847
12.502336
12.658319
12.811771
12.961727
13.107294
13.247652
13.382053
13.509824
13.630364
13.743139
13.84768
13.943575
14.030477
14.108097
14.176172
14.234523
14.283029
14.321606
14.350183
14.368712
14.377162
14.375637
14.364278
14.342893
14.311765
14.271044
10.944213
10.848204
10.767837
10.703248
10.65456
10.621866
10.605212
10.604573
10.619614
10.65059
10.696988
10.758365
10.834175
10.923749
11.026296
11.140908
11.266571
11.402175
11.546529
11.69838
11.856429
12.019354
12.185824
12.354522
12.52416
12.693496
12.861344
13.026585
13.188175
13.345152
13.496634
13.641826
13.780016
13.910572
14.032942
14.14665
14.251282
14.34649
14.431994
14.507526
14.5729
14.627985
14.672711
14.707036
14.730957
14.744479
14.747621
14.740599
14.723288
14.695821
14.658424
14.61127
10.948752
10.862344
10.792159
10.738383
10.701191
10.680724
10.677061
10.690005
10.719778
10.766106
10.828557
10.90664
10.999713
11.10699
11.227543
11.360309
11.504109
11.657663
11.819608
11.988523
12.162953
12.341433
12.522507
12.704756
12.886807
13.067359
13.245187
13.419154
13.588216
13.751428
13.90794
14.056998
14.197942
14.330201
14.453288
14.566791
14.670374
14.763759
14.846727
14.91906
14.980641
15.031416
15.07135
15.100442
15.118769
15.126387
15.123439
15.110015
15.086025
15.051777
15.007449
14.953244
10.953702
10.877766
10.81869
10.776723
10.752106
10.745031
10.755462
10.783624
10.829482
10.892665
10.972759
11.069175
11.181151
11.307751
11.447875
11.600275
11.763572
11.936284
12.116852
12.303668
12.495106
12.689552
12.885425
13.081204
13.275448
13.466806
13.654033
13.835994
14.011665
14.18014
14.340619
14.492412
14.63493
14.767677
14.890246
15.002309
15.103609
15.193962
15.273184
15.341153
15.397811
15.443189
15.477314
15.500217
15.51203
15.512868
15.50303
15.48229
15.450955
15.409239
15.357346
15.295505
10.959086
10.894544
10.847562
10.81847
10.807582
10.815042
10.841092
10.885984
10.949433
11.03114
11.130604
11.247116
11.379757
11.527403
11.688742
11.862299
12.04646
12.23951
12.439667
12.645119
12.854058
13.064718
13.275398
13.484489
13.690493
13.892033
14.087865
14.27688
14.458099
14.630678
14.793892
14.947136
15.089909
15.221811
15.342528
15.451828
15.54955
15.635586
15.70982
15.772223
15.822832
15.861712
15.888998
15.904749
15.909133
15.902454
15.8847
15.855987
15.816608
15.766776
15.706722
15.636696
10.96493
10.912754
10.878911
10.863831
10.867841
10.891218
10.934545
10.997662
11.080428
11.182475
11.303189
11.441702
11.596893
11.767404
11.951666
12.147929
12.354307
12.568817
12.789432
13.014118
13.240883
13.467812
13.693095
13.915053
14.132154
14.343023
14.546445
14.741363
14.926875
15.102221
15.266779
15.420047
15.561636
15.691256
15.808702
15.913849
16.006645
16.087037
16.155025
16.210677
16.254116
16.285368
16.304802
16.312457
16.308616
16.293473
16.267042
16.229672
16.181592
16.123042
16.054276
15.975563
10.971256
10.932473
10.912872
10.913002
10.933116
10.974191
11.036252
11.119355
11.223321
11.34769
11.491693
11.654255
11.834003
12.029288
12.238227
12.458749
12.688651
12.925652
13.167456
13.411802
13.656515
13.899541
14.138982
14.373116
14.600409
14.819517
15.029289
15.228753
15.417111
15.593721
15.758085
15.909829
16.048693
16.174514
16.287209
16.386771
16.473242
16.546651
16.607123
16.654871
16.690076
16.712533
16.723143
16.721832
16.708944
16.684412
16.648676
16.601986
16.544598
16.476778
16.398798
16.310949
10.97809
10.953779
10.949593
10.966015
11.004064
11.064245
11.146799
11.251807
11.379032
11.527877
11.697374
11.886182
12.092607
12.314646
12.550041
12.796346
13.050996
13.311387
13.574937
13.839157
14.101698
14.360393
14.613284
14.858642
15.094964
15.320982
15.535641
15.738095
15.927679
16.103899
16.266404
16.414974
16.549492
16.669936
16.776358
16.868878
16.947611
17.012711
17.064414
17.103037
17.128815
17.14182
17.142574
17.131498
17.10848
17.073964
17.028257
16.971639
16.904395
16.826809
16.739172
16.64179
10.985457
10.976749
10.989043
11.023426
11.080847
11.161836
11.266802
11.395813
11.548539
11.724202
11.921569
12.138959
12.374283
12.625107
12.88873
13.162273
13.442774
13.727275
14.012908
14.296963
14.576941
14.850593
15.115943
15.371295
15.615229
15.846589
16.064463
16.268164
16.457198
16.631243
16.790125
16.93379
17.062286
17.175745
17.27436
17.358364
17.427965
17.48346
17.525215
17.553601
17.568911
17.571399
17.561637
17.539697
17.505959
17.460792
17.404511
17.337423
17.259835
17.172049
17.074371
16.967118
10.993387
11.001345
11.031555
11.085411
11.163768
11.267442
11.39691
11.552213
11.732883
11.9379
12.165684
12.414126
12.680652
12.96231
13.255884
13.55801
13.865288
14.174398
14.482186
14.785745
15.082464
15.370057
15.646578
15.910419
16.160291
16.395201
16.614423
16.817465
17.004039
17.174024
17.32744
17.464422
17.585189
17.690038
17.779324
17.85335
17.912475
17.957131
17.98779
18.004873
18.008738
17.999909
17.978573
17.945142
17.900044
17.84363
17.776241
17.698207
17.609854
17.511498
17.403456
17.286054
11.001874
11.027687
11.077362
11.152097
11.253168
11.381556
11.537804
11.721893
11.933163
12.170267
12.43118
12.71326
13.013342
13.327864
13.65302
13.984907
14.319665
14.653606
14.983314
15.305724
15.618159
15.918356
16.204461
16.475012
16.728907
16.965367
17.183897
17.384239
17.566339
17.730303
17.876368
18.004867
18.1162
18.210823
18.289273
18.351918
18.399282
18.431932
18.450408
18.455182
18.446843
18.425652
18.392042
18.346515
18.28947
18.221286
18.142327
18.052944
17.953473
17.844244
17.72558
17.597811
11.010874
11.056062
11.126439
11.223694
11.349387
11.504687
11.690194
11.905786
12.150531
12.422651
12.71956
13.037954
13.37396
13.723308
14.081527
14.444133
14.806791
15.165462
15.516509
15.856761
16.183543
16.494683
16.78849
17.063711
17.319494
17.555325
17.770982
17.966477
18.142018
18.29796
18.434772
18.553006
18.653251
18.736012
18.802177
18.852126
18.886538
18.906081
18.911351
18.90304
18.881497
18.847213
18.800744
18.742545
18.673045
18.592648
18.501736
18.400671
18.289801
18.169463
18.039981
17.901688
11.020516
11.086306
11.178881
11.300398
11.452762
11.637357
11.854819
12.104861
12.38618
12.696439
13.032342
13.389781
13.764044
14.150052
14.542604
14.936603
15.327246
15.710182
16.081608
16.43832
16.777728
17.097832
17.397177
17.674796
17.93014
18.163015
18.37351
18.561943
18.728804
18.874714
19.000385
19.106608
19.194254
19.263454
19.31599
19.352035
19.372396
19.377812
19.369096
19.346705
19.311229
19.26329
19.203399
19.13204
19.049663
18.956691
18.853517
18.740514
18.618034
18.486416
18.345986
18.197072
11.030778
11.118467
11.23478
11.382396
11.563629
11.780096
12.032438
12.320119
12.641335
12.993029
13.371024
13.770245
14.185004
14.609314
15.037192
15.462915
15.881244
16.287574
16.678016
17.049428
17.399396
17.726182
18.02865
18.306188
18.558613
18.786096
18.989077
19.168203
19.324266
19.458161
19.570846
19.663319
19.736605
19.791351
19.828801
19.849764
19.855046
19.84556
19.821855
19.784672
19.734722
19.672588
19.598809
19.513891
19.418302
19.312474
19.19681
19.071687
18.937457
18.794456
18.643006
18.483432
11.041651
11.152574
11.294209
11.469856
11.68231
11.933435
12.223824
12.552579
12.917229
13.313802
13.737042
14.180727
14.638057
15.102049
15.565897
16.023275
16.468562
16.896984
17.304671
17.688649
18.046784
18.377697
18.680658
18.955476
19.202393
19.421985
19.615076
19.782661
19.925849
20.045816
20.143772
20.220921
20.278406
20.317235
20.338574
20.343445
20.332877
20.307464
20.268097
20.215606
20.150669
20.0739
19.985864
19.887082
19.778032
19.659152
19.530848
19.393493
19.24744
19.093017
18.930539
18.76032
11.053131
11.188632
11.357213
11.562924
11.809115
12.097901
12.429754
12.803258
13.21507
13.660073
14.131704
14.62241
15.124143
15.628855
16.12891
16.617423
17.08848
17.537253
17.960009
18.354065
18.717683
19.049939
19.350592
19.61994
19.858699
20.067887
20.248734
20.4026
20.530914
20.635135
20.716728
20.777061
20.817445
20.839143
20.843386
20.831432
20.803953
20.761986
20.706465
20.638183
20.557852
20.466115
20.363551
20.250692
20.128019
19.995971
19.85495
19.705326
19.547443
19.381619
19.208158
19.027365
11.065205
11.226622
11.423806
11.661712
11.944328
12.274009
12.65099
13.073145
13.536003
14.033031
14.556121
15.096192
15.643835
16.189889
16.725919
17.244563
17.739732
18.206677
18.641947
19.04328
19.409449
19.740088
20.03552
20.296592
20.524535
20.720841
20.887159
21.025221
21.136778
21.223563
21.287269
21.329436
21.351582
21.355135
21.341573
21.311697
21.266746
21.207752
21.135622
21.05118
20.955161
20.848223
20.730958
20.603898
20.467524
20.32227
20.168531
20.006667
19.837008
19.659863
19.475521
19.284269
11.077854
11.266498
11.493966
11.766296
12.088202
12.462241
12.888257
13.363158
13.881044
14.433664
15.011104
15.60258
16.197228
16.784768
17.356031
17.9033
18.420457
18.90299
19.347881
19.753428
20.119033
20.44498
20.732227
20.982221
21.196741
21.377769
21.527385
21.647688
21.740748
21.808563
21.853005
21.875845
21.878773
21.863516
21.831007
21.782728
21.719855
21.643416
21.554346
21.453489
21.341592
21.219324
21.087276
20.945979
20.795908
20.637485
20.471094
20.297081
20.115762
19.927429
19.732354
19.530809
11.091049
11.308183
11.567627
11.876708
12.240947
12.663032
13.142205
13.674089
14.251001
14.862645
15.497047
16.141565
16.783823
17.412462
18.01769
18.591584
19.128171
19.623351
20.074697
20.481205
20.843017
21.161152
21.437267
21.673447
21.872041
22.035529
22.166421
22.26718
22.340179
22.387634
22.411646
22.414189
22.39729
22.362049
22.310199
22.243095
22.161925
22.067753
21.961532
21.844115
21.716257
21.578623
21.431802
21.276316
21.112626
20.941142
20.762231
20.576221
20.38341
20.184072
19.97846
19.766826
11.104747
11.351569
11.644676
11.992925
12.402713
12.876741
13.413357
14.006519
14.646362
15.320206
16.013784
16.712482
17.402406
18.071204
18.708611
19.306676
19.859763
20.364363
20.818803
21.22291
21.577667
21.884905
22.147025
22.366781
22.547101
22.690965
22.801303
22.88093
22.932472
22.958399
22.961029
22.942722
22.904803
22.849267
22.777686
22.691433
22.59173
22.479664
22.356198
22.222186
22.07838
21.925439
21.763939
21.594389
21.417232
21.232859
21.041618
20.843817
20.639732
20.429616
20.213703
19.992223
11.118895
11.396507
11.724945
12.114861
12.573575
13.103606
13.702037
14.360708
15.067147
15.805965
16.560417
17.313856
18.05092
18.758399
19.425727
20.045128
20.611499
21.122105
21.57618
21.974507
22.319001
22.612364
22.85778
23.058684
23.218588
23.34096
23.429138
23.486235
23.515161
23.518631
23.499382
23.459033
23.399856
23.323681
23.232098
23.126516
23.008177
22.878179
22.737487
22.586948
22.427304
22.259199
22.083194
21.899776
21.709368
21.51234
21.309015
21.099677
20.88458
20.663955
20.438015
20.206965
11.133426
11.442805
11.808203
12.242355
12.753499
13.343686
14.008264
14.736442
15.512717
16.31872
17.135114
17.943229
18.726343
19.470545
20.16516
20.80279
21.37906
21.892182
22.342446
22.731696
23.062859
23.339554
23.565772
23.745633
23.883225
23.982489
24.047118
24.080547
24.085958
24.066524
24.024243
23.961666
23.880946
23.783922
23.672219
23.547264
23.410313
23.262462
23.104669
22.937768
22.762483
22.579438
22.389173
22.19215
21.988769
21.779372
21.564257
21.343681
21.117875
20.887043
20.651382
20.411066
11.148255
11.490228
11.894154
12.375154
12.942303
13.596772
14.331596
15.132817
15.981524
16.856195
17.734886
18.596995
19.424577
20.203186
20.922221
21.574847
22.157601
22.669808
23.112939
23.489998
23.804987
24.062476
24.267272
24.424181
24.537848
24.612633
24.652605
24.66151
24.643009
24.599605
24.534122
24.449113
24.346707
24.228782
24.096982
23.952746
23.797326
23.631809
23.457139
23.27413
23.083482
22.885795
22.681582
22.471277
22.255252
22.033821
21.807254
21.575779
21.339597
21.098888
20.85385
20.604599
11.163286
11.538492
11.982427
12.512894
13.139597
13.862255
14.670921
15.547957
16.470793
17.414734
18.355337
19.270223
20.140359
20.950891
21.691435
22.355882
22.941841
23.449893
23.882813
24.244846
24.54112
24.777181
24.958654
25.091017
25.179427
25.228667
25.243182
25.227207
25.183887
25.116309
25.027527
24.920016
24.795947
24.657218
24.505484
24.342178
24.168542
23.985648
23.794415
23.595633
23.389974
23.178008
22.960217
22.737006
22.508715
22.275628
22.037983
21.79598
21.549789
11.178401
11.58726
12.072569
12.655066
13.344688
14.138936
15.024156
15.978639
16.97613
17.988947
18.990401
19.956508
20.867206
21.707275
22.466623
23.13998
23.726167
24.227161
24.647144
24.991683
25.267073
25.47985
25.636455
25.742995
25.805153
25.828107
25.816848
25.775336
25.706884
25.615182
25.503115
25.373205
25.22765
25.068355
24.896972
24.714922
24.523427
24.323534
24.116136
23.901989
23.681735
23.455911
23.224965
22.989269
22.74913
22.5048
22.256485
22.004355
21.748555
11.19347
11.636142
12.164037
12.800966
13.556435
14.424744
15.387826
16.419793
17.491027
18.571309
19.632071
20.647839
21.597406
22.465069
23.241007
23.920856
24.504776
24.996272
25.401045
25.726059
25.978818
26.16686
26.297411
26.377226
26.41248
26.408825
26.371534
26.303963
26.210623
26.094901
25.959741
25.807697
25.640976
25.461482
25.270851
25.070485
24.861578
24.645147
24.422051
24.193013
23.958637
23.719425
23.475791
23.228071
22.976537
22.721409
22.462858
22.201021
21.936023
11.208342
11.684696
12.256177
12.949616
13.773036
14.716328
15.756488
16.863853
18.006269
19.151707
20.270131
21.334523
22.322069
23.216252
24.007378
24.692024
25.271821
25.751956
26.139777
26.443726
26.672568
26.83483
26.938548
26.9911
26.999154
26.969083
26.904977
26.811829
26.693806
26.554355
26.396461
26.222693
26.035258
25.836047
25.626673
25.408509
25.182718
24.95028
24.712017
24.468616
24.22064
23.968556
23.712738
23.453487
23.191041
22.925582
22.65725
22.386149
22.112378
11.222849
11.732418
12.348196
13.09963
13.991682
15.008463
16.121927
17.299913
18.50922
19.71695
20.891918
22.005175
23.031265
23.952243
24.758301
25.446984
26.021576
26.48915
26.858861
27.140733
27.344825
27.480705
27.557213
27.582296
27.563562
27.50645
27.416057
27.297669
27.155363
26.992647
26.812527
26.617578
26.409998
26.191654
25.964131
25.728768
25.48669
25.238838
24.985994
24.728803
24.467791
24.203383
23.935917
23.665655
23.3928
23.117499
22.839858
22.559949
22.277841
11.236802
11.778737
12.439103
13.248983
14.208034
15.293179
16.472054
17.712649
18.982998
20.25025
21.482119
22.64682
23.714249
24.664169
25.486369
26.179439
26.748606
27.203129
27.554183
27.81348
27.992465
28.101798
28.151096
28.149041
28.103668
28.019605
27.903571
27.760464
27.594452
27.409083
27.20738
26.991911
26.764855
26.528053
26.283053
26.031157
25.773448
25.510825
25.244029
24.973662
24.70021
24.424056
24.1455
23.864768
23.582026
23.297385
23.010919
22.722665
22.432667
11.249985
11.822998
12.527608
13.394634
14.415402
15.558506
16.789377
18.080915
19.405491
20.730698
22.022636
23.245138
24.359803
25.343203
26.184484
26.883507
27.447932
27.889628
28.22206
28.458805
28.612798
28.695804
28.718228
28.690001
28.617572
28.507599
28.366568
28.199435
28.010445
27.803173
27.580644
27.345415
27.099641
26.845129
26.58339
26.315683
26.043047
25.76634
25.486256
25.203357
24.918085
24.630784
24.341716
24.05107
23.758974
23.465506
23.170705
22.874578
22.577138
11.262137
11.864415
12.611914
13.531854
14.603445
15.786628
17.060678
18.400112
19.776106
21.155998
22.504755
23.784934
24.956699
25.980965
26.846177
27.553949
28.115178
28.544929
28.859335
29.074045
29.203564
29.260815
29.257304
29.203266
29.104525
28.969531
28.804344
28.614034
28.402925
28.174612
27.932112
27.677968
27.414305
27.142895
26.865207
26.582457
26.295638
26.005563
25.712884
25.418119
25.121667
24.823834
24.524843
24.224847
23.923939
23.622161
23.319519
23.01599
22.71156
11.272914
11.901991
12.689351
13.653078
14.756116
15.975267
17.289965
18.674258
20.098655
21.530074
22.932564
24.267569
25.49427
26.569977
27.46593
28.186364
28.746685
29.165958
29.463435
29.657035
29.762948
29.795315
29.767347
29.687498
29.563856
29.404796
29.216439
29.003927
28.771669
28.523271
28.261737
27.98959
27.708925
27.421478
27.128674
26.831683
26.531453
26.228752
25.924189
25.618239
25.311259
25.003518
24.6952
24.386424
24.077248
23.76768
23.457691
23.14723
22.836258
11.281795
11.934345
12.755679
13.745874
14.876165
16.128795
17.481308
18.90731
20.376978
21.856828
23.310078
24.697118
25.97616
27.104149
28.039494
28.777336
29.339614
29.75034
30.032364
30.206116
30.289592
30.29842
30.247017
30.142324
29.995031
29.81303
29.60262
29.368983
29.116633
28.849184
28.569614
28.28043
27.983697
27.681109
27.374051
27.063647
26.750799
26.436229
26.120505
25.804061
25.487212
25.170189
24.853143
24.536156
24.219258
23.902415
23.58557
23.268643
22.951571
11.287854
11.959365
12.803809
13.811779
14.967949
16.251505
17.638729
19.10314
20.614877
22.140105
23.641228
25.077558
26.406237
27.583276
28.564177
29.324549
29.891992
30.296383
30.564707
30.720137
30.782533
30.769678
30.695396
30.567548
30.39782
30.194106
29.962857
29.709254
29.43794
29.152531
28.855971
28.550755
28.238917
27.922113
27.601684
27.278709
26.954047
26.628374
26.302218
25.975974
25.649916
25.324238
24.999058
24.674428
24.350346
24.02674
23.703521
23.380587
23.057852
11.289228
11.973537
12.828677
13.855272
15.035925
16.347599
17.766139
19.265506
20.816071
22.383678
23.929861
25.412784
26.788424
28.011807
29.03811
29.826779
30.402682
30.803072
31.059621
31.198442
31.241324
31.208638
31.112373
30.963031
30.772225
30.548103
30.297309
30.024962
29.735857
29.433622
29.12115
28.800934
28.474974
28.144892
27.811987
27.477293
27.141625
26.805618
26.469758
26.134405
25.799792
25.466082
25.133356
24.801641
24.47091
24.141045
23.811925
23.483433
23.155461
11.281894
11.969039
12.835719
13.881264
15.084602
16.421151
17.867298
19.398036
20.984183
22.591229
24.179733
25.706597
27.126529
28.393473
29.461432
30.283967
30.871353
31.270038
31.51679
31.64082
31.665935
31.615039
31.498186
31.328916
31.118477
30.875289
30.606295
30.316479
30.010785
29.692882
29.365595
29.031423
28.692336
28.349922
28.005437
27.659874
27.314007
26.96843
26.62359
26.27981
25.937292
25.59616
25.256469
24.918215
24.58136
24.245731
23.911172
23.577563
23.244768
11.268128
11.951797
12.830599
13.894881
15.118425
16.476044
17.945774
19.504209
21.122722
22.766347
24.394496
25.962683
27.424266
28.732057
29.839035
30.697174
31.298376
31.697487
31.936381
32.047442
32.056671
31.989019
31.853232
31.665586
31.436998
31.176108
30.890282
30.584303
30.263239
29.930834
29.589837
29.242758
28.891538
28.537734
28.182563
27.826976
27.471708
27.117315
26.764208
26.412675
26.062885
25.714932
25.36884
25.024579
11.249858
11.927054
12.81913
13.901297
15.141642
16.515891
18.004915
19.587347
21.235079
22.912511
24.57769
26.18461
27.685189
29.031136
30.174669
31.067788
31.684654
32.086122
32.318974
32.418814
32.414159
32.330945
32.178143
31.973605
31.728357
31.451266
31.149796
30.829022
30.493823
30.148084
29.794479
29.435536
29.07317
28.70891
28.343935
27.979156
27.615271
27.252804
26.892128
26.5335
26.17706
25.822871
25.470926
25.121169
11.228655
11.900031
12.807351
13.905537
15.158142
16.543964
18.047822
19.650611
21.324515
23.033086
24.73274
26.375782
27.912663
29.294095
30.47155
31.397204
32.03152
32.436998
32.665495
32.755773
32.739198
32.641608
32.473605
32.253697
31.993253
31.701391
31.385654
31.05134
30.703229
30.345307
29.980184
29.61041
29.237869
28.86407
28.490156
28.117
27.745268
27.375448
27.007885
26.642802
26.280315
25.920457
25.563193
25.208442
11.206178
11.876574
12.801533
13.912223
15.171271
16.563116
18.077332
19.696995
21.394144
23.131311
24.862914
26.539408
28.109876
29.524138
30.732748
31.686872
32.340689
32.75155
32.977151
33.059442
33.032604
32.922072
32.7405
32.50673
32.232531
31.927294
31.598638
31.252036
30.892219
30.523238
30.147665
29.768072
29.386307
29.003865
28.621856
28.241118
27.862283
27.485813
27.112022
26.741106
26.373155
26.008177
25.646109
25.286852
11.184638
11.86384
12.807837
13.925179
15.183641
16.57572
18.096003
19.729323
21.446932
23.210248
24.971291
26.67853
28.279862
29.724266
30.961269
31.940918
32.614349
33.031467
33.255372
33.331093
33.295453
33.173462
32.979845
32.733681
32.447131
32.129868
31.789602
31.431951
31.061622
30.682642
30.297673
29.909246
29.519181
29.128969
28.739684
28.352131
27.966917
27.584475
27.205093
26.828942
26.456089
26.086519
25.720145
25.356849
11.167518
11.87065
12.831802
13.946942
15.196938
16.583625
18.106046
19.750264
21.485638
23.272728
25.060783
26.796066
28.425359
29.897214
31.160032
32.162659
32.854803
33.278629
33.501737
33.572107
33.528987
33.39698
33.192752
32.935606
32.638062
32.310069
31.959459
31.591964
31.212265
30.824357
30.430992
30.034681
29.637209
29.240067
28.844298
28.450672
28.059774
27.672011
27.287651
26.90684
26.529625
26.155969
25.785764
25.418878
11.160659
11.907523
12.876947
13.978168
15.211796
16.588153
18.109486
19.762202
21.512807
23.321487
25.134104
26.89451
28.548893
30.045598
31.331749
32.354989
33.064327
33.494898
33.717937
33.78399
33.734549
33.593877
33.380406
33.113628
32.806388
32.468907
32.109168
31.732988
31.345019
30.949219
30.548421
30.145142
29.741119
29.337858
28.936364
28.537377
28.14146
27.749002
27.360249
26.975328
26.594265
26.217008
25.843428
25.473378
11.174466
11.984401
12.942764
14.017155
15.227782
16.59015
18.108063
19.767162
21.53097
23.359073
25.193549
26.976134
28.652835
30.171921
31.478901
32.520324
33.245141
33.682206
33.905676
33.96829
33.913554
33.765473
33.544024
33.2689
32.953211
32.607426
32.239713
31.855959
31.460772
31.058078
30.650775
30.241401
29.831647
29.423041
29.016548
28.612879
28.21258
27.816023
27.423435
27.034927
26.650508
26.270108
25.893586
25.520778
11.230485
12.103025
13.022503
14.059831
15.24359
16.59017
18.103113
19.766526
21.543035
23.38763
25.241151
27.043044
28.739429
30.278457
31.603612
32.660878
33.399353
33.842447
34.066664
34.126576
34.067454
33.913113
33.684859
33.402599
33.07965
32.726692
32.352099