/*--------------------------------*- C++ -*----------------------------------*\
| =========                 |                                                 |
| \\      /  F ield         | OpenFOAM: The Open Source CFD Toolbox           |
|  \\    /   O peration     | Version:  2312                                  |
|   \\  /    A nd           | Website:  www.openfoam.com                      |
|    \\/     M anipulation  |                                                 |
\*---------------------------------------------------------------------------*/
FoamFile
{
    version     2.0;
    format      ascii;
    arch        "LSB;label=32;scalar=64";
    class       volScalarField;
    location    "0.02";
    object      Ma;
}
// * * * * * * * * * * * * * * * * * * * * * * * * * * * * * * * * * * * * * //

dimensions      [0 0 0 0 0 0 0];

internalField   nonuniform List<scalar> 
3221
(
0.0031673713
0.0031727661
0.0031742152
0.0031728167
0.0031695038
0.0031646808
0.0031585939
0.0031514697
0.0031435343
0.0031350142
0.0031261393
0.0031171437
0.0031082648
0.0030997418
0.0030918121
0.003084708
0.0030786532
0.0030738582
0.0030705167
0.0030688012
0.0030688594
0.0030708107
0.0030747435
0.0030807131
0.0030887397
0.0030988089
0.003110871
0.0031248427
0.0031406091
0.0031580262
0.0031769242
0.0031971115
0.0032183783
0.0032405013
0.0032632471
0.0032863771
0.0033096501
0.0033328255
0.0033556674
0.0033779457
0.0033994211
0.0034197941
0.0034391581
0.0034568896
0.0034728924
0.0034873229
0.0034998806
0.0035106499
0.0035191414
0.0035253563
0.0035294435
0.0035312779
0.0031699013
0.003178022
0.0031807443
0.0031792315
0.0031749985
0.003168807
0.0031610756
0.0031521211
0.0031422248
0.0031316504
0.0031206551
0.0031094958
0.0030984315
0.0030877215
0.0030776241
0.0030683923
0.0030602702
0.0030534882
0.0030482584
0.0030447705
0.0030431869
0.003043639
0.0030462239
0.0030510023
0.0030579963
0.0030671891
0.0030785257
0.0030919138
0.0031072263
0.0031243046
0.003142962
0.0031629883
0.0031841541
0.0032062159
0.0032289204
0.0032520093
0.0032752229
0.0032983042
0.0033210039
0.0033430869
0.0033643242
0.0033844289
0.0034034682
0.0034207651
0.0034361344
0.0034498311
0.0034615931
0.0034714905
0.0034790012
0.0034840534
0.0034868621
0.0034873266
0.003169972
0.0031805461
0.003185248
0.0031851148
0.0031815087
0.0031752843
0.0031670107
0.0031571361
0.0031460441
0.0031340775
0.0031215563
0.0031087878
0.0030960728
0.0030837069
0.0030719798
0.0030611726
0.0030515543
0.0030433773
0.0030368724
0.0030322449
0.0030296691
0.0030292847
0.0030311934
0.0030354562
0.0030420922
0.0030510778
0.0030623478
0.0030757969
0.0030912825
0.0031086286
0.0031276297
0.0031480559
0.0031696582
0.0031921731
0.0032153285
0.0032388484
0.0032624574
0.0032858854
0.0033088731
0.0033311795
0.0033525719
0.0033727563
0.0033917923
0.0034089763
0.0034241278
0.0034374929
0.0034488258
0.0034582003
0.003465077
0.0034693852
0.0034713357
0.0034708424
0.0031702319
0.003182158
0.0031883846
0.0031896083
0.0031869213
0.0031811098
0.003172779
0.0031624467
0.0031505725
0.0031375725
0.0031238333
0.0031097221
0.0030955928
0.0030817879
0.0030686389
0.0030564638
0.0030455638
0.0030362188
0.0030286829
0.0030231797
0.0030198967
0.0030189822
0.0030205413
0.0030246335
0.0030312717
0.003040422
0.003052005
0.0030658979
0.0030819384
0.0030999287
0.0031196405
0.0031408206
0.0031631968
0.0031864831
0.0032103863
0.0032346108
0.0032588642
0.0032828621
0.0033063346
0.003329033
0.0033507171
0.0033710809
0.003390186
0.0034073077
0.003422305
0.0034353781
0.0034462904
0.0034551271
0.0034613359
0.0034648758
0.0034659304
0.0034644269
0.0031704767
0.0031833579
0.0031907518
0.003193116
0.0031913273
0.0031860701
0.003177927
0.0031674363
0.0031551001
0.0031413879
0.0031267439
0.0031115921
0.0030963411
0.0030813842
0.0030670994
0.0030538466
0.0030419637
0.0030317621
0.0030235219
0.0030174863
0.0030138568
0.0030127893
0.0030143905
0.0030187157
0.0030257682
0.0030354995
0.0030478116
0.0030625598
0.0030795574
0.0030985807
0.0031193747
0.0031416596
0.0031651371
0.0031894969
0.0032144225
0.0032395975
0.0032647113
0.0032894643
0.0033135754
0.0033367888
0.0033588578
0.003379465
0.0033986786
0.0034157524
0.0034306043
0.0034433755
0.0034538413
0.0034621006
0.0034675855
0.0034702999
0.0034703911
0.0034678024
0.0031707135
0.0031843649
0.0031926852
0.0031959872
0.0031949955
0.0031903029
0.0031824525
0.0031719792
0.0031594065
0.0031452406
0.0031299716
0.0031140742
0.003098008
0.0030822169
0.0030671264
0.0030531397
0.0030406332
0.003029951
0.0030213999
0.0030152424
0.0030116928
0.0030109123
0.0030130061
0.0030180212
0.0030259466
0.0030367145
0.0030502031
0.0030662409
0.003084612
0.0031050625
0.0031273073
0.0031510372
0.003175926
0.003201637
0.0032278302
0.0032541679
0.0032803207
0.0033059738
0.003330835
0.003354642
0.0033771452
0.003398021
0.0034173419
0.0034343402
0.0034490049
0.0034614181
0.0034713765
0.0034789892
0.003483668
0.0034854701
0.0034845034
0.0034807309
0.003170967
0.0031853008
0.0031943992
0.003198487
0.0031981881
0.0031940242
0.0031865013
0.0031761446
0.0031634887
0.0031490674
0.0031334083
0.0031170306
0.0031004419
0.0030841343
0.0030685797
0.0030542244
0.0030414829
0.0030307319
0.0030223028
0.0030164761
0.0030134754
0.0030134634
0.003016539
0.0030227356
0.0030320223
0.0030443057
0.0030594345
0.0030772048
0.0030973667
0.003119632
0.0031436822
0.0031691761
0.0031957581
0.0032230651
0.0032507334
0.0032784049
0.0033057328
0.0033323884
0.0033580692
0.0033825059
0.0034054456
0.003426579
0.0034459609
0.0034628136
0.0034772027
0.0034891511
0.0034984973
0.0035053468
0.0035091017
0.0035098758
0.0035077324
0.0035026561
0.0031712471
0.0031862341
0.0031960304
0.0032008056
0.0032011194
0.0031974441
0.003190258
0.003180079
0.003167451
0.0031529313
0.0031370819
0.0031204631
0.0031036277
0.0030871142
0.0030714398
0.0030570924
0.0030445237
0.0030341401
0.0030262955
0.0030212839
0.0030193339
0.0030206041
0.0030251804
0.0030330759
0.0030442324
0.0030585243
0.0030757641
0.0030957095
0.0031180715
0.0031425237
0.0031687109
0.0031962582
0.0032247797
0.0032538859
0.0032831907
0.0033123175
0.0033409052
0.0033686157
0.003395142
0.0034202073
0.0034435377
0.003464896
0.0034842376
0.0035008307
0.0035148301
0.0035261746
0.0035347779
0.0035406802
0.0035433363
0.0035429312
0.0035394695
0.0035329495
0.0031715584
0.003187206
0.0031976662
0.0032030743
0.0032039514
0.0032007386
0.0031938972
0.0031839436
0.0031714345
0.0031569515
0.0031410905
0.0031244529
0.0031076358
0.0030912235
0.003075777
0.0030618252
0.0030498539
0.0030402966
0.0030335249
0.0030298414
0.0030294728
0.0030325658
0.0030391858
0.0030493168
0.0030628651
0.0030796648
0.0030994851
0.003122039
0.0031469937
0.0031739805
0.0032026052
0.003232458
0.0032631222
0.0032941827
0.0033252323
0.0033558778
0.0033857465
0.0034144951
0.0034418211
0.0034674522
0.0034910511
0.0035127287
0.0035318052
0.0035479354
0.0035613953
0.0035719923
0.0035798761
0.0035845577
0.0035858782
0.0035840865
0.0035791242
0.0035709901
0.0031719045
0.0031882434
0.0031993666
0.0032053878
0.003206808
0.0032040505
0.0031975707
0.003187891
0.0031755863
0.0031612666
0.0031455644
0.0031291238
0.0031125878
0.0030965864
0.0030817249
0.0030685708
0.0030576416
0.0030493933
0.0030442099
0.003042395
0.003044165
0.0030496458
0.0030588718
0.0030717882
0.0030882564
0.0031080613
0.0031309213
0.0031564988
0.0031844123
0.0032142481
0.0032455715
0.0032779376
0.0033109004
0.0033440207
0.0033768729
0.0034090506
0.0034401734
0.0034698972
0.0034979294
0.0035240147
0.0035478206
0.0035694697
0.0035881471
0.0036036927
0.0036163777
0.0036261503
0.0036330356
0.0036363574
0.0036361892
0.003632781
0.0036260993
0.0036161497
0.0031722883
0.0031893662
0.003201176
0.0032078181
0.0032097863
0.0032074973
0.0032014096
0.0031920603
0.0031800493
0.0031660208
0.0031506492
0.0031346247
0.003118639
0.0031033697
0.0030894662
0.0030775329
0.0030681155
0.0030616871
0.0030586367
0.0030592596
0.0030637518
0.0030722065
0.0030846159
0.003100875
0.0031207895
0.0031440863
0.0031704253
0.0031994127
0.0032306146
0.0032635704
0.0032978049
0.0033328394
0.003368201
0.0034034305
0.0034380879
0.0034717583
0.0035040582
0.0035346474
0.0035632425
0.0035896023
0.003613429
0.0036348307
0.0036529257
0.0036676568
0.0036792051
0.0036879073
0.0036936437
0.0036954425
0.0036935783
0.0036883274
0.0036797068
0.0036677323
0.003172713
0.003190591
0.0032031308
0.0032104239
0.0032129669
0.0032111785
0.003205529
0.0031965785
0.0031849601
0.0031713596
0.0031564995
0.0031411219
0.003125971
0.0031117749
0.0030992266
0.0030889659
0.0030815619
0.0030774979
0.0030771582
0.0030808189
0.0030886422
0.0031006759
0.0031168562
0.0031370155
0.0031608928
0.0031881476
0.0032183742
0.003251118
0.0032858902
0.0033221829
0.0033594817
0.0033972772
0.0034350735
0.0034723959
0.0035087956
0.0035438546
0.0035771932
0.0036084832
0.0036374521
0.0036638496
0.003687498
0.0037084199
0.0037257556
0.0037394944
0.0037495413
0.003756647
0.0037609026
0.0037610045
0.0037572851
0.0037499968
0.0037392341
0.003725032
0.0031731816
0.0031919331
0.0032052628
0.0032132563
0.0032164204
0.0032151827
0.0032100335
0.0032015646
0.0031904513
0.0031774296
0.0031632782
0.0031487977
0.0031347904
0.0031220369
0.0031112745
0.0031031752
0.0030983255
0.0030972096
0.0031001954
0.0031075254
0.0031193136
0.0031355461
0.0031560888
0.0031806977
0.0032090341
0.0032406812
0.003275162
0.0033119574
0.0033505231
0.0033903051
0.0034307531
0.0034713312
0.0035115261
0.0035508532
0.0035888604
0.0036251317
0.0036592964
0.0036910457
0.0037201291
0.0037462342
0.0037695912
0.0037895237
0.0038057631
0.0038183791
0.0038270656
0.0038324675
0.0038344016
0.0038323918
0.003826587
0.0038170878
0.0038039874
0.0037873569
0.0031736978
0.0031934075
0.0032076024
0.003216363
0.0032202121
0.0032195925
0.0032150222
0.003207134
0.0031966551
0.0031843821
0.0031711589
0.0031578532
0.0031453305
0.0031344272
0.003125924
0.0031205206
0.0031188128
0.0031212735
0.0031282393
0.0031399026
0.0031563108
0.0031773713
0.0032028634
0.0032324533
0.0032657135
0.0033021433
0.00334119
0.0033822689
0.0034247814
0.0034681312
0.003511737
0.0035550428
0.0035975252
0.0036386973
0.0036781114
0.0037153612
0.0037500903
0.0037820097
0.0038108944
0.0038364778
0.0038589933
0.0038776429
0.003892481
0.0039035586
0.0039107026
0.0039141896
0.003913688
0.0039092762
0.0039010365
0.0038890248
0.0038733305
0.0038540438
0.0031742654
0.0031950297
0.0032101797
0.0032197909
0.003224406
0.0032244887
0.0032205927
0.003213402
0.0032037071
0.0031923763
0.0031803301
0.0031685119
0.0031578565
0.0031492585
0.0031435401
0.0031414219
0.0031434973
0.0031502127
0.0031618548
0.0031785455
0.0032002454
0.0032267643
0.003257778
0.0032928495
0.0033314528
0.0033729981
0.0034168548
0.0034623738
0.0035089061
0.0035558189
0.0036025072
0.0036484034
0.0036929825
0.0037357647
0.0037763163
0.0038142503
0.0038492336
0.0038809946
0.003909304
0.0039340249
0.0039552754
0.003972295
0.0039854073
0.0039945185
0.0039998802
0.0040010424
0.0039979193
0.0039908732
0.0039799137
0.0039651158
0.0039465812
0.0039244144
0.0031748888
0.0031968163
0.0032130266
0.0032235879
0.0032290667
0.0032299528
0.0032268444
0.0032204879
0.0032117499
0.0032015841
0.0031909996
0.0031810252
0.0031726716
0.0031668923
0.0031645468
0.0031663663
0.0031729264
0.0031846271
0.0032016825
0.0032241207
0.0032517927
0.0032843903
0.0033214694
0.0033624777
0.0034067837
0.0034537051
0.0035025348
0.0035525633
0.0036030982
0.0036534781
0.0037030841
0.0037513465
0.0037977486
0.0038418279
0.003883174
0.0039214289
0.0039562907
0.0039875099
0.0040148144
0.0040384909
0.0040579038
0.0040729607
0.0040839637
0.0040908177
0.0040938134
0.0040922868
0.0040863987
0.0040764508
0.0040625073
0.0040446718
0.0040230635
0.0039978019
0.003175573
0.0031987857
0.0032161769
0.0032278046
0.0032342619
0.0032360701
0.0032338814
0.003228518
0.0032209376
0.0032121947
0.0032034008
0.0031956805
0.0031901256
0.0031877479
0.003189436
0.0031959171
0.0032077283
0.0032251981
0.0032484413
0.003277365
0.0033116864
0.0033509585
0.0033946024
0.0034419408
0.0034922326
0.0035447038
0.0035985752
0.003653085
0.0037075066
0.0037611612
0.003813427
0.0038637438
0.0039116144
0.0039566035
0.0039983355
0.004036493
0.0040708107
0.0041010451
0.0041270536
0.004149023
0.0041662508
0.0041790569
0.0041875451
0.0041917647
0.0041919218
0.0041873541
0.0041784312
0.0041653159
0.0041481354
0.0041270241
0.0041021208
0.0040735609
0.0031763234
0.0032009577
0.0032196675
0.0032324956
0.0032400637
0.0032429308
0.0032418147
0.0032376285
0.0032314394
0.0032244199
0.0032177992
0.0032128085
0.0032106242
0.0032123122
0.0032187774
0.0032307224
0.0032486185
0.0032726924
0.0033029276
0.0033390809
0.00338071
0.0034272103
0.0034778552
0.0035318368
0.0035883043
0.0036463972
0.0037052729
0.0037641285
0.0038222158
0.0038788519
0.0039334252
0.0039853974
0.0040343024
0.0040797429
0.0041213865
0.0041589628
0.0041922473
0.0042209667
0.0042454166
0.0042650263
0.0042796341
0.0042898631
0.0042954755
0.0042968592
0.0042935781
0.0042856633
0.0042733712
0.0042568145
0.004236149
0.0042115329
0.004183124
0.0041510741
0.0031771461
0.0032033547
0.0032235389
0.00323772
0.00324655
0.0032506324
0.0032507644
0.0032479694
0.0032434442
0.0032385003
0.0032345008
0.0032327935
0.0032346403
0.003241152
0.0032532301
0.0032715242
0.003296406
0.0033279632
0.0033660124
0.0034101285
0.0034596854
0.0035139043
0.0035719027
0.0036327411
0.0036954642
0.0037591351
0.0038228608
0.0038858119
0.0039472343
0.0040064561
0.0040628902
0.0041160339
0.0041654647
0.0042108356
0.0042518687
0.004288346
0.0043200634
0.0043469021
0.0043690735
0.0043857896
0.004397368
0.0044046466
0.0044072407
0.0044052032
0.004398176
0.0043866038
0.0043706114
0.004350332
0.004325934
0.0042975906
0.0042654757
0.0042297559
0.003178048
0.0032060016
0.003227836
0.0032435425
0.003253805
0.0032592804
0.0032608624
0.0032597069
0.0032571659
0.0032547124
0.0032538615
0.0032560849
0.0032627269
0.0032749262
0.0032935532
0.0033191669
0.0033519969
0.003391949
0.0034386343
0.0034914144
0.0035494575
0.0036117987
0.0036773971
0.0037451869
0.0038141198
0.003883197
0.003951493
0.0040181698
0.0040824849
0.0041437941
0.0042015502
0.0042552993
0.0043046757
0.0043493933
0.0043892348
0.0044240362
0.0044535812
0.0044782403
0.0044975053
0.0045108611
0.0045187513
0.0045225797
0.0045221253
0.0045161185
0.004505081
0.0044895171
0.0044695285
0.0044452618
0.0044168963
0.0043846165
0.0043486094
0.0043090549
0.0031790368
0.0032089259
0.003232608
0.0032500338
0.0032619209
0.0032689903
0.0032722537
0.0032730278
0.0032728489
0.0032733778
0.0032762981
0.0032832108
0.0032955311
0.0033144
0.0033406171
0.0033746033
0.003416395
0.0034656685
0.0035217889
0.0035838756
0.0036508746
0.0037216298
0.0037949466
0.0038696453
0.0039446018
0.0040187764
0.0040912318
0.0041611423
0.004227797
0.0042905964
0.0043490482
0.004402761
0.0044514393
0.0044948766
0.004532917
0.0045654231
0.0045923654
0.0046140967
0.00462993
0.0046398002
0.004643513
0.0046431293
0.0046390192
0.0046288326
0.0046135799
0.0045937449
0.0045695023
0.0045410128
0.0045084661
0.0044720593
0.0044319921
0.0043884556
0.003180121
0.0032121585
0.0032379097
0.0032572718
0.0032709981
0.0032798885
0.0032851
0.0032881442
0.0032907765
0.0032948734
0.0033023029
0.0033147934
0.0033338104
0.0033604582
0.0033954132
0.0034388985
0.0034906989
0.0035502098
0.0036165122
0.0036884597
0.0037647666
0.0038440893
0.0039250931
0.0040065046
0.0040871475
0.0041659662
0.0042420361
0.0043145676
0.0043829012
0.0044465004
0.0045049412
0.0045579047
0.0046051789
0.0046466593
0.0046822363
0.0047117492
0.0047356742
0.0047536369
0.004765445
0.0047714286
0.004771344
0.0047665168
0.0047572918
0.004742635
0.0047229681
0.0046986634
0.0046699477
0.0046370249
0.004600106
0.0045594025
0.0045151269
0.0044674809
0.00318131
0.0032157336
0.0032438015
0.0032653416
0.003281146
0.0032921139
0.0032995824
0.0033052995
0.0033112797
0.0033196449
0.0033324593
0.0033515671
0.0033784496
0.0034141189
0.0034590606
0.0035132292
0.003576093
0.0036467157
0.0037238607
0.0038061004
0.0038919193
0.0039798001
0.0040682909
0.0041560518
0.0042418846
0.0043247462
0.0044037531
0.0044781756
0.0045474275
0.0046110521
0.0046687052
0.0047201454
0.0047652567
0.0048040979
0.0048365329
0.0048625581
0.0048826231
0.0048961509
0.0049035673
0.0049050437
0.0049009287
0.004891329
0.0048768106
0.0048572542
0.0048328097
0.0048037559
0.0047703363
0.0047327809
0.0046913165
0.0046461671
0.0045975557
0.0045456928
0.0031826143
0.0032196896
0.0032503503
0.0032743356
0.003292484
0.0033058204
0.0033159058
0.0033247759
0.0033347496
0.0033482234
0.0033674615
0.0033943986
0.0034304778
0.0034765448
0.0035328099
0.0035988781
0.0036738337
0.0037563621
0.0038448849
0.003937691
0.0040330484
0.004129292
0.0042248846
0.0043184552
0.0044088176
0.0044949746
0.0045761118
0.0046515854
0.0047209041
0.0047837079
0.0048397408
0.0048888265
0.0049309276
0.0049664432
0.0049950428
0.005017157
0.00503251
0.0050411634
0.0050437315
0.0050403261
0.0050313728
0.0050166153
0.0049968196
0.0049720707
0.0049425431
0.0049084887
0.0048701578
0.0048277933
0.0047816334
0.0047319117
0.0046788594
0.0046226936
0.0031840457
0.0032240693
0.0032576288
0.0032843549
0.0033051424
0.0033211785
0.0033343047
0.0033469049
0.003361653
0.0033812452
0.0034081372
0.0034443081
0.0034910853
0.003549051
0.0036180405
0.0036972209
0.0037852278
0.0038803309
0.0039806007
0.0040840545
0.0041887722
0.004292978
0.0043950909
0.0044937496
0.0045878185
0.0046763801
0.0047587195
0.0048343041
0.0049027596
0.0049638415
0.0050173936
0.005063262
0.0051013451
0.0051329372
0.0051572868
0.0051745777
0.0051845875
0.0051879865
0.005185192
0.005176641
0.0051620684
0.0051418942
0.0051166274
0.0050864547
0.0050516086
0.0050123478
0.0049689302
0.0049216085
0.0048706295
0.0048162341
0.0047586593
0.0046981267
0.0031856174
0.0032289198
0.0032657168
0.0032955088
0.0033192635
0.0033383798
0.0033550507
0.0033720808
0.0033925515
0.0034194761
0.0034554727
0.0035024916
0.0035616375
0.0036331088
0.0037162519
0.0038097069
0.0039116049
0.004019779
0.0041319567
0.004245914
0.0043595855
0.0044711335
0.004578982
0.0046818253
0.0047786188
0.0048685598
0.0049510618
0.0050257278
0.0050923225
0.0051507427
0.0052009742
0.0052428493
0.0052755916
0.0053025076
0.0053225998
0.00533404
0.0053382489
0.0053358411
0.0053275016
0.0053129978
0.0052925252
0.0052666369
0.0052356552
0.00519985
0.0051594929
0.0051148568
0.0050662094
0.0050138118
0.0049579175
0.0048987723
0.0048366171
0.0047716762
0.0031873439
0.0032342928
0.0032747015
0.0033079159
0.0033350035
0.0033576414
0.0033784632
0.0034007779
0.0034281265
0.0034638401
0.0035106413
0.0035703422
0.0036436849
0.0037303404
0.0038290456
0.0039378307
0.0040542837
0.0041758021
0.0042998008
0.0044238632
0.0045458359
0.0046638779
0.0047764731
0.0048824201
0.0049808069
0.005070979
0.0051525049
0.005225144
0.0052888175
0.0053435862
0.0053896654
0.0054269678
0.0054535279
0.0054742423
0.0054895922
0.005494777
0.0054927402
0.0054841831
0.0054696572
0.0054487839
0.005422217
0.0053903054
0.0053533825
0.0053117583
0.0052657291
0.0052155814
0.0051615922
0.0051040293
0.0050431508
0.0049792054
0.0049124358
0.004843067
0.0031892414
0.0032402465
0.0032846779
0.0033217045
0.0033525348
0.003379213
0.0034049238
0.0034335742
0.0034692095
0.0035154526
0.0035750322
0.0036494685
0.0037389657
0.0038425065
0.0039580985
0.0040830969
0.0042145335
0.0043493981
0.0044848474
0.0046183393
0.004747703
0.0048711602
0.0049873138
0.0050951162
0.0051938285
0.0052829756
0.0053623041
0.0054317437
0.005491376
0.0055414022
0.0055820769
0.0056136102
0.0056352416
0.0056492155
0.0056568783
0.0056557353
0.0056472281
0.0056323179
0.0056109261
0.0055835367
0.0055505747
0.0055123874
0.0054693273
0.0054217256
0.0053698943
0.0053141303
0.0052547178
0.0051919289
0.0051260241
0.0050572529
0.004985858
0.0049120632
0.003191328
0.0032468446
0.0032957487
0.0033370135
0.0033720501
0.0034033875
0.0034348957
0.0034711805
0.0035168184
0.0035756574
0.003650279
0.0037417071
0.0038493996
0.0039714817
0.0041051268
0.0042469782
0.004393532
0.0045414289
0.0046876457
0.0048295994
0.0049651817
0.0050927489
0.0052110831
0.0053193396
0.0054169902
0.005503768
0.0055796168
0.0056446484
0.0056991122
0.0057433609
0.0057776975
0.0058024943
0.0058182193
0.0058252316
0.0058249178
0.0058166635
0.0058013815
0.0057792542
0.0057508685
0.0057166832
0.0056770707
0.0056324032
0.0055830454
0.0055293399
0.0054716085
0.005410155
0.0053452675
0.0052772199
0.0052062728
0.0051326747
0.0050566659
0.0049784676
0.003193624
0.0032541574
0.003308025
0.0033539942
0.0033937682
0.003430515
0.00346895
0.0035144785
0.0035722018
0.0036460659
0.0037382843
0.003849126
0.0039770693
0.0041192197
0.0042718409
0.0044308688
0.0045923228
0.0047525848
0.0049085527
0.0050577004
0.0051980701
0.0053282261
0.0054471893
0.0055543637
0.0056494662
0.0057324625
0.0058035097
0.0058629106
0.0059110858
0.0059485482
0.005975636
0.0059933113
0.0060015569
0.0060010054
0.0059927357
0.0059770637
0.0059541218
0.0059245394
0.005888927
0.0058476882
0.0058012208
0.0057499118
0.0056941322
0.0056342309
0.0055705344
0.0055033491
0.005432964
0.0053596523
0.0052836724
0.0052052692
0.0051246794
0.0050421195
0.0031961518
0.0032622623
0.0033216269
0.003372812
0.0034179424
0.0034610233
0.0035078012
0.0035645678
0.0036368878
0.0037285965
0.0038412379
0.0039740162
0.0041241891
0.0042877069
0.0044598953
0.004636036
0.0048117738
0.004983352
0.0051477096
0.0053024852
0.0054459622
0.0055769864
0.005694873
0.0057993164
0.0058903075
0.0059680641
0.006032969
0.0060855238
0.0061263184
0.0061560022
0.0061751534
0.0061847291
0.0061846239
0.0061759521
0.006159666
0.0061357941
0.0061048848
0.0060676383
0.0060245495
0.0059760584
0.0059225805
0.0058645112
0.0058022245
0.0057360707
0.0056663766
0.0055934479
0.0055175713
0.0054390163
0.0053580369
0.0052748728
0.0051897547
0.0051028932
0.0031989369
0.0032712446
0.0033366841
0.0033936513
0.0034448741
0.0034954467
0.0035523526
0.0036228232
0.0037127395
0.0038255103
0.0039616221
0.0041188686
0.00429306
0.004478907
0.004670832
0.0048635717
0.0050525388
0.0052339848
0.005405024
0.0055635725
0.0057082456
0.0058382395
0.0059532146
0.00605319
0.0061384532
0.0062094879
0.006266909
0.0063114156
0.0063437585
0.006364704
0.0063752897
0.0063756913
0.0063667851
0.0063496489
0.0063246189
0.0062922151
0.0062531545
0.0062079904
0.0061572338
0.0061013441
0.0060407469
0.0059758414
0.0059070009
0.0058345732
0.0057588819
0.0056802281
0.0055988931
0.0055151405
0.0054292177
0.0053413573
0.0052517825
0.0051606961
0.0032020075
0.0032811983
0.0033533382
0.003416722
0.0034749324
0.0035344659
0.0036037565
0.0036909622
0.0038020102
0.0039394376
0.0041022029
0.0042863326
0.004486011
0.0046946993
0.0049060254
0.0051143467
0.0053150238
0.0055044837
0.0056801576
0.005840353
0.0059841032
0.0061110175
0.0062211443
0.0063148542
0.0063927461
0.0064555769
0.0065041924
0.0065394786
0.0065623304
0.0065739438
0.0065746885
0.0065655014
0.0065474698
0.0065210515
0.0064869197
0.0064458265
0.0063983625
0.0063450903
0.0062865277
0.006223142
0.0061553623
0.0060835865
0.0060081835
0.0059294952
0.0058478381
0.0057635058
0.0056767715
0.0055878904
0.0054971014
0.0054046284
0.0053106857
0.0052154664
0.0032053958
0.0032922276
0.0033717446
0.0034422698
0.0035085827
0.0035789618
0.0036634889
0.0037711224
0.003907398
0.0040733907
0.0042660007
0.0044791594
0.0047053306
0.0049368134
0.0051666273
0.0053889699
0.0055993594
0.0057945787
0.0059725195
0.00613199
0.00627252
0.0063941856
0.0064974562
0.0065830718
0.0066519491
0.0067051183
0.0067436444
0.0067685794
0.0067812622
0.0067822668
0.0067726303
0.0067535608
0.0067255756
0.0066894703
0.0066460772
0.0065960502
0.0065399976
0.0064784849
0.0064120291
0.0063410971
0.0062661152
0.0061874752
0.0061055377
0.006020635
0.0059330734
0.005843136
0.0057510855
0.0056571667
0.0055616082
0.0054646237
0.0053664172
0.0052671706
0.003209138
0.003304449
0.0033920776
0.0034705933
0.0035464289
0.0036300887
0.0037334422
0.0038659445
0.0040320886
0.004230756
0.0044562397
0.0047001292
0.004953193
0.0052067642
0.0054535169
0.0056877533
0.0059053794
0.006103719
0.0062812647
0.0064374249
0.0065722935
0.0066864554
0.0067808241
0.0068565164
0.0069147627
0.006956857
0.0069840597
0.0069978736
0.0069990776
0.0069888359
0.0069685082
0.0069387194
0.0069003877
0.0068544019
0.0068015049
0.0067423675
0.0066776029
0.0066077726
0.006533386
0.0064549031
0.0063727412
0.0062872813
0.0061988717
0.0061078317
0.0060144545
0.0059190104
0.0058217492
0.0057229032
0.0056226892
0.0055213101
0.0054189576
0.0053158013
0.0032132755
0.0033179944
0.0034145379
0.0035020702
0.0035892734
0.0036893713
0.0038160353
0.003978656
0.0041797829
0.0044152613
0.0046762766
0.0049519674
0.0052315806
0.0055057905
0.005767257
0.0060106836
0.0062326055
0.0064310694
0.0066052981
0.006755387
0.0068820474
0.0069864025
0.0070698202
0.0071337907
0.0071798391
0.0072095045
0.0072245092
0.0072258474
0.0072148417
0.0071930144
0.0071611271
0.0071202616
0.007071358
0.0070152469
0.0069526754
0.0068843154
0.0068107745
0.0067326029
0.0066502968
0.0065643022
0.0064750221
0.0063828222
0.0062880349
0.0061909635
0.0060918855
0.0059910557
0.0058887093
0.0057850643
0.0056803249
0.0055746817
0.0054683124
0.0053613745
0.0032178563
0.0033330158
0.003439365
0.0035371966
0.0036382017
0.0037588293
0.0039143399
0.0041131476
0.0043546979
0.0046309154
0.0049295108
0.0052372547
0.005542209
0.0058347994
0.0061080561
0.006357401
0.0065802388
0.0067755106
0.0069432828
0.0070844076
0.00720025
0.007292486
0.0073629352
0.007413442
0.0074457926
0.0074620373
0.0074634239
0.0074514745
0.007427873
0.0073935561
0.0073497859
0.0072975829
0.0072378669
0.0071714655
0.0070991183
0.0070214864
0.0069391623
0.0068526778
0.0067625094
0.0066690838
0.0065727846
0.0064739579
0.0063729169
0.0062699461
0.006165305
0.006059231
0.0059519427
0.0058436427
0.0057345223
0.0056247579
0.0055145071
0.0054039256
0.003222937
0.0033496933
0.0034668571
0.0035766473
0.0036947011
0.0038411349
0.004032216
0.0042740303
0.0045615356
0.0048819209
0.0052192821
0.0055583367
0.0058864572
0.0061943177
0.0064757392
0.006727184
0.006947157
0.007135646
0.0072936538
0.0074228379
0.0075252345
0.0076030706
0.007658595
0.0076939728
0.0077114864
0.0077128268
0.0076996874
0.0076740094
0.0076368738
0.0075897696
0.0075338166
0.0074700417
0.0073993578
0.0073225773
0.0072404214
0.0071535294
0.0070624701
0.0069677502
0.0068698208
0.0067690837
0.0066658986
0.0065605886
0.0064534446
0.0063447301
0.0062346841
0.0061235253
0.0060114542
0.0058986572
0.0057853125
0.0032285852
0.0033682475
0.0034974031
0.0036213657
0.0037608226
0.0039398051
0.0041744487
0.0044666621
0.0048054165
0.0051725656
0.0055487634
0.0059172362
0.0062653036
0.00658445
0.0068697238
0.0071189414
0.0073319171
0.0075098135
0.0076546354
0.0077688707
0.0078552223
0.0079164468
0.007955177
0.0079741126
0.007975174
0.0079607211
0.0079324537
0.007892108
0.0078411474
0.0077809193
0.0077125536
0.0076370633
0.0075553382
0.0074681636
0.0073762314
0.0072801495
0.0071804553
0.0070776238
0.0069720751
0.0068641816
0.0067542751
0.0066426526
0.0065295803
0.0064152983
0.006300024
0.0061839556
0.0060672743
0.0059501503
0.0058327425
0.0032348842
0.0033889582
0.0035315318
0.0036726958
0.003839399
0.0040594252
0.0043468691
0.0046971349
0.0050917794
0.0055070999
0.005920854
0.0063155715
0.0066792699
0.0070048439
0.0072890029
0.0075312087
0.0077327643
0.0078961018
0.0080242631
0.0081205643
0.0081883456
0.0082308513
0.0082512773
0.0082520191
0.0082357648
0.0082045501
0.0081603964
0.0081050252
0.0080398909
0.0079663118
0.0078854015
0.007798141
0.007705381
0.0076078677
0.0075062543
0.0074011081
0.0072929278
0.0071821509
0.0070691618
0.006954299
0.0068378636
0.0067201237
0.0066013188
0.0064816638
0.0063613532
0.0062405633
0.0061194558
0.0059981839
0.0058768872
0.0032419384
0.0034121949
0.0035699898
0.0037325756
0.0039343304
0.0042058952
0.004556444
0.0049722152
0.0054262566
0.0058896123
0.0063380771
0.0067544812
0.0071283705
0.0074546613
0.0077321347
0.0079621525
0.0081476459
0.0082923726
0.008400409
0.0084758657
0.0085226668
0.0085447174
0.0085449188
0.0085264895
0.0084917785
0.0084431811
0.0083826632
0.0083119127
0.008232377
0.0081453284
0.0080518374
0.0079528381
0.0078491252
0.0077413953
0.0076302548
0.0075162208
0.0073997476
0.0072812303
0.007161013
0.007039397
0.0069166497
0.0067930086
0.0066686846
0.0065438666
0.0064187244
0.0062934126
0.0061680719
0.006042838
0.0059178326
0.0032498824
0.0034384629
0.0036138624
0.0038038155
0.0040509442
0.0043866821
0.0048113214
0.0052992476
0.0058145372
0.0063239072
0.0068024841
0.0072345548
0.0076120668
0.0079325539
0.0081972365
0.0084095794
0.0085742315
0.0086962865
0.0087808091
0.0088326328
0.0088564068
0.0088559409
0.0088347588
0.008795923
0.0087421049
0.0086755977
0.0085983501
0.0085120008
0.0084179582
0.0083174278
0.0082114116
0.0081007884
0.0079862759
0.0078685134
0.0077480542
0.0076253557
0.0075008231
0.0073748047
0.007247601
0.0071194729
0.0069906519
0.0068613438
0.0067317295
0.0066019708
0.0064722126
0.0063425867
0.006213213
0.0060842089
0.0059556789
0.0032588918
0.0034684755
0.0036647609
0.0038904918
0.0041964348
0.0046110574
0.0051208228
0.0056860324
0.0062622341
0.0068133882
0.0073155611
0.0077557626
0.0081292232
0.0084366446
0.0086819863
0.0088709524
0.0090099393
0.0091053329
0.0091630929
0.0091888658
0.0091873816
0.0091628974
0.0091190909
0.0090591193
0.0089856164
0.0089008315
0.0088066401
0.0087046039
0.0085960694
0.0084821499
0.0083637468
0.0082416964
0.0081166028
0.0079890481
0.0078595291
0.0077284308
0.0075961078
0.0074628579
0.0073289352
0.0071945573
0.0070599186
0.0069251926
0.0067905292
0.0066560622
0.0065219118
0.0063881863
0.006254985
0.0061224067
0.005990539
0.0032691981
0.0035032665
0.0037251124
0.0039984927
0.0043803701
0.0048902979
0.0054954064
0.0061407153
0.006774772
0.0073609567
0.0078781358
0.0083173796
0.0086780633
0.0089645126
0.0091836315
0.0093434143
0.0094519649
0.0095168589
0.009544985
0.0095421645
0.0095136395
0.0094638887
0.0093965753
0.0093148405
0.009221271
0.0091180191
0.0090068067
0.0088891236
0.0087662297
0.0086391053
0.0085085658
0.0083753239
0.0082399349
0.0081028817
0.0079646082
0.0078254104
0.0076855972
0.0075454114
0.0074050588