/*--------------------------------*- C++ -*----------------------------------*\
| =========                 |                                                 |
| \\      /  F ield         | OpenFOAM: The Open Source CFD Toolbox           |
|  \\    /   O peration     | Version:  2312                                  |
|   \\  /    A nd           | Website:  www.openfoam.com                      |
|    \\/     M anipulation  |                                                 |
\*---------------------------------------------------------------------------*/
FoamFile
{
    version     2.0;
    format      ascii;
    arch        "LSB;label=32;scalar=64";
    class       volScalarField;
    location    "0.02";
    object      nut;
}
// * * * * * * * * * * * * * * * * * * * * * * * * * * * * * * * * * * * * * //

dimensions      [0 2 -1 0 0 0 0];

internalField   nonuniform List<scalar> 
3221
(
0.024427623
0.024395831
0.024374371
0.024363187
0.024362093
0.024370817
0.024389031
0.024416355
0.024452368
0.024496616
0.024548618
0.024607878
0.02467389
0.024746149
0.024824154
0.02490742
0.024995479
0.025087887
0.025183796
0.025283675
0.025386712
0.025492553
0.025600861
0.025711315
0.025823598
0.0259374
0.02605241
0.026168311
0.026284778
0.026401475
0.026518054
0.026634156
0.026749405
0.026863417
0.026975795
0.027086138
0.027194037
0.027299086
0.027400881
0.027499025
0.027593138
0.027682856
0.027767793
0.027847588
0.027921852
0.027990335
0.028052784
0.028108942
0.028158582
0.028201465
0.02823768
0.028266744
0.024427604
0.024396095
0.024374993
0.024364173
0.024363428
0.024372479
0.024390992
0.024418585
0.024454833
0.02449928
0.024551446
0.024610834
0.02467694
0.024749262
0.024827304
0.024910586
0.024998649
0.025090975
0.02518696
0.025286857
0.025389935
0.02549585
0.025604277
0.025714902
0.025827418
0.025941521
0.026056905
0.026173257
0.026290254
0.026407562
0.026524832
0.026641701
0.026757792
0.026872715
0.026986069
0.027097445
0.027206428
0.027312604
0.027415559
0.027514891
0.027610209
0.027701142
0.027787293
0.027868292
0.027943747
0.028013403
0.028076999
0.028134268
0.02818498
0.02822889
0.028266078
0.028296078
0.024427826
0.024396888
0.024376389
0.024366171
0.024366004
0.024375596
0.024394603
0.024422633
0.024459256
0.024504013
0.024556422
0.024615987
0.02468221
0.024754595
0.024832658
0.024915931
0.025003972
0.025096124
0.025192254
0.025292189
0.025395363
0.025501454
0.025610154
0.025721164
0.025834192
0.025948945
0.026065125
0.026182425
0.026300523
0.026419085
0.026537757
0.026656172
0.026773942
0.026890666
0.027005932
0.027119317
0.02723039
0.02733872
0.02744388
0.02754545
0.027643022
0.027736208
0.027824593
0.027907795
0.027985414
0.028057181
0.02812282
0.028182052
0.028234636
0.028280324
0.028319173
0.028350743
0.02442824
0.024398199
0.024378593
0.02436924
0.024369892
0.024380244
0.024399937
0.02442857
0.024465707
0.024510885
0.024563621
0.024623424
0.024689803
0.024762275
0.024840371
0.024923645
0.025011672
0.025103667
0.02520005
0.025300114
0.025403522
0.025509978
0.025619196
0.025730901
0.025844817
0.025960664
0.026078153
0.026196981
0.026316826
0.026437348
0.026558186
0.026678958
0.026799262
0.026918679
0.027036776
0.027153107
0.027267221
0.027378663
0.027486979
0.027591727
0.027692475
0.027788813
0.027880302
0.027966542
0.028047126
0.028121762
0.028190157
0.028252015
0.028307083
0.02835511
0.028396131
0.028429724
0.024428827
0.024399999
0.024381562
0.024373318
0.024375005
0.024386304
0.024406844
0.024436217
0.02447398
0.024519667
0.024572799
0.024632893
0.024699472
0.024772071
0.024850247
0.024933584
0.025021463
0.025113761
0.025210374
0.025310766
0.025414657
0.025521783
0.02563189
0.025744725
0.025860031
0.025977541
0.026096972
0.026218019
0.026340357
0.026463633
0.026587468
0.026711462
0.026835187
0.0269582
0.027080037
0.027200224
0.027318278
0.027433713
0.027546046
0.027654803
0.027759522
0.027859768
0.027955075
0.028045023
0.028129197
0.028207275
0.028278947
0.028343899
0.028401867
0.028452598
0.028496113
0.028531984
0.024429572
0.024402247
0.024385235
0.024378323
0.024381236
0.024393643
0.024415165
0.024445388
0.024483865
0.024530133
0.024583722
0.024644162
0.024710996
0.024783787
0.024862124
0.024945564
0.025033515
0.025126346
0.025223403
0.025324422
0.025429162
0.025537394
0.025648894
0.025763432
0.025880767
0.02600064
0.026122768
0.026246839
0.026372511
0.026499413
0.02662714
0.02675526
0.026883313
0.02701082
0.027137281
0.027262185
0.027385011
0.027505236
0.02762234
0.027735813
0.027845161
0.027949921
0.0280496
0.028143759
0.028231971
0.028313883
0.028389165
0.028457492
0.028518592
0.028572208
0.028618363
0.028656587
0.024430458
0.024404903
0.024389547
0.024384163
0.024388466
0.024402117
0.024424731
0.024455891
0.024495156
0.024542069
0.024596176
0.024657028
0.024724199
0.024797286
0.024875921
0.024959424
0.025048106
0.025141548
0.025239413
0.02534149
0.025447581
0.025557495
0.025671034
0.025787988
0.025908125
0.026031186
0.026156878
0.026284873
0.026414802
0.026546262
0.026678811
0.026811977
0.026945258
0.027078128
0.027210045
0.027340452
0.027468787
0.027594486
0.027716987
0.027835743
0.027950228
0.028059946
0.028164386
0.028263086
0.028355607
0.028441562
0.028520604
0.028592408
0.028656695
0.028713207
0.028761983
0.028802467
0.024431471
0.024407927
0.024394433
0.024390748
0.024396577
0.024411576
0.024435368
0.024467539
0.024507656
0.024555279
0.024609976
0.024671333
0.02473896
0.024812504
0.024891406
0.024975659
0.025065227
0.025159679
0.025258835
0.025362534
0.025470619
0.025582932
0.025699296
0.025819513
0.02594335
0.026070535
0.026200754
0.026333647
0.026468807
0.026605787
0.026744097
0.026883212
0.027022578
0.027161617
0.027299735
0.027436327
0.027570786
0.027702502
0.027830877
0.027955325
0.028075289
0.028190241
0.028299657
0.028403045
0.028499964
0.02859
0.028672785
0.028748007
0.028815372
0.028874627
0.028925852
0.028968351
0.024432599
0.02441128
0.02439983
0.024397993
0.024405466
0.024421905
0.024446936
0.024480163
0.024521185
0.024569593
0.024624978
0.024686969
0.024755229
0.02482931
0.024908931
0.024994394
0.025085195
0.025181191
0.025282259
0.025388286
0.025499152
0.025614723
0.025734834
0.025859284
0.025987826
0.026120161
0.026255937
0.026394749
0.026536137
0.026679594
0.026824573
0.026970485
0.027116717
0.027262632
0.027407581
0.027550908
0.027691957
0.027830076
0.027964629
0.028094999
0.028220614
0.028340894
0.028455319
0.028563352
0.028664575
0.028758568
0.028844939
0.028923377
0.028993558
0.02905526
0.029108608
0.029152754
0.024433827
0.024414924
0.024405673
0.024405808
0.024415024
0.02443298
0.024459315
0.024493656
0.024535633
0.024584886
0.024641086
0.024703896
0.024772993
0.024847785
0.024928937
0.025015874
0.02510849
0.025206707
0.025310456
0.025419666
0.025534244
0.025654068
0.02577897
0.025908731
0.02604307
0.026181643
0.026324045
0.026469805
0.0266184
0.026769251
0.026921738
0.027075207
0.027228975
0.027382345
0.027534611
0.027685065
0.027833006
0.027977743
0.028118603
0.028254947
0.028386181
0.0285117
0.028630968
0.028743458
0.028848735
0.028946375
0.029036001
0.029117277
0.029189887
0.029253702
0.029308632
0.029354022
0.024435144
0.024418821
0.024411901
0.024414111
0.024425148
0.024444686
0.024472388
0.024507914
0.024550938
0.02460116
0.024658313
0.024722173
0.024792109
0.024868692
0.024951576
0.025040613
0.025135772
0.025237039
0.025344391
0.025457786
0.025577148
0.025702347
0.025833192
0.025969425
0.026110711
0.026256642
0.026406739
0.026560454
0.02671718
0.026876259
0.027036991
0.027198648
0.027360479
0.027521723
0.027681621
0.027839416
0.027994368
0.028145749
0.02829286
0.028435039
0.028571677
0.028702162
0.028825955
0.028942554
0.029051485
0.029152278
0.029244682
0.029328309
0.02940285
0.0294683
0.029524247
0.029570366
0.024436536
0.024422935
0.024418454
0.02442282
0.024435745
0.024456925
0.024486059
0.024522859
0.024567059
0.024618431
0.024676791
0.024741666
0.024813469
0.024892126
0.024977398
0.025069309
0.025167898
0.025273202
0.025385233
0.025503965
0.025629312
0.025761117
0.025899142
0.026043064
0.026192474
0.026346878
0.026505704
0.026668311
0.026833999
0.027002022
0.027171595
0.027341914
0.02751216
0.027681515
0.027849168
0.028014322
0.028176203
0.028334059
0.028487171
0.028634867
0.028776523
0.028911539
0.029039384
0.029159592
0.029271656
0.029374949
0.029469551
0.029554947
0.029630833
0.029697326
0.029753665
0.029799927
0.02443799
0.024427229
0.024425273
0.024431862
0.02444673
0.024469613
0.024500264
0.024538458
0.024584011
0.024636785
0.024696434
0.024763178
0.024837322
0.024918646
0.025007127
0.025102855
0.025205928
0.025316421
0.025434364
0.025559719
0.025692367
0.025832095
0.025978591
0.026131444
0.026290143
0.026454089
0.026622601
0.026794933
0.026970283
0.027147811
0.027326649
0.027505918
0.027684737
0.027862236
0.028037562
0.028209889
0.028378418
0.028542382
0.028701058
0.028853784
0.028999909
0.029138864
0.029270112
0.029393215
0.029507708
0.029613095
0.029709175
0.029795596
0.029872219
0.029938932
0.029995063
0.030040829
0.024439494
0.024431668
0.024432306
0.02444117
0.024458035
0.024482693
0.024514969
0.024554727
0.024601879
0.024656213
0.024717766
0.024787173
0.024864192
0.024948976
0.02504168
0.02514235
0.025251136
0.025368136
0.025493366
0.025626752
0.025768109
0.025917136
0.026073418
0.026236427
0.026405528
0.026579998
0.026759035
0.026941778
0.027127321
0.02731473
0.027503057
0.027691356
0.027878693
0.028064157
0.028246867
0.028425978
0.028600681
0.028770209
0.028933843
0.029090935
0.029240837
0.029382997
0.029516919
0.029642171
0.029758328
0.029864968
0.029961787
0.030048519
0.03012523
0.030191309
0.03024661
0.030291213
0.024441036
0.024436219
0.024439502
0.024450686
0.024469607
0.024496134
0.024530186
0.02457174
0.024620724
0.024676976
0.024741501
0.024814038
0.024894833
0.02498414
0.025082207
0.025189112
0.025305014
0.025429991
0.025564017
0.02570694
0.025858475
0.026018199
0.026185562
0.026359892
0.026540412
0.026726259
0.026916501
0.02711016
0.027306226
0.027503678
0.027701498
0.027898684
0.028094263
0.028287297
0.028476892
0.0286622
0.028842418
0.029016793
0.029184627
0.02934528
0.029498134
0.029642659
0.029778406
0.029904964
0.030021932
0.030128955
0.030225708
0.030312061
0.030387984
0.030452716
0.030506492
0.030549256
0.024442601
0.024440849
0.024446815
0.024460365
0.024481414
0.024509936
0.02454597
0.024589622
0.024640538
0.024700021
0.024767909
0.024844503
0.024930165
0.025025237
0.025130011
0.025244665
0.025369258
0.025503829
0.025648265
0.0258023
0.025965505
0.026137304
0.026316977
0.026503689
0.026696504
0.026894408
0.02709634
0.027301204
0.027507897
0.027715321
0.027922403
0.028128102
0.028331422
0.028531417
0.028727196
0.028917926
0.029102827
0.029281177
0.029452319
0.029615607
0.029770481
0.029916446
0.030053085
0.030180014
0.030296889
0.030403397
0.030499259
0.030584553
0.030658649
0.030721428
0.030772963
0.030813211
0.024444177
0.024445528
0.02445421
0.024470175
0.024493452
0.024524146
0.024562448
0.024608178
0.024662434
0.024725512
0.024797698
0.024879477
0.024971313
0.025073616
0.025186702
0.025310759
0.025445766
0.025591661
0.025748199
0.025914947
0.026091297
0.026276477
0.02646958
0.026669583
0.026875381
0.027085812
0.027299685
0.027515802
0.027732977
0.027950056
0.028165928
0.028379535
0.028589878
0.028796023
0.028997101
0.029192311
0.029380915
0.029562236
0.02973565
0.029900546
0.030056411
0.030202819
0.030339369
0.030465707
0.030581557
0.030686646
0.030780892
0.03086409
0.03093564
0.030995742
0.031044338
0.031081413
0.024445752
0.024450228
0.024461655
0.024480102
0.024505744
0.024538853
0.024579438
0.024628431
0.024686542
0.024754104
0.024831739
0.024920055
0.025019602
0.025130825
0.025254026
0.025389325
0.025536602
0.025695641
0.025866006
0.026047053
0.026237948
0.0264377
0.026645185
0.026859188
0.027078432
0.027301612
0.027527421
0.027754574
0.027981828
0.028207993
0.028431945
0.02865263
0.028869072
0.029080368
0.029285692
0.029484293
0.029675487
0.029858665
0.030033217
0.030198607
0.030354374
0.030500161
0.030635618
0.030760405
0.030874301
0.03097709
0.031068942
0.031148972
0.031217349
0.031274047
0.031319026
0.031352294
0.024447312
0.024454927
0.024469131
0.024490154
0.024518349
0.024553928
0.02459765
0.024650681
0.024713404
0.024786608
0.024871075
0.024967523
0.025076557
0.025198611
0.025333914
0.025482454
0.025643966
0.025818017
0.026003923
0.026200782
0.0264075
0.026622837
0.026845446
0.027073914
0.027306802
0.027542676
0.027780137
0.028017838
0.028254502
0.028488934
0.028720024
0.028946749
0.029168177
0.029383461
0.029591836
0.029792618
0.029985193
0.030169006
0.030343502
0.03050822
0.030662782
0.030806853
0.03094018
0.031062443
0.03117345
0.031273291
0.031361473
0.031437745
0.031502209
0.031554809
0.031595528
0.031624391
0.024448847
0.024459604
0.024476631
0.024500366
0.024531202
0.024569728
0.02461761
0.024675291
0.024743759
0.024823998
0.024916935
0.025023367
0.025143905
0.025278914
0.02542848
0.025592383
0.025770156
0.025961082
0.026164177
0.026378232
0.026601866
0.026833577
0.027071789
0.027314905
0.027561341
0.02780956
0.028058098
0.028305579
0.028550727
0.02879237
0.02902944
0.029260976
0.029486113
0.02970408
0.029914192
0.030115845
0.030308515
0.030491682
0.030664891
0.03082777
0.030980012
0.031121233
0.0312514
0.031370173
0.031477546
0.031573344
0.031657069
0.031728888
0.031788738
0.03183659
0.031872446
0.031896351
0.024450346
0.024464247
0.024484159
0.024510753
0.024544289
0.02458701
0.024639492
0.02470291
0.024778496
0.024867426
0.02497074
0.025089269
0.025223565
0.025373849
0.025539978
0.025721445
0.025917515
0.02612712
0.026348919
0.026581365
0.026822769
0.027071363
0.027325357
0.027582989
0.027842561
0.028102467
0.028361216
0.02861744
0.028869898
0.029117475
0.029359178
0.029594132
0.029821563
0.030040797
0.030251244
0.030452397
0.030643804
0.030825016
0.030995686
0.031155576
0.031304426
0.031441626
0.031567641
0.03168206
0.031784959
0.031875618
0.031954307
0.032020962
0.032075544
0.032118046
0.032148487
0.032166926
0.024451801
0.024468857
0.024491754
0.024520991
0.024558568
0.024605769
0.024663847
0.024734319
0.024818662
0.024918217
0.025034096
0.025167097
0.025317629
0.025485672
0.025670766
0.025872022
0.026088374
0.026318331
0.026560155
0.026811933
0.027071665
0.027337331
0.027606951
0.027878631
0.0281506
0.028421228
0.028689038
0.028952711
0.029211079
0.02946312
0.029707946
0.029944789
0.030172993
0.030391995
0.030601316
0.030800557
0.030989321
0.031167267
0.031334154
0.031489836
0.031634098
0.031766585
0.031887404
0.031996753
0.032093821
0.032178834
0.032251777
0.032312614
0.03236133
0.032397934
0.03242246
0.032434984
0.024453211
0.024473443
0.02449909
0.024531963
0.024573927
0.024626439
0.024691333
0.024770439
0.024865464
0.024977877
0.025108795
0.025258892
0.025428331
0.025616742
0.025823242
0.02604648
0.026284977
0.026536765
0.026799671
0.027071412
0.027349689
0.027632257
0.027916985
0.028201899
0.028485202
0.028765287
0.029040742
0.029310338
0.02957302
0.029827892
0.030074197
0.030311303
0.030538685
0.030755909
0.030962618
0.031158505
0.031343256
0.031516657
0.031678584
0.031828939
0.031967556
0.032094251
0.03220932
0.0323122
0.032402943
0.032481604
0.032548155
0.032602583
0.032644894
0.032675112
0.032693285
0.032699496
0.024454592
0.024477778
0.024506684
0.02454374
0.024590622
0.024649537
0.024722725
0.024812333
0.024920274
0.025048084
0.025196795
0.025366842
0.025558016
0.02576947
0.025999784
0.026247097
0.026509415
0.026784243
0.027068962
0.027360932
0.027657586
0.027956503
0.028255455
0.028552441
0.028845698
0.029133699
0.029415142
0.029688935
0.029954173
0.030210115
0.030456163
0.030691839
0.030916761
0.031130638
0.031333253
0.031524357
0.031703768
0.031871401
0.032027223
0.032171175
0.032303153
0.032423356
0.032531366
0.032627202
0.032710961
0.032782631
0.032842209
0.032889703
0.032925134
0.032948541
0.03295998
0.032959542
0.024455882
0.024482014
0.024514864
0.024556342
0.024609048
0.024675686
0.024758921
0.024861211
0.024984625
0.02513068
0.025300203
0.02549325
0.025709093
0.025946262
0.026202648
0.026475999
0.026763545
0.02706228
0.027369158
0.027681216
0.027995672
0.028309988
0.028621909
0.028929474
0.029231015
0.029525141
0.029810712
0.030086813
0.030352724
0.030607887
0.030851885
0.031084409
0.03130523
0.031514194
0.031711245
0.03189619
0.032068996
0.032229701
0.03237833
0.032514865
0.032639536
0.032752
0.032852254
0.032940447
0.033016593
0.033080705
0.033132801
0.033172904
0.033201049
0.033217284
0.03322167
0.033214304
0.024456948
0.024486699
0.024523439
0.024570029
0.024629668
0.024705605
0.024800946
0.024918428
0.025060204
0.025227652
0.025421243
0.025640488
0.025883976
0.026149484
0.026434144
0.026735112
0.027048918
0.027372018
0.027700966
0.028032532
0.02836379
0.028692164
0.029015445
0.029331788
0.029639684
0.029937935
0.03022561
0.030502009
0.030766626
0.031019112
0.031259248
0.031486911
0.031702037
0.031904507
0.032094584
0.032272078
0.032437104
0.032589788
0.0327302
0.032858632
0.032974825
0.033078795
0.033170728
0.033250666
0.03331865
0.033374713
0.033418889
0.033451216
0.033471736
0.033480501
0.033477578
0.033463063
0.024458055
0.024491426
0.024532548
0.024585118
0.024653026
0.024740122
0.024849951
0.024985482
0.025148839
0.025341106
0.025562215
0.025810938
0.026085005
0.026381298
0.026696157
0.027026005
0.027366684
0.027714148
0.028064608
0.028414649
0.02876129
0.029102003
0.029434713
0.029757762
0.030069868
0.030370079
0.030657715
0.030932326
0.031193643
0.031441543
0.031676015
0.031897144
0.03210511
0.032299471
0.032481258
0.032650118
0.032806278
0.032949926
0.033081435
0.033200613
0.033307566
0.033402511
0.033485527
0.033556682
0.033616035
0.033663636
0.033699532
0.033723767
0.033736389
0.033737453
0.033727022
0.033705194
0.024459148
0.024496296
0.024542391
0.024601983
0.024679744
0.024780164
0.024907211
0.025063996
0.025252472
0.025473231
0.025725443
0.026006928
0.026314367
0.02664358
0.026990266
0.02734984
0.02771753
0.028088857
0.028459788
0.028826821
0.029187021
0.029538011
0.029877932
0.030205391
0.030519395
0.030819284
0.031104669
0.031375375
0.031631391
0.031872827
0.032099881
0.032312817
0.032511951
0.032697291
0.032869398
0.033028478
0.03317476
0.033308697
0.033430144
0.033539332
0.033636541
0.03372189
0.033795484
0.033857413
0.033907749
0.033946555
0.033973883
0.033989782
0.033994301
0.033987491
0.033969415
0.033940164
0.024460217
0.024501427
0.024553206
0.024621061
0.024710528
0.024826762
0.024974113
0.02515571
0.025373134
0.02562625
0.025913211
0.026230657
0.026574048
0.026938067
0.027317685
0.027707309
0.028101613
0.028495786
0.02888566
0.02926777
0.02963934
0.029998241
0.030342923
0.030672327
0.030985803
0.031283027
0.03156393
0.031828631
0.032077387
0.032310549
0.032528532
0.032731777
0.0329207
0.033095625
0.033257049
0.033405362
0.033541112
0.033664153
0.033774854
0.033873571
0.033960492
0.034035771
0.034099532
0.034151879
0.034192896
0.034222649
0.034241196
0.034248582
0.034244855
0.034230061
0.034204257
0.034167524
0.024461282
0.024506945
0.024565268
0.024642844
0.024746157
0.024881041
0.025052145
0.025262443
0.0255129
0.02580236
0.026127682
0.026484089
0.026865669
0.027266025
0.027679122
0.02809855
0.028518513
0.028933991
0.02934082
0.029735698
0.030116129
0.030480335
0.030827154
0.031155926
0.031466392
0.031758598
0.032032815
0.03228947
0.032529091
0.032752268
0.032959638
0.033151778
0.033329248
0.0334926
0.033642382
0.033779328
0.033903309
0.034014841
0.034114337
0.034202072
0.034278266
0.034343097
0.034396705
0.034439202
0.034470676
0.034491197
0.034500817
0.03449958
0.034487525
0.034464693
0.03443113
0.034386908
0.024462376
0.024512994
0.024578885
0.024667877
0.024787483
0.024944208
0.025142874
0.025386067
0.025673829
0.026003655
0.026370807
0.026768859
0.027190328
0.027628099
0.028074682
0.028523084
0.028967194
0.029401939
0.029823312
0.030228311
0.030614838
0.030981564
0.031327788
0.031653303
0.03195828
0.032243158
0.03250856
0.032755226
0.032983953
0.033195566
0.03339089
0.033570651
0.033735585
0.033886388
0.03402397
0.034148255
0.03425995
0.034359527
0.03444734
0.03452369
0.034588819
0.034642921
0.034686144
0.034718605
0.034740393
0.034751571
0.034752187
0.034742278
0.034721873
0.034691001
0.034649697
0.034598021
0.024463541
0.024519736
0.024594399
0.024696751
0.024835421
0.025017537
0.025247915
0.025528452
0.025857898
0.026232033
0.026644221
0.027086203
0.027549038
0.028024422
0.028503834
0.028979775
0.029445984
0.029897507
0.03033065
0.030742855
0.031132533
0.031498887
0.031841744
0.032161393
0.03245846
0.032733791
0.032988366
0.033223233
0.033439452
0.033638069
0.03382006
0.033986345
0.034137809
0.034275566
0.034399589
0.034510806
0.034609784
0.034696965
0.03477273
0.034837397
0.034891221
0.034934404
0.034967097
0.034989417
0.035001446
0.03500324
0.034994839
0.034976266
0.03494754
0.034908676
0.034859695
0.034800643
0.02446483
0.024527356
0.024612179
0.024730101
0.024890934
0.025102346
0.025368891
0.025691401
0.026066905
0.026489079
0.026949098
0.027436665
0.027941742
0.028454374
0.028965328
0.029466801
0.029952577
0.030418005
0.030859866
0.031276175
0.031665954
0.032029016
0.032365763
0.032677014
0.032963861
0.033227563
0.033469453
0.033690874
0.033893141
0.034077476
0.034245043
0.034396936
0.034534502
0.034657799
0.034767969
0.034865707
0.034951571
0.035026034
0.035089496
0.035142282
0.035184655
0.035216817
0.035238916
0.035251063
0.03525333
0.035245764
0.035228388
0.035201214
0.035164245
0.035117482
0.035060929
0.034994616
0.024466305
0.024536054
0.024632622
0.024768594
0.024955023
0.025199965
0.025507376
0.025876559
0.02630235
0.02677593
0.027286055
0.027820471
0.02836775
0.028916569
0.029457166
0.02998165
0.030484056
0.030960223
0.031407559
0.031824773
0.032211587
0.032568483
0.032896475
0.033196926
0.033471405
0.033721572
0.033949102
0.034155624
0.034342655
0.034511625
0.034663877
0.034801015
0.034923235
0.035031883
0.035127814
0.035211724
0.035284203
0.035345741
0.035396748
0.035437555
0.035468419
0.035489539
0.035501056
0.035503068
0.035495634
0.035478787
0.035452534
0.03541687
0.03537178
0.03531725
0.035253267
0.035179842
0.02446804
0.024546049
0.024656142
0.024812919
0.025028695
0.02531169
0.025664813
0.0260853
0.026565288
0.027093103
0.027654868
0.028236791
0.028825503
0.029408792
0.029976587
0.030521135
0.031036934
0.031520486
0.031969969
0.032384889
0.032765739
0.033113714
0.033430464
0.033717902
0.033978061
0.034212996
0.034424705
0.034615053
0.034785783
0.034938523
0.035075158
0.03519609
0.035302855
0.035396509
0.035477904
0.035547767
0.035606705
0.035655219
0.035693721
0.035722538
0.03574192
0.035752053
0.035753068
0.035745047
0.035728032
0.035702037
0.035667052
0.035623052
0.035570004
0.035507874
0.035436636
0.035356279
0.024470116
0.024557568
0.024683163
0.024863768
0.025112939
0.025438717
0.025842407
0.026318566
0.026856141
0.027440333
0.028054732
0.02868381
0.029312496
0.029927961
0.03052007
0.031081437
0.031607216
0.032094734
0.03254306
0.03295258
0.033324617
0.033661106
0.033964338
0.034236774
0.034480898
0.034699137
0.034893766
0.0350669
0.035220499
0.035356757
0.03547637
0.035581029
0.035672051
0.035750469
0.035817166
0.035872882
0.035918236
0.035953729
0.035979768
0.035996669
0.036004671
0.036003944
0.035994601
0.035976705
0.035950281
0.035915319
0.03587179
0.035819646
0.035758835
0.035689304
0.035611016
0.035523932
0.024472625
0.024570844
0.024714105
0.024921818
0.025208672
0.025582052
0.026040975
0.026576671
0.027174468
0.027816239
0.028483583
0.029158632
0.029825216
0.030470121
0.031083378
0.031658171
0.032190486
0.03267861
0.033122606
0.03352381
0.033884407
0.034207089
0.034494788
0.034750496
0.034977131
0.035177436
0.035353979
0.035509112
0.035645365
0.035763847
0.035866355
0.035954537
0.036029637
0.036092716
0.036144674
0.036186259
0.036218087
0.036240656
0.036254358
0.036259496
0.03625629
0.036244891
0.036225391
0.036197831
0.036162214
0.036118508
0.03606666
0.0360066
0.035938251
0.035861539
0.035776443
0.035682859
0.024475664
0.024586108
0.024749375
0.024987701
0.025316678
0.025742377
0.026260732
0.02685903
0.027518705
0.028218534
0.028937967
0.029657149
0.03035911
0.03103047
0.031661617
0.032246475
0.032782002
0.033267563
0.033704294
0.034094532
0.034441352
0.034748202
0.035018647
0.03525619
0.035464135
0.035645539
0.035803261
0.035940199
0.036058015
0.036158545
0.036243861
0.036315451
0.036374589
0.036422354
0.03645965
0.036487223
0.03650568
0.036515505
0.036517075
0.03651067
0.036496489
0.036474662
0.036445256
0.036408289
0.036363737
0.036311546
0.036251637
0.036183916
0.036108283
0.024479337
0.024603577
0.024789346
0.025061963
0.025437505
0.02591986
0.026501012
0.027163814
0.027885714
0.028643168
0.029412962
0.030173962
0.030908585
0.031603422
0.032249342
0.032841125
0.033376818
0.033856956
0.034283817
0.03466078
0.034991823
0.035281151
0.035532942
0.035751166
0.035939514
0.036101329
0.036240045
0.036358016
0.036457019
0.036539671
0.03660775
0.036662779
0.036706048
0.036738641
0.036761457
0.036775232
0.036780557
0.036777897
0.036767605
0.03674994
0.036725075
0.036693113
0.036654095
0.036608014
0.036554821
0.036494434
0.036426751
0.036351651
0.03626902
0.024483746
0.024623444
0.024834334
0.025145001
0.025571313
0.026113875
0.026759872
0.027487538
0.028270912
0.029084124
0.029901969
0.03070233
0.031467053
0.03218271
0.03284068
0.03343667
0.033969905
0.034442178
0.034856974
0.035218747
0.035532393
0.035802864
0.036034914
0.036232988
0.036401133
0.036543103
0.036662547
0.036760834
0.036841315
0.036906121
0.03695707
0.036995703
0.037023315
0.037040984
0.037049598
0.037049873
0.03704238
0.037027559
0.037005738
0.036977148
0.036941934
0.036900172
0.036851876
0.036797009
0.036735496
0.03666723
0.03659208
0.036509901
0.036420562
0.02448899
0.024645866
0.024884567
0.025236966
0.025717648
0.026322604
0.027033553
0.027824375
0.02866703
0.029533196
0.030396577
0.031234176
0.032027038
0.032761537
0.033429495
0.034027582
0.034556287
0.035018761
0.03541976
0.035764859
0.036059886
0.036310516
0.03652209
0.036699492
0.036847143
0.036969564
0.037068603
0.037147765
0.037209837
0.037256984
0.037291046
0.037313567
0.037325841
0.03732893
0.037323702
0.037310851
0.03729092
0.037264322
0.037231355
0.03719222
0.037147035
0.037095843
0.037038631
0.036975334
0.036905848
0.036830038
0.036747749
0.036658807
0.036563064
0.024495154
0.024670939
0.024940132
0.025337611
0.025875088
0.026542457
0.027315785
0.028166051
0.029063845
0.029979651
0.030886448
0.031760156
0.032580334
0.033332765
0.034009576
0.03460842
0.035131177
0.035582478
0.035968451
0.036295841
0.036571415
0.036801596
0.036992293
0.037148772
0.037276437
0.037378333
0.037457515
0.037517778
0.037561719
0.037591534
0.037609071
0.037615875
0.037613223
0.037602158
0.037583522
0.037557982
0.037526049
0.037488107
0.037444421
0.037395161
0.037340412
0.03728019
0.037214451
0.0371431
0.037066007
0.036983007
0.036893919
0.036798544
0.036696712
0.024502303
0.024698677
0.025000895
0.025446034
0.026040698
0.026767233
0.02759668
0.028499995
0.0294476
0.030409929
0.031359278
0.032269828
0.033118241
0.033889158
0.034574841
0.035173999
0.0356901
0.03612945
0.036499678
0.036808756
0.037064441
0.037273926
0.03744366
0.037579513
0.037687189
0.037768428
0.037828327
0.037870064
0.03789629
0.037909221
0.037910706
0.037902277
0.037885194
0.037860472
0.037828925
0.037791186
0.037747736
0.037698922
0.037644978
0.037586043
0.037522168
0.037453338
0.037379479
0.037300469
0.037216148
0.037126324
0.037030789
0.036929318
0.036821719
0.024510464
0.024728963
0.02506636
0.025560252
0.02620919
0.026986947
0.02786197
0.028808716
0.029800365
0.030807385
0.031800836
0.032751933
0.03363188
0.034423659
0.035119568
0.035719555
0.036229017
0.036656221
0.037010466
0.037301059
0.037536805
0.037725663
0.03787462
0.03799083
0.038077618
0.03813922
0.038180296
0.038204015
0.038213063
0.038209664
0.038195659
0.038172564
0.038141612
0.03810379
0.038059878
0.038010477
0.037956029
0.037896851
0.037833141
0.037765003
0.037692458
0.03761546
0.037533904
0.037447642
0.037356483
0.037260209
0.037158583
0.037051359
0.036938319
0.024519599
0.024761485
0.02513542
0.025676485
0.026371609
0.027185997
0.028099914
0.029087591
0.030120715
0.031169403
0.032203952
0.03319485
0.034112575
0.034929695
0.035638615
0.036240894
0.036744421
0.037159816
0.037498297
0.037770633
0.037986718
0.038155303
0.038284299
0.038380904
0.038447335
0.038490003
0.038512883
0.038519213
0.038511724
0.038492639
0.038463784
0.038426652
0.03838245
0.038332132
0.038276445
0.038215951
0.038151059
0.038082046
0.038009081
0.037932232
0.037851489
0.037766774
0.037677955
0.037584854
0.037487254
0.037384908
0.037277554
0.03716492
0.037046769
0.024529556
0.024795606
0.025205922
0.025787925
0.026513295
0.027361988
0.028313015
0.029339069
0.030410861
0.03149818
0.03257085
0.033598851
0.034552296
0.035401509
0.036127648
0.036734528
0.037233405
0.037637798
0.037961139
0.038215777
0.038412761
0.03856166
0.038672073
0.038748524
0.0387959
0.038820329
0.038825745
0.038815417
0.038792117
0.038758063
0.038715057
0.038664573
0.038607784
0.038545614
0.038478771
0.038407782
0.038333018
0.038254722
0.038173027
0.038087972
0.03799951
0.037907538
0.037811893
0.037712372
0.037608731
0.037500694
0.037387973
0.037270272
0.037147336
0.024539955
0.024830143
0.025273865
0.025882602
0.026636037
0.027518041
0.028504149
0.029565825
0.030673258
0.031796099
0.032903904
0.033966277
0.034953014
0.035834471
0.036583332
0.037197752
0.03769372
0.038088295
0.038397428
0.038635199
0.038813885
0.038944166
0.039036666
0.039093583
0.039122905
0.039129937
0.039118726
0.039092547
0.039054231
0.039005983
0.038949577
0.038886462
0.038817785
0.038744432
0.038667077
0.038586207
0.03850216
0.038415142
0.038325254
0.038232501
0.038136808
0.03803804
0.03793601
0.037830488
0.037721206
0.037607857
0.037490127
0.0373677
0.037240302
0.024549939
0.024862947
0.025331937
0.025961358
0.026743478
0.027657544
0.028676356
0.029770603
0.030910434
0.032065596
0.033205527
0.034299521
0.035317026
0.036228069
0.037003502
0.037628706
0.038123792
0.038509968
0.038806058
0.03902801
0.039189333
0.039302617
0.039377186
0.039416048
0.039428202
0.039418755
0.039391829
0.039350671
0.039298184
0.039236562
0.039167538
0.039092547
0.039012701