/*--------------------------------*- C++ -*----------------------------------*\
| =========                 |                                                 |
| \\      /  F ield         | OpenFOAM: The Open Source CFD Toolbox           |
|  \\    /   O peration     | Version:  2312                                  |
|   \\  /    A nd           | Website:  www.openfoam.com                      |
|    \\/     M anipulation  |                                                 |
\*---------------------------------------------------------------------------*/
FoamFile
{
    version     2.0;
    format      ascii;
    arch        "LSB;label=32;scalar=64";
    class       volScalarField;
    location    "0.02";
    object      omega;
}
// * * * * * * * * * * * * * * * * * * * * * * * * * * * * * * * * * * * * * //

dimensions      [0 0 -1 0 0 0 0];

internalField   nonuniform List<scalar> 
3221
(
446.7804
440.75605
434.99415
429.50284
424.28904
419.35898
414.71821
410.37152
406.32277
402.57474
399.1289
395.98531
393.14249
390.59728
388.34481
386.37846
384.68985
383.26891
382.10392
381.18168
380.48766
380.00611
379.72026
379.61254
379.6648
379.85852
380.17501
380.59559
381.10185
381.67575
382.2998
382.95721
383.63198
384.30899
384.97407
385.61406
386.21684
386.77133
387.26751
387.69645
388.05024
388.32206
388.5055
388.59517
388.58557
388.47363
388.25661
387.93203
387.49806
386.95262
386.29531
385.52593
446.7845
440.77602
435.03385
429.56501
424.37618
419.47359
414.86286
410.54883
406.53543
402.82541
399.42024
396.31993
393.52288
391.0258
388.82365
386.90958
385.27498
383.90947
382.80104
381.93617
381.29997
380.87633
380.64811
380.59739
380.70568
380.95411
381.32367
381.79542
382.35067
382.97115
383.63919
384.33784
385.05096
385.76336
386.4608
387.13011
387.75915
388.33687
388.85332
389.2996
389.66792
389.95152
390.14408
390.24028
390.23484
390.12479
389.90751
389.5806
389.14234
388.59079
387.92564
387.14679
446.79724
440.8196
435.11379
429.68651
424.54433
419.69345
415.13952
410.88741
406.94105
403.30316
399.97514
396.95682
394.24639
391.84029
389.73309
387.91752
386.38446
385.12298
384.12047
383.36276
382.83428
382.51822
382.39677
382.45132
382.66271
383.01146
383.47797
384.04277
384.6867
385.3911
386.13795
386.91003
387.69101
388.46554
389.21935
389.9392
390.61303
391.22984
391.7798
392.25418
392.64533
392.94668
393.15211
393.25653
393.25497
393.14469
392.92326
392.5885
392.13887
391.57272
390.8899
390.09046
446.81754
440.88636
435.23409
429.86754
424.79333
420.01774
415.54646
411.38438
407.53537
404.00206
400.78565
397.88571
395.30005
393.02463
391.05346
389.37858
387.99012
386.8763
386.02361
385.41695
385.03973
384.87414
384.90139
385.1019
385.45558
385.94208
386.54101
387.23219
387.99584
388.81276
389.66453
390.53359
391.40342
392.25852
393.08457
393.86841
394.59805
395.26268
395.85267
396.35954
396.77595
397.09563
397.31275
397.4226
397.42072
397.30463
397.07222
396.7216
396.25155
395.66082
394.94948
394.11781
446.84526
440.97625
435.39479
430.108
425.12274
420.44545
416.08189
412.03696
408.31444
404.91677
401.84482
399.09776
396.67283
394.56529
392.76835
391.27312
390.06865
389.14207
388.47865
388.06198
387.87421
387.89623
388.10796
388.48859
389.01689
389.67142
390.43084
391.27412
392.18076
393.13099
394.10594
395.08774
396.05967
397.00619
397.91302
398.76714
399.55678
400.27143
400.90182
401.43982
401.87852
402.21211
402.43522
402.54365
402.53359
402.40288
402.14983
401.77298
401.27152
400.6447
399.89287
399.0166
446.88045
441.08965
435.59664
430.40897
425.53382
420.97784
416.74691
412.84591
409.27847
406.04672
403.15112
400.59019
398.36042
396.45616
394.8695
393.59033
392.60638
391.90328
391.46477
391.27288
391.30811
391.5498
391.97631
392.56538
393.29441
394.14075
395.08197
396.09612
397.16195
398.2591
399.3683
400.47145
401.55171
402.59362
403.58307
404.50733
405.35503
406.11612
406.78179
407.34446
407.79778
408.13656
408.35609
408.45279
408.4236
408.26676
407.98109
407.56569
407.02032
406.34474
405.53963
404.60589
446.92334
441.22737
435.84112
430.77256
426.02926
421.61808
417.54504
413.81492
410.43114
407.39541
404.70758
402.36536
400.36425
398.69737
397.35545
396.3268
395.59747
395.1513
394.97013
395.03407
395.32172
395.81055
396.47713
397.29756
398.24771
399.3036
400.44165
401.63898
402.87361
404.12468
405.3726
406.59914
407.78756
408.9226
409.99052
410.97907
411.87748
412.67631
413.36743
413.94397
414.40029
414.732
414.93519
415.00706
414.94537
414.74876
414.41666
413.94899
413.3461
412.60832
411.73662
410.73231
446.9743
441.39057
436.1302
431.20166
426.61289
422.37096
418.48183
414.95016
411.77904
408.96966
406.52105
404.4299
402.69041
401.29419
400.23025
399.485
399.04242
398.88415
398.98982
399.33727
399.9029
400.66203
401.58927
402.65886
403.84506
405.12252
406.4665
407.85324
409.26014
410.66596
412.05097
413.39701
414.68761
415.90795
417.04488
418.08687
419.0239
419.84741
420.55015
421.12614
421.57069
421.88028
422.05194
422.08366
421.97417
421.72271
421.3293
420.79483
420.12013
419.30617
418.35435
417.26639
447.03381
441.58075
436.46645
431.69989
427.28935
423.2421
419.56409
416.25967
413.33122
410.7791
408.60154
406.79391
405.34882
404.25602
403.50243
403.07213
402.94662
403.105
403.52425
404.17965
405.04509
406.09353
407.29738
408.62897
410.0609
411.56642
413.11975
414.69637
416.27322
417.8289
419.34374
420.79994
422.18155
423.47445
424.66632
425.74657
426.70621
427.53775
428.23501
428.79316
429.20873
429.47892
429.60207
429.57656
429.4026
429.08038
428.6105
427.99448
427.23329
426.32901
425.28356
424.09915
447.10248
441.79975
436.85302
432.27172
428.06444
424.23858
420.79997
417.75256
415.09805
412.83566
410.96175
409.47042
408.35254
407.59561
407.18398
407.09899
407.31922
407.82078
408.57767
409.56223
410.74559
412.09812
413.58997
415.19147
416.87358
418.60829
420.3689
422.13034
423.86936
425.56465
427.19695
428.74908
430.20592
431.55434
432.78317
433.883
434.84612
435.66628
436.3386
436.85951
437.22681
437.43875
437.49476
437.39451
437.13901
436.72931
436.16709
435.45415
434.59224
433.58403
432.43202
431.13895
447.18099
442.04969
437.29352
432.92229
428.94485
425.36861
422.19916
419.43987
417.0915
415.15194
413.61588
412.47472
411.71705
411.32821
411.2895
411.57903
412.17196
413.041
414.15675
415.48833
417.00386
418.671
420.45755
422.33189
424.26346
426.22316
428.18365
430.11959
432.00786
433.82761
435.56032
437.1898
438.70208
440.08538
441.32992
442.42779
443.37274
444.16001
444.78611
445.24886
445.54742
445.68132
445.65127
445.45835
445.10404
444.58959
443.91921
443.09459
442.11809
440.99289
439.7221
438.30892
447.27013
442.33298
437.79199
433.65734
429.93803
426.64136
423.7725
421.33401
419.32545
417.74303
416.57933
415.82321
415.45968
415.47091
415.83538
416.52737
417.51814
418.77651
420.26935
421.96225
423.82013
425.8079
427.89102
430.03607
432.21119
434.38647
436.53427
438.62939
440.64922
442.57378
444.38571
446.07016
447.61473
449.00925
450.24567
451.31778
452.22106
452.95235
453.50977
453.89267
454.10159
454.13747
454.00238
453.69894
453.22909
452.5923
451.79869
450.84832
449.74402
448.48951
447.08849
445.54461
447.37078
442.65225
438.3529
434.48318
431.05214
428.06684
425.53181
423.44853
421.815
420.62535
419.86959
419.53348
419.59847
420.04188
420.83902
421.95997
423.37163
425.03848
426.92328
428.9879
431.19398
433.50366
435.88024
438.28873
440.69629
443.07263
445.39023
447.6245
449.75382
451.75955
453.62589
455.3398
456.89073
458.27051
459.47303
460.49406
461.33093
461.98229
462.448
462.7292
462.82754
462.74561
462.48636
462.05374
461.45107
460.68078
459.74881
458.65835
457.41344
456.01806
454.47627
452.79203
447.48388
443.01036
438.98104
435.40658
432.29596
429.6558
427.48973
425.79787
424.57622
423.81636
423.50516
423.62463
424.15205
425.06024
426.31812
427.89276
429.74592
431.83727
434.12522
436.56772
439.12314
441.75103
444.41278
447.07221
449.69598
452.2539
454.71912
457.0682
459.28104
461.34082
463.23379
464.94907
466.47838
467.81579
468.95742
469.9012
470.64648
471.19383
471.54494
471.70263
471.66988
471.45074
471.04956
470.47117
469.72017
468.8005
467.71707
466.47462
465.07785
463.53123
461.83918
460.00598
447.61046
443.41035
439.68153
436.43474
433.67875
431.41953
429.65957
428.39718
427.62592
427.33425
427.50518
428.11624
429.13976
430.54318
432.28959
434.34072
436.65315
439.18149
441.87957
444.70144
447.60234
450.5395
453.47284
456.36551
459.18423
461.89955
464.48591
466.92159
469.18861
471.27248
473.16193
474.84864
476.32692
477.59333
478.64647
479.48653
480.11507
480.53468
480.74888
480.76206
480.57861
480.20398
479.64384
478.90399
477.98998
476.90706
475.66006
474.25467
472.69598
470.98895
469.13832
467.14865
447.75159
443.85544
440.45971
437.57515
435.21015
433.36981
432.05511
431.26212
430.98142
431.1976
431.88902
433.02797
434.58097
436.50933
438.77005
441.31734
444.10329
447.07698
450.18751
453.38515
456.62232
459.85439
463.04039
466.14346
469.1311
471.97529
474.65245
477.14324
479.43235
481.50812
483.36222
484.98923
486.38632
487.55279
488.4898
489.2
489.68719
489.95606
490.01213
489.86085
489.50839
488.96132
488.22645
487.31044
486.2201
484.96156
483.54031
481.96221
480.23277
478.35736
476.341
474.18848
447.90838
444.34894
441.32111
438.83555
436.90009
435.51868
434.69041
434.40862
434.66019
435.42499
436.67591
438.37898
440.49398
442.97521
445.77263
448.83319
452.10309
455.52584
459.046
462.61035
466.16897
469.67607
473.09052
476.37624
479.50232
482.44296
485.17729
487.689
489.96602
492.00002
493.78595
495.32164
496.60731
497.64516
498.43906
498.99412
499.31644
499.41282
499.29047
498.95612
498.41748
497.68256
496.75884
495.65376
494.3754
492.93062
491.32557
489.56619
487.65842
485.60788
483.41982
481.09923
448.08202
444.89427
442.27138
440.22378
438.75859
437.8783
437.57967
437.85266
438.67957
440.03472
441.88442
444.18741
446.89563
449.95542
453.30893
456.89577
460.65533
464.52563
468.44695
472.36315
476.22269
479.97943
483.593
487.02904
490.25911
493.26049
496.01572
498.5122
500.74161
502.69935
504.38403
505.79692
506.94148
507.82292
508.44781
508.82376
508.95911
508.86275
508.54307
508.00863
507.26827
506.33138
505.20651
503.90158
502.4253
500.78519
498.98803
497.04015
494.94771
492.71651
490.35197
487.85918
448.27367
445.49487
443.31618
441.74771
440.79567
440.46077
440.73691
441.60986
443.05647
445.04436
447.53209
450.46985
453.80063
457.46184
461.38715
465.50849
469.75805
474.06855
478.37655
482.62372
486.75787
490.73352
494.51212
498.06206
501.35833
504.3821
507.12007
509.56393
511.70957
513.55651
515.10725
516.36666
517.34153
518.04009
518.47164
518.64621
518.5743
518.26653
517.7326
516.98273
516.02727
514.87609
513.5393
512.02506
510.3424
508.49954
506.50364
504.36145
502.07932
499.66318
497.11852
494.45049
448.48454
446.15417
444.4611
443.41506
443.02113
443.27792
444.17575
445.69533
447.80698
450.47033
453.63481
457.2407
461.22084
465.50276
470.01104
474.66972
479.40364
484.14073
488.8146
493.36581
497.74264
501.90148
505.80679
509.43076
512.75278
515.75873
518.44017
520.79356
522.81942
524.52164
525.90675
526.98334
527.76154
528.25255
528.46831
528.42115
528.12369
527.58771
526.82478
525.84657
524.66461
523.28802
521.73029
519.99895
518.10316
516.05156
513.85181
511.51091
509.03537
506.43119
503.7039
500.85866
448.71579
446.87551
445.71155
445.23325
445.44442
446.34103
447.90909
450.12328
452.94602
456.32747
460.20634
464.51155
469.16456
474.08212
479.17923
484.37206
489.5782
494.72165
499.73421
504.55658
509.13889
513.44074
517.43082
521.08625
524.39175
527.33867
529.92399
532.14938
534.02029
535.54512
536.73453
537.6008
538.15735
538.41827
538.39799
538.11104
537.5717
536.79295
535.78821
534.57111
533.15387
531.54161
529.75586
527.80127
525.68712
523.42239
521.01509
518.47242
515.801
513.00685
510.09549
507.07203
448.96857
447.66206
447.07264
447.20929
448.07435
449.66058
451.94892
454.9067
458.48691
462.62849
467.2577
472.29053
477.63584
483.1988
488.88457
494.60168
500.26102
505.78385
511.10159
516.15664
520.90249
525.30339
529.33352
532.97601
536.22176
539.06826
541.51838
543.57931
545.26158
546.57819
547.5439
548.17462
548.4869
548.49758
548.2234
547.68095
546.88553
545.85188
544.5947
543.12879
541.46683
539.61796
537.59706
535.41365
533.07706
530.59612
527.97887
525.23263
522.36403
519.37907
516.28322
513.0815
449.24394
448.51674
448.54902
449.34952
450.91884
453.24606
456.30593
460.05697
464.44092
469.38347
474.79656
480.58163
486.63373
492.84593
499.11354
505.33788
511.42422
517.29271
522.87613
528.12032
532.98378
537.43684
541.46043
545.04468
548.18741
550.89277
553.16987
555.03161
556.49365
557.57354
558.29006
558.66256
558.71057
558.45349
557.91017
557.09873
556.03556
554.73714
553.21963
551.49815
549.58568
547.49367
545.23463
542.81963
540.25828
537.55942
534.73111
531.78066
528.71468
525.5391
522.25927
518.8801
449.54287
449.44213
450.14475
451.65939
453.98478
457.10562
460.98922
465.5835
470.81679
476.59934
482.82664
489.38397
496.15164
503.01033
509.84594
516.55272
523.0326
529.20658
535.01076
540.39626
545.32828
549.78468
553.75426
557.235
560.23228
562.75727
564.82551
566.45566
567.66845
568.48588
568.9305
569.02494
568.79143
568.2517
567.42667
566.33511
564.99513
563.4246
561.64066
559.65857
557.49166
555.15255
552.65348
550.00554
547.21853
544.30134
541.26203
538.10785
534.8453
531.48022
528.01781
524.4628
449.86619
450.44035
451.86309
454.14327
457.27768
461.24578
466.00591
471.49327
477.62028
484.27924
491.34704
498.69122
506.17662
513.67183
521.05498
528.21075
535.04367
541.47712
547.4525
552.92815
557.87762
562.28762
566.15585
569.48882
572.29989
574.60749
576.43362
577.80262
578.74013
579.27236
579.42546
579.22501
578.69562
577.86098
576.74407
575.36395
573.74051
571.89272
569.83816
567.59214
565.16868
562.58096
559.84111
556.9601
553.94781
550.8131
547.56396
544.20752
540.75017
537.19757
533.55475
529.82626
450.21455
451.51294
453.70629
456.80425
460.80145
465.67114
471.36081
477.79042
484.85363
492.422
500.35161
508.49088
516.68878
524.80224
532.70223
540.26827
547.40788
554.04984
560.14327
565.65568
570.57054
574.88461
578.60527
581.74809
584.33464
586.39065
587.94451
589.02603
589.66551
589.89308
589.73819
589.22917
588.39281
587.25282
585.83646
584.16213
582.25105
580.12285
577.79515
575.28385
572.60342
569.76723
566.78721
563.67428
560.43824
557.08789
553.63108
550.07479
546.42524
542.68789
538.86757
534.9686
450.58838
452.6607
455.67548
459.64384
464.55808
470.384
477.05602
484.47581
492.515
501.02149
509.82834
518.76381
527.66116
536.36677
544.74523
552.6752
560.06953
566.86507
573.02093
578.51567
583.34409
587.51393
591.04287
593.95582
596.28263
598.05623
599.31114
600.08236
600.40452
600.31129
599.83506
599.00687
597.85667
596.40154
594.6811
592.70949
590.50881
588.09882
585.49747
582.7213
579.78506
576.70185
573.48356
570.141
566.68383
563.12071
559.4593
555.70641
551.86802
547.94939
543.9551
539.88924
450.98781
453.8836
457.7704
462.66172
468.54735
475.3841
483.09052
491.54648
500.59794
510.066
519.75874
529.4837
539.05929
548.324
557.13389
565.37497
572.9675
579.85889
586.02038
591.44323
596.13471
600.11428
603.41026
606.05698
608.09245
609.55655
610.48961
610.93142
610.92052
610.49374
609.68595
608.53002
607.05691
605.29024
603.26024
600.98935
598.49857
595.80716
592.93358
589.89461
586.70488
583.37738
579.9239
576.35506
572.68036
568.90822
565.04611
561.10058
557.0774
552.98157
548.81741
544.58877
451.41265
455.18059
459.98916
465.85547
472.76652
480.66818
489.45977
498.99523
509.09079
519.53766
530.1173
540.61653
550.8403
560.62109
569.81025
578.30498
586.03616
592.96431
599.07478
604.37296
608.87943
612.62582
615.65123
617.99928
619.71585
620.84739
621.43961
621.53667
621.18056
620.41089
619.26472
617.77645
615.97738
613.89488
611.55679
608.9874
606.20761
603.23705
600.09428
596.79584
593.35621
589.78832
586.10378
582.31298
578.42518
574.44857
570.39035
566.25683
562.05349
557.78507
553.45563
549.06875
451.86229
456.54943
462.32805
469.22033
477.21007
486.2297
496.15526
506.80998
517.97603
529.41175
540.87095
552.12055
562.95428
573.19886
582.71031
591.39787
599.20656
606.11246
612.11679
617.24009
621.51689
624.99114
627.71257
629.73382
631.10822
631.88832
632.12472
631.86544
631.1555
630.03681
628.54841
626.72539
624.59989
622.20143
619.55738
616.69172
613.62603
610.38023
606.97251
603.41908
599.73431
595.93096
592.02042
588.01282
583.91714
579.74128
575.49218
571.17584
566.79749
562.36157
557.87186
553.33166
452.33567
457.98656
464.78128
472.74891
481.86935
492.05847
503.16405
514.97324
527.22962
539.65612
551.97859
563.94605
575.34557
585.9936
595.76521
604.58269
612.40769
619.23389
625.07971
629.98162
633.98829
637.15596
639.54468
641.21561
642.22904
642.64304
642.51258
641.88905
640.82003
639.34934
637.51727
635.35964
632.9098
630.19805
627.25111
624.09328
620.74654
617.23062
613.56327
609.76043
605.83626
601.80328
597.67261
593.45408
589.15637
584.78709
580.35285
575.85938
571.31159
566.71363
562.069
557.3807
452.83119
459.4869
467.34079
476.43095
486.73234
498.1402
510.46819
523.46136
536.82027
550.23047
563.3906
576.03422
587.94169
598.93358
608.90163
617.78601
625.56771
632.25973
637.89865
642.5372
646.23824
649.06991
651.10211
652.40398
653.04212
653.07954
652.57504
651.58284
650.15265
648.3298
646.15512
643.66572
640.89563
637.8747
634.62989
631.18573
627.56401
623.78412
619.86351
615.81779
611.6608
607.40478
603.06052
598.63756
594.14425
589.58785
584.97467
580.31012
575.59881
570.8446
566.05068
561.21978
453.34665
461.04373
469.99606
480.25313
491.78334
504.45613
518.04413
532.2438
546.70859
561.08576
575.04882
588.32094
600.67203
611.94323
622.04336
630.93322
638.61521
645.12287
650.51146
654.85006
658.21536
660.68694
662.34394
663.26278
663.51575
663.17019
662.28812
660.92616
659.1357
656.96281
654.44934
651.63331
648.54824
645.22417
641.6883
637.96485
634.07523
630.03858
625.87198
621.59068
617.20817
612.73632
608.18562
603.56523
598.88317
594.14636
589.3608
584.53156
579.66294
574.75851
569.82117
564.85334
453.8792
462.64853
472.73393
484.19887
497.00268
510.9825
525.8619
541.28211
556.84612
572.16334
586.88527
600.72608
613.4574
624.94289
635.11237
643.94975
651.48033
657.75893
662.85963
666.8676
669.87285
671.96577
673.234
673.76058
673.62278
672.89168
671.63199
669.90226
667.75477
665.23668
662.39068
659.25439
655.86143
652.24204
648.42308
644.42833
640.27889
635.99355
631.58902
627.08013
622.47997
617.80005
613.05049
608.24008
603.3765
598.46633
593.51521
588.52792
583.50842
578.46
573.38525
568.28633
454.42526
464.29088
475.53849
488.24813
502.36638
517.6899
533.88418
550.52879
567.17425
583.39441
598.82464
613.16655
626.21352
637.85002
648.02997
656.76221
664.09584
670.1072
674.88899
678.54198
681.16886
682.87006
683.74103
683.87066
683.34057
682.22497
680.59082
678.49775
675.9992
673.14326
669.97223
666.52383
662.83182
658.92604
654.83289
650.57576
646.17541
641.6502
637.01642
632.28846
627.47901
622.59918
617.65871
612.66602
607.62843
602.55217
597.44255
592.30402
587.14023
581.95417
576.74817
571.52408
454.98051
465.95839
478.391
492.3773
507.84573
524.54243
542.06498
559.92573
577.62272
594.69834
610.77447
625.55252
638.85187
650.58039
660.71802
669.2995
676.39805
682.11135
686.55027
689.83052
692.06673
693.36862
693.83868
693.57099
692.65088
691.15519
689.15226
686.70303
683.86194
680.67679
677.18999
673.43936
669.45817
665.2758
660.91825
656.40848
651.76679
647.01109
642.15724
637.21918
632.20916
627.13791
622.01476
616.84776
611.64387
606.40898
601.14806
595.86522
590.56383
585.24657
579.91555
574.57228
455.53984
467.63669
481.26985
496.55904
513.40678
531.49655
550.34791
569.40228
588.10806
605.98397
622.63537
637.78694
651.28033
663.04908
673.09997
681.49379
688.32764
693.72008
697.79954
700.69595
702.53514
703.43537
703.50547
702.84409
701.53976
699.67102
697.30778
694.51216
691.33839
687.83443
684.0428
680.00076
675.74113
671.29285
666.68142
661.92933
657.05639
652.08005
647.01569
641.87681
636.67524
631.42128
626.12387
620.7907
615.42836
610.04241
604.63746
599.21734
593.78507
588.34306
582.89332
577.43688
456.09735
469.30941
484.15068
500.7621
519.00954
538.49942
558.66383
578.87263
598.53082
617.13814
634.29947
649.76653
663.40412
675.17156
685.10194
693.28143
699.83037
704.88762
708.59852
711.10657
712.54812
713.04931
712.72467
711.67691
709.99694
707.76506
705.05259
701.92174
698.42688
694.61615
690.53149
686.20974
681.68323
676.98037
672.12614
667.14252
662.04882
656.862
651.59698
646.26679
640.88285
635.45504
629.99192
624.50082
618.98795
613.45855
607.91691
602.36653
596.81014
456.6464
470.95833
487.00638
504.95109
524.6068
545.48658
566.92763
588.23255
608.77517
628.03623
645.64737
661.38174
675.12655
686.8647
696.65369
704.60374
710.85769
715.57412
718.91482
721.03636
722.08506
722.1944
721.48416
720.06029
718.01619
715.43368
712.38456
708.93131
705.12853
701.02389
696.6589
692.06988
687.28863
682.34302
677.25748
672.05346
666.74975
661.36284
655.90717
650.39534
644.83831
639.2456
633.62537
627.98458
622.32913
616.6639
610.99288
605.31926
599.64552
457.17962
472.56356
489.80728
509.08592
530.14233
552.37852
575.03363
597.3541
618.69343
638.53769
656.54774
672.51699
686.34979
698.04778
707.68958
715.40784
721.36724
725.74596
728.72204
730.4649
731.13055
730.85942
729.77586
727.98924
725.59501
722.67604
719.30448
715.54314
711.44645
707.06159
702.42962
697.58633
692.56294
687.38675
682.08167
676.66858
671.16579
665.58929
659.95307
654.2693
648.54852
642.79985
637.0311
631.24888
625.45874
619.66526
613.87212
608.0822
602.29777
457.68902
474.10371
492.52122
513.12097
535.54804
559.0757
582.84932
606.082
628.11768
648.48069
666.8557
683.0506
696.97575
708.64356
718.14957
725.64733
731.32338
735.37598
737.99984
739.37734
739.67423
739.03742
737.59602
735.4625
732.73398
729.49422
725.81578
721.76158
717.38572
712.73496
707.84985
702.76564
697.51298
692.11861
686.60588
680.99518
675.30429
669.54875
663.7421
657.89607
652.02083
646.12512
640.21638
634.3009
628.38391
622.46967
616.56158
610.66224
604.77365
458.16609
475.5562
495.11348
517.00335
540.73948
565.45115
590.2055
614.21154
636.84693
657.67776
676.41051
692.85475
706.90698
718.57953
727.98031
735.28305
740.69752
744.44364
746.73388
747.76428
747.71033
746.7259
744.94473
742.48204
739.4366
735.8929
731.92408
727.5929
722.95315
718.05122
712.92712
707.61555
702.14664
696.54658
690.83817
685.04129
679.17328
673.2492
667.28216
661.2835
655.26301
649.22906
643.18876
637.14809
631.11196
625.08435
619.06836
613.06633
607.08003
458.60187
476.89751
497.54632
520.66988
545.60881
571.33956
596.88535
621.49657
644.63649
665.90915
685.03233
701.79551
716.04797
727.78936
737.13625
744.28382
749.46851
752.93504
754.91578
755.62131
755.23775
753.92642
751.82543
749.05284
745.70878
741.87904
737.63692
733.04506
728.15707
723.01891
717.6701
712.14483
706.47271
700.6794
694.78722
688.81557
682.78129
676.69906
670.58157
664.43979
658.28311
652.1196
645.95603
639.79807
633.65037
627.51661
621.39964
615.30152
609.22379
458.98702
478.10325
499.77772
524.04154
550.01324
576.51968
602.59118
627.61961
651.18299
672.91326
692.51754
709.73332
724.30692
736.21468
745.58104
752.62715
757.62288
760.84297
762.54268
762.94899
762.25981
760.64411
758.24466
755.18227
751.55889
747.46151
742.96352
738.12752
733.00705
727.64767
722.08843
716.36306
710.50068
704.52648
698.4623
692.3271
686.1373
679.90714
673.64897
667.37337
661.08941
654.80482
648.52609
642.2586
636.00672
629.77388
623.56266
617.37487
611.21185
459.31162
479.14795
501.75866
527.01347
553.75633
580.68969
607.14341
632.576
656.56166
678.74249
698.81966
716.52481
731.59823
743.80738
753.28901
760.29992
765.15502
768.1666
769.61722
769.75266
768.78354
766.88722
764.21156
760.88009
756.99721
752.65078
747.91451
742.85095
737.51372
731.94804
726.19252
720.28049
714.24063
708.0977
701.87311
695.58539
689.25056
682.8825
676.49318
670.09288
663.69032
657.29294
650.90695
644.53748
638.18862
631.86356
625.56463
619.29342
613.05105
459.56455
480.00406
503.42738
529.43684
556.55533
583.8489
610.67198
636.49798
660.90384
683.53392
704.08245
722.27378
737.84591
750.53234
760.24684
767.29893
772.06705
774.91139
776.1473
776.04167
774.81928
772.66682
769.73755
766.15816
762.03559
757.4587
752.5017
747.22699
741.68854
735.93128
729.9934
723.90789
717.70307
711.40331
705.02963
698.60016
692.13057
685.63436
679.12321
672.60707
666.09436
659.59224
653.10667
646.64253
640.20368
633.79305
627.41275
621.06416
614.74819
459.73171
480.63939
504.69841
531.08547
558.49767
586.11715
613.28994
639.49882
664.32387
687.40595
708.42894
727.10701
743.17366
756.37086
766.45543
773.63107
778.36874
781.0888
782.14522
781.82892
780.3803
777.99638
774.83608
771.02997
766.68723
761.89825
756.73783
751.26807
745.54363
739.6092
733.50255
727.25644
720.89886
714.45386
707.9421
701.38136
694.78696
688.17209
681.54812
674.92474
668.31006
661.711
655.13328
648.58155
642.05947
635.56971
629.11416
622.69401
616.31
459.79152
481.01157
505.44137
532.01295
559.68594
587.59754
615.09658
641.67795
666.92291
690.46291
711.96665
731.13434
747.6914
761.37859
771.93172
779.31326
784.0771
786.71534
787.62721
787.13049
785.48245
782.89133
779.52234
775.51022
770.96642
765.98324
760.63636
754.98722
749.09159
742.99403
736.73179
730.33756
723.83905
717.26005
710.62088
703.939
697.22944
690.50508
683.77701
677.05469
670.34595
663.65747
656.99477
650.36228
643.76348
637.20078
630.67587
624.18977
617.74306
459.70423
481.05604
505.57225
532.32346
560.21863
588.38208
616.18078
643.12475
668.7923
692.79863
714.7915
734.45306
751.49766
765.66339
776.69709
784.37136
789.21521
791.81201
792.61292
791.96507
790.1436
787.36873
783.81281
779.61466
774.88831
769.72811
764.21122
758.3979
752.34537
746.09823
739.69315
733.16284
726.53483
719.83265
713.07637
706.28315
699.46771
692.6427
685.81893
679.00567
672.21047
665.43982
658.69903
651.99234
645.32309
638.69341
632.10478
625.55811
619.05382
459.38679
480.62621
505.21541
532.11992
560.18731
588.55473
616.6241
643.92171
670.01645
694.49925
716.99062
737.15062
754.6799
769.3119
780.7925
788.8406
793.81159
796.40356
797.1247
796.35337
794.38322
791.44693
787.72482
783.35978
778.46868
773.14766
767.47663
761.51385
755.31812
748.93442
742.39873
735.74393
728.99739
722.18248
715.31898
708.4238
701.51143
694.59426
687.68288
680.78632
673.91198
667.06611
660.25383
653.47923
646.74555
640.0546
633.40766
626.80558
620.24862
458.89471
479.85678
504.49179
531.50446
559.67816
588.19389
616.50343
644.14703
670.67513
695.64537
718.64444
739.30662
757.31709
772.40385
784.31379
792.76489
797.89862
800.51756
801.18702
800.31749
798.22193
795.14524
791.27621
786.76249
781.72366
776.25707
770.44701
764.34894
758.02307
751.51526
744.86066
738.09247
731.23793
724.32026
717.35902
710.37091
703.37016
696.36896
689.3777
682.4052
675.4587
668.54425
661.6668
654.83028
458.27774
478.86873
503.52202
530.57639
558.77286
587.37447
615.8933
643.87674
670.84522
696.31355
719.82813
740.99436
759.48055
775.00974
787.33323
796.18637
801.51038
804.18358
804.82581
803.88065
801.68083
798.4833
794.48544
789.83986
784.66928
779.07304
773.13592
766.91675
760.47335
753.8533
747.09099
740.22001
733.2675
726.25661
719.20671
712.13426
705.0533
697.97585
690.91209
683.87067
676.85868
669.882
662.9454
656.05264
457.5789
477.78145
502.42974
529.43119
557.54923
586.16956
614.86762
643.18619
670.60181
696.57736
720.61265
742.28139
761.23478
777.19247
789.91031
799.14208
804.6819
807.43155
808.06768
807.06679
804.78148
801.481
797.37099
792.60909
787.32147
781.60974
775.55917
769.23108
762.68205
755.96098
749.10159
742.13794
735.09702
728.002
720.87207
713.72348
706.57011
699.42379
692.29458
685.19093
678.11981
671.08693
664.09691
657.15338
456.84316
476.72714
501.33844
528.15831
556.08135
584.65168
613.50105
642.15102
670.01885
696.50791
721.065
743.22986
762.6385
779.00855
792.09843
801.66539
807.44897
810.29248
810.93938
809.89981
807.5455
804.15814
799.95119
795.08737
789.69631
783.8822
777.73086
771.30551
764.66215
757.85055
750.90416
743.85744
736.73719
729.56668
722.36493
715.14799
707.92961
700.72147
693.53348
686.37395
679.24974
672.16642
665.12844
658.13932
456.12743
475.86524
500.36835
526.83743
554.43913
582.89344
611.86943
640.84753
669.16917
696.17348
721.24811
743.89749
763.74555
780.50878
793.94699
803.81973
809.8498
812.7973
813.46753
812.40327
809.99419
806.53417
802.24409
797.29157
791.80966
785.90521
779.66484
773.15336
766.42652
759.53388
752.51015
745.38944
738.19847
730.96066
723.69487
716.41698
709.1406
701.87731
694.63688
687.42751
680.25593
673.1276
666.04684
659.01707
455.51709
475.38454
499.62389
525.533
552.68734
580.96738
610.04953
639.35258
668.1237
695.63873
721.22118
744.33837
764.60361
781.73788
795.5012
805.65429
811.92067
814.97641
815.67808
814.5999
812.14828
808.6281
804.26726
799.23812
793.67694
787.69321
781.37474
774.78757
767.98726
761.02298
753.93076
746.74465
739.49105
732.19368
724.87122
717.53936
710.21163
702.8995
695.61263
688.35911
681.14558
673.9774
666.85876
659.793
455.15232
475.48697
499.17119
524.28752
550.88399
578.94518
608.11828
637.7413
666.95061
694.96611
721.03938
744.59911
765.25547
782.73672
796.80104
807.21011
813.69485
816.85753
817.5961
816.51202
814.02775
810.45813
806.03774
800.943
795.31313
789.2603
782.87382
776.22072
769.35627
762.3293
755.17692
747.93343
740.62483
733.27521
725.90304
718.52381
711.15099
703.79597
696.46832
689.17605
681.92568
674.72251
667.57062
660.47325
455.28725
476.32533
499.0063
523.11547
549.07897
576.89667
606.15039
636.08409
665.71697
694.21443
720.75061
744.72146
765.73987
783.54246
797.88146
808.52012
815.20268
818.46711
819.24492
818.16074
815.65183
812.04195
807.57176
802.4215
796.73276
790.62015
784.17497
777.465
770.54513
763.46385
756.25917
748.96582
741.6094
734.2144
726.79907
719.37869
711.96668
704.57437
697.21129
689.88532
682.60294
675.36935
668.18857
661.06375
456.42418
477.86287
499.02758
522.00441
547.31415
574.88795
604.21649
634.4389
664.49409
693.43517
720.39713
744.74301
766.09187
784.1876
798.7713
809.61301
816.47119
819.82938
820.6463
819.56598
817.03881
813.39647
808.88499
803.68827
797.9497
791.78599
785.29063
778.53219
771.56499
764.43727