/*--------------------------------*- C++ -*----------------------------------*\
| =========                 |                                                 |
| \\      /  F ield         | OpenFOAM: The Open Source CFD Toolbox           |
|  \\    /   O peration     | Version:  2312                                  |
|   \\  /    A nd           | Website:  www.openfoam.com                      |
|    \\/     M anipulation  |                                                 |
\*---------------------------------------------------------------------------*/
FoamFile
{
    version     2.0;
    format      ascii;
    arch        "LSB;label=32;scalar=64";
    class       volScalarField;
    location    "0.02";
    object      T;
}
// * * * * * * * * * * * * * * * * * * * * * * * * * * * * * * * * * * * * * //

dimensions      [0 0 0 1 0 0 0];

internalField   nonuniform List<scalar> 
3221
(
301.58585
304.91652
308.42664
312.11788
315.99128
320.04727
324.2856
328.70539
333.30503
338.0822
343.03384
348.15614
353.44455
358.89375
364.49764
370.24941
376.14149
382.16559
388.31281
394.57354
400.93749
407.39391
413.93153
420.53866
427.20326
433.91302
440.65545
447.41794
454.18787
460.95272
467.70009
474.41786
481.09419
487.71766
494.27733
500.76275
507.16409
513.47216
519.67849
525.77532
531.75572
537.61361
543.23177
548.73346
554.17726
559.47256
564.61621
569.51262
574.27568
578.93597
583.4286
587.75167
301.59275
304.93794
308.46347
312.17102
316.06161
320.13564
324.39283
328.83223
333.4522
338.25034
343.22353
348.36788
353.67877
359.15077
364.77771
370.55266
376.46795
382.5152
388.68538
394.96875
401.35494
407.83306
414.39173
421.01916
427.70322
434.43149
441.1914
447.97029
454.75547
461.53437
468.29459
475.02397
481.7107
488.34339
494.9111
501.40346
507.81068
514.12367
520.334
526.43403
532.41695
538.27679
543.89596
549.40202
554.847
560.14347
565.28843
570.18588
574.953
579.61563
584.11102
588.43741
301.60626
304.97983
308.53535
312.27448
316.19824
320.30698
324.60035
329.07734
333.73616
338.57433
343.58858
348.77487
354.1284
359.6436
365.31408
371.13274
377.09168
383.18235
389.39547
395.72106
402.14855
408.66684
415.26433
421.92905
428.64865
435.41058
442.2021
449.01042
455.82279
462.62656
469.40928
476.15882
482.86337
489.51161
496.09268
502.59631
509.01284
515.33331
521.54946
527.65384
533.63981
539.50164
545.12097
550.63449
556.0801
561.37734
566.52342
571.42152
576.19575
580.86181
585.36176
589.69393
301.6261
305.04134
308.6408
312.42613
316.39828
320.55753
324.90344
329.43485
334.14983
339.04571
344.11903
349.36553
354.78016
360.35707
366.08963
371.97041
377.99125
384.14327
390.41686
396.80171
403.28694
409.86114
416.51243
423.22852
429.99684
436.80459
443.63884
450.48666
457.33515
464.17161
470.98357
477.7589
484.48589
491.15328
497.75039
504.26709
510.69394
517.02216
523.24374
529.35147
535.33902
541.20093
546.81783
552.33992
557.78395
563.07996
568.22537
573.12227
577.9051
582.57421
587.07903
591.41802
301.65206
305.12181
308.77874
312.62439
316.65963
320.8846
325.29872
329.90063
334.68821
339.65852
344.80784
350.13161
355.62445
361.28018
367.09177
373.05143
379.15059
385.37997
391.7295
398.18848
404.74561
411.38908
418.10663
424.88564
431.7132
438.57623
445.46159
452.35615
459.24691
466.12109
472.96624
479.77028
486.52162
493.20917
499.82247
506.35164
512.78749
519.12154
525.34605
531.45413
537.43981
543.29808
548.90837
554.43773
559.87652
565.1678
570.30929
575.20183
579.99298
584.66348
589.17218
593.51765
301.68402
305.22086
308.94849
312.86831
316.98101
321.28656
325.78414
330.47216
335.3482
340.40902
345.65052
351.06777
356.65498
362.40551
368.31188
374.36582
380.55827
386.87939
393.3186
399.86469
406.50588
413.22987
420.02394
426.87506
433.76995
440.69523
447.6375
454.58346
461.51999
468.4343
475.31397
482.14705
488.92212
495.62838
502.25565
508.79441
515.23582
521.57175
527.79479
533.89835
539.87683
545.72586
551.324
556.85699
562.28575
567.56747
572.7003
577.58418
582.38159
587.05083
591.56129
595.91163
301.72193
305.33834
309.14981
313.15753
317.36195
321.76277
326.35889
331.14837
336.12844
341.29544
346.64483
352.1712
357.86824
363.72876
369.74473
375.90729
382.20677
388.63266
395.17379
401.81835
408.55397
415.36779
422.24659
429.17685
436.14491
443.13705
450.13963
457.13918
464.12252
471.07686
477.98991
484.84991
491.64573
498.36692
505.00372
511.54708
517.98865
524.32075
530.53636
536.62909
542.59326
548.42468
554.00417
559.53562
564.94892
570.21511
575.33242
580.20267
585.00299
589.66755
594.17675
598.52931
301.76583
305.47437
309.38289
313.49231
317.80276
322.3136
327.02334
331.92962
337.02919
342.31789
347.79064
353.44141
359.26329
365.24842
371.3881
377.67276
384.09195
390.63448
397.28844
404.04134
410.88013
417.79132
424.76112
431.77551
438.82043
445.88181
452.94579
459.99879
467.0276
474.01954
480.96249
487.84501
494.65635
501.38655
508.02637
514.5674
521.00195
527.32306
533.52437
539.5998
545.54215
551.33825
556.89457
562.4195
567.81268
573.05756
578.1449
582.9991
587.79864
592.45462
596.95874
601.31004
301.81582
305.62928
309.64833
313.8735
318.30455
322.94039
327.77904
332.81761
338.05228
343.47824
349.08975
354.88007
360.84151
366.96547
373.24242
379.66192
386.21268
392.88266
399.65916
406.52888
413.47801
420.49239
427.55762
434.65916
441.78253
448.91337
456.03763
463.14167
470.21236
477.23721
484.2044
491.1029
497.92249
504.65379
511.28825
517.8182
524.23682
530.53823
536.71775
542.77262
548.70376
554.39117
559.94888
565.46245
570.83395
576.06698
581.0615
585.92694
590.7188
595.36188
599.85626
604.20195
301.8721
305.80367
309.94711
314.30253
318.86918
323.64541
328.62866
333.81537
339.201
344.78001
350.54581
356.49082
362.60646
368.8832
375.31053
381.87701
388.57039
395.37769
402.28526
409.27892
416.34405
423.46577
430.62902
437.81877
445.02013
452.21852
459.39977
466.55028
473.6571
480.70805
487.69176
494.59775
501.41644
508.13917
514.75821
521.26668
527.65859
533.92885
540.07341
546.08967
551.97692
557.60388
563.15209
568.62533
573.95783
579.15085
584.09588
588.95824
593.72471
598.34736
602.82602
607.16099
301.93492
305.99833
310.28064
314.7814
319.49925
324.43189
329.57598
334.9272
340.48014
346.22833
352.16423
358.27922
364.56369
371.00699
377.59743
384.32249
391.16881
398.12231
405.16833
412.29171
419.47697
426.70844
433.97046
441.2475
448.52436
455.78628
463.01911
470.20939
477.34452
484.41277
491.40336
498.30654
505.11351
511.81651
518.40871
524.88415
531.23771
537.465
543.56233
549.52684
555.35727
560.92567
566.45129
571.87409
577.15621
582.29648
587.19407
592.04334
596.77788
601.37386
605.83109
610.15016
302.00462
306.21432
310.65071
315.31268
320.19813
325.30394
330.62589
336.15868
341.89588
347.82993
353.95211
360.25264
366.72064
373.34411
380.11011
387.00482
394.01362
401.12125
408.31189
415.56934
422.87722
430.21911
437.57873
444.94015
452.28793
459.60726
466.88415
474.10547
481.2591
488.33395
495.32005
502.20849
508.99147
515.66225
522.21506
528.64505
534.94815
541.12097
547.16045
553.06232
558.81437
564.32329
569.81397
575.17966
580.40354
585.47121
590.32382
595.15047
599.84742
604.41088
608.84108
613.13904
302.08161
306.45291
311.05952
315.89951
320.96992
326.26662
331.78435
337.51664
343.45582
349.59302
355.91821
362.42016
369.08647
375.90367
382.85734
389.93219
397.11222
404.38081
411.72092
419.11528
426.54658
433.99767
441.45175
448.89256
456.30456
463.67309
470.98446
478.22609
485.38653
492.45556
499.42416
506.2845
513.02994
519.65489
526.15483
532.52613
538.76609
544.87312
550.84767
556.69487
562.28859
567.77694
573.21318
578.51538
583.68687
588.62322
593.47552
598.25685
602.90947
607.43404
611.8314
616.10296
302.16637
306.71561
311.50965
316.54562
321.81948
327.32593
333.05843
339.00914
345.16892
351.52738
358.07287
364.79245
371.67201
378.69639
385.84947
393.11432
400.47337
407.90856
415.40156
422.934
430.48766
438.04475
445.58803
453.10109
460.5685
467.97589
475.31015
482.55944
489.71325
496.76241
503.6991
510.51675
517.21001
523.77466
530.20748
536.50609
542.66888
548.69503
554.58476
560.34064
565.82929
571.27514
576.63193
581.85596
586.93764
591.79411
596.61837
601.34242
605.94369
610.42323
614.78216
619.02216
302.25948
307.00417
312.00411
317.25532
322.75245
328.48882
334.45634
340.64555
347.04558
353.64425
360.42795
367.38177
374.48966
381.7345
389.09826
396.56217
404.10694
411.71299
419.36067
427.0305
434.70346
442.36118
449.98621
457.56219
465.07397
472.50781
479.85139
487.09389
494.22598
501.23981
508.12893
514.88826
521.51392
528.00319
534.35427
540.56617
546.63846
552.57094
558.3622
564.00217
569.39789
574.78399
580.05536
585.20917
590.13442
594.94788
599.7282
604.38923
608.93333
613.36225
617.6775
621.88105
302.36157
307.32059
312.54637
318.03356
323.77529
329.76321
335.98742
342.43651
349.09761
355.95633
362.99679
370.20187
377.55324
385.03156
392.61663
400.28768
408.0236
415.80318
423.60546
431.40994
439.19689
446.94761
454.64462
462.27186
469.81482
477.26061
484.59806
491.81762
498.91143
505.87319
512.69808
519.38266
525.92472
532.32315
538.57775
544.68912
550.65856
556.48862
562.18649
567.62958
572.98273
578.28035
583.45174
588.50301
593.31618
598.0907
602.79364
607.38457
611.86557
616.23853
620.50514
624.66761
302.47338
307.66715
313.14033
318.88593
324.8953
331.15808
337.66222
344.39404
351.33822
358.47776
365.79425
373.26793
380.87789
388.60226
396.41846
404.30354
412.23444
420.18837
428.14306
436.07714
443.97039
451.804
459.56079
467.22532
474.78405
482.22531
489.53937
496.7183
503.75597
510.64789
517.39107
523.9839
530.42599
536.71797
542.86132
548.85816
554.71082
560.4202
565.97685
571.28462
576.56898
581.75569
586.81684
591.74607
596.46568
601.18391
605.80281
610.31769
614.73023
619.0423
623.25569
627.3728
302.59572
308.04639
313.79037
319.81875
326.1207
332.6835
339.49257
346.5315
353.78202
361.2242
368.83661
376.59648
384.47992
392.46226
400.51832
408.6228
416.75068
424.87758
432.98011
441.0362
449.02544
456.92925
464.73109
472.41659
479.97353
487.39186
494.66363
501.78287
508.74544
515.5489
522.19231
528.67607
535.00169
541.17167
547.18931
553.05862
558.7848
564.37802
569.71631
574.93833
580.13127
585.20103
590.1589
594.89817
599.58321
604.21436
608.74568
613.1799
617.51935
621.76612
625.92217
629.99004
302.72952
308.46118
314.50143
320.83906
327.46066
334.35072
341.49162
348.86366
356.44517
364.21278
372.14156
380.20525
388.37666
396.62796
404.93118
413.2586
421.58324
429.87925
438.12233
446.29005
454.36216
462.32075
470.15039
477.83819
485.37371
492.74892
499.95803
506.99733
513.86497
520.56077
527.08602
533.44322
539.63594
545.66858
551.54615
557.27383
562.85518
568.28153
573.45516
578.59681
583.65766
588.5962
593.41202
598.0279
602.64633
607.17716
611.61568
615.96473
620.2269
624.40449
628.49953
632.51473
302.8758
308.91471
315.27901
321.95472
328.92541
336.17223
343.67387
351.40677
359.34533
367.4621
375.72809
384.11312
392.58623
401.11621
409.67211
418.22376
426.74232
435.20072
443.57407
451.84
459.97891
467.97407
475.81169
483.48085
490.97338
498.28368
505.4085
512.34668
519.09893
525.66752
532.05608
538.26937
544.31303
550.19348
555.91774
561.49393
566.93538
572.12245
577.17754
582.21976
587.14202
591.95245
596.5581
601.12231
605.63853
610.06533
614.40704
618.66709
622.84841
626.95345
630.98436
634.9439
303.0357
309.41054
316.12921
323.17451
330.52636
338.16185
346.05532
354.17871
362.50173
370.9922
379.61648
388.33989
397.12738
405.94405
414.7559
423.53038
432.23701
440.84784
449.33788
457.68537
465.87193
473.88264
481.7059
489.33334
496.75953
503.98175
510.99962
517.81484
524.43087
530.8526
537.08611
543.13843
549.01732
554.73107
560.28807
565.6949
570.94452
575.94169
580.90298
585.79409
590.56518
595.20719
599.67386
604.15638
608.55599
612.87425
617.11542
621.28319
625.38065
629.41038
633.37452
637.27589
303.2105
309.95262
317.05888
324.50819
332.2761
340.33481
348.65357
357.19896
365.93519
374.82457
383.82812
392.90617
402.01915
411.12834
420.19666
429.18938
438.07478
446.82452
455.41413
463.82311
472.03505
480.03747
487.82165
495.38232
502.71729
509.82712
516.71465
523.38468
529.84359
536.09899
542.15947
548.03432
553.73339
559.2671
564.64692
569.88923
574.87733
579.73522
584.57931
589.31151
593.92516
598.35326
602.75745
607.11454
611.3937
615.59986
619.73746
623.81027
627.82148
631.77365
635.66891
639.51008
303.40162
310.54536
318.07562
325.96662
334.18857
342.70797
351.48797
360.48877
369.66814
378.98204
388.38543
397.83309
407.28062
416.68538
426.00737
435.21009
444.26105
453.13227
461.80053
470.24747
478.45937
486.42701
494.14517
501.61229
508.82991
515.80222
522.53558
529.03809
535.31918
541.38923
547.25933
552.94094
558.44579
563.78573
568.97146
573.99829
578.77721
583.52128
588.19515
592.77426
597.15393
601.46946
605.76776
609.99205
614.14744
618.23881
622.27055
626.24642
630.16956
634.04249
637.86726
641.64665
303.61062
311.1937
319.18792
327.56182
336.27926
345.29992
354.57966
364.07116
373.72464
383.48875
393.31164
403.14203
412.93048
422.63046
432.19945
441.59968
450.79872
459.76979
468.4919
476.94971
485.13316
493.037
500.66026
508.00562
515.07879
521.88796
528.44322
534.7561
540.83915
546.70556
552.36883
557.8425
563.14002
568.2757
573.27169
578.01474
582.64754
587.24561
591.73465
596.1212
600.3261
604.53943
608.69444
612.78394
616.81362
620.78847
624.71283
628.59041
632.42426
636.2168
639.96995
643.68643
303.83929
311.90315
320.4052
329.30716
338.56535
348.13117
357.9518
367.97104
378.13034
388.37
398.63056
408.8543
418.98662
428.97742
438.78218
448.36276
457.68772
466.73262
475.4798
483.91798
492.04167
499.85049
507.34832
514.54263
521.4437
528.06394
534.41737
540.51902
546.38458
552.03
557.47112
562.72336
567.80083
572.71482
577.47277
581.99381
586.48916
590.90104
595.20422
599.34392
603.45211
607.52404
611.53348
615.48676
619.38958
623.24693
627.06308
630.84163
634.58551
638.29701
641.97789
645.63076
304.08962
312.67984
321.73798
331.21762
341.06588
351.22428
361.62964
372.21527
382.91246
393.65206
404.36633
414.99072
425.46567
435.73805
445.76224
455.5008
464.92461
474.01281
482.75233
491.1371
499.16721
506.84786
514.18848
521.20177
527.90285
534.30861
540.43701
546.30664
551.93627
557.34451
562.54946
567.5685
572.41736
577.10884
581.56203
585.93777
590.25558
594.48597
598.53081
602.52504
606.50234
610.41852
614.28152
618.09791
621.8734
625.6129
629.32059
632.99994
636.6537
640.28399
643.89238
647.48134
304.3638
313.53063
323.1981
333.30988
343.80204
354.60415
365.64068
376.83268
388.0997
399.36202
410.54296
421.57113
432.38243
442.92158
453.14314
463.01177
472.5022
481.59867
490.29404
498.58866
506.48911
514.007
521.1578
527.95981
534.43325
540.59951
546.48057
552.09846
557.47494
562.63111
567.58694
572.3608
576.96824
581.38836
585.61169
589.82153
593.92873
597.94196
601.78784
605.65097
609.46057
613.21983
616.93597
620.61539
624.26367
627.88559
631.48515
635.06563
638.6296
642.17895
645.71505
649.24018
304.66433
314.46328
324.79884
335.60265
346.79735
358.29816
370.01487
381.85411
393.72208
405.52738
417.18399
428.61388
439.74928
450.53412
460.92472
470.88967
480.4093
489.47463
498.08589
506.251
513.98399
521.3035
528.23151
534.79217
541.0109
546.91361
552.52615
557.8739
562.98147
567.87233
572.56762
577.0828
581.43378
585.55724
589.6269
593.61752
597.51315
601.26268
604.99094
608.68039
612.32253
615.92496
619.49461
623.03766
626.55948
630.06463
633.55689
637.03933
640.51428
643.98339
647.44776
650.9095
304.99403
315.48654
326.55517
338.11687
350.078
362.33648
374.78465
387.3124
399.81078
412.17578
424.3119
436.1352
447.57559
458.57804
469.10269
479.1242
488.63052
497.62119
506.10529
514.09944
521.62591
528.71095
535.38333
541.67322
547.61117
553.22752
558.55181
563.61253
568.43704
573.05155
577.47993
581.72887
585.75389
589.68921
593.55101
597.31812
600.94188
604.5386
608.09675
611.60919
615.08486
618.53143
621.9557
625.36362
628.76029
632.15001
635.53632
638.92199
642.30909
645.69902
649.09259
652.49169
305.35611
316.61032
328.48398
340.87611
353.67318
366.75233
379.98519
393.24228
406.39782
419.33445
431.94755
444.14857
455.86707
467.05147
477.66823
487.70054
497.14617
506.01499
514.32632
522.1065
529.38675
536.20128
542.58586
548.57659
554.20909
559.51787
564.53587
569.29434
573.82298
578.15115
582.31445
586.22316
590.01362
593.74305
597.37144
600.8575
604.30706
607.72559
611.09744
614.43416
617.74488
621.03728
624.31795
627.59257
630.86595
634.14209
637.42421
640.71478
644.0156
647.32775
650.65176
653.98927
305.75421
317.84593
330.60449
343.90692
357.61548
371.58225
385.6544
399.68031
413.51571
427.02967
440.10947
452.66396
464.62513
475.94775
486.60763
496.5992
505.93232
514.62895
522.71996
530.24228
537.23655
543.74517
549.81088
555.47559
560.77972
565.7616
570.45723
574.90009
579.12115
583.14875
587.00605
590.62874
594.20721
597.68804
601.02608
604.31814
607.58336
610.80358
613.98989
617.15263
620.30055
623.44108
626.58052
629.72423
632.87668
636.04152
639.22162
642.41914
645.63555
648.87163
652.1276
655.40484
306.19252
319.20625
332.93854
347.23934
361.94133
376.8664
391.83307
406.66458
421.19696
435.28611
448.81311
461.68721
473.84628
485.25507
495.90212
505.79599
514.9609
523.43256
531.25448
538.47483
545.14394
551.31243
557.02981
562.34354
567.29841
571.93622
576.29563
580.41194
584.3172
588.03995
591.54568
594.96072
598.28273
601.46267
604.58881
607.6882
610.74414
613.76826
616.77118
619.76245
622.75036
625.74191
628.74304
631.75871
634.79302
637.84922
640.92984
644.03667
647.17085
650.33284
653.52256
656.74106
306.67586
320.70613
335.51117
350.90745
366.6915
382.64893
398.56483
414.23448
429.4735
444.12604
458.07005
471.21919
483.52157
494.9561
505.52777
515.26217
524.20002
532.39226
539.89586
546.7706
553.07659
558.87244
564.2141
569.1541
573.74115
578.02006
582.03174
585.81294
589.39658
592.75601
596.01455
599.16999
602.18169
605.13434
608.05619
610.93562
613.78524
616.61632
619.43894
622.26204
625.09332
627.93932
630.80553
633.69648
636.61583
639.56643
642.5504
645.56918
648.62355
651.71367
654.83912
658.00067
307.20982
322.36272
338.35114
354.95007
371.91169
388.97822
405.8961
422.43014
438.37588
453.56846
467.88712
481.25519
493.63617
505.02787
515.45553
524.96463
533.61432
541.47185
548.60824
555.09498
561.00168
566.39458
571.33557
575.88165
580.08484
583.99245
587.64731
591.0871
594.29219
597.37956
600.36243
603.19709
605.96878
608.70216
611.39336
614.05636
616.70341
619.34529
621.99151
624.65036
627.32896
630.03333
632.76844
635.53835
638.34626
641.19459
644.08503
647.01862
649.99582
653.01645
656.07983
659.18641
307.80091
324.19595
341.4917
359.4115
377.65318
395.90719
413.87592
431.29194
447.93245
463.62814
478.26562
491.78429
504.16904
515.44168
525.65146
534.86633
543.16542
550.63308
557.35454
563.41274
568.88637
573.84866
578.3668
582.50154
586.30752
589.83388
593.12532
596.16939
599.0776
601.87516
604.52303
607.10558
609.64008
612.1318
614.59636
617.04727
619.49624
621.95346
624.42781
626.92692
629.45729
632.02436
634.63257
637.28546
639.98574
642.73537
645.53561
648.38709
651.2899
654.24358
657.24725
660.30101
308.45682
326.2292
344.97149
364.34255
383.97355
403.49355
422.55563
440.85965
458.16836
474.31465
489.20045
502.78883
515.09281
526.16327
536.07704
544.92671
552.81248
559.83616
566.0969
571.68858
576.69821
581.20526
585.28144
588.99047
592.38867
595.52616
598.40286
601.12523
603.72668
606.17562
608.5587
610.8838
613.16487
615.41934
617.66212
619.90602
622.1621
624.43983
626.7474
629.09177
631.47877
633.91324
636.39906
638.93921
641.53592
644.19065
646.90422
649.67682
652.50813
655.39744
658.34405
661.34725
309.18664
328.48998
348.83567
369.80166
390.93745
411.79998
431.98838
451.17155
469.10438
485.63135
500.67942
514.24415
526.37374
537.15307
546.68964
555.10228
562.51284
569.04034
574.7973
579.8876
584.40563
588.43611
592.05453
595.32667
598.30949
601.00797
603.53891
605.9341
608.17246
610.34342
612.4478
614.50663
616.53916
618.56176
620.58842
622.63111
624.70007
626.80403
628.9504
631.14543
633.39429
635.70118
638.06936
640.50131
642.99869
645.5625
648.19306
650.89013
653.65294
656.48037
659.37333
662.3284
310.00124
331.01104
353.13733
375.85628
398.61746
420.89412
442.22843
462.26323
480.75579
497.57441
512.68268
526.11842
537.97197
548.36667
557.44308
565.34725
572.22256
578.20456
583.41806
587.9758
591.97827
595.51436
598.6627
601.49015
604.01224
606.33104
608.51577
610.53112
612.47618
614.34765
616.17191
617.96997
619.75992
621.55695
623.37388
625.22177
627.10994
629.04629
631.03745
633.08891
635.20514
637.38969
639.64523
641.97367
644.37613
646.85312
649.40448
652.02949
654.72696
310.91375
333.83157
357.93928
382.58446
407.09494
430.84847
453.3302
474.16634
493.13112
510.13193
525.18241
538.3727
549.84184
559.75532
568.28833
575.61421
581.89714
587.28797
591.92237
595.92046
599.3874
602.41481
605.08433
607.42455
609.54937
611.47119
613.27456
614.9738
616.59977
618.17651
619.72688
621.27075
622.8251
624.40364
626.01789
627.67793
629.39211
631.16743
633.00969
634.9236
636.91295
638.98061
641.12867
643.35842
645.67049
648.06486
650.5409
653.09745
655.73355
311.94021
336.99897
363.31627
390.0768
416.46089
441.74003
465.34709
486.90716
506.23098
523.28336
538.14265
550.9612
561.93245
571.26666
579.17415
585.85479
591.49211
596.25052
600.27472
603.69057
606.60627
609.11402
611.26462
613.17526
614.86483
616.4141
617.85843
619.22227
620.53688
621.82595
623.10973
624.40692
625.73353
627.10145
628.52059
630.00022
631.54758
633.16876
634.86869
636.65132
638.5197
640.47607
642.52188
644.65789
646.88417
649.20019
651.60484
654.09644
656.6742
313.10038
340.57105
369.35783
398.43861
426.81667
453.64958
478.33004
500.5052
520.04709
536.99912
551.51944
563.83173
574.18828
582.84541
590.04788
596.02039
600.96366
605.05343
608.44134
611.25715
613.61055
615.55835
617.24582
618.6896
619.98166
621.15019
622.23609
623.27137
624.28314
625.29322
626.31859
627.37732
628.48493
629.65083
630.8828
632.18986
633.57789
635.05206
636.61644
638.27418
640.02763
641.87839
643.82731
645.87457
648.0197
650.26166
652.59886
655.02915
657.55164
314.41903
344.61905
376.17187
407.79246
438.2746
466.66072
492.326
514.97179
534.56163
551.24055
565.2612
576.92634
586.54995
594.43414
600.85615
606.06278
610.26915
613.65969
616.39051
618.59341
620.35034
621.78346
622.97585
623.99094
624.87259
625.66476
626.40103
627.11694
627.83568
628.57697
629.35271
630.18155
631.07989
632.05307
633.1059
634.24865
635.48506
636.81953
638.25526
639.79462
641.43926
643.19014
645.04754
647.01105
649.07969
651.2519
653.52561
655.89822
658.36862
315.92755
349.23168
383.88917
418.28092
450.95824
480.8585
507.37632
530.30918
549.747
565.96019
579.3093
590.18201
598.95499
605.97408
611.5456
615.93475
619.36769
622.03446
624.09287
625.64898
626.83885
627.75685
628.47368
629.048
629.52742
629.95351
630.34849
630.75625
631.19285
631.67744
632.21234
632.81966
633.51979
634.31046
635.19169
636.17896
637.27152
638.47374
639.78782
641.21535
642.7573
644.41406
646.18529
648.07006
650.06685
652.17361
654.38777
656.70628
659.12778
317.66646
354.52064
392.6691
430.06958
465.00218
496.32788
523.51549
546.51012
565.56611
581.10244
593.59882
603.53139
611.33856
617.4058
622.06355
625.5907
628.22053
630.14547
631.49917
632.43497
633.06468
633.46838
633.70881
633.85241
633.93989
634.00716
634.08013
634.18978
634.35387
634.58745
634.89801
635.30043
635.80819
636.42648
637.14198
637.98375
638.94011
640.01758
641.21702
642.53929
643.98466
645.553
647.24341
649.05441
650.98397
653.02951
655.188
657.45596
659.83171
319.68897
360.62819
402.70673
443.35003
480.55146
513.15219
540.76782
563.55288
581.96742
596.60019
608.05746
616.90344
623.63423
628.66995
632.35864
634.98708
636.79149
637.94379
638.61623
638.93864
639.00299
638.89571
638.67555
638.39904
638.10665
637.82908
637.59084
637.41583
637.32009
637.31618
637.41232
637.61899
637.94525
638.39489
638.96483
639.67117
640.49383
641.45423
642.546
643.76955
645.12437
646.60997
648.22483
649.96697
651.83385
653.82236
655.929
658.14986
660.48296
322.06641
367.7377
414.24162
458.34275
497.76055
531.40489
559.13536
581.39076
598.87779
612.3706
622.60319
630.22244
635.77459
639.70793
642.38146
644.08294
645.0306
645.43161
645.42583
645.13093
644.63994
644.03397
643.36506
642.68283
642.02555
641.41789
640.88154
640.43574
640.09348
639.86518
639.758
639.77925
639.93493
640.22772
640.65747
641.23099
641.94415
642.78933
643.77806
644.90945
646.17963
647.58805
649.13254
650.81063
652.61932
654.5549
656.61342
658.79055
661.08402
324.8966
376.08841
427.56852
475.29958
516.78205
551.13196
578.58556
599.94605
616.20039
628.31444
637.14372
643.40731
647.69104
650.4625
652.0851
652.82665
652.93385
652.58435
651.9009
650.99811
649.96469
648.87666
647.7737
646.70142
645.69615
644.77407
643.95397
643.25193
642.67687
642.23726
641.93852
641.78528
641.78118
641.92774
642.22507
642.67574
643.27752
644.02991
644.92084
645.96249
647.15368
648.49039
649.96956
651.58832
653.34322
655.22987
657.24387
659.38054
661.63735
328.31699
385.99617
443.04994
494.49592
537.74529
572.33678
599.04329
619.1071
633.81474
644.31768
651.57846
656.37319
659.31405
660.87831
661.41508
661.20825
660.47127
659.37146
658.02651
656.53053
654.96964
653.42018
651.89967
650.45393
649.11977
647.89969
646.81073
645.86774
645.07389
644.43616
643.95792
643.64141
643.48824
643.49868
643.67222
644.00909
644.50725
645.16501
645.97936
646.93611
648.04981
649.32019
650.73893
652.30293
654.00835
655.84998
657.82291
659.92228
662.14529
332.52581
397.88267
461.12518
516.21116
560.73449
594.9652
620.3842
638.72738
651.57842
660.25401
665.80112
669.03364
670.57485
670.89456
670.35492
669.18541
667.61069
665.78071
663.79264
661.72062
659.6487
657.66401
655.7429
653.9405
652.29963
650.79841
649.45496
648.28742
647.28892
646.46627
645.82078
645.35231
645.06066
644.94484
645.0034
645.23504
645.63729
646.20765
646.94269
647.83773
648.87297
650.08071
651.44368
652.9573
654.6175
656.41792
658.35306
660.4182
662.61014
337.81681
412.31598
482.30947
540.69896
585.76169
618.89131
642.43097
658.62698
669.33048
675.98841
679.70269
681.30303
681.40243
680.48392
678.8487
676.73046
674.3354
671.79948
669.19283
666.56375
663.99633
661.61152
659.30489
657.16162
655.2412
653.4757
651.88968
650.51604
649.32696
648.33255
647.53211
646.92293
646.50325
646.2708
646.22315
646.35782
646.67171
647.16156
647.82364
648.65579
649.63311
650.7749
652.08679
653.55424
655.1734
656.93642
658.837
660.87094
663.03434
344.63635
430.05784
507.17447
568.14377
612.73636
643.90638
664.95355
678.59711
686.89646
691.38138
693.17466
693.09792
691.75642
689.57218
686.87372
683.82039
680.62896
677.41901
674.22457
671.05835
668.04217
665.23492
662.58817
660.14448
657.93499
655.93004
654.1162
652.55978
651.19344
650.04036
649.09725
648.35851
647.82103
647.48136
647.33611
647.3818
647.61463
648.03065
648.6255
649.39509
650.33034
651.40859
652.67123
654.09643
353.67721
452.11969
536.30452
598.60014
641.43628
669.71433
687.67454
698.40731
704.0946
706.29364
706.11401
704.36258
701.54286
698.1322
694.40695
690.4354
686.53082
682.62329
678.84829
675.19996
671.75717
668.56821
665.59818
662.87125
660.40146
658.16919
656.1676
654.40818
652.89323
651.59535
650.52184
649.66448
649.0192
648.58145
648.34696
648.31141
648.47027
648.81893
649.3525
650.0664
650.95695
651.9884
653.19975
654.58647
366.04006
479.81718
570.20265
631.91888
671.48697
695.93654
710.2799
717.8149
720.74289
720.59435
718.44539
714.98315
710.72938
706.12806
701.43424
696.61387
691.9317
687.41505
683.1027
678.99337
675.14816
671.61368
668.34101
665.3509
662.646
660.20743
658.02608
656.09968
654.42133
653.00008
651.81181
650.8464
650.10306
649.57609
649.26046
649.15113
649.24286
649.53042
650.00845
650.672
651.51847
652.51502
653.67666
655.02749
383.51278
514.77703
609.12648
667.67408
702.35814
722.12739
732.4342
736.57565
736.6692
734.19415
730.01645
724.92654
719.27144
713.61088
707.8761
702.27726
696.88377
691.79805
686.98934
682.444
678.22081
674.37795
670.82354
667.59168
664.67506
662.04956
659.7022
657.62487
655.81107
654.25188
652.97168
651.90998
651.07799
650.47031
650.08136
649.9054
649.93659
650.16908
650.59705
651.21501
652.01793
652.99026
654.10691
655.42223
409.05736
558.79057
652.85307
705.11562
733.38415
747.80011
753.79888
754.45198
751.76153
746.89815
740.78513
734.14852
727.22224
720.40004
713.77328
707.44661
701.38059
695.77804
690.51434
685.55844
680.97986
676.87124
673.05317
669.60187
666.49644
663.70275
661.20469
658.99117
657.05425
655.38032
653.99918
652.86105
651.94939
651.26917
650.81438
650.57868
650.55561
650.7388
651.12197
651.69917
652.46472
653.4102
654.49356
655.7735
447.64234
613.31001
700.4217
743.17697
763.80977
772.4595
774.05164
771.28486
765.78062
758.65526
750.81651
742.57436
734.37073
726.57453
719.11854
712.13258
705.49914
699.3327
693.63714
688.34475
683.48013
679.07707
675.01557
671.38996
668.11892
665.17521
662.54187
660.20619
658.15947
656.39055
654.90253
653.70268
652.72264
651.97767
651.4642
651.17532
651.10401
651.24341
651.58681
652.12786
652.86071
653.77993
654.83785
656.08436
507.48475
678.34292
749.97457
780.55775
792.85587
795.63709
792.96844
786.79651
778.6287
769.55281
759.88925
750.09329
740.79318
732.13338
724.01787
716.30015
709.10864
702.49312
696.41437
690.81372
685.6866
681.03378
676.77842
672.93196
669.54671
666.47566
663.72201
661.27745
659.13326
657.27813
655.70303
654.43666
653.40319
652.60074
652.03541
651.69961
651.5858
651.68663
651.99502
652.50429
653.20836
654.103
655.14187
656.35767
600.7015
750.83189
798.85064
815.87663
819.79347
816.99173
810.27773
800.73205
790.46725
779.34387
767.88204
756.7693
746.48316
737.20502
728.30068
719.94944
712.28512
705.27065
698.85427
692.97722
687.61488
682.74781
678.31703
674.29874
670.76618
667.61106
664.75335
662.2124
659.98241
658.05115
656.40484
655.07004
653.99546
653.14319
652.53253
652.15575
652.00487
652.07211
652.35001
652.83157
653.51038
654.38199
655.40796
656.59637
736.7572
823.6038
844.00943
847.70278
844.09392
836.23617
825.59568
813.41395
800.94473
787.79764
774.91044
762.58619
751.58226
741.63179
731.97918
723.12354
715.04223
707.67842
700.96802
694.84794
689.27909
684.22862
679.6448
675.49871
671.79746
668.57857
665.64445
663.01838
660.71367