/*--------------------------------*- C++ -*----------------------------------*\
| =========                 |                                                 |
| \\      /  F ield         | OpenFOAM: The Open Source CFD Toolbox           |
|  \\    /   O peration     | Version:  2312                                  |
|   \\  /    A nd           | Website:  www.openfoam.com                      |
|    \\/     M anipulation  |                                                 |
\*---------------------------------------------------------------------------*/
FoamFile
{
    version     2.0;
    format      ascii;
    arch        "LSB;label=32;scalar=64";
    class       volVectorField;
    location    "0.02";
    object      U;
}
// * * * * * * * * * * * * * * * * * * * * * * * * * * * * * * * * * * * * * //

dimensions      [0 1 -1 0 0 0 0];

internalField   nonuniform List<vector> 
3221
(
(1.1048031 -0.014728567 0)
(1.112343 -0.037040094 0)
(1.1185653 -0.055545144 0)
(1.1239058 -0.07211548 0)
(1.1286832 -0.087777682 0)
(1.1330075 -0.10314624 0)
(1.1369202 -0.11863587 0)
(1.1404471 -0.13454625 0)
(1.1436079 -0.15110177 0)
(1.1464177 -0.16847465 0)
(1.1488886 -0.18679897 0)
(1.1510313 -0.20617894 0)
(1.1528553 -0.22669408 0)
(1.1543695 -0.2484026 0)
(1.1555825 -0.27134373 0)
(1.1565019 -0.29553946 0)
(1.1571351 -0.32099585 0)
(1.1574888 -0.34770405 0)
(1.1575687 -0.37564142 0)
(1.1573804 -0.40477177 0)
(1.1569282 -0.4350464 0)
(1.1562158 -0.46640524 0)
(1.1552461 -0.49877725 0)
(1.154021 -0.53208132 0)
(1.1525417 -0.56622707 0)
(1.1508083 -0.60111577 0)
(1.1488201 -0.6366413 0)
(1.1465758 -0.67269116 0)
(1.1440729 -0.70914748 0)
(1.1413084 -0.74588816 0)
(1.1382786 -0.78278793 0)
(1.1349794 -0.81971946 0)
(1.1314061 -0.85655446 0)
(1.1275543 -0.89316472 0)
(1.1234194 -0.92942304 0)
(1.1189973 -0.96520409 0)
(1.1142846 -1.0003851 0)
(1.109279 -1.0348462 0)
(1.1039806 -1.0684707 0)
(1.0983948 -1.1011425 0)
(1.0925268 -1.1327415 0)
(1.0863426 -1.1631476 0)
(1.0797964 -1.1922827 0)
(1.072823 -1.2200906 0)
(1.065496 -1.2465891 0)
(1.0579261 -1.2716462 0)
(1.0500528 -1.2951571 0)
(1.0418269 -1.3170741 0)
(1.0331931 -1.3373725 0)
(1.0241979 -1.3560913 0)
(1.0149234 -1.373167 0)
(1.0053487 -1.388559 0)
(1.1057677 -0.0081113494 0)
(1.1145933 -0.023714476 0)
(1.1216611 -0.03843697 0)
(1.1273772 -0.05247463 0)
(1.132257 -0.066193977 0)
(1.1365379 -0.079946542 0)
(1.1403253 -0.094031504 0)
(1.1436797 -0.10869514 0)
(1.1466417 -0.12413761 0)
(1.1492399 -0.14052043 0)
(1.1514955 -0.15797273 0)
(1.1534257 -0.17659609 0)
(1.1550452 -0.19646797 0)
(1.1563669 -0.21764438 0)
(1.1574027 -0.2401618 0)
(1.1581635 -0.26403874 0)
(1.1586588 -0.28927696 0)
(1.1588977 -0.31586257 0)
(1.1588876 -0.34376698 0)
(1.1586352 -0.37294761 0)
(1.1581459 -0.40334862 0)
(1.157424 -0.43490213 0)
(1.1564725 -0.46752891 0)
(1.1552933 -0.50113924 0)
(1.1538869 -0.53563388 0)
(1.1522528 -0.57090505 0)
(1.1503893 -0.60683751 0)
(1.1482935 -0.64330964 0)
(1.1459616 -0.68019455 0)
(1.1433889 -0.7173613 0)
(1.1405696 -0.75467603 0)
(1.1374976 -0.79200317 0)
(1.1341663 -0.82920659 0)
(1.1305686 -0.8661507 0)
(1.1266977 -0.9027015 0)
(1.1225474 -0.9387275 0)
(1.1181118 -0.97410047 0)
(1.1133866 -1.0086961 0)
(1.1083705 -1.0423943 0)
(1.1030688 -1.0750794 0)
(1.0974877 -1.1066402 0)
(1.091586 -1.1369745 0)
(1.0853116 -1.1659976 0)
(1.0785904 -1.1936347 0)
(1.0715059 -1.2198268 0)
(1.064183 -1.2444994 0)
(1.0565484 -1.267585 0)
(1.0485445 -1.2890365 0)
(1.040108 -1.3088198 0)
(1.03129 -1.3269169 0)
(1.0221809 -1.3433028 0)
(1.0127505 -1.3579595 0)
(1.1058359 -0.0053366823 0)
(1.1156905 -0.016574443 0)
(1.1236985 -0.028105274 0)
(1.1301881 -0.039798335 0)
(1.1356034 -0.051731928 0)
(1.1402064 -0.064071059 0)
(1.1441521 -0.077000453 0)
(1.1475459 -0.090697508 0)
(1.1504643 -0.10532192 0)
(1.1529632 -0.12101174 0)
(1.1550852 -0.13788239 0)
(1.1568637 -0.15602704 0)
(1.1583265 -0.17551749 0)
(1.1594969 -0.19640536 0)
(1.160395 -0.21872314 0)
(1.1610385 -0.24248527 0)
(1.1614427 -0.26768911 0)
(1.1616209 -0.29431596 0)
(1.161584 -0.32233182 0)
(1.1613414 -0.35168824 0)
(1.1609001 -0.38232317 0)
(1.1602656 -0.41416203 0)
(1.1594412 -0.44711852 0)
(1.1584285 -0.48109563 0)
(1.1572272 -0.51598668 0)
(1.1558355 -0.55167636 0)
(1.1542497 -0.58804187 0)
(1.1524649 -0.62495412 0)
(1.1504746 -0.66227894 0)
(1.1482711 -0.69987826 0)
(1.1458458 -0.73761145 0)
(1.1431891 -0.77533647 0)
(1.1402908 -0.81291114 0)
(1.1371404 -0.8501943 0)
(1.1337275 -0.88704691 0)
(1.1300423 -0.92333309 0)
(1.1260755 -0.95892105 0)
(1.1218198 -0.99368385 0)
(1.1172713 -1.0275 0)
(1.112433 -1.0602543 0)
(1.1073071 -1.0918387 0)
(1.1018449 -1.1221551 0)
(1.0959912 -1.1511172 0)
(1.0896796 -1.1786427 0)
(1.0829908 -1.2046502 0)
(1.0760414 -1.2290801 0)
(1.0687554 -1.2518783 0)
(1.0610732 -1.2730011 0)
(1.0529359 -1.292411 0)
(1.0443914 -1.3100743 0)
(1.0355242 -1.3259756 0)
(1.0263046 -1.3401055 0)
(1.105974 -0.0032155835 0)
(1.1164492 -0.010692599 0)
(1.1252027 -0.019062211 0)
(1.13243 -0.028181538 0)
(1.1384685 -0.038035379 0)
(1.1435474 -0.048686817 0)
(1.1478284 -0.060236772 0)
(1.1514382 -0.072800463 0)
(1.1544774 -0.086493556 0)
(1.1570256 -0.1014236 0)
(1.159147 -0.11768486 0)
(1.160894 -0.1353555 0)
(1.1623105 -0.15449616 0)
(1.1634334 -0.17514953 0)
(1.1642945 -0.19734036 0)
(1.1649209 -0.22107587 0)
(1.1653357 -0.24634631 0)
(1.1655585 -0.27312574 0)
(1.1656052 -0.30137265 0)
(1.1654886 -0.33103065 0)
(1.1652185 -0.36202963 0)
(1.1648015 -0.39428657 0)
(1.1642415 -0.42770652 0)
(1.1635396 -0.46218369 0)
(1.1626945 -0.49760253 0)
(1.1617024 -0.53383894 0)
(1.160557 -0.57076143 0)
(1.1592505 -0.60823245 0)
(1.1577729 -0.64610962 0)
(1.1561126 -0.68424707 0)
(1.154257 -0.72249675 0)
(1.152192 -0.76070975 0)
(1.1499029 -0.79873751 0)
(1.1473748 -0.83643314 0)
(1.1445924 -0.87365255 0)
(1.1415411 -0.91025564 0)
(1.1382072 -0.94610731 0)
(1.134579 -0.98107844 0)
(1.1306486 -1.0150466 0)
(1.1264153 -1.0478967 0)
(1.1218766 -1.0795216 0)
(1.1169761 -1.109824 0)
(1.1116585 -1.1387176 0)
(1.1058724 -1.166117 0)
(1.0996889 -1.1919337 0)
(1.0932058 -1.2161144 0)
(1.0863473 -1.2386104 0)
(1.0790571 -1.2593806 0)
(1.0712871 -1.2783873 0)
(1.0630783 -1.2955924 0)
(1.0545024 -1.3109858 0)
(1.0455329 -1.3245632 0)
(1.1061144 -0.0014093685 0)
(1.1170664 -0.0055378214 0)
(1.1264179 -0.010919714 0)
(1.1342799 -0.017454301 0)
(1.1409102 -0.025112547 0)
(1.1464973 -0.033918455 0)
(1.1511908 -0.043929022 0)
(1.1551205 -0.055219345 0)
(1.1583986 -0.067871435 0)
(1.1611206 -0.081965731 0)
(1.1633679 -0.097574975 0)
(1.1652096 -0.11476006 0)
(1.1667053 -0.1335674 0)
(1.1679063 -0.15402745 0)
(1.1688566 -0.17615395 0)
(1.1695939 -0.19994378 0)
(1.1701503 -0.22537716 0)
(1.1705523 -0.25241806 0)
(1.1708216 -0.28101481 0)
(1.1709751 -0.31110079 0)
(1.1710251 -0.34259544 0)
(1.1709797 -0.37540513 0)
(1.1708431 -0.40942429 0)
(1.1706156 -0.44453649 0)
(1.1702939 -0.48061567 0)
(1.1698717 -0.51752738 0)
(1.1693397 -0.55513013 0)
(1.1686857 -0.59327671 0)
(1.1678955 -0.63181559 0)
(1.1669529 -0.6705923 0)
(1.1658398 -0.70945079 0)
(1.1645371 -0.74823481 0)
(1.1630247 -0.78678923 0)
(1.1612817 -0.82496131 0)
(1.1592875 -0.86260196 0)
(1.1570217 -0.89956697 0)
(1.1544647 -0.93571818 0)
(1.1515993 -0.97092455 0)
(1.1484127 -1.005063 0)
(1.1449001 -1.0380185 0)
(1.1410544 -1.0696846 0)
(1.136812 -1.0999642 0)
(1.1321194 -1.1287711 0)
(1.1269425 -1.15602 0)
(1.1213385 -1.1816218 0)
(1.1153823 -1.2055289 0)
(1.1090022 -1.2276957 0)
(1.102148 -1.2480815 0)
(1.0947848 -1.2666493 0)
(1.0869434 -1.2833616 0)
(1.0786786 -1.2982141 0)
(1.0699688 -1.311208 0)
(1.1062609 0.00018369606 0)
(1.1176283 -0.00089752375 0)
(1.1274817 -0.0034662649 0)
(1.1358868 -0.0074768138 0)
(1.14305 -0.012918451 0)
(1.1491275 -0.019810914 0)
(1.1542531 -0.028195589 0)
(1.1585532 -0.038127411 0)
(1.1621446 -0.049667413 0)
(1.1651324 -0.062876095 0)
(1.1676105 -0.077807959 0)
(1.1696618 -0.094507377 0)
(1.1713597 -0.11300568 0)
(1.1727683 -0.13331926 0)
(1.1739436 -0.15544851 0)
(1.1749336 -0.17937731 0)
(1.175779 -0.20507307 0)
(1.1765135 -0.23248699 0)
(1.177164 -0.2615545 0)
(1.1777513 -0.29219613 0)
(1.17829 -0.32431839 0)
(1.178789 -0.35781475 0)
(1.179252 -0.39256681 0)
(1.1796777 -0.42844553 0)
(1.1800602 -0.46531254 0)
(1.1803896 -0.5030215 0)
(1.1806521 -0.5414195 0)
(1.1808307 -0.58034857 0)
(1.1809057 -0.61964708 0)
(1.1808549 -0.65915126 0)
(1.1806543 -0.69869659 0)
(1.1802784 -0.73811926 0)
(1.1797007 -0.77725746 0)
(1.1788942 -0.81595274 0)
(1.1778316 -0.85405128 0)
(1.1764859 -0.89140508 0)
(1.1748311 -0.92787326 0)
(1.1728434 -0.96332312 0)
(1.1705042 -0.99763088 0)
(1.1678044 -1.0306818 0)
(1.1647335 -1.0623702 0)
(1.1612225 -1.092601 0)
(1.1572192 -1.1212857 0)
(1.1527052 -1.1483446 0)
(1.1477207 -1.1736919 0)
(1.1423196 -1.1972862 0)
(1.1364411 -1.2190843 0)
(1.1300425 -1.239042 0)
(1.1230988 -1.2571262 0)
(1.1156268 -1.2733032 0)
(1.1076639 -1.2875757 0)
(1.0991955 -1.2999496 0)
(1.1064228 0.0016499756 0)
(1.1181833 0.0034158956 0)
(1.1284823 0.0035248438 0)
(1.1373638 0.0019680299 0)
(1.145005 -0.0012746141 0)
(1.1515405 -0.0062359783 0)
(1.1570927 -0.012958874 0)
(1.161784 -0.021492241 0)
(1.1657336 -0.031886723 0)
(1.1690535 -0.044190049 0)
(1.1718471 -0.05844277 0)
(1.1742086 -0.074674771 0)
(1.176223 -0.092902658 0)
(1.177966 -0.11312797 0)
(1.1795039 -0.1353361 0)
(1.1808941 -0.15949585 0)
(1.1821849 -0.18555935 0)
(1.1834163 -0.21346235 0)
(1.1846196 -0.24312481 0)
(1.1858183 -0.27445172 0)
(1.1870283 -0.30733409 0)
(1.1882584 -0.34165005 0)
(1.1895104 -0.37726615 0)
(1.1907803 -0.41403868 0)
(1.1920581 -0.4518151 0)
(1.193329 -0.49043556 0)
(1.1945736 -0.52973441 0)
(1.1957686 -0.56954178 0)
(1.1968876 -0.60968512 0)
(1.1979014 -0.64999075 0)
(1.1987788 -0.69028537 0)
(1.199487 -0.73039749 0)
(1.1999925 -0.77015883 0)
(1.2002609 -0.8094056 0)
(1.200258 -0.8479798 0)
(1.1999499 -0.88573038 0)
(1.1993035 -0.92251444 0)
(1.1982882 -0.95819804 0)
(1.19688 -0.99265644 0)
(1.195065 -1.0257737 0)
(1.1928277 -1.0574451 0)
(1.1900992 -1.0875835 0)
(1.1868256 -1.116092 0)
(1.1829974 -1.1429098 0)
(1.1786416 -1.1679506 0)
(1.1737947 -1.1911743 0)
(1.1684162 -1.2125433 0)
(1.1624682 -1.2320085 0)
(1.1559275 -1.2495543 0)
(1.1487983 -1.2651488 0)
(1.1411018 -1.2787979 0)
(1.1328329 -1.2905114 0)
(1.106604 0.0030450528 0)
(1.1187586 0.0075351034 0)
(1.1294754 0.01022772 0)
(1.1387906 0.011063987 0)
(1.1468681 0.0099891646 0)
(1.1538317 0.0069489824 0)
(1.159798 0.0018896286 0)
(1.1648889 -0.0052408909 0)
(1.1692265 -0.014490372 0)
(1.1729295 -0.025899409 0)
(1.1761098 -0.039498343 0)
(1.1788716 -0.055304624 0)
(1.18131 -0.073320777 0)
(1.1835106 -0.093533019 0)
(1.1855489 -0.11591049 0)
(1.18749 -0.14040499 0)
(1.1893887 -0.16695111 0)
(1.1912895 -0.19546667 0)
(1.1932267 -0.22585351 0)
(1.1952251 -0.25799842 0)
(1.1973003 -0.29177435 0)
(1.1994589 -0.32704165 0)
(1.2016997 -0.36364953 0)
(1.2040138 -0.40143754 0)
(1.2063857 -0.4402372 0)
(1.208794 -0.47987358 0)
(1.2112121 -0.52016703 0)
(1.2136088 -0.56093479 0)
(1.2159497 -0.60199267 0)
(1.2181971 -0.64315669 0)
(1.2203117 -0.68424458 0)
(1.2222524 -0.72507732 0)
(1.2239774 -0.76548047 0)
(1.2254449 -0.80528555 0)
(1.226613 -0.84433121 0)
(1.2274404 -0.88246445 0)
(1.2278873 -0.91954152 0)
(1.2279177 -0.95542854 0)
(1.2275043 -0.99000057 0)
(1.2266289 -1.0231391 0)
(1.225261 -1.0547354 0)
(1.2233436 -1.0847177 0)
(1.2208111 -1.1129825 0)
(1.2176576 -1.1395038 0)
(1.2139222 -1.1641773 0)
(1.2096137 -1.186955 0)
(1.2047147 -1.2078104 0)
(1.1991786 -1.2266996 0)
(1.1929815 -1.2436446 0)
(1.1861373 -1.2586048 0)
(1.1786491 -1.2715826 0)
(1.1705181 -1.2825901 0)
(1.1068065 0.0044043058 0)
(1.1193704 0.011550927 0)
(1.1304963 0.016768919 0)
(1.1402218 0.019952986 0)
(1.1487086 0.021013128 0)
(1.1560788 0.019869942 0)
(1.1624498 0.016453437 0)
(1.1679467 0.010703188 0)
(1.1726977 0.0025694629 0)
(1.176829 -0.0079849578 0)
(1.1804617 -0.020982762 0)
(1.1837093 -0.036430323 0)
(1.1866766 -0.054316353 0)
(1.189458 -0.074611118 0)
(1.1921365 -0.097266121 0)
(1.1947837 -0.12221427 0)
(1.1974589 -0.14937028 0)
(1.2002094 -0.17863153 0)
(1.2030707 -0.20987905 0)
(1.2060667 -0.24297879 0)
(1.2092104 -0.27778304 0)
(1.2125045 -0.31413193 0)
(1.2159421 -0.35185509 0)
(1.2195076 -0.39077339 0)
(1.2231779 -0.43070065 0)
(1.226923 -0.4714455 0)
(1.2307071 -0.51281315 0)
(1.2344897 -0.5546072 0)
(1.2382266 -0.59663135 0)
(1.2418707 -0.63869108 0)
(1.2453728 -0.68059527 0)
(1.2486829 -0.72215759 0)
(1.2517504 -0.76319799 0)
(1.2545248 -0.80354386 0)
(1.2569563 -0.84303131 0)
(1.2589963 -0.88150618 0)
(1.2605981 -0.91882497 0)
(1.2617214 -0.95485514 0)
(1.2623401 -0.98947379 0)
(1.2624401 -1.0225644 0)
(1.2619628 -1.0540193 0)
(1.2608588 -1.0837711 0)
(1.2590358 -1.1117368 0)
(1.2565136 -1.1378694 0)
(1.2533822 -1.162094 0)
(1.249595 -1.1843688 0)
(1.2451383 -1.2046411 0)
(1.2399335 -1.2229005 0)
(1.2339789 -1.2391664 0)
(1.2273362 -1.2534179 0)
(1.2199794 -1.2656578 0)
(1.2119088 -1.2758995 0)
(1.1070317 0.0057526837 0)
(1.1200295 0.015529823 0)
(1.1315692 0.023244511 0)
(1.1416959 0.028747513 0)
(1.1505785 0.031913597 0)
(1.1583443 0.032636506 0)
(1.1651176 0.030827408 0)
(1.1710315 0.026414532 0)
(1.1762235 0.019343573 0)
(1.1808297 0.0095786639 0)
(1.1849814 -0.0028964435 0)
(1.1888022 -0.018077395 0)
(1.1924061 -0.035938627 0)
(1.1958954 -0.056433267 0)
(1.1993598 -0.079493458 0)
(1.2028753 -0.10503093 0)
(1.2065041 -0.13293804 0)
(1.210294 -0.16308895 0)
(1.2142792 -0.19534115 0)
(1.2184804 -0.22953699 0)
(1.2229054 -0.26550548 0)
(1.2275501 -0.30306413 0)
(1.2323996 -0.34202085 0)
(1.2374292 -0.3821759 0)
(1.2426056 -0.42332394 0)
(1.2478879 -0.46525594 0)
(1.2532293 -0.50776117 0)
(1.258578 -0.55062908 0)
(1.2638786 -0.59365111 0)
(1.2690729 -0.63662237 0)
(1.2741015 -0.67934326 0)
(1.2789041 -0.72162083 0)
(1.2834209 -0.76327013 0)
(1.2875929 -0.80411538 0)
(1.2913622 -0.84399106 0)
(1.2946727 -0.88274292 0)
(1.2974715 -0.92022881 0)
(1.2997142 -0.95631878 0)
(1.3013744 -0.99089407 0)
(1.3024383 -1.0238459 0)
(1.3028333 -1.0550788 0)
(1.3024966 -1.0845166 0)
(1.3013628 -1.1120941 0)
(1.2994465 -1.1377206 0)
(1.2968132 -1.1614092 0)
(1.293471 -1.1831482 0)
(1.2893916 -1.2027895 0)
(1.2844537 -1.2203509 0)
(1.2786769 -1.2358508 0)
(1.272132 -1.2493104 0)
(1.2648027 -1.2607379 0)
(1.2566909 -1.2701486 0)
(1.1072812 0.007109093 0)
(1.1207441 0.019523189 0)
(1.1327116 0.029730421 0)
(1.143242 0.037538588 0)
(1.1525181 0.042787154 0)
(1.1606791 0.045342137 0)
(1.1678614 0.04509458 0)
(1.1742111 0.041960061 0)
(1.1798786 0.035878669 0)
(1.1850127 0.026815358 0)
(1.1897568 0.014760406 0)
(1.1942452 -0.00027034054 0)
(1.1986013 -0.018235678 0)
(1.2029346 -0.039069687 0)
(1.2073402 -0.0626827 0)
(1.211897 -0.088962598 0)
(1.2166676 -0.11777641 0)
(1.221698 -0.14897212 0)
(1.2270183 -0.18238063 0)
(1.2326428 -0.21781785 0)
(1.2385713 -0.25508688 0)
(1.2447899 -0.29398018 0)
(1.2512727 -0.33428189 0)
(1.2579828 -0.37577005 0)
(1.264874 -0.4182188 0)
(1.2718925 -0.46140061 0)
(1.2789781 -0.50508833 0)
(1.2860659 -0.54905719 0)
(1.2930875 -0.59308663 0)
(1.2999729 -0.63696201 0)
(1.3066512 -0.68047612 0)
(1.3130516 -0.72343055 0)
(1.3191049 -0.76563682 0)
(1.3247433 -0.80691749 0)
(1.3299013 -0.84710714 0)
(1.3345156 -0.88605324 0)
(1.3385276 -0.9236168 0)
(1.3418891 -0.95967186 0)
(1.3445719 -0.99410385 0)
(1.3465586 -1.0268119 0)
(1.3477764 -1.0577202 0)
(1.3481652 -1.086737 0)
(1.3476845 -1.1138032 0)
(1.3462817 -1.1388337 0)
(1.3439722 -1.1618886 0)
(1.3409639 -1.1830004 0)
(1.3372352 -1.2019193 0)
(1.3325075 -1.2186896 0)
(1.3268049 -1.2333536 0)
(1.3202363 -1.2459556 0)
(1.3128134 -1.2565079 0)
(1.3045407 -1.2650299 0)
(1.1075566 0.008488658 0)
(1.121521 0.023572557 0)
(1.133938 0.036288602 0)
(1.1448834 0.046401322 0)
(1.1545606 0.053714413 0)
(1.1631263 0.058065584 0)
(1.1707344 0.05932526 0)
(1.1775486 0.05739615 0)
(1.1837363 0.052212939 0)
(1.1894619 0.04374214 0)
(1.1948825 0.031981883 0)
(1.2001448 0.016961363 0)
(1.2053811 -0.0012602021 0)
(1.2107081 -0.022595016 0)
(1.2162244 -0.04692844 0)
(1.2220097 -0.074121134 0)
(1.2281247 -0.10401138 0)
(1.2346107 -0.13641756 0)
(1.2414902 -0.17114079 0)
(1.2487678 -0.20796748 0)
(1.2564318 -0.24667211 0)
(1.2644551 -0.2870198 0)
(1.2727972 -0.32876902 0)
(1.2814061 -0.37167413 0)
(1.29022 -0.41548784 0)
(1.2991693 -0.45996363 0)
(1.3081782 -0.50485789 0)
(1.3171669 -0.54993201 0)
(1.326053 -0.59495424 0)
(1.3347533 -0.63970128 0)
(1.3431847 -0.68395974 0)
(1.351266 -0.72752736 0)
(1.3589183 -0.77021399 0)
(1.3660656 -0.81184255 0)
(1.3726349 -0.85224981 0)
(1.3785569 -0.89128718 0)
(1.3837684 -0.92882101 0)
(1.3882207 -0.96473114 0)
(1.3918843 -0.99890687 0)
(1.3947262 -1.0312505 0)
(1.3966951 -1.0617177 0)
(1.3977399 -1.0902129 0)
(1.3978207 -1.1167072 0)
(1.3968287 -1.1411015 0)
(1.3947083 -1.1633753 0)
(1.3919166 -1.1835404 0)
(1.3884433 -1.2015811 0)
(1.3838065 -1.2175226 0)
(1.3780555 -1.2313331 0)
(1.3713349 -1.2430379 0)
(1.3636919 -1.2526663 0)
(1.3551321 -1.2602502 0)
(1.1078595 0.0099041134 0)
(1.1223666 0.027712942 0)
(1.1352608 0.042971323 0)
(1.1466403 0.055399121 0)
(1.1567349 0.064763319 0)
(1.1657245 0.070872799 0)
(1.1737859 0.073577368 0)
(1.1811051 0.072767459 0)
(1.1878702 0.068373588 0)
(1.1942644 0.060365702 0)
(1.200461 0.048752255 0)
(1.2066191 0.03357879 0)
(1.212881 0.014925968 0)
(1.2193687 -0.0070926807 0)
(1.226183 -0.032333549 0)
(1.2334022 -0.060626004 0)
(1.2410816 -0.091775573 0)
(1.2492544 -0.12556722 0)
(1.2579317 -0.16176868 0)
(1.2671048 -0.20013374 0)
(1.276746 -0.24040552 0)
(1.2868113 -0.2823196 0)
(1.2972422 -0.32560715 0)
(1.307968 -0.36999773 0)
(1.3189082 -0.41522212 0)
(1.3299748 -0.46101478 0)
(1.3410747 -0.50711616 0)
(1.3521113 -0.55327478 0)
(1.3629871 -0.599249 0)
(1.3736047 -0.64480852 0)
(1.383869 -0.68973566 0)
(1.393688 -0.73382636 0)
(1.402974 -0.77689092 0)
(1.4116431 -0.81875464 0)
(1.419616 -0.85925838 0)
(1.4268179 -0.89825895 0)
(1.4331832 -0.93562921 0)
(1.438666 -0.97125646 0)
(1.4432434 -1.0050397 0)
(1.4468484 -1.0368937 0)
(1.449443 -1.066782 0)
(1.4509837 -1.0946458 0)
(1.4514699 -1.1204388 0)
(1.4508702 -1.1440807 0)
(1.4490935 -1.1654803 0)
(1.4463921 -1.1846003 0)
(1.4427614 -1.2016862 0)
(1.4379609 -1.2167033 0)
(1.4320453 -1.2295758 0)
(1.4250818 -1.2403124 0)
(1.4171044 -1.2489559 0)
(1.408133 -1.2555488 0)
(1.1081919 0.011366686 0)
(1.1232873 0.03197505 0)
(1.136692 0.049824104 0)
(1.1485313 0.064586696 0)
(1.1590679 0.075991696 0)
(1.1685104 0.083818621 0)
(1.1770639 0.087897048 0)
(1.1849416 0.088106431 0)
(1.1923565 0.084375292 0)
(1.1995135 0.076679977 0)
(1.2066036 0.065042892 0)
(1.2137998 0.049530055 0)
(1.2212533 0.030248258 0)
(1.2290905 0.0073415758 0)
(1.2374121 -0.019012494 0)
(1.2462916 -0.048607173 0)
(1.2557756 -0.081210601 0)
(1.2658845 -0.11657004 0)
(1.2766142 -0.15441601 0)
(1.2879375 -0.19446641 0)
(1.2998069 -0.23643034 0)
(1.3121568 -0.28001187 0)
(1.3249069 -0.32491352 0)
(1.3379643 -0.37083945 0)
(1.3512268 -0.41749849 0)
(1.3645858 -0.46460668 0)
(1.3779285 -0.51188969 0)
(1.3911406 -0.55908472 0)
(1.4041082 -0.6059422 0)
(1.4167201 -0.65222708 0)
(1.4288691 -0.6977198 0)
(1.4404533 -0.74221698 0)
(1.4513768 -0.78553187 0)
(1.4615499 -0.8274945 0)
(1.4708887 -0.86795175 0)
(1.4793155 -0.90676722 0)
(1.4867636 -0.94382061 0)
(1.4931881 -0.97900674 0)
(1.4985634 -1.0122396 0)
(1.5028145 -1.0434677 0)
(1.5058972 -1.0726326 0)
(1.5078103 -1.0997173 0)
(1.5085808 -1.124635 0)
(1.5081979 -1.1473546 0)
(1.5065926 -1.1678268 0)
(1.5038254 -1.18601 0)
(1.4999141 -1.2021065 0)
(1.4948247 -1.2160638 0)
(1.4885849 -1.2278674 0)
(1.4812181 -1.2375436 0)
(1.4727562 -1.2451337 0)
(1.4632291 -1.2506825 0)
(1.1085559 0.01288667 0)
(1.1242899 0.036386737 0)
(1.1382434 0.05688769 0)
(1.1505749 0.074012154 0)
(1.1615861 0.087449056 0)
(1.1715207 0.096948015 0)
(1.1806177 0.10231914 0)
(1.1891225 0.10343291 0)
(1.1972769 0.100219 0)
(1.2053105 0.092664231 0)
(1.2134339 0.080809729 0)
(1.2218341 0.06474752 0)
(1.2306703 0.044616318 0)
(1.2400715 0.020596705 0)
(1.2501349 -0.0070940544 0)
(1.2609253 -0.038207378 0)
(1.2724761 -0.072468757 0)
(1.2847904 -0.10958303 0)
(1.297843 -0.1492395 0)
(1.3115837 -0.19111684 0)
(1.3259398 -0.23488768 0)
(1.34082 -0.2802229 0)
(1.3561177 -0.32679555 0)
(1.3717144 -0.37428435 0)
(1.3874835 -0.42237682 0)
(1.4032933 -0.47077194 0)
(1.4190101 -0.51918241 0)
(1.4345006 -0.5673364 0)
(1.449635 -0.61497905 0)
(1.4642879 -0.66187337 0)
(1.4783412 -0.70780088 0)
(1.4916842 -0.75256192 0)
(1.5042148 -0.7959756 0)
(1.5158394 -0.83787951 0)
(1.5264722 -0.8781292 0)
(1.536036 -0.91659731 0)
(1.5444665 -0.95317213 0)
(1.5517177 -0.98775656 0)
(1.5577431 -1.020277 0)
(1.5624859 -1.0507205 0)
(1.565907 -1.0790214 0)
(1.5680396 -1.1051752 0)
(1.5689408 -1.1291056 0)
(1.568575 -1.1508005 0)
(1.5669076 -1.1702436 0)
(1.5639118 -1.1874232 0)
(1.5596276 -1.202423 0)
(1.5541204 -1.2152413 0)
(1.5473825 -1.2259102 0)
(1.5394409 -1.2344665 0)
(1.5303345 -1.2409526 0)
(1.5200997 -1.2454164 0)
(1.1089538 0.014473813 0)
(1.1253814 0.040974008 0)
(1.1399276 0.064199413 0)
(1.1527899 0.083718417 0)
(1.1643169 0.099177811 0)
(1.1747938 0.11029684 0)
(1.1844996 0.11686735 0)
(1.193717 0.11875366 0)
(1.202721 0.11589079 0)
(1.2117685 0.10828123 0)
(1.2210907 0.095991122 0)
(1.2308885 0.0791453 0)
(1.2413275 0.057921502 0)
(1.2525362 0.032543935 0)
(1.2646042 0.0032765525 0)
(1.2775831 -0.029583789 0)
(1.291487 -0.065714082 0)
(1.306296 -0.10477169 0)
(1.3219581 -0.14640054 0)
(1.3383941 -0.1902369 0)
(1.355501 -0.23591479 0)
(1.3731567 -0.28307073 0)
(1.3912243 -0.33134814 0)
(1.4095565 -0.38040097 0)
(1.4279995 -0.42989695 0)
(1.4463969 -0.4795201 0)
(1.4645931 -0.52897278 0)
(1.4824358 -0.57797724 0)
(1.4997792 -0.62627654 0)
(1.5164854 -0.67363515 0)
(1.5324262 -0.71983913 0)
(1.5474844 -0.76469581 0)
(1.561554 -0.80803337 0)
(1.57454 -0.84969988 0)
(1.5863579 -0.88956222 0)
(1.5969345 -0.92750433 0)
(1.6062122 -0.9634249 0)
(1.6141464 -0.99724032 0)
(1.6206582 -1.0289059 0)
(1.6257097 -1.0584046 0)
(1.6292907 -1.0857175 0)
(1.6314569 -1.1108014 0)
(1.6322856 -1.1336209 0)
(1.6317379 -1.1541882 0)
(1.6297869 -1.1724825 0)
(1.6264058 -1.1885341 0)
(1.6216321 -1.2023411 0)
(1.6155315 -1.2139653 0)
(1.6081181 -1.2234523 0)
(1.5994321 -1.2308443 0)
(1.5895192 -1.2361886 0)
(1.5784226 -1.2395371 0)
(1.1093886 0.016137593 0)
(1.1265698 0.0457617 0)
(1.1417578 0.071794103 0)
(1.1551966 0.093744145 0)
(1.1672899 0.11121399 0)
(1.1783715 0.12389216 0)
(1.1887671 0.13155406 0)
(1.1988024 0.13406162 0)
(1.2087895 0.13136046 0)
(1.2190149 0.12347553 0)
(1.2297313 0.11050574 0)
(1.2411521 0.092617029 0)
(1.253447 0.07003464 0)
(1.2667394 0.0430348 0)
(1.2811064 0.011936121 0)
(1.2965796 -0.022908996 0)
(1.3131479 -0.061122689 0)
(1.330761 -0.10230955 0)
(1.3493338 -0.14606402 0)
(1.3687515 -0.19197713 0)
(1.3888751 -0.23964261 0)
(1.4095469 -0.28866227 0)
(1.4305957 -0.33865048 0)
(1.4518424 -0.3892381 0)
(1.473104 -0.44007545 0)
(1.4941983 -0.49083465 0)
(1.5149476 -0.54121128 0)
(1.5351813 -0.59092541 0)
(1.5547389 -0.639722 0)
(1.5734714 -0.68737096 0)
(1.5912435 -0.73366662 0)
(1.6079337 -0.77842698 0)
(1.623435 -0.82149255 0)
(1.6376544 -0.86272495 0)
(1.6505124 -0.90200522 0)
(1.6619446 -0.93923131 0)
(1.6718992 -0.97431519 0)
(1.6803149 -1.0071898 0)
(1.6871189 -1.0378547 0)
(1.692272 -1.0662704 0)
(1.6958121 -1.092469 0)
(1.6978367 -1.1163716 0)
(1.6983832 -1.1379483 0)
(1.6974442 -1.1572516 0)
(1.6950032 -1.1742781 0)
(1.6910459 -1.1890706 0)
(1.6856071 -1.2016258 0)
(1.678732 -1.2120106 0)
(1.6704682 -1.2202753 0)
(1.6608695 -1.2264686 0)
(1.6499892 -1.2306434 0)
(1.6378773 -1.2328565 0)
(1.109863 0.01788741 0)
(1.1278636 0.050773976 0)
(1.1437486 0.079704698 0)
(1.1578173 0.10412428 0)
(1.1705376 0.12358752 0)
(1.1823004 0.13775218 0)
(1.193485 0.1463798 0)
(1.2044662 0.14933473 0)
(1.215597 0.14658001 0)
(1.2271953 0.13817157 0)
(1.2395355 0.12425048 0)
(1.2528412 0.10503371 0)
(1.2672817 0.080804082 0)
(1.2829701 0.051899563 0)
(1.299964 0.018702439 0)
(1.3182676 -0.018371336 0)
(1.3378364 -0.058882293 0)
(1.3585821 -0.10237692 0)
(1.3803785 -0.14839634 0)
(1.4030689 -0.19648403 0)
(1.4264723 -0.24619265 0)
(1.4503906 -0.29708972 0)
(1.4746148 -0.34876239 0)
(1.4989314 -0.40082106 0)
(1.5231272 -0.45290217 0)
(1.546994 -0.50467004 0)
(1.5703327 -0.55581785 0)
(1.5929559 -0.60606807 0)
(1.6146906 -0.65517217 0)
(1.6353799 -0.70290985 0)
(1.6548838 -0.74908801 0)
(1.6730802 -0.7935391 0)
(1.6898648 -0.83611948 0)
(1.7051497 -0.87670724 0)
(1.7188644 -0.91519975 0)
(1.7309559 -0.95151054 0)
(1.741382 -0.98557015 0)
(1.7500546 -1.0173478 0)
(1.7569166 -1.0468404 0)
(1.7619422 -1.0740414 0)
(1.7652152 -1.0989584 0)
(1.7669068 -1.1215982 0)
(1.7669921 -1.141835 0)
(1.7654476 -1.1597461 0)
(1.7622959 -1.1754104 0)
(1.7575425 -1.1888475 0)
(1.75123 -1.2000891 0)
(1.7433976 -1.2091872 0)
(1.7341104 -1.2161924 0)
(1.7234328 -1.2211591 0)
(1.7114265 -1.2241452 0)
(1.6981488 -1.2252118 0)
(1.1103806 0.01973274 0)
(1.1292724 0.056034659 0)
(1.1459162 0.087962624 0)
(1.1606766 0.11489029 0)
(1.1740965 0.1363222 0)
(1.186633 0.15188578 0)
(1.1987273 0.16133221 0)
(1.2108087 0.16453448 0)
(1.2232752 0.16148187 0)
(1.2364776 0.15227159 0)
(1.2507102 0.13709822 0)
(1.2662033 0.11624165 0)
(1.28312 0.090053994 0)
(1.3015558 0.058946077 0)
(1.3215399 0.023373892 0)
(1.3430403 -0.016174435 0)
(1.3659696 -0.059190888 0)
(1.3901925 -0.10515872 0)
(1.4155339 -0.15356245 0)
(1.4417875 -0.20389659 0)
(1.4687249 -0.25567293 0)
(1.4961032 -0.3084265 0)
(1.5236727 -0.36172016 0)
(1.551184 -0.41514788 0)
(1.5783934 -0.46833691 0)
(1.6050679 -0.52094883 0)
(1.6309886 -0.57267981 0)
(1.6559543 -0.62326001 0)
(1.6797827 -0.67245248 0)
(1.7023123 -0.72005162 0)
(1.7234028 -0.76588124 0)
(1.7429356 -0.80979246 0)
(1.7608127 -0.85166112 0)
(1.7769569 -0.89138485 0)
(1.7913108 -0.9288793 0)
(1.8038341 -0.96407553 0)
(1.8144734 -0.99692456 0)
(1.8231539 -1.0274444 0)
(1.8298293 -1.0555979 0)
(1.8345004 -1.0814088 0)
(1.8372405 -1.1048902 0)
(1.838342 -1.1262161 0)
(1.837812 -1.1450269 0)
(1.8354568 -1.1614532 0)
(1.8313616 -1.1756689 0)
(1.8255973 -1.1876879 0)
(1.8181978 -1.1975582 0)
(1.8092184 -1.2053251 0)
(1.798732 -1.2110397 0)
(1.7868099 -1.2147598 0)
(1.7735212 -1.2165468 0)
(1.7589308 -1.2164647 0)
(1.110945 0.021683249 0)
(1.1308069 0.06156748 0)
(1.1482786 0.096598003 0)
(1.1638023 0.12607017 0)
(1.1780082 0.14943532 0)
(1.19143 0.16629164 0)
(1.2045791 0.17638461 0)
(1.2179462 0.17960418 0)
(1.231977 0.17597669 0)
(1.2470558 0.16565323 0)
(1.2634936 0.14889557 0)
(1.2815221 0.12606049 0)
(1.3012904 0.097582958 0)
(1.3228664 0.06395915 0)
(1.3462407 0.025729733 0)
(1.371334 -0.016535969 0)
(1.3980054 -0.062254529 0)
(1.4260625 -0.11084137 0)
(1.4552725 -0.16172207 0)
(1.4853731 -0.21434192 0)
(1.5160824 -0.26817351 0)
(1.5471093 -0.32272261 0)
(1.5781616 -0.37753227 0)
(1.6089538 -0.43218544 0)
(1.6392127 -0.48630609 0)
(1.6686827 -0.53955928 0)
(1.6971288 -0.59165029 0)
(1.7243394 -0.64232289 0)
(1.7501275 -0.69135726 0)
(1.7743317 -0.73856744 0)
(1.7968158 -0.78379883 0)
(1.8174689 -0.8269253 0)
(1.8362046 -0.8678461 0)
(1.8529608 -0.90648083 0)
(1.8676976 -0.9427633 0)
(1.8803898 -0.97664718 0)
(1.8909663 -1.0081282 0)
(1.8993869 -1.0372227 0)
(1.9056426 -1.0639114 0)
(1.90971 -1.0881613 0)
(1.9115608 -1.1100685 0)
(1.9118123 -1.1299659 0)
(1.9105337 -1.1472247 0)
(1.9071661 -1.1621264 0)
(1.9018937 -1.1748318 0)
(1.8948904 -1.1853958 0)
(1.8861993 -1.1938586 0)
(1.8758847 -1.2002656 0)
(1.8640242 -1.2046713 0)
(1.8506945 -1.207136 0)
(1.8359715 -1.2077239 0)
(1.8199272 -1.206501 0)
(1.1115604 0.02374889 0)
(1.1324787 0.067396255 0)
(1.1508558 0.10563972 0)
(1.1672259 0.13768819 0)
(1.1823204 0.16293702 0)
(1.1967613 0.1809569 0)
(1.2111399 0.1914943 0)
(1.226014 0.19446669 0)
(1.2418804 0.18995081 0)
(1.2591549 0.17816696 0)
(1.2781608 0.1594605 0)
(1.299123 0.13428137 0)
(1.3221662 0.1031629 0)
(1.3473188 0.066700454 0)
(1.3745199 0.025531085 0)
(1.4036299 -0.019685531 0)
(1.4344423 -0.068284154 0)
(1.4666973 -0.11960873 0)
(1.5000956 -0.17302492 0)
(1.5343115 -0.22793015 0)
(1.5690056 -0.28376123 0)
(1.6038359 -0.33999968 0)
(1.6384674 -0.39617492 0)
(1.6725797 -0.4518657 0)
(1.7058729 -0.50669993 0)
(1.7380725 -0.56035335 0)
(1.7689322 -0.6125472 0)
(1.7982354 -0.66304525 0)
(1.8257958 -0.71165047 0)
(1.8514574 -0.75820162 0)
(1.8750932 -0.80256998 0)
(1.896605 -0.84465651 0)
(1.9159232 -0.88438827 0)
(1.933009 -0.92171014 0)
(1.9478419 -0.95657137 0)
(1.9603863 -0.9889527 0)
(1.9705917 -1.0189117 0)
(1.9784586 -1.0464462 0)
(1.9840491 -1.0715857 0)
(1.9872982 -1.0942452 0)
(1.9879483 -1.1144967 0)
(1.9870943 -1.13242 0)
(1.9848416 -1.1480611 0)
(1.9802077 -1.1614781 0)
(1.9735463 -1.172697 0)
(1.9650904 -1.1817966 0)
(1.954914 -1.1888362 0)
(1.9430841 -1.1938716 0)
(1.9296813 -1.1969636 0)
(1.9147877 -1.1981762 0)
(1.8984856 -1.197576 0)
(1.8808537 -1.1952302 0)
(1.1122313 0.025939997 0)
(1.1343009 0.073545002 0)
(1.1536705 0.11511535 0)
(1.1709833 0.14976457 0)
(1.1870882 0.17682914 0)
(1.2027084 0.19585562 0)
(1.2185256 0.20660044 0)
(1.2351708 0.20902175 0)
(1.2531929 0.2032633 0)
(1.2730364 0.18963326 0)
(1.2950293 0.1685799 0)
(1.3193785 0.14066528 0)
(1.3461711 0.10653845 0)
(1.375381 0.066909115 0)
(1.4068805 0.022522833 0)
(1.4404551 -0.0258615 0)
(1.4758196 -0.077491359 0)
(1.5126354 -0.13163705 0)
(1.5505281 -0.18760516 0)
(1.5891029 -0.24474871 0)
(1.6279596 -0.30247424 0)
(1.6667045 -0.36024599 0)
(1.704961 -0.41758769 0)
(1.7423769 -0.4740823 0)
(1.7786305 -0.52937008 0)
(1.813434 -0.58314546 0)
(1.8465358 -0.6351531 0)
(1.8777209 -0.68518335 0)
(1.9068105 -0.73306766 0)
(1.9336601 -0.77867404 0)
(1.9581572 -0.82190349 0)
(1.98022 -0.86268791 0)
(1.999801 -0.90098774 0)
(2.0168954 -0.93677833 0)
(2.0315036 -0.97001294 0)
(2.0435638 -1.0007296 0)
(2.0530564 -1.0289919 0)
(2.0600302 -1.054827 0)
(2.0646207 -1.0782376 0)
(2.0668069 -1.0992053 0)
(2.0664373 -1.1177273 0)
(2.0642222 -1.1336078 0)
(2.060293 -1.1475854 0)
(2.0541258 -1.1594512 0)
(2.0459204 -1.1691535 0)
(2.0358548 -1.1767674 0)