/*--------------------------------*- C++ -*----------------------------------*\
| =========                 |                                                 |
| \\      /  F ield         | OpenFOAM: The Open Source CFD Toolbox           |
|  \\    /   O peration     | Version:  2312                                  |
|   \\  /    A nd           | Website:  www.openfoam.com                      |
|    \\/     M anipulation  |                                                 |
\*---------------------------------------------------------------------------*/
FoamFile
{
    version     2.0;
    format      ascii;
    arch        "LSB;label=32;scalar=64";
    class       volScalarField;
    location    "0.09";
    object      alphat;
}
// * * * * * * * * * * * * * * * * * * * * * * * * * * * * * * * * * * * * * //

dimensions      [1 -1 -1 0 0 0 0];

internalField   nonuniform List<scalar> 
3221
(
0.02817498
0.027995536
0.027822327
0.027655145
0.027493721
0.027337758
0.027186938
0.027040927
0.026899382
0.026761961
0.026628323
0.026498139
0.026371094
0.026246895
0.026125273
0.026005994
0.025888855
0.025773689
0.025660367
0.025548794
0.025438916
0.02533071
0.025224188
0.025119391
0.025016387
0.024915266
0.02481614
0.024719132
0.024624286
0.024531873
0.024442073
0.024354966
0.0242707
0.024189416
0.02411125
0.024036328
0.023964769
0.023896678
0.023832154
0.023771281
0.023714135
0.02366078
0.023611271
0.023565653
0.023523964
0.023486232
0.023452482
0.02342273
0.023396989
0.023375267
0.023357571
0.023343905
0.028174262
0.027993452
0.027818799
0.027650085
0.027487042
0.027329375
0.027176773
0.027028909
0.026885449
0.026746058
0.026610401
0.02647816
0.026349028
0.026222724
0.026098994
0.025977611
0.025858384
0.025741156
0.025625807
0.025512254
0.025400449
0.025290382
0.025182071
0.025075565
0.024970939
0.024868291
0.024767734
0.0246694
0.024573302
0.024479824
0.024389028
0.024301038
0.024216001
0.024134058
0.024055341
0.023979975
0.023908072
0.023839736
0.023775059
0.02371412
0.023656989
0.023603725
0.023554377
0.023508983
0.023467576
0.023430178
0.023396807
0.023367475
0.02334219
0.023320954
0.02330377
0.023290635
0.028172966
0.027989429
0.02781188
0.027640111
0.027473862
0.027312848
0.027156764
0.027005293
0.026858112
0.026714897
0.02657533
0.026439109
0.026305947
0.026175581
0.026047778
0.025922335
0.025799085
0.025677896
0.025558676
0.025441365
0.025325937
0.02521239
0.025100752
0.024991088
0.024883484
0.02477805
0.024674908
0.02457414
0.024475913
0.024380511
0.024287985
0.024198484
0.024112153
0.024029127
0.023949534
0.02387349
0.023801101
0.023732459
0.023667646
0.023606731
0.023549772
0.023496815
0.023447898
0.023403047
0.023362282
0.023325616
0.023293054
0.023264597
0.023240244
0.023219988
0.023203822
0.023191732
0.028171089
0.027983596
0.027801832
0.027625606
0.02745468
0.027288784
0.027127629
0.026970915
0.026818334
0.026669585
0.026524373
0.026382419
0.026243465
0.026107277
0.025973653
0.025842423
0.025713453
0.025586646
0.02546194
0.025339308
0.025218756
0.025100324
0.024984072
0.024870065
0.024758391
0.024649175
0.024542535
0.024438528
0.024337542
0.024239602
0.024144859
0.024053459
0.023965541
0.02388123
0.023800646
0.023723891
0.023651056
0.023582219
0.023517445
0.023456785
0.023400279
0.023347956
0.023299836
0.023255927
0.023216233
0.023180748
0.023149464
0.023122366
0.023099438
0.02308066
0.023066013
0.023055472
0.02816865
0.02797602
0.027788775
0.027606751
0.027429736
0.027257488
0.027089742
0.026926224
0.026766655
0.026610762
0.026458284
0.026308976
0.026162616
0.026019013
0.025878004
0.025739461
0.025603294
0.025469445
0.025337896
0.025208658
0.025081776
0.024957321
0.024835389
0.024716096
0.024599558
0.024485864
0.024375028
0.024267482
0.024163243
0.024062466
0.023965298
0.023871878
0.023782334
0.02369678
0.023615315
0.023538025
0.023464979
0.023396234
0.023331829
0.023271795
0.023216145
0.023164887
0.023118014
0.023075515
0.023037369
0.023003553
0.022974036
0.022948786
0.022927769
0.022910951
0.022898295
0.022889765
0.02816566
0.027966738
0.027772785
0.027583667
0.027399206
0.027219195
0.027043405
0.0268716
0.02670354
0.026538992
0.026377738
0.02621958
0.026064346
0.025911891
0.025762107
0.025614918
0.025470284
0.025328201
0.025188696
0.02505183
0.024917688
0.024786382
0.02465804
0.024532805
0.024410821
0.024292132
0.024177071
0.024065664
0.02395807
0.02385444
0.023754914
0.023659618
0.02356866
0.023482134
0.023400115
0.023322663
0.023249819
0.023181608
0.023118043
0.023059121
0.023004829
0.022955143
0.02291003
0.022869451
0.02283336
0.022801708
0.022774445
0.022751517
0.02273287
0.022718453
0.022708214
0.022702102
0.028162122
0.027955764
0.027753892
0.027556407
0.027363174
0.02717403
0.026988796
0.026807282
0.026629302
0.026454676
0.026283242
0.026114861
0.02594942
0.025786839
0.02562707
0.025470099
0.02531595
0.025164675
0.02501636
0.024871116
0.024729075
0.024590387
0.024455216
0.024323698
0.024195973
0.024072373
0.023952957
0.023837791
0.023727028
0.023620808
0.023519253
0.023422469
0.023330539
0.023243525
0.02316147
0.023084398
0.023012316
0.022945212
0.022883061
0.022825826
0.022773459
0.022725901
0.022683088
0.022644952
0.022611419
0.022582414
0.022557862
0.022537688
0.02252182
0.022510187
0.022502723
0.022499362
0.028158031
0.027943083
0.027732077
0.027524957
0.02732164
0.02712202
0.026925976
0.026733384
0.02654412
0.026358076
0.026175159
0.025995303
0.025818468
0.025644649
0.025473871
0.025306195
0.025141711
0.024980541
0.024822828
0.02466874
0.024518459
0.024372166
0.024229981
0.024092207
0.023959048
0.023830622
0.023707084
0.023588547
0.02347507
0.023366777
0.023263764
0.023166102
0.02307384
0.022987
0.022905582
0.022829567
0.022758918
0.022693581
0.022633488
0.022578561
0.022528714
0.022483852
0.022443877
0.022408688
0.022378183
0.022352262
0.022330825
0.022313776
0.022301025
0.022292483
0.022288069
0.022287707
0.028153371
0.027928655
0.02770728
0.027489244
0.027274529
0.027063097
0.026854904
0.026649903
0.026448055
0.026249334
0.026053735
0.025861277
0.025672012
0.025486018
0.025303408
0.025124323
0.024948931
0.024777424
0.024610008
0.024446905
0.024288359
0.024134397
0.02398559
0.023841951
0.023703681
0.023570942
0.023443873
0.023322586
0.023207088
0.023097463
0.022993766
0.022896022
0.02280423
0.022718361
0.022638367
0.022564175
0.022495697
0.022432833
0.022375466
0.022323477
0.022276736
0.022235113
0.022198473
0.022166686
0.022139621
0.022117152
0.022099157
0.022085521
0.022076137
0.022070902
0.022069722
0.02207251
0.02814812
0.027912415
0.027679398
0.027449137
0.027221691
0.026997111
0.026775445
0.026556743
0.026341067
0.026128493
0.02591912
0.025713071
0.025510499
0.025311584
0.025116532
0.024925575
0.024738963
0.024556959
0.024379829
0.024207813
0.02404114
0.023880241
0.023725232
0.023576311
0.023433652
0.023297394
0.023167642
0.023044466
0.02292787
0.02281785
0.02271441
0.022617518
0.022527111
0.022443103
0.022365382
0.022293821
0.022228274
0.022168589
0.022114601
0.022066145
0.02202305
0.021985149
0.021952275
0.021924266
0.021900967
0.021882229
0.021867911
0.021857881
0.021852018
0.021850208
0.021852348
0.021858343
0.028142247
0.027894274
0.027648288
0.027404448
0.027162911
0.026923835
0.026687381
0.02645372
0.026223033
0.025995518
0.025771398
0.025550916
0.02533434
0.025121963
0.024914093
0.024711057
0.02451319
0.024320833
0.02413415
0.023953733
0.023779762
0.023612477
0.0234521
0.023298813
0.023152755
0.023014023
0.022882668
0.0227587
0.022642082
0.022532745
0.022430619
0.022335602
0.022247561
0.022166338
0.022091757
0.022023627
0.021961744
0.021905902
0.021855888
0.021811491
0.021772503
0.021738721
0.021709949
0.021685998
0.021666692
0.021651862
0.021641352
0.021635019
0.021632729
0.021634363
0.021639811
0.021648973
0.028135712
0.027874115
0.027613768
0.02735494
0.027097911
0.026842973
0.026590427
0.026340583
0.026093767
0.025850324
0.025610616
0.025375022
0.025143943
0.02491779
0.02469698
0.024481933
0.024273061
0.024070605
0.023875287
0.023687237
0.023506763
0.023334113
0.023169483
0.023013012
0.022864787
0.022724837
0.022593142
0.022469633
0.022354198
0.022246713
0.022147023
0.022054941
0.021970254
0.021892729
0.021822119
0.021758167
0.021700614
0.021649198
0.021603661
0.021563753
0.021529228
0.021499854
0.02147541
0.021455686
0.021440489
0.021429635
0.02142296
0.02142031
0.021421548
0.021426549
0.021435201
0.021447405
0.028128465
0.0278518
0.027575617
0.027300325
0.027026359
0.026754173
0.026484235
0.026217027
0.025953045
0.025692798
0.02543681
0.025185614
0.024939751
0.024699763
0.024466163
0.024239357
0.024020014
0.023808571
0.023605368
0.023410739
0.02322496
0.023048241
0.022880723
0.022722476
0.022573507
0.022433756
0.022303109
0.022181402
0.022068429
0.021964008
0.021867885
0.02177978
0.021699395
0.021626417
0.021560529
0.021501412
0.021448749
0.021402231
0.02136156
0.021326447
0.021296621
0.021271825
0.021251817
0.021236374
0.021225289
0.021218374
0.021215456
0.02121638
0.021221006
0.021229211
0.021240885
0.021255928
0.02812045
0.027827165
0.027533575
0.027240268
0.02694787
0.02665703
0.026368418
0.026082717
0.025800621
0.025522828
0.025250041
0.024982959
0.024722268
0.02446868
0.024222484
0.023984884
0.023756068
0.023536545
0.023326708
0.02312687
0.022937257
0.022758009
0.022589181
0.022430743
0.022282593
0.02214456
0.022016413
0.021897875
0.021788666
0.021688506
0.021597036
0.02151388
0.021438653
0.021370966
0.021310435
0.021256682
0.02120934
0.02116806
0.021132508
0.021102369
0.021077349
0.021057175
0.021041593
0.021030371
0.021023298
0.021020182
0.021020852
0.021025153
0.021032949
0.021044121
0.021058567
0.021076177
0.028111599
0.02780002
0.027487349
0.027174395
0.026862015
0.026551098
0.026242554
0.025937299
0.025636253
0.025340329
0.025050423
0.024767409
0.024492056
0.024225158
0.023967658
0.023720065
0.023482927
0.023256711
0.023041774
0.022838367
0.022646628
0.02246659
0.022298187
0.022141262
0.021995574
0.021860819
0.021736631
0.021622598
0.021518413
0.021423636
0.021337806
0.021260454
0.021191112
0.021129321
0.021074636
0.021026629
0.020984893
0.020949045
0.020918727
0.020893605
0.020873372
0.020857745
0.020846467
0.020839303
0.020836045
0.020836503
0.02084051
0.020847921
0.020858604
0.020872444
0.020889389
0.020909305
0.028101836
0.027770154
0.027436611
0.027102289
0.026768329
0.026435905
0.026106206
0.025780421
0.025459726
0.025145271
0.024838148
0.024539225
0.024249842
0.023970786
0.023702798
0.023446559
0.023202617
0.022971387
0.022753147
0.022548037
0.022356067
0.022177124
0.022010983
0.021857328
0.02171576
0.021585819
0.021466998
0.021358766
0.021260732
0.021172324
0.021092975
0.021022126
0.020959236
0.020903782
0.02085527
0.020813233
0.020777234
0.020746869
0.020721763
0.020701574
0.020685989
0.020674727
0.020667532
0.020664175
0.020664455
0.02066819
0.020675221
0.020685422
0.020698664
0.020714909
0.02073393
0.02075575
0.028091077
0.027737331
0.027381
0.0270235
0.026666315
0.026310955
0.025958935
0.025611753
0.025270865
0.02493771
0.024613197
0.02429932
0.023996764
0.02370654
0.023429476
0.023166235
0.022917306
0.022683007
0.022463484
0.022258717
0.022068541
0.021892654
0.021730644
0.021582004
0.021446158
0.021322475
0.021210289
0.021109043
0.021018152
0.020936937
0.020864734
0.020800909
0.020744857
0.020696007
0.020653828
0.020617826
0.020587547
0.020562576
0.020542534
0.020527079
0.020515903
0.020508731
0.020505317
0.020505444
0.020508925
0.02051559
0.020525273
0.020537986
0.0205534
0.020571554
0.020592356
0.020615752
0.028079226
0.027701292
0.027320124
0.026937548
0.026555453
0.026175746
0.025800318
0.02543101
0.025069531
0.024717411
0.02437664
0.024048352
0.02373374
0.023433827
0.023149422
0.022881118
0.022629286
0.022394085
0.022175468
0.021973207
0.021786912
0.021616056
0.021460006
0.021318047
0.021189409
0.02107329
0.020968887
0.020875611
0.020792661
0.020719262
0.020654674
0.020598199
0.020549187
0.020507033
0.020471184
0.020441133
0.020416421
0.020396634
0.020381398
0.020370383
0.020363292
0.020359863
0.020359868
0.020363102
0.020369404
0.020378643
0.020390675
0.020405328
0.020422564
0.020442317
0.020464525
0.020489143
0.028066179
0.027661753
0.027253562
0.026843923
0.026435207
0.02602978
0.025629957
0.025237811
0.024855546
0.024485336
0.02412871
0.023787183
0.023462019
0.023154222
0.022864519
0.022593362
0.022340933
0.022107161
0.021891751
0.021694206
0.02151387
0.021349957
0.021201592
0.021067836
0.020947718
0.020840257
0.020744671
0.020660114
0.020585678
0.020520505
0.020463794
0.020414804
0.020372853
0.020337323
0.020307653
0.020283336
0.020263921
0.020249005
0.020238232
0.020231286
0.020227894
0.020227813
0.020230834
0.020236753
0.020245588
0.020256908
0.020270779
0.020287086
0.020305761
0.020326748
0.020350005
0.020375499
0.028051821
0.027618408
0.027180865
0.026742095
0.026305031
0.025872568
0.025447264
0.025032069
0.024629491
0.024241548
0.023870147
0.023516882
0.023183015
0.022869458
0.022576779
0.022305206
0.022054651
0.021824746
0.021614877
0.021424234
0.021251855
0.021096671
0.020957546
0.020833319
0.020722829
0.020624992
0.020538946
0.020463632
0.020398057
0.020341305
0.020292534
0.020250979
0.02021595
0.020186826
0.020163055
0.020144145
0.020129664
0.020119229
0.020112508
0.020109212
0.020109091
0.020111929
0.020117568
0.020125866
0.020136565
0.020149636
0.020164999
0.020182581
0.020202325
0.020224194
0.020248159
0.020274202
0.028036028
0.02757093
0.02710156
0.026631513
0.026164379
0.02570335
0.025252214
0.024813994
0.024391315
0.023986591
0.023601847
0.023238693
0.022898299
0.0225814
0.022288304
0.022018924
0.021772819
0.021549245
0.021347216
0.021165563
0.02100299
0.020858127
0.020729581
0.020615969
0.020515953
0.020428532
0.020352495
0.020286705
0.020230116
0.020181776
0.020140826
0.020106497
0.020078107
0.020055051
0.020036799
0.020022885
0.020012905
0.020006507
0.020003388
0.020003286
0.020005992
0.020011407
0.020019186
0.020029266
0.02004156
0.020055982
0.020072466
0.020090961
0.02011143
0.020133849
0.020158207
0.020184498
0.028018665
0.027518967
0.027015145
0.026511611
0.026012359
0.02552213
0.025044684
0.024583402
0.02414136
0.023721155
0.023324863
0.022954011
0.022609577
0.022292005
0.022001235
0.021736765
0.021497712
0.021282891
0.021090891
0.020920149
0.020769021
0.020635836
0.020518947
0.02041677
0.020328026
0.020251403
0.020185583
0.02012937
0.020081686
0.020041567
0.02000816
0.019980713
0.019958567
0.019941149
0.01992796
0.019918573
0.019912618
0.019909783
0.0199098
0.019912419
0.019917676
0.019924997
0.01993449
0.01994603
0.019959534
0.019974936
0.019992191
0.020011267
0.020032143
0.020054813
0.020079278
0.020105545
0.027999586
0.027462145
0.026921099
0.026381434
0.025848986
0.02532851
0.024824341
0.02434042
0.023880099
0.023446082
0.023040393
0.022664363
0.02231865
0.022003274
0.021717694
0.021460886
0.021231443
0.021027676
0.020847712
0.020689576
0.020551276
0.02043085
0.020326423
0.020236387
0.020159291
0.020093619
0.020037999
0.01999121
0.019952171
0.019919932
0.019893664
0.01987265
0.01985627
0.019843994
0.019835367
0.019830004
0.019827581
0.019827823
0.019830531
0.019835583
0.019842589
0.019851553
0.019862388
0.019875013
0.01988937
0.019905415
0.019923122
0.019942478
0.019963479
0.019986132
0.020010454
0.020036456
0.027978643
0.027400069
0.026818483
0.026241
0.025673658
0.025121999
0.024591092
0.024085285
0.023608135
0.023162347
0.022749766
0.022371379
0.022027371
0.021717204
0.021439724
0.021193287
0.020975888
0.020785288
0.020619126
0.020475021
0.020350642
0.020243764
0.020152404
0.020074922
0.020009562
0.019954756
0.019909116
0.019871425
0.019840626
0.019815804
0.019796177
0.019781075
0.019769931
0.019762266
0.019757676
0.019755827
0.019756439
0.019759362
0.019764342
0.019771104
0.019779637
0.019789846
0.019801661
0.019815031
0.019829919
0.019846306
0.019864183
0.019883554
0.019904433
0.019926837
0.019950806
0.019976342
0.027955699
0.027331936
0.026707355
0.026089597
0.025485736
0.02490229
0.024344927
0.023818344
0.023326196
0.022871053
0.022454413
0.022076747
0.0217376
0.021435721
0.021169222
0.020935746
0.020732631
0.020557059
0.020406183
0.020277226
0.020167558
0.020074751
0.019996914
0.01993201
0.019878237
0.019834012
0.019797963
0.019768906
0.019745832
0.019727883
0.019714336
0.019704583
0.019698118
0.019694521
0.019693446
0.019694609
0.019697904
0.019702965
0.019709615
0.019717829
0.019727519
0.019738621
0.01975109
0.0197649
0.019780038
0.019796503
0.019814308
0.019833465
0.019854017
0.019875965
0.019899426
0.019924308
0.02793033
0.027257921
0.026586992
0.025926472
0.025284721
0.024669125
0.024085915
0.023540044
0.023035121
0.0225734
0.022155831
0.021782169
0.021451137
0.021160618
0.020907874
0.020689758
0.020502914
0.020343938
0.020209513
0.020096502
0.020002013
0.019923778
0.019859436
0.019806904
0.019764371
0.019730279
0.0197033
0.019682312
0.019666375
0.019654702
0.019646644
0.019641663
0.01963932
0.01963926
0.019641194
0.019645057
0.01965039
0.019657096
0.01966514
0.019674447
0.01968496
0.019696647
0.019709486
0.019723473
0.01973862
0.019754937
0.019772468
0.019791211
0.019811289
0.019832595
0.019855384
0.019879437
0.027902541
0.027177334
0.026456592
0.025750986
0.02507013
0.024422293
0.023814204
0.023250931
0.022735845
0.022270658
0.021855541
0.021489311
0.021169674
0.0208935
0.020657102
0.020456493
0.020287604
0.020146466
0.020029331
0.019932752
0.019853944
0.019790205
0.0197391
0.019698539
0.019666742
0.019642211
0.019623693
0.019610147
0.019600719
0.019594707
0.019591541
0.019590764
0.019592006
0.019594977
0.019599643
0.019605484
0.01961245
0.019620514
0.019629609
0.019639692
0.01965074
0.019662749
0.019675716
0.019689656
0.019704614
0.019720587
0.019737704
0.019755842
0.019775307
0.019795809
0.019817789
0.019840913
0.027872139
0.027089518
0.026315477
0.025562482
0.024841487
0.024161626
0.023530008
0.022951626
0.022429369
0.021964134
0.021555045
0.021199741
0.020894725
0.020635721
0.020418016
0.020236754
0.020087175
0.019964781
0.019865451
0.019785768
0.019722586
0.019673054
0.019634742
0.019605601
0.019583926
0.019568306
0.019557586
0.019550827
0.01954727
0.019546309
0.019547461
0.019550346
0.01955467
0.019560423
0.019567053
0.019574528
0.019582841
0.019591937
0.019601784
0.019612376
0.019623711
0.019635826
0.019648722
0.019662423
0.019677055
0.019692485
0.019709077
0.019726459
0.019745166
0.019764778
0.019785888
0.019808218
0.027838836
0.026993925
0.026162933
0.025360282
0.024598324
0.02388699
0.0232336
0.022642816
0.022116736
0.021655127
0.021255768
0.020914878
0.020627577
0.020388336
0.020191371
0.020030965
0.019901704
0.019798629
0.019717551
0.019654761
0.01960689
0.019571089
0.019544983
0.01952661
0.01951437
0.01950697
0.019503369
0.019502741
0.019504436
0.019507944
0.019512872
0.019518922
0.019526099
0.019533853
0.019542135
0.019550972
0.019560322
0.019570173
0.01958052
0.0195914
0.019602808
0.019614868
0.019627541
0.019640803
0.019655015
0.019669765
0.019685673
0.019702231
0.019720125
0.019739012
0.01975912
0.019780467
0.027802355
0.026889935
0.025998186
0.02514367
0.024340164
0.023598279
0.022925299
0.022325223
0.021798993
0.02134488
0.020959006
0.020635931
0.020369236
0.020152064
0.019977552
0.01983916
0.019730889
0.01964759
0.01958484
0.019538621
0.019505562
0.019482878
0.019468294
0.019459975
0.019456457
0.019456577
0.019459427
0.019464303
0.019470666
0.019478107
0.019486322
0.019495317
0.01950459
0.01951403
0.019523717
0.019533626
0.019543752
0.019554134
0.019564763
0.019575776
0.019587135
0.019598858
0.019611268
0.01962395
0.019637582
0.019651603
0.019666776
0.019682702
0.019699646
0.019717616
0.019736724
0.019757041
0.027762396
0.026776857
0.025820388
0.024911879
0.024066516
0.023295397
0.022605443
0.021999578
0.021477148
0.02103453
0.02066587
0.020363845
0.020120381
0.019927257
0.019776561
0.019660998
0.019574214
0.01951088
0.019466154
0.019436005
0.01941713
0.01940686
0.019403066
0.01940407
0.01940856
0.019415525
0.019424195
0.019433992
0.019444493
0.019455387
0.019466668
0.019477921
0.019488929
0.019499848
0.019510673
0.019521416
0.019532097
0.019542851
0.019553633
0.019564496
0.019575767
0.019587033
0.019598995
0.019611072
0.019624074
0.019637582
0.019651883
0.019666977
0.019682992
0.0197
0.019718099
0.019737372
0.027718629
0.026653923
0.025628608
0.024664074
0.023776853
0.022978246
0.022274376
0.021666585
0.021152124
0.020725053
0.020377227
0.020099254
0.019881331
0.019713885
0.019588025
0.019495865
0.019430918
0.019387293
0.019360112
0.019345408
0.019340009
0.019341413
0.019347668
0.019357276
0.019369097
0.019382279
0.019396193
0.019410386
0.019424559
0.019438669
0.019452448
0.019465505
0.019478102
0.019490248
0.019501994
0.01951339
0.019524505
0.01953534
0.019546236
0.019556836
0.019567799
0.019578624
0.019590087
0.019601797
0.01961404
0.019626822
0.019640284
0.019654504
0.019669587
0.019685625
0.019702714
0.019720945
0.02767068
0.026520266
0.025421802
0.024399339
0.023470603
0.022646705
0.021932413
0.021326881
0.020824708
0.020417202
0.020093644
0.019842436
0.019652022
0.019511537
0.019411219
0.019343034
0.019299756
0.019275413
0.019265179
0.019265227
0.01927257
0.019284908
0.019300498
0.019318037
0.019336568
0.019355401
0.01937405
0.019392177
0.019409763
0.019426697
0.019442377
0.019457164
0.01947112
0.019484291
0.019496789
0.019508662
0.019520109
0.019530933
0.019541657
0.019552039
0.019562669
0.019573301
0.019584156
0.019595267
0.019606787
0.019618803
0.019631432
0.019644774
0.019658932
0.019674008
0.0196901
0.019707304
0.027618122
0.026374901
0.025198796
0.024116648
0.023147129
0.022300611
0.021579811
0.020980985
0.020495486
0.020111445
0.019815335
0.019593278
0.019431997
0.019319429
0.019245463
0.019201213
0.019179269
0.019173673
0.019179734
0.019193825
0.019213188
0.019235761
0.019260027
0.01928489
0.019309581
0.019333576
0.019356532
0.019378251
0.019399122
0.019418064
0.019435687
0.019451982
0.019467127
0.019481131
0.01949422
0.019506615
0.019517978
0.019528844
0.019539433
0.01954983
0.019560065
0.019570244
0.01958052
0.019590998
0.019601805
0.019613055
0.019624862
0.019637337
0.019650589
0.019664723
0.019679842
0.019696046
0.027560462
0.026216695
0.024958254
0.023814853
0.02280571
0.021939732
0.021216724
0.020629243
0.020164776
0.019807899
0.019542115
0.019351254
0.019220409
0.019136788
0.019089378
0.019068886
0.01906785
0.019080426
0.019102128
0.019129583
0.019160299
0.019192475
0.019224834
0.019256497
0.019286881
0.019315628
0.019342534
0.019367918
0.019391076
0.019412145
0.019431556
0.019449159
0.019465268
0.019480238
0.019493643
0.019506227
0.019517659
0.019528838
0.019539346
0.019549454
0.019559294
0.019568998
0.019578709
0.019588554
0.019598665
0.019609163
0.01962017
0.019631803
0.019644177
0.019657401
0.01967158
0.019686817
0.027497121
0.026044333
0.024698645
0.023492652
0.022445521
0.021563738
0.020843158
0.020271756
0.019832555
0.019506266
0.01927335
0.019115407
0.019016276
0.018962185
0.018941375
0.018944387
0.018963815
0.018994008
0.019030746
0.019070953
0.019112436
0.019153672
0.019193635
0.019231661
0.019267357
0.019300527
0.01933142
0.019359654
0.019385154
0.019408176
0.019429164
0.019448138
0.01946497
0.019480567
0.019494367
0.019507386
0.019519231
0.0195303
0.019540652
0.019550477
0.019559932
0.019569167
0.01957833
0.019587562
0.019596999
0.019606773
0.01961701
0.019627835
0.019639366
0.019651719
0.019664996
0.019679306
0.027427418
0.025856274
0.024418207
0.023148567
0.022065607
0.021172155
0.020458896
0.019908295
0.019498367
0.019205762
0.019007928
0.018884479
0.018818125
0.018793904
0.018799693
0.018825969
0.018865466
0.018912793
0.01896405
0.019016497
0.019068262
0.019118118
0.019165293
0.019209343
0.019250051
0.019287597
0.019322071
0.019352898
0.019380553
0.019405451
0.019428131
0.019447921
0.019465724
0.019481851
0.019496528
0.01950978
0.019521777
0.019532791
0.019542982
0.019552537
0.019561626
0.019570413
0.019579056
0.019587703
0.019596499
0.019605583
0.019615087
0.019625142
0.019635872
0.0196474
0.019659816
0.019673244
0.027350532
0.025650701
0.024114901
0.022780918
0.021664856
0.020764317
0.020063422
0.0195382
0.019161232
0.018905047
0.018744213
0.018656886
0.018624035
0.018630032
0.01866248
0.018711872
0.018771153
0.01883525
0.018900631
0.018964923
0.019026599
0.01908474
0.019138837
0.019188663
0.019234215
0.019276214
0.019313467
0.019347006
0.019377035
0.019403413
0.01942747
0.019448292
0.019467345
0.019484267
0.019499368
0.019512873
0.019524995
0.019535981
0.019546029
0.019555336
0.019564087
0.019572457
0.019580612
0.01958871
0.019596904
0.019605337
0.01961415
0.019623477
0.01963345
0.027265468
0.025425456
0.023786368
0.02238779
0.02124196
0.02033929
0.019655801
0.01916025
0.018819541
0.018602167
0.018480437
0.018430385
0.018431829
0.018468528
0.018527862
0.018600393
0.018679334
0.018759989
0.018839238
0.018915107
0.018986437
0.019052637
0.019113462
0.019168889
0.019219603
0.019265008
0.019305394
0.019341727
0.019373513
0.019401784
0.019427015
0.019449562
0.019469474
0.019487049
0.019502593
0.01951637
0.019528626
0.019539609
0.019549541
0.019558632
0.019567078
0.019575067
0.019582773
0.019590362
0.019597995
0.019605822
0.019613987
0.019622631
0.019631887
0.027171007
0.025177964
0.023429873
0.021967008
0.020795359
0.019895761
0.019234531
0.018772516
0.018470937
0.01829476
0.018213833
0.018202369
0.018239147
0.018307313
0.018394025
0.01848995
0.018588628
0.018685799
0.018778806
0.018866115
0.01894695
0.01902108
0.019088532
0.019149614
0.019205133
0.019254056
0.019297393
0.019336053
0.019369966
0.019400378
0.019427281
0.019450946
0.019471729
0.019489964
0.019505972
0.019520047
0.01953246
0.019543472
0.01955332
0.01956223
0.01957041
0.019578056
0.019585354
0.019592478
0.019599594
0.019606859
0.019614423
0.01962243
0.019631017
0.027065633
0.024905136
0.023042253
0.021516087
0.020323162
0.019431896
0.018797353
0.018372174
0.018112267
0.017979504
0.017941146
0.017969947
0.018043541
0.018144361
0.018259297
0.018379151
0.01849786
0.018611679
0.01871848
0.018817207
0.018907492
0.01898951
0.019063453
0.019130645
0.019190354
0.019242348
0.019289268
0.019330068
0.019366842
0.019399114
0.019427442
0.019452247
0.019473921
0.019492835
0.019509334
0.019523736
0.019536336
0.019547409
0.01955721
0.019565976
0.019573929
0.019581274
0.019588206
0.019594908
0.019601552
0.019608301
0.01961531
0.019622729
0.019630696
0.026947443
0.024603258
0.022619846
0.021032184
0.019823023
0.018945123
0.018340984
0.017955265
0.017739521
0.017652215
0.017658631
0.017730028
0.017842578
0.017977801
0.018122228
0.018266847
0.018406099
0.01853686
0.018657615
0.018767849
0.018867673
0.018957261
0.019038354
0.019111294
0.019174542
0.01923054
0.019280305
0.019324589
0.019363505
0.019397576
0.019427357
0.019453324
0.019475916
0.019495535
0.019512553
0.019527315
0.019540133
0.019551302
0.019561092
0.019569752
0.019577517
0.019584602
0.01959121
0.019597533
0.019603749
0.019610027
0.019616528
0.019623405
0.019630801
0.026814022
0.024267842
0.022158421
0.020512006
0.019291947
0.018431829
0.017860793
0.017516727
0.017347239
0.017307911
0.017362117
0.017479442
0.017633972
0.017806026
0.01798167
0.018152184
0.018312683
0.018460816
0.018595787
0.018717679
0.018826911
0.018924551
0.019013089
0.019090321
0.019158114
0.019218319
0.019271776
0.019318702
0.019359798
0.01939568
0.019426935
0.019454091
0.019477626
0.019497977
0.019515545
0.019530695
0.019543765
0.019555063
0.019564877
0.019573468
0.019581083
0.019587947
0.019594273
0.019600259
0.01960609
0.019611941
0.019617979
0.019624359
0.019631231
0.02666226
0.023893446
0.021653083
0.019951664
0.018725988
0.01788694
0.017350361
0.017049502
0.016928713
0.016940843
0.017047103
0.017215104
0.01741572
0.017627807
0.017836844
0.01803464
0.01821724
0.018383264
0.018532693
0.01866635
0.018785647
0.018891116
0.018986315
0.019068553
0.019141626
0.019206133
0.019262778
0.019312368
0.019355672
0.019393381
0.019426133
0.0194545
0.019479003
0.019500111
0.019518253
0.019533821
0.019547171
0.01955863
0.0195685
0.019577057
0.019584558
0.019591239
0.019597321
0.01960301
0.019608497
0.019613964
0.019619581
0.019625509
0.0196319
0.026488095
0.02347345
0.021098149
0.019346423
0.018119777
0.017303316
0.01680743
0.016556575
0.016489326
0.016555892
0.016715869
0.016935716
0.017186267
0.01744241
0.017687408
0.017914049
0.018119682
0.018304017
0.018468302
0.01861428
0.018742641
0.018857357
0.018958336
0.019046993
0.019125037
0.019193445
0.019253317
0.019305593
0.019351124
0.019390676
0.01942494
0.019454537
0.019480026
0.019501912
0.019520652
0.01953666
0.019550316
0.019561964
0.01957192
0.019580474
0.019587893
0.019594425
0.019600299
0.019605728
0.019610911
0.019616033
0.01962127
0.019626787
0.019632741
0.026286125
0.022999759
0.020486964
0.018690254
0.017465774
0.01668416
0.016238985
0.016044826
0.016035432
0.016158931
0.016373884
0.016646161
0.01694655
0.017249719
0.017533494
0.017790608
0.018020004
0.018223384
0.018403076
0.018560396
0.018699367
0.01882245
0.018930731
0.01902527
0.019108012
0.01918033
0.019243446
0.019298419
0.019346188
0.019387591
0.019423376
0.019454212
0.019480699
0.019503377
0.01952273
0.019539199
0.019553181
0.019565041
0.019575108
0.019583686
0.019591054
0.019597468
0.019603167
0.019608371
0.019613285
0.019618099
0.019622994
0.01962814
0.019633697
0.026049004
0.022462431
0.019811616
0.017975041
0.01676949
0.016037288
0.015652693
0.015521389
0.015573453
0.015755749
0.016026401
0.016351146
0.01670087
0.017050151
0.017375729
0.017664609
0.017918915
0.018141943
0.018336006
0.018506488
0.018655021
0.018788177
0.018903021
0.019003233
0.019090673
0.019166896
0.019233254
0.019290919
0.019340921
0.019384171
0.019421475
0.019453552
0.019481042
0.019504518
0.019524495
0.019541436
0.019555761
0.01956785
0.019578049
0.019586675
0.019594017
0.019600342
0.019605895
0.019610905
0.019615583
0.019620125
0.019624714
0.019629525
0.019634722
0.025766459
0.021849189
0.01906243
0.01720383
0.016038935
0.015371274
0.015056595
0.014993418
0.015109658
0.015351875
0.015678349
0.016055073
0.01645323
0.016847587
0.017214949
0.01753728
0.01781722
0.018058779
0.018269352
0.018451341
0.018612225
0.018753677
0.018875224
0.018981064
0.019073175
0.019153274
0.019222849
0.019283184
0.0193354
0.01938048
0.019419291
0.019452599
0.019481085
0.019505359
0.019525962
0.019543382