/*--------------------------------*- C++ -*----------------------------------*\
| =========                 |                                                 |
| \\      /  F ield         | OpenFOAM: The Open Source CFD Toolbox           |
|  \\    /   O peration     | Version:  2312                                  |
|   \\  /    A nd           | Website:  www.openfoam.com                      |
|    \\/     M anipulation  |                                                 |
\*---------------------------------------------------------------------------*/
FoamFile
{
    version     2.0;
    format      ascii;
    arch        "LSB;label=32;scalar=64";
    class       volScalarField;
    location    "0.09";
    object      CO2;
}
// * * * * * * * * * * * * * * * * * * * * * * * * * * * * * * * * * * * * * //

dimensions      [0 0 0 0 0 0 0];

internalField   nonuniform List<scalar> 
3221
(
7.0351788e-05
0.00021817315
0.00037323477
0.00053549501
0.00070488488
0.00088130918
0.0010646475
0.0012547552
0.001451465
0.0016545878
0.0018639139
0.0020792141
0.0023002416
0.0025267333
0.0027584118
0.0029949861
0.0032361531
0.0034815988
0.0037310008
0.003984029
0.0042403472
0.0044996149
0.0047614879
0.0050256199
0.0052916632
0.0055592704
0.0058280948
0.0060977916
0.0063680195
0.0066384407
0.006908721
0.0071785319
0.0074475512
0.0077154635
0.0079819608
0.0082467431
0.008509519
0.008770006
0.0090279311
0.0092830313
0.0095350535
0.0097837552
0.010028904
0.01027028
0.010507671
0.010740878
0.010969713
0.011193999
0.011413569
0.011628268
0.011837957
0.01204253
7.1142405e-05
0.00022063148
0.00037744665
0.0005415438
0.00071285029
0.00089126678
0.0010766685
0.0012689063
0.0014678073
0.0016731767
0.0018847988
0.0021024392
0.0023258452
0.0025547476
0.002788862
0.0030278912
0.0032715263
0.0035194485
0.0037713302
0.0040268358
0.0042856235
0.0045473473
0.0048116575
0.0050782022
0.0053466286
0.0056165835
0.0058877153
0.0061596739
0.0064321134
0.006704691
0.0069770679
0.0072489114
0.0075198954
0.0077897006
0.0080580157
0.0083245375
0.0085889717
0.0088510335
0.0091104476
0.0093669491
0.0096202836
0.0098702074
0.010116488
0.010358902
0.010597241
0.010831305
0.011060904
0.011285861
0.011506009
0.01172119
0.011931261
0.012136137
7.2680251e-05
0.00022541191
0.00038563222
0.00055329146
0.00072831044
0.00091058208
0.0010999729
0.0012963241
0.0014994531
0.0017091547
0.0019252026
0.0021473509
0.0023753359
0.0026088768
0.0028476784
0.0030914317
0.0033398166
0.0035925024
0.0038491497
0.0041094121
0.004372937
0.0046393665
0.00490834
0.0051794945
0.0054524663
0.0057268919
0.0060024091
0.0062786587
0.0065552849
0.0068319353
0.0071082628
0.0073839266
0.0076585932
0.0079319363
0.0082036381
0.0084733898
0.0087408921
0.0090058558
0.009268002
0.0095270628
0.0097827816
0.010034913
0.010283223
0.01052749
0.010767504
0.011003066
0.011233988
0.011460095
0.011681222
0.011897214
0.012107933
0.012313301
7.4928786e-05
0.00023240213
0.00039760067
0.0005704648
0.00075090474
0.00093880183
0.0011340099
0.0013363564
0.0015456444
0.0017616535
0.0019841417
0.002212847
0.002447489
0.0026877705
0.0029333789
0.0031839886
0.003439262
0.003698851
0.0039623992
0.0042295425
0.0044999112
0.0047731308
0.0050488235
0.00532661
0.0056061102
0.0058869451
0.0061687375
0.0064511137
0.0067337033
0.0070161406
0.0072980662
0.0075791281
0.0078589817
0.0081372912
0.0084137299
0.0086879815
0.0089597398
0.0092287102
0.0094946093
0.0097571659
0.010016121
0.010271228
0.010522253
0.010768974
0.011011184
0.011248684
0.011481293
0.011708837
0.011931157
0.012148105
0.012359547
0.012565415
7.7861588e-05
0.00024152121
0.00041321493
0.00059286874
0.00078037787
0.00097560768
0.0011783949
0.001388549
0.0016058538
0.0018300689
0.0020609317
0.0022981587
0.0025414476
0.0027904788
0.0030449172
0.0033044141
0.0035686086
0.0038371296
0.004109597
0.0043856235
0.0046648162
0.0049467776
0.0052311076
0.0055174045
0.0058052665
0.0060942935
0.0063840887
0.0066742586
0.0069644138
0.007254172
0.0075431578
0.0078310044
0.0081173538
0.0084018582
0.0086841803
0.0089639946
0.0092409875
0.0095148582
0.0097853188
0.010052095
0.010314927
0.010573566
0.010827782
0.011077353
0.011322077
0.01156176
0.011796226
0.012025308
0.012248855
0.012466726
0.012678799
0.012885013
8.1461175e-05
0.00025271639
0.00043238642
0.00062037837
0.00081656775
0.0010207992
0.0012328876
0.0014526193
0.0016797541
0.0019140266
0.0021551478
0.0024028075
0.0026566757
0.0029164045
0.0031816302
0.0034519747
0.0037270479
0.0040064486
0.0042897673
0.0045765868
0.0048664846
0.0051590341
0.0054538065
0.0057503718
0.0060483013
0.0063471687
0.0066465511
0.0069460304
0.0072451955
0.0075436429
0.0078409783
0.0081368171
0.0084307856
0.0087225224
0.0090116784
0.0092979184
0.0095809209
0.0098603796
0.010136003
0.010407514
0.010674654
0.010937176
0.011194852
0.011447468
0.011694825
0.01193674
0.012173043
0.012403579
0.012628207
0.012846799
0.013059245
0.013265497
8.5718179e-05
0.00026596037
0.00045507053
0.00065293223
0.00085939635
0.0010742817
0.001297376
0.0015284375
0.0017671961
0.0020133556
0.0022665953
0.0025265719
0.0027929216
0.0030652618
0.0033431934
0.0036263026
0.0039141626
0.004206336
0.0045023761
0.0048018293
0.0051042365
0.0054091352
0.0057160612
0.0060245506
0.0063341416
0.0066443753
0.0069547977
0.0072649626
0.0075744323
0.0078827792
0.0081895866
0.0084944504
0.0087969796
0.0090967979
0.0093935442
0.0096868737
0.0099764583
0.010261987
0.010543166
0.01081972
0.011091392
0.01135794
0.011619143
0.011874795
0.012124708
0.01236871
0.012606644
0.012838369
0.01306376
0.013282703
0.013495106
0.013700936
9.0630588e-05
0.00028124912
0.00048126279
0.00069052689
0.00090886253
0.0011360573
0.0013718661
0.0016160128
0.001868192
0.0021280701
0.0023952881
0.002669463
0.0029501903
0.0032370455
0.0035295869
0.0038273571
0.0041298855
0.0044366901
0.0047472799
0.0050611568
0.0053778177
0.0056967567
0.0060174678
0.006339446
0.006662189
0.0069852002
0.0073079906
0.0076300809
0.0079510031
0.0082703021
0.0085875371
0.0089022825
0.0092141295
0.0095226871
0.0098275828
0.010128464
0.010424996
0.010716868
0.011003787
0.011285481
0.011561698
0.011832209
0.0120968
0.01235528
0.012607475
0.01285323
0.013092406
0.013324879
0.013550545
0.01376931
0.013981101
0.014185907
9.620312e-05
0.00029859989
0.0005109957
0.00073321256
0.00096503638
0.0012062176
0.0014564723
0.0017154837
0.0019829037
0.0022583548
0.0025414323
0.002831706
0.0031287224
0.0034320075
0.0037410682
0.0040553951
0.004374465
0.0046977428
0.0050246842
0.005354738
0.0056873487
0.0060219599
0.0063580149
0.0066949594
0.0070322455
0.0073693337
0.0077056945
0.0080408115
0.0083741831
0.0087053247
0.0090337697
0.0093590709
0.0096808018
0.0099985579
0.010311957
0.010620642
0.010924277
0.011222551
0.011515178
0.011801895
0.012082462
0.012356661
0.012624299
0.0128852
0.013139212
0.013386201
0.013626051
0.013858663
0.014083954
0.014301859
0.014512327
0.014715374
0.00010244669
0.00031804972
0.00054433616
0.00078108951
0.0010280546
0.0012849386
0.0015514118
0.0018271097
0.002111634
0.0024045555
0.002705415
0.0030137264
0.0033289788
0.0036506383
0.0039781515
0.0043109469
0.0046484385
0.004990028
0.0053351079
0.0056830648
0.0060332815
0.0063851405
0.0067380259
0.0070913285
0.0074444481
0.0077967958
0.0081477975
0.0084968962
0.0088435545
0.0091872569
0.0095275108
0.0098638482
0.010195827
0.010523032
0.010845076
0.011161599
0.01147227
0.011776786
0.012074872
0.012366278
0.012650784
0.012928192
0.013198332
0.013461053
0.013716229
0.013963754
0.014203541
0.014435519
0.014659638
0.014875859
0.015084163
0.015284594
0.00010937799
0.00033965413
0.00058138346
0.00083430533
0.0010981173
0.0013724762
0.0016569994
0.0019512663
0.0022548203
0.0025671706
0.0028877947
0.0032161402
0.0035516278
0.0038936534
0.0042415912
0.0045947965
0.0049526088
0.0053143549
0.0056793537
0.0060469172
0.0064163554
0.0067869801
0.0071581094
0.0075290705
0.007899204
0.0082678669
0.0086344364
0.0089983125
0.0093589209
0.0097157154
0.010068179
0.010415826
0.010758202
0.011094885
0.011425489
0.011749659
0.012067073
0.012377444
0.012680515
0.01297606
0.013263883
0.013543815
0.013815714
0.014079465
0.014334973
0.014582167
0.014820994
0.01505142
0.015273428
0.015487015
0.015692198
0.01588905
0.00011701912
0.0003634862
0.00062226774
0.00089305292
0.0011754852
0.0014691637
0.0017736442
0.0020884411
0.0024130296
0.0027468471
0.003089296
0.0034397462
0.0037975372
0.0041619818
0.0045323684
0.0049079656
0.0052880249
0.0056717856
0.0060584779
0.0064473267
0.0068375586
0.0072284053
0.0076191086
0.0080089248
0.0083971291
0.0087830201
0.0091659235
0.0095451954
0.0099202256
0.010290439
0.010655299
0.011014304
0.011366996
0.011712954
0.012051797
0.012383186
0.012706818
0.013022428
0.013329788
0.013628703
0.013919011
0.014200581
0.01447331
0.014737121
0.014991961
0.0152378
0.015474625
0.015702446
0.015921284
0.016131177
0.01633218
0.016524403
0.00012539736
0.00038963579
0.00066714889
0.00095756914
0.0012604785
0.0015754096
0.0019018476
0.0022392316
0.0025869568
0.0029443767
0.0033108055
0.003685521
0.0040677669
0.0044567573
0.0048516792
0.0052516991
0.0056559642
0.0060636091
0.0064737605
0.0068855445
0.0072980912
0.0077105409
0.00812205
0.0085317964
0.0089389853
0.0093428536
0.0097426749
0.010137763
0.010527473
0.010911208
0.011288415
0.011658588
0.012021271
0.012376052
0.01272257
0.013060509
0.013389595
0.013709598
0.014020329
0.014321634
0.014613396
0.014895529
0.015167978
0.015430713
0.015683731
0.015927049
0.016160704
0.016384749
0.016599254
0.0168043
0.016999984
0.017186458
0.00013454489
0.00041820907
0.00071621589
0.001028134
0.0013534756
0.0016916976
0.0020422033
0.0024043446
0.0027774237
0.0031606953
0.0035533699
0.0039546161
0.0043635646
0.0047793117
0.0052009263
0.0056274517
0.006057911
0.0064913177
0.0069266799
0.0073630085
0.0077993239
0.0082346639
0.0086680908
0.0090986983
0.0095256178
0.0099480239
0.01036514
0.01077624
0.011180654
0.011577767
0.01196702
0.012347913
0.012720002
0.013082902
0.013436278
0.013779852
0.014113393
0.014436717
0.014749685
0.015052196
0.015344188
0.015625632
0.015896527
0.016156903
0.01640681
0.01664632
0.016875525
0.017094531
0.017303455
0.017502429
0.017691596
0.017871148
0.00014449872
0.0004493282
0.00076968653
0.0011050708
0.001454914
0.0018185864
0.0021953975
0.0025845975
0.0029853799
0.0033968834
0.0038181957
0.0042483564
0.0046863621
0.0051311709
0.0055817077
0.0060368701
0.0064955391
0.0069565863
0.0074188822
0.0078813062
0.0083427556
0.008802155
0.0092584654
0.0097106918
0.010157891
0.010599178
0.01103373
0.01146079
0.01187967
0.01228975
0.012690478
0.013081372
0.013462019
0.013832068
0.014191233
0.014539284
0.014876048
0.015201402
0.015515268
0.015817612
0.016108436
0.016387777
0.016655702
0.016912303
0.017157695
0.01739201
0.017615399
0.017828025
0.018030061
0.018221688
0.018403097
0.018574528
0.00015530052
0.00048313128
0.0008278075
0.0011887461
0.0015652904
0.0019567118
0.002362211
0.0027809202
0.0032119052
0.0036541679
0.0041066505
0.0045682411
0.0050377753
0.0055140441
0.0059958034
0.0064817825
0.0069706941
0.0074612451
0.0079521487
0.0084421361
0.0089299682
0.0094144476
0.0098944284
0.010368826
0.010836626
0.011296887
0.011748752
0.012191445
0.012624272
0.013046622
0.013457968
0.013857866
0.014245945
0.014621913
0.014985544
0.015336678
0.015675211
0.016001097
0.016314333
0.016614963
0.016903065
0.017178754
0.017442168
0.017693472
0.017932852
0.018160507
0.018376651
0.018581506
0.018775304
0.01895828
0.019130675
0.019292774
0.00016699666
0.00051977245
0.00089085494
0.0012795713
0.0016851633
0.0021067887
0.0025435225
0.0029943589
0.0034582133
0.0039339258
0.004420268
0.0049159434
0.0054195949
0.0059298185
0.0064451709
0.0069641823
0.0074853694
0.0080072504
0.0085283601
0.0090472652
0.0095625787
0.010072974
0.010577197
0.011074077
0.011562534
0.012041584
0.012510348
0.012968046
0.013413996
0.01384762
0.014268433
0.014676049
0.015070164
0.01545056
0.015817093
0.016169687
0.016508329
0.01683306
0.017143969
0.017441186
0.01772488
0.017995248
0.018252512
0.018496917
0.018728721
0.018948197
0.019155624
0.019351291
0.019535485
0.0197085
0.019870627
0.020022197
0.00017963817
0.00055942222
0.00095913531
0.0013780041
0.001815155
0.002269615
0.0027403131
0.0032260811
0.0037256575
0.0042376918
0.0047607471
0.0052933066
0.0058337887
0.0063805561
0.0069319304
0.0074862088
0.0080416818
0.008596653
0.0091494582
0.0096984844
0.010242188
0.010779111
0.011307894
0.011827288
0.01233616
0.012833503
0.013318432
0.013790186
0.014248119
0.014691708
0.015120538
0.015534302
0.015932787
0.016315871
0.016683512
0.017035738
0.017372639
0.017694362
0.018001098
0.018293079
0.018570569
0.01883386
0.019083263
0.019319107
0.01954173
0.019751478
0.019948702
0.020133755
0.020306987
0.020468745
0.020619372
0.020759243
0.00019328084
0.00060226801
0.0010329867
0.0014845508
0.0019559552
0.0024460762
0.0029536715
0.0034773831
0.0040157394
0.0045671578
0.0051299534
0.0057023513
0.0062824992
0.0068684837
0.0074583505
0.008050126
0.0086418425
0.0092315624
0.009817403
0.01039756
0.01097033
0.011534124
0.012087488
0.01262911
0.013157826
0.013672625
0.014172645
0.014657168
0.015125617
0.015577548
0.016012647
0.016430711
0.016831645
0.017215444
0.017582188
0.017932028
0.018265176
0.018581895
0.018882494
0.019167314
0.019436726
0.019691121
0.019930905
0.020156496
0.020368313
0.020566782
0.020752324
0.020925358
0.021086294
0.021235532
0.021373468
0.021500518
0.00020798534
0.00064851489
0.0011127805
0.0015997693
0.0021083259
0.0026371511
0.0031848035
0.0037496984
0.0043301098
0.0049241799
0.0055299299
0.0061452741
0.006768038
0.0073959825
0.0080268308
0.0086582984
0.0092881253
0.0099141076
0.010534128
0.011146185
0.011748415
0.012339111
0.012916741
0.013479953
0.014027578
0.014558635
0.015072313
0.015567972
0.016045136
0.016503477
0.016942807
0.017363061
0.017764283
0.018146611
0.018510268
0.018855545
0.019182789
0.019492398
0.019784803
0.020060467
0.020319873
0.020563518
0.020791906
0.021005546
0.021204943
0.0213906
0.02156301
0.021722654
0.021870004
0.022005513
0.022129624
0.022242794
0.00022381736
0.00069838655
0.0011989237
0.0017242731
0.0022731062
0.0028439212
0.0034350385
0.0040446004
0.0046705799
0.0053107903
0.0059628988
0.0066244475
0.0072928802
0.0079655751
0.0086398819
0.0093131622
0.0099828308
0.010646395
0.011301494
0.011945926
0.01257768
0.013194952
0.013796157
0.014379935
0.014945151
0.015490885
0.016016419
0.016521232
0.017004985
0.017467501
0.017908754
0.018328842
0.018727977
0.019106462
0.019464683
0.019803086
0.020122172
0.020422477
0.020704571
0.020969042
0.021216491
0.021447523
0.021662744
0.021862755
0.022048149
0.022219502
0.022377377
0.02252232
0.022654855
0.022775491
0.022884715
0.022983025
0.0002408479
0.00075212649
0.0012918614
0.0018587351
0.0024512213
0.0030675764
0.0037058351
0.0043638172
0.0050391344
0.0057292028
0.0064312647
0.0071424183
0.007859656
0.0085799097
0.0093001009
0.010017194
0.010728248
0.011430465
0.012121236
0.012798174
0.01345914
0.01410226
0.014725938
0.015328848
0.015909929
0.016468367
0.017003585
0.017515226
0.018003126
0.018467302
0.018907916
0.019325264
0.01971975
0.020091864
0.020442172
0.020771293
0.021079887
0.021368646
0.02163828
0.021889507
0.022123048
0.022339623
0.022539939
0.022724689
0.022894548
0.023050165
0.02319217
0.023321168
0.023437738
0.023542437
0.023635794
0.023718358
0.00025915345
0.00080999949
0.0013920803
0.0020038965
0.0026436876
0.0033094213
0.0039987964
0.0047092445
0.00543794
0.0061818205
0.0069376185
0.0077019043
0.0084711399
0.0092417411
0.010010144
0.010772874
0.01152661
0.012268242
0.012994922
0.013704097
0.014393536
0.015061341
0.015705951
0.016326124
0.016920924
0.017489701
0.018032068
0.018547878
0.019037192
0.019500248
0.01993744
0.020349286
0.020736404
0.021099495
0.021439319
0.021756679
0.022052408
0.022327355
0.022582375
0.022818321
0.023036037
0.023236355
0.023420082
0.023588001
0.023740864
0.023879392
0.024004274
0.024116173
0.024215712
0.024303501
0.024380089
0.024446137
0.0002788164
0.00087229333
0.0015001145
0.0021605686
0.0028516175
0.0035708914
0.0043156843
0.0050829577
0.0058693572
0.0066712436
0.0074847391
0.0083057892
0.0091302372
0.009953908
0.010772696
0.011582651
0.012380056
0.013161494
0.013923899
0.014664593
0.015381301
0.016072157
0.016735694
0.017370813
0.017976767
0.01855313
0.019099762
0.019616775
0.020104494
0.020563424
0.020994217
0.02139764
0.021774552
0.022125878
0.022452585
0.022755673
0.023036149
0.023295026
0.023533305
0.023751976
0.023952005
0.024134329
0.024299858
0.024449459
0.024583955
0.024704133
0.024810736
0.024904483
0.024986016
0.025056037
0.025114982
0.025163827
0.00029992531
0.00093932311
0.0016165471
0.0023296383
0.0030762365
0.0038535667
0.0046584326
0.0054872258
0.0063359518
0.0072002766
0.0080755945
0.0089571152
0.0098399667
0.010719306
0.011590434
0.012448897
0.01329058
0.014111781
0.014909256
0.015680254
0.016422524
0.017134301
0.017814278
0.018461575
0.019075706
0.019656531
0.020204216
0.02071918
0.021202058
0.021653655
0.022074913
0.022466875
0.022830655
0.023167418
0.02347835
0.02376465
0.024027505
0.024268089
0.024487556
0.024687025
0.024867578
0.025030257
0.025176071
0.025305969
0.025420829
0.02552151
0.025608772
0.025683447
0.025746059
0.025797687
0.025837974
0.025868454
0.00032257737
0.0010114302
0.0017420127
0.002512082
0.0033188947
0.0041591856
0.0050291638
0.0059245281
0.0068405087
0.0077719364
0.0087133408
0.0096590722
0.010603441
0.011540861
0.012465994
0.013373871
0.014259995
0.015120417
0.015951778
0.01675133
0.017516922
0.018246971
0.018940417
0.019596681
0.020215613
0.020797427
0.021342649
0.02185206
0.022326644
0.02276754
0.023176008
0.023553384
0.023901057
0.024220439
0.024512945
0.024779969
0.025022881
0.025243019
0.02544168
0.025620107
0.025779495
0.02592097
0.026045661
0.026154594
0.026248657
0.026328832
0.026395759
0.026450676
0.026493289
0.026525246
0.026547301
0.02655941
0.00034687475
0.0010889848
0.00187721
0.0027089765
0.0035810804
0.0044896627
0.0054302079
0.0063975714
0.0073860447
0.0083894577
0.0094013192
0.010414985
0.011423841
0.012421493
0.013401929
0.014359672
0.015289882
0.016188429
0.01705192
0.017877701
0.018663818
0.019408964
0.020112427
0.020774017
0.021393997
0.021973005
0.022511983
0.02301212
0.023474787
0.023901491
0.024293828
0.024653448
0.024982023
0.025281222
0.025552683
0.025798005
0.026018734
0.026216359
0.026392322
0.026547971
0.02668463
0.026803436
0.026905716
0.026992587
0.02706476
0.02712367
0.027169107
0.027202884
0.027225951
0.027238209
0.027240895
0.027234455
0.00037292779
0.001172392
0.0020229075
0.0029215091
0.0038644373
0.0048471095
0.0058641244
0.0069093101
0.007975823
0.0090562993
0.010143051
0.011228296
0.012304395
0.013364083
0.014400671
0.015408203
0.016381561
0.017316524
0.018209772
0.019058855
0.019862125
0.020618672
0.021328232
0.0219911
0.022608029
0.023180145
0.023708866
0.024195828
0.024642828
0.025051761
0.025424583
0.025763267
0.026069775
0.026346029
0.026593899
0.026815189
0.027011597
0.027184744
0.027336247
0.027467492
0.02758004
0.027674757
0.027753459
0.027817469
0.027866495
0.027902635
0.027927059
0.027939659
0.027941891
0.027934269
0.027917288
0.027891695
0.0004008563
0.0012620962
0.0021799525
0.0031509932
0.0041707846
0.0052338578
0.0063337267
0.0074629671
0.0086133677
0.0097761483
0.010942232
0.012102549
0.013248342
0.014371441
0.015464494
0.016521129
0.017536047
0.018505056
0.019425036
0.020293866
0.021110347
0.021874085
0.022585379
0.023245094
0.023854557
0.024415445
0.024929702
0.025399453
0.025826945
0.026214486
0.026564402
0.026878995
0.027160514
0.027411143
0.02763298
0.027828029
0.027998108
0.028144913
0.02827038
0.028375639
0.028463075
0.028532136
0.028586146
0.028625756
0.028652084
0.028665395
0.028667356
0.028658587
0.028639673
0.028611494
0.02857466
0.028529805
0.00043078988
0.0013585853
0.0023492814
0.0033988861
0.0045021411
0.0056524885
0.0068421102
0.0080620583
0.009302479
0.010552924
0.01180272
0.013041365
0.014258907
0.015446263
0.016595471
0.01769984
0.018754024
0.019754001
0.020697
0.021581396
0.022406578
0.023172805
0.023881044
0.02453283
0.025130133
0.025675247
0.026170684
0.026619091
0.027023188
0.027385711
0.02770936
0.027996768
0.028250464
0.028472902
0.028666375
0.028833132
0.02897506
0.029093682
0.029191914
0.029269284
0.029329546
0.029373229
0.02940233
0.029417052
0.029419146
0.029409411
0.029388578
0.029357683
0.029317443
0.029268591
0.029211765
0.029147575
0.00046286898
0.0014623967
0.0025319338
0.0036668104
0.0048607544
0.0061058637
0.007392685
0.0087104186
0.010047249
0.011390779
0.012728525
0.01404842
0.015339267
0.016591102
0.017795442
0.018945422
0.020035809
0.021062926
0.022024535
0.022919683
0.023748507
0.024512046
0.025212053
0.02585082
0.026431037
0.026955662
0.02742782
0.0278507
0.028227508
0.028561424
0.028855509
0.02911274
0.029335894
0.029527717
0.029690604
0.029827228
0.029939519
0.030027746
0.030096396
0.030146205
0.030179391
0.030196262
0.030199097
0.030188803
0.030166251
0.030132626
0.030088802
0.030035652
0.029973928
0.02990433
0.029827488
0.02974399
0.00049724619
0.0015741249
0.0027290687
0.0039565805
0.0052491351
0.0065971666
0.007989213
0.0094122317
0.010852078
0.012294103
0.013723798
0.015127421
0.016492521
0.017808325
0.019065979
0.020258619
0.021381323
0.022430974
0.023406082
0.024306547
0.025133415
0.025888648
0.026574892
0.027195286
0.027753296
0.028252598
0.028696961
0.029090127
0.029435782
0.029737578
0.029998901
0.03022312
0.030413134
0.030572129
0.03070223
0.030807112
0.030886639
0.030944745
0.030983921
0.031004478
0.031009121
0.030998886
0.030975012
0.030938817
0.030891375
0.03083371
0.030766718
0.030691233
0.030607997
0.030517684
0.030420902
0.030318217
0.00053408797
0.0016944308
0.0029419846
0.0042702351
0.005670099
0.0071299471
0.0086358509
0.010172062
0.011721693
0.013267521
0.014792814
0.016282079
0.017721652
0.019100087
0.020408347
0.021639795
0.022790065
0.023856855
0.024839642
0.025739376
0.026558183
0.027299081
0.027965722
0.028562165
0.029092707
0.029561774
0.029973826
0.030333136
0.030643832
0.030910134
0.031135608
0.031324224
0.031478545
0.031602935
0.031697782
0.031768451
0.031816378
0.031842613
0.03185063
0.031841613
0.031817226
0.031778854
0.031727937
0.031665677
0.031593153
0.031511352
0.031421157
0.031323369
0.031218704
0.031107809
0.030991263
0.0308696
0.00057357655
0.0018240535
0.0031721451
0.0046100768
0.0061268186
0.007708177
0.0093372005
0.010994894
0.012661168
0.014315898
0.015939959
0.017516084
0.019029501
0.020468287
0.021823465
0.023088904
0.024261096
0.025338821
0.026322763
0.027215128
0.028019286
0.028739449
0.029380385
0.029947135
0.030444855
0.030878745
0.031254028
0.031575454
0.031847423
0.032075122
0.032261685
0.032412589
0.032528364
0.032614963
0.032675275
0.032711142
0.032724775
0.032718637
0.03269501
0.032655275
0.032601351
0.032534629
0.032456452
0.032368007
0.032270355
0.032164448
0.03205114
0.031931193
0.031805289
0.031674041
0.031537994
0.031397648
0.00061591245
0.0019638241
0.0034212102
0.0049787217
0.0066228853
0.0083363163
0.010098368
0.011886172
0.013675942
0.015444339
0.017169716
0.018833081
0.020418733
0.021914528
0.023311862
0.024605462
0.025793004
0.026874642
0.027852523
0.028730311
0.029512786
0.030205491
0.030814413
0.031345626
0.031805139
0.0321989
0.032533098
0.03281283
0.033042223
0.033228788
0.033372976
0.033482326
0.033560054
0.033608845
0.033631371
0.033631048
0.033610239
0.033570458
0.033514409
0.033443696
0.03336
0.033264752
0.033159248
0.033044639
0.032921949
0.032792091
0.032655875
0.03251402
0.032367167
0.032215883
0.032060683
0.031902025
0.00066131749
0.0021146845
0.0036910766
0.0053791615
0.0071623863
0.0090193927
0.01092503
0.012851851
0.014771851
0.016658193
0.018486651
0.020236641
0.021891788
0.023440066
0.024873647
0.026188508
0.027383869
0.028461577
0.0294255
0.030280971
0.031034331
0.031692573
0.032263034
0.032752841
0.033168812
0.033517451
0.033806484
0.034041237
0.034223541
0.034364373
0.034466674
0.03453446
0.034570385
0.034579338
0.034563809
0.034526397
0.034469754
0.034395984
0.034307256
0.034205311
0.034091747
0.033967968
0.033835219
0.033694604
0.033547097
0.033393561
0.033234752
0.033071342
0.032903916
0.032732997
0.03255907
0.032382542
0.00071003856
0.0022777108
0.0039839284
0.005814842
0.00775
0.0097630978
0.011823523
0.013898457
0.01595516
0.017963065
0.019895402
0.021730226
0.023450837
0.025045775
0.026508457
0.027836548
0.029031211
0.030096323
0.031037743
0.031862671
0.032579135
0.033195676
0.033721173
0.034163779
0.034531059
0.03482936
0.035069494
0.035252916
0.035388
0.035482887
0.03553988
0.035562931
0.035556633
0.035524708
0.035469554
0.035394394
0.035301664
0.035193519
0.03507197
0.034938747
0.034795382
0.034643224
0.034483459
0.034317129
0.034145147
0.033968315
0.033787333
0.033602811
0.033415277
0.033225189
0.03303304
0.032839149
0.00076235237
0.0024541426
0.0043023028
0.0062897616
0.0083911147
0.010573905
0.012800935
0.015033159
0.017232601
0.019364824
0.021400664
0.023317147
0.025097735
0.026732081
0.028215378
0.029547479
0.03073192
0.031774962
0.03268473
0.033470468
0.034141986
0.034709384
0.035183456
0.035573232
0.035887212
0.036129166
0.036314429
0.036447787
0.03653388
0.036578535
0.036588025
0.036565883
0.036515742
0.036441633
0.036346506
0.036233209
0.036104176
0.035961537
0.035807204
0.03564284
0.035469905
0.035289673
0.035103257
0.034911627
0.034715626
0.034515987
0.034313343
0.034108239
0.03390114
0.00081857138
0.0026454225
0.0046491746
0.0068085982
0.0090919769
0.011459217
0.013865236
0.016263861
0.018611437
0.020869631
0.023007161
0.025000517
0.026833948
0.028498864
0.02999285
0.031318494
0.032482172
0.033492895
0.034361316
0.035098897
0.035717259
0.036227837
0.036644222
0.036975711
0.037227702
0.037412939
0.037542983
0.037621611
0.037654265
0.037648305
0.037608954
0.037539601
0.037444818
0.037328171
0.037192686
0.037041089
0.036875748
0.036698724
0.036511829
0.036316639
0.036114521
0.035906663
0.035694091
0.035477693
0.035258232
0.035036367
0.034812657
0.034587583
0.034361553
0.00087905133
0.0028532468
0.0050280672
0.0073768721
0.0098598788
0.012427543
0.015025428
0.017599316
0.020099527
0.022483943
0.024719613
0.026783181
0.028660446
0.030345334
0.031838528
0.03314596
0.034277329
0.035244762
0.036061689
0.036741947
0.037298995
0.03774465
0.038097615
0.038361462
0.038552581
0.038678743
0.038747775
0.038768862
0.038747119
0.038688614
0.038598654
0.038481673
0.038341719
0.038182278
0.03800634
0.037816519
0.037615082
0.037403989
0.037184939
0.036959399
0.036728635
0.03649373
0.036255617
0.036015089
0.035772825
0.0355294
0.035285297
0.035040925
0.03479663
0.00094420078
0.0030796328
0.005443198
0.0080011563
0.010703398
0.013488737
0.016291753
0.01904929
0.021705421
0.024214536
0.026542698
0.028667601
0.030577533
0.032269844
0.033749112
0.035025267
0.036111827
0.03702437
0.037779322
0.038393037
0.038881118
0.039252669
0.039533479
0.039732141
0.039857047
0.039917632
0.039925138
0.039886939
0.039808185
0.03969578
0.03955483
0.039389735
0.039204396
0.039002176
0.038785956
0.038558224
0.038321116
0.038076462
0.037825837
0.037570582
0.037311844
0.037050597
0.036787664
0.036523742
0.036259415
0.03599517
0.035731412
0.035468471
0.035206627
0.0010144932
0.0033270095
0.0058996735
0.0086893526
0.011632707
0.014654297
0.017675957
0.020624765
0.023438472
0.026068517
0.028480951
0.030655664
0.032584613
0.034269652
0.035720136
0.036950671
0.037979062
0.038824631
0.03950694
0.04004491
0.040450169
0.040746604
0.040954742
0.041079931
0.041133333
0.041127231
0.04107086
0.040970747
0.040834227
0.040667293
0.040475004
0.040261679
0.04003106
0.039786349
0.039530277
0.039265174
0.03899302
0.038715498
0.038434038
0.038149843
0.037863932
0.037577155
0.037290223
0.037003727
0.036718151
0.036433893
0.036151272
0.035870541
0.035591908
0.0010904827
0.0035983403
0.0064037502
0.0094510561
0.01265998
0.015937768
0.019191662
0.022338209
0.02530897
0.028053304
0.030538571
0.032748384
0.034679858
0.03634061
0.037745719
0.038915117
0.039871302
0.04063753
0.041236551
0.041683358
0.042006449
0.04222375
0.042350813
0.042397747
0.042378363
0.042302801
0.0421797
0.042017316
0.041822353
0.041600611
0.041356999
0.041095677
0.040820191
0.040533551
0.040238298
0.039936577
0.039630194
0.039320664
0.039009257
0.038697028
0.038384855
0.038073461
0.037763436
0.037455258
0.037149313
0.036845902
0.036545258
0.036247556
0.035952926
0.0011728239
0.003897294
0.006963193
0.010298044
0.013799935
0.017355298
0.020854875
0.024203952
0.02732829
0.0301765
0.032719104
0.034945462
0.036859766
0.038476809
0.039818315
0.0409101
0.04177962
0.042454134
0.04295242
0.043309835
0.043544859
0.043672656
0.043714683
0.043681973
0.043586572
0.043438963
0.043248698
0.043023498
0.042769909
0.042493496
0.042198945
0.041890192
0.04157055
0.0412428
0.040909265
0.040571882
0.040232261
0.039891736
0.039551402
0.039212159
0.038874737
0.038539722
0.038207582
0.03787868
0.037553296
0.037231638
0.036913849
0.036600024
0.036290219
0.0012622991
0.0042284843
0.0075877707
0.011244942
0.01507059
0.018926424
0.022684385
0.026237935
0.029508098
0.032444842
0.035024441
0.037244567
0.039118627
0.040670179
0.041928479
0.042925555
0.043693898
0.044256805
0.044657207
0.044915882
0.045051607
0.045088188
0.045042225
0.044926173
0.044752603
0.044532403
0.044274533
0.043986492
0.043674566
0.043344031
0.042999285
0.042643987
0.042281179
0.041913382
0.041542674
0.041170767
0.040799058
0.040428684
0.040060562
0.039695425
0.03933385
0.038976285
0.038623069
0.03827445
0.037930602
0.037591636
0.037257609
0.036928533
0.036604392
0.0013598531
0.0045978171
0.0082899553
0.012310157
0.016494329
0.020674427
0.024701126
0.028456463
0.031858797
0.034862613
0.037453398
0.03964019
0.041447821
0.042910108
0.044064692
0.04494984
0.045594031
0.046049032
0.046339156
0.04648776
0.046522799
0.046463614
0.046326083
0.046124961
0.045872691
0.045579579
0.045254248
0.044903858
0.044534348
0.044150637
0.043756785
0.043356128
0.042951402
0.042544842
0.042138264
0.041733133
0.041330623
0.040931668
0.040536996
0.040147168
0.039762608
0.039383622
0.039010419
0.03864313
0.038281824
0.037926516
0.037577178
0.03723374
0.036896113
0.0014666427
0.0050130016
0.0090859285