/*--------------------------------*- C++ -*----------------------------------*\
| =========                 |                                                 |
| \\      /  F ield         | OpenFOAM: The Open Source CFD Toolbox           |
|  \\    /   O peration     | Version:  2312                                  |
|   \\  /    A nd           | Website:  www.openfoam.com                      |
|    \\/     M anipulation  |                                                 |
\*---------------------------------------------------------------------------*/
FoamFile
{
    version     2.0;
    format      ascii;
    arch        "LSB;label=32;scalar=64";
    class       volScalarField;
    location    "0.09";
    object      H2O;
}
// * * * * * * * * * * * * * * * * * * * * * * * * * * * * * * * * * * * * * //

dimensions      [0 0 0 0 0 0 0];

internalField   nonuniform List<scalar> 
3221
(
5.759639e-05
0.00017861644
0.00030556402
0.00043840505
0.00057708305
0.00072152008
0.00087161754
0.001027257
0.0011883016
0.0013545965
0.0015259699
0.0017022343
0.0018831876
0.0020686143
0.0022582875
0.0024519688
0.00264941
0.0028503543
0.0030545376
0.0032616895
0.003471535
0.0036837952
0.0038981883
0.0041144308
0.0043322381
0.0045513258
0.0047714099
0.0049922084
0.0052134416
0.005434833
0.0056561092
0.005877001
0.0060972447
0.0063165821
0.0065347611
0.0067515361
0.0069666684
0.0071799268
0.0073910878
0.0075999361
0.0078062645
0.0080098743
0.0082105757
0.0084081876
0.0086025376
0.0087934625
0.008980808
0.0091644287
0.0093441885
0.009519961
0.0096916316
0.0098591137
5.8243662e-05
0.00018062905
0.00030901225
0.00044335715
0.00058360426
0.00072967228
0.00088145904
0.0010388424
0.001201681
0.001369815
0.0015430682
0.0017212485
0.001904149
0.0020915494
0.0022832168
0.0024789079
0.0026783698
0.0028813416
0.0030875549
0.0032967351
0.0035086023
0.0037228732
0.0039392617
0.0041574795
0.0043772378
0.0045982476
0.0048202207
0.0050428709
0.0052659147
0.0054890716
0.0057120641
0.00593462
0.0061564722
0.0063773594
0.0065970266
0.0068152257
0.0070317156
0.0072462633
0.0074586433
0.0076686389
0.0078760416
0.008080652
0.0082822794
0.0084807423
0.0086758682
0.0088674938
0.0090554647
0.0092396353
0.0094198685
0.0095960356
0.0097680186
0.0099357485
5.9502682e-05
0.00018454275
0.0003157137
0.00045297485
0.00059626135
0.00074548554
0.00090053813
0.0010612892
0.0012275891
0.0013992699
0.0015761464
0.0017580173
0.0019446666
0.0021358645
0.0023313692
0.002530928
0.0027342785
0.0029411502
0.003151265
0.0033643396
0.003580085
0.0037982086
0.0040184148
0.0042404066
0.0044638862
0.004688556
0.0049141196
0.0051402827
0.0053667541
0.0055932454
0.0058194722
0.0060451558
0.0062700229
0.0064938065
0.0067162464
0.0069370897
0.0071560915
0.0073730149
0.0075876317
0.0077997225
0.0080090772
0.008215495
0.0084187845
0.0086187639
0.0088152611
0.0090081133
0.0091971673
0.0093822791
0.0095633135
0.0097401445
0.0099126582
0.010080791
6.1343538e-05
0.00019026558
0.00032551218
0.00046703451
0.00061475911
0.00076858881
0.00092840389
0.0010940632
0.0012654055
0.0014422502
0.0016243994
0.0018116384
0.0020037378
0.002200454
0.0024015315
0.0026067035
0.0028156935
0.0030282168
0.0032439814
0.0034626893
0.0036840378
0.0039077202
0.0041334274
0.0043608487
0.0045896732
0.0048195902
0.0050502911
0.00528147
0.0055128237
0.0057440526
0.0059748627
0.0062049655
0.0064340792
0.0066619287
0.0068882467
0.007112774
0.0073352602
0.0075554639
0.0077731532
0.007988106
0.0082001102
0.008408964
0.0086144759
0.0088164645
0.0090147591
0.009209199
0.0093996336
0.0095859222
0.0097679337
0.0099455467
0.010118653
0.010287195
6.3744597e-05
0.00019773129
0.00033829543
0.00048537643
0.0006388885
0.00079872143
0.00096474154
0.0011367929
0.0013146984
0.0014982613
0.0016872667
0.0018814823
0.0020806608
0.0022845405
0.002492847
0.0027052948
0.0029215885
0.0031414243
0.0033644909
0.0035904714
0.003819044
0.0040498833
0.0042826618
0.0045170505
0.0047527207
0.0049893445
0.0052265973
0.0054641568
0.0057017044
0.0059389268
0.006175517
0.0064111744
0.0066456062
0.0068785274
0.007109662
0.0073387435
0.0075655152
0.0077897307
0.0080111545
0.0082295619
0.0084447397
0.0086564858
0.0088646096
0.0090689319
0.0092692848
0.0094655115
0.0096574663
0.0098450139
0.01002803
0.010206399
0.010380021
0.010548847
6.6691548e-05
0.00020689668
0.00035399096
0.00050789832
0.00066851684
0.00083571933
0.0010093542
0.0011892467
0.0013752
0.0015669967
0.0017644006
0.0019671574
0.002174997
0.0023876347
0.0026047727
0.0028261014
0.0030513013
0.0032800443
0.0035119948
0.0037468114
0.0039841482
0.0042236559
0.0044649834
0.0047077788
0.0049516911
0.0051963712
0.005441473
0.005686654
0.0059315778
0.0061759141
0.00641934
0.0066615406
0.0069022101
0.0071410524
0.0073777819
0.007612124
0.0078438157
0.0080726061
0.0082982563
0.0085205405
0.0087392453
0.0089541701
0.0091651273
0.0093719417
0.0095744507
0.0097725039
0.009965963
0.010154701
0.010338602
0.010517562
0.010691489
0.010860345
7.0176719e-05
0.00021773942
0.00037256224
0.00053454987
0.00070358023
0.00087950498
0.0010621504
0.0012513183
0.0014467879
0.0016483165
0.0018556417
0.0020684822
0.0022865403
0.0025095029
0.0027370431
0.002968822
0.0032044905
0.0034436903
0.0036860557
0.0039312154
0.0041787935
0.0044284114
0.0046796891
0.0049322466
0.005185706
0.0054396916
0.0056938317
0.005947761
0.0062011211
0.006453562
0.0067047426
0.0069543318
0.0072020098
0.0074474684
0.007690412
0.0079305584
0.0081676387
0.0084013984
0.0086315975
0.00885801
0.009080425
0.0092986459
0.0095124904
0.0097217905
0.0099263919
0.010126154
0.010320948
0.01051066
0.010695185
0.010874432
0.011048324
0.011216836
7.4198466e-05
0.00023025618
0.00039400561
0.00056532829
0.00074407777
0.00093008008
0.0011231347
0.0013230155
0.0015294723
0.0017422322
0.0019610013
0.0021854659
0.0024152948
0.0026501407
0.0028896418
0.0031334236
0.0033811009
0.0036322792
0.0038865563
0.0041435245
0.004402772
0.0046638846
0.004926448
0.0051900487
0.0054542756
0.005718722
0.0059829877
0.0062466801
0.0065094163
0.0067708236
0.0070305411
0.0072882204
0.0075435268
0.0077961402
0.0080457556
0.008292084
0.0085348527
0.0087738057
0.0090087035
0.0092393238
0.0094654608
0.0096869251
0.0099035437
0.010115159
0.010321629
0.010522826
0.010718637
0.010908962
0.011093712
0.011272813
0.011446204
0.011613877
7.8760648e-05
0.00024446111
0.00041834768
0.00060027468
0.0007900668
0.00098751973
0.0011924011
0.0014044514
0.0016233858
0.0018488952
0.0020806483
0.0023182928
0.0025614575
0.0028097543
0.0030627796
0.0033201163
0.003581336
0.0038460007
0.0041136647
0.0043838769
0.0046561824
0.0049301256
0.0052052509
0.0054811044
0.0057572376
0.0060332087
0.0063085844
0.0065829417
0.0068558701
0.0071269728
0.0073958678
0.007662189
0.0079255873
0.0081857315
0.0084423089
0.0086950262
0.0089436093
0.0091878039
0.0094273751
0.0096621077
0.0098918052
0.01011629
0.010335402
0.010549
0.010756958
0.010959165
0.011155528
0.011345965
0.011530409
0.011708806
0.011881115
0.012047347
8.3872204e-05
0.00026038451
0.00044564322
0.00063947111
0.00084165929
0.0010519679
0.0012701272
0.0014958386
0.0017287762
0.0019685884
0.0022148994
0.0024673113
0.0027254056
0.0029887455
0.0032568776
0.0035293343
0.0038056357
0.004085292
0.004367806
0.0046526751
0.0049393945
0.0052274583
0.0055163625
0.0058056083
0.0060947042
0.0063831682
0.0066705302
0.0069563342
0.0072401403
0.0075215264
0.0078000893
0.0080754458
0.008347234
0.008615114
0.0088787685
0.0091379032
0.0093922469
0.0096415514
0.0098855912
0.010124163
0.010357086
0.010584198
0.010805358
0.011020446
0.011229356
0.011432003
0.011628314
0.011818233
0.012001717
0.012178735
0.012349272
0.012513362
8.9546795e-05
0.00027807185
0.00047597353
0.00068303843
0.00089901899
0.0011236342
0.0013565709
0.0015974846
0.0018460015
0.00210172
0.0023642121
0.0026330257
0.0029076865
0.0031876998
0.0034725534
0.0037617195
0.0040546573
0.0043508156
0.0046496369
0.004950558
0.0052530137
0.005556441
0.0058602812
0.0061639838
0.0064670088
0.0067688299
0.0070689372
0.0073668393
0.0076620662
0.0079541708
0.0082427297
0.0085273451
0.0088076451
0.0090832851
0.0093539475
0.0096193424
0.0098792069
0.010133305
0.010381426
0.010623386
0.010859024
0.011088202
0.011310804
0.011526734
0.011735917
0.011938292
0.012133817
0.012322465
0.012504221
0.012679083
0.012847064
0.013008226
9.5802526e-05
0.00029758296
0.00050944513
0.00073113457
0.00096235944
0.0012027914
0.0014520669
0.0017097884
0.0019755261
0.0022488195
0.0025291795
0.00281609
0.0031090103
0.0034073779
0.0037106102
0.0040181083
0.0043292595
0.004643441
0.0049600226
0.0052783697
0.0055978491
0.0059178319
0.0062376972
0.0065568363
0.0068746557
0.0071905813
0.007504061
0.0078145676
0.0081216015
0.0084246922
0.0087233993
0.009017314
0.0093060596
0.0095892921
0.0098667004
0.010138005
0.01040296
0.010661347
0.01091298
0.011157699
0.011395372
0.011625891
0.011849172
0.012065152
0.012273787
0.012475053
0.01266894
0.012855454
0.013034615
0.013206453
0.013371012
0.013528383
0.00010266171
0.0003189914
0.00054618893
0.00078395343
0.0010319426
0.001289774
0.0015570259
0.0018332392
0.0021179188
0.0024105353
0.0027105274
0.0030173036
0.003330245
0.003648708
0.0039720271
0.0042995199
0.0046304882
0.0049642234
0.0053000108
0.0056371347
0.0059748831
0.006312552
0.0066494509
0.0069849067
0.0073182686
0.0076489121
0.0079762423
0.0082996971
0.0086187498
0.0089329104
0.0092417263
0.0095447838
0.0098417085
0.010132165
0.010415856
0.010692524
0.010961944
0.011223928
0.01147832
0.011724996
0.011963859
0.012194838
0.01241789
0.012632989
0.012840133
0.013039335
0.013230626
0.01341405
0.013589664
0.013757533
0.013917738
0.014070402
0.00011015072
0.00034238409
0.00058635965
0.0008417243
0.0011080786
0.0013849779
0.0016719339
0.0019684158
0.0022738523
0.0025876335
0.0029091127
0.0032376094
0.0035724119
0.0039127805
0.0042579527
0.0046071453
0.0049595585
0.0053143847
0.0056708119
0.0060280303
0.0063852379
0.0067416469
0.0070964897
0.0074490243
0.0077985395
0.0081443597
0.0084858486
0.0088224126
0.0091535029
0.0094786157
0.0097972938
0.010109128
0.010413754
0.010710856
0.011000163
0.011281444
0.011554511
0.011819213
0.012075437
0.012323101
0.012562152
0.012792567
0.013014347
0.013227514
0.013432111
0.013628196
0.013815844
0.013995142
0.014166187
0.014329085
0.014483954
0.014630952
0.00011829983
0.00036786105
0.00063013559
0.00090471174
0.0011911253
0.0014888607
0.0017973526
0.0021159873
0.0024441043
0.0027809986
0.0031259232
0.003478092
0.0038366835
0.0042008445
0.004569695
0.0049423325
0.0053178408
0.005695296
0.0060737737
0.0064523561
0.0068301406
0.0072062469
0.0075798242
0.007950058
0.0083161762
0.0086774539
0.0090332174
0.0093828478
0.0097257814
0.01006151
0.010389583
0.010709604
0.011021236
0.011324192
0.011618237
0.011903184
0.01217889
0.012445254
0.012702213
0.01294974
0.013187835
0.013416529
0.013635877
0.013845954
0.014046854
0.014238686
0.014421573
0.014595648
0.014761052
0.014917936
0.015066454
0.015206802
0.00012714317
0.00039553533
0.00067771872
0.00097321596
0.0012814895
0.0016019427
0.0019339214
0.0022767149
0.0026295585
0.0029916351
0.0033620787
0.0037399788
0.0041243823
0.0045142994
0.0049087116
0.0053065784
0.0057068459
0.0061084557
0.0065103542
0.0069115026
0.0073108865
0.0077075254
0.0081004815
0.0084888668
0.0088718502
0.0092486625
0.0096186003
0.0099810288
0.01033538
0.010681155
0.01101792
0.011345313
0.01166303
0.011970832
0.012268533
0.012556003
0.012833158
0.013099957
0.013356401
0.013602524
0.013838391
0.014064094
0.014279749
0.01448549
0.014681468
0.014867847
0.015044802
0.015212516
0.015371176
0.015520977
0.015662116
0.015794825
0.0001367187
0.00042553314
0.00072933511
0.0010475738
0.0013796284
0.0017248094
0.0020823595
0.0024514553
0.0028312088
0.0032206705
0.0036188345
0.0040246396
0.0044369747
0.0048546902
0.0052766048
0.0057015148
0.0061282061
0.0065554655
0.0069820934
0.0074069164
0.0078287991
0.0082466554
0.0086594585
0.0090662497
0.0094661447
0.0098583393
0.010242112
0.010616825
0.010981921
0.011336924
0.011681441
0.012015152
0.012337811
0.012649238
0.012949315
0.013237981
0.013515224
0.013781078
0.014035616
0.014278946
0.014511204
0.014732551
0.014943171
0.015143263
0.015333039
0.015512722
0.015682541
0.015842731
0.01599353
0.016135175
0.016267908
0.016391996
0.00014706819
0.00045799406
0.00078523565
0.0011281598
0.0014860514
0.0018581139
0.0022434702
0.0026411642
0.0030501631
0.003469361
0.0038975818
0.0043335836
0.0047760715
0.0052237052
0.0056751105
0.0061288933
0.0065836542
0.0070380042
0.0074905809
0.0079400639
0.0083851895
0.0088247637
0.0092576737
0.0096828965
0.010099506
0.010506676
0.010903683
0.011289904
0.01166481
0.012027972
0.012379052
0.012717796
0.013044033
0.01335766
0.013658645
0.013947009
0.014222827
0.014486218
0.01473734
0.014976383
0.015203562
0.015419116
0.0156233
0.015816383
0.015998642
0.016170361
0.016331827
0.016483328
0.016625152
0.016757582
0.016880899
0.01699541
0.00015823733
0.00049307153
0.00084569711
0.0012153887
0.0016013234
0.0020025811
0.0024181449
0.002846903
0.0032876505
0.003739092
0.0041998477
0.0046684648
0.0051434268
0.0056231672
0.0061060859
0.0065905674
0.0070750005
0.0075577989
0.0080374215
0.0085123912
0.0089813125
0.009442886
0.0098959204
0.010339341
0.010772196
0.011193658
0.01160302
0.011999695
0.012383209
0.012753202
0.013109413
0.013451679
0.013779919
0.014094133
0.014394383
0.014680794
0.014953539
0.015212834
0.015458932
0.015692112
0.015912677
0.016120948
0.016317257
0.016501946
0.016675359
0.016837844
0.016989746
0.017131407
0.017263163
0.017385344
0.01749827
0.017602285
0.00017027577
0.00053093344
0.00091102359
0.0013097171
0.0017260679
0.0021590125
0.0026073706
0.0030698451
0.0035450228
0.0040313828
0.004527305
0.0050310819
0.0055409332
0.0060550259
0.0065714958
0.0070884728
0.0076041065
0.0081165927
0.0086241983
0.0091252838
0.0096183238
0.010101922
0.010574822
0.011035919
0.011484255
0.011919026
0.01233957
0.012745362
0.013136012
0.013511252
0.013870927
0.014214986
0.014543462
0.014856471
0.015154194
0.015436869
0.015704781
0.015958255
0.016197644
0.016423328
0.016635702
0.016835172
0.017022151
0.017197056
0.0173603
0.017512296
0.017653446
0.017784146
0.01790478
0.01801572
0.018117329
0.01820998
0.00018323731
0.00057176293
0.00098154826
0.0014116472
0.001860972
0.0023282933
0.0028122358
0.0033112788
0.0038237627
0.0043478973
0.0048817728
0.0054233769
0.0059706169
0.0065213463
0.0070733953
0.007624604
0.0081728558
0.0087161103
0.0092524336
0.0097800246
0.010297236
0.010802591
0.011294792
0.011772726
0.012235464
0.012682252
0.013112502
0.013525787
0.013921831
0.01430049
0.014661739
0.015005662
0.01533243
0.015642293
0.015935565
0.016212613
0.016473845
0.016719703
0.016950651
0.017167171
0.017369755
0.017558898
0.017735098
0.017898846
0.018050626
0.018190911
0.018320162
0.018438825
0.018547331
0.018646094
0.018735515
0.018816
0.00019718005
0.00061575934
0.0010576356
0.0015217301
0.0020067934
0.0025113978
0.0030339346
0.0035726188
0.004125495
0.004690448
0.0052652199
0.0058474351
0.0064346313
0.0070242966
0.0076139108
0.0082009885
0.0087831219
0.0093580212
0.0099235496
0.010477753
0.011018879
0.011545397
0.012055996
0.012549593
0.013025319
0.013482508
0.013920686
0.014339561
0.014739001
0.015119018
0.015479745
0.015821424
0.016144386
0.016449033
0.016735827
0.017005275
0.017257918
0.017494323
0.017715069
0.017920747
0.018111945
0.018289253
0.01845325
0.018604503
0.018743565
0.018870967
0.018987226
0.019092835
0.01918827
0.019273986
0.019350417
0.019418011
0.00021216665
0.00066313946
0.0011396839
0.0016405724
0.0021643638
0.0027093941
0.0032737795
0.0038554171
0.0044519937
0.0050610021
0.0056797673
0.0063054813
0.0069352478
0.0075661322
0.008195217
0.0088196574
0.0094367343
0.010043902
0.010638828
0.011219424
0.011783861
0.012330588
0.012858324
0.013366054
0.013853012
0.014318664
0.014762696
0.015184985
0.015585582
0.015964682
0.016322607
0.016659781
0.016976712
0.017273971
0.017552182
0.017812002
0.018054112
0.018279209
0.018487992
0.018681159
0.018859401
0.019023399
0.019173815
0.019311289
0.019436436
0.019549848
0.019652088
0.019743699
0.01982519
0.019897062
0.019959764
0.020013837
0.00022826453
0.00071413888
0.0012281306
0.0017688385
0.0023345942
0.0029234574
0.0035332128
0.0041613727
0.0048051911
0.0054616884
0.0061276901
0.0067998766
0.0074748449
0.0081491769
0.0088195115
0.0094826144
0.010135443
0.010775199
0.011399374
0.012005774
0.012592536
0.013158134
0.013701365
0.014221332
0.014717421
0.015189285
0.015636808
0.016060082
0.016459373
0.016835095
0.017187781
0.01751806
0.017826635
0.018114261
0.018381734
0.018629869
0.018859493
0.019071433
0.01926651
0.019445534
0.019609295
0.019758563
0.01989408
0.020016557
0.020126668
0.020225057
0.020312331
0.020389081
0.020455831
0.020513158
0.020561415
0.020601404
0.00024554621
0.00076901557
0.0013234529
0.0019072544
0.0025184878
0.0031548812
0.0038138178
0.0044923435
0.005187188
0.0058948032
0.0066114182
0.0073331115
0.0080558942
0.008775802
0.0094889867
0.010191803
0.010880881
0.011553191
0.012206077
0.012837286
0.013444976
0.014027701
0.014584393
0.01511433
0.015617113
0.016092629
0.016541014
0.01696261
0.017357938
0.017727657
0.018072537
0.018393433
0.018691257
0.018966961
0.019221519
0.01945591
0.019671107
0.019868071
0.020047747
0.02021105
0.020358868
0.020492051
0.020611428
0.020717774
0.020811809
0.020894236
0.020965677
0.021026812
0.021078072
0.02112034
0.021153322
0.021178276
0.00026409126
0.00082804904
0.0014261705
0.0020566195
0.0027171499
0.0034050887
0.0041173321
0.0048503591
0.0056002643
0.006362816
0.0071335355
0.0079077975
0.0086809436
0.0094484016
0.0102058
0.01094907
0.011674532
0.012378952
0.01305958
0.013714166
0.01434095
0.014938635
0.015506353
0.016043631
0.016550344
0.01702667
0.017473039
0.01789009
0.018278627
0.018639585
0.018973994
0.019282948
0.019567585
0.019829061
0.020068532
0.020287143
0.020486012
0.020666237
0.02082888
0.020974956
0.021105446
0.02122127
0.021323354
0.021412536
0.021489544
0.021555183
0.021609975
0.021654936
0.021689823
0.021715985
0.021734042
0.021743956
0.00028398331
0.00089154225
0.0015368553
0.0022178152
0.002931799
0.0036756474
0.0044456634
0.0052376355
0.0060468898
0.0068683753
0.0076967774
0.0085266565
0.0093525985
0.010169367
0.010972041
0.011756137
0.012517692
0.013253324
0.013960257
0.014636317
0.015279904
0.015889948
0.016465867
0.017007505
0.017515077
0.017989106
0.018430363
0.01883982
0.019218602
0.01956794
0.019889143
0.020183561
0.020452563
0.020697514
0.020919757
0.0211206
0.021301309
0.021463102
0.021607162
0.021734591
0.021846472
0.021943737
0.022027473
0.022098594
0.022157681
0.02220591
0.022243109
0.022270762
0.022289647
0.022299683
0.022301881
0.022296609
0.0003053127
0.00095982701
0.0016561366
0.0023918138
0.0031637808
0.0039682859
0.0048009071
0.0056565914
0.0065297362
0.0074143126
0.008304027
0.0091925074
0.0100735
0.010941057
0.011789703
0.01261456
0.01341144
0.014176886
0.01490818
0.015603317
0.016260947
0.016880325
0.017461236
0.01800392
0.018508995
0.018977381
0.01941024
0.019808912
0.020174866
0.020509657
0.020814883
0.02109216
0.021343095
0.021569262
0.021772192
0.02195336
0.022114157
0.022255911
0.022379945
0.022487394
0.022579536
0.02265708
0.022721513
0.022773917
0.022814054
0.022843642
0.022863637
0.022873953
0.02287578
0.02286954
0.022855638
0.022834685
0.00032817753
0.0010332671
0.0017847079
0.0025796904
0.0034145846
0.0042849134
0.0051853663
0.0061098655
0.0070516884
0.0080036467
0.0089583093
0.0099082507
0.010846301
0.011765772
0.012660645
0.013525703
0.014356608
0.015149927
0.015903106
0.01661441
0.017282855
0.017908121
0.018490451
0.019030554
0.019529516
0.01998871
0.020409727
0.020794309
0.021144292
0.021461569
0.021748042
0.022005597
0.022236074
0.022441262
0.022622878
0.022782562
0.022921805
0.023041993
0.023144711
0.023230886
0.023302469
0.023359009
0.023403226
0.023435654
0.023457209
0.023468107
0.023469713
0.023462533
0.023447049
0.023423979
0.023393823
0.0233571
0.00035268389
0.0011122618
0.001923336
0.0027826382
0.0036858634
0.0046276426
0.0056015755
0.0066003362
0.0076158578
0.0086395859
0.0096627829
0.010676851
0.011673642
0.01264572
0.013586566
0.014490703
0.015353755
0.016172427
0.016944452
0.017668499
0.018344069
0.018971372
0.019551201
0.020084812
0.020573819
0.021020099
0.021425709
0.021792816
0.022123646
0.022420441
0.02268541
0.022920708
0.023128406
0.023310514
0.023468909
0.023605432
0.023721627
0.023818741
0.023899163
0.023962506
0.024011842
0.024047604
0.024071429
0.024083482
0.024085196
0.024077227
0.02406017
0.024034877
0.024001932
0.023961938
0.023915415
0.023862864
0.00037894676
0.0011972513
0.002072872
0.0030019854
0.0039794569
0.0049988169
0.0060523262
0.0071311432
0.0082255944
0.0093255304
0.010420731
0.011501318
0.012558123
0.013582989
0.014568972
0.015510451
0.016403141
0.017244032
0.018031294
0.018764143
0.019442694
0.020067797
0.020640886
0.021163839
0.021638857
0.022068364
0.022454915
0.022801124
0.023109612
0.023382986
0.023623752
0.023834344
0.024017039
0.024174082
0.024307436
0.024419289
0.024511221
0.024583451
0.024639654
0.024680433
0.024707602
0.024721414
0.024723735
0.024715308
0.024696844
0.024669316
0.024633437
0.024589924
0.024539391
0.024482412
0.024419502
0.024351143
0.00040709108
0.0012887222
0.0022342645
0.0032392177
0.0042974207
0.0054010423
0.0065406984
0.0077057113
0.0088845009
0.010065074
0.011235553
0.012384687
0.013502282
0.014579519
0.015609149
0.016585553
0.017504701
0.018364041
0.019162354
0.019899556
0.020576506
0.021194809
0.021756631
0.022264541
0.022721379
0.023130153
0.02349395
0.023815831
0.024098816
0.024345894
0.024559836
0.024743403
0.024898965
0.025029133
0.025135646
0.025221512
0.02528662
0.025334191
0.025366263
0.025383093
0.025386895
0.025378515
0.02535897
0.025329337
0.025290497
0.025243287
0.025188442
0.025126643
0.025058498
0.024984559
0.024905325
0.024821258
0.00043725312
0.0013872156
0.0024085769
0.003496004
0.0046420602
0.005837225
0.0070700952
0.008327778
0.0095964473
0.010862003
0.012110747
0.013329995
0.01450856
0.015637073
0.016708134
0.01771631
0.018658026
0.019531398
0.020335997
0.021072601
0.021742951
0.022349518
0.022895291
0.023383593
0.023817943
0.024201965
0.024539308
0.024833472
0.025087836
0.025305855
0.025490449
0.025644867
0.025771208
0.025873045
0.025950695
0.026008551
0.026047789
0.026069267
0.026075831
0.026068449
0.026048483
0.026017069
0.025975383
0.025924411
0.025865036
0.025798067
0.025724225
0.025644167
0.025558479
0.02546769
0.025372274
0.02527267
0.00046958208
0.0014933365
0.0025970073
0.0037742293
0.0050159725
0.0063106167
0.007644284
0.0090014231
0.010365587
0.0117203
0.013049904
0.014340264
0.015579285
0.016757207
0.017866679
0.018902682
0.019862346
0.02074467
0.021550215
0.022280786
0.022939143
0.023528735
0.024053463
0.024517456
0.024924935
0.025280157
0.025587398
0.025850546
0.026073205
0.026259621
0.026412358
0.026535902
0.026630686
0.026701584
0.026750961
0.026780324
0.026791486
0.026786461
0.026767117
0.026734587
0.026690439
0.026635815
0.026571812
0.026499403
0.026419456
0.026332751
0.026239986
0.026141787
0.026038711
0.025931259
0.025819878
0.025704978
0.00050424211
0.0016077655
0.0028009147
0.0040760356
0.005422098
0.0068248688
0.0082674447
0.0097311042
0.011196373
0.012644145
0.014056695
0.015418478
0.016716637
0.017941231
0.019085216
0.020144275
0.021116505
0.022002033
0.022802615
0.023521253
0.024161859
0.02472897
0.025227489
0.025662388
0.026038588
0.026360956
0.026634561
0.026863576
0.027051378
0.027204116
0.027322162
0.027411686
0.027475321
0.027515266
0.027533707
0.027533444
0.027516407
0.027483839
0.027437952
0.02738006
0.027311539
0.02723356
0.027147185
0.027053355
0.02695291
0.026846597
0.026735078
0.026618943
0.026498715
0.02637486
0.026247799
0.026117907
0.00054141482
0.0017312736
0.003021852
0.0044038722
0.0058637827
0.0073840975
0.0089442263
0.010521697
0.012093585
0.013637916
0.015134859
0.01656756
0.017922614
0.019190176
0.020363836
0.021440302
0.022418933
0.023301243
0.024090398
0.024790765
0.025407534
0.02594643
0.026413462
0.026814463
0.027155014
0.027440442
0.027677071
0.027869261
0.028018512
0.02813381
0.028217563
0.028273058
0.02830247
0.0283098
0.028297086
0.028266458
0.028220085
0.028159689
0.028087049
0.028003587
0.027910614
0.027809277
0.027700596
0.027585476
0.027464714
0.027339014
0.027209
0.027075217
0.026938147
0.026798217
0.026655824
0.026511302
0.00058130233
0.0018647418
0.0032616072
0.00476056
0.0063448569
0.0079929623
0.0096798145
0.011378545
0.013062349
0.014706203
0.016288191
0.017790345
0.019198994
0.020504756
0.021702241
0.022789537
0.023767597
0.024639595
0.025410328
0.026085688
0.026672251
0.027177008
0.027607228
0.027969585
0.028270274
0.028514491
0.028711086
0.028861252
0.028971844
0.029049528
0.029096188
0.029115059
0.029109903
0.029083766
0.029038612
0.028977079
0.028901162
0.028812624
0.028713114
0.028604045
0.028486673
0.028362103
0.028231305
0.028095131
0.027954332
0.027809561
0.027661393
0.027510326
0.027356794
0.02720117
0.027043859
0.026885122
0.00062413118
0.002009185
0.0035222575
0.0051493725
0.0068697318
0.0086567634
0.010480013
0.012307515
0.014108179
0.015853811
0.017520536
0.019089544
0.020547295
0.021885319
0.023099682
0.024190262
0.025159952
0.026013882
0.026758701
0.027401978
0.027951744
0.028416268
0.028804386
0.029123492
0.029380545
0.029578631
0.029730304
0.029839483
0.029909966
0.029946525
0.029954294
0.029936167
0.029895117
0.029834444
0.029756565
0.029663809
0.029558171
0.029441394
0.029315043
0.02918048
0.029038899
0.028891345
0.028738728
0.028581842
0.028421378
0.028257935
0.028092032
0.027924116
0.027754565
0.00067015719
0.0021657842
0.0038062384
0.0055741395
0.0074435215
0.0093815599
0.011351347
0.01331508
0.01523702
0.017085784
0.018835761
0.020467703
0.021968717
0.023331769
0.024554882
0.025640176
0.026592869
0.027420339
0.028131307
0.028735158
0.029241406
0.029659412
0.030000303
0.03027169
0.030477992
0.030629644
0.03073611
0.030800482
0.030827216
0.030822336
0.03079012
0.030733341
0.030655744
0.030560246
0.030449325
0.030325214
0.030189851
0.030044923
0.029891914
0.029732113
0.029566641
0.029396469
0.029222438
0.029045275
0.028865605
0.028683965
0.028500817
0.02831655
0.028131501
0.0007196716
0.0023359281
0.0041164344
0.0060393804
0.0080721961
0.01017432
0.012301186
0.014408405
0.016455306
0.018407407
0.02023773
0.021927155
0.023464055
0.024843458
0.026065923
0.027136306
0.028062548
0.028854577
0.029523388
0.030080309
0.03053636
0.030901213
0.031190182
0.031406192
0.031562659
0.031665946
0.031722463
0.031739726
0.031721926
0.031674028
0.031600379
0.031504607
0.031390028
0.031259496
0.031115456
0.030960052
0.030795137
0.030622317
0.030442982
0.030258335
0.03006941
0.029877096
0.029682155
0.029485237
0.029286898
0.029087607
0.028887763
0.028687697
0.028487695
0.00077300888
0.0025212683
0.0044562984
0.0065504763
0.008762778
0.01104311
0.013337915
0.015595486
0.017770037
0.019824227
0.021730274
0.023469913
0.025033557
0.026419038
0.027630101
0.028674878
0.029564435
0.030311526
0.030929599
0.031432042
0.03183163
0.032135815
0.032365711
0.032528355
0.032630614
0.032680214
0.03268636
0.032655086
0.032590611
0.032498586
0.032383191
0.03224803
0.032096294
0.031930738
0.031753721
0.031567279
0.03137316
0.031172865
0.03096768
0.030758705
0.030546879
0.030332998
0.030117737
0.029901666
0.029685264
0.029468929
0.029252993
0.029037725
0.028823356
0.00083055667
0.0027237934
0.0048300108
0.0071138966
0.0095235953
0.011997344
0.014471151
0.016885313
0.019188871
0.021342066
0.023317104
0.025097523
0.026676736
0.028056262
0.029243761
0.030251189
0.031093124
0.031785384
0.032343985
0.032784415
0.033116198
0.033358887
0.033529287
0.033631778
0.033675498
0.033670502
0.033624352
0.033542391
0.033430622
0.033293955
0.03313653
0.032961883
0.032773077
0.032572734
0.032363091
0.032146052
0.031923242
0.031696038
0.031465609
0.031232941
0.030998868
0.030764086
0.030529178
0.030294626
0.030060828
0.029828108
0.029596728
0.029366897
0.029138782
0.00089276857
0.0029459296
0.005242694
0.0077374965
0.010364614
0.01304811
0.015712045
0.018288095
0.020720231
0.022966993
0.02500166
0.026810814
0.028392094
0.029751738
0.030902088
0.031859464
0.032642284
0.033269588
0.033760001
0.034125799
0.03439031
0.034568213
0.034672238
0.034710663
0.034694793
0.034632931
0.034532149
0.034399207
0.034239592
0.034058055
0.033858611
0.033644669
0.033419132
0.033184462
0.03294274
0.032695724
0.032444891
0.032191482
0.031936536
0.031680917
0.031425344
0.031170408
0.030916593
0.030664291
0.030413816
0.030165416
0.029919282
0.029675555
0.029434344
0.00096018065
0.0031906803
0.0057007049
0.008430918
0.011297886
0.01420863
0.017073703
0.019815563
0.022373431
0.024705235
0.026786843
0.028609543
0.030176767
0.031500625
0.032598905
0.033492739
0.034204608
0.034756826
0.035164768
0.035457381
0.035649793
0.035754419
0.035788827
0.035762047
0.035683943
0.035563097
0.035407329
0.03522296
0.035015348
0.034789051
0.034547905
0.034295132
0.034033444
0.033765118
0.033492055
0.033215843
0.032937799
0.032659013
0.032380385
0.03210265
0.031826405
0.031552132
0.031280211
0.031010942
0.030744554
0.030481214
0.030221044
0.029964117
0.029710483
0.0010334332
0.0034618229
0.0062120412
0.0092061352
0.012338159
0.015494897
0.018571507
0.021480767
0.024158021
0.026562307
0.028674202
0.0304918
0.032026076
0.033296318
0.034326477
0.035142774
0.03577181
0.036232657
0.036560463
0.036772238
0.036883355
0.036913303
0.036875674
0.036780663
0.036638563
0.036458287
0.036247171
0.036011354
0.035755983
0.035485377
0.035203136
0.034912257
0.03461523
0.034314117
0.034010622
0.033706145
0.03340183
0.033098608
0.03279723
0.032498295
0.032202277
0.031909541
0.031620367
0.031334956
0.03105345
0.030775942
0.030502477
0.030233065
0.029967694
0.0011132998
0.0037641924
0.0067869135
0.010078217
0.013503762
0.016925972
0.020222595
0.023297056
0.026082517
0.028541715
0.030662768
0.032453075
0.033932966
0.035130128
0.036075376
0.036800039
0.037327433
0.037699937
0.03793746
0.038059121
0.038087807
0.038039352
0.037926757
0.0377621
0.037555569
0.037315601
0.037049255
0.036762394
0.036459879
0.036145738
0.035823295
0.035495281
0.035163935
0.034831088
0.034498226