/*--------------------------------*- C++ -*----------------------------------*\
| =========                 |                                                 |
| \\      /  F ield         | OpenFOAM: The Open Source CFD Toolbox           |
|  \\    /   O peration     | Version:  2312                                  |
|   \\  /    A nd           | Website:  www.openfoam.com                      |
|    \\/     M anipulation  |                                                 |
\*---------------------------------------------------------------------------*/
FoamFile
{
    version     2.0;
    format      ascii;
    arch        "LSB;label=32;scalar=64";
    class       volScalarField;
    location    "0.09";
    object      k;
}
// * * * * * * * * * * * * * * * * * * * * * * * * * * * * * * * * * * * * * //

dimensions      [0 2 -2 0 0 0 0];

internalField   nonuniform List<scalar> 
3221
(
10.908024
10.734288
10.570445
10.416265
10.271499
10.135894
10.009194
9.8911399
9.7814713
9.6799241
9.5862317
9.5001255
9.4213347
9.3495875
9.2846101
9.2261274
9.1738645
9.1275481
9.0869063
9.0516683
9.0215653
8.9963308
8.9757011
8.9594153
8.9472159
8.9388488
8.9340644
8.932617
8.9342318
8.9387188
8.9458596
8.9554045
8.9671344
8.9808369
8.9963059
9.0133423
9.0317539
9.0513564
9.0719726
9.0934337
9.1155785
9.1382541
9.1613159
9.1846277
9.2080614
9.2314976
9.2548249
9.2779404
9.3007495
9.3231657
9.3451111
9.3665165
10.908231
10.735027
10.571754
10.418166
10.274009
10.139029
10.01297
9.8955735
9.7865774
9.6857189
9.5927326
9.5073502
9.4293013
9.3583127
9.2941104
9.2364203
9.1849681
9.1394792
9.0996793
9.065296
9.0360588
9.0116993
8.9919513
8.9765514
8.9652394
8.9577587
8.9538566
8.9532843
8.9557523
8.961108
8.9690855
8.9794485
8.9919751
9.0064498
9.0226639
9.0404157
9.0595108
9.0797626
9.1009921
9.1230286
9.1457096
9.168881
9.1923971
9.2161208
9.2399237
9.2636857
9.2872956
9.3106501
9.3336545
9.3562221
9.3782748
9.3997481
10.908683
10.73643
10.574159
10.421622
10.278566
10.144734
10.019866
9.9037026
9.7959807
9.6964357
9.6048013
9.5208087
9.444187
9.3746634
9.3119634
9.255812
9.2059332
9.1620504
9.1238874
9.0911687
9.0636197
9.0409671
9.02294
9.0092697
8.9996906
8.99394
8.9917591
8.9928718
8.9970365
9.0040562
9.0136549
9.0255986
9.0396597
9.0556171
9.0732567
9.092372
9.112764
9.134242
9.1566234
9.1797345
9.2034099
9.2274933
9.2518375
9.2763041
9.3007638
9.3250965
9.3491906
9.3729438
9.396262
9.4190598
9.4412609
9.4628036
10.909368
10.738532
10.577735
10.426737
10.285289
10.153134
10.03001
9.9156564
9.8098072
9.7121964
9.6225558
9.5406154
9.4661031
9.3987447
9.3382644
9.2843851
9.2368284
9.1953146
9.1595634
9.1292938
9.1042253
9.0840778
9.068573
9.0574339
9.0503862
9.0471581
9.0474746
9.0510382
9.0576762
9.0670866
9.0790201
9.0932334
9.1094901
9.127561
9.1472244
9.1682666
9.1904824
9.2136753
9.2376579
9.2622521
9.2872893
9.3126105
9.3380663
9.3635174
9.3888339
9.4138958
9.4385924
9.4628226
9.4864944
9.5095248
9.5318404
9.5533833
10.910279
10.741322
10.582474
10.433503
10.294165
10.164207
10.043369
9.9313878
9.8279987
9.7329336
9.6459226
9.5666939
9.4949732
9.4304839
9.3729471
9.3220818
9.2776044
9.2392297
9.2066705
9.1796382
9.1578433
9.1409962
9.1288075
9.1209892
9.1172546
9.1173192
9.1208514
9.1276768
9.1374705
9.1499648
9.1648982
9.1820157
9.2010697
9.2218203
9.2440361
9.2674947
9.2919831
9.317298
9.3432461
9.3696448
9.3963216
9.423115
9.4498742
9.476459
9.5027399
9.5285981
9.5539247
9.5786215
9.6025998
9.6257807
9.6480953
9.669491
10.911416
10.744811
10.5884
10.44196
10.305251
10.178027
10.060032
9.9510034
9.8506767
9.7587835
9.6750525
9.5992095
9.5309775
9.4700759
9.4162211
9.3691258
9.3284992
9.2940475
9.2654735
9.2424776
9.2247581
9.2120118
9.2039349
9.2002241
9.2005744
9.2046418
9.2122237
9.2229763
9.2366105
9.2528427
9.2713958
9.2920002
9.3143947
9.3383268
9.3635537
9.3898429
9.4169726
9.444732
9.472922
9.5013552
9.529856
9.5582611
9.5864188
9.6141897
9.641446
9.6680715
9.6939613
9.7190216
9.743169
9.7663307
9.7884444
9.8094649
10.912786
10.74902
10.595555
10.452171
10.318638
10.194712
10.080144
9.9746748
9.8780406
9.7899737
9.7102015
9.6384477
9.5744311
9.5178662
9.4684622
9.4259233
9.3899486
9.3602321
9.3364633
9.3183273
9.3055058
9.2976774
9.2945195
9.2956963
9.3008727
9.3097905
9.322092
9.3374623
9.3555918
9.3761777
9.3989244
9.4235451
9.4497627
9.4773105
9.5059331
9.5353869
9.5654412
9.5958779
9.6264924
9.6570934
9.6875035
9.7175588
9.7471088
9.7760165
9.8041581
9.8314224
9.8577104
9.8829354
9.9070218
9.9299052
9.9515326
9.9718681
10.914399
10.753982
10.603996
10.464224
10.334442
10.214414
10.103894
10.002628
9.9103558
9.8268099
9.7517173
9.6847986
9.625768
9.5743328
9.5301928
9.4930407
9.4625617
9.4384338
9.4203281
9.40791
9.4008397
9.3987704
9.4013258
9.4082009
9.4190544
9.4335182
9.4512478
9.4719034
9.4951513
9.5206657
9.5481298
9.5772375
9.607694
9.6392173
9.6715386
9.7044038
9.7375732
9.7708225
9.8039429
9.8367413
9.8690401
9.9006774
9.9315065
9.9613955
9.9902273
10.017899
10.04432
10.069413
10.093115
10.115371
10.136142
10.155402
10.916268
10.759738
10.613795
10.478225
10.352809
10.237316
10.131508
10.035137
9.9479446
9.8696659
9.8000268
9.7387444
9.6855265
9.6400708
9.602065
9.5711863
9.5471013
9.5294668
9.5179298
9.5121296
9.5117052
9.5162057
9.525392
9.5388091
9.5560817
9.5768306
9.6006805
9.6272619
9.6562135
9.6871832
9.7198308
9.7538287
9.7888637
9.8246381
9.8608702
9.8972958
9.9336683
9.9697589
10.005357
10.040271
10.074325
10.107364
10.139247
10.169851
10.19907
10.226812
10.252999
10.277568
10.300468
10.321661
10.341121
10.358838
10.918409
10.766337
10.625037
10.494297
10.373902
10.26363
10.163249
10.072517
9.9911805
9.918976
9.8556282
9.8008492
9.7543384
9.715781
9.6848481
9.6611965
9.6444689
9.6342943
9.6302874
9.6320415
9.6391394
9.6512429
9.6678897
9.6886594
9.7131335
9.7408957
9.7715347
9.8046474
9.8398406
9.8767338
9.9149612
9.9541732
9.9940378
10.034242
10.074494
10.11452
10.15407
10.192914
10.230844
10.267671
10.303229
10.337369
10.369965
10.400906
10.4301
10.45747
10.482957
10.506513
10.528106
10.547715
10.565332
10.580966
10.920839
10.773835
10.637817
10.512578
10.397908
10.293593
10.19941
10.115123
10.040484
9.9752303
9.9190852
9.8717537
9.8329233
9.8022624
9.77942
9.7640263
9.7556931
9.7540164
9.7585089
9.7688459
9.7845354
9.8051123
9.830113
9.8590712
9.891522
9.9270053
9.9650685
10.00527
10.047182
10.090394
10.134514
10.179169
10.224011
10.268714
10.312977
10.356522
10.3991
10.440484
10.480471
10.518884
10.555568
10.590391
10.62324
10.654026
10.682673
10.709128
10.733349
10.755313
10.775008
10.792435
10.807606
10.820553
10.923577
10.782291
10.65224
10.533219
10.42503
10.327466
10.240313
10.163345
10.096319
10.038972
9.9910248
9.9521715
9.9220839
9.9004078
9.8867622
9.8807421
9.8819173
9.8897713
9.9039755
9.9239548
9.9492102
9.9792282
10.013489
10.051471
10.092657
10.136536
10.18261
10.230394
10.279425
10.32926
10.379482
10.429699
10.479546
10.528689
10.576824
10.623674
10.668994
10.712567
10.754204
10.793744
10.831051
10.866012
10.898539
10.928565
10.956041
10.980937
11.003239
11.022948
11.040078
11.054654
11.066715
11.076315
10.926646
10.791772
10.668418
10.556386
10.455488
10.36553
10.28631
10.21761
10.159193
10.110798
10.072136
10.042888
10.022705
10.011204
10.007958
10.012475
10.024348
10.043064
10.068063
10.098786
10.134662
10.175108
10.219537
10.267364
10.31801
10.370909
10.42551
10.481287
10.537738
10.594391
10.650804
10.706569
10.761312
10.814697
10.86642
10.916214
10.963846
11.009117
11.051858
11.091932
11.129229
11.163665
11.19518
11.223736
11.249316
11.271921
11.291566
11.308283
11.322114
11.333115
11.341349
11.346897
10.930067
10.802346
10.68647
10.582252
10.489517
10.408089
10.337778
10.278379
10.229659
10.191356
10.16317
10.144762
10.135752
10.135732
10.144091
10.160573
10.184484
10.215255
10.252272
10.294896
10.342474
10.394343
10.449836
10.508295
10.569072
10.63154
10.695097
10.759169
10.823221
10.886752
10.949302
11.010453
11.06983
11.127099
11.18197
11.234193
11.283556
11.329887
11.373047
11.412931
11.449461
11.482591
11.512296
11.538576
11.561448
11.580949
11.59713
11.610056
11.619803
11.626456
11.630111
11.630867
10.933863
10.814085
10.706521
10.611001
10.527368
10.455464
10.395122
10.346146
10.30831
10.281348
10.264943
10.258727
10.262251
10.275037
10.296642
10.32642
10.363729
10.407893
10.458203
10.513922
10.574298
10.638573
10.705992
10.775811
10.847311
10.919799
10.992619
11.065157
11.136842
11.207156
11.275626
11.341834
11.405411
11.466041
11.523455
11.577431
11.627791
11.674399
11.717155
11.755995
11.790886
11.821823
11.848825
11.871934
11.891209
11.906729
11.918582
11.926871
11.931707
11.933207
11.931522
11.926761
10.938058
10.827065
10.728704
10.642825
10.5693
10.507998
10.458771
10.421441
10.395786
10.381533
10.378336
10.385712
10.403332
10.430601
10.466876
10.511474
10.563649
10.622612
10.687533
10.757557
10.831819
10.909449
10.989593
11.071416
11.154121
11.236949
11.319195
11.400205
11.479387
11.556208
11.630198
11.700949
11.768114
11.831403
11.890585
11.945477
11.995947
12.041907
12.083307
12.120134
12.152406
12.180168
12.203491
12.222464
12.237195
12.247804
12.254423
12.257201
12.25628
12.251851
12.243989
12.232921
10.942677
10.841363
10.753151
10.677925
10.615589
10.566048
10.529181
10.504828
10.492768
10.49273
10.504165
10.526939
10.560317
10.60367
10.656268
10.717302
10.785894
10.861113
10.941988
11.027525
11.116724
11.208594
11.302169
11.396519
11.490768
11.584095
11.675751
11.765053
11.851398
11.934253
12.013164
12.08775
12.157699
12.222766
12.28277
12.337584
12.387132
12.431388
12.470361
12.5041
12.532682
12.556212
12.574814
12.588633
12.597829
12.602569
12.603017
12.599441
12.591892
12.580637
12.565856
12.547753
10.947745
10.857056
10.780001
10.716505
10.66652
10.629992
10.606836
10.596911
10.599973
10.615653
10.643724
10.683543
10.734452
10.795687
10.866376
10.945554
11.032178
11.125147
11.223321
11.325544
11.430665
11.537558
11.645139
11.752383
11.858336
11.962126
12.062969
12.160169
12.253124
12.341324
12.424347
12.501856
12.573596
12.639382
12.699099
12.752691
12.800154
12.841531
12.876906
12.906396
12.930147
12.948326
12.961121
12.968731
12.971378
12.969292
12.962688
12.951752
12.936745
12.917898
12.895433
12.86958
10.953286
10.874225
10.809394
10.758776
10.722386
10.700223
10.692245
10.698266
10.718111
10.751534
10.797961
10.856757
10.927138
11.008183
11.098839
11.197949
11.304266
11.416486
11.533273
11.653285
11.775205
11.897763
12.019755
12.140064
12.25767
12.371659
12.481231
12.585697
12.684478
12.777107
12.863216
12.942537
13.014887
13.080163
13.138333
13.189425
13.233522
13.27075
13.301273
13.325288
13.343014
13.354689
13.360566
13.360892
13.356048
13.346108
13.331459
13.312357
13.289071
13.261863
13.23099
13.196708
10.959326
10.892947
10.841469
10.804953
10.783491
10.777153
10.785846
10.809604
10.848224
10.901234
10.968051
11.04791
11.139856
11.242766
11.355365
11.476254
11.603944
11.736892
11.873536
12.012328
12.151774
12.290453
12.427048
12.560359
12.689315
12.812984
12.930571
13.041417
13.144996
13.240907
13.328865
13.408689
13.480295
13.543678
13.598906
13.646109
13.685466
13.717198
13.741559
13.75883
13.76931
13.773313
13.771176
13.763235
13.749728
13.731037
13.707485
13.679384
13.647038
13.610742
13.570784
13.527447
10.965888
10.913299
10.876366
10.855252
10.850147
10.861083
10.88832
10.931764
10.991089
11.065818
11.155242
11.258415
11.374166
11.501114
11.637708
11.782257
11.932986
12.088073
12.245702
12.404107
12.561604
12.716631
12.867765
13.013742
13.153469
13.286018
13.410631
13.526712
13.633815
13.731637
13.820001
13.898842
13.968191
14.028165
14.078948
14.120783
14.153959
14.1788
14.195656
14.204894
14.206908
14.202146
14.190866
14.173506
14.150462
14.122111
14.088818
14.050936
14.008805
13.962752
13.913091
13.860129
10.972996
10.935356
10.914223
10.909889
10.922528
10.952641
11.00031
11.065416
11.147649
11.246422
11.360852
11.489762
11.631697
11.784958
11.94765
12.11774
12.293112
12.471633
12.651212
12.829847
13.005674
13.176997
13.342312
13.50032
13.649934
13.790268
13.920637
14.040543
14.149659
14.247809
14.334952
14.411163
14.476614
14.531556
14.576308
14.611238
14.636752
14.653285
14.66129
14.661212
14.653681
14.638857
14.617375
14.589669
14.556176
14.517319
14.473505
14.425125
14.372551
14.316138
14.256224
14.193137
10.980671
10.959192
10.955173
10.968925
11.001185
11.052282
11.122362
11.211363
11.318906
11.444248
11.586275
11.743507
11.914131
12.096053
12.286967
12.48443
12.685941
12.889024
13.091292
13.290512
13.484648
13.671896
13.850705
14.019779
14.178075
14.324797
14.459375
14.581449
14.690845
14.787548
14.871684
14.943489
15.003297
15.051512
15.088596
15.115054
15.131416
15.138232
15.136079
15.125565
15.107062
15.081212
15.04855
15.009582
14.964796
14.91466
14.85962
14.800099
14.736499
14.669199
14.598557
14.524916
10.988939
10.984873
10.999186
11.032824
11.08641
11.160416
11.255121
11.370451
11.505915
11.660561
11.832965
12.02126
12.223183
12.436158
12.657387
12.883955
13.112934
13.341474
13.566891
13.78673
13.998811
14.20126
14.392522
14.571351
14.736804
14.888219
15.025193
15.147545
15.255293
15.348615
15.427828
15.493357
15.545711
15.585462
15.613225
15.629647
15.635388
15.631174
15.617613
15.595259
15.564832
15.526945
15.482186
15.43112
15.374282
15.312178
15.24529
15.17407
15.098944
15.020309
14.938541
14.853996
10.997829
11.012308
11.046638
11.101744
11.178473
11.277526
11.399259
11.543564
11.709786
11.896683
12.102431
12.324665
12.560569
12.806985
13.06054
13.317787
13.575327
13.829929
14.078617
14.31874
14.54802
14.764563
14.966865
15.15379
15.324556
15.478693
15.616009
15.736549
15.840558
15.92844
16.000728
16.058052
16.101113
16.130658
16.147465
16.152323
16.146124
16.129497
16.103183
16.067994
16.024641
15.973801
15.916121
15.852213
15.782654
15.707988
15.628722
15.545333
15.458266
15.367935
15.274726
15.179005
11.007263
11.041801
11.097587
11.175822
11.277695
11.404102
11.555475
11.731629
11.931676
12.153986
12.396212
12.655371
12.927969
13.210156
13.497903
13.787171
14.074069
14.35498
14.626668
14.886333
15.131654
15.360784
15.572338
15.765366
15.939305
16.093938
16.229335
16.34581
16.44387
16.524171
16.587484
16.634658
16.666595
16.684226
16.68849
16.680458
16.660814
16.630487
16.590399
16.541371
16.484187
16.419584
16.34826
16.27087
16.188025
16.100297
16.008219
15.912285
15.812954
15.710652
15.60577
15.498681
11.017333
11.073311
11.152054
11.255236
11.384391
11.540644
11.724486
11.935604
12.172779
12.433868
12.715859
13.014998
13.326976
13.647142
13.970728
14.293059
14.60974
14.916797
15.210776
15.488799
15.748573
15.988381
16.207041
16.403862
16.578572
16.731263
16.862319
16.97236
17.062186
17.132728
17.185011
17.220114
17.239145
17.243219
17.233605
17.211075
17.176745
17.131675
17.076813
17.013057
16.941252
16.86219
16.776612
16.685207
16.588616
16.487433
16.382208
16.273447
16.161619
16.047154
15.93045
15.811877
11.028053
11.10681
11.210111
11.340148
11.49887
11.687655
11.90703
12.156475
12.434317
12.73774
13.062892
13.405082
13.759038
14.119193
14.479967
14.836026
15.182485
15.51506
15.830152
16.124886
16.397096
16.645288
16.868575
17.066603
17.239463
17.38761
17.511789
17.61296
17.692243
17.750861
17.7901
17.811276
17.815703
17.80487
17.779685
17.741446
17.691379
17.630577
17.56007
17.480821
17.39373
17.299634
17.199308
17.09347
16.982781
16.867852
16.749242
16.627467
16.502998
16.376266
16.247669
16.117572
11.039404
11.142315
11.27181
11.430699
11.621424
11.845635
12.103852
12.395239
12.71751
13.06698
13.438756
13.82702
14.225382
14.627252
15.02619
15.416197
15.791942
16.148904
16.483438
16.792777
17.074992
17.328921
17.554066
17.75049
17.918712
18.059607
18.174316
18.26417
18.330627
18.37521
18.399476
18.404971
18.393425
18.365938
18.323981
18.268984
18.202205
18.124822
18.037935
17.942563
17.839651
17.730071
17.614624
17.494048
17.369019
17.240155
17.108022
16.973136
16.835967
16.696944
16.556456
16.414865
11.051374
11.179817
11.337173
11.527004
11.752328
12.015078
12.315698
12.65289
13.023551
13.422896
13.844758
14.281987
14.726926
15.171872
15.609494
16.033162
16.437171
16.816869
17.168679
17.490075
17.779491
18.036204
18.260201
18.452044
18.612739
18.743625
18.846275
18.922409
18.973833
19.002378
19.009862
18.998278
18.968991
18.923628
18.863869
18.791158
18.706845
18.612182
18.508324
18.396338
18.277202
18.151813
18.020992
17.885487
17.745981
17.603095
17.457393
17.309386
17.15954
17.008275
16.855972
16.702982
11.063946
11.219281
11.40619
11.629147
11.891832
12.19646
12.543294
12.930385
13.353558
13.806657
14.281982
14.770845
15.26418
15.753109
16.229416
16.685904
17.116604
17.516859
17.883312
18.213819
18.507307
18.763609
18.983287
19.167473
19.317716
19.435856
19.523918
19.584025
19.618336
19.628981
19.618244
19.587839
19.539531
19.475299
19.396805
19.305591
19.203084
19.090594
18.969324
18.840373
18.704742
18.563346
18.417014
18.266498
18.112481
17.955578
17.796347
17.635292
17.472867
17.309482
17.145506
16.981275
11.077094
11.260644
11.478812
11.737168
12.040148
12.390222
12.787324
13.228603
13.708513
14.219211
14.751193
15.294032
15.837137
16.370424
16.884843
17.372732
17.827994
18.24613
18.624169
18.960503
19.254685
19.507211
19.719308
19.892739
20.029641
20.132381
20.203447
20.245364
20.260651
20.251902
20.221284
20.170669
20.102405
20.0184
19.92042
19.810088
19.688891
19.558186
19.419208
19.273079
19.120814
18.963333
18.801465
18.635958
18.467489
18.296663
18.124028
17.950073
17.775239
17.599921
17.424471
17.24921
11.090783
11.303814
11.554948
11.851064
12.197446
12.596756
13.048393
13.548292
14.089175
14.661176
15.25271
15.85143
16.445144
17.022577
17.573933
18.091222
18.568392
19.001291
19.387507
19.726125
20.017455
20.262759
20.464003
20.623637
20.744414
20.829243
20.881079
20.902834
20.897535
20.867884
20.815826
20.744153
20.655063
20.550577
20.432546
20.302656
20.162437
20.013284
19.856449
19.693064
19.524147
19.350614
19.173288
18.992909
18.810138
18.625567
18.439727
18.25309
18.066079
17.879071
17.6924
17.50637
11.104964
11.348663
11.634456
11.970777
12.363835
12.816373
13.326974
13.889978
14.49597
15.132703
15.786254
16.44222
17.086776
17.707521
18.294038
18.838183
19.334149
19.778331
20.169055
20.506251
20.79111
21.025755
21.212952
21.355877
21.457916
21.522527
21.553127
21.553024
21.525893
21.473535
21.399306
21.305745
21.195171
21.069695
20.931233
20.781517
20.622111
20.454427
20.279721
20.099126
19.913653
19.724209
19.531603
19.336558
19.139717
18.941652
18.742874
18.543834
18.344935
18.146532
17.94894
17.752442
11.119578
11.395025
11.717141
12.096184
12.539345
13.049262
13.623337
14.253858
14.928835
15.633296
16.350772
17.064718
17.759706
18.422311
19.041655
19.609647
20.120938
20.572666
20.964075
21.29609
21.570892
21.791542
21.961659
22.085164
22.166087
22.208422
22.216037
22.193037
22.14203
22.066372
21.969187
21.853134
21.720629
21.573851
21.414762
21.245125
21.066521
20.88036
20.687896
20.490253
20.28843
20.083314
19.875695
19.666271
19.455664
19.244423
19.033034
18.821924
18.611474
18.402015
18.193842
17.987215
11.134552
11.442694
11.802747
12.22709
12.723899
13.295432
13.937438
14.639637
15.387023
16.161603
16.944227
17.716199
18.460568
19.163019
19.812404
20.400891
20.923801
21.379212
21.767457
22.090591
22.351885
22.555402
22.705643
22.807288
22.865
22.883294
22.866834
22.8191
22.743523
22.643863
22.523188
22.384264
22.229591
22.061391
21.881657
21.692162
21.494486
21.290032
21.080045
20.865628
20.647758
20.427297
20.205009
19.981566
19.757562
19.533519
19.309896
19.087096
18.865473
18.645335
18.426954
18.210566
11.149796
11.491418
11.890951
12.363207
12.917275
13.55462
14.268767
15.046316
15.868847
16.715151
17.563364
18.392717
19.184843
19.924695
20.601034
21.206482
21.737226
22.192476
22.573815
22.884548
23.129121
23.312645
23.440525
23.518196
23.550931
23.543975
23.502076
23.428516
23.327893
23.203762
23.059298
22.89735
22.720473
22.530913
22.330674
22.121526
21.905041
21.682604
21.455436
21.224614
20.991086
20.755684
20.519141
20.282099
20.045121
19.8087
19.573266
19.339194
19.106812
18.876402
18.648213
18.422457
11.165207
11.540897
11.981361
12.504141
13.11904
13.826167
14.616138
15.471905
16.371357
17.290031
18.203453
19.088915
19.926767
20.701351
21.401468
22.020356
22.555254
23.006678
23.377608
23.672712
23.897683
24.058713
24.162115
24.214066
24.220484
24.187477
24.118583
24.018982
23.892928
23.744111
23.575793
23.390879
23.191945
22.981252
22.760798
22.532343
22.297434
22.057429
21.813519
21.566746
21.318024
21.068152
20.817827
20.567658
20.318176
20.069841
19.823054
19.57816
19.33546
11.180665
11.590783
12.073502
12.649354
13.328467
14.108819
14.977381
15.913038
16.889937
17.880536
18.858
19.797868
20.679281
21.485991
22.206888
22.835945
23.371611
23.815877
24.173266
24.449911
24.65281
24.789262
24.866484
24.891348
24.870923
24.810258
24.71425
24.588321
24.436727
24.263258
24.071239
23.863603
23.642931
23.411486
23.171249
22.923953
22.671111
22.414048
22.153915
21.891718
21.628331
21.364515
21.100931
20.838151
20.576671
20.31692
20.059266
19.804025
19.55147
11.196033
11.640676
12.166816
12.798123
13.544386
14.400457
15.348925
16.364469
17.417798
18.478734
19.518461
20.510946
21.434018
22.270691
23.009871
23.646325
24.179863
24.614125
24.955323
25.21116
25.389995
25.50025
25.550039
25.547103
25.499029
25.41006
25.286944
25.134695
24.957712
24.759848
24.544473
24.314533
24.072604
23.820929
23.56146
23.295892
23.025702
22.752169
22.476405
22.19937
21.9219
21.644713
21.368431
21.093589
20.820649
20.550005
20.281992
20.016899
19.754967
11.21116
11.690125
12.260636
12.949455
13.764971
14.697682
15.725212
16.818416
17.945372
19.073998
20.173965
21.217722
22.181365
23.046754
23.802577
24.444409
24.973593
25.395617
25.718553
25.95178
26.105076
26.188001
26.209566
26.17887
26.101845
25.985022
25.834905
25.656605
25.454607
25.232808
24.994607
24.742945
24.480377
24.209112
23.931065
23.647887
23.361008
23.071662
22.780913
22.489678
22.198747
21.908797
21.620411
21.334084
21.050242
20.769245
20.491398
20.216958
19.946139
11.225875
11.73862
12.354163
13.101959
13.987406
14.995222
16.09789
17.263701
18.459579
19.652501
20.811049
21.905954
22.910599
23.804927
24.576982
25.223167
25.746587
26.154849
26.458087
26.667489
26.794312
26.84927
26.842621
26.783581
26.677746
26.533425
26.356716
26.152871
25.926439
25.681356
25.421021
25.148356
24.865882
24.57577
24.279883
23.979829
23.676984
23.372534
23.067494
22.762734
22.458998
22.156921
21.857045
21.559827
21.265658
20.974862
20.687714
20.40444
20.125229
11.239985
11.78559
12.446409
13.253616
14.207352
15.285069
16.454699
17.684644
18.942967
20.196678
21.413426
22.561661
23.610132
24.53571
25.325171
25.975862
26.493029
26.886764
27.169535
27.354495
27.454455
27.481308
27.447062
27.358967
27.225243
27.053954
26.851299
26.622627
26.372538
26.104981
25.823338
25.530504
25.228957
24.920818
24.607904
24.291764
23.973726
23.654922
23.336317
23.018734
22.702872
22.389323
22.078586
21.771085
21.46717
21.167136
20.871225
20.579635
20.292526
11.253275
11.830379
12.536088
13.4014
14.418135
15.555221
16.777913
18.059627
19.372711
20.68468
21.961812
23.169347
24.267867
25.229748
26.039667
26.696308
27.207681
27.586889
27.849078
28.009559
28.082779
28.082125
28.020447
27.903872
27.743087
27.54564
27.317908
27.065321
26.79251
26.503419
26.201407
25.88933
25.569618
25.244342
24.915262
24.583874
24.25145
23.919071
23.587652
23.257968
22.930673
22.606316
22.285358
21.968183
21.655109
21.346398
21.042262
20.74287
20.448358
11.265483
11.872205
12.621417
13.540611
14.609439
15.78784
17.054984
18.385632
19.750902
21.118033
22.452133
23.71652
24.871696
25.878328
26.713785
27.379106
27.886048
28.251441
28.493543
28.630029
28.677047
28.650382
28.560916
28.417345
28.230445
28.00787
27.756118
27.480683
27.186211
26.876634
26.555278
26.224956
25.888049
25.546571
25.202226
24.856457
24.51048
24.165324
23.821856
23.480802
23.142773
22.808278
22.477738
22.151501
21.829853
21.513024
21.201196
20.894513
20.593085
11.276264
11.910075
12.699744
13.663722
14.765232
15.980831
17.289944
18.666631
20.081229
21.500466
22.888405
24.206914
25.415687
26.473971
27.341999
28.019865
28.52451
28.877413
29.100437
29.213908
29.235856
29.184322
29.067878
28.898643
28.686843
28.440357
28.165794
27.868698
27.553726
27.224791
26.885183
26.537667
26.184574
25.827861
25.469179
25.109913
24.751229
24.394104
24.039356
23.687667
23.339605
22.995638
22.656152
22.321461
21.991817
21.66742
21.348427
21.034954
20.727089
11.285095
11.942613
12.766859
13.75834
14.888192
16.138556
17.48686
18.906533
20.367431
21.835736
23.274524
24.644369
25.903833
27.010499
27.920255
28.615377
29.120413
29.462595
29.667991
29.759781
29.758343
29.682839
29.540976
29.347471
29.112154
28.843111
28.547057
28.229581
27.895343
27.548234
27.191508
26.827884
26.459639
26.088678
25.716597
25.344729
24.974187
24.605901
24.240641
23.879048
23.521647
23.168869
22.821066
22.478517
22.141446
21.810023
21.48438
21.164609
20.850774
11.291052
11.967713
12.815706
13.825837
14.982683
16.265297
17.649732
19.109153
20.613213
22.127567
23.614301
25.032728
26.340156
27.492786
28.44636
29.16371
29.672078
30.005616
30.195116
30.266783
30.244256
30.145347
29.980143
29.76388
29.506548
29.216403
28.900259
28.563743
28.21152
27.847458
27.474774
27.096144
26.713794
26.329578
25.945039
25.56146
25.179906
24.80126
24.426249
24.055471
23.689415
23.328476
22.972972
22.623151
22.279208
21.941289
21.609498
21.283906
20.964558
11.292274
11.981861
12.841118
13.870717
15.053167
16.365245
17.78244
19.278192
20.82221
22.379621
23.911467
25.375773
26.728516
27.924497
28.918088
29.664173
30.178825
30.505872
30.681401
30.734791
30.693149
30.572256
30.385581
30.14822
29.870461
29.560736
29.225949
28.87177
28.502866
28.123087
27.735615
27.343084
26.947673
26.551189
26.155126
25.760718
25.368987
24.98077
24.596754
24.217499
23.843457
23.474991
23.112385
22.755862
22.405589
22.061686
21.724235
21.393287
21.068864
11.284752
11.977251
12.848552
13.897908
15.104157
16.442458
17.888706
19.417214
20.99796
22.595483
24.169668
25.677195
27.07268
28.309462
29.340409
30.117695
30.640855
30.963469
31.127026
31.164092
31.105251
30.964153
30.757844
30.501107
30.204558
29.876803
29.524843
29.154388
28.770112
28.375849
27.974752
27.569416
27.161979
26.7542
26.34753
25.94316
25.542068
25.145051
24.752759
24.365715
23.984339
23.60896
23.239838
22.877165
22.521084
22.171694
21.829054
21.493196
21.164124
11.270805
11.959852
12.843693
13.912551
15.140095
16.500796
17.972053
19.52963
21.143896
22.778652
24.392454
25.940588
27.376283
28.651371
29.717426
30.525863
31.059062
31.379129
31.532663
31.555428
31.481237
31.321876
31.097759
30.823386
30.50969
30.165459
29.797789
29.412436
29.014085
28.606557
28.192981
27.775916
27.357464
26.939343
26.522962
26.109474
25.699815
25.294749
24.894887
24.500721
24.11264
23.730946
23.355869
22.987579
11.252347
11.9349
12.832366
13.919825
15.165224
16.543849
18.03578
19.618694
21.263342
22.932532
24.583279
26.169418
27.642796
28.953768
30.052602
30.890522
31.434883
31.754052
31.899443
31.909913
31.822108
31.646506
31.406375
31.116078
30.78686
30.427684
30.045744
29.646846
29.235688
28.816086
28.391147
27.963403
27.53492
27.107381
26.682159
26.26037
25.842915
25.430522
25.023773
24.623129
24.22895
23.841513
23.461023
23.087627
11.230942
11.907615
12.820623
13.924761
15.183419
16.574859
18.082938
19.687496
21.359504
23.060433
24.745477
26.366986
27.875577
29.220004
30.349111
31.213596
31.770151
32.089869
32.228838
32.228981
32.129096
31.939342
31.684904
31.38035
31.037189
30.664555
30.269745
29.858613
29.435879
29.005356
28.570136
28.132726
27.695164
27.2591
26.825875
26.396571
25.97206
25.553037
25.140057
24.733552
24.333859
23.941228
23.555843
23.177833
11.208247
11.883851
12.81474
13.931977
15.19801
16.596651
18.116315
19.738956
21.435468
23.165546
24.882217
26.53648
28.077805
29.453233
30.610055
31.497535
32.067106
32.388531
32.522562
32.514347
32.403694
32.201738
31.934675
31.617465
31.261879
30.877219
30.470883
30.048781
29.615654
29.175319
28.730858
28.284756
27.839027
27.395296
26.954871
26.518808
26.087949
25.662964
25.24438
24.832605
24.427953
24.030653
23.64087
23.258712
11.186477
11.870773
12.820885
13.945291
15.211587
16.611576
18.138427
19.77583
21.494181
23.250896
24.996541
26.680936
28.252432
29.656449
30.838446
31.746141
32.328316
32.652203
32.782595
32.767623
32.647659
32.435201
32.157108
31.82876
31.462189
31.066865
30.650286
30.218417
29.776028
29.326942
28.874232
28.42037
27.967348
27.516766
27.06991
26.627808
26.191279
25.760967
25.337377
24.920895
24.511814
24.110345
23.716635
23.330774
11.169115
11.877213
12.844595
13.967225
15.225819
16.621471
18.151508
19.800721
21.538376
23.319351
25.091346
26.80307
28.402303
29.832474
31.037043
31.962645
32.556395
32.883165
33.010997
32.990605
32.862755
32.641315
32.353671
32.015607
31.639409
31.234707
30.809097
30.368605
29.918027
29.461196
29.001182
28.540445
28.080959
27.624305
27.171748
26.724293
26.282736
25.847702
25.419674
24.99902
24.586014
24.18085
23.783659
23.394517
11.162017
11.913685
12.889385
13.998428
15.241323
16.627655
18.157509
19.816026
21.57065
23.373578
25.169148
26.905463
28.530119
29.983817
31.208459
32.149886
32.753908
33.083729
33.209865
33.185173
33.050751
32.821693
32.525856
32.179396
31.794837
31.381961
30.948463
30.500424
30.04267
29.579047
29.112623
28.645849
28.180686
27.718698
27.261131
26.808972
26.362997
25.923814
25.491886
25.067566
24.651111
24.242701
23.842452
23.450428
11.175591
11.990139
12.954735
14.037187
15.25766
16.630983
18.158276
19.823891
21.593459
23.41598
25.2322
26.990568
28.638254
30.112773
31.355133
32.310414
32.923325
33.256174
33.381279
33.353221
33.213398
32.977943
32.675151
32.32151
31.929762
31.509837
31.069519
30.614943
30.150967
29.681448
29.209456
28.737437
28.267339
27.800714
27.338791
26.88254
26.432724
25.989931
25.554612
25.127104
24.70765
24.296417
23.893509
23.498979
11.231396
12.108309
13.033882
14.079428
15.273544
16.631954
18.155263
19.826402
21.608973
23.448484
25.282729
27.060654
28.728767
30.221469
31.47929
32.446547
33.066985
33.402704
33.527267
33.496612
33.352411
33.111646
32.803017
32.443305
32.045453