/*--------------------------------*- C++ -*----------------------------------*\
| =========                 |                                                 |
| \\      /  F ield         | OpenFOAM: The Open Source CFD Toolbox           |
|  \\    /   O peration     | Version:  2312                                  |
|   \\  /    A nd           | Website:  www.openfoam.com                      |
|    \\/     M anipulation  |                                                 |
\*---------------------------------------------------------------------------*/
FoamFile
{
    version     2.0;
    format      ascii;
    arch        "LSB;label=32;scalar=64";
    class       volScalarField;
    location    "0.09";
    object      Ma;
}
// * * * * * * * * * * * * * * * * * * * * * * * * * * * * * * * * * * * * * //

dimensions      [0 0 0 0 0 0 0];

internalField   nonuniform List<scalar> 
3221
(
0.0031623151
0.0031569073
0.003147599
0.0031356179
0.0031219898
0.0031072187
0.0030916771
0.0030757006
0.0030593259
0.0030425076
0.003025408
0.0030082149
0.0029911202
0.0029742841
0.002957582
0.0029409096
0.002924512
0.0029086726
0.0028935895
0.0028794494
0.0028664043
0.0028545516
0.0028439893
0.0028348097
0.0028270931
0.0028209078
0.0028163107
0.0028133479
0.0028120532
0.0028124491
0.0028145458
0.0028183414
0.0028238224
0.0028309639
0.0028397299
0.0028500744
0.0028619417
0.0028752676
0.0028899806
0.0029060021
0.0029232482
0.0029416304
0.0029610567
0.0029814322
0.0030026608
0.003024645
0.0030472876
0.0030704919
0.0030941624
0.0031182052
0.0031425279
0.0031670403
0.0031649887
0.0031633007
0.0031567073
0.0031463168
0.0031335735
0.0031191972
0.0031034947
0.0030866202
0.003068946
0.0030508654
0.0030325133
0.0030139814
0.002995343
0.0029766891
0.0029584054
0.0029408717
0.002924118
0.0029081049
0.0028927517
0.0028783277
0.0028651037
0.0028530391
0.0028422173
0.0028327503
0.002824736
0.0028182557
0.0028133761
0.0028101498
0.0028086151
0.0028087962
0.0028107032
0.0028143328
0.0028196681
0.0028266798
0.0028353268
0.0028455569
0.0028573079
0.0028705089
0.0028850811
0.0029009391
0.0029179921
0.0029361453
0.0029553003
0.002975357
0.0029962139
0.0030177696
0.0030399229
0.0030625739
0.0030856249
0.0031089805
0.0031325479
0.003156237
0.0031650353
0.0031659986
0.0031618334
0.0031534446
0.0031420748
0.0031285198
0.0031132863
0.0030967479
0.0030792559
0.0030611182
0.0030425592
0.0030237655
0.0030049057
0.0029861525
0.0029677288
0.0029498361
0.0029325942
0.0029161367
0.0029007227
0.0028863079
0.0028728562
0.0028606396
0.0028497934
0.0028404071
0.0028325614
0.0028263282
0.0028217673
0.0028189243
0.0028178307
0.0028185032
0.0028209441
0.0028251413
0.0028310689
0.0028386882
0.0028479482
0.0028587871
0.002871133
0.0028849055
0.0029000169
0.0029163733
0.0029338761
0.0029524233
0.0029719105
0.0029922317
0.0030132811
0.0030349532
0.003057144
0.0030797514
0.003102676
0.0031258219
0.0031490962
0.0031724088
0.0031653941
0.003167947
0.0031657927
0.0031594385
0.0031498405
0.0031377063
0.0031235685
0.0031078657
0.0030909765
0.003073227
0.0030548952
0.0030362254
0.0030174402
0.002998751
0.0029803646
0.0029624707
0.0029452354
0.0029288199
0.0029133925
0.0028990479
0.0028858813
0.0028740438
0.0028636545
0.0028548095
0.0028475919
0.0028420714
0.002838303
0.0028363254
0.0028361618
0.0028378191
0.0028412886
0.0028465466
0.0028535548
0.0028622619
0.002872604
0.0028845068
0.0028978862
0.0029126501
0.0029286998
0.0029459315
0.0029642374
0.0029835075
0.0030036304
0.0030244943
0.0030459885
0.0030680038
0.0030904336
0.003113174
0.0031361248
0.0031591899
0.0031822771
0.0032052977
0.0031656731
0.0031694527
0.0031689736
0.0031644812
0.0031566941
0.0031461951
0.0031334719
0.0031189605
0.0031030532
0.0030861005
0.0030684146
0.0030502776
0.0030319479
0.0030136668
0.002995661
0.0029781407
0.002961299
0.0029453144
0.0029303527
0.0029165579
0.0029040641
0.0028930021
0.0028834873
0.0028756185
0.002869478
0.0028651308
0.0028626246
0.0028619887
0.0028632349
0.0028663573
0.0028713331
0.0028781235
0.0028866749
0.0028969202
0.0029087802
0.0029221652
0.002936977
0.00295311
0.002970453
0.0029888911
0.0030083067
0.003028581
0.0030495955
0.0030712328
0.0030933776
0.0031159173
0.0031387433
0.0031617507
0.0031848394
0.003207914
0.0032308843
0.0032536635
0.0031659498
0.003170768
0.0031717271
0.0031689084
0.0031628558
0.0031540364
0.0031428734
0.0031297735
0.0031151226
0.0030992803
0.0030825788
0.003065326
0.0030478086
0.0030302951
0.0030130368
0.0029962684
0.0029802071
0.0029650535
0.0029509916
0.0029381876
0.0029267919
0.0029169398
0.0029087491
0.0029023186
0.0028977267
0.0028950318
0.0028942714
0.0028954628
0.0028986032
0.0029036705
0.0029106246
0.0029194084
0.00292995
0.0029421637
0.0029559525
0.0029712096
0.0029878205
0.003005665
0.0030246186
0.0030445545
0.003065345
0.003086863
0.003108983
0.0031315823
0.0031545418
0.0031777468
0.0032010872
0.0032244585
0.0032477615
0.0032709031
0.0032937959
0.0033163566
0.0031662469
0.0031720192
0.0031742722
0.0031729818
0.0031685693
0.0031614077
0.0031518573
0.0031402876
0.0031270673
0.0031125543
0.0030970911
0.0030810035
0.0030646007
0.0030481755
0.0030320041
0.0030163455
0.0030014411
0.0029875134
0.002974766
0.0029633821
0.0029535245
0.002945335
0.0029389335
0.0029344163
0.0029318559
0.0029313007
0.0029327753
0.002936281
0.0029417969
0.0029492813
0.0029586729
0.0029698936
0.0029828498
0.0029974351
0.0030135322
0.0030310157
0.0030497537
0.0030696104
0.0030904478
0.0031121271
0.003134511
0.0031574644
0.0031808558
0.0032045583
0.0032284502
0.0032524156
0.0032763448
0.0033001346
0.0033236886
0.0033469169
0.0033697366
0.0033920692
0.0031665731
0.0031732738
0.0031767394
0.0031768761
0.0031740207
0.0031684736
0.0031605414
0.0031505578
0.0031388718
0.0031258353
0.0031117958
0.0030970925
0.0030820534
0.0030669937
0.0030522133
0.0030379953
0.003024604
0.0030122832
0.0030012544
0.0029917154
0.0029838386
0.0029777707
0.0029736306
0.0029715094
0.0029714697
0.0029735463
0.0029777463
0.0029840509
0.0029924169
0.0030027787
0.0030150506
0.0030291297
0.0030448982
0.0030622264
0.0030809755
0.0031009998
0.0031221497
0.0031442736
0.0031672199
0.0031908388
0.0032149842
0.0032395142
0.0032642926
0.0032891899
0.0033140833
0.0033388575
0.0033634048
0.003387625
0.0034114258
0.0034347225
0.0034574379
0.0034795001
0.0031669329
0.0031745697
0.0031792085
0.003180707
0.0031793444
0.0031753667
0.0031690375
0.0031606607
0.003150568
0.0031391052
0.0031266241
0.0031134755
0.0031000055
0.0030865504
0.0030734336
0.0030609614
0.0030494205
0.0030390744
0.0030301607
0.0030228888
0.0030174378
0.003013955
0.0030125549
0.0030133187
0.0030162941
0.0030214969
0.0030289116
0.0030384942
0.0030501742
0.0030638578
0.003079431
0.0030967628
0.0031157088
0.0031361141
0.003157817
0.0031806512
0.0032044493
0.0032290443
0.0032542722
0.0032799735
0.0033059945
0.0033321885
0.0033584167
0.0033845487
0.0034104626
0.0034360459
0.0034611945
0.0034858135
0.0035098163
0.0035331252
0.0035556703
0.0035773873
0.00316733
0.0031759318
0.003181733
0.0031845562
0.0031846413
0.0031821944
0.0031774468
0.0031706797
0.0031622124
0.0031523882
0.0031415649
0.0031301069
0.0031183789
0.0031067395
0.0030955355
0.003085097
0.0030757318
0.0030677217
0.003061318
0.0030567382
0.0030541636
0.0030537376
0.0030555643
0.0030597089
0.0030661982
0.0030750221
0.0030861367
0.0030994665
0.0031149086
0.0031323363
0.0031516035
0.0031725482
0.003194997
0.003218769
0.0032436787
0.0032695397
0.0032961674
0.0033233808
0.0033510053
0.0033788733
0.0034068262
0.0034347148
0.0034623998
0.0034897525
0.0035166544
0.0035429978
0.0035686848
0.0035936274
0.003617747
0.0036409742
0.0036632484
0.0036845144
0.0031677673
0.0031773786
0.003184353
0.0031884859
0.0031899916
0.0031890473
0.003185861
0.0031806993
0.0031738757
0.0031657361
0.0031566491
0.0031469961
0.0031371636
0.0031275347
0.0031184813
0.0031103574
0.0031034918
0.0030981824
0.0030946907
0.0030932383
0.0030940031
0.0030971177
0.0031026691
0.0031106985
0.0031212039
0.0031341423
0.0031494335
0.0031669645
0.0031865944
0.0032081591
0.0032314765
0.0032563516
0.0032825807
0.0033099559
0.0033382688
0.003367314
0.0033968911
0.0034268077
0.0034568807
0.0034869376
0.0035168174
0.0035463713
0.0035754626
0.003603967
0.0036317721
0.0036587774
0.0036848936
0.0037100418
0.0037341533
0.003757169
0.0037790387
0.0037997182
0.0031682479
0.0031789257
0.0031871017
0.0031925483
0.0031954642
0.0031960061
0.0031943671
0.0031908068
0.0031856404
0.0031792237
0.003171942
0.0031641996
0.0031564094
0.0031489825
0.0031423187
0.0031367965
0.0031327648
0.0031305351
0.0031303754
0.003132505
0.0031370911
0.0031442476
0.003154035
0.0031664617
0.0031814876
0.0031990279
0.0032189588
0.0032411229
0.0032653357
0.0032913916
0.00331907
0.0033481409
0.00337837
0.0034095235
0.0034413713
0.003473691
0.0035062697
0.0035389062
0.0035714126
0.0036036146
0.0036353526
0.0036664814
0.0036968701
0.003726402
0.0037549736
0.0037824944
0.0038088859
0.0038340806
0.0038580216
0.0038806617
0.003901963
0.0039218931
0.0031687751
0.0031805881
0.0031900095
0.003196791
0.0032011228
0.0032031478
0.0032030513
0.0032010942
0.0031976014
0.0031929468
0.0031875406
0.0031818169
0.0031762215
0.0031711984
0.0031671778
0.0031645638
0.003163724
0.0031649802
0.0031686006
0.0031747946
0.0031837097
0.0031954307
0.0032099807
0.0032273244
0.0032473734
0.0032699918
0.003295004
0.0033222017
0.003351352
0.0033822043
0.003414498
0.0034479678
0.0034823499
0.0035173863
0.0035528282
0.0035884395
0.0036239986
0.0036592996
0.0036941538
0.0037283894
0.003761852
0.0037944037
0.0038259232
0.0038563044
0.0038854559
0.0039132996
0.0039397704
0.0039648143
0.0039883879
0.0040104577
0.004030999
0.0040499929
0.0031693524
0.0031823809
0.0031931068
0.003201261
0.0032070306
0.0032105499
0.0032120032
0.0032116609
0.0032098668
0.0032070225
0.0032035725
0.0031999898
0.00319676
0.0031943657
0.0031932704
0.0031939045
0.0031966517
0.0032018386
0.0032097257
0.0032205027
0.0032342855
0.0032511171
0.0032709705
0.0032937546
0.0033193213
0.0033474742
0.0033779777
0.0034105671
0.0034449571
0.0034808506
0.0035179463
0.0035559454
0.003594557
0.0036335022
0.003672518
0.0037113592
0.0037498001
0.0037876353
0.0038246799
0.0038607692
0.0038957583
0.003929521
0.0039619488
0.0039929499
0.0040224475
0.0040503791
0.0040766948
0.0041013562
0.0041243352
0.004145613
0.0041651796
0.0041830302
0.003169984
0.0031843202
0.003196425
0.0032060067
0.0032132528
0.0032182933
0.0032213183
0.003222616
0.00322256
0.0032215904
0.0032201972
0.0032189023
0.0032182396
0.0032187358
0.0032208909
0.0032251603
0.0032319397
0.0032415524
0.0032542407
0.0032701612
0.003289384
0.0033118953
0.0033376035
0.0033663481
0.0033979098
0.003432022
0.003468383
0.0035066666
0.0035465333
0.0035876393
0.0036296449
0.0036722206
0.0037150529
0.0037578474
0.0038003322
0.0038422588
0.0038834034
0.0039235664
0.0039625723
0.0040002684
0.0040365239
0.0040712283
0.0041042899
0.0041356339
0.0041652016
0.004192948
0.0042188407
0.0042428584
0.0042649896
0.0042852318
0.0043035901
0.0043200746
0.0031706742
0.0031864235
0.003199998
0.0032110797
0.0032198587
0.0032264644
0.0032310992
0.0032340797
0.0032358205
0.0032368135
0.0032376067
0.0032387824
0.0032409319
0.0032446315
0.0032504192
0.0032587725
0.0032700917
0.0032846857
0.0033027642
0.0033244344
0.0033497027
0.0033784814
0.0034105982
0.0034458093
0.0034838129
0.0035242643
0.0035667897
0.0036109998
0.003656501
0.0037029053
0.0037498384
0.003796946
0.0038438978
0.0038903911
0.0039361516
0.0039809347
0.0040245247
0.0040667343
0.0041074028
0.004146395
0.0041835986
0.0042189229
0.0042522963
0.0042836647
0.0043129892
0.0043402448
0.0043654184
0.0043885073
0.0044095175
0.0044284633
0.004445366
0.0044602507
0.0031714281
0.0031887103
0.0032038626
0.0032165353
0.0032269224
0.0032351558
0.0032414579
0.0032461846
0.0032498058
0.0032528801
0.0032560284
0.0032599055
0.0032651694
0.003272451
0.0032823251
0.0032952857
0.0033117261
0.0033319254
0.003356042
0.003384113
0.0034160608
0.0034517044
0.003490774
0.0035329288
0.0035777746
0.0036248823
0.0036738039
0.0037240872
0.0037752875
0.0038269779
0.0038787565
0.0039302514
0.0039811241
0.0040310713
0.0040798249
0.0041271513
0.0041728505
0.0042167537
0.004258721
0.0042986395
0.0043364203
0.0043719959
0.0044053184
0.0044363565
0.0044650941
0.0044915274
0.0045156641
0.0045375207
0.0045571221
0.0045744996
0.0045896908
0.0046027359
0.0031722513
0.0031912018
0.0032080591
0.0032224342
0.0032345245
0.0032444679
0.0032525157
0.0032590768
0.0032646929
0.0032700065
0.0032757281
0.0032825987
0.0032913514
0.0033026743
0.0033171751
0.0033353536
0.0033575797
0.0033840817
0.0034149427
0.0034501056
0.0034893855
0.0035324874
0.0035790274
0.0036285557
0.0036805783
0.0037345786
0.0037900351
0.0038464368
0.0039032947
0.003960151
0.0040165853
0.0040722182
0.0041267127
0.0041797744
0.00423115
0.0042806256
0.0043280238
0.004373201
0.0044160439
0.0044564667
0.0044944076
0.0045298265
0.0045627014
0.0045930265
0.0046208095
0.0046460697
0.0046688362
0.0046891457
0.0047070418
0.0047225732
0.0047357935
0.0047467581
0.00317315
0.0031939219
0.0032126318
0.0032288418
0.0032427518
0.0032545089
0.0032644047
0.0032729174
0.0032806802
0.0032884404
0.0032970157
0.0033072475
0.0033199514
0.0033358717
0.0033556404
0.0033797457
0.0034085113
0.0034420873
0.0034804526
0.0035234275
0.0035706948
0.0036218251
0.0036763055
0.0037335676
0.0037930142
0.0038540424
0.0039160625
0.0039785124
0.0040408686
0.0041026542
0.004163442
0.0042228566
0.0042805735
0.0043363175
0.0043898598
0.0044410144
0.0044896339
0.004535606
0.0045788495
0.0046193099
0.0046569566
0.004691779
0.0047237837
0.004752992
0.0047794366
0.0048031607
0.0048242151
0.0048426571
0.0048585488
0.004871956
0.004882948
0.0048915944
0.0031741312
0.0031968967
0.0032176293
0.0032358297
0.0032516979
0.0032653956
0.0032772682
0.0032878839
0.003297991
0.003308465
0.0033202513
0.0033343047
0.0033515277
0.0033727148
0.0033985062
0.0034293539
0.0034655042
0.0035069946
0.0035536658
0.0036051847
0.003661076
0.0037207572
0.0037835745
0.003848837
0.0039158453
0.0039839167
0.0040524026
0.0041207023
0.004188272
0.004254629
0.0043193536
0.004382087
0.0044425297
0.0045004365
0.0045556123
0.0046079071
0.0046572106
0.0047034478
0.0047465738
0.0047865697
0.0048234385
0.0048572018
0.0048878962
0.0049155708
0.0049402845
0.0049621043
0.004981103
0.0049973578
0.0050109489
0.0050219586
0.0050304712
0.0050365697
0.0031752025
0.0032001554
0.0032231051
0.0032434753
0.0032614636
0.0032772537
0.0032912623
0.0033041728
0.0033168774
0.0033304067
0.003345855
0.0033643019
0.0033867359
0.0034139886
0.0034466825
0.003485199
0.0035296667
0.0035799693
0.0036357709
0.0036965531
0.0037616585
0.0038303365
0.0039017867
0.0039751967
0.004049773
0.0041247645
0.0041994788
0.0042732934
0.0043456605
0.0044161086
0.0044842401
0.0045497277
0.0046123084
0.0046717782
0.0047279848
0.0047808218
0.0048302225
0.0048761537
0.0049186112
0.0049576142
0.004993202
0.0050254293
0.0050543638
0.0050800831
0.0051026721
0.0051222214
0.0051388249
0.0051525791
0.0051635817
0.0051719303
0.0051777232
0.0051810558
0.0031763724
0.0032037302
0.0032291173
0.0032518619
0.0032721573
0.0032902183
0.0033065565
0.0033220024
0.0033376261
0.0033546435
0.0033743187
0.0033978636
0.0034263444
0.0034606054
0.0035012141
0.0035484349
0.0036022289
0.0036622789
0.0037280318
0.0037987527
0.0038735829
0.0039515954
0.0040318444
0.004113405
0.0041954039
0.0042770394
0.0043575956
0.0044364481
0.0045130648
0.0045870032
0.0046579044
0.0047254862
0.004789535
0.0048498977
0.0049064735
0.0049592064
0.0050080782
0.0050531021
0.0050943171
0.005131783
0.0051655759
0.0051957851
0.0052225094
0.0052458545
0.0052659307
0.0052828511
0.0052967302
0.0053076825
0.0053158217
0.0053212596
0.0053241072
0.0053244711
0.0031776506
0.0032076567
0.0032357292
0.0032610799
0.0032838948
0.0033044347
0.0033233369
0.0033416184
0.0033605669
0.0033816171
0.0034062218
0.0034357253
0.0034712518
0.0035136197
0.0035632895
0.0036203496
0.003684535
0.0037552758
0.0038317619
0.0039130159
0.003997966
0.0040855091
0.0041745643
0.0042641118
0.0043532196
0.0044410598
0.004526917
0.0046101881
0.004690378
0.0047670919
0.0048400261
0.0049089574
0.0049737329
0.0050342599
0.0050904961
0.0051424417
0.0051901313
0.0052336272
0.0052730136
0.0053083916
0.0053398751
0.0053675876
0.0053916583
0.00541222
0.0054294074
0.0054433548
0.0054541957
0.0054620611
0.0054670794
0.0054693746
0.0054690693
0.0054662791
0.0031790475
0.0032119739
0.0032430104
0.003271226
0.0032967997
0.0033200597
0.003341809
0.0033632997
0.0033860839
0.0034118489
0.0034422501
0.0034787536
0.0035225054
0.0035742416
0.0036342467
0.0037023609
0.003778028
0.0038603729
0.0039482932
0.0040405521
0.004135863
0.0042329586
0.0043306435
0.0044278284
0.0045235516
0.0046169885
0.0047074514
0.0047943835
0.0048773488
0.0049560192
0.0050301618
0.0050996253
0.0051643278
0.0052242447
0.0052793984
0.0053298493
0.0053756878
0.0054170266
0.0054539961
0.005486739
0.0055154066
0.0055401549
0.0055611427
0.0055785284
0.005592469
0.0056031187
0.0056106279
0.0056151421
0.005616803
0.0056157444
0.0056121
0.0056059893
0.0031805746
0.0032167254
0.0032510358
0.0032824033
0.0033110039
0.0033372637
0.003362203
0.0033873687
0.0034146298
0.0034459593
0.0034832193
0.0035279697
0.0035813208
0.0036438482
0.0037155734
0.0037960052
0.0038842275
0.0039790122
0.0040789392
0.0041825077
0.0042882288
0.0043946952
0.0045006276
0.0046049019
0.0047065618
0.0048048186
0.0048990423
0.0049887482
0.0050735809
0.0051532972
0.0052277494
0.0052968695
0.0053606549
0.0054191555
0.0054724627
0.0055206999
0.0055640141
0.0056025695
0.0056365423
0.0056661157
0.0056914765
0.005712812
0.0057303084
0.0057441474
0.0057545069
0.0057615575
0.0057654658
0.0057663881
0.0057644795
0.005759878
0.0057527329
0.0057431572
0.0031822451
0.003221959
0.003259886
0.0032947219
0.0033266487
0.0033562332
0.0033847805
0.0034142036
0.0034467458
0.0034846927
0.0035301018
0.003584574
0.0036490995
0.0037239903
0.0038089003
0.0039029173
0.004004699
0.0041126269
0.0042249535
0.0043399259
0.004455881
0.0045713079
0.0046848848
0.0047954954
0.0049022284
0.0050043658
0.0051013655
0.0051928405
0.0052785367
0.0053583119
0.0054321163
0.0054999744
0.0055619694
0.00561823
0.0056689191
0.0057142237
0.005754348
0.005789507
0.0058199208
0.0058458111
0.0058673977
0.0058848969
0.0058985199
0.005908469
0.0059149405
0.0059181181
0.0059181839
0.0059152994
0.0059096371
0.0059013276
0.0058905402
0.0058773762
0.0031840735
0.0032277265
0.0032696482
0.003308299
0.0033438858
0.0033771761
0.0034098452
0.0034442564
0.0034830859
0.0035289476
0.0035840568
0.0036499712
0.0037274428
0.0038163912
0.0039159852
0.0040248006
0.0041410143
0.0042625981
0.0043874866
0.0045137068
0.0046394646
0.0047631953
0.0048835861
0.0049995757
0.0051103394
0.0052152661
0.0053139314
0.0054060695
0.005491546
0.0055703341
0.0056424914
0.0057081419
0.005767459
0.0058206524
0.0058679565
0.0059096222
0.0059459098
0.0059770819
0.0060034001
0.0060251218
0.0060424968
0.0060557672
0.0060651665
0.0060709134
0.0060732218
0.0060722819
0.0060682955
0.0060614153
0.0060518404
0.0060396828
0.0060251363
0.0060082896
0.0031860759
0.0032340854
0.0032804161
0.0033232597
0.00336288
0.003400328
0.0034377563
0.0034780753
0.0035244486
0.0035798113
0.0036464636
0.003725793
0.0038181589
0.0039229364
0.0040386852
0.0041633884
0.0042947069
0.0044302078
0.0045675427
0.0047045693
0.0048394225
0.0049705457
0.0050966921
0.0052169059
0.0053304918
0.0054369805
0.0055360926
0.0056277047
0.0057118181
0.0057885315
0.0058580179
0.0059205048
0.0059762575
0.0060255662
0.0060687365
0.0061060811
0.0061379126
0.0061645384
0.0061862579
0.0062033604
0.0062161218
0.0062248067
0.0062296674
0.0062309336
0.0062288397
0.0062235662
0.0062153491
0.0062043146
0.0061906927
0.0061745797
0.0061561879
0.0061356105
0.0031882699
0.0032410989
0.0032922901
0.0033397368
0.0033838124
0.0034259622
0.0034689488
0.0035163353
0.0035718146
0.0036386
0.0037189535
0.0038139154
0.0039232603
0.0040456507
0.0041789186
0.0043203953
0.0044672206
0.0046165922
0.0047659383
0.0049130192
0.0050559736
0.0051933226
0.0053239466
0.0054470461
0.0055620967
0.0056688032
0.0057670555
0.0058568902
0.005938456
0.0060119851
0.0060777697
0.0061361422
0.0061874588
0.0062320887
0.0062704059
0.0063027806
0.0063295734
0.0063511323
0.0063677892
0.006379862
0.0063876469
0.0063914317
0.0063914772
0.0063880162
0.0063813174
0.0063715311
0.0063589283
0.0063436184
0.0063258504
0.0063057271
0.0062834185
0.0062590491
0.0031906757
0.0032488361
0.0033053779
0.0033578735
0.0034068863
0.0034544041
0.0035039593
0.0035598767
0.0036263924
0.0037069016
0.0038034401
0.003916467
0.004044948
0.0041866617
0.0043386153
0.0044974636
0.0046598582
0.0048226956
0.0049832664
0.0051393244
0.0052890974
0.0054312584
0.0055648767
0.0056893586
0.0058043889
0.0059098746
0.006005895
0.0060926597
0.0061704732
0.0062397047
0.0063007666
0.0063540943
0.0064001322
0.0064393252
0.0064721092
0.0064989073
0.0065201229
0.0065361396
0.0065473147
0.0065539941
0.0065564885
0.0065550815
0.0065500864
0.0065416919
0.0065302108
0.0065157748
0.0064986729
0.0064790248
0.0064570281
0.006432824
0.0064065642
0.0063783774
0.0031933154
0.0032573726
0.0033197945
0.0033778245
0.0034323358
0.0034860516
0.0035434616
0.0036097532
0.0036896713
0.0037866201
0.0039021417
0.0040358242
0.0041855808
0.0043481507
0.0045196586
0.0046961055
0.0048737301
0.0050492298
0.0052198682
0.0053834976
0.0055385259
0.0056838537
0.0058187985
0.0059430186
0.0060564408
0.0061591972
0.0062515716
0.006333955
0.0064068113
0.0064706469
0.0065259908
0.0065733784
0.0066133376
0.0066463808
0.0066730001
0.0066936647
0.006708815
0.0067188667
0.0067241949
0.0067251454
0.006722087
0.0067152548
0.0067050131
0.0066915302
0.0066751365
0.0066559779
0.0066342828
0.0066102156
0.0065839512
0.0065556361
0.0065254122
0.0064934061
0.0031962141
0.0032667915
0.0033356635
0.003399761
0.0034604391
0.003521404
0.0035883136
0.0036672917
0.0037634796
0.0038800159
0.0040175927
0.0041745901
0.0043476277
0.0045322913
0.0047238219
0.0049176455
0.0051097073
0.0052966407
0.0054758124
0.005645286
0.0058037426
0.005950383
0.0060848284
0.0062070284
0.0063171788
0.0064156539
0.0065029504
0.0065796443
0.0066463586
0.0067037314
0.0067524034
0.0067930047
0.0068261375
0.0068523735
0.0068722535
0.0068862837
0.0068949429
0.0068986405
0.0068978152
0.0068927673
0.006883914
0.0068714816
0.0068558427
0.0068371864
0.0068157739
0.0067917997
0.0067654668
0.006736945
0.0067063972
0.0066739672
0.006639789
0.0066039833
0.0031993998
0.0032771842
0.0033531187
0.0034238768
0.0034915379
0.0035611016
0.003639618
0.003734162
0.0038500451
0.0039897382
0.0041526377
0.0043355536
0.004533606
0.0047411795
0.0049527032
0.0051631654
0.005368382
0.0055650841
0.0057508828
0.005924169
0.0060839872
0.0062299059
0.0063618977
0.0064802353
0.0065854031
0.0066780274
0.0067588205
0.0068285415
0.0068879674
0.0069378583
0.0069789613
0.0070119901
0.0070376108
0.0070564447
0.0070690732
0.0070760263
0.0070778243
0.0070748562
0.0070675869
0.0070563396
0.0070415186
0.007023384
0.0070022289
0.0069782915
0.0069518078
0.0069229768
0.0068919875
0.0068590056
0.0068241841
0.0067876599
0.0067495585
0.0067099932
0.003202904
0.0032886518
0.0033723069
0.0034503996
0.0035260667
0.0036059808
0.0036987985
0.0038124581
0.0039520546
0.0041188431
0.0043104041
0.0045216296
0.0047460058
0.0049767601
0.0052076611
0.005433457
0.005650037
0.0058544083
0.0060445725
0.0062193613
0.0063782663
0.0065212819
0.0066487705
0.0067613512
0.0068598078
0.0069450212
0.0070179155
0.0070794252
0.0071304716
0.0071719263
0.0072046314
0.0072293705
0.007246865
0.0072577646
0.0072626926
0.0072622211
0.0072567983
0.0072469258
0.0072330151
0.0072154415
0.0071945222
0.0071705583
0.0071438242
0.007114558
0.0070829808
0.0070492857
0.0070136497
0.0069762298
0.0069371684
0.0068965933
0.0068546203
0.0068113536
0.0032067626
0.0033013073
0.0033933922
0.0034796071
0.0035645947
0.0036571476
0.0037676952
0.0039047858
0.0040727035
0.0042707889
0.0044942516
0.004735781
0.004987207
0.0052407515
0.0054897569
0.0057289845
0.0059546241
0.0061641457
0.0063560858
0.0065298226
0.0066853678
0.0068231887
0.0069440648
0.0070489742
0.0071390029
0.007215281
0.0072789333
0.0073310559
0.0073727069
0.0074048466
0.0074284058
0.0074442116
0.0074530301
0.0074555783
0.0074524056
0.0074441684
0.0074313051
0.0074143731
0.0073936819
0.0073696301
0.0073425344
0.0073126862
0.0072803453
0.007245741
0.00720908
0.0071705447
0.007130299
0.0070884886
0.0070452438
0.0070006816
0.0069549069
0.0069080139
0.0032110166
0.0033152786
0.0034165641
0.0035118541
0.0036078859
0.0037160758
0.0038486779
0.0040143523
0.0042157281
0.0044494061
0.0047076969
0.0049809279
0.0052593927
0.0055345758
0.005799708
0.0060498555
0.0062817501
0.0064935111
0.0066843457
0.0068542715
0.0070038798
0.0071341436
0.0072462744
0.0073416117
0.0074215366
0.0074874161
0.0075405548
0.0075821956
0.0076135274
0.0076355588
0.007649296
0.0076556394
0.0076553048
0.0076490928
0.0076375367
0.0076213352
0.0076009029
0.0075767149
0.0075491409
0.0075185471
0.0074852398
0.0074494949
0.0074115566
0.0073716399
0.0073299357
0.0072866125
0.0072418197
0.0071956893
0.0071483384
0.0070998717
0.007050382
0.0069999525
0.0032157136
0.0033307138
0.0034420501
0.0035476114
0.0036569849
0.0037847332
0.0039447767
0.0041450486
0.0043854112
0.0046588355
0.0049543183
0.0052598476
0.0055644645
0.0058593001
0.0061378496
0.0063958001
0.0066306702
0.0068414059
0.0070280058
0.0071912032
0.0073322112
0.0074525265
0.0075537929
0.0076377032
0.0077059177
0.0077600207
0.0078014644
0.0078316408
0.0078517894
0.0078630308
0.0078664135
0.0078627507
0.0078529379
0.0078376613
0.0078175769
0.0077932121
0.0077650546
0.0077335407
0.0076990375
0.0076618853
0.0076223737
0.0075807598
0.0075372686
0.0074920975
0.0074454196
0.0073973869
0.0073481326
0.0072977736
0.0072464127
0.0071941414
0.0071410377
0.0070871745
0.0032209096
0.0033477886
0.0034701353
0.0035875267
0.003713335
0.0038657423
0.0040598239
0.0043015137
0.0045865542
0.0049034381
0.0052376456
0.0055750745
0.0059039675
0.0062155851
0.006504104
0.006766158
0.0070002886
0.0072064285
0.0073854677
0.0075389109
0.0076686164
0.0077766047
0.0078649389
0.0079356442
0.0079906365
0.0080316914
0.0080603652
0.0080781811
0.0080864681
0.0080862843
0.0080788102
0.0080648074
0.0080452709
0.0080207633
0.0079919318
0.0079593083
0.0079233617
0.0078844993
0.0078430708
0.0077993889
0.0077537216
0.007706303
0.0076573364
0.0076069984
0.0075554426
0.0075028021
0.0074491929
0.0073947151
0.0073394564
0.003226672
0.003366719
0.0035011946
0.0036325142
0.0037789427
0.0039625762
0.0041985975
0.0044891671
0.0048244094
0.0051876805
0.0055610418
0.0059288047
0.0062790247
0.006603644
0.0068979599
0.0071598732
0.0073891647
0.0075868888
0.0077549015
0.0078955097
0.0080112203
0.0081045597
0.0081779812
0.0082338123
0.0082742014
0.0083010164
0.0083160044
0.0083207299
0.0083164461
0.0083044322
0.0082857018
0.0082612056
0.0082316815
0.0081977909
0.0081601341
0.0081192166
0.0080754785
0.0080292966
0.0079809943
0.0079308541
0.0078791174
0.0078259922
0.0077716576
0.007716267
0.0076599525
0.0076028271
0.0075449878
0.0074865173
0.0074274869
0.0032330835
0.0033877806
0.0035357423
0.0036838867
0.0038565961
0.0040797878
0.0043669502
0.0047141992
0.0051045779
0.0055160029
0.0059275871
0.0063228125
0.0066902799
0.007023209
0.0073184578
0.0075754938
0.0077955242
0.0079808277
0.0081342695
0.0082589636
0.0083580464
0.0084345134
0.0084911634
0.0085305849
0.0085550949
0.0085667212
0.0085671708
0.0085581072
0.0085408318
0.0085166526
0.0084864886
0.0084512229
0.0084116068
0.0083682743
0.0083217801
0.0082725938
0.0082211183
0.0081676952
0.0081126148
0.0080561264
0.0079984411
0.0079397381
0.0078801697
0.0078198647
0.0077589317
0.0076974626
0.0076355344
0.0075732116
0.0075105485
0.0032402485
0.003411338
0.0035745094
0.0037435498
0.0039501541
0.0042232644
0.0045719077
0.0049835145
0.0054328778
0.0058926845
0.0063399743
0.0067583748
0.0071378488
0.0074735042
0.007764181
0.0080111777
0.008217275
0.0083860399
0.0085213548
0.008627115
0.0087070453
0.0087645567
0.0088027115
0.0088243647
0.0088319438
0.0088273819
0.0088127534
0.0087893599
0.0087588664
0.0087222201
0.008680421
0.0086343022
0.0085845678
0.008531809
0.0084765314
0.0084191597
0.008360053
0.0082995123
0.0082377899
0.0081750989
0.0081116167
0.0080474919
0.007982848
0.0079177873
0.0078523943
0.0077867384
0.0077208762
0.0076548535
0.0075887072
0.0032483008
0.0034378917
0.0036185645
0.0038142801
0.0040649111
0.0044004891
0.0048217193
0.0053046322
0.0058152011
0.0063217172
0.0068004116
0.0072362019
0.0076212751
0.0079532242
0.0082332521
0.0084647032
0.0086520286
0.0088001019
0.008913792
0.0089977179
0.0090561379
0.0090927243
0.0091109405
0.0091136381
0.0091032358
0.0090819516
0.0090515921
0.0090137565
0.0089696755
0.0089204258
0.0088669312
0.0088099606
0.0087501584
0.0086880602
0.0086241151
0.0085586955
0.0084921112
0.0084246178
0.0083564258
0.0082877091
0.0082186095
0.0081492427
0.0080797021
0.0080100625
0.0079403833
0.0078707109
0.0078010811
0.0077315203
0.0076620482
0.0032574158
0.0034681501
0.0036695005
0.0039001202
0.0042080433
0.0046207882
0.0051258566
0.0056855612
0.006257373
0.0068066896
0.0073105309
0.0077563707
0.0081394886
0.0084605153
0.0087233343
0.008933485
0.0090971256
0.0092204029
0.0093091006
0.0093684698
0.0094031628
0.0094172083
0.0094141659
0.0093967697
0.00936777
0.0093292583
0.0092829793
0.0092303313
0.009172565
0.009110684
0.0090455287
0.0089777923
0.008908047
0.0088367617
0.0087643218
0.0086910412
0.0086171757
0.0085429315
0.0084684744
0.0083939367
0.0083194228
0.0082450143
0.0081707733
0.0080967466
0.0080229677
0.0079494601
0.007876238
0.0078033088
0.0077306746
0.0032678245
0.003503141
0.0037297243
0.0040069265
0.004389125
0.0048955425
0.0054949741
0.0061346829
0.0067650422
0.0073506897
0.007871302
0.0083182522
0.0086907604
0.0089929594
0.0092316382
0.0094145971
0.0095496682
0.0096441819
0.0097047052
0.009737014
0.0097461547
0.0097361039
0.0097106179
0.0096724831
0.0096244552
0.0095683876
0.0095058988
0.0094383677
0.0093669294
0.0092924937
0.0092158057
0.0091374695
0.0090579747
0.0089777142
0.0088970034
0.008816093
0.0087351805
0.00865442
0.0085739299