/*--------------------------------*- C++ -*----------------------------------*\
| =========                 |                                                 |
| \\      /  F ield         | OpenFOAM: The Open Source CFD Toolbox           |
|  \\    /   O peration     | Version:  2312                                  |
|   \\  /    A nd           | Website:  www.openfoam.com                      |
|    \\/     M anipulation  |                                                 |
\*---------------------------------------------------------------------------*/
FoamFile
{
    version     2.0;
    format      ascii;
    arch        "LSB;label=32;scalar=64";
    class       volScalarField;
    location    "0.09";
    object      N2;
}
// * * * * * * * * * * * * * * * * * * * * * * * * * * * * * * * * * * * * * //

dimensions      [0 0 0 0 0 0 0];

internalField   nonuniform List<scalar> 
3221
(
0.76981287
0.76941974
0.7690075
0.7685764
0.76812673
0.76765889
0.76717333
0.76667058
0.76615123
0.76561594
0.7650654
0.76450038
0.76392167
0.76333012
0.7627266
0.762112
0.76148727
0.76085335
0.7602112
0.7595618
0.75890612
0.75824515
0.75757988
0.75691127
0.75624029
0.75556791
0.75489506
0.75422268
0.75355168
0.75288295
0.75221737
0.75155578
0.75089901
0.75024787
0.74960312
0.74896552
0.74833579
0.74771462
0.74710267
0.74650057
0.74590895
0.74532836
0.74475937
0.74420248
0.74365821
0.743127
0.74260931
0.74210554
0.74161609
0.74114133
0.74068157
0.74023699
0.76981062
0.76941272
0.76899549
0.76855917
0.76810406
0.76763058
0.76713921
0.76663048
0.766105
0.76556345
0.76500655
0.76443507
0.76384984
0.76325172
0.76264159
0.76202038
0.76138904
0.76074853
0.76009983
0.75944393
0.75878182
0.7581145
0.75744296
0.75676819
0.75609119
0.7554129
0.7547343
0.75405632
0.75337989
0.7527059
0.75203525
0.75136879
0.75070734
0.75005173
0.74940273
0.7487611
0.74812756
0.74750281
0.7468875
0.74628229
0.74568778
0.74510454
0.74453313
0.74397405
0.74342782
0.74289488
0.74237568
0.74187064
0.74138013
0.74090452
0.74044415
0.73999917
0.76980622
0.76939908
0.76897214
0.76852567
0.76806003
0.76757563
0.767073
0.7665527
0.76601539
0.76546176
0.76489258
0.76430867
0.76371087
0.76310009
0.76247725
0.76184331
0.76119925
0.76054607
0.75988478
0.7592164
0.75854195
0.75786246
0.75717895
0.75649244
0.75580394
0.75511443
0.75442491
0.75373633
0.75304963
0.75236574
0.75168555
0.75100995
0.75033977
0.74967585
0.74901896
0.74836987
0.74772932
0.74709801
0.7464766
0.74586573
0.74526603
0.74467805
0.74410235
0.74353944
0.74298981
0.74245392
0.74193219
0.74142504
0.74093284
0.74045594
0.73999467
0.73954917
0.76979979
0.76937909
0.76893794
0.76847664
0.76799559
0.76749524
0.76697617
0.766439
0.76588442
0.7653132
0.76472615
0.76412413
0.76350805
0.76287888
0.76223758
0.76158516
0.76092266
0.76025113
0.75957162
0.75888521
0.75819295
0.75749592
0.75679519
0.75609181
0.75538682
0.75468127
0.75397615
0.75327247
0.7525712
0.75187328
0.75117965
0.75049119
0.74980877
0.74913323
0.74846537
0.74780597
0.74715577
0.74651547
0.74588576
0.74526727
0.7446606
0.74406633
0.743485
0.74291712
0.74236316
0.74182357
0.74129877
0.74078914
0.74029505
0.73981684
0.73935481
0.73890908
0.76979139
0.76935297
0.76889325
0.76841256
0.76791137
0.76739021
0.76684969
0.76629052
0.76571344
0.7651193
0.76450898
0.76388342
0.7632436
0.76259054
0.76192529
0.76124893
0.76056256
0.7598673
0.75916427
0.7584546
0.75773941
0.75701985
0.75629702
0.75557204
0.75484601
0.75412
0.75339507
0.75267225
0.75195256
0.75123699
0.75052647
0.74982194
0.74912428
0.74843436
0.74775299
0.74708095
0.746419
0.74576785
0.74512817
0.7445006
0.74388574
0.74328416
0.74269638
0.74212289
0.74156416
0.74102062
0.74049266
0.73998064
0.73948491
0.73900577
0.7385435
0.73809821
0.76978105
0.76932083
0.76883824
0.7683337
0.76780773
0.76726096
0.76669407
0.76610786
0.76550316
0.7648809
0.76424205
0.76358765
0.76291875
0.76223648
0.76154198
0.76083641
0.76012096
0.75939682
0.75866521
0.75792732
0.75718438
0.75643758
0.75568811
0.75493715
0.75418586
0.75343537
0.7526868
0.75194124
0.75119974
0.75046332
0.74973297
0.74900965
0.74829426
0.74758769
0.74689078
0.74620431
0.74552904
0.74486569
0.74421492
0.74357737
0.74295361
0.74234421
0.74174967
0.74117046
0.74060702
0.74005974
0.73952899
0.73901511
0.73851839
0.73803912
0.73757754
0.73713372
0.76976879
0.76928269
0.76877296
0.7682401
0.76768474
0.76710758
0.76650943
0.76589116
0.76525375
0.7645982
0.76392562
0.76323713
0.76253393
0.76181722
0.76108827
0.76034834
0.75959873
0.75884074
0.75807567
0.75730484
0.75652953
0.75575106
0.75497068
0.75418966
0.75340923
0.75263061
0.75185496
0.75108344
0.75031714
0.74955715
0.74880448
0.74806012
0.74732502
0.74660006
0.7458861
0.74518393
0.74449431
0.74381795
0.74315551
0.7425076
0.74187479
0.7412576
0.7406565
0.74007195
0.73950433
0.73895401
0.73842131
0.73790652
0.73740991
0.7369317
0.7364721
0.73603112
0.76975458
0.76923852
0.76869733
0.76813166
0.76754222
0.76692986
0.7662955
0.76564014
0.76496487
0.76427086
0.76355931
0.7628315
0.76208876
0.76133241
0.76056386
0.7597845
0.75899576
0.75819904
0.75739579
0.75658743
0.75577537
0.754961
0.7541457
0.75333084
0.75251771
0.75170763
0.75090184
0.75010155
0.74930792
0.74852207
0.74774507
0.74697793
0.74622162
0.74547705
0.74474507
0.74402649
0.74332204
0.74263242
0.74195828
0.74130018
0.74065868
0.74003424
0.73942732
0.7388383
0.73826754
0.73771533
0.73718196
0.73666766
0.73617264
0.73569707
0.7352411
0.73480469
0.76973841
0.76918819
0.76861115
0.76800807
0.76737979
0.76672731
0.76605168
0.76535408
0.76463574
0.76389798
0.76314217
0.76236974
0.76158217
0.76078097
0.75996766
0.75914382
0.758311
0.75747078
0.75662472
0.7557744
0.75492134
0.75406708
0.7532131
0.75236087
0.75151181
0.75066731
0.74982869
0.74899724
0.74817418
0.74736067
0.74655782
0.74576668
0.74498822
0.74422336
0.74347296
0.7427378
0.74201861
0.74131605
0.74063073
0.73996318
0.73931389
0.7386833
0.73807179
0.73747968
0.73690727
0.7363548
0.73582247
0.73531046
0.7348189
0.73434789
0.73389753
0.73346771
0.76972021
0.76913152
0.7685141
0.76786886
0.76719682
0.76649913
0.76577705
0.76503189
0.7642651
0.76347817
0.76267267
0.7618502
0.76101244
0.76016106
0.75929781
0.7584244
0.75754259
0.75665412
0.75576072
0.75486412
0.75396601
0.75306805
0.75217188
0.75127907
0.75039118
0.74950966
0.74863595
0.74777139
0.74691727
0.7460748
0.74524512
0.74442929
0.74362831
0.74284307
0.74207442
0.74132313
0.74058987
0.73987526
0.73917986
0.73850415
0.73784854
0.73721341
0.73659905
0.73600572
0.73543362
0.73488293
0.73435377
0.73384622
0.73336034
0.73289617
0.73245369
0.73203276
0.76969991
0.76906828
0.76840575
0.76771341
0.76699248
0.7662443
0.76547032
0.7646721
0.76385128
0.76300957
0.76214875
0.76127066
0.76037718
0.75947022
0.75855172
0.75762363
0.7566879
0.75574646
0.75480126
0.7538542
0.75290713
0.75196191
0.7510203
0.75008402
0.74915474
0.74823403
0.74732341
0.74642429
0.74553802
0.74466584
0.74380892
0.74296832
0.74214503
0.74133994
0.74055384
0.73978745
0.7390414
0.73831624
0.73761245
0.73693042
0.73627049
0.73563293
0.73501796
0.73442573
0.73385635
0.7333099
0.7327864
0.73228584
0.73180819
0.73135339
0.73092135
0.73051183
0.7696774
0.76899815
0.76828556
0.76754093
0.76676572
0.76596149
0.76512994
0.76427286
0.76339216
0.76248979
0.76156781
0.7606283
0.7596734
0.75870529
0.75772615
0.75673818
0.75574357
0.75474449
0.7537431
0.75274152
0.75174182
0.750746
0.74975602
0.74877374
0.74780094
0.74683932
0.74589047
0.74495588
0.74403693
0.7431349
0.74225095
0.74138614
0.74054142
0.73971762
0.73891551
0.7381357
0.73737876
0.73664514
0.73593521
0.73524927
0.73458754
0.73395019
0.7333373
0.73274893
0.73218507
0.73164568
0.73113068
0.73063994
0.73017334
0.7297307
0.72931185
0.72891645
0.76965259
0.76892075
0.76815287
0.76735048
0.76651528
0.76564913
0.76475399
0.76383195
0.7628852
0.76191601
0.76092673
0.75991976
0.75889753
0.75786251
0.7568172
0.75576407
0.7547056
0.75364423
0.75258238
0.75152241
0.7504666
0.74941717
0.74837624
0.74734584
0.74632788
0.74532415
0.74433634
0.74336597
0.74241445
0.74148308
0.74057298
0.73968518
0.73882057
0.73797992
0.73716388
0.73637299
0.73560767
0.73486827
0.73415503
0.73346811
0.73280761
0.73217354
0.73156588
0.73098452
0.73042934
0.72990016
0.72939678
0.72891895
0.72846643
0.72803894
0.72763619
0.72725778
0.76962532
0.76883566
0.76800693
0.76714094
0.76623969
0.76530536
0.76434023
0.76334674
0.76232742
0.7612849
0.76022187
0.75914109
0.75804536
0.7569375
0.75582034
0.75469669
0.75356938
0.75244114
0.75131469
0.75019265
0.74907756
0.74797186
0.74687785
0.74579771
0.74473349
0.74368707
0.74266019
0.74165441
0.74067114
0.73971164
0.738777
0.73786817
0.73698593
0.73613095
0.73530375
0.73450473
0.73373416
0.73299225
0.73227906
0.73159461
0.73093882
0.73031156
0.72971262
0.72914178
0.72859874
0.72808319
0.72759478
0.72713315
0.72669792
0.72628871
0.7259051
0.72554659
0.76959546
0.76874238
0.76784685
0.76691102
0.76593724
0.76492804
0.76388609
0.76281423
0.76171539
0.76059262
0.75944903
0.75828779
0.75711212
0.75592526
0.75473044
0.75353087
0.75232975
0.75113017
0.74993518
0.74874769
0.74757051
0.74640631
0.74525759
0.74412669
0.74301575
0.74192673
0.7408614
0.73982133
0.73880788
0.73782225
0.73686544
0.73593827
0.73504139
0.73417531
0.73334038
0.73253682
0.73176474
0.73102411
0.73031485
0.72963676
0.72898958
0.728373
0.72778664
0.72723009
0.72670291
0.72620461
0.72573471
0.72529271
0.72487809
0.72449034
0.72412895
0.72379331
0.76956281
0.76864032
0.76767164
0.76665928
0.76560599
0.76451474
0.76338864
0.762231
0.76104522
0.75983484
0.75860347
0.75735477
0.75609244
0.75482022
0.75354182
0.7522609
0.75098107
0.74970584
0.74843862
0.74718267
0.74594105
0.74471669
0.74351226
0.74233023
0.74117285
0.7400421
0.73893976
0.73786732
0.73682609
0.73581713
0.7348413
0.73389925
0.73299145
0.7321182
0.73127962
0.73047573
0.72970639
0.72897137
0.72827035
0.72760292
0.72696862
0.72636691
0.72579723
0.72525898
0.72475153
0.72427426
0.72382651
0.72340764
0.72301699
0.72265394
0.72231786
0.72200802
0.76952719
0.76852886
0.76748016
0.76638405
0.76524374
0.76406269
0.76284456
0.76159317
0.76031251
0.75900669
0.75767988
0.75633635
0.75498038
0.75361626
0.75224825
0.75088055
0.74951726
0.74816234
0.74681959
0.74549261
0.74418478
0.74289923
0.74163881
0.7404061
0.73920339
0.73803265
0.73689558
0.73579359
0.73472783
0.73369919
0.73270831
0.73175562
0.73084134
0.7299655
0.72912798
0.7283285
0.72756669
0.72684204
0.72615397
0.72550184
0.72488494
0.72430253
0.72375382
0.72323802
0.72275433
0.72230193
0.72188001
0.72148778
0.72112447
0.7207893
0.72048154
0.72020038
0.76948837
0.76840726
0.76727115
0.76608348
0.76484802
0.76356881
0.76225011
0.76089641
0.75951235
0.75810271
0.75667236
0.75522626
0.75376938
0.75230666
0.75084301
0.74938321
0.74793192
0.7464936
0.74507249
0.74367253
0.7422974
0.74095043
0.7396346
0.73835255
0.73710654
0.73589848
0.73472993
0.73360213
0.732516
0.73147217
0.73047103
0.72951268
0.72859705
0.72772385
0.72689264
0.72610284
0.72535375
0.7246446
0.72397451
0.72334258
0.72274784
0.72218931
0.72166599
0.72117687
0.72072097
0.72029729
0.71990487
0.71954277
0.71921006
0.71890588
0.71862936
0.71837961
0.76944611
0.76827474
0.76704319
0.7657555
0.76441606
0.7630296
0.76160112
0.76013586
0.75863924
0.75711686
0.75557441
0.75401764
0.75245234
0.75088421
0.7493189
0.74776187
0.7462184
0.74469348
0.74319178
0.74171763
0.74027495
0.73886723
0.73749754
0.73616848
0.73488223
0.73364054
0.73244475
0.73129582
0.73019439
0.72914074
0.72813488
0.72717658
0.72626537
0.72540059
0.72458145
0.723807
0.72307622
0.72238799
0.72174115
0.72113449
0.72056678
0.7200368
0.71954332
0.71908513
0.71866104
0.71826988
0.71791054
0.71758192
0.71728299
0.71701275
0.71677024
0.71655448
0.76940014
0.76813038
0.76679469
0.76539777
0.76394476
0.7624412
0.76089294
0.75930613
0.75768713
0.75604249
0.75437887
0.75270299
0.75102155
0.74934118
0.74766834
0.74600927
0.7443699
0.74275579
0.74117207
0.73962339
0.73811389
0.73664715
0.73522622
0.7338536
0.73253127
0.73126071
0.73004293
0.72887855
0.72776777
0.72671047
0.72570621
0.72475432
0.72385387
0.72300381
0.7222029
0.72144983
0.72074319
0.72008152
0.71946332
0.71888711
0.71835137
0.71785462
0.7173954
0.7169723
0.71658394
0.71622898
0.71590615
0.71561424
0.71535207
0.71511855
0.71491263
0.71473325
0.76935015
0.7679732
0.76652389
0.7650077
0.76343067
0.76179927
0.76012038
0.75840122
0.75664929
0.75487226
0.75307795
0.75127419
0.74946878
0.74766939
0.74588341
0.74411794
0.7423796
0.74067453
0.73900829
0.73738581
0.73581134
0.73428848
0.73282014
0.73140859
0.73005548
0.72876191
0.72752845
0.72635523
0.72524195
0.72418794
0.72319226
0.7222537
0.72137087
0.7205422
0.71976603
0.7190406
0.71836412
0.71773476
0.71715068
0.7166101
0.71611121
0.71565229
0.71523166
0.71484769
0.71449883
0.71418357
0.71390051
0.71364831
0.71342568
0.71323144
0.71306446
0.71292361
0.76929581
0.76780209
0.76622881
0.7645824
0.76286991
0.76109896
0.75927766
0.7574145
0.75551832
0.75359815
0.75166315
0.7497225
0.74778526
0.74586026
0.74395597
0.74208035
0.7402408
0.738444
0.73669587
0.73500151
0.73336521
0.73179042
0.73027978
0.72883518
0.72745779
0.72614819
0.72490637
0.72373185
0.72262369
0.72158063
0.7206011
0.71968332
0.71882533
0.71802505
0.71728034
0.71658897
0.71594875
0.71535746
0.71481296
0.7143131
0.71385586
0.71343924
0.71306134
0.71272035
0.71241453
0.71214226
0.71190199
0.71169226
0.71151171
0.71135906
0.71123313
0.71113271
0.76923675
0.76761581
0.76590726
0.76411862
0.76225817
0.7603349
0.75835837
0.75633863
0.75428607
0.75221137
0.7501253
0.74803857
0.74596171
0.74390488
0.74187769
0.73988905
0.73794708
0.73605896
0.73423086
0.73246795
0.73077437
0.72915325
0.72760678
0.72613628
0.72474231
0.72342475
0.72218286
0.72101542
0.71992076
0.71889689
0.71794158
0.7170524
0.71622678
0.71546209
0.71475566
0.71410483
0.71350695
0.71295946
0.71245985
0.7120057
0.7115947
0.71122462
0.71089337
0.71059896
0.71033949
0.71011322
0.70991848
0.70975372
0.70961751
0.70950849
0.70942543
0.70936708
0.76917256
0.76741299
0.76555678
0.76361274
0.76159064
0.75950109
0.7573554
0.75516545
0.75294358
0.75070237
0.74845448
0.74621245
0.74398845
0.74179411
0.73964026
0.73753677
0.73549243
0.73351479
0.73161016
0.72978355
0.72803876
0.72637838
0.72480394
0.72331602
0.72191435
0.72059794
0.71936518
0.71821396
0.71714178
0.71614588
0.71522324
0.71437075
0.7135852
0.71286338
0.7122021
0.71159821
0.71104867
0.71055052
0.71010095
0.70969724
0.70933683
0.70901729
0.70873633
0.7084918
0.70828169
0.70810413
0.70795736
0.70783978
0.70774987
0.70768622
0.70764762
0.70763269
0.76910278
0.76719208
0.7651746
0.76306071
0.76086193
0.75859082
0.7562608
0.753886
0.75148103
0.74906076
0.74664009
0.74423363
0.74185541
0.73951865
0.73723544
0.73501659
0.73287142
0.7308077
0.72883162
0.72694784
0.72515952
0.72346848
0.72187537
0.72037978
0.71898042
0.71767523
0.71646159
0.71533639
0.71429622
0.7133374
0.71245615
0.7116486
0.71091088
0.7102392
0.70962983
0.70907917
0.70858375
0.70814028
0.70774562
0.7073968
0.70709103
0.70682569
0.70659833
0.70640667
0.70624859
0.70612213
0.70602548
0.70595692
0.705915
0.70589812
0.70590533
0.70593442
0.76902691
0.76695137
0.76475766
0.76245799
0.760066
0.7575966
0.75506578
0.75249035
0.74988766
0.74727532
0.74467079
0.74209106
0.73955223
0.73706919
0.73465528
0.73232212
0.73007939
0.72793482
0.72589423
0.72396156
0.72213908
0.72042757
0.71882648
0.7173342
0.71594818
0.71466515
0.71348131
0.71239247
0.71139418
0.71048184
0.70965082
0.70889649
0.70821433
0.70759993
0.70704905
0.70655765
0.70612188
0.7057381
0.7054029
0.70511307
0.70486564
0.70465782
0.70448702
0.70435086
0.70424714
0.70417379
0.70412907
0.70411103
0.70411857
0.70414907
0.70420331
0.70427708
0.76894437
0.76668893
0.7643025
0.76179947
0.75919607
0.75651006
0.75376053
0.75096754
0.74815173
0.7453339
0.74253452
0.73977324
0.73706838
0.73443654
0.73189223
0.72944765
0.7271126
0.72489443
0.7227982
0.7208268
0.71898127
0.71726099
0.71566397
0.71418711
0.7128264
0.7115772
0.71043441
0.70939265
0.70844637
0.70759002
0.70681808
0.70612518
0.70550611
0.7049559
0.70446982
0.70404341
0.70367245
0.70335301
0.70308143
0.70285432
0.70266853
0.70252116
0.7024095
0.70233106
0.70228368
0.70226507
0.70227387
0.70230697
0.70236535
0.70244393
0.70254537
0.70266445
0.76885455
0.76640261
0.7638052
0.7610794
0.75824451
0.75532181
0.75233415
0.74930551
0.74626044
0.7432235
0.74021859
0.73726829
0.73439327
0.73161178
0.72893931
0.72638836
0.72396841
0.72168605
0.71954511
0.71754707
0.7156913
0.71397547
0.71239581
0.71094748
0.70962486
0.70842175
0.70733166
0.70634794
0.70546392
0.70467303
0.70396891
0.70334542
0.70279673
0.70231731
0.70190199
0.70154588
0.70124449
0.70099362
0.7007894
0.7006283
0.70050701
0.70042265
0.70037229
0.70035336
0.70036407
0.70040081
0.70046473
0.70054972
0.70065902
0.70078637
0.70093568
0.70110238
0.76875673
0.76608996
0.76326137
0.76029125
0.75720273
0.75402134
0.75077451
0.74749093
0.74419984
0.74093016
0.73770964
0.73456403
0.73151638
0.72858644
0.72579033
0.72314042
0.72064542
0.71831056
0.71613802
0.71412733
0.71227583
0.71057904
0.70903116
0.70762538
0.70635425
0.70520994
0.70418445
0.70326982
0.70245824
0.70174216
0.70111435
0.70056796
0.70009655
0.69969412
0.69935504
0.69907412
0.69884657
0.69866804
0.69853444
0.69844223
0.69838779
0.69836863
0.69838138
0.69842272
0.69849327
0.69858623
0.69870523
0.69884292
0.69900377
0.69918237
0.699379
0.69959197
0.76865012
0.76574822
0.76266599
0.75942766
0.75606102
0.75259681
0.74906807
0.74550916
0.74195482
0.73843901
0.73499375
0.73164813
0.72842746
0.72535266
0.72244005
0.71970127
0.7171436
0.71477037
0.71258149
0.71057407
0.70874288
0.70708102
0.70558032
0.70423181
0.70302606
0.70195351
0.70100461
0.70017007
0.69944095
0.69880872
0.69826535
0.69780332
0.69741567
0.6970959
0.69683807
0.6966367
0.69648678
0.69638389
0.69632359
0.69630281
0.69631743
0.6963639
0.69644199
0.6965444
0.69667479
0.69682492
0.69699964
0.69719268
0.69740441
0.69763279
0.69787699
0.69813585
0.76853382
0.76537424
0.76201336
0.75848023
0.75480837
0.75103494
0.74719976
0.74334405
0.739509
0.73573427
0.73205653
0.72850822
0.72511664
0.72190342
0.71888435
0.71606966
0.71346446
0.71106946
0.70888169
0.70689522
0.70510188
0.70349194
0.70205463
0.70077864
0.69965246
0.69866472
0.69780431
0.69706065
0.69642366
0.69588392
0.69543267
0.69506178
0.69476377
0.69453182
0.6943597
0.69424171
0.69417256
0.69414826
0.69416375
0.69421502
0.69430113
0.6944142
0.69455754
0.69472222
0.69491307
0.69512323
0.6953529
0.69559968
0.69586259
0.69614026
0.69643171
0.69673596
0.76840683
0.76496446
0.76129699
0.75743939
0.75343226
0.74932069
0.74515277
0.74097787
0.7368447
0.73279929
0.7288832
0.72513206
0.7215747
0.71823268
0.71512045
0.7122459
0.70961114
0.70721348
0.70504633
0.7031002
0.70136352
0.69982343
0.69846635
0.69727847
0.69624615
0.69535618
0.69459593
0.69395355
0.69341793
0.69297881
0.6926268
0.69235317
0.69215012
0.69201051
0.69192797
0.69189669
0.69191132
0.69196645
0.69206037
0.69218491
0.69234223
0.69252353
0.69273275
0.69296277
0.69321333
0.69348169
0.69376665
0.69406659
0.69438032
0.69470671
0.69504481
0.69539375
0.76826798
0.76451477
0.76050937
0.75629413
0.75191843
0.7474371
0.74290831
0.73839113
0.73394289
0.72961659
0.72545873
0.72150775
0.71779321
0.71433563
0.71114705
0.70823198
0.70558855
0.70320976
0.70108472
0.69919984
0.69753975
0.69608817
0.69482854
0.69374449
0.69282023
0.69204072
0.69139189
0.69086068
0.69043508
0.69010409
0.68985779
0.68968689
0.68958346
0.68954003
0.68955031
0.68960801
0.68970884
0.68984509
0.69001672
0.69021655
0.69044601
0.69069873
0.69097325
0.69126656
0.69157713
0.69190305
0.6922429
0.69259532
0.6929592
0.69333353
0.69371746
0.69411022
0.76811597
0.76402044
0.75964188
0.7550318
0.75025054
0.74536495
0.74044542
0.73556247
0.73078316
0.72616793
0.72176801
0.71762389
0.71376477
0.71020888
0.70696456
0.70403171
0.70140336
0.69906732
0.69700772
0.69520632
0.69364362
0.69229971
0.69115495
0.69019038
0.68938807
0.68873127
0.68820453
0.68779375
0.68748618
0.68727003
0.68713526
0.68707173
0.68707196
0.6871275
0.68723283
0.68738303
0.68756828
0.68778795
0.68803892
0.68831719
0.6886187
0.68894048
0.68928047
0.68963638
0.69000651
0.69038924
0.69078322
0.69118727
0.69160038
0.69202168
0.69245043
0.69288597
0.76794929
0.763476
0.75868449
0.75363775
0.74840981
0.7430824
0.73774066
0.73246846
0.7273437
0.72243442
0.717796
0.71346984
0.70948328
0.7058507
0.70257524
0.69965078
0.69706411
0.69479693
0.6928277
0.69113311
0.68968923
0.68847241
0.68745987
0.68663011
0.68596316
0.6854407
0.68504601
0.68476416
0.68458186
0.68448631
0.68446838
0.68451582
0.68462193
0.68478137
0.68498176
0.68522323
0.68549584
0.68580263
0.68613406
0.68648799
0.68686139
0.68725161
0.68765655
0.68807425
0.68850309
0.68894166
0.68938876
0.68984335
0.69030458
0.69077169
0.69124408
0.69172121
0.76776619
0.76287506
0.7576255
0.75209494
0.74637461
0.74056459
0.73476781
0.72908349
0.7236013
0.71839664
0.71352797
0.70903592
0.70494413
0.70126123
0.69798337
0.69509691
0.69258121
0.69041099
0.68855846
0.68699483
0.68569158
0.68462125
0.68375799
0.68307784
0.68255897
0.68218172
0.68192818
0.68178281
0.68173235
0.68176222
0.68186441
0.68202775
0.68224065
0.6825031
0.68280107
0.68313746
0.68350161
0.68389155
0.68430256
0.68473175
0.68517642
0.68563422
0.68610318
0.68658159
0.68706802
0.68756123
0.68806019
0.68856405
0.68907209
0.68958372
0.69009843
0.69061581
0.76756468
0.76221014
0.75645114
0.75038341
0.74411983
0.73778317
0.73149753
0.72537961
0.71953135
0.71403478
0.70894968
0.70431372
0.7001445
0.69644265
0.69319534
0.69037987
0.68796697
0.68592362
0.68421519
0.68280721
0.68166645
0.68076173
0.68006423
0.67954776
0.6791888
0.67896676
0.67886247
0.67886111
0.6789456
0.67910544
0.6793331
0.67960979
0.67993419
0.68030012
0.68070152
0.68113118
0.68158417
0.68205736
0.68254714
0.6830507
0.68356562
0.68408982
0.68462156
0.68515936
0.68570198
0.68624841
0.6867978
0.68734946
0.68790286
0.68845759
0.68901315
0.68956934
0.76734239
0.76147238
0.75514513
0.7484797
0.74161631
0.73470569
0.72789698
0.72132631
0.71510787
0.70932879
0.70404767
0.69929638
0.6950836
0.69139938
0.68821981
0.68551156
0.68323563
0.68135048
0.67981435
0.67858688
0.67763022
0.67690965
0.67639362
0.67605396
0.67586562
0.67580795
0.67585937
0.67600668
0.67623366
0.67652335
0.67687614
0.67727022
0.67771031
0.67818305
0.67868331
0.679206
0.6797468
0.68030242
0.68086983
0.68144649
0.68203029
0.68261942
0.6832124
0.68380801
0.68440524
0.68500327
0.68560147
0.68619933
0.6867965
0.76709656
0.76065124
0.75368804
0.74635599
0.73882993
0.73129492
0.72392938
0.71689037
0.71030355
0.70425859
0.69880956
0.69397887
0.68976289
0.68613826
0.68306784
0.68050608
0.67840327
0.67670882
0.67537355
0.6743513
0.67359976
0.67308104
0.67276115
0.67261032
0.67260313
0.67271463
0.67292896
0.67323112
0.67359783
0.6740243
0.67450168
0.67502149
0.67557344
0.67615122
0.67674977
0.67736458
0.67799186
0.67862858
0.67927209
0.67992024
0.68057121
0.68122353
0.68187599
0.68252762
0.68317766
0.68382552
0.68447076
0.68511306
0.68575224
0.76682393
0.75973405
0.75205654
0.74397913
0.73572064
0.72750805
0.71955343
0.71203564
0.70508977
0.6988043
0.69322431
0.68835827
0.68418637
0.68066878
0.67775299
0.67537976
0.67348785
0.67201726
0.67091143
0.67011855
0.66959219
0.66929192
0.66918155
0.66923018
0.66941061
0.66970139
0.67008029
0.6705358
0.67104851
0.67161596
0.67222387
0.67286291
0.67352617
0.67420793
0.67490352
0.675609
0.67632108
0.67703709
0.67775484
0.67847253
0.67918871
0.67990223
0.68061217
0.68131785
0.68201875
0.68271451
0.6834049
0.68408982
0.68476921
0.76652061
0.75870546
0.75022231
0.74130932
0.73224116
0.72329567
0.71472275
0.70672273
0.69943661
0.69294644
0.68728253
0.68243409
0.67836084
0.6750033
0.67229143
0.67015114
0.66850908
0.66729576
0.66644749
0.66590721
0.6656247
0.66555816
0.66566812
0.66592593
0.66630297
0.66676889
0.66732304
0.66793179
0.6685999
0.66930555
0.67004087
0.67079828
0.67157158
0.67235572
0.67314657
0.67394076
0.67473553
0.67552869
0.67631847
0.67710349
0.67788266
0.67865518
0.67942044
0.68017803
0.6809277
0.68166932
0.68240289
0.68312848
0.68384622
0.7661819
0.75754665
0.74815071
0.73829839
0.72833539
0.71860053
0.70938504
0.70090867
0.69331283
0.6866661
0.68097679
0.67620867
0.67229624
0.6691572
0.66670207
0.664841
0.66348834
0.66256541
0.66200189
0.66173616
0.66171573
0.66189199
0.66223674
0.66271124
0.663282
0.66393616
0.66465909
0.66543718
0.66625259
0.66709492
0.66795647
0.66883066
0.6697121
0.67059645
0.67148026
0.67236076
0.67323577
0.67410358
0.67496292
0.6758128
0.67665254
0.67748168
0.67829992
0.67910717
0.67990341
0.68068877
0.68146345
0.68222772
0.6829819
0.76580215
0.75623431
0.74579888
0.73488767
0.72393641
0.71335598
0.70348103
0.69454632
0.68668577
0.67994512
0.67430198
0.66968755
0.66600604
0.66314916
0.66100658
0.65947227
0.65844857
0.65784827
0.65759527
0.65762451
0.65787819
0.65831337
0.65890003
0.65958735
0.66036253
0.66120938
0.66211148
0.66304886
0.66401068
0.66498795
0.66597371
0.66696236
0.66794941
0.66893131
0.66990534
0.67086936
0.67182181
0.67276152
0.67368768
0.67459976
0.67549746
0.67638069
0.67724948
0.67810401
0.67894454
0.67977143
0.6805851
0.68138602
0.68217468
0.76537441
0.75473919
0.74311331
0.73100501
0.71896381
0.7074839
0.69694295
0.68758354
0.67952098
0.67276627
0.66725576
0.66288006
0.65950757
0.65700138
0.65522947
0.65406997
0.65341407
0.65316712
0.65324782
0.65358808
0.65413544
0.65483267
0.65565987
0.65657181
0.65756104
0.65860204
0.65967649
0.66077169
0.66187796
0.66298764
0.66409484
0.665195
0.66628457
0.66736089
0.66842197
0.6694664
0.67049321
0.6715018
0.67249185
0.67346329
0.67441622
0.67535089
0.67626768
0.67716704
0.67804952
0.67891569
0.6797662
0.6806017
0.68142288
0.76489008
0.7530241
0.74002627
0.72656098
0.71332024
0.70089185
0.68969375
0.67996453
0.67178497
0.66511604
0.65984061
0.65580023
0.65282257
0.65073978
0.64939809
0.64866106
0.64841026
0.64854379
0.64897931
0.64965051
0.65048831
0.6514647
0.65253439
0.65368514
0.65488496
0.65611399
0.65735908
0.65860958
0.65985735
0.66109615
0.66232134
0.66352946
0.66471799
0.66588517
0.66702981
0.66815123
0.66924908
0.67032334
0.67137419
0.67240201
0.6734073
0.67439069
0.67535286
0.67629457
0.6772166
0.67811978
0.67900495
0.67987297
0.68072467
0.76433842
0.75104097
0.73645107
0.72144355
0.70688664
0.69347208
0.68164984
0.67163431
0.66344973
0.65698853
0.65206674
0.64846875
0.64597787
0.64439421
0.64354256
0.6432742
0.6434612
0.64400248
0.64481452
0.64581341
0.64696683
0.64821416
0.64954973
0.65093085
0.65233605
0.65375057
0.65516327
0.65656554
0.65795097
0.65931489
0.66065399
0.66196601
0.6632495
0.66450362
0.66572804
0.66692278
0.66808815
0.6692247
0.67033313
0.67141425
0.67246898
0.67349829
0.67450318
0.6754847
0.67644388
0.67738178
0.67829944
0.67919789
0.68007815
0.76370575
0.74872655
0.7322751
0.71551069
0.69951947
0.68510394
0.67272502
0.6625424
0.65449579
0.64838792
0.6439542
0.64091474
0.63900652
0.6379985
0.6376956
0.63793642
0.63859603
0.63956983
0.6407552
0.64211364
0.64356959
0.64511629
0.64670577
0.64831241
0.64991987
0.65151605
0.65309211
0.65464164
0.6561601
0.65764447
0.65909287
0.66050429
0.66187837
0.66321523
0.66451538
0.66577958
0.66700881
0.66820416
0.66936684
0.67049811
0.67159929
0.67267168
0.67371661
0.6747354
0.67572933
0.67669967
0.67764765
0.67857449
0.67948136
0.76297444
0.74599596
0.72734983
0.70858343
0.69105028
0.67565606
0.66283407
0.65264685
0.64491572
0.63933095
0.63553424
0.63317636
0.63194816
0.63159071
0.6318883
0.63268261
0.63384433
0.63524775
0.63684556
0.63854565
0.64033886
0.64216903
0.64400748
0.64583577
0.64764084
0.64941357
0.65114771
0.65283911
0.65448525
0.65608483
0.65763745
0.65914338
0.66060337
0.66201852
0.66339018
0.66471984
0.66600912
0.66725969
0.66847324
0.66965148
0.67079608
0.67190872
0.67299101
0.67404453
0.67507082
0.67607133
0.6770475
0.6780007
0.67893227
0.76212115
0.74273255
0.72147768
0.70043896
0.6812847
0.66498977
0.65189811
0.64191924
0.63471778
0.62984922
0.62685053
0.625301
0.6248488
0.62520801
0.62616266
0.62754676
0.62920824
0.63108867
0.63307672
0.63515927
0.63727127
0.63937857
0.64146131
0.64350563
0.64550225
0.64744527
0.6493312
0.65115833
0.65292619
0.65463524
0.6562866
0.65788184
0.65942283
0.66091163
0.66235042
0.66374143
0.66508691
0.66638906
0.66765007
0.66887206
0.67005709
0.67120713
0.67232411
0.67340986
0.67446615
0.67549461
0.67649685
0.67747443
0.67842882
0.76111413
0.73877203
0.71439517
0.69080275
0.67000339
0.65296543
0.63985184
0.6303505
0.62392983
0.6199913
0.6179598
0.61734516
0.61775391
0.61890229
0.6205592
0.62253138
0.62474973
0.62708128
0.6295062
0.63195132
0.63437368
0.63675211
0.63907236
0.64132548
0.64350626
0.64561224
0.64764287
0.64959891
0.65148199
0.65329437
0.65503868
0.65671779
0.65833467
0.65989235
0.66139381
0.662842
0.66423976
0.66558985
0.6668949
0.66815744
0.66937989
0.67056454
0.67171357
0.67282908
0.67391307
0.67496728
0.67599355
0.67699357
0.67796894
0.75990841
0.73387889
0.7057513
0.67934079
0.65696714
0.63945218
0.62665273
0.61795741
0.61260292
0.60982435
0.60893211
0.60936668
0.61072621
0.61272513
0.61508141
0.61770988
0.62045606
0.62329073
0.62613332
0.62892879
0.63165409
0.63429529
0.63684436
0.63929753
0.64165391
0.64391464
0.64608215
0.64815971
0.6501511
0.65206034
0.65389156
0.65564892
0.65733647
0.65895817
0.66051778
0.66201894
0.66346508
0.66485946
0.66620516
0.6675051
0.66876201
0.6699785
0.671157
0.67229984
0.75843754
0.72770789
0.69507745
0.6656554
0.64192795
0.62434209
0.61229216
0.60478914
0.6008143
0.59943497
0.59984247
0.60144303
0.60383183
0.60668222
0.60981741
0.61306906
0.61639929
0.61972267
0.62296428
0.6261008
0.62911879
0.63201221
0.63477968
0.63742284
0.63994525
0.6423517
0.64464768
0.64683895
0.64893139
0.65093077
0.65284271
0.65467259
0.65642552
0.65810633
0.65971957
0.6612695
0.66276014
0.6641952
0.6655782
0.66691241
0.66820089
0.66944651
0.67065196
0.67181977
0.75659627
0.71973997
0.68175186
0.64928961
0.62464895
0.60756881
0.59680771
0.59093329
0.58866926
0.58892154
0.59078482
0.59366732
0.59707406
0.60088361
0.60475503
0.60868533
0.61259859
0.61638084
0.62000967
0.6234745
0.62677233
0.62990542
0.63287936
0.63570129
0.6383793