/*--------------------------------*- C++ -*----------------------------------*\
| =========                 |                                                 |
| \\      /  F ield         | OpenFOAM: The Open Source CFD Toolbox           |
|  \\    /   O peration     | Version:  2312                                  |
|   \\  /    A nd           | Website:  www.openfoam.com                      |
|    \\/     M anipulation  |                                                 |
\*---------------------------------------------------------------------------*/
FoamFile
{
    version     2.0;
    format      ascii;
    arch        "LSB;label=32;scalar=64";
    class       volScalarField;
    location    "0.09";
    object      p;
}
// * * * * * * * * * * * * * * * * * * * * * * * * * * * * * * * * * * * * * //

dimensions      [1 -1 -2 0 0 0 0];

internalField   nonuniform List<scalar> 
3221
(
100000.54
100000.52
100000.52
100000.54
100000.57
100000.6
100000.64
100000.67
100000.7
100000.72
100000.73
100000.75
100000.75
100000.76
100000.75
100000.73
100000.72
100000.71
100000.69
100000.68
100000.67
100000.66
100000.65
100000.64
100000.63
100000.62
100000.6
100000.59
100000.58
100000.57
100000.56
100000.55
100000.55
100000.54
100000.53
100000.52
100000.52
100000.51
100000.51
100000.51
100000.5
100000.5
100000.5
100000.5
100000.5
100000.5
100000.51
100000.51
100000.51
100000.52
100000.53
100000.53
100000.47
100000.42
100000.37
100000.33
100000.31
100000.29
100000.27
100000.25
100000.25
100000.25
100000.25
100000.25
100000.25
100000.26
100000.27
100000.29
100000.31
100000.32
100000.32
100000.33
100000.34
100000.34
100000.34
100000.34
100000.34
100000.34
100000.34
100000.34
100000.34
100000.34
100000.34
100000.33
100000.33
100000.33
100000.33
100000.33
100000.33
100000.33
100000.33
100000.33
100000.33
100000.33
100000.34
100000.34
100000.34
100000.35
100000.35
100000.36
100000.36
100000.37
100000.37
100000.38
100000.47
100000.42
100000.37
100000.34
100000.32
100000.3
100000.29
100000.28
100000.27
100000.27
100000.27
100000.27
100000.27
100000.27
100000.27
100000.27
100000.27
100000.28
100000.28
100000.28
100000.28
100000.28
100000.28
100000.28
100000.28
100000.29
100000.29
100000.29
100000.29
100000.29
100000.29
100000.29
100000.29
100000.3
100000.3
100000.3
100000.3
100000.31
100000.31
100000.31
100000.32
100000.32
100000.32
100000.33
100000.33
100000.34
100000.34
100000.35
100000.36
100000.36
100000.37
100000.38
100000.44
100000.39
100000.34
100000.31
100000.28
100000.26
100000.24
100000.23
100000.22
100000.22
100000.21
100000.21
100000.21
100000.21
100000.21
100000.22
100000.22
100000.22
100000.22
100000.23
100000.23
100000.24
100000.24
100000.24
100000.25
100000.25
100000.25
100000.26
100000.26
100000.27
100000.27
100000.28
100000.28
100000.28
100000.29
100000.29
100000.3
100000.3
100000.31
100000.31
100000.32
100000.33
100000.33
100000.34
100000.35
100000.35
100000.36
100000.37
100000.38
100000.39
100000.39
100000.4
100000.38
100000.34
100000.29
100000.26
100000.23
100000.21
100000.19
100000.18
100000.17
100000.16
100000.15
100000.15
100000.15
100000.15
100000.15
100000.15
100000.16
100000.16
100000.17
100000.17
100000.18
100000.19
100000.19
100000.2
100000.21
100000.21
100000.22
100000.23
100000.23
100000.24
100000.25
100000.25
100000.26
100000.27
100000.28
100000.28
100000.29
100000.3
100000.31
100000.31
100000.32
100000.33
100000.34
100000.35
100000.36
100000.36
100000.37
100000.38
100000.39
100000.4
100000.41
100000.42
100000.31
100000.27
100000.23
100000.2
100000.17
100000.15
100000.13
100000.11
100000.1
100000.09
100000.09
100000.09
100000.09
100000.09
100000.09
100000.09
100000.1
100000.11
100000.11
100000.12
100000.13
100000.14
100000.15
100000.16
100000.17
100000.18
100000.19
100000.2
100000.21
100000.22
100000.23
100000.24
100000.25
100000.26
100000.27
100000.28
100000.29
100000.29
100000.3
100000.31
100000.32
100000.33
100000.35
100000.36
100000.37
100000.38
100000.39
100000.4
100000.41
100000.42
100000.43
100000.45
100000.24
100000.2
100000.16
100000.13
100000.1
100000.08
100000.06
100000.04
100000.03
100000.03
100000.02
100000.02
100000.02
100000.02
100000.03
100000.03
100000.04
100000.05
100000.06
100000.07
100000.08
100000.09
100000.11
100000.12
100000.13
100000.14
100000.16
100000.17
100000.18
100000.19
100000.21
100000.22
100000.23
100000.25
100000.26
100000.27
100000.28
100000.29
100000.31
100000.32
100000.33
100000.34
100000.35
100000.37
100000.38
100000.39
100000.4
100000.42
100000.43
100000.44
100000.45
100000.47
100000.16
100000.12
100000.08
100000.05
100000.02
100000
99999.984
99999.97
99999.96
99999.954
99999.95
99999.95
99999.952
99999.957
99999.964
99999.972
99999.983
99999.994
100000.01
100000.02
100000.03
100000.05
100000.06
100000.08
100000.1
100000.11
100000.13
100000.14
100000.16
100000.18
100000.19
100000.21
100000.22
100000.24
100000.25
100000.27
100000.28
100000.3
100000.31
100000.32
100000.34
100000.35
100000.37
100000.38
100000.39
100000.41
100000.42
100000.44
100000.45
100000.46
100000.48
100000.49
100000.07
100000.04
99999.997
99999.966
99999.94
99999.919
99999.902
99999.889
99999.881
99999.876
99999.875
99999.877
99999.881
99999.889
99999.898
99999.91
99999.923
99999.938
99999.954
99999.971
99999.989
100000.01
100000.03
100000.05
100000.06
100000.08
100000.1
100000.12
100000.14
100000.16
100000.18
100000.2
100000.21
100000.23
100000.25
100000.27
100000.28
100000.3
100000.32
100000.33
100000.35
100000.36
100000.38
100000.4
100000.41
100000.43
100000.44
100000.46
100000.47
100000.49
100000.5
100000.52
99999.981
99999.945
99999.907
99999.876
99999.851
99999.83
99999.815
99999.803
99999.797
99999.794
99999.795
99999.8
99999.807
99999.818
99999.831
99999.846
99999.863
99999.882
99999.902
99999.923
99999.944
99999.967
99999.989
100000.01
100000.04
100000.06
100000.08
100000.1
100000.13
100000.15
100000.17
100000.19
100000.21
100000.23
100000.25
100000.27
100000.29
100000.31
100000.33
100000.34
100000.36
100000.38
100000.4
100000.41
100000.43
100000.45
100000.46
100000.48
100000.5
100000.51
100000.53
100000.55
99999.887
99999.85
99999.811
99999.78
99999.755
99999.735
99999.721
99999.712
99999.707
99999.707
99999.711
99999.719
99999.731
99999.745
99999.762
99999.781
99999.803
99999.826
99999.85
99999.875
99999.901
99999.928
99999.954
99999.981
100000.01
100000.03
100000.06
100000.09
100000.11
100000.14
100000.16
100000.19
100000.21
100000.23
100000.25
100000.28
100000.3
100000.32
100000.34
100000.36
100000.38
100000.4
100000.42
100000.43
100000.45
100000.47
100000.49
100000.51
100000.52
100000.54
100000.56
100000.58
99999.787
99999.749
99999.709
99999.678
99999.653
99999.635
99999.622
99999.615
99999.613
99999.616
99999.624
99999.635
99999.651
99999.67
99999.692
99999.716
99999.742
99999.77
99999.799
99999.829
99999.859
99999.89
99999.921
99999.952
99999.983
100000.01
100000.04
100000.07
100000.1
100000.13
100000.16
100000.18
100000.21
100000.24
100000.26
100000.28
100000.31
100000.33
100000.35
100000.37
100000.4
100000.42
100000.44
100000.46
100000.48
100000.5
100000.52
100000.53
100000.55
100000.57
100000.59
100000.61
99999.683
99999.642
99999.601
99999.569
99999.545
99999.527
99999.516
99999.512
99999.513
99999.52
99999.532
99999.548
99999.568
99999.592
99999.619
99999.649
99999.68
99999.714
99999.748
99999.783
99999.819
99999.855
99999.891
99999.926
99999.961
99999.996
100000.03
100000.06
100000.1
100000.13
100000.16
100000.19
100000.22
100000.24
100000.27
100000.3
100000.32
100000.35
100000.37
100000.39
100000.42
100000.44
100000.46
100000.48
100000.5
100000.52
100000.54
100000.56
100000.58
100000.6
100000.62
100000.64
99999.572
99999.529
99999.486
99999.453
99999.429
99999.413
99999.404
99999.403
99999.408
99999.419
99999.435
99999.457
99999.483
99999.513
99999.546
99999.581
99999.619
99999.658
99999.698
99999.739
99999.78
99999.821
99999.862
99999.903
99999.942
99999.981
100000.02
100000.06
100000.09
100000.13
100000.16
100000.19
100000.22
100000.25
100000.28
100000.31
100000.34
100000.37
100000.39
100000.42
100000.44
100000.46
100000.49
100000.51
100000.53
100000.55
100000.57
100000.6
100000.62
100000.64
100000.66
100000.68
99999.455
99999.409
99999.363
99999.329
99999.306
99999.291
99999.285
99999.287
99999.296
99999.312
99999.335
99999.362
99999.395
99999.431
99999.471
99999.513
99999.557
99999.603
99999.649
99999.696
99999.743
99999.79
99999.836
99999.881
99999.926
99999.969
100000.01
100000.05
100000.09
100000.13
100000.17
100000.2
100000.23
100000.27
100000.3
100000.33
100000.36
100000.39
100000.41
100000.44
100000.47
100000.49
100000.51
100000.54
100000.56
100000.58
100000.61
100000.63
100000.65
100000.67
100000.69
100000.71
99999.33
99999.28
99999.232
99999.197
99999.174
99999.162
99999.158
99999.164
99999.179
99999.2
99999.229
99999.264
99999.303
99999.347
99999.394
99999.444
99999.495
99999.548
99999.602
99999.655
99999.708
99999.761
99999.813
99999.863
99999.912
99999.96
100000.01
100000.05
100000.09
100000.13
100000.17
100000.21
100000.25
100000.28
100000.32
100000.35
100000.38
100000.41
100000.44
100000.47
100000.49
100000.52
100000.54
100000.57
100000.59
100000.62
100000.64
100000.66
100000.68
100000.7
100000.73
100000.75
99999.197
99999.143
99999.092
99999.056
99999.034
99999.023
99999.024
99999.034
99999.054
99999.083
99999.119
99999.161
99999.209
99999.261
99999.317
99999.374
99999.434
99999.494
99999.555
99999.616
99999.676
99999.734
99999.792
99999.848
99999.902
99999.954
100000
100000.05
100000.1
100000.14
100000.18
100000.23
100000.26
100000.3
100000.34
100000.37
100000.4
100000.43
100000.46
100000.49
100000.52
100000.55
100000.57
100000.6
100000.62
100000.65
100000.67
100000.7
100000.72
100000.74
100000.76
100000.78
99999.054
99998.996
99998.941
99998.905
99998.883
99998.875
99998.88
99998.896
99998.923
99998.96
99999.004
99999.055
99999.112
99999.173
99999.238
99999.305
99999.373
99999.442
99999.51
99999.578
99999.645
99999.71
99999.774
99999.835
99999.894
99999.951
100000
100000.06
100000.11
100000.15
100000.2
100000.24
100000.28
100000.32
100000.36
100000.39
100000.43
100000.46
100000.49
100000.52
100000.55
100000.58
100000.61
100000.63
100000.66
100000.68
100000.71
100000.73
100000.75
100000.78
100000.8
100000.82
99998.901
99998.837
99998.779
99998.742
99998.722
99998.717
99998.727
99998.75
99998.785
99998.83
99998.884
99998.945
99999.012
99999.084
99999.158
99999.235
99999.313
99999.39
99999.467
99999.543
99999.617
99999.689
99999.758
99999.825
99999.889
99999.951
100000.01
100000.06
100000.12
100000.17
100000.22
100000.26
100000.3
100000.35
100000.38
100000.42
100000.46
100000.49
100000.52
100000.55
100000.58
100000.61
100000.64
100000.67
100000.69
100000.72
100000.74
100000.77
100000.79
100000.81
100000.84
100000.86
99998.736
99998.666
99998.604
99998.566
99998.548
99998.548
99998.564
99998.595
99998.639
99998.694
99998.759
99998.831
99998.91
99998.993
99999.078
99999.166
99999.253
99999.34
99999.426
99999.51
99999.592
99999.671
99999.746
99999.819
99999.888
99999.954
100000.02
100000.08
100000.13
100000.19
100000.24
100000.28
100000.33
100000.37
100000.41
100000.45
100000.49
100000.52
100000.55
100000.59
100000.62
100000.65
100000.67
100000.7
100000.73
100000.75
100000.78
100000.8
100000.83
100000.85
100000.87
100000.9
99998.557
99998.481
99998.415
99998.377
99998.362
99998.367
99998.39
99998.43
99998.485
99998.552
99998.629
99998.714
99998.805
99998.9
99998.998
99999.097
99999.195
99999.292
99999.388
99999.48
99999.57
99999.655
99999.738
99999.816
99999.89
99999.96
100000.03
100000.09
100000.15
100000.2
100000.26
100000.31
100000.35
100000.4
100000.44
100000.48
100000.52
100000.55
100000.59
100000.62
100000.65
100000.68
100000.71
100000.74
100000.76
100000.79
100000.82
100000.84
100000.86
100000.89
100000.91
100000.93
99998.364
99998.281
99998.211
99998.173
99998.161
99998.173
99998.205
99998.255
99998.322
99998.403
99998.494
99998.593
99998.698
99998.807
99998.918
99999.029
99999.139
99999.247
99999.352
99999.453
99999.551
99999.644
99999.732
99999.816
99999.895
99999.97
100000.04
100000.11
100000.17
100000.23
100000.28
100000.33
100000.38
100000.43
100000.47
100000.51
100000.55
100000.59
100000.62
100000.66
100000.69
100000.72
100000.75
100000.77
100000.8
100000.83
100000.85
100000.88
100000.9
100000.92
100000.95
100000.97
99998.155
99998.064
99997.99
99997.953
99997.946
99997.964
99998.007
99998.07
99998.151
99998.247
99998.353
99998.468
99998.589
99998.713
99998.838
99998.962
99999.084
99999.203
99999.319
99999.429
99999.535
99999.635
99999.73
99999.82
99999.904
99999.983
100000.06
100000.13
100000.19
100000.25
100000.31
100000.36
100000.41
100000.46
100000.5
100000.55
100000.59
100000.62
100000.66
100000.69
100000.72
100000.75
100000.78
100000.81
100000.84
100000.86
100000.89
100000.91
100000.94
100000.96
100000.98
100001.01
99997.927
99997.828
99997.75
99997.714
99997.713
99997.741
99997.796
99997.874
99997.972
99998.084
99998.208
99998.341
99998.478
99998.618
99998.758
99998.897
99999.032
99999.163
99999.289
99999.409
99999.523
99999.631
99999.733
99999.828
99999.917
100000
100000.08
100000.15
100000.22
100000.28
100000.34
100000.4
100000.45
100000.49
100000.54
100000.58
100000.62
100000.66
100000.69
100000.73
100000.76
100000.79
100000.82
100000.85
100000.87
100000.9
100000.93
100000.95
100000.97
100001
100001.02
100001.04
99997.68
99997.572
99997.489
99997.456
99997.462
99997.502
99997.572
99997.667
99997.783
99997.915
99998.059
99998.211
99998.367
99998.524
99998.681
99998.834
99998.983
99999.127
99999.263
99999.393
99999.516
99999.631
99999.739
99999.84
99999.934
100000.02
100000.1
100000.18
100000.25
100000.31
100000.37
100000.43
100000.48
100000.53
100000.58
100000.62
100000.66
100000.7
100000.73
100000.76
100000.8
100000.83
100000.86
100000.88
100000.91
100000.94
100000.96
100000.99
100001.01
100001.03
100001.06
100001.08
99997.41
99997.292
99997.206
99997.177
99997.192
99997.246
99997.333
99997.448
99997.585
99997.739
99997.905
99998.078
99998.255
99998.431
99998.605
99998.775
99998.938
99999.094
99999.242
99999.382
99999.513
99999.636
99999.75
99999.856
99999.954
100000.05
100000.13
100000.21
100000.28
100000.35
100000.41
100000.47
100000.52
100000.57
100000.61
100000.66
100000.7
100000.73
100000.77
100000.8
100000.83
100000.86
100000.89
100000.92
100000.95
100000.97
100001
100001.02
100001.05
100001.07
100001.09
100001.11
99997.115
99996.986
99996.898
99996.874
99996.901
99996.971
99997.079
99997.217
99997.379
99997.557
99997.748
99997.944
99998.143
99998.34
99998.532
99998.719
99998.897
99999.066
99999.226
99999.376
99999.516
99999.645
99999.766
99999.877
99999.98
100000.07
100000.16
100000.24
100000.32
100000.38
100000.45
100000.5
100000.56
100000.61
100000.65
100000.69
100000.73
100000.77
100000.81
100000.84
100000.87
100000.9
100000.93
100000.96
100000.98
100001.01
100001.03
100001.06
100001.08
100001.1
100001.13
100001.15
99996.793
99996.653
99996.562
99996.545
99996.587
99996.677
99996.809
99996.974
99997.163
99997.37
99997.587
99997.809
99998.032
99998.251
99998.463
99998.667
99998.861
99999.044
99999.216
99999.375
99999.524
99999.661
99999.787
99999.903
100000.01
100000.11
100000.2
100000.28
100000.35
100000.42
100000.49
100000.54
100000.6
100000.65
100000.69
100000.73
100000.77
100000.81
100000.85
100000.88
100000.91
100000.94
100000.97
100000.99
100001.02
100001.05
100001.07
100001.09
100001.12
100001.14
100001.16
100001.18
99996.44
99996.288
99996.196
99996.189
99996.249
99996.363
99996.523
99996.718
99996.939
99997.177
99997.424
99997.675
99997.923
99998.165
99998.399
99998.621
99998.831
99999.028
99999.212
99999.381
99999.538
99999.682
99999.814
99999.934
100000.04
100000.14
100000.24
100000.32
100000.39
100000.46
100000.53
100000.59
100000.64
100000.69
100000.73
100000.78
100000.81
100000.85
100000.89
100000.92
100000.95
100000.98
100001
100001.03
100001.06
100001.08
100001.1
100001.13
100001.15
100001.17
100001.19
100001.21
99996.053
99995.889
99995.797
99995.803
99995.885
99996.028
99996.22
99996.451
99996.707
99996.98
99997.26
99997.541
99997.817
99998.085
99998.34
99998.582
99998.809
99999.02
99999.215
99999.394
99999.559
99999.709
99999.846
99999.97
100000.08
100000.19
100000.28
100000.36
100000.44
100000.51
100000.57
100000.63
100000.68
100000.73
100000.78
100000.82
100000.86
100000.89
100000.92
100000.96
100000.99
100001.01
100001.04
100001.07
100001.09
100001.11
100001.14
100001.16
100001.18
100001.2
100001.22
100001.24
99995.629
99995.451
99995.361
99995.385
99995.493
99995.67
99995.901
99996.172
99996.468
99996.78
99997.096
99997.41
99997.716
99998.01
99998.289
99998.55
99998.794
99999.019
99999.226
99999.415
99999.587
99999.744
99999.885
100000.01
100000.13
100000.23
100000.33
100000.41
100000.49
100000.56
100000.62
100000.68
100000.73
100000.77
100000.82
100000.86
100000.9
100000.93
100000.96
100000.99
100001.02
100001.05
100001.08
100001.1
100001.12
100001.15
100001.17
100001.19
100001.21
100001.23
100001.25
100001.27
99995.162
99994.971
99994.886
99994.931
99995.072
99995.289
99995.565
99995.881
99996.223
99996.577
99996.933
99997.283
99997.621
99997.943
99998.246
99998.528
99998.789
99999.028
99999.246
99999.445
99999.624
99999.785
99999.93
100000.06
100000.18
100000.28
100000.38
100000.46
100000.54
100000.6
100000.67
100000.72
100000.77
100000.82
100000.86
100000.9
100000.94
100000.97
100001
100001.03
100001.06
100001.09
100001.11
100001.14
100001.16
100001.18
100001.2
100001.22
100001.24
100001.26
100001.28
100001.3
99994.649
99994.443
99994.366
99994.439
99994.62
99994.885
99995.212
99995.581
99995.973
99996.374
99996.773
99997.162
99997.534
99997.885
99998.213
99998.516
99998.794
99999.047
99999.276
99999.483
99999.668
99999.834
99999.982
100000.11
100000.23
100000.34
100000.43
100000.51
100000.59
100000.66
100000.72
100000.77
100000.82
100000.86
100000.91
100000.94
100000.98
100001.01
100001.04
100001.07
100001.1
100001.12
100001.15
100001.17
100001.19
100001.21
100001.23
100001.25
100001.27
100001.29
100001.31
100001.33
99994.083
99993.862
99993.798
99993.905
99994.135
99994.456
99994.843
99995.271
99995.72
99996.173
99996.619
99997.049
99997.457
99997.839
99998.192
99998.517
99998.811
99999.078
99999.317
99999.531
99999.721
99999.89
100000.04
100000.17
100000.29
100000.4
100000.49
100000.57
100000.64
100000.71
100000.77
100000.82
100000.87
100000.91
100000.95
100000.99
100001.02
100001.05
100001.08
100001.11
100001.13
100001.16
100001.18
100001.2
100001.22
100001.24
100001.26
100001.28
100001.3
100001.32
100001.34
100001.36
99993.457
99993.222
99993.177
99993.327
99993.615
99994.003
99994.459
99994.954
99995.466
99995.976
99996.473
99996.947
99997.393
99997.806
99998.186
99998.531
99998.842
99999.12
99999.369
99999.589
99999.783
99999.955
100000.11
100000.24
100000.35
100000.46
100000.55
100000.63
100000.7
100000.76
100000.82
100000.87
100000.91
100000.96
100000.99
100001.03
100001.06
100001.09
100001.12
100001.14
100001.17
100001.19
100001.21
100001.23
100001.25
100001.27
100001.29
100001.31
100001.33
100001.35
100001.37
100001.38
99992.765
99992.515
99992.496
99992.702
99993.06
99993.526
99994.061
99994.632
99995.213
99995.786
99996.338
99996.859
99997.344
99997.79
99998.195
99998.56
99998.887
99999.177
99999.432
99999.657
99999.854
100000.03
100000.18
100000.31
100000.42
100000.52
100000.61
100000.69
100000.76
100000.82
100000.87
100000.92
100000.96
100001
100001.04
100001.07
100001.1
100001.13
100001.15
100001.18
100001.2
100001.22
100001.24
100001.26
100001.28
100001.3
100001.32
100001.34
100001.36
100001.37
100001.39
100001.41
99991.997
99991.734
99991.751
99992.025
99992.468
99993.026
99993.652
99994.308
99994.967
99995.607
99996.217
99996.788
99997.313
99997.792
99998.223
99998.607
99998.947
99999.247
99999.508
99999.736
99999.934
100000.11
100000.26
100000.38
100000.5
100000.59
100000.68
100000.75
100000.82
100000.87
100000.93
100000.97
100001.01
100001.05
100001.08
100001.11
100001.14
100001.16
100001.19
100001.21
100001.23
100001.25
100001.27
100001.29
100001.31
100001.33
100001.35
100001.36
100001.38
100001.4
100001.42
100001.43
99991.142
99990.868
99990.935
99991.293
99991.839
99992.505
99993.235
99993.987
99994.73
99995.444
99996.116
99996.738
99997.305
99997.815
99998.27
99998.672
99999.025
99999.331
99999.597
99999.826
100000.02
100000.19
100000.34
100000.46
100000.57
100000.67
100000.75
100000.82
100000.88
100000.93
100000.98
100001.02
100001.06
100001.09
100001.12
100001.15
100001.18
100001.2
100001.22
100001.24
100001.27
100001.28
100001.3
100001.32
100001.34
100001.36
100001.37
100001.39
100001.41
99990.189
99989.906
99990.04
99990.504
99991.173
99991.964
99992.813
99993.672
99994.509
99995.302
99996.04
99996.714
99997.322
99997.863
99998.341
99998.758
99999.12
99999.431
99999.698
99999.927
100000.12
100000.29
100000.43
100000.55
100000.65
100000.74
100000.82
100000.88
100000.94
100000.99
100001.03
100001.07
100001.11
100001.14
100001.16
100001.19
100001.21
100001.24
100001.26
100001.28
100001.3
100001.31
100001.33
100001.35
100001.36
100001.38
100001.4
100001.41
100001.43
99989.122
99988.836
99989.06
99989.654
99990.471
99991.408
99992.393
99993.371
99994.31
99995.188
99995.993
99996.72
99997.368
99997.938
99998.435
99998.865
99999.233
99999.546
99999.812
100000.04
100000.23
100000.39
100000.52
100000.64
100000.73
100000.82
100000.89
100000.95
100001
100001.05
100001.08
100001.12
100001.15
100001.18
100001.21
100001.23
100001.25
100001.27
100001.29
100001.31
100001.33
100001.34
100001.36
100001.37
100001.39
100001.4
100001.42
100001.44
100001.45
99987.924
99987.641
99987.985
99988.741
99989.735
99990.843
99991.981
99993.092
99994.142
99995.109
99995.983
99996.762
99997.447
99998.043
99998.556
99998.994
99999.365
99999.677
99999.939
100000.16
100000.34
100000.49
100000.62
100000.73
100000.82
100000.9
100000.96
100001.01
100001.06
100001.1
100001.14
100001.17
100001.2
100001.22
100001.25
100001.27
100001.29
100001.3
100001.32
100001.34
100001.35
100001.37
100001.38
100001.4
100001.41
100001.43
100001.44
100001.46
100001.47
99986.575
99986.303
99986.808
99987.764
99988.969
99990.275
99991.588
99992.847
99994.015
99995.074
99996.018
99996.846
99997.564
99998.181
99998.705
99999.146
99999.515
99999.822
100000.08
100000.29
100000.46
100000.6
100000.72
100000.82
100000.91
100000.97
100001.03
100001.08
100001.12
100001.16
100001.19
100001.22
100001.24
100001.26
100001.28
100001.3
100001.32
100001.34
100001.35
100001.37
100001.38
100001.39
100001.41
100001.42
100001.44
100001.45
100001.46
100001.48
100001.49
99985.051
99984.801
99985.522
99986.722
99988.18
99989.716
99991.227
99992.648
99993.942
99995.095
99996.106
99996.978
99997.723
99998.353
99998.882
99999.322
99999.684
99999.982
100000.23
100000.42
100000.59
100000.72
100000.83
100000.92
100000.99
100001.05
100001.1
100001.14
100001.18
100001.21
100001.24
100001.26
100001.28
100001.3
100001.32
100001.34
100001.35
100001.37
100001.38
100001.39
100001.41
100001.42
100001.43
100001.44
100001.46
100001.47
100001.48
100001.5
100001.51
99983.324
99983.11
99984.118
99985.617
99987.378
99989.181
99990.914
99992.51
99993.937
99995.183
99996.255
99997.164
99997.927
99998.563
99999.089
99999.52
99999.87
100000.15
100000.38
100000.57
100000.72
100000.84
100000.93
100001.01
100001.08
100001.13
100001.17
100001.21
100001.24
100001.27
100001.29
100001.31
100001.33
100001.34
100001.36
100001.37
100001.38
100001.39
100001.41
100001.42
100001.43
100001.44
100001.45
100001.46
100001.48
100001.49
100001.5
100001.51
100001.53
99981.364
99981.199
99982.592
99984.455
99986.577
99988.686
99990.667
99992.45
99994.011
99995.347
99996.474
99997.41
99998.18
99998.81
99999.325
99999.74
100000.07
100000.34
100000.55
100000.72
100000.85
100000.96
100001.04
100001.11
100001.16
100001.21
100001.24
100001.27
100001.3
100001.32
100001.34
100001.35
100001.37
100001.38
100001.39
100001.4
100001.41
100001.42
100001.43
100001.44
100001.45
100001.46
100001.47
100001.48
100001.5
100001.51
100001.52
100001.53
100001.54
99979.136
99979.032
99980.94
99983.244
99985.794
99988.251
99990.503
99992.482
99994.176
99995.595
99996.765
99997.717
99998.482
99999.096
99999.589
99999.981
100000.29
100000.53
100000.72
100000.87
100000.99
100001.08
100001.15
100001.2
100001.25
100001.28
100001.31
100001.33
100001.35
100001.37
100001.38
100001.39
100001.4
100001.41
100001.42
100001.43
100001.44
100001.45
100001.46
100001.47
100001.47
100001.48
100001.49
100001.5
100001.51
100001.52
100001.53
100001.55
100001.56
99976.602
99976.566
99979.163
99981.998
99985.052
99987.899
99990.441
99992.621
99994.441
99995.93
99997.132
99998.086
99998.833
99999.42
99999.88
100000.24
100000.52
100000.74
100000.9
100001.03
100001.12
100001.19
100001.25
100001.3
100001.33
100001.36
100001.38
100001.39
100001.4
100001.41
100001.42
100001.43
100001.44
100001.45
100001.45
100001.46
100001.47
100001.47
100001.48
100001.49
100001.49
100001.5
100001.51
100001.52
100001.53
100001.54
100001.55
100001.56
100001.57
99973.725
99973.752
99977.269
99980.735
99984.376
99987.655
99990.503
99992.881
99994.815
99996.358
99997.574
99998.515
99999.231
99999.778
100000.2
100000.51
100000.76
100000.95
100001.08
100001.18
100001.26
100001.31
100001.36
100001.39
100001.41
100001.43
100001.44
100001.45
100001.45
100001.46
100001.46
100001.47
100001.47
100001.48
100001.48
100001.48
100001.49
100001.49
100001.5
100001.51
100001.51
100001.52
100001.53
100001.54
100001.54
100001.55
100001.56
100001.57
100001.58
99970.469
99970.528
99975.27
99979.479
99983.797
99987.546
99990.709
99993.275
99995.305
99996.881
99998.091
99999.002
99999.67
100000.17
100000.53
100000.8
100001.01
100001.16
100001.26
100001.33
100001.39
100001.43
100001.46
100001.48
100001.49
100001.49
100001.5
100001.5
100001.5
100001.5
100001.5
100001.5
100001.5
100001.51
100001.51
100001.51
100001.51
100001.52
100001.52
100001.52
100001.53
100001.54
100001.54
100001.55
100001.56
100001.57
100001.58
100001.58
100001.59
99966.803
99966.826
99973.192
99978.263
99983.353
99987.604
99991.081
99993.816
99995.914
99997.496
99998.68
99999.542
100000.14
100000.58
100000.88
100001.1
100001.26
100001.37
100001.44
100001.49
100001.52
100001.54
100001.56
100001.56
100001.56
100001.56
100001.56
100001.55
100001.55
100001.54
100001.54
100001.54
100001.53
100001.53
100001.53
100001.53
100001.53
100001.54
100001.54
100001.54
100001.55
100001.55
100001.56
100001.56
100001.57
100001.58
100001.59
100001.6
100001.61
99962.709
99962.563
99971.068
99977.132
99983.091
99987.864
99991.641
99994.513
99996.644
99998.201
99999.334
100000.13
100000.65
100001.01
100001.25
100001.4
100001.5
100001.57
100001.61
100001.64
100001.65
100001.65
100001.65
100001.64
100001.63
100001.62
100001.61
100001.6
100001.59
100001.58
100001.57
100001.57
100001.56
100001.56
100001.55
100001.55
100001.55
100001.55
100001.55
100001.56
100001.56
100001.57
100001.57
100001.58
99958.18
99957.642
99968.948
99976.145
99983.063
99988.361
99992.405
99995.37
99997.492
99998.987
100000.04
100000.75
100001.17
100001.45
100001.61
100001.7
100001.74
100001.77
100001.78
100001.78
100001.77
100001.76
100001.74
100001.72
100001.7
100001.68
100001.66
100001.64
100001.63
100001.62
100001.6
100001.6
100001.59
100001.58
100001.58
100001.57
100001.57
100001.57
100001.57
100001.57
100001.57
100001.58
100001.58
100001.59
99953.194
99951.946
99966.903
99975.381
99983.33
99989.132
99993.388
99996.388
99998.448
99999.842
100000.8
100001.41
100001.71
100001.89
100001.98
100001.98
100001.98
100001.97
100001.95
100001.92
100001.89
100001.85
100001.82
100001.79
100001.76
100001.73
100001.71
100001.69
100001.67
100001.65
100001.63
100001.62
100001.61
100001.6
100001.6
100001.59
100001.59
100001.58
100001.58
100001.58
100001.59
100001.59
100001.59
100001.6
99947.717
99945.374
99965.037
99974.947
99983.96
99990.206
99994.595
99997.56
99999.497
100000.75
100001.59
100002.08
100002.25
100002.33
100002.32
100002.26
100002.21
100002.16
100002.11
100002.05
100002
100001.95
100001.9
100001.86
100001.82
100001.78
100001.75
100001.72
100001.7
100001.68
100001.66
100001.64
100001.63
100001.62
100001.61
100001.61
100001.6
100001.6
100001.6
100001.6
100001.6
100001.6
100001.6
100001.61
99942.021
99937.943
99963.496
99974.972
99985.017
99991.605
99996.024
99998.87
100000.62
100001.69
100002.4
100002.76
100002.8
100002.75
100002.65
100002.53
100002.44
100002.34
100002.26
100002.17
100002.1
100002.03
100001.97
100001.92
100001.87
100001.83
100001.79
100001.76
100001.73
100001.7
100001.68
100001.67
100001.65
100001.64
100001.63
100001.62
100001.61
100001.61
100001.61
100001.61
100001.61
100001.61
100001.61
100001.62
99937.251
99929.806
99962.424
99975.596
99986.558
99993.337
99997.656
100000.29
100001.8
100002.63
100003.2
100003.45
100003.32
100003.14
100002.96
100002.79
100002.65
100002.51
100002.39
100002.29
100002.19
100002.11
100002.04
100001.97
100001.92
100001.87
100001.82
100001.79
100001.76
100001.73
100001.7
100001.68
100001.67
100001.65
100001.64
100001.63
100001.63
100001.62
100001.62
100001.62
100001.62
100001.62
100001.62
100001.62
99932.72
99920.607
99961.931
99976.977
99988.621
99995.383
99999.455
100001.79
100003.02
100003.55
100003.98
100004.13
100003.8
100003.5
100003.26
100003.04
100002.84
100002.67
100002.52
100002.39
100002.28
100002.18
100002.09
100002.02
100001.96
100001.9
100001.86
100001.82
100001.78
100001.75
100001.72
100001.7
100001.68
100001.67
100001.66
100001.65
100001.64
100001.63
100001.63
100001.63
100001.62
100001.62
100001.63
100001.63
99912.44
99908.63
99962.38
99979.367
99991.245
99997.695
100001.38
100003.34
100004.21
100004.42
100004.77
100004.79
100004.22
100003.84
100003.54
100003.26
100003.01
100002.81
100002.63
100002.48
100002.35
100002.24
100002.15
100002.07
100002
100001.94
100001.88
100001.84
100001.8
100001.77
100001.74
100001.72
100001.7
100001.68
100001.67
100001.66
100001.65
100001.64
100001.64
100001.63
100001.63
100001.63
100001.63
100001.64
99836.571
99895.313
99965.191
99983.127
99994.492
100000.25
100003.36
100004.88
100005.34
100005.25
100005.53
100005.4
100004.59
100004.17
100003.8
100003.46
100003.17
100002.93
100002.73
100002.56
100002.42
100002.3
100002.19
100002.1
100002.03
100001.96
100001.91
100001.86
100001.82