/*--------------------------------*- C++ -*----------------------------------*\
| =========                 |                                                 |
| \\      /  F ield         | OpenFOAM: The Open Source CFD Toolbox           |
|  \\    /   O peration     | Version:  2312                                  |
|   \\  /    A nd           | Website:  www.openfoam.com                      |
|    \\/     M anipulation  |                                                 |
\*---------------------------------------------------------------------------*/
FoamFile
{
    version     2.0;
    format      ascii;
    arch        "LSB;label=32;scalar=64";
    class       volScalarField;
    location    "0.09";
    object      Qdot;
}
// * * * * * * * * * * * * * * * * * * * * * * * * * * * * * * * * * * * * * //

dimensions      [1 -1 -3 0 0 0 0];

internalField   nonuniform List<scalar> 
3221
(
1.314628e-05
4.9889418e-05
0.00010521761
0.0001874961
0.00030840362
0.00048485257
0.00074058229
0.0011089421
0.0016383999
0.0023938499
0.0034674656
0.0049879811
0.0071311637
0.010141685
0.014350006
0.020207961
0.028319491
0.039499226
0.054834326
0.07574555
0.10411569
0.14237206
0.19366657
0.26201387
0.35251582
0.47158192
0.62720816
0.82925932
1.0898022
1.4234614
1.8477894
2.3836295
3.0555126
3.8919969
4.925985
6.1949852
7.7412965
9.6120695
11.859283
14.539512
17.713606
21.446123
25.804598
30.858629
36.678732
43.335036
50.895838
59.425964
68.985112
79.626174
91.393638
104.3223
1.333219e-05
5.0665659e-05
0.00010714954
0.00019143583
0.00031565875
0.00049751373
0.00076207941
0.0011443451
0.0016940422
0.0024817334
0.0036039194
0.0051966968
0.0074484161
0.010616741
0.015055697
0.021244563
0.029833682
0.041693931
0.057983608
0.080237633
0.11046886
0.15129333
0.20609176
0.27919463
0.37608822
0.50367895
0.67057672
0.88740805
1.1671689
1.5256137
1.9816239
2.557638
3.2800346
4.1794854
5.2913217
6.6557692
8.3181332
10.32885
12.743433
15.622226
19.029988
23.035286
27.709689
33.126737
39.360721
46.485234
54.57162
63.687174
73.893286
85.243529
97.782058
111.54511
1.3652022e-05
5.2223175e-05
0.0001108718
0.00019931375
0.00033015944
0.00052289275
0.00080486296
0.0012145575
0.0018074992
0.0026599156
0.0038812024
0.0056233581
0.0080959247
0.011590204
0.016506595
0.023387161
0.032969249
0.04624612
0.064540622
0.089603628
0.12374439
0.16996387
0.23214525
0.31526399
0.42564
0.57121845
0.76190706
1.0099457
1.330292
1.7410603
2.2639514
2.9247246
3.7536111
4.7857306
6.0614326
7.6265682
9.5326571
11.836895
14.602045
17.896084
21.791704
26.365541
31.697202
37.868039
44.959724
53.052592
62.22378
72.545276
84.081791
96.88867
111.01027
126.48194
1.4166457e-05
5.4554987e-05
0.00011668973
0.00021094707
0.00035234551
0.00056168721
0.00087098265
0.0013239301
0.001984517
0.0029407652
0.0043212598
0.0063026144
0.0091334132
0.013157264
0.018851445
0.026864371
0.03808169
0.053697622
0.075309249
0.10504564
0.14570162
0.20093451
0.27547412
0.37539798
0.50841221
0.6842348
0.91496988
1.215564
1.6042709
2.1031813
2.7387136
3.5421668
4.5501895
5.8052508
7.3559995
9.257521
11.571473
14.366032
17.715626
21.700469
26.405823
31.920994
38.338073
45.750389
54.250722
63.929295
74.871564
87.155842
100.85091
116.01356
132.68691
150.90297
1.4833684e-05
5.7651514e-05
0.00012439005
0.00022698575
0.00038250672
0.00061634729
0.00096457068
0.0014793821
0.0022374765
0.0033470126
0.0049606855
0.007297429
0.01066382
0.015487242
0.02235964
0.032100366
0.045823124
0.065044164
0.091795787
0.12879169
0.17961267
0.24895167
0.34288995
0.46924021
0.63794436
0.86151116
1.1555356
1.5392528
2.0361289
2.6744955
3.4881896
4.5171513
5.8080226
7.41464
9.3984012
11.828494
14.781958
18.343457
22.604811
27.664266
33.625393
40.595693
48.684891
58.002893
68.657461
80.751691
94.381241
109.63148
126.57458
145.26676
165.74629
188.03718
1.5648525e-05
6.1510303e-05
0.00013420844
0.00024771642
0.00042269192
0.0006883687
0.0010898305
0.0016918022
0.0025859459
0.0039117364
0.0058607737
0.0087120247
0.012858631
0.018854859
0.027476562
0.039792619
0.05728176
0.081948409
0.11650807
0.16458798
0.23100143
0.32205543
0.44595461
0.61324262
0.8373469
1.1351587
1.5277144
2.0409373
2.706376
3.5620345
4.6531374
6.0328713
7.7630762
9.9147298
12.568353
15.814092
19.751596
24.489514
30.144677
36.840867
44.707194
53.876059
64.480765
76.652712
90.518369
106.19594
123.79189
143.39745
165.08509
188.90528
214.88445
243.03009
1.662485e-05
6.6290051e-05
0.00014665447
0.00027412079
0.00047387987
0.00078310729
0.0012562854
0.0019758141
0.0030614845
0.0046895369
0.0071134929
0.010702576
0.015982082
0.023698217
0.034901957
0.051060994
0.074202875
0.10710792
0.15355012
0.21859532
0.308984
0.4335824
0.60392201
0.8348615
1.1452918
1.5589918
2.1055225
2.8212212
3.7501987
4.9453828
6.4694794
8.3958569
10.809305
13.806525
17.49637
21.999714
27.448954
33.987005
41.765825
50.944451
61.686454
74.157004
88.519389
104.9312
123.54023
144.48013
167.86604
193.79021
222.31788
253.48354
287.28896
323.71059
1.7787935e-05
7.1983127e-05
0.00016180135
0.00030734873
0.00053957763
0.00090543764
0.001475031
0.0023550091
0.0037051836
0.005758724
0.0088594819
0.013512212
0.020443957
0.030695585
0.045748904
0.067683978
0.099399981
0.1448989
0.20962687
0.30094166
0.42865305
0.60569621
0.84892533
1.1800456
1.6266637
2.2234543
3.0134459
4.0493346
5.3948508
7.1260677
9.3325943
12.118595
15.603497
19.922389
25.225889
31.679538
39.462568
48.766019
59.7902
72.74145
87.828321
105.25711
125.22699
147.92467
173.51895
202.15508
233.94929
268.98358
307.30089
348.90118
393.73968
441.73817
1.913e-05
7.8766077e-05
0.00018005922
0.00034858932
0.00062271011
0.0010634572
0.0017627996
0.002864366
0.0045806206
0.0072360565
0.011309355
0.017512489
0.026881898
0.040921534
0.061786612
0.09253522
0.13745648
0.20250249
0.29583052
0.42848958
0.61526079
0.8756676
1.2351788
1.7265631
2.391452
3.2820178
4.4627589
6.0123251
8.025306
10.613885
13.909217
18.06247
23.245326
29.649919
37.487993
46.989275
58.398973
71.974356
87.980454
106.68493
128.35217
153.23682
181.57684
213.58631
249.4482
289.30737
333.26391
381.36719
433.61069
489.9282
550.1932
614.2358
2.0659273e-05
8.6826391e-05
0.00020252909
0.00039944951
0.00072782611
0.001268037
0.0021427258
0.0035486197
0.0057818591
0.0092990837
0.014787496
0.023279167
0.036300488
0.056088638
0.085878914
0.13030892
0.19592635
0.29188132
0.43076178
0.62970307
0.91166753
1.3070325
1.8554044
2.6077028
3.6284453
4.9981788
6.8160196
9.2020919
12.299846
16.277994
21.331945
27.684524
35.585862
45.312218
57.163714
71.460804
88.539561
108.74569
132.42751
159.9279
191.57548
227.67537
268.49962
314.27777
365.18771
421.34733
482.80702
549.54348
621.45493
698.35829
779.99094
866.03631
2.2473442e-05
9.627171e-05
0.0002293257
0.00046257148
0.00086168594
0.0015339733
0.0026489727
0.0044794174
0.0074480117
0.012215198
0.019791944
0.031719845
0.050306399
0.078970671
0.12272347
0.18879645
0.28748745
0.43326145
0.64613398
0.95340796
1.3917583
2.0097073
2.8704564
4.0550432
5.6657657
7.8296803
10.702099
14.469814
19.353853
25.611478
33.537181
43.46243
55.753946
70.810325
89.056976
110.93932
136.91429
167.44039
202.96649
243.91966
290.69253
343.6304
403.01882
469.07171
541.92072
621.6061
708.0693
801.14767
900.57144
1005.9635
1116.8456
1232.6763
2.4425946e-05
0.00010719605
0.0002619587
0.00054132213
0.001033297
0.0018835189
0.0033297981
0.0057595089
0.0097893201
0.016396223
0.02710869
0.04428217
0.071501765
0.11414462
0.18016923
0.28116648
0.43376843
0.66146496
0.99689942
1.4847
2.1848582
3.1766779
4.5632094
6.4760678
9.0804659
12.580176
17.222187
23.300625
31.159545
41.194306
53.851008
69.623771
89.049661
112.70109
141.17579
175.0844
215.0362
261.62304
315.40243
376.8799
446.49167
524.58803
611.41799
707.11589
811.69043
925.01627
1046.8288
1176.7218
1314.1486
1458.4271
1608.7525
1764.2546
2.6655332e-05
0.00012010169
0.00030158035
0.00064011414
0.0012546404
0.0023470386
0.0042557264
0.0075440636
0.013128934
0.022491743
0.037993203
0.063329288
0.10420666
0.16929471
0.27156011
0.43005718
0.67231586
1.0374218
1.5798527
2.3741867
3.5206427
5.1513824
7.4374573
10.596064
14.897798
20.673412
28.319462
38.302343
51.160034
67.500985
87.999738
113.38902
144.44807
181.98757
226.83118
279.79454
341.66211
413.16308
494.94684
587.55926
691.42063
806.80592
933.8283
1072.4263
1222.3554
1383.1833
1554.2902
1734.8737
1923.9567
2120.4014
2322.9328
2530.2212
2.9197635e-05
0.0001353308
0.00035016995
0.00076451387
0.0015423473
0.0029674659
0.0055316044
0.010066931
0.017967763
0.031533378
0.054489527
0.092772558
0.15568574
0.25754977
0.419995
0.675089
1.0694492
1.6695289
2.5681519
3.8923911
5.8126391
8.5527018
12.400489
17.718702
24.954816
34.649397
47.441894
64.072881
85.38197
112.30054
145.83916
187.06949
237.10103
297.05333
368.0246
451.05797
547.10673
657.00011
781.41076
920.82561
1075.5209
1245.5427
1430.6926
1630.5208
1844.3244
2071.1525
2309.8171
2558.9092
2816.8196
3081.7649
3351.8266
3625.0674
3.1961333e-05
0.0001533958
0.00040934066
0.00092330378
0.0019206284
0.0038102051
0.0073130502
0.013691546
0.025106137
0.045193958
0.079972999
0.13920196
0.23840298
0.40175704
0.66618289
1.0868145
1.7442461
2.7536917
4.276199
6.5318313
9.8145316
14.507986
21.101674
30.205826
42.563882
59.060937
80.726624
108.73118
144.37352
189.06083
244.28003
311.56161
392.43698
488.39126
600.81341
730.94609
879.83736
1048.2966
1236.8565
1445.7419
1674.8484
1923.7289
2191.5903
2477.2989
2779.3949
3096.1137
3425.4151
3765.0169
4112.4329
4465.0172
4820.0189
5174.7467
3.5180589e-05
0.00017455688
0.00048237979
0.0011260489
0.0024235755
0.0049681984
0.0098419141
0.018989112
0.035822397
0.066233614
0.12014852
0.21396281
0.37414086
0.64242996
1.0831434
1.7930103
2.9139776
4.6492651
7.2825839
11.200164
16.914651
25.089447
36.56152
52.3604
73.720768
102.08622
139.10203
186.59555
246.54306
321.02398
412.16404
522.06932
652.75441
806.06828
983.62146
1186.7183
1416.2972
1672.8824
1956.5471
2266.8922
2603.0379
2963.6298
3346.8579
3750.4871
4171.8977
4608.1334
5055.9557
5511.9023
5972.345
6433.5569
6891.788
7343.4811
3.8764768e-05
0.00019995555
0.00057365876
0.0013897919
0.0031015668
0.0065842486
0.013488484
0.026867404
0.052230509
0.099298863
0.18481519
0.33691955
0.60169133
1.0526798
1.8041492
3.0288908
4.9810995
8.0244893
12.665117
19.587642
29.692708
44.13229
64.339206
92.046406
129.29203
178.40677
241.98119
322.81214
423.82857
548.00126
698.24001
877.28354
1087.5886
1331.2241
1609.7765
1924.27
2275.107
2662.0288
3084.0992
3539.7099
4026.6053
4541.9266
5082.2698
5643.7565
6222.1127
6812.7523
7410.8648
8011.4996
8609.654
9200.353
9778.75
10340.395
4.2869377e-05
0.0002302993
0.00068816699
0.0017353139
0.0040265723
0.0088743954
0.018840366
0.038810835
0.077852028
0.15235419
0.29114991
0.54353686
0.9914078
1.7668371
3.0765127
5.2341503
8.7014635
14.137214
22.452489
34.868744
52.973378
78.766458
114.69124
163.64162
228.94057
314.28603
423.6635
561.22626
731.15018
937.47226
1183.9211
1473.75
1809.5838
2193.2865
2625.8582
3107.3652
3636.9054
4212.6082
4831.6677
5490.4047
6184.3528
6908.3628
7656.7206
8423.2732
9201.5571
9984.918
10766.644
11540.071
12298.692
13036.243
13746.821
14425.219
4.7432703e-05
0.00026690413
0.00083284745
0.0021935609
0.0053072583
0.012172875
0.02683892
0.057275435
0.11870698
0.23934229
0.4698524
0.89837733
1.6732603
3.0359813
5.3664917
9.2424667
15.512385
25.380056
40.49534
63.042675
95.816512
142.27126
206.53361
293.3671
408.08312
556.39757
744.23722
977.50521
1261.8251
1602.2786
2003.1539
2467.7232
2998.0612
3594.9156
4257.6338
4984.1477
5771.012
6613.4915
7505.6881
8440.699
9410.7955
10407.614
11422.348
12445.943
13469.266
14483.287
15479.219
16448.649
17383.64
18276.83
19121.544
19912.183
5.2716369e-05
0.00031087706
0.0010181625
0.0028091192
0.0071059024
0.017007758
0.039026822
0.086418606
0.18526452
0.38512894
0.77687601
1.5211655
2.8916392
5.3371129
9.566084
16.654806
28.176279
46.342569
74.147184
115.48913
175.25728
259.35339
374.63631
528.77687
730.02291
986.88442
1307.7547
1700.501
2172.0562
2728.0392
3372.4317
4107.3339
4932.8102
5846.8303
6845.3029
7922.1922
9069.704
10278.525
11538.099
12836.923
14162.847
15503.364
16845.886
18177.998
19487.673
20763.476
21994.686
23171.433
24284.787
25326.823
26290.706
27171.137
5.8642234e-05
0.00036443889
0.0012577715
0.0036471634
0.0096786825
0.024229435
0.057974373
0.13340798
0.29613116
0.6349951
1.3162094
2.6380982
5.1140095
9.5904395
17.404575
30.579702
52.048312
85.882433
137.50064
213.81444
323.27576
475.79326
682.49884
955.3637
1306.6836
1748.4656
2291.7695
2946.0682
3718.6717
4614.2617
5634.5679
6778.2027
8040.6536
9414.4235
10889.294
12452.687
14090.092
15785.53
17522.03
19282.089
21048.106
22802.742
24529.308
26212.007
27836.17
29388.404
30856.722
32230.608
33501.057
34660.574
35703.204
36625.031
6.5341299e-05
0.00043046356
0.0015707553
0.0048060184
0.013418271
0.035226698
0.088063833
0.21087843
0.4850489
1.0730939
2.2848985
4.6842126
9.2489765
17.596132
32.273528
57.10742
97.575363
161.15484
257.58304
398.95865
599.626
875.80573
1244.9704
1725.0012
2333.1898
3085.1754
3993.934
5068.9013
6315.3035
7733.7438
9320.0597
11065.443
12956.789
14977.227
17106.784
19323.12
21602.288
23919.476
26249.702
28568.428
30852.063
33078.449
35227.179
37279.8
39219.991
41033.642
42708.869
44235.991
45607.45
46817.729
47863.272
48743.096
7.3145216e-05
0.00051254099
0.0019853013
0.0064327442
0.018958251
0.052322667
0.13691365
0.34156387
0.81452009
1.8589884
4.0634117
8.5106209
17.08907
32.919469
60.888645
108.25001
185.21243
305.40728
486.10856
748.09362
1115.0732
1612.6832
2267.103
3103.4219
4143.9153
5406.4321
6903.0527
8639.1301
10612.784
12814.861
15229.321
17833.983
20601.527
23500.662
26497.359
29556.067
32640.854
35716.411
38748.903
41706.66
44560.718
47285.227
49857.563
52258.477
54472.08
56485.748
58289.965
59878.148
61246.365
62393.235
63319.492
64029.374
8.2029427e-05
0.00061492531
0.0025420551
0.0087550549
0.027322954
0.079478815
0.21806502
0.56729541
1.402806
3.3013344
7.3998868
15.809194
32.218039
62.695498
116.64518
207.79553
355.04231
582.91914
921.48134
1405.4574
2072.6393
2961.6212
4109.1148
5547.1319
7300.3918
9384.2473
11803.312
14550.887
17609.182
20950.234
24537.362
28326.993
32270.662
36317.032
40413.808
44509.437
48554.544
52503.051
56313.071
59947.502
63374.355
66566.82
69503.236
72166.884
74545.685
76631.86
78421.457
79914.121
81112.228
82021.509
82648.374
83006.084
9.2495859e-05
0.00074467502
0.0032982896
0.012130933
0.040222596
0.12361175
0.35613239
0.96673613
2.4784499
6.0089739
13.791026
29.992425
61.883524
121.32013
226.38681
402.90739
685.42753
1117.2604
1749.2919
2637.4544
3839.0403
5408.2712
7391.6587
9823.7913
12724.091
16094.841
19920.621
24169.101
28792.949
33732.566
38919.299
44278.807
49734.317
55209.563
60631.285
65931.212
71047.466
75925.634
80519.312
84790.206
88707.974
92249.896
95400.404
98150.327
100496.15
102439.53
103985.97
105145.63
105929.35
106355.7
106432.84
106196.6
0.00010437953
0.00091038322
0.0043446094
0.017132829
0.060552615
0.19705093
0.59689363
1.6911742
4.4924561
11.205615
26.279528
58.032179
120.87999
238.00186
444.00351
786.90831
1328.706
2143.8261
3315.2728
4928.6614
7064.8849
9792.4151
13160.371
17193.362
21888.624
27215.647
33118.097
39517.554
46318.478
53413.76
60690.299
68034.166
75335.056
82489.859
89405.307
95999.619
102203.63
107961.09
113228.22
117973.09
122174.76
125822.07
128912.89
131452.32
133451.22
134926.79
135897.16
136390.93
136422.4
136042.3
135245.26
134107.62
0.000118271
0.0011231844
0.0058126442
0.02469579
0.093347286
0.32233297
1.0275337
3.0381999
8.3532597
21.394937
51.14135
114.32697
239.6136
472.16385
877.53264
1543.4705
2578.3349
4105.409
6253.3776
9144.1925
12880.186
17532.516
23132.784
29668.81
37084.785
45285.347
54142.618
63505.026
73206.768
83076.941
92947.633
102660.55
112071.98
121056.16
129506.99
137338.93
144486.63
150903.5
156560.19
161442.54
165549.97
168892.51
171491.14
173373.55
174570.14
175124.28
175060.61
174454.13
173293.33
171695.69
169622.94
167199.33
0.00013473622
0.0014028447
0.0079133148
0.036383061
0.14755731
0.54165242
1.8180902
5.6063676
15.92723
41.784641
101.48614
228.86408
480.82617
944.64463
1742.5307
3030.8845
4992.4781
7821.5628
11703.87
16794.89
23200.32
30962.106
40051.977
50372.745
61766.35
74026.742
86915.353
100177.07
113555.05
126803.28
139696.24
152035.65
163654.4
174417.84
184223.88
193001.34
200706.7
207320.63
212845.06
217298.35
220714.82
223135.29
224616.83
225220.46
224991.65
224038.48
222341.24
220082.02
217195.06
213867.33
210022.55
205804.37
0.00015412019
0.0017738791
0.010975317
0.054866101
0.23949589
0.93602995
3.3083327
10.626353
31.121599
83.368985
204.98484
464.45218
974.0926
1900.2202
3465.4852
5939.3441
9615.5604
14779.564
21671.687
30453.561
41184.264
53809.872
68166.914
83997.562
100972.8
118719.3
136846.24
154969.23
172729.53
189808.05
205934.05
220889.16
234507.31
246672.7
257315.78
266406.98
273950.77
279978.16
284544.42
287715.81
289582.81
290217.66
289734.46
288260.44
285789.04
282580.9
278537.37
273938.01
268666.26
262933.32
256763.8
250243.46
0.00017711161
0.002272475
0.015531676
0.084830164
0.39971282
1.6651276
6.1938951
20.68321
62.260385
169.65927
420.5018
952.98659
1986.3219
3830.9977
6880.0402
11576.907
18363.209
27616.485
39591.713
54379.325
71887.232
91847.844
113845.86
137359.42
161806.63
186590.41
211136.98
234925.25
257506.53
278515.05
297671.02
314777.47
329713.12
342425.57
352917.55
361238.16
367474.12
371731.5
374149.52
374845.33
373990.67
371759.86
368183.07
363620.72
357944.73
351553.75
344285.37
336445.5
328062.93
319259.22
310107.98
300690.74
0.00020473336
0.0029554114
0.0224638
0.13470105
0.6869566
3.0520535
11.933814
41.319337
127.35992
351.46499
873.86901
1971.2174
4063.8765
7715.1448
13589.863
22373.379
34667.007
50885.227
71179.812
95406.653
123137.93
153711.59
186303.97
220010.02
253918.57
287174.2
319021.89
348833.64
376121.99
400536.63
421856.23
439974.39
454881.22
466644.06
475390.5
481291.62
484561.18
485391.17
484042.58
480765.37
475637.95
469159.31
461188.15
452273.92
442214.49
431434.14
419978.07
408021.04
395662.4
383013.44
370163.99
357198.84
0.00023797438
0.0039057397
0.033267932
0.22006838
1.2174766
5.7685242
23.662045
84.648711
265.95448
739.44041
1834.4851
4097.2233
8313.8299
15467.4
26619.202
42736.147
64509.571
92215.029
125647.16
164137.4
206640.08
251859.56
298388.98
344837
389927.18
432567.7
471884.68
507234.29
538193.15
564534.64
586199.99
603272.9
615936.65
624449.32
629123.2
630287.6
628333.34
623649.96
616394.42
607234.45
596071.75
583606.37
569647.39
554755.32
539021.58
522691.36
505903.67
488814.63
471545.93
454208.52
436895.83
419691.05
0.00027906586
0.0052533997
0.050543842
0.37061845
2.2281762
11.249596
48.26773
177.6199
565.78064
1575.6707
3877.884
8528.3042
16947.635
30763.917
51537.353
80442.865
118007.27
163975.4
217328.24
276428.95
339244.43
403585.22
467322.57
528548.52
585680.45
637507.28
683192.23
722245.25
754476.89
779940.12
798878.13
811689.16
818841.72
820857.3
818304.49
811733.01
801608.25
788737.04
773195.79
755740.65
736357.36
715704.71
694003.85
671588.77
648661.71
625441.96
602096.82
578777.36
555607.35
532691.73
510117.07
487956.92
0.00032954972
0.0072070542
0.078959058
0.64469179
4.2167958
22.645935
101.23348
381.12488
1223.1848
3390.3012
8226.1014
17713.052
34302.004
60499.122
98320.693
148798.61
211697.96
285512.97
367705.82
455092.78
544260.95
631936.95
715255.48
791917.62
860248.75
919180.19
968183.85
1007183.9
1036457.5
1056543
1068132.3
1072094.4
1069265.9
1060568.3
1046721.1
1028435.6
1006986.6
982574.91
955702.25
926967
896933.77
866025.9
834556.26
802834.24
771094.49
739544.79
708350.86
677650.13
647552.22
618144.54
589495.27
561657.89
0.00039253057
0.010102714
0.12713351
1.1607339
8.2623745
47.064579
218.08284
834.56824
2679.7802
7340.8627
17447.035
36574.488
68690.151
117251.82
184286.71
269791.63
371635.94
485932.99
607705.19
731614.53
852601.57
966333.98
1069451.9
1159638.6
1235559.6
1296720.9
1343298.2
1375970.8
1395774.4
1403965.7
1401781.8
1390891.3
1372376.8
1347213.1
1317426.5
1283179.4
1246091.5
1205976.6
1164301.3
1121504.7
1078107.3
1034542.2
991148.17
948214.99
905968.35
864590.33
824220.8
784966.22
746904.36
710090.15
674560.6
640336.54
0.00047179932
0.014507568
0.21154071
2.1677351
16.780548
100.96779
481.87216
1860.3479
5930.0258
15936.411
36856.761
74799.814
135622.31
223258.23
338458.22
478406.97
637253.92
807234.55
979967.33
1147574.7
1303450.3
1442644
1561934
1659691.2
1735606.5
1790364.8
1825335.1
1842348
1843515.8
1831150.6
1806897.4
1773087.7
1732202.8
1684483.7
1632790.8
1576916.7
1518953.6
1459448.3
1399334.4
1339197.6
1279543.4
1220779.6
1163219.9
1107109.2
1052628.2
999907.56
949035.05
900064.03
853020.01
807907.66
764720.4
723430.96
0.00057391781
0.021395741
0.364806
4.2085461
35.358702
223.4744
1090.0186
4209.0316
13206.54
34551.218
77246.735
150959.51
263141.69
416452.76
607622.77
828059.43
1065713.4
1307367.8
1540646
1755360.2
1944141.3
2102486.4
2228441.7
2322138.7
2385222.1
2420288.8
2430409.6
2418938.3
2389788.9
2345530.9
2288520.3
2223620.1
2151492.9
2073953.6
1992763
1909735.6
1826103.2
1742657
1660192.9
1579286.5
1500383.1
1423816.4
1349823
1278563.4
1210134.7
1144583.6
1081916.4
1022108
965108.69
910851.28
859279.05
810293.34
0.00070705728
0.032507864
0.65410957
8.5130269
77.353332
509.81099
2518.1687
9632.5943
29483.313
74504.931
159993.44
299574.54
500171.92
759043.45
1064073.8
1396730
1736100.7
2062543.3
2360122.9
2617699.6
2828931.7
2991599.2
3106650
3177376.7
3208471.2
3205224.6
3173162.5
3116679.6
3041356.8
2952835.3
2851576.6
2744484.8
2630827.4
2514644.6
2397596.2
2281166.4
2166512
2054433.6
1945584.1
1840423.3
1739265.2
1642306.7
1549649.7
1461322.4
1377294.9
1297493.4
1221810.9
1150116.3
1082260.2
0.00088387266
0.051059272
1.2237099
17.981719
175.75913
1196.9757
5923.8808
22212.715
65701.776
159122.69
326210.3
582579.82
928716.55
1348691.8
1814455.5
2292881
2752474.1
3167906
3521988.8
3805615.5
4016474.1
4157233.7
4233705.2
4253941
4226889
4161647.2
4064483.8
3942488.6
3805409.6
3655670.4
3497256.6
3333906.1
3169450.8
3006162.9
2845715.8
2689425.4
2538250.4
2392820.9
2253561.6
2120712.7
1994371.4
1874525.3
1761078
1653871.3
1552702.3
1457337.2
1367522.1
1282991.7
1203477.8
0.0011237216
0.083251264
2.397792
39.74791
414.76003
2886.432
14140.887
51393.007
145499.02
335174.87
652282.13
1106721.6
1680239.7
2331559.8
3008344.7
3659621.1
4244435.4
4735635.3
5119741.9
5394563.5
5565977.8
5644723.4
5643264.7
5576808.7
5458138.8
5299155.2
5111999.3
4903230.3
4683035.9
4453501.3
4221456
3991085.4
3765180.1
3545778
3334287.6
3131673.9
2938530.9
2755145.3
2581591.4
2417777.7
2263490.4
2118427.7
1982227.1
1854487.3
1734783.8
1622682.6
1517748.6
1419553.9
1327685.4
0.0014558165
0.14157686
4.9415927
92.132064
1015.9521
7129.5054
34113.849
118752.86
318741.66
693418.58
1274601.4
2047861.7
2955375
3915199.2
4844233.7
5675116.4
6363841.7
6889713.2
7250941.8
7458818.2
7532272.2
7493580.5
7363867.4
7163002.4
6911225.6
6628748.4
6317473
5997878.1
5668833.8
5342259.8
5022169.4
4711926.8
4413825.5
4129341.3
3859313.8
3604124.3
3363803.3
3138115.3
2926643.7
2728845.6
2544096
2371720.5
2211021.4
2061295.8
1921850.1
1792009.3
1671124
1558575.3
1453780.9
0.0019297613
0.25252933
10.760044
224.3295
2580.0204
17976.001
82788.511
272706.9
687558.63
1403338.1
2425957.6
3681503.9
5044063.5
6377684.5
7569782.3
8547127.8
9276569.5
9757066.7
10009019
10064539
9961305.2
9735455.2
9410046.2
9020707
8595363.4
8144918.3
7681379.7
7215436.1
6758620.5
6316695
5893154.5
5490352.4
5109605.1
4751436.6
4415786.1
4102186.6
3809887
3537944.8
3285303.3
3050845.5
2833433.9
2631938.4
2445257.2
2272329.8
2112146.5
1963753.5
1826255.1
1698815.1
1580659.9
0.0026265921
0.4755268
24.875088
574.55228
6779.2476
46073.262
201087.9
619232.47
1453774
2767725.7
4483951.8
6415620
8340517
10067958
11472976
12500043
13148995
13455502
13473478
13264707
12885022
12381221
11787807
11157451
10503184
9840862.3
9184972.6
8550317.1
7943223.6
7367758.6
6825943.4
6318543
5845377.8
5405594.1
4997881.5
4620645.1
4272126.1
3950489.4
3653889
3380512.6
3128612
2896521.5
2682670.1
2485586.9
2303903
2136350.4
1981758.6
1839050.6
1707241.6
0.0036916434
0.9526386
61.368382
1549.0472
18377.158
119448.49
486178.51
1383187
2999778.8
5300873.3
8026891.4
10817128
13344720
15391813
16861598
17754004
18129991
18079663
17704341
17088225
16305765
15434512
14500183
13557215
12614327
11696733
10819060
9988917.1
9210092.9
8483985.3
7810208.3
7187265.8
6612935.5
6084546.6
5599186.6
5153852.7
4745555.9
4371389.4
4028575.3
3714491.9
3426688.6
3162890.6
2920998.5
2699083.4
2495379.1
2308272.6
2136293.6
1978104
1832491.4
0.0053896635
2.0489165
162.41957
4395.8266
51189.093
311472.94
1163122.9
3023051.1
6013926.1
9825438.9
13882912
17617702
20640786
22779081
24030459
24497580
24330509
23694983
22721105
21528388
20232196
18874999
17520759
16185527
14905105
13695924
12564657
11514153
10544061
9651987.1
8834204.9
8086257.5
7403331.4
6780507.7
6212932.3
5695929.1
5225069.4
4796209.8
4405510.1
4049436.5
3724754.4
3428515.4
3158040.6
2910902.2
2684904.3
2478063.6
2288589.3
2114865.8
1955440.3
0.008245379
4.7822248
463.54205
13112.773
145755.93
811422.13
2734953.5
6426805.9
11659417
17565029
23145142
27679403
30843572
32631007
33218978
32857538
31817277
30301686
28499905
26583320
24609134
22678001
20793958
19012283
17349965
15812326
14398998
13106248
11928039
10857031
9885261
9004631.2
8207217.4
7485451.2
6832226.1
6240952.5
5705575.6
5220570.4
4780922
4382096.2
4020005.9
3690975.5
3391704.7
3119233.8
2870911.7
2644365.4
2437467.8
2248313.8
2075200.4
0.013366652
12.267035
1433.3068
41001.282
421300.7
2094381
6272106.8
13206228
21755582
30184794
37116308
41902467
44510258
45252492
44565235
42892684
40554442
37845910
35021733
32158801
29403957
26755430
24281176
22000257
19913825
18015985
16296652
14743640
13343760
12083647
10950272
9931280.1
9015172.2
8191376.9
7450266.9
6783133.9
6182140.8
5640261.4
5151213.7
4709393.3
4309806.8
3948009.9
3620049.1
3322408.9
3051964.6
2805940.2
2581861.9
2377526.8
2190976
0.023312346
35.096145
4819.2987
133672.29
1224410.3
5302922.8
13909083
26056985
38885463
49706874
57148166
61071131
62025478
60779259
58100620
54501768
50436532
46280195
42135054
38208043
34486341
31055517
27930075
25102871
22557862
20274569
18230717
16403915
14772534
13316219
12016170
10855252
9817999
8890548.4
8060534.8
7316969.1
6650110.3
6051339.3
5513039.6
5028484.9
4591737.6
4197556.7
3841314.5
3518924.2
3226776.3
2961686.2
2720827
2501694.1
2302071
0.044656581
113.89964
17646.802
450309.72
3533912.1
13020465
29554571
49038405
66279574
78224364
84363713
85654598
83482802
79173890
73605673
67491097
61369380
55368332
49770822
44542860
39785872
35506729
31679547
28270328
25241453
22554864
20173976
18064716
16195937
14539528
13070350
11766077
10606983
9575693.7
8656948.6
7837361.9
7105204.5
6450204.1
5863365.2
5336809
4863632
4437781.3
4053945.2
3707458.8
3394222.9
3110647.4
2853548.8
2620121.7
2407893.1
0.09674434
427.18962
70184.003
1546143.4
9975919.5
30608343
59605204
87461198
1.073006e+08
1.1738333e+08
1.1929819e+08
1.156077e+08
1.0868939e+08
99999011
90734166
81689691
72991148
65006487
57662958
51065232
45207371
40029580
35466396
31452113
27924041
24824169
22099960
19704531
17596426
15739211
14101015
12654040
11374097
10240165
9233988.8
8339718.8
7543592.5
6833653.9
6199509.7
5632117.4
5123601.4
4667095.1
4256603.4
3886884.9
3553350.4
3252019
2979347
2732233.5
2507954.5
0.24699049
1886.3078
300356.92
5308392.8
27054426
67957657
1.1303517e+08
1.469588e+08
1.6444357e+08
1.6770954e+08
1.615541e+08
1.5039385e+08
1.3682002e+08
1.2263152e+08
1.0918655e+08
96547821
85144012
74825497
65671325
57651585
50648766
44544693
39228511
34599273
30566803
27051516
23983843
21303365
18957823
16902132
15097459
13510384
12112161
10878056
9786784.4
8820013.9
7961939.5
7198921.2
6519172.4
5912494
5370047.9
4884163.9
4448174
4056270.9
0.78732405
9954.886
1357589.1
17778110
69087327
1.4053594e+08
1.9980583e+08
2.3147648e+08
2.3801888e+08
2.2799359e+08
2.0987469e+08
1.8846559e+08
1.667698e+08
1.4655257e+08
1.2812628e+08
1.1182594e+08
97326910
84618305
73640493
64172436
56011791
48976712
42907600
37666337
33134001
29208638
25803139
22843238
20265689
18016646
16050256
14327456
12814939
11484274
10311167
9274827.1
8357433.9
7543690.5
6820443.2
6176361.3
5601667.3
5087908.6
4627764
4214881.1
3.3944106
63153.909
6285382
56351688
1.6260808e+08
2.6709391e+08
3.2673132e+08
3.4053037e+08
3.2502587e+08
2.9549764e+08
2.6141632e+08
2.278028e+08
1.9770586e+08
1.704668e+08
1.4718973e+08
1.2686718e+08
1.0921984e+08
94199148
81408938
70508202
61206696
53257431
46451316
40612760
35593986
31270663
27538189
24308536
21507566
19072772
16951385
15098788
13477203
12054582
10803696
9701358
8727793.6
7866100
7101801.7
6422476.9
5817443.9
5277498.7
4794694.4
4362156.7
22.01257
475382.15
28508731
1.6330747e+08
3.4523374e+08
4.6100009e+08
4.9152251e+08
4.6698925e+08
4.1973552e+08
3.6510384e+08
3.1246359e+08
2.6701471e+08
2.2778257e+08
1.937376e+08
1.6557584e+08
1.4114431e+08
1.2062265e+08
1.033716e+08
88834777
76554579
66155660
57328005
49814698
43403881
37919835
33216543
29172451
25686197
22673100
20062277
17794275
15819125
14094741
12585599
11261650
10097419
9071256.6
8164730.1
7362104.8
6649920.8
6016638.3
5452341.2
4948490.4
4497718.1
244.41594
4057327.9
1.1944106e+08
4.1689776e+08
6.4811095e+08
7.1610661e+08
6.7839452e+08
5.9851091e+08
5.1313388e+08
4.2998696e+08
3.6091674e+08
3.0332413e+08
2.5541632e+08
2.1593045e+08
1.8246611e+08
1.5450527e+08
1.3130661e+08
1.1197398e+08
95801435
82225922
70794811
61140192
52960950
46011407
40089649
35029238
30692607
26965775
23754072
20978676
18573803
16484411
14664340
13074778
11683014
10461410
9386558
8438582.4
7600566.3
6858076.8
6198769.9
5612064
5088866.6
4621349.2
5285.6206
35772736
4.3052139e+08
9.0365494e+08
1.0590925e+09
9.9658624e+08
8.5953615e+08
7.1994757e+08
5.9391226e+08
4.8719667e+08
4.0294692e+08
3.3427712e+08
2.8079012e+08
2.3556177e+08
1.9773005e+08
1.6669261e+08
1.4109942e+08
1.1988423e+08
1.0222024e+08
87456653
75074969
64656737
55861624
48413487
42086569
36695693
32088520
28139384
24744339