/*--------------------------------*- C++ -*----------------------------------*\
| =========                 |                                                 |
| \\      /  F ield         | OpenFOAM: The Open Source CFD Toolbox           |
|  \\    /   O peration     | Version:  2312                                  |
|   \\  /    A nd           | Website:  www.openfoam.com                      |
|    \\/     M anipulation  |                                                 |
\*---------------------------------------------------------------------------*/
FoamFile
{
    version     2.0;
    format      ascii;
    arch        "LSB;label=32;scalar=64";
    class       volScalarField;
    location    "0.09";
    object      T;
}
// * * * * * * * * * * * * * * * * * * * * * * * * * * * * * * * * * * * * * //

dimensions      [0 0 0 1 0 0 0];

internalField   nonuniform List<scalar> 
3221
(
300.63948
301.97842
303.38028
304.84398
306.36817
307.95123
309.59131
311.2863
313.03389
314.83161
316.67676
318.56652
320.49793
322.46792
324.47331
326.51088
328.57733
330.66931
332.78349
334.91651
337.06503
339.22574
341.39536
343.57068
345.74854
347.92585
350.0996
352.26686
354.4248
356.5707
358.70191
360.8159
362.91024
364.98262
367.03084
369.0528
371.04652
373.01015
374.94191
376.84018
378.70342
380.53019
382.31917
384.06915
385.779
387.44771
389.07434
390.65806
392.19815
393.69396
395.14498
396.55083
300.64718
302.00225
303.42098
304.90227
306.4447
308.0466
309.70604
311.42087
313.18871
315.00699
316.87296
318.78373
320.73627
322.72742
324.75397
326.8126
328.89996
331.01267
333.14733
335.30053
337.46888
339.64904
341.83768
344.03155
346.22745
348.42226
350.61293
352.7965
354.97013
357.13106
359.27661
361.40425
363.51152
365.59611
367.6558
369.68849
371.6922
373.66506
375.60531
377.51132
379.38155
381.21459
383.00911
384.76392
386.4779
388.15004
389.77943
391.36523
392.90671
394.40321
395.85418
397.2595
300.66216
302.04859
303.50011
305.01551
306.59328
308.23164
309.92854
311.68168
313.48857
315.34649
317.25257
319.20378
321.19694
323.2288
325.29599
327.39508
329.52262
331.67509
333.84899
336.04083
338.24712
340.46441
342.6893
344.91846
347.14861
349.37655
351.59919
353.81352
356.01663
358.2057
360.37805
362.53109
364.66234
366.76947
368.85024
370.90255
372.9244
374.91394
376.8694
378.78917
380.67172
382.51565
384.31968
386.08262
387.8034
389.48103
391.11463
392.70341
394.24667
395.74378
397.19428
398.59811
300.6841
302.11643
303.61592
305.18121
306.81064
308.50224
310.25378
312.06278
313.92654
315.84217
317.80658
319.81655
321.86872
323.95962
326.08573
328.24342
330.42906
332.63899
334.86954
337.11705
339.37791
341.64852
343.92537
346.205
348.48402
350.75914
353.02717
355.28503
357.52972
359.75839
361.96826
364.15673
366.32129
368.45956
370.5693
372.6484
374.69486
376.70683
378.68257
380.62048
382.51908
384.37699
386.19298
387.9659
389.69473
391.37855
393.01653
394.60794
396.15216
397.64862
399.09692
400.49714
300.71277
302.2051
303.76728
305.39775
307.09461
308.85567
310.67845
312.56022
314.49802
316.48869
318.5289
320.61515
322.74384
324.91124
327.11358
329.347
331.60764
333.89161
336.19504
338.51407
340.84488
343.18372
345.5269
347.87079
350.21189
352.54676
354.8721
357.18472
359.48154
361.75961
364.01613
366.24841
368.45392
370.63026
372.77517
374.88654
376.9624
379.00089
381.00033
382.95915
384.87592
386.74934
388.57821
390.36149
392.09822
393.78756
395.42879
397.02125
398.56441
400.05782
401.50117
402.89463
300.74806
302.31422
303.95355
305.66421
307.44401
309.29044
311.20071
313.17179
315.20037
317.28298
319.41595
321.59546
323.81758
326.07827
328.37345
330.69897
333.05067
335.42438
337.81598
340.22134
342.63643
345.05726
347.47993
349.90064
352.31569
354.72151
357.11465
359.49178
361.84974
364.18549
366.49615
368.779
371.03146
373.25112
375.43573
377.58318
379.69152
381.75897
383.78387
385.76475
387.70023
389.58911
391.4303
393.22285
394.96591
396.65877
398.3008
399.8915
401.43044
402.9173
404.3519
405.73454
300.78993
302.44369
304.17458
305.98037
307.85852
309.80614
311.82006
313.89683
316.03277
318.22398
320.4664
322.75581
325.08789
327.45823
329.86234
332.29574
334.75391
337.23234
339.72659
342.23225
344.74497
347.26052
349.77475
352.28363
354.78327
357.26991
359.73994
362.18989
364.61649
367.01662
369.38732
371.72585
374.02959
376.29614
378.52325
380.70888
382.85111
384.94825
386.99873
389.00116
390.95429
392.85705
394.70848
396.50776
398.2542
399.94723
401.58639
403.17132
404.70176
406.17754
407.59865
408.96552
300.83843
302.59368
304.43063
306.34662
308.33866
310.4034
312.5372
314.73611
316.99599
319.31244
321.68093
324.09676
326.55514
329.05119
331.58
334.13664
336.71618
339.31372
341.92443
344.54354
347.16639
349.78842
352.40521
355.01248
357.60609
360.18209
362.73668
365.26627
367.76747
370.23707
372.67208
375.0697
377.42734
379.7426
382.0133
384.23745
386.41326
388.53911
390.61359
392.63544
394.60358
396.51708
398.37519
400.17725
401.92276
403.61136
405.24276
406.81681
408.33342
409.79264
411.19461
412.53997
300.8937
302.76459
304.7224
306.76395
308.88572
311.08379
313.35395
315.6917
318.09231
320.55081
323.06209
325.62088
328.22186
330.85959
333.52865
336.22359
338.93899
341.66951
344.40986
347.15487
349.8995
352.63883
355.36812
358.0828
360.77848
363.45099
366.09637
368.71089
371.29103
373.83354
376.33538
378.79376
381.20612
383.57013
385.8837
388.14495
390.35224
392.50411
394.59933
396.63683
398.61574
400.53536
402.39514
404.19467
405.93368
407.61203
409.22967
410.78668
412.28321
413.7195
415.09593
416.41333
300.95593
302.95704
305.05096
307.2339
309.50169
311.84976
314.27324
316.76694
319.32544
321.94311
324.61415
327.33266
330.09262
332.888
335.71274
338.56082
341.42626
344.30316
347.18575
350.06838
352.94557
355.81203
358.66263
361.49251
364.29702
367.07175
369.81259
372.51567
375.17739
377.79446
380.36385
382.88281
385.34886
387.7598
390.11367
392.40878
394.64367
396.81713
398.92815
400.97593
402.95986
404.87951
406.73459
408.525
410.25073
411.91192
413.50881
415.04172
416.51106
417.91735
419.26117
420.54361
301.02539
303.17188
305.41777
307.75855
310.1893
312.70469
315.29904
317.96637
320.70047
323.4949
326.34308
329.23832
332.17387
335.14295
338.1388
341.15469
344.18401
347.22025
350.25706
353.28827
356.30791
359.31023
362.28976
365.24128
368.15989
371.04097
373.88024
376.67374
379.41783
382.10923
384.74497
387.32239
389.83917
392.29329
394.68301
397.00689
399.26375
401.45265
403.57291
405.62404
407.60577
409.51798
411.36075
413.13428
414.8389
416.47506
418.04331
419.54429
420.97868
422.34728
423.65095
424.891
301.10244
303.41018
305.82465
308.34052
310.95197
313.65277
316.43633
319.29572
322.22379
325.21318
328.25639
331.34582
334.47385
337.63284
340.81519
344.01342
347.22016
350.4282
353.63055
356.82044
359.99135
363.1371
366.25179
369.3299
372.36625
375.35604
378.29487
381.17874
384.00402
386.7675
389.46635
392.0981
394.66065
397.15224
399.57146
401.91719
404.18861
406.38515
408.50652
410.55263
412.52358
414.41968
416.24136
417.98923
419.66399
421.26644
422.79749
424.25809
425.64926
426.97207
428.22769
429.41766
301.18748
303.67321
306.27381
308.98296
311.79382
314.6991
317.69111
320.76187
323.90311
327.10639
330.36314
333.66472
337.00246
340.36774
343.75203
347.14694
350.54425
353.93597
357.31436
360.67202
364.00187
367.29722
370.55179
373.75972
376.91562
380.01455
383.05204
386.02413
388.92728
391.75847
394.51507
397.19491
399.79622
402.31763
404.7581
407.11698
409.39387
411.58868
413.70158
415.73295
417.68336
419.55356
421.34444
423.05703
424.69245
426.25189
427.73663
429.14799
430.48733
431.75602
432.95551
434.08764
301.281
303.96248
306.76782
309.68956
312.71966
315.8496
319.07044
322.3729
325.74746
329.18441
332.67392
336.20613
339.77119
343.35934
346.96096
350.56664
354.16717
357.75369
361.31768
364.85103
368.34606
371.7956
375.19297
378.53203
381.80724
385.01357
388.14662
391.20253
394.178
397.07026
399.87707
402.59664
405.22767
407.76926
410.22094
412.58254
414.85425
417.03653
419.13009
421.13585
423.05492
424.88855
426.63815
428.30519
429.89126
431.39797
432.82699
434.18002
435.45875
436.6649
437.80022
438.86678
301.38355
304.27972
307.30966
310.46458
313.73507
317.11114
320.5824
324.13809
327.76719
331.4585
335.20076
338.98268
342.79305
346.62078
350.45501
354.28512
358.10087
361.89241
365.65037
369.36589
373.03069
376.63712
380.17816
383.64749
387.03946
390.34911
393.5722
396.70514
399.74499
402.6894
405.53663
408.28545
410.93515
413.48547
415.93655
418.28891
420.54338
422.70107
424.76331
426.73164
428.60776
430.3935
432.09077
433.70158
435.22797
436.672
438.03576
439.32133
440.53075
441.66607
442.7293
443.72281
301.49577
304.62689
307.9027
311.31287
314.84635
318.4915
322.23619
326.06793
329.97396
333.94137
337.95718
342.00849
346.08247
350.16652
354.24834
358.31602
362.3581
366.36369
370.3225
374.22493
378.06211
381.82596
385.50923
389.10549
392.60915
396.01548
399.32055
402.52122
405.61507
408.60037
411.47603
414.24156
416.89699
419.44283
421.87999
424.20976
426.43372
428.55372
430.5718
432.49017
434.31117
436.03722
437.67083
439.21451
440.6708
442.04222
443.33126
444.54039
445.67201
446.72845
447.71204
448.62538
301.61837
305.00621
308.55076
312.23988
316.06065
319.99944
324.04213
328.1742
332.38084
336.64714
340.95817
345.29907
349.65518
354.01216
358.35612
362.67365
366.95202
371.17918
375.34393
379.43591
383.44576
387.36507
391.18647
394.90361
398.51116
402.00478
405.3811
408.63762
411.77265
414.78528
417.67527
420.44304
423.08952
425.61613
428.0247
430.31739
432.49662
434.56506
436.52551
438.38092
440.1343
441.78872
443.34724
444.81293
446.18883
447.47789
448.68303
449.80708
450.85277
451.82274
452.71959
453.54613
301.75215
305.42017
309.25812
313.25176
317.38595
321.64479
326.01177
330.47001
335.00231
339.59143
344.2201
348.87124
353.52807
358.1743
362.7942
367.37276
371.89583
376.35021
380.72376
385.00549
389.1856
393.25556
397.20807
401.03709
404.73779
408.30648
411.74058
415.03848
418.19948
421.22368
424.11193
426.86572
429.48705
431.97841
434.34265
436.58289
438.70249
440.705
442.59403
444.3733
446.04651
447.61737
449.08955
450.46665
451.75217
452.94953
454.06203
455.09284
456.04503
456.9215
457.72508
458.4588
301.89801
305.87156
310.02956
314.35536
318.8312
323.43848
328.15794
332.96988
337.85435
342.79129
347.76075
352.74309
357.71912
362.67029
367.57888
372.42811
377.20236
381.88727
386.46986
390.93862
395.28355
399.49619
403.56961
407.49836
411.2784
414.90702
418.38272
421.70505
424.87452
427.89254
430.76123
433.48333
436.06209
438.50117
440.80454
442.97639
445.0211
446.94309
448.74685
450.43685
452.01754
453.49324
454.8682
456.14654
457.33224
458.42911
459.44083
460.3709
461.22265
461.99924
462.70373
463.33927
302.05694
306.36346
310.87044
315.55832
320.40633
325.39267
330.49484
335.68983
340.95439
346.26521
351.59924
356.93387
362.24714
367.518
372.72652
377.85407
382.88355
387.79951
392.58829
397.23807
401.73894
406.08285
410.26357
414.27662
418.11911
421.78966
425.28814
428.61557
431.774
434.76632
437.59616
440.26768
442.78551
445.1546
447.38013
449.46742
451.42186
453.24884
454.9537
456.54168
458.0179
459.38734
460.65479
461.82485
462.90193
463.89025
464.79379
465.61634
466.36147
467.03257
467.63285
468.16562
302.23005
306.89935
311.7867
316.86918
322.12241
327.52086
333.03817
338.64741
344.32144
350.0332
355.75601
361.46382
367.13158
372.73547
378.25317
383.66419
388.94999
394.09421
399.08275
403.90385
408.54805
413.00813
417.27902
421.35761
425.24262
428.93431
432.4343
435.74542
438.8715
441.81719
444.58776
447.18898
449.62696
451.90803
454.03863
456.02524
457.8743
459.59213
461.18492
462.65867
464.01917
465.27195
466.42234
467.47539
468.43589
469.3084
470.09717
470.80625
471.43942
472.00021
472.492
472.91818
302.41859
307.48308
312.78499
318.29742
323.99176
329.83801
335.8052
341.8618
347.97614
354.11672
360.25266
366.35403
372.39227
378.34056
384.17415
389.87066
395.41033
400.77618
405.95406
410.93272
415.70365
420.26099
424.60134
428.72348
432.62811
436.31759
439.79567
443.06729
446.13833
449.01537
451.70552
454.21627
456.55528
458.73031
460.7491
462.61929
464.34835
465.94353
467.41181
468.75991
469.99422
471.12083
472.14552
473.07373
473.91061
474.66096
475.32929
475.91984
476.43653
476.88306
477.26287
477.57945
302.62393
308.11894
313.8727
319.85364
326.02803
332.36058
338.81487
345.35396
351.94077
358.53865
365.11188
371.62614
378.04903
384.35055
390.50349
396.48379
402.27078
407.84728
413.19967
418.31778
423.19469
427.82653
432.21213
436.35268
440.25137
443.91307
447.34402
450.55156
453.54384
456.32957
458.91782
461.31784
463.53892
465.59027
467.48091
469.2196
470.81483
472.27469
473.60694
474.81891
475.91757
476.9095
477.80085
478.59741
479.30458
479.9274
480.47056
480.93843
481.33504
481.66418
481.92933
482.13415
302.84762
308.81174
315.05814
321.54961
328.24638
335.10681
342.08804
349.14665
356.23926
363.32321
370.35723
377.30212
384.12133
390.78161
397.25345
403.51143
409.53447
415.30586
420.81318
426.04812
431.00607
435.68585
440.08916
444.22015
448.085
451.6915
455.04873
458.16667
461.05594
463.72748
466.19239
468.46176
470.54648
472.45718
474.20412
475.79717
477.24571
478.55865
479.7444
480.81089
481.76557
482.61539
483.36685
484.02599
484.59841
485.08933
485.50354
485.84551
486.1193
486.32882
486.4773
486.5689
303.09139
309.56686
316.35054
323.39846
330.66363
338.09684
345.64753
353.26459
360.89723
368.49585
376.01292
383.40385
390.6278
397.6483
404.4339
410.95838
417.20099
423.14632
428.78406
434.1086
439.11854
443.81612
448.20657
452.29756
456.09876
459.6213
462.87733
465.87969
468.64157
471.17625
473.49687
475.61632
477.54709
479.30115
480.88995
482.32433
483.61451
484.7701
485.80013
486.71299
487.51652
488.21797
488.8241
489.34114
489.77483
490.13048
490.41291
490.62673
490.77574
490.86447
490.89461
490.87248
303.35718
310.39034
317.76025
325.41486
333.29852
341.35294
349.51832
357.73446
365.9419
374.08308
382.10348
389.95276
397.5857
404.96297
412.05175
418.82587
425.2659
431.35876
437.09734
442.47977
447.50875
452.19071
456.53508
460.55368
464.26008
467.66902
470.79599
473.6568
476.26728
478.64304
480.79925
482.75055
484.5109
486.09355
487.51102
488.77501
489.89648
490.88566
491.75204
492.50439
493.15082
493.69882
494.15533
494.5267
494.81869
495.03675
495.18541
495.26994
495.29255
495.26022
495.17224
495.03726
303.64716
311.28893
319.29886
327.61525
336.17192
344.89967
353.72768
362.58499
371.40205
380.11225
388.65344
396.96926
405.01035
412.73514
420.11034
427.11101
433.72026
439.92868
445.73355
451.13787
456.14935
460.77944
465.04246
468.95487
472.53448
475.79991
478.7701
481.46389
483.89974
486.09553
488.06839
489.83457
491.40942
492.80733
494.0417
495.12503
496.0689
496.88399
497.58014
498.16639
498.65106
499.04168
499.34541
499.56867
499.7169
499.79625
499.80955
499.76488
499.66101
499.50857
499.30314
499.05592
303.96379
312.27025
320.97948
330.01803
339.30706
348.76417
358.30536
367.84699
377.30787
386.61125
395.6868
404.4722
412.91449
420.97086
428.60888
435.80631
442.55039
448.83684
454.6687
460.05496
465.00933
469.54907
473.69401
477.46562
480.88624
483.97851
486.76483
489.26706
491.50622
493.50235
495.27436
496.84001
498.21585
499.41722
500.45832
501.35229
502.11114
502.74588
503.26663
503.68249
504.00202
504.23242
504.38128
504.45523
504.45817
504.39926
504.27678
504.10391
503.87473
503.60281
503.28044
502.91778
304.30985
313.34294
322.81688
332.64394
342.72987
352.97638
363.2837
373.55333
383.69076
393.6081
403.22653
412.4782
421.30759
429.67209
437.54192
444.89937
451.73764
458.05926
463.87441
469.19926
474.05445
478.4638
482.45311
486.04915
489.27896
492.16918
494.74566
497.03315
499.05508
500.83348
502.38887
503.7403
504.90531
505.90006
506.73938
507.43685
508.00479
508.45435
508.79592
509.0383
509.19076
509.25895
509.25177
509.17707
509.03406
508.83786
508.58138
508.28089
507.92716
507.53227
507.09605
506.62251
304.6885
314.51682
324.82779
335.51629
346.46931
357.56932
368.6978
379.73889
390.58306
401.13048
411.29394
421.001
430.19517
438.8361
446.89888
454.37257
461.25836
467.56731
473.3182
478.53553
483.24778
487.48586
491.28186
494.66804
497.67611
500.33668
502.67889
504.73018
506.51618
508.06065
509.38551
510.51086
511.45505
512.23488
512.86558
513.36101
513.73371
513.99457
514.15474
514.22133
514.20477
514.11339
513.94841
513.72628
513.43946
513.10643
512.71695
512.28508
511.81041
511.29761
510.74884
510.16694
305.10337
315.80305
327.03123
338.66144
350.55777
362.57943
374.58562
386.44043
398.01768
409.20514
419.90792
430.05063
439.57812
448.45495
456.66377
464.20298
471.08392
477.32797
482.96393
488.02571
492.5503
496.5761
500.14168
503.28477
506.04166
508.44671
510.53212
512.32775
513.86114
515.15754
516.23996
517.12933
517.84464
518.40303
518.81991
519.1093
519.28408
519.35364
519.33044
519.22388
519.03658
518.78645
518.46664
518.09727
517.66791
517.19408
516.6756
516.118
515.52372
514.89592
514.23703
513.54949
305.5586
317.21445
329.44892
342.10926
355.03152
368.04683
380.98805
393.69637
406.02758
417.85721
429.08419
439.63271
449.45206
458.51501
466.81496
474.36237
481.18095
487.30421
492.77232
497.62944
501.92152
505.69468
508.99391
511.86232
514.3405
516.46629
518.27459
519.79735
521.06371
522.10005
522.93017
523.57574
524.05594
524.38815
524.58763
524.66835
524.64273
524.52363
524.31527
524.0363
523.68217
523.27285
522.79975
522.27897
521.71131
521.10304
520.45701
519.77698
519.06574
518.32596
517.55992
516.76977
306.05898
318.76578
332.10573
345.89366
359.93123
374.01568
387.94894
401.54649
414.64519
427.10939
438.83444
449.74764
459.80675
468.9967
477.3251
484.81731
491.51171
497.45562
502.70163
507.30475
511.32016
514.80163
517.80044
520.3647
522.539
524.3642
525.87754
527.11265
528.09986
528.8664
529.4365
529.83247
530.07318
530.17627
530.15636
530.02815
529.80154
529.49406
529.10605
528.65373
528.13402
527.56133
526.9391
526.27411
525.5699
524.83084
524.06019
523.26108
522.43613
521.58769
520.71781
519.82837
306.61007
320.47409
335.03033
350.05335
365.30258
380.53449
395.51506
410.03144
423.90163
436.98106
449.16541
460.38992
470.62569
479.87427
488.16116
495.52953
502.03462
507.73894
512.70826
517.00874
520.70476
523.8575
526.52415
528.7574
530.6053
532.11128
533.31445
534.24967
534.94794
535.43735
535.74165
535.88435
535.88283
535.75632
535.51745
535.17736
534.75822
534.26133
533.69375
533.06444
532.38258
531.65477
530.88569
530.08046
529.24294
528.3768
527.4851
526.57056
525.63554
524.68207
523.71195
522.7268
307.21838
322.35927
338.25586
354.63257
371.19688
387.65642
403.7359
419.1922
433.82582
447.48725
460.07808
471.54749
481.88573
491.11573
499.28468
506.45645
512.70494
518.10882
522.7475
526.69824
530.03432
532.82391
535.1295
537.00778
538.50969
539.68067
540.56122
541.18686
541.5888
541.79632
541.83047
541.71884
541.47638
541.11502
540.66245
540.11811
539.50413
538.81349
538.06749
537.27079
536.43011
535.55126
534.63896
533.69756
532.73066
531.74146
530.7327
529.70671
528.66553
527.6109
526.54438
525.46731
307.89155
324.44461
341.8209
359.68209
377.67183
395.43954
412.66337
429.06925
444.44346
458.63767
471.56676
483.20126
493.55688
502.68301
510.65232
517.5518
523.47539
528.5185
532.77415
536.33041
539.26888
541.66397
543.58281
545.08538
546.22486
547.04798
547.59628
547.9054
548.00554
547.92886
547.6931
547.32289
546.84383
546.25535
545.58845
544.83626
544.02227
543.15058
542.23153
541.27137
540.27598
539.25053
538.19932
537.12617
536.03426
534.92638
533.80485
532.67167
531.52849
530.37676
529.21786
528.05282
308.63866
326.75762
345.77056
365.26041
384.79231
403.947
422.35137
439.70162
455.77585
470.43561
483.61842
495.3247
505.60236
514.53241
522.21639
528.7663
534.29692
538.92051
542.74329
545.86343
548.37
550.3428
551.8527
552.9622
553.72608
554.19139
554.40062
554.38694
554.1875
553.8247
553.31472
552.69854
551.97828
551.16701
550.27765
549.32569
548.32164
547.27215
546.18494
545.06606
543.92075
542.75353
541.56821
540.36809
539.1559
537.93397
536.70425
535.46833
534.2275
532.98284
531.73578
530.48683
309.47058
329.33097
350.15793
371.43507
392.63126
413.24711
432.855
451.12575
467.83872
482.87701
496.21212
507.88364
517.97884
526.61511
533.92556
540.04841
545.11949
549.26743
552.61082
555.25693
557.30125
558.82781
559.91028
560.61287
560.99141
561.09157
560.9591
560.62224
560.11564
559.47534
558.69926
557.83439
556.86953
555.83322
554.73613
553.58892
552.40068
551.1783
549.92827
548.65597
547.36601
546.06226
544.74801
543.42599
542.0985
540.7674
539.43424
538.10023
536.76627
310.40042
332.20387
355.04582
378.28433
401.27053
423.4132
444.22971
463.37414
480.64094
495.94957
509.31846
520.83641
530.63696
538.87784
545.72563
551.34515
555.89278
559.51251
562.33409
564.47254
566.02853
567.08902
567.7294
568.01465
567.99961
567.73651
567.25771
566.59451
565.79582
564.87045
563.8363
562.71072
561.51509
560.26236
558.9629
557.62604
556.25969
554.87022
553.46319
552.04325
550.61431
549.17962
547.74188
546.30331
544.8657
543.43048
541.99878
540.57144
539.1491
311.44419
335.4237
360.50907
385.89906
410.80178
434.52328
456.53002
476.47394
494.18336
509.63199
522.89954
534.13421
543.52191
551.26368
557.56032
562.60284
566.56692
569.61034
571.87235
573.47424
574.52045
575.09927
575.28678
575.14851
574.73961
574.10387
573.28654
572.30996
571.21387
570.00189
568.70324
567.3368
565.91646
564.45383
562.9584
561.4383
559.90036
558.35017
556.79241
555.23098
553.66906
552.10927
550.55373
549.00411
547.46171
545.92753
544.40228
542.88644
541.38034
312.62168
339.04827
366.63732
394.385
421.32721
446.65934
469.80812
490.44548
508.45779
523.89363
536.9092
547.7217
556.57423
563.71282
569.37216
573.76791
577.09314
579.51734
581.18726
582.22865
582.74852
582.83437
582.56482
581.99759
581.19002
580.20293
579.03473
577.75388
576.34848
574.86283
573.31229
571.71186
570.07388
568.40858
566.7243
565.02801
563.32548
561.62137
559.91952
558.22303
556.53439
554.85555
553.18804
551.533
549.89125
548.26334
546.64957
545.05006
543.46483
313.95762
343.14885
373.53864
403.86524
432.96019
459.90636
484.11226
505.30093
523.44626
538.69448
551.29346
561.53762
569.73059
576.16349
581.10321
584.78761
587.42441
589.19228
590.24316
590.70527
590.68568
590.2797
589.54057
588.54505
587.35847
586.0038
584.50833
582.89798
581.20778
579.45786
577.66316
575.83662
573.98893
572.12884
570.26345
568.39853
566.53877
564.6879
562.84887
561.02399
559.21504
557.42333
555.64979
553.89504
552.15941
550.44302
548.74577
547.06743
545.40768
315.48342
347.81419
381.34405
414.48307
445.82552
474.35093
499.48514
521.04323
539.12077
553.98563
565.99125
575.51572
582.92467
588.55277
592.69592
595.61064
597.51596
598.59672
599.00749
598.87741
598.31661
597.40616
596.20134
594.80051
593.22524
591.50484
589.6699
587.75882
585.79211
583.78705
581.75705
579.71316
577.66439
575.61797
573.57968
571.55409
569.54479
567.55455
565.58544
563.63899
561.71627
559.81794
557.94437
556.09564
554.27161
552.47198
550.69627
548.94389
547.2142
317.23957
353.156
390.21323
426.40494
460.05925
490.07964
515.96265
537.6657
555.44376
569.70997
580.93528
589.5855
596.088
600.81732
604.09372
606.18774
607.3257
607.69527
607.45334
606.72534
605.6078
604.20738
602.55648
600.74011
598.76876
596.68995
594.53773
592.33579
590.10234
587.8521
585.59652
583.34478
581.10415
578.88032
576.67772
574.4997
572.34877
570.22672
568.13476
566.07365
564.04375
562.0451
560.07749
558.14049
556.23352
554.35585
552.50663
550.68494
548.88982
319.27925
359.31661
400.34164
439.82353
475.80804
507.17752
533.57012
555.14644
572.36227
585.79788
596.04996
603.67244
609.15065
612.89416
615.24175
616.47224
616.81465
616.45999
615.55481
614.2178
612.57372
610.6682
608.58271
606.33606
603.98666
601.57062
599.11181
596.63004
594.14076
591.6561
589.18539
586.73585
584.31302
581.92106
579.563
577.24101
574.95651
572.71032
570.50282
568.33398
566.2035
564.11078
562.05509
560.03549
558.05096
556.10037
554.18253
552.29618
550.44005
321.67378
366.47944
411.96937
454.96053
493.22805
525.71941
552.30982
573.43745
589.80039
602.16253
611.24877
617.69651
622.04145
624.72119
626.08739
626.42052
625.95302
624.85847
623.28166
621.36912
619.17097
616.79425
614.24335
611.59505
608.88742
606.14686
603.39375
600.6443
597.91101
595.20338
592.52852
589.89169
587.29667
584.74608
582.24162
579.78423
577.37428
575.01167
572.69592
570.42628
568.20176
566.0212
563.88331
561.78669
559.72989
557.71142
555.72972
553.78324
551.87042
324.52092
374.88379
425.3918
472.06924
512.4736
545.75226
572.14857
592.4587
607.65753
618.70001
626.43435
631.5718
634.68774
636.23803
636.58081
635.99982
634.70146
632.86047
630.64971
628.12599
625.419
622.53354
619.55343
616.52319
613.47159
610.42057
607.3867
604.38266
601.4179
598.4993
595.6317
592.81839
590.06142
587.36189
584.72016
582.13601
579.60876
577.13741
574.72067
572.35707
570.04499
567.78269
565.56839
563.40022
561.27633
559.19487
557.15398
555.15178
553.18646
327.95804
384.8456
440.97223
491.42676
533.67566
567.27963
593.00951
612.09516
625.80864
635.29088
641.50063
645.20852
647.01613
647.38609
646.68472
645.16308
643.02831
640.48374
637.59576
634.51739
631.25572
627.90617
624.51738
621.12134
617.74155
614.3953
611.09522
607.85042
604.66731
601.55015
598.50153
595.52276
592.6142
589.77547
587.00563
584.30332
581.66687
579.09439
576.58383
574.13302
571.73973
569.4017
567.11664
564.88225
562.69631
560.55664
558.46107
556.40743
554.39367
332.18328
396.78667
459.15111
513.31439
556.9196
590.24651
614.76528
632.19581
644.10603
651.80298
656.33557
658.51539
658.95442
658.12046
656.34267
653.87548
650.95367
647.65475
644.15681
640.47126
636.70531
632.9157
629.13638
625.3923
621.70137
618.07612
614.52512
611.05396
607.66603
604.363
601.14523
598.01212
594.96239
591.9942
589.10536
586.29343
583.55577
580.88966
578.29231
575.7609
573.29262
570.8847
568.53438
566.23896
563.99583
561.80258
559.65669
557.55575
555.49747
337.49023
411.27533
480.44518
537.98777
582.21777
614.5247
637.23415
652.57538
662.38306
668.09514
670.82436
671.40207
670.44729
668.37159
665.51426
662.15981
658.39287
654.41709
650.2518
646.01336
641.77191
637.56333
633.41356
629.3406
625.35662
621.46935
617.68329
614.00058
610.42162
606.94555
603.57058
600.29428
597.11373
594.02573
591.02691
588.11376
585.28275
582.53036
579.85309
577.24752
574.71029
572.23814
569.8279
567.47647
565.18086
562.93849
560.7465
558.60223
556.50317
344.3251
429.07376
505.42811
565.63292
609.47858
639.90162
660.18038
673.01902
680.45958
684.02163
684.85279
683.79783
681.41206
678.08797
674.22494
669.91897
665.3947
660.68222
655.90448
651.14969
646.45697
641.85251
637.35393
632.97235
628.7142
624.58245
620.57758
616.69833
612.94225
609.30603
605.7858
602.37734
599.07623
595.87796
592.77799
589.77186
586.85517
584.02364
581.27314
578.59966
575.99933
573.46845
571.00344
568.60085
353.38043
451.19424
534.68654
596.30492
638.47696
666.07569
683.31978
693.29003
698.14861
699.43698
698.32906
695.60301
691.78321
687.29778
682.36244
677.20595
671.86591
666.46628
661.12482
655.88182
650.7643
645.78865
640.96411
636.29502
631.78215
627.42381
623.21658
619.15593
615.23665
611.45309
607.79941
604.26971
600.85812
597.55888
594.36642
591.27532
588.28041
585.37669
582.55943
579.82407
577.16629
574.58196
572.06714
569.61806
365.75669
478.95382
568.72575
629.8534
668.83349
692.66144
706.33086
713.13975
715.26388
714.22083
711.13689
706.72393
701.60061
695.86638
689.98286
683.92875
677.80501
671.78661
665.91443
660.21389
654.69986
649.37898
644.25222
639.31729
634.5695
630.00264
625.60956
621.38259
617.31392
613.39568
609.62018
605.97992
602.46769
599.07659
595.80003
592.63175
589.56582
586.59662
583.71883
580.92741
578.2176
575.58489
573.025
570.53389
383.24157
513.98149
607.8047
665.84878
700.01112
719.20578
728.87062
732.31903
731.64751
728.24611
723.13732
717.20593
710.72699
703.83367
697.00976
690.0486
683.24295
676.64484
670.27776
664.15238
658.27152
652.63228
647.22762
642.04887
637.08609
632.32879
627.76626
623.38792
619.18345
615.14296
611.257
607.51661
603.91332
600.43916
597.08663
593.84867
590.71868
587.69044
584.75811
581.9162
579.15955
576.48331
573.8829
571.35399
408.79709
558.07178
651.69966
703.53453
731.33615
745.21453
750.59326
750.60279
747.1745
741.30533
734.39496
726.88574
719.07634
711.24997
703.35774
695.62471
688.18152
681.04579
674.22191
667.70587
661.48887
655.55871
649.90077
644.5003
639.34243
634.41262
629.69685
625.18179
620.85485
616.70422
612.71885
608.88843
605.20334
601.65463
598.23395
594.93354
591.74616
588.66506
585.68391
582.79684
579.99832
577.28317
574.64654
572.08388
447.39227
612.68039
699.44563
741.83546
762.04509
770.18619
771.16787
767.83404
761.58641
753.48805
744.73572
735.61228
726.83576
717.91202
709.09274
700.65589
692.62577
684.99724
677.75631
670.88484
664.36292
658.16957
652.28301
646.68282
641.34954
636.26487
631.41173
626.77428
622.33782
618.08881
614.01472
610.10402
606.34604
602.73094
599.24963
595.89368
592.65528
589.52721
586.50272
583.57556
580.73988
577.99022
575.32148
572.72889
507.24594
677.81662
749.17672
779.4417
791.35145
793.64806
790.37493
783.71421
774.7954
764.75581
753.94031
743.6216
733.83448
723.82762
714.22663
705.14752
696.58418
688.50958
680.89246
673.70134
666.90597
660.4771
654.3864
648.6082
643.11881
637.89653
632.92149
628.17553
623.64209
619.30603
615.15352
611.1719
607.34958
603.67592
600.14113
596.73623
593.4529
590.28347
587.22083
584.25839
581.39003
578.61003
575.91307
573.29418
600.48015
750.41958
798.22138
814.96331
818.52063
815.27302
807.88891
798.06035
786.95308
774.7083
762.07499
750.9237
740.00035
729.06529
718.76481
709.10905
700.0683
691.59556
683.64366
676.16884
669.13132
662.49433
656.22356
650.28858
644.66192
639.31877
634.23678
629.39573
624.77736
620.36514
616.14406
612.10047
608.22196
604.49719
600.91576
597.46818
594.14568
590.94022
587.84435
584.8512
581.95438
579.14798
576.42646
573.78469
736.57079
823.30557
843.53703
846.98407
843.03248
834.7507
823.33205
811.10619
797.62955
783.41702
769.28652
757.33744
745.3396
733.63916
722.71861
712.55366
703.09246
694.26998
686.02473
678.30187
671.05309
664.23484
657.80749
651.73638
645.99066
640.54281
635.36825
630.44497
625.75322
621.27524