/*--------------------------------*- C++ -*----------------------------------*\
| =========                 |                                                 |
| \\      /  F ield         | OpenFOAM: The Open Source CFD Toolbox           |
|  \\    /   O peration     | Version:  2312                                  |
|   \\  /    A nd           | Website:  www.openfoam.com                      |
|    \\/     M anipulation  |                                                 |
\*---------------------------------------------------------------------------*/
FoamFile
{
    version     2.0;
    format      ascii;
    arch        "LSB;label=32;scalar=64";
    class       volVectorField;
    location    "0.09";
    object      U;
}
// * * * * * * * * * * * * * * * * * * * * * * * * * * * * * * * * * * * * * //

dimensions      [0 1 -1 0 0 0 0];

internalField   nonuniform List<vector> 
3221
(
(1.1014065 -0.0072451696 0)
(1.1020292 -0.014577039 0)
(1.1014157 -0.017980432 0)
(1.0999897 -0.019230148 0)
(1.0980916 -0.019280008 0)
(1.0958804 -0.018683139 0)
(1.0934719 -0.01780452 0)
(1.0909723 -0.016906983 0)
(1.0883838 -0.016191824 0)
(1.0856803 -0.015812681 0)
(1.0829102 -0.015894921 0)
(1.0801313 -0.016540281 0)
(1.0774029 -0.017830472 0)
(1.0747725 -0.019829581 0)
(1.0721838 -0.022589247 0)
(1.0695854 -0.0261418 0)
(1.0670515 -0.030508221 0)
(1.0646695 -0.035699681 0)
(1.0624951 -0.041729488 0)
(1.0605774 -0.048632493 0)
(1.058955 -0.056373696 0)
(1.0576447 -0.064941918 0)
(1.0566623 -0.074329566 0)
(1.0560218 -0.084523303 0)
(1.0557326 -0.09550428 0)
(1.0558001 -0.10724951 0)
(1.0562263 -0.11973266 0)
(1.05701 -0.13292454 0)
(1.058147 -0.14679369 0)
(1.0596303 -0.16130666 0)
(1.0614503 -0.17642855 0)
(1.0635945 -0.19212336 0)
(1.0660483 -0.2083543 0)
(1.0687951 -0.2250841 0)
(1.0718159 -0.24227524 0)
(1.0750903 -0.2598902 0)
(1.0785963 -0.27789167 0)
(1.0823104 -0.2962427 0)
(1.086208 -0.31490691 0)
(1.0902637 -0.33384855 0)
(1.0944515 -0.35303266 0)
(1.0987444 -0.37242514 0)
(1.1031155 -0.39199285 0)
(1.1075377 -0.4117036 0)
(1.1119836 -0.43152625 0)
(1.1164262 -0.45143069 0)
(1.1208388 -0.47138787 0)
(1.125195 -0.49136981 0)
(1.1294691 -0.51134957 0)
(1.133636 -0.53130111 0)
(1.1376712 -0.5511992 0)
(1.141551 -0.57101946 0)
(1.1023762 -0.00066649623 0)
(1.1044028 -0.0012658625 0)
(1.104828 -0.00079523068 0)
(1.1040228 0.0006120684 0)
(1.1024779 0.0026471881 0)
(1.1004333 0.0050105111 0)
(1.0979866 0.0074425948 0)
(1.0951838 0.0097150799 0)
(1.0921502 0.011626143 0)
(1.0890202 0.013041446 0)
(1.0858371 0.013850281 0)
(1.0826283 0.013957378 0)
(1.0794136 0.013280678 0)
(1.0762176 0.011746203 0)
(1.07317 0.0092906126 0)
(1.0703968 0.0059101108 0)
(1.0678959 0.0016086296 0)
(1.0656378 -0.0036167279 0)
(1.0635752 -0.0097612006 0)
(1.0617882 -0.016787472 0)
(1.0603558 -0.024721987 0)
(1.0592416 -0.033555561 0)
(1.0584538 -0.043266149 0)
(1.0580109 -0.053828275 0)
(1.0579264 -0.06521366 0)
(1.0582083 -0.077390896 0)
(1.0588599 -0.09032573 0)
(1.0598805 -0.10398154 0)
(1.0612659 -0.11831983 0)
(1.0630084 -0.13330065 0)
(1.0650973 -0.14888295 0)
(1.067519 -0.16502508 0)
(1.0702572 -0.18168502 0)
(1.0732937 -0.19882077 0)
(1.0766079 -0.21639056 0)
(1.0801776 -0.23435311 0)
(1.0839791 -0.25266782 0)
(1.0879873 -0.27129494 0)
(1.092176 -0.29019572 0)
(1.0965184 -0.30933252 0)
(1.1009868 -0.32866891 0)
(1.1055533 -0.3481697 0)
(1.1101897 -0.36780104 0)
(1.1148677 -0.38753044 0)
(1.1195591 -0.40732672 0)
(1.1242362 -0.42716011 0)
(1.1288713 -0.44700213 0)
(1.1334377 -0.46682565 0)
(1.137909 -0.48660482 0)
(1.1422598 -0.50631502 0)
(1.1464653 -0.52593282 0)
(1.1505022 -0.54543613 0)
(1.1024202 0.0017345423 0)
(1.105423 0.0051427441 0)
(1.1067411 0.0086091645 0)
(1.1066736 0.012204985 0)
(1.1056412 0.015855128 0)
(1.1039126 0.0194256 0)
(1.1016582 0.02277512 0)
(1.0990037 0.025782377 0)
(1.0960684 0.028350176 0)
(1.0929585 0.030354153 0)
(1.0897512 0.031686009 0)
(1.0865097 0.032259687 0)
(1.0832898 0.032010996 0)
(1.0801471 0.030898854 0)
(1.0771534 0.028897569 0)
(1.0743731 0.025939766 0)
(1.0718379 0.021972716 0)
(1.0695814 0.01697382 0)
(1.0676807 0.010949606 0)
(1.066099 0.003946047 0)
(1.0648011 -0.0040524579 0)
(1.0638633 -0.013025121 0)
(1.0633111 -0.022937544 0)
(1.0631528 -0.033752751 0)
(1.0633936 -0.045431957 0)
(1.0640361 -0.057934261 0)
(1.0650794 -0.071216867 0)
(1.0665192 -0.085235482 0)
(1.0683473 -0.099944694 0)
(1.0705526 -0.11529836 0)
(1.0731208 -0.13124989 0)
(1.0760349 -0.14775267 0)
(1.0792754 -0.16476027 0)
(1.0828206 -0.18222678 0)
(1.0866467 -0.20010702 0)
(1.0907284 -0.21835676 0)
(1.095039 -0.23693287 0)
(1.0995507 -0.2557935 0)
(1.1042347 -0.27489814 0)
(1.1090616 -0.2942078 0)
(1.1140017 -0.31368499 0)
(1.1190249 -0.33329381 0)
(1.1241012 -0.35299997 0)
(1.1292008 -0.37277079 0)
(1.1342943 -0.39257519 0)
(1.1393524 -0.41238366 0)
(1.1443469 -0.43216826 0)
(1.14925 -0.45190254 0)
(1.1540348 -0.47156151 0)
(1.1586754 -0.49112157 0)
(1.1631469 -0.51056054 0)
(1.1674258 -0.52985754 0)
(1.1025824 0.0038243502 0)
(1.1061926 0.010900137 0)
(1.1082459 0.017470348 0)
(1.1089105 0.023630821 0)
(1.1085127 0.029394631 0)
(1.1072942 0.034721785 0)
(1.1054379 0.03954432 0)
(1.1030961 0.043783101 0)
(1.1004013 0.047356282 0)
(1.0974691 0.05017643 0)
(1.0943984 0.052162546 0)
(1.0912753 0.05324538 0)
(1.0881768 0.053369295 0)
(1.0851741 0.052492724 0)
(1.0823341 0.050584949 0)
(1.079716 0.047615894 0)
(1.0773671 0.043567171 0)
(1.0753301 0.038435994 0)
(1.0736474 0.032225714 0)
(1.0723326 0.024924085 0)
(1.0713955 0.016587179 0)
(1.070866 0.0072500341 0)
(1.0707617 -0.0030536415 0)
(1.0710912 -0.014284976 0)
(1.0718587 -0.02640067 0)
(1.0730641 -0.039354431 0)
(1.0747033 -0.053097848 0)
(1.076768 -0.067581024 0)
(1.0792462 -0.082753142 0)
(1.0821225 -0.098562926 0)
(1.0853781 -0.11495907 0)
(1.0889919 -0.13189059 0)
(1.0929398 -0.1493072 0)
(1.0971958 -0.16715953 0)
(1.1017323 -0.18539938 0)
(1.1065199 -0.20397995 0)
(1.111528 -0.22285595 0)
(1.1167254 -0.24198373 0)
(1.1220799 -0.26132143 0)
(1.1275592 -0.28082898 0)
(1.1331308 -0.3004682 0)
(1.1387621 -0.32020276 0)
(1.144421 -0.33999825 0)
(1.1500759 -0.35982211 0)
(1.1556954 -0.37964362 0)
(1.1612494 -0.39943385 0)
(1.1667082 -0.41916562 0)
(1.1720434 -0.43881341 0)
(1.1772275 -0.45835331 0)
(1.1822342 -0.47776295 0)
(1.1870384 -0.49702145 0)
(1.1916165 -0.51610927 0)
(1.1027276 0.0055595777 0)
(1.1068297 0.015866984 0)
(1.1094998 0.025334698 0)
(1.1108276 0.034020605 0)
(1.1110662 0.041949566 0)
(1.1104213 0.049115688 0)
(1.1090662 0.055488913 0)
(1.1071571 0.061022359 0)
(1.104836 0.065659356 0)
(1.1022304 0.069339182 0)
(1.0994543 0.072003434 0)
(1.0966094 0.073600663 0)
(1.0937874 0.074088957 0)
(1.0910709 0.073436909 0)
(1.0885345 0.071623166 0)
(1.0862437 0.068635146 0)
(1.0842542 0.064470493 0)
(1.0826132 0.059137332 0)
(1.0813597 0.052651395 0)
(1.0805226 0.045032969 0)
(1.0801242 0.036322237 0)
(1.080184 0.026560837 0)
(1.0807157 0.015792992 0)
(1.0817261 0.0040671107 0)
(1.0832169 -0.0085650503 0)
(1.0851843 -0.022049394 0)
(1.0876199 -0.036330242 0)
(1.0905107 -0.051350976 0)
(1.0938397 -0.067054587 0)
(1.0975863 -0.083384155 0)
(1.1017266 -0.10028329 0)
(1.1062339 -0.11769648 0)
(1.1110793 -0.13556947 0)
(1.1162315 -0.15384943 0)
(1.121658 -0.17248526 0)
(1.1273247 -0.1914277 0)
(1.1331968 -0.21062949 0)
(1.1392387 -0.23004547 0)
(1.1454147 -0.24963265 0)
(1.1516889 -0.26935021 0)
(1.1580258 -0.28915957 0)
(1.1643901 -0.30902432 0)
(1.1707473 -0.32891025 0)
(1.1770637 -0.34878525 0)
(1.1833065 -0.36861929 0)
(1.1894439 -0.38838434 0)
(1.1954454 -0.40805427 0)
(1.2012818 -0.42760479 0)
(1.2069252 -0.44701332 0)
(1.2123491 -0.46625897 0)
(1.2175285 -0.48532236 0)
(1.2224399 -0.50418552 0)
(1.1028835 0.0070769644 0)
(1.1074275 0.020303246 0)
(1.1106378 0.032477663 0)
(1.1125613 0.043604084 0)
(1.1134031 0.053687959 0)
(1.1133392 0.062725264 0)
(1.1125289 0.070698565 0)
(1.1111255 0.077577986 0)
(1.1092743 0.083325108 0)
(1.1071108 0.087897989 0)
(1.1047595 0.091256268 0)
(1.102334 0.093365221 0)
(1.0999372 0.094198387 0)
(1.097662 0.093738857 0)
(1.0955915 0.091979557 0)
(1.0937983 0.088923021 0)
(1.0923448 0.084581428 0)
(1.0912833 0.078976307 0)
(1.0906565 0.07213761 0)
(1.0904976 0.064102821 0)
(1.0908316 0.054917877 0)
(1.0916767 0.044633905 0)
(1.0930437 0.033306068 0)
(1.0949368 0.020992888 0)
(1.0973535 0.0077553916 0)
(1.1002856 -0.0063437278 0)
(1.1037194 -0.021240852 0)
(1.1076362 -0.036872097 0)
(1.1120132 -0.053173857 0)
(1.1168237 -0.070083301 0)
(1.1220377 -0.087538807 0)
(1.1276223 -0.10548032 0)
(1.1335427 -0.12384963 0)
(1.1397619 -0.14259063 0)
(1.1462416 -0.16164951 0)
(1.1529428 -0.18097482 0)
(1.1598256 -0.20051769 0)
(1.1668501 -0.22023175 0)
(1.1739764 -0.24007329 0)
(1.181165 -0.26000115 0)
(1.1883771 -0.27997676 0)
(1.1955747 -0.29996406 0)
(1.2027209 -0.31992944 0)
(1.2097799 -0.33984167 0)
(1.2167175 -0.35967181 0)
(1.2235007 -0.37939309 0)
(1.2300982 -0.39898082 0)
(1.2364802 -0.41841225 0)
(1.2426186 -0.43766648 0)
(1.2484871 -0.45672435 0)
(1.2540611 -0.47556827 0)
(1.2593177 -0.4941821 0)
(1.1030583 0.0084617558 0)
(1.1080326 0.024389854 0)
(1.1117427 0.039114957 0)
(1.1142146 0.052587728 0)
(1.1156253 0.06478278 0)
(1.1161311 0.075682048 0)
(1.1158806 0.08526541 0)
(1.1150232 0.093507681 0)
(1.1137062 0.10037982 0)
(1.1120701 0.10585226 0)
(1.1102475 0.10989869 0)
(1.1083609 0.11249933 0)
(1.1065229 0.11364305 0)
(1.1048349 0.11332853 0)
(1.1033877 0.11156458 0)
(1.1022603 0.10836989 0)
(1.1015205 0.10377268 0)
(1.1012249 0.097810114 0)
(1.1014189 0.09052735 0)
(1.1021376 0.08197668 0)
(1.1034061 0.072216741 0)
(1.1052408 0.061311002 0)
(1.1076495 0.049326549 0)
(1.1106321 0.036333077 0)
(1.1141811 0.022401956 0)
(1.1182827 0.0076054006 0)
(1.1229167 -0.0079842947 0)
(1.1280579 -0.024295401 0)
(1.1336766 -0.041257328 0)
(1.1397389 -0.058801103 0)
(1.1462079 -0.076859781 0)
(1.1530439 -0.095368763 0)
(1.1602051 -0.11426606 0)
(1.1676483 -0.13349249 0)
(1.1753293 -0.1529918 0)
(1.1832032 -0.17271078 0)
(1.1912251 -0.19259928 0)
(1.1993503 -0.21261024 0)
(1.2075347 -0.23269966 0)
(1.2157352 -0.25282654 0)
(1.2239097 -0.27295283 0)
(1.2320176 -0.29304329 0)
(1.2400196 -0.31306544 0)
(1.2478785 -0.3329894 0)
(1.2555584 -0.35278775 0)
(1.2630257 -0.37243544 0)
(1.2702486 -0.39190961 0)
(1.2771971 -0.41118946 0)
(1.2838434 -0.43025611 0)
(1.2901616 -0.44909243 0)
(1.2961281 -0.46768296 0)
(1.3017209 -0.48601362 0)
(1.1032549 0.0097644193 0)
(1.1086695 0.028248602 0)
(1.1128636 0.045406526 0)
(1.1158553 0.061140094 0)
(1.1178088 0.075389886 0)
(1.1188702 0.088116505 0)
(1.1191828 0.099288678 0)
(1.1188952 0.10887804 0)
(1.1181568 0.11685848 0)
(1.1171136 0.12320792 0)
(1.1159048 0.12791091 0)
(1.114661 0.13096085 0)
(1.1135024 0.13236146 0)
(1.1125381 0.13212744 0)
(1.1118651 0.13028443 0)
(1.1115677 0.1268685 0)
(1.1117177 0.12192539 0)
(1.1123741 0.11550955 0)
(1.1135835 0.10768303 0)
(1.1153808 0.098514326 0)
(1.1177892 0.088077232 0)
(1.1208218 0.076449527 0)
(1.1244819 0.063711746 0)
(1.1287637 0.049946057 0)
(1.1336534 0.035235314 0)
(1.1391297 0.019662168 0)
(1.1451651 0.003308309 0)
(1.1517264 -0.013746191 0)
(1.1587758 -0.031423434 0)
(1.1662714 -0.049648151 0)
(1.1741683 -0.068348062 0)
(1.1824192 -0.087454154 0)
(1.1909749 -0.10690089 0)
(1.1997853 -0.12662632 0)
(1.2087998 -0.1465722 0)
(1.2179674 -0.16668398 0)
(1.227238 -0.18691078 0)
(1.2365622 -0.20720537 0)
(1.2458917 -0.22752405 0)
(1.2551797 -0.24782655 0)
(1.2643813 -0.26807592 0)
(1.2734533 -0.28823832 0)
(1.2823548 -0.30828294 0)
(1.291047 -0.32818176 0)
(1.2994934 -0.34790945 0)
(1.3076598 -0.36744311 0)
(1.3155144 -0.38676217 0)
(1.3230278 -0.40584818 0)
(1.3301727 -0.42468464 0)
(1.3369245 -0.44325684 0)
(1.3432607 -0.4615517 0)
(1.349161 -0.47955753 0)
(1.1034754 0.01101831 0)
(1.1093523 0.031965738 0)
(1.1140302 0.051473231 0)
(1.1175279 0.069397802 0)
(1.1200077 0.085645684 0)
(1.1216141 0.10015304 0)
(1.1224911 0.11287308 0)
(1.1227902 0.12376973 0)
(1.1226657 0.1328158 0)
(1.12227 0.13999361 0)
(1.1217496 0.1452964 0)
(1.1212425 0.14872967 0)
(1.1208762 0.15031179 0)
(1.120766 0.150074 0)
(1.1210141 0.14805978 0)
(1.1217087 0.1443239 0)
(1.1229237 0.13893117 0)
(1.1247189 0.13195505 0)
(1.1271398 0.12347623 0)
(1.1302188 0.11358119 0)
(1.1339753 0.10236076 0)
(1.1384172 0.089908744 0)
(1.143541 0.07632059 0)
(1.1493335 0.061692215 0)
(1.1557727 0.046118985 0)
(1.1628285 0.029694805 0)
(1.1704641 0.012511343 0)
(1.1786371 -0.0053426157 0)
(1.1873004 -0.023781679 0)
(1.1964028 -0.042724263 0)
(1.2058907 -0.062092889 0)
(1.2157083 -0.081814399 0)
(1.2257985 -0.10182008 0)
(1.2361038 -0.12204571 0)
(1.2465668 -0.14243157 0)
(1.2571307 -0.16292236 0)
(1.26774 -0.18346715 0)
(1.2783404 -0.20401916 0)
(1.2888799 -0.22453569 0)
(1.2993085 -0.24497787 0)
(1.3095786 -0.26531047 0)
(1.3196453 -0.28550174 0)
(1.3294661 -0.30552311 0)
(1.3390016 -0.32534905 0)
(1.348215 -0.34495679 0)
(1.3570724 -0.36432615 0)
(1.3655425 -0.38343929 0)
(1.373597 -0.40228054 0)
(1.3812101 -0.42083614 0)
(1.3883587 -0.43909415 0)
(1.3950222 -0.45704416 0)
(1.4011825 -0.47467714 0)
(1.1037211 0.012248265 0)
(1.1100902 0.03560777 0)
(1.1152622 0.057411939 0)
(1.1192632 0.077475427 0)
(1.122262 0.095670536 0)
(1.1244087 0.11190781 0)
(1.1258536 0.12612287 0)
(1.1267558 0.13826969 0)
(1.1272779 0.14831795 0)
(1.1275808 0.15625281 0)
(1.1278194 0.16207534 0)
(1.1281397 0.16580293 0)
(1.128676 0.16746905 0)
(1.1295492 0.16712244 0)
(1.1308655 0.16482582 0)
(1.1327152 0.16065427 0)
(1.1351727 0.15469345 0)
(1.1382961 0.14703772 0)
(1.142128 0.1377883 0)
(1.1466958 0.12705148 0)
(1.1520125 0.11493689 0)
(1.158078 0.10155592 0)
(1.1648803 0.087020321 0)
(1.1723965 0.071440886 0)
(1.1805939 0.054926386 0)
(1.189432 0.037582614 0)
(1.198863 0.019511625 0)
(1.2088337 0.00081111775 0)
(1.2192862 -0.018426028 0)
(1.2301592 -0.038112089 0)
(1.2413892 -0.058164723 0)
(1.2529114 -0.078507079 0)
(1.2646602 -0.099067834 0)
(1.2765706 -0.11978114 0)
(1.2885782 -0.1405865 0)
(1.3006203 -0.16142866 0)
(1.3126362 -0.18225735 0)
(1.3245676 -0.20302708 0)
(1.3363587 -0.22369689 0)
(1.347957 -0.24423007 0)
(1.359313 -0.26459389 0)
(1.3703803 -0.28475934 0)
(1.3811161 -0.30470079 0)
(1.3914807 -0.32439579 0)
(1.4014381 -0.34382472 0)
(1.4109552 -0.3629706 0)
(1.4200022 -0.38181881 0)
(1.4285525 -0.40035685 0)
(1.4365824 -0.41857412 0)
(1.444071 -0.4364617 0)
(1.4510007 -0.45401218 0)
(1.4573559 -0.47121939 0)
(1.1039936 0.013474087 0)
(1.1108902 0.03922877 0)
(1.1165743 0.063303146 0)
(1.1210843 0.085470699 0)
(1.1246026 0.10557016 0)
(1.1272914 0.12348607 0)
(1.1293129 0.13913577 0)
(1.1308384 0.15246247 0)
(1.1320424 0.16343221 0)
(1.1330969 0.17203278 0)
(1.1341672 0.17827345 0)
(1.1354077 0.18218428 0)
(1.1369599 0.18381511 0)
(1.1389497 0.18323382 0)
(1.1414858 0.18052428 0)
(1.1446593 0.17578395 0)
(1.1485426 0.16912148 0)
(1.1531902 0.16065425 0)
(1.1586388 0.15050606 0)
(1.164908 0.13880488 0)
(1.1720018 0.12568088 0)
(1.1799096 0.11126457 0)
(1.1886079 0.095685241 0)
(1.1980614 0.079069541 0)
(1.208225 0.061540336 0)
(1.2190451 0.043215749 0)
(1.2304613 0.024208408 0)
(1.2424078 0.0046248892 0)
(1.2548148 -0.015434682 0)
(1.2676097 -0.035876868 0)
(1.2807184 -0.056615027 0)
(1.2940664 -0.077569308 0)
(1.3075795 -0.098666556 0)
(1.3211847 -0.11984014 0)
(1.3348112 -0.14102971 0)
(1.3483906 -0.16218093 0)
(1.3618574 -0.18324513 0)
(1.3751496 -0.20417903 0)
(1.3882088 -0.22494429 0)
(1.4009805 -0.24550721 0)
(1.4134139 -0.26583838 0)
(1.4254626 -0.28591224 0)
(1.437084 -0.30570682 0)
(1.4482392 -0.32520335 0)
(1.4588936 -0.34438597 0)
(1.4690161 -0.36324141 0)
(1.4785792 -0.38175869 0)
(1.4875588 -0.39992889 0)
(1.495934 -0.41774487 0)
(1.5036873 -0.43520108 0)
(1.510804 -0.45229328 0)
(1.5172721 -0.46901838 0)
(1.1042943 0.014712452 0)
(1.1117584 0.042874691 0)
(1.1179785 0.069215969 0)
(1.1230099 0.093468641 0)
(1.1270556 0.11543788 0)
(1.1302953 0.13498219 0)
(1.1329089 0.15200065 0)
(1.1350843 0.16642601 0)
(1.1370118 0.17822125 0)
(1.1388776 0.18737789 0)
(1.1408591 0.19391475 0)
(1.1431205 0.19787648 0)
(1.1458103 0.19933143 0)
(1.1490587 0.19836906 0)
(1.1529759 0.19509691 0)
(1.1576516 0.18963743 0)
(1.1631542 0.18212484 0)
(1.1695315 0.17270197 0)
(1.1768114 0.16151741 0)
(1.1850028 0.14872284 0)
(1.1940973 0.1344707 0)
(1.2040708 0.11891206 0)
(1.2148852 0.10219487 0)
(1.2264902 0.084462405 0)
(1.2388255 0.065852121 0)
(1.2518226 0.046494646 0)
(1.2654062 0.0265131 0)
(1.2794966 0.0060226062 0)
(1.2940105 -0.014869995 0)
(1.3088632 -0.03606626 0)
(1.3239694 -0.057476099 0)
(1.3392445 -0.079017613 0)
(1.3546056 -0.10061684 0)
(1.3699723 -0.12220745 0)
(1.3852674 -0.14373032 0)
(1.4004173 -0.16513312 0)
(1.4153527 -0.1863699 0)
(1.4300089 -0.20740055 0)
(1.4443255 -0.22819037 0)
(1.4582471 -0.24870961 0)
(1.4717231 -0.26893296 0)
(1.4847077 -0.28883917 0)
(1.4971595 -0.30841059 0)
(1.5090419 -0.3276328 0)
(1.5203227 -0.3464942 0)
(1.5309735 -0.36498572 0)
(1.5409701 -0.38310046 0)
(1.550292 -0.40083342 0)
(1.558922 -0.41818121 0)
(1.5668463 -0.43514184 0)
(1.5740545 -0.45171449 0)
(1.5805385 -0.46789924 0)
(1.1046249 0.015978031 0)
(1.1127007 0.046585998 0)
(1.1194858 0.075211397 0)
(1.1250572 0.10154451 0)
(1.1296448 0.12535657 0)
(1.1334518 0.14648011 0)
(1.1366809 0.1647965 0)
(1.1395416 0.18022909 0)
(1.1422441 0.19273941 0)
(1.1449916 0.20232478 0)
(1.1479754 0.20901615 0)
(1.1513708 0.21287557 0)
(1.1553333 0.21399308 0)
(1.1599966 0.21248294 0)
(1.1654707 0.20847966 0)
(1.1718415 0.20213392 0)
(1.1791708 0.19360848 0)
(1.1874964 0.18307439 0)
(1.196834 0.17070752 0)
(1.2071782 0.1566854 0)
(1.2185047 0.14118446 0)
(1.2307724 0.12437768 0)
(1.2439253 0.10643259 0)
(1.2578953 0.087509685 0)
(1.2726042 0.067761195 0)
(1.2879659 0.047330134 0)
(1.3038889 0.026349694 0)
(1.3202775 0.0049428764 0)
(1.3370345 -0.016777643 0)
(1.3540619 -0.038709459 0)
(1.371263 -0.060760195 0)
(1.3885431 -0.08284715 0)
(1.4058109 -0.10489686 0)
(1.4229789 -0.12684458 0)
(1.4399643 -0.14863373 0)
(1.4566896 -0.17021527 0)
(1.4730826 -0.19154713 0)
(1.4890768 -0.21259356 0)
(1.5046113 -0.23332454 0)
(1.5196311 -0.25371521 0)
(1.5340869 -0.27374529 0)
(1.5479349 -0.29339858 0)
(1.5611363 -0.31266246 0)
(1.5736578 -0.33152744 0)
(1.5854706 -0.34998673 0)
(1.5965504 -0.36803587 0)
(1.6068773 -0.3856724 0)
(1.6164352 -0.40289551 0)
(1.6252114 -0.4197058 0)
(1.6331968 -0.43610501 0)
(1.6403856 -0.45209582 0)
(1.6467746 -0.46768158 0)
(1.1049874 0.017284155 0)
(1.1137232 0.050399308 0)
(1.121107 0.081344371 0)
(1.1272427 0.10976578 0)
(1.1323936 0.13540005 0)
(1.1367926 0.15805383 0)
(1.1406704 0.17759174 0)
(1.1442632 0.19392952 0)
(1.1478048 0.20702976 0)
(1.1515186 0.21689867 0)
(1.1556121 0.22358291 0)
(1.1602719 0.22716593 0)
(1.1656605 0.2277635 0)
(1.1719138 0.22551888 0)
(1.1791395 0.22059766 0)
(1.1874171 0.21318249 0)
(1.196798 0.20346823 0)
(1.2073066 0.19165731 0)
(1.2189423 0.17795558 0)
(1.2316813 0.16256859 0)
(1.2454794 0.14569848 0)
(1.2602746 0.12754133 0)
(1.2759898 0.108285 0)
(1.2925357 0.088107458 0)
(1.3098135 0.067175561 0)
(1.3277176 0.045644207 0)
(1.3461379 0.023655844 0)
(1.3649622 0.0013402813 0)
(1.3840779 -0.021185253 0)
(1.4033739 -0.043815802 0)
(1.4227418 -0.06645821 0)
(1.4420774 -0.089030536 0)
(1.4612815 -0.11146138 0)
(1.4802606 -0.13368915 0)
(1.4989275 -0.15566127 0)
(1.517202 -0.17733343 0)
(1.5350102 -0.19866877 0)
(1.5522856 -0.21963709 0)
(1.5689684 -0.24021418 0)
(1.5850054 -0.26038106 0)
(1.60035 -0.28012334 0)
(1.6149617 -0.29943064 0)
(1.6288062 -0.31829601 0)
(1.6418542 -0.33671543 0)
(1.654082 -0.35468737 0)
(1.6654705 -0.37221234 0)
(1.6760048 -0.38929257 0)
(1.6856742 -0.40593169 0)
(1.6944716 -0.42213441 0)
(1.7023932 -0.43790628 0)
(1.7094386 -0.45325351 0)
(1.7156099 -0.46818272 0)
(1.1053839 0.018643235 0)
(1.1148323 0.054348423 0)
(1.1228534 0.087665122 0)
(1.1295836 0.11819338 0)
(1.1353267 0.14563387 0)
(1.1403514 0.16976755 0)
(1.1449226 0.19044362 0)
(1.1493078 0.20757268 0)
(1.1537687 0.22112178 0)
(1.158552 0.2311102 0)
(1.1638826 0.23760504 0)
(1.1699592 0.24071613 0)
(1.1769504 0.24059022 0)
(1.1849924 0.23740465 0)
(1.194188 0.23136088 0)
(1.2046065 0.22267811 0)
(1.2162849 0.21158735 0)
(1.2292298 0.19832588 0)
(1.2434194 0.18313238 0)
(1.2588073 0.16624267 0)
(1.2753246 0.14788622 0)
(1.2928845 0.12828316 0)
(1.3113849 0.10764211 0)
(1.3307122 0.086158386 0)
(1.3507444 0.064012919 0)
(1.3713544 0.041371514 0)
(1.3924122 0.018384581 0)
(1.4137878 -0.0048127974 0)
(1.4353533 -0.028100553 0)
(1.4569841 -0.051373003 0)
(1.478561 -0.074538089 0)
(1.4999711 -0.097516506 0)
(1.5211085 -0.12024076 0)
(1.5418751 -0.14265418 0)
(1.5621811 -0.16470988 0)
(1.5819449 -0.18636979 0)
(1.6010932 -0.20760368 0)
(1.619561 -0.22838818 0)
(1.6372912 -0.24870597 0)
(1.6542344 -0.26854493 0)
(1.6703484 -0.28789741 0)
(1.6855977 -0.30675952 0)
(1.6999535 -0.32513056 0)
(1.7133924 -0.34301245 0)
(1.7258967 -0.36040924 0)
(1.7374536 -0.3773267 0)
(1.7480545 -0.39377194 0)
(1.7576949 -0.40975311 0)
(1.766374 -0.42527906 0)
(1.7740941 -0.44035918 0)
(1.7808607 -0.45500316 0)
(1.7866816 -0.4692208 0)
(1.1058167 0.020067038 0)
(1.1160351 0.058465013 0)
(1.1247372 0.094220041 0)
(1.1320984 0.12688252 0)
(1.1384708 0.15611593 0)
(1.1441657 0.18167572 0)
(1.1494881 0.20339754 0)
(1.1547425 0.22119009 0)
(1.1602224 0.23502929 0)
(1.1662004 0.24495278 0)
(1.1729204 0.251054 0)
(1.1805929 0.25347547 0)
(1.1893911 0.25240113 0)
(1.1994487 0.24804849 0)
(1.2108599 0.24066064 0)
(1.2236793 0.23049856 0)
(1.2379247 0.21783389 0)
(1.2535792 0.20294252 0)
(1.2705951 0.18609895 0)
(1.2888973 0.16757147 0)
(1.3083882 0.14761822 0)
(1.3289513 0.12648411 0)
(1.350456 0.10439846 0)
(1.3727611 0.081573354 0)
(1.3957192 0.058202668 0)
(1.4191796 0.034461595 0)
(1.4429919 0.010506672 0)
(1.4670079 -0.013523821 0)
(1.4910842 -0.037509142 0)
(1.5150839 -0.061345136 0)
(1.538878 -0.084943091 0)
(1.5623462 -0.10822854 0)
(1.5853778 -0.13113998 0)
(1.6078721 -0.1536276 0)
(1.6297387 -0.17565203 0)
(1.6508967 -0.19718306 0)
(1.6712756 -0.21819849 0)
(1.690814 -0.23868307 0)
(1.7094595 -0.25862744 0)
(1.7271684 -0.27802726 0)
(1.7439046 -0.29688232 0)
(1.7596395 -0.31519585 0)
(1.7743511 -0.33297385 0)
(1.7880234 -0.35022452 0)
(1.8006459 -0.36695775 0)
(1.8122132 -0.38318469 0)
(1.822724 -0.39891741 0)
(1.8321809 -0.41416855 0)
(1.8405899 -0.42895107 0)
(1.8479601 -0.4432781 0)
(1.8543033 -0.45716268 0)
(1.8596337 -0.47061756 0)
(1.1062886 0.021566874 0)
(1.1173394 0.062779086 0)
(1.1267718 0.10105226 0)
(1.1348075 0.13588321 0)
(1.1418556 0.16689655 0)
(1.1482774 0.19382273 0)
(1.1544247 0.21648624 0)
(1.1606445 0.23479802 0)
(1.1672664 0.2487484 0)
(1.174591 0.25839999 0)
(1.1828821 0.26387991 0)
(1.1923609 0.26537077 0)
(1.2032028 0.26310121 0)
(1.2155353 0.25733617 0)
(1.2294388 0.24836697 0)
(1.2449481 0.23650215 0)
(1.2620552 0.22205897 0)
(1.2807139 0.20535591 0)
(1.300844 0.18670625 0)
(1.3223364 0.16641273 0)
(1.3450592 0.14476325 0)
(1.3688619 0.12202765 0)
(1.3935815 0.098455378 0)
(1.4190467 0.074274049 0)
(1.4450825 0.049688715 0)
(1.4715138 0.024881786 0)
(1.4981689 1.3477906e-05 0)
(1.524882 -0.024777361 0)
(1.5514954 -0.04937201 0)
(1.577861 -0.073670512 0)
(1.6038419 -0.097590109 0)
(1.6293127 -0.12106364 0)
(1.6541603 -0.1440379 0)
(1.6782839 -0.16647205 0)
(1.7015946 -0.18833605 0)
(1.7240155 -0.20960921 0)
(1.7454806 -0.23027882 0)
(1.7659347 -0.25033888 0)
(1.7853326 -0.26978901 0)
(1.8036378 -0.2886334 0)
(1.8208227 -0.30687995 0)
(1.8368668 -0.32453946 0)
(1.8517568 -0.34162493 0)
(1.8654853 -0.35815105 0)
(1.8780503 -0.37413365 0)
(1.8894546 -0.38958928 0)
(1.8997051 -0.40453485 0)
(1.9088123 -0.41898746 0)
(1.9167896 -0.43296404 0)
(1.9236533 -0.44648113 0)
(1.9294222 -0.45955493 0)
(1.9341168 -0.47220096 0)
(1.1068026 0.02315374 0)
(1.118754 0.067319319 0)
(1.1289719 0.10820201 0)
(1.1377336 0.14524042 0)
(1.1455145 0.17801851 0)
(1.1527342 0.20624246 0)
(1.1597987 0.22972879 0)
(1.1671033 0.24839591 0)
(1.1750174 0.26225551 0)
(1.1838719 0.27140331 0)
(1.1939501 0.27600872 0)
(1.205482 0.2763035 0)
(1.2186413 0.27256995 0)
(1.2335443 0.26512863 0)
(1.2502514 0.2543266 0)
(1.2687702 0.24052639 0)
(1.2890601 0.22409617 0)
(1.3110379 0.20540108 0)
(1.3345843 0.18479602 0)
(1.3595499 0.16261978 0)
(1.3857629 0.13919054 0)
(1.4130345 0.11480257 0)
(1.441166 0.089724157 0)
(1.4699534 0.064196404 0)
(1.4991928 0.03843301 0)
(1.5286845 0.012620693 0)
(1.558236 -0.013079797 0)
(1.5876652 -0.038532214 0)
(1.6168015 -0.063623075 0)
(1.6454884 -0.088259711 0)
(1.6735834 -0.11236824 0)
(1.7009591 -0.13589151 0)
(1.7275028 -0.15878704 0)
(1.7531166 -0.18102511 0)
(1.7777165 -0.20258691 0)
(1.8012317 -0.22346284 0)
(1.8236041 -0.24365097 0)
(1.844787 -0.26315566 0)
(1.8647444 -0.28198632 0)
(1.8834496 -0.30015634 0)
(1.9008849 -0.31768213 0)
(1.9170401 -0.33458236 0)
(1.9319116 -0.35087722 0)
(1.9455019 -0.36658789 0)
(1.9578187 -0.3817361 0)
(1.9688738 -0.39634364 0)
(1.9786832 -0.41043219 0)
(1.9872655 -0.42402294 0)
(1.9946425 -0.43713648 0)
(2.0008378 -0.44979262 0)
(2.0058771 -0.46201031 0)
(2.0097878 -0.47380751 0)
(1.1073619 0.024838436 0)
(1.1202883 0.072113311 0)
(1.1313542 0.1157069 0)
(1.1409023 0.15499422 0)
(1.1494855 0.18951673 0)
(1.1575911 0.21895754 0)
(1.1656871 0.24312934 0)
(1.1742228 0.26196469 0)
(1.1836116 0.27550519 0)
(1.1942155 0.28388938 0)
(1.2063364 0.28733954 0)
(1.2202096 0.28614737 0)
(1.2360016 0.28065899 0)
(1.2538106 0.27126008 0)
(1.2736692 0.25836173 0)
(1.2955491 0.24238749 0)
(1.3193686 0.2237619 0)
(1.3449993 0.20290072 0)
(1.3722748 0.18020291 0)
(1.4009993 0.15604434 0)
(1.4309552 0.1307732 0)
(1.4619117 0.10470687 0)
(1.4936311 0.078130164 0)
(1.5258754 0.051294769 0)
(1.5584115 0.024419591 0)
(1.5910156 -0.0023080503 0)
(1.6234761 -0.028730697 0)
(1.6555964 -0.054718508 0)
(1.6871964 -0.080166897 0)
(1.7181138 -0.10499395 0)
(1.7482046 -0.12913784 0)
(1.7773427 -0.15255423 0)
(1.8054194 -0.17521388 0)
(1.8323431 -0.1971003 0)
(1.858038 -0.21820769 0)
(1.8824429 -0.238539 0)
(1.9055101 -0.25810425 0)
(1.9272041 -0.27691902 0)
(1.9475004 -0.29500315 0)
(1.9663845 -0.31237965 0)
(1.9838501 -0.32907371 0)
(1.9998987 -0.34511195 0)
(2.0145381 -0.36052171 0)
(2.0277818 -0.3753305 0)
(2.0396477 -0.38956577 0)
(2.0501578 -0.40325434 0)
(2.0593374 -0.41642215 0)
(2.0672141 -0.42909427 0)
(2.0738177 -0.44129457 0)
(2.0791797 -0.45304566 0)
(2.0833329 -0.46436889 0)
(2.0863113 -0.47528424 0)
(1.1079701 0.026631667 0)
(1.1219531 0.077187783 0)
(1.1339371 0.123602 0)
(1.1443425 0.16517968 0)
(1.1538121 0.20141782 0)
(1.1629114 0.23197841 0)
(1.1721787 0.25667576 0)
(1.182124 0.27546487 0)
(1.1932073 0.28842766 0)
(1.2058223 0.29575752 0)
(1.2202866 0.29774227 0)
(1.2368356 0.29474594 0)
(1.2556215 0.28719029 0)
(1.2767151 0.27553679 0)
(1.3001112 0.26026971 0)
(1.3257358 0.24188095 0)
(1.3534557 0.22085694 0)
(1.3830881 0.19766761 0)
(1.4144118 0.17275777 0)
(1.4471771 0.14654053 0)
(1.4811162 0.11939276 0)
(1.5159522 0.091652486 0)
(1.5514068 0.063617701 0)
(1.5872075 0.035546627 0)
(1.6230928 0.0076589887 0)
(1.6588165 -0.01986188 0)
(1.6941508 -0.046866263 0)
(1.728888 -0.073235122 0)
(1.7628425 -0.098876857 0)
(1.7958505 -0.12372404 0)
(1.8277705 -0.14773018 0)
(1.8584819 -0.17086666 0)
(1.8878844 -0.19311988 0)
(1.9158966 -0.2144886 0)
(1.9424542 -0.23498163 0)
(1.9675091 -0.25461572 0)
(1.9910268 -0.27341375 0)
(2.0129859 -0.29140314 0)
(2.0333758 -0.30861457 0)
(2.0521954 -0.32508084 0)
(2.0694523 -0.34083595 0)
(2.0851608 -0.35591431 0)
(2.0993412 -0.37035016 0)
(2.1120188 -0.38417716 0)
(2.1232227 -0.39742797 0)
(2.1329855 -0.41013395 0)
(2.1413421 -0.42232503 0)
(2.1483292 -0.43402958 0)
(2.153985 -0.44527429 0)
(2.1583487 -0.45608411 0)
(2.1614602 -0.46648232 0)
(2.16336 -0.47649044 0)
(1.1086315 0.028544131 0)
(1.1237603 0.08256875 0)
(1.1367412 0.13191997 0)
(1.1480869 0.17582662 0)
(1.1585443 0.21373941 0)
(1.1687683 0.24530216 0)
(1.1793773 0.27033777 0)
(1.1909477 0.28883404 0)
(1.2039888 0.30092629 0)
(1.2189248 0.30687719 0)
(1.2360843 0.30705494 0)
(1.2556953 0.30191048 0)
(1.2778857 0.2919547 0)
(1.3026876 0.27773664 0)
(1.3300461 0.25982356 0)
(1.3598292 0.23878325 0)
(1.3918408 0.21516917 0)
(1.4258338 0.18950836 0)
(1.4615236 0.16229222 0)
(1.4986003 0.13396998 0)
(1.5367415 0.10494461 0)
(1.5756214 0.075570908 0)
(1.6149208 0.046155366 0)
(1.6543334 0.016957541 0)
(1.6935717 -0.011807447 0)
(1.7323705 -0.039965579 0)
(1.7704897 -0.067380124 0)
(1.8077155 -0.093947667 0)
(1.8438616 -0.11959399 0)
(1.878768 -0.14427002 0)
(1.9123006 -0.16794793 0)
(1.9443494 -0.19061759 0)
(1.9748268 -0.21228328 0)
(2.0036657 -0.2329608 0)
(2.0308176 -0.2526749 0)
(2.05625 -0.27145705 0)
(2.0799454 -0.28934362 0)
(2.1018983 -0.30637423 0)
(2.1221144 -0.32259048 0)
(2.1406082 -0.33803486 0)
(2.1574021 -0.35274992 0)
(2.1725245 -0.36677755 0)
(2.1860092 -0.38015852 0)
(2.1978939 -0.39293196 0)
(2.2082196 -0.4051353 0)
(2.2170295 -0.41680393 0)
(2.2243683 -0.42797113 0)
(2.230282 -0.43866799 0)
(2.2348169 -0.44892348 0)
(2.2380198 -0.45876436 0)
(2.2399376 -0.46821537 0)
(2.2406169 -0.47729898 0)
(1.1093505 0.030586619 0)
(1.125723 0.088281659 0)
(1.13979 0.14069102 0)
(1.1521729 0.18695918 0)
(1.1637393 0.22648929 0)
(1.175247 0.25891094 0)
(1.1874036 0.28406468 0)
(1.2008581 0.30198446 0)
(1.2161706 0.31287483 0)
(1.2337925 0.31708506 0)
(1.2540563 0.31508131 0)
(1.277172 0.30741825 0)
(1.3032304 0.29471107 0)
(1.332211 0.27760933 0)
(1.3639942 0.2567735 0)
(1.3983763 0.2328546 0)
(1.4350861 0.2064776 0)
(1.4738012 0.17822839 0)
(1.5141655 0.1486443 0)
(1.5558033 0.118208 0)
(1.5983337 0.08734425 0)
(1.6413818 0.056419189 0)
(1.684588 0.025741669 0)
(1.7276152 -0.0044338601 0)
(1.7701537 -0.033903298 0)
(1.8119242 -0.062508087 0)
(1.8526802 -0.09013026 0)
(1.8922079 -0.11668724 0)
(1.9303263 -0.14212671 0)
(1.9668852 -0.1664218 0)
(2.0017636 -0.18956653 0)
(2.0348673 -0.21157179 0)
(2.0661264 -0.2324617 0)
(2.0954923 -0.25227051 0)
(2.1229359 -0.27103987 0)
(2.1484442 -0.28881661 0)
(2.1720187 -0.3056508 0)
(2.1936729 -0.32159426 0)
(2.2134301 -0.33669928 0)