/*--------------------------------*- C++ -*----------------------------------*\
| =========                 |                                                 |
| \\      /  F ield         | OpenFOAM: The Open Source CFD Toolbox           |
|  \\    /   O peration     | Version:  2312                                  |
|   \\  /    A nd           | Website:  www.openfoam.com                      |
|    \\/     M anipulation  |                                                 |
\*---------------------------------------------------------------------------*/
FoamFile
{
    version     2.0;
    format      ascii;
    arch        "LSB;label=32;scalar=64";
    class       volScalarField;
    location    "0.04";
    object      k;
}
// * * * * * * * * * * * * * * * * * * * * * * * * * * * * * * * * * * * * * //

dimensions      [0 2 -2 0 0 0 0];

internalField   nonuniform List<scalar> 
3221
(
10.906606
10.730111
10.563564
10.406788
10.259597
10.121801
9.9932108
9.8736362
9.762885
9.6607622
9.5670687
9.4816005
9.4041489
9.3344989
9.27243
9.2177158
9.1701238
9.1294158
9.0953479
9.0676711
9.046131
9.0304689
9.0204218
9.0157232
9.0160946
9.0211924
9.0309167
9.044898
9.06286
9.0845268
9.1096228
9.1378739
9.169008
9.2027556
9.2388507
9.2770314
9.3170401
9.358625
9.4015397
9.4455445
9.4904063
9.5358996
9.5818063
9.6279164
9.6740281
9.719948
9.7654913
9.8104814
9.8547503
9.8981381
9.9404917
9.9816646
10.906835
10.730894
10.56494
10.408784
10.262236
10.125107
9.997206
9.8783444
9.7683303
9.6669692
9.5740622
9.4894058
9.4127908
9.3440023
9.2828192
9.2290144
9.182354
9.1425986
9.1095024
9.0828143
9.0622778
9.0476317
9.0386102
9.034944
9.0363291
9.042484
9.0532407
9.0682472
9.0872242
9.1098918
9.1359712
9.1651848
9.197257
9.2319151
9.26889
9.3079169
9.3487356
9.3910918
9.434737
9.4794296
9.524935
9.5710262
9.6174841
9.6640982
9.710666
9.7569943
9.8028983
9.8482024
9.8927399
9.9363531
9.9788914
10.020202
10.907323
10.73241
10.567538
10.412521
10.267168
10.131288
10.004689
9.8871819
9.7785736
9.6786694
9.5872703
9.5041724
9.4291664
9.3620364
9.3025601
9.2505085
9.2056456
9.1677288
9.1365088
9.1117302
9.0931317
9.0804467
9.0734037
9.0717267
9.0750694
9.0832561
9.0959947
9.1129668
9.1338854
9.1584637
9.1864155
9.2174562
9.2513034
9.2876781
9.3263051
9.3669138
9.4092391
9.4530219
9.4980097
9.5439573
9.5906273
9.6377903
9.6852257
9.7327216
9.7800751
9.8270929
9.8735908
9.9193941
9.9643376
10.008265
10.051028
10.092473
10.908052
10.734658
10.571377
10.418028
10.274421
10.140368
10.015676
9.9001547
9.7936106
9.6958479
9.6066664
9.5258612
9.4532215
9.3885296
9.3315607
9.2820824
9.2398549
9.2046307
9.1761548
9.1541653
9.1383934
9.1285643
9.1243979
9.1255821
9.13181
9.142906
9.1585017
9.1783
9.2020028
9.2293125
9.2599321
9.2935667
9.3299242
9.3687161
9.4096585
9.4524729
9.496887
9.5426353
9.5894599
9.637111
9.6853476
9.7339375
9.7826583
9.8312971
9.879651
9.9275272
9.974743
10.021126
10.066513
10.110751
10.153695
10.195195
10.909016
10.737627
10.576441
10.425283
10.283968
10.152309
10.030117
9.9172018
9.8133683
9.71842
9.6321553
9.5543674
9.4848425
9.4233599
9.3696905
9.3235967
9.2848327
9.2531435
9.2282659
9.2099284
9.1978516
9.191749
9.1913274
9.1962029
9.2062412
9.2210582
9.240338
9.2637687
9.2910376
9.3218324
9.3558422
9.3927584
9.4322761
9.4740949
9.5179199
9.5634628
9.6104423
9.6585856
9.7076284
9.757316
9.8074036
9.8576566
9.9078513
9.9577747
10.007225
10.056011
10.103953
10.150883
10.196641
10.241081
10.284061
10.325439
10.910213
10.741319
10.58274
10.434304
10.295833
10.167145
10.048054
9.9383688
9.8378971
9.7464409
9.6637972
9.589756
9.5241002
9.4666038
9.4170318
9.3751393
9.3406715
9.3133633
9.2929398
9.2791163
9.2715993
9.2700866
9.2741993
9.2837372
9.2983579
9.3177095
9.3414633
9.3692884
9.4008536
9.4358283
9.473884
9.5146957
9.5579429
9.603311
9.6504922
9.6991869
9.7491042
9.7999631
9.8514932
9.903435
9.9555406
10.007574
10.059312
10.110542
10.161066
10.210697
10.25926
10.306593
10.352543
10.396971
10.439744
10.480727
10.911649
10.74575
10.590302
10.445136
10.31008
10.184956
10.069582
9.9637703
9.8673299
9.7800624
9.7017628
9.6322179
9.5712057
9.5184936
9.4738382
9.4369845
9.4076655
9.3856024
9.3705044
9.3620695
9.359985
9.3638656
9.3734767
9.3884763
9.4084886
9.433164
9.4621497
9.4950914
9.5316348
9.5714274
9.6141199
9.6593676
9.7068323
9.7561832
9.8070987
9.8592671
9.9123877
9.9661718
10.020343
10.074639
10.128811
10.182622
10.235852
10.288292
10.33975
10.390045
10.439011
10.486493
10.532351
10.576454
10.618681
10.658907
10.913331
10.750946
10.599173
10.457846
10.326798
10.205857
10.094845
9.9935788
9.9018691
9.8195177
9.7463177
9.6820521
9.6264923
9.5793972
9.5405123
9.509569
9.4862844
9.4703611
9.4614875
9.4593389
9.4635136
9.4737647
9.4897244
9.5109961
9.5372059
9.5679748
9.6029211
9.6416622
9.6838167
9.7290063
9.7768577
9.8270043
9.8790884
9.9327622
9.9876894
10.043547
10.100024
10.156827
10.213675
10.270304
10.326467
10.381931
10.43648
10.489914
10.542048
10.592713
10.641753
10.689027
10.734407
10.777776
10.819028
10.85805
10.915271
10.756943
10.609413
10.472522
10.346106
10.229999
10.124029
10.028018
9.941778
9.8651122
9.7978115
9.7396535
9.6904017
9.6498037
9.6175904
9.5934756
9.5771553
9.5683083
9.5665951
9.5715885
9.5830507
9.6005618
9.6237085
9.6520878
9.68529
9.7229009
9.7645042
9.8096842
9.8580281
9.9091283
9.9625851
10.018008
10.07502
10.133254
10.192362
10.252008
10.311877
10.371669
10.431105
10.489921
10.547876
10.604743
10.660318
10.71441
10.766849
10.817478
10.866158
10.912764
10.957186
10.999323
11.039087
11.076383
10.917482
10.763782
10.621097
10.48927
10.368146
10.257563
10.157358
10.067357
9.9873753
9.9172169
9.8566697
9.8055049
9.7634753
9.7303137
9.705732
9.689421
9.6810498
9.6802677
9.686603
9.6998544
9.7195233
9.7451824
9.7763953
9.812716
9.8536919
9.8988668
9.9477845
9.9999911
10.055039
10.112488
10.17191
10.232891
10.295032
10.357952
10.42129
10.484703
10.547871
10.610495
10.672299
10.733028
10.792447
10.850344
10.906528
10.960827
11.013085
11.063167
11.110952
11.156338
11.199233
11.239559
11.27725
11.312228
10.919981
10.771513
10.634308
10.508214
10.393082
10.28876
10.195091
10.111908
10.039031
9.9762639
9.9233899
9.8801717
9.8463481
9.8216326
9.8057121
9.7982471
9.7988709
9.8070945
9.8227051
9.8451557
9.8739903
9.9087343
9.9488996
9.9939885
10.043498
10.096924
10.153763
10.21352
10.275708
10.339855
10.405502
10.472212
10.539567
10.607174
10.674661
10.741685
10.807925
10.873089
10.936908
10.999141
11.05957
11.118
11.174259
11.228198
11.279685
11.328608
11.374872
11.418398
11.459121
11.496987
11.531953
11.563967
10.922785
10.780191
10.649141
10.529491
10.4211
10.323825
10.23752
10.162026
10.097166
10.042744
9.9985385
9.9642992
9.939746
9.924567
9.918417
9.9208914
9.9315582
9.9501003
9.9759693
10.008667
10.047675
10.092455
10.142458
10.197126
10.255896
10.31821
10.383513
10.451265
10.520937
10.592023
10.664039
10.736523
10.809045
10.881201
10.952618
11.022954
11.091897
11.159167
11.224513
11.287711
11.348567
11.40691
11.462597
11.515504
11.565531
11.612593
11.656625
11.697578
11.735415
11.770112
11.801652
11.83001
10.925914
10.789876
10.665701
10.553252
10.4524
10.363017
10.284968
10.218101
10.162247
10.117207
10.08275
10.058611
10.044484
10.040022
10.044782
10.058406
10.080462
10.110395
10.147664
10.191702
10.241913
10.297688
10.358403
10.42343
10.492139
10.563911
10.638137
10.714228
10.791615
10.869759
10.948151
11.026314
11.103808
11.180226
11.255201
11.328402
11.399533
11.468335
11.534579
11.598073
11.65865
11.716174
11.770533
11.82164
11.869427
11.913846
11.954865
11.992469
12.026653
12.057425
12.084798
12.108776
10.929388
10.800634
10.6841
10.579661
10.487205
10.406621
10.337788
10.280566
10.23479
10.200258
10.176728
10.163912
10.161465
10.168908
10.185973
10.212108
10.246749
10.289313
10.339174
10.395676
10.458137
10.525857
10.59813
10.674246
10.753503
10.835216
10.918718
11.003371
11.088569
11.173745
11.25837
11.341959
11.424069
11.504303
11.582307
11.657771
11.730425
11.80004
11.866424
11.929417
11.988894
12.044759
12.09694
12.14539
12.190082
12.231009
12.268177
12.301606
12.33133
12.357388
12.379829
12.398684
10.93323
10.812533
10.704455
10.608892
10.52575
10.454941
10.396363
10.34989
10.315359
10.292563
10.281242
10.281087
10.291549
10.312494
10.343237
10.383215
10.431795
10.488292
10.551978
10.622092
10.697845
10.778437
10.863064
10.950928
11.041249
11.13327
11.226269
11.319563
11.412513
11.50453
11.595075
11.683664
11.769866
11.8533
11.933641
12.01061
12.083976
12.153549
12.219182
12.280763
12.338214
12.391485
12.440553
12.485419
12.5261
12.562633
12.595068
12.623465
12.647894
12.668434
12.685164
12.698149
10.937462
10.825645
10.726894
10.641128
10.568286
10.508305
10.461107
10.42658
10.404566
10.394848
10.397121
10.410946
10.436094
10.471924
10.517828
10.573127
10.637073
10.708861
10.787637
10.872513
10.96258
11.05692
11.154623
11.254794
11.35657
11.459128
11.56169
11.663533
11.763997
11.86248
11.958448
12.051429
12.141017
12.226866
12.308688
12.386251
12.459373
12.52792
12.591797
12.65095
12.705354
12.755018
12.799972
12.840267
12.875974
12.907177
12.933971
12.956459
12.974752
12.988963
12.99921
13.005589
10.942108
10.840044
10.751545
10.676565
10.615079
10.567061
10.53246
10.511183
10.503074
10.507847
10.525195
10.554829
10.596133
10.648481
10.711153
10.783337
10.864145
10.952622
11.047765
11.148539
11.253892
11.362779
11.474172
11.587078
11.70055
11.8137
11.925705
12.035814
12.143354
12.247731
12.348427
12.445002
12.53709
12.624395
12.706683
12.783783
12.855577
12.921994
12.983006
13.038624
13.088888
13.133868
13.173654
13.208357
13.238099
13.263016
13.28325
13.298951
13.310269
13.317354
13.320362
13.319419
10.947193
10.855808
10.778543
10.715401
10.666405
10.631574
10.610893
10.604286
10.611513
10.632415
10.666678
10.713728
10.772936
10.843553
10.924708
11.015427
11.114646
11.221234
11.334009
11.451767
11.5733
11.697421
11.822979
11.948882
12.074104
12.197703
12.318821
12.436696
12.550663
12.660149
12.764676
12.863854
12.957376
13.045012
13.126601
13.202048
13.271309
13.334392
13.391345
13.442251
13.487224
13.5264
13.559936
13.588001
13.610776
13.62845
13.641215
13.64926
13.652788
13.651969
13.647053
13.638078
10.952741
10.873013
10.808026
10.757844
10.722555
10.702233
10.696904
10.706402
10.730736
10.769612
10.822521
10.888859
10.967865
11.058622
11.160074
11.271046
11.390262
11.516378
11.64801
11.78376
11.922249
12.062139
12.202159
12.341121
12.477931
12.611606
12.741275
12.866186
12.985701
13.099295
13.206552
13.307152
13.400869
13.487559
13.56715
13.639634
13.705061
13.763524
13.815157
13.860125
13.89862
13.93085
13.957039
13.977422
13.992238
14.001724
14.006138
14.005679
14.000687
13.991219
13.977602
13.959988
10.958777
10.891737
10.840132
10.804106
10.783828
10.779442
10.790887
10.818359
10.861641
10.920325
10.993868
11.081528
11.182364
11.295253
11.418905
11.551898
11.692705
11.839733
11.991366
12.145995
12.302056
12.458063
12.612625
12.764471
12.912458
13.055585
13.192993
13.323964
13.447918
13.564404
13.67309
13.773754
13.866269
13.950598
14.026772
14.094891
14.155103
14.207601
14.252612
14.290389
14.321204
14.345344
14.363101
14.374773
14.380667
14.381039
14.37631
14.366562
14.352192
14.333421
14.310509
14.283661
10.965324
10.912058
10.875001
10.854403
10.850535
10.863472
10.893614
10.940886
11.005028
11.085607
11.181946
11.29312
11.417961
11.555081
11.702907
11.859714
12.023679
12.192929
12.365585
12.539813
12.713862
12.886098
13.055028
13.219315
13.377796
13.529481
13.673552
13.809361
13.936415
14.054366
14.162995
14.262201
14.35198
14.432416
14.503666
14.565943
14.619509
14.664663
14.701731
14.731058
14.753001
14.767926
14.776193
14.778155
14.774241
14.764685
14.74987
14.730115
14.705738
14.677024
14.644247
14.607627
10.972406
10.93405
10.91277
10.908951
10.922827
10.955015
11.005649
11.074674
11.161833
11.266579
11.388057
11.525101
11.676253
11.839798
12.013812
12.196217
12.384845
12.577504
12.772034
12.966368
13.15857
13.346874
13.529706
13.705698
13.873696
14.032761
14.182157
14.321337
14.449932
14.567727
14.674647
14.770733
14.856127
14.931053
14.995802
15.050717
15.09618
15.132603
15.160414
15.180053
15.191958
15.196587
15.194362
15.18575
15.171044
15.150725
15.125162
15.094713
15.05972
15.020502
14.977342
14.930485
10.980046
10.957787
10.953575
10.967802
11.001299
11.054481
11.127555
11.220522
11.333049
11.464432
11.613575
11.779004
11.958893
12.151125
12.353353
12.563086
12.777764
12.994847
13.21188
13.426562
13.636788
13.840686
14.036636
14.223278
14.399515
14.564499
14.717619
14.858472
14.986847
15.102697
15.206114
15.297308
15.376584
15.444322
15.50096
15.546977
15.582882
15.609203
15.626475
15.63523
15.635971
15.629369
15.615657
15.595478
15.569263
15.53746
15.50049
15.458747
15.412601
15.36238
15.308396
15.250922
10.988268
10.983338
10.997385
11.031434
11.086223
11.162289
11.259976
11.379271
11.519727
11.680421
11.859942
12.056418
12.267569
12.490784
12.723219
12.961906
13.203852
13.446143
13.686029
13.920987
14.148773
14.367447
14.575389
14.7713
14.954191
15.123358
15.278357
15.418975
15.545194
15.657165
15.755177
15.839629
15.911003
15.969849
16.01676
16.052357
16.077279
16.092171
16.097675
16.094434
16.083068
16.064062
16.038045
16.005562
15.967114
15.923185
15.874231
15.820677
15.762903
15.701267
15.636106
15.567704
10.997102
11.01062
11.044568
11.100014
11.177873
11.278923
11.403585
11.551807
11.722971
11.915858
12.128649
12.358968
12.603971
12.860458
13.125007
13.394111
13.66431
13.932306
14.195062
14.449866
14.694377
14.926639
15.145096
15.34857
15.536236
15.707589
15.862404
16.000696
16.122681
16.228736
16.319368
16.395182
16.456856
16.505113
16.540707
16.564405
16.576973
16.579171
16.571854
16.555502
16.530922
16.498767
16.459657
16.414176
16.362872
16.306262
16.244836
16.179028
16.109247
16.035876
15.959259
15.879679
11.006481
11.039907
11.095211
11.173675
11.276573
11.404878
11.559082
11.739053
11.943933
12.172108
12.421226
12.688285
12.969756
13.261743
13.560164
13.860921
14.160062
14.453912
14.739175
15.012998
15.273
15.517286
15.744429
15.953442
16.14373
16.315043
16.467425
16.60116
16.716729
16.814762
16.896006
16.961285
17.011476
17.047486
17.070231
17.080624
17.079547
17.068039
17.046589
17.016198
16.977612
16.931542
16.878656
16.819581
16.754894
16.685146
16.610838
16.532434
16.450362
16.36501
16.276724
16.185794
11.016474
11.07121
11.149327
11.252599
11.382643
11.540656
11.727188
11.941969
12.183807
12.450561
12.73921
13.045972
13.366499
13.696091
14.029925
14.363273
14.691684
15.011133
15.318117
15.609705
15.883559
16.137924
16.371587
16.583825
16.774341
16.943197
17.090752
17.217598
17.324511
17.412395
17.482248
17.535125
17.572107
17.594285
17.602734
17.59855
17.582753
17.55615
17.519773
17.474507
17.421173
17.360532
17.293298
17.220135
17.141639
17.05838
16.970888
16.879644
16.785072
16.687566
16.58748
16.48511
11.027116
11.104474
11.206989
11.336952
11.496395
11.686765
11.908642
12.161542
12.443808
12.752621
13.084111
13.433553
13.795633
14.164735
14.535231
14.901739
15.259329
15.603675
15.931136
16.238796
16.524456
16.786595
17.024304
17.2372
17.425351
17.589187
17.729425
17.847
17.943003
18.018629
18.075138
18.113817
18.135952
18.142812
18.135727
18.115741
18.08393
18.041453
17.989312
17.928449
17.85974
17.783989
17.701948
17.614299
17.521668
17.424643
17.323761
17.219504
17.112304
17.002561
16.890625
16.776789
11.038384
11.139725
11.268254
11.426881
11.618129
11.843711
12.104195
12.398769
12.725156
13.079661
13.457364
13.852411
14.258372
14.668613
15.076653
15.476457
15.862663
16.230717
16.57694
16.898542
17.193575
17.460855
17.699865
17.910646
18.093693
18.249854
18.380244
18.486163
18.569038
18.630363
18.671661
18.69445
18.700217
18.690551
18.666566
18.629604
18.58097
18.521816
18.453212
18.376157
18.291572
18.200289
18.103086
18.00067
17.89369
17.782731
17.668333
17.550984
17.431117
17.309126
17.185355
17.060093
11.050267
11.176956
11.333148
11.522507
11.748125
12.011993
12.314594
12.654645
13.029042
13.432983
13.860269
14.303717
14.755632
15.20828
15.654302
16.087046
16.500791
16.89086
17.253665
17.586666
17.888286
18.157789
18.395144
18.600888
18.776004
18.921803
19.039824
19.131755
19.199365
19.24445
19.268794
19.274138
19.262352
19.234679
19.192721
19.137964
19.071727
18.995232
18.909607
18.815897
18.715051
18.607931
18.495338
18.377987
18.256531
18.131563
18.003619
17.873182
17.740682
17.6065
17.470978
17.33439
11.062749
11.216134
11.401667
11.623918
11.886639
12.192092
12.54057
12.930128
13.356583
13.813753
14.293908
14.78833
15.287928
15.783807
16.267742
16.732534
17.172206
17.5821
17.95886
18.300342
18.605466
18.874052
19.106644
19.304348
19.468684
19.601459
19.704659
19.780371
19.830705
19.857755
19.863556
19.850288
19.819389
19.77271
19.711964
19.638662
19.554192
19.45984
19.356776
19.246075
19.128716
19.005582
18.877472
18.745114
18.60916
18.470199
18.328759
18.185314
18.040283
17.894039
17.746906
17.599151
11.075806
11.257203
11.473768
11.731164
12.033891
12.384456
12.782812
13.226101
13.708759
14.222917
14.759043
15.306691
15.855264
16.39468
16.915904
17.411287
17.874746
18.301802
18.689496
19.036225
19.341537
19.605916
19.830562
20.017211
20.167961
20.285138
20.371188
20.428595
20.459808
20.467205
20.453303
20.419827
20.368853
20.302376
20.222125
20.129692
20.026519
19.913936
19.793154
19.665268
19.531267
19.392045
19.248405
19.101068
18.950683
18.797827
18.643018
18.486715
18.329325
18.171203
18.01266
17.853946
11.089402
11.300071
11.549364
11.844246
12.190057
12.589483
13.041928
13.543312
14.086332
14.661094
15.255998
15.858695
16.457009
17.039697
17.596999
18.120961
18.60557
19.046708
19.441984
19.790488
20.092524
20.349335
20.562857
20.735497
20.869963
20.969113
21.035855
21.073064
21.08351
21.070086
21.034906
20.980249
20.908456
20.821504
20.721209
20.609219
20.487027
20.355998
20.217356
20.072212
19.92156
19.76629
19.607202
19.445007
19.28034
19.113765
18.945784
18.77684
18.607321
18.437563
18.267859
18.098438
11.103492
11.344616
11.62832
11.963114
12.355253
12.807489
13.318398
13.882292
14.489728
15.128439
15.784504
16.443542
17.091776
17.716864
18.308453
18.858464
19.361153
19.812954
20.212218
20.558881
20.854118
21.100023
21.299321
21.455133
21.57079
21.649684
21.695173
21.710516
21.699007
21.663277
21.605777
21.529267
21.436023
21.328108
21.207403
21.075604
20.934236
20.784679
20.628172
20.46582
20.298614
20.127438
19.953076
19.776225
19.597503
19.417457
19.236566
19.055255
18.87389
18.692788
18.512215
18.332381
11.118017
11.390676
11.710446
12.087653
12.529516
13.038671
13.612494
14.24324
14.91889
15.624466
16.343525
17.059579
17.757281
18.423299
19.046854
19.619948
20.137307
20.596116
20.995642
21.336805
21.621761
21.853528
22.035667
22.172034
22.266586
22.323243
22.345781
22.338034
22.303263
22.244041
22.163654
22.064712
21.949585
21.820408
21.679106
21.527406
21.366851
21.198826
21.024566
20.845169
20.66161
20.474758
20.285382
20.094156
19.901676
19.708467
19.514986
19.321633
19.128755
18.936644
18.745532
18.555611
11.132904
11.438049
11.795491
12.217672
12.712777
13.283042
13.924178
14.625866
15.373078
16.147839
16.931053
17.704124
18.450221
19.155161
19.807933
20.400819
20.929225
21.391279
21.787326
22.119401
22.390736
22.60533
22.767612
22.88218
22.953612
22.986335
22.984602
22.952761
22.893306
22.810172
22.706377
22.584638
22.447398
22.296845
22.134928
21.963389
21.783775
21.597462
21.405678
21.2095
21.00988
20.807671
20.603615
20.398362
20.192483
19.986475
19.780771
19.575748
19.37173
19.168983
18.967692
18.768037
11.148068
11.486485
11.883141
12.352892
12.904819
13.540347
14.252947
15.029179
15.85062
16.696106
17.54387
18.373285
19.166152
19.907602
20.586562
21.195787
21.731558
22.193125
22.582068
22.901653
23.156262
23.350926
23.490957
23.581688
23.628301
23.635724
23.609027
23.551405
23.467022
23.359521
23.232029
23.087342
22.927955
22.756084
22.57369
22.382515
22.184096
21.979793
21.770816
21.558216
21.342913
21.125737
20.907403
20.688529
20.469662
20.251268
20.033752
19.817465
19.602711
19.389745
19.178646
18.969629
11.163405
11.535689
11.973006
12.492926
13.105219
13.80993
14.597617
15.451198
16.348583
17.265391
18.177294
19.061776
19.899407
20.67475
21.376799
21.998943
22.53851
22.996046
23.374506
23.67849
23.913599
24.085926
24.201669
24.266883
24.287319
24.268806
24.215618
24.131947
24.022277
23.89021
23.738956
23.57137
23.389978
23.19701
22.994422
22.783943
22.567091
22.345199
22.119451
21.890873
21.660334
21.428647
21.196495
20.96446
20.733059
20.502731
20.273848
20.046733
19.821669
11.178797
11.585318
12.064621
12.637243
13.313252
14.090544
14.956025
15.888568
16.862375
17.850031
18.824897
19.762764
20.64304
21.449738
22.171972
22.803872
23.343971
23.794271
24.159238
24.444904
24.658144
24.806132
24.895954
24.934359
24.927873
24.882476
24.802116
24.692301
24.557235
24.400631
24.22576
24.035508
23.832422
23.618728
23.39636
23.167026
22.932214
22.693223
22.451207
22.207169
21.961904
21.716216
21.470756
21.226059
20.98262
20.740841
20.501063
20.263577
20.028618
11.19411
11.634975
12.15743
12.785125
13.527755
14.380073
15.324607
16.336063
17.385246
18.442154
19.478224
20.467727
21.388811
22.224788
22.96481
23.603809
24.141669
24.58201
24.930954
25.19606
25.385525
25.507625
25.570322
25.581086
25.547411
25.473941
25.366643
25.230676
25.070345
24.889451
24.6913
24.478789
24.254468
24.020549
23.778932
23.531296
23.279089
23.023569
22.765848
22.506932
22.247506
21.988372
21.730158
21.473332
21.218377
20.965658
20.715481
20.468103
20.22372
11.209191
11.684212
12.250774
12.935585
13.746908
14.675121
15.697811
16.785922
17.907673
19.03121
20.126509
21.166372
22.127253
22.991349
23.747623
24.391821
24.925335
25.353603
25.684561
25.927402
26.091694
26.186831
26.221615
26.204731
26.142833
26.041538
25.907443
25.74558
25.560345
25.355606
25.134688
24.900479
24.655517
24.401991
24.141756
23.876456
23.607497
23.336085
23.063282
22.790109
22.517133
22.245139
21.974762
21.706368
21.440443
21.177312
20.917249
20.660475
20.407153
11.223872
11.732524
12.343859
13.087237
13.967896
14.970421
16.067293
17.226997
18.416643
19.603473
20.756421
21.846607
22.847799
23.740326
24.512537
25.161017
25.688894
26.103672
26.415307
26.634747
26.772995
26.840579
26.847273
26.802726
26.712185
26.583607
26.423098
26.235832
26.026262
25.798298
25.555275
25.300069
25.035175
24.76275
24.484615
24.202364
23.917357
23.630751
23.34356
23.056737
22.770873
22.486633
22.204714
21.925334
21.649001
21.376001
21.106575
20.840909
20.579138
11.237962
11.779343
12.435699
13.238067
14.186388
15.257971
16.420796
17.643653
18.894788
20.141505
21.351832
22.49463
23.539031
24.462369
25.251773
25.90479
26.426645
26.827266
27.11889
27.314374
27.426226
27.466109
27.445399
27.372459
27.254165
27.098815
26.912516
26.700552
26.467401
26.216981
25.952646
25.677249
25.39323
25.102705
24.807454
24.509022
24.20872
23.907655
23.606788
23.307006
23.008918
22.713109
22.42019
22.130454
21.844293
21.561978
21.283717
21.009668
20.739938
11.251246
11.824015
12.525013
13.385052
14.395711
15.525781
16.740595
18.01433
19.319396
20.62361
21.893644
23.095147
24.189031
25.148269
25.957969
26.617052
27.13344
27.519991
27.791551
27.963087
28.048701
28.061357
28.013776
27.912609
27.767495
27.586177
27.374926
27.139135
26.883307
26.61134
26.326599
26.031907
25.729646
25.421886
25.110357
24.796562
24.481755
24.166992
23.853183
23.541158
23.231527
22.924797
22.621522
22.322021
22.026616
21.735541
21.448976
21.167052
20.88985
11.263463
11.86576
12.61002
13.523492
14.585558
15.756043
17.014684
18.336561
19.693017
21.05164
22.377962
23.635736
24.785868
25.789439
26.624529
27.29248
27.804851
28.178113
28.430152
28.578265
28.638207
28.624887
28.550439
28.422312
28.251318
28.045025
27.809844
27.551251
27.273769
26.981281
26.677129
26.364101
26.044541
25.720459
25.393538
25.065228
24.736733
24.409053
24.083053
23.759508
23.439032
23.122034
22.809045
22.500379
22.196308
21.89703
21.602691
21.313395
21.029201
11.274269
11.903589
12.688066
13.645855
14.739901
15.947104
17.247114
18.6143
20.019321
21.429316
22.808808
24.120133
25.323455
26.378495
27.245964
27.92672
28.437286
28.798649
29.032218
29.15788
29.193172
29.155358
29.054425
28.900815
28.705095
28.475011
28.217073
27.936814
27.638801
27.326893
27.004391
26.674051
26.338177
25.99872
25.657317
25.31536
24.974006
24.634211
24.296779
23.962431
23.631819
23.305209
22.983139
22.66591
22.353749
22.046817
21.745227
21.449056
21.158345
11.283141
11.936124
12.754933
13.739742
14.861792
16.103313
17.441946
18.851436
20.302031
21.760383
23.190072
24.552176
25.80578
26.909012
27.818204
28.516562
29.028093
29.379394
29.595945
29.700502
29.712675
29.651568
29.525381
29.347737
29.128634
28.876056
28.596642
28.295962
27.978613
27.648439
27.308697
26.962109
26.610933
26.25707
25.902107
25.547384
25.19401
24.842898
24.494801
24.150361
23.810322
23.47475
23.144226
22.819027
22.499345
22.185299
21.876974
21.574418
21.277651
11.289151
11.961263
12.803553
13.806811
14.955566
16.228937
17.603172
19.051771
20.544832
22.048549
23.525556
24.935699
26.236859
27.385882
28.339033
29.060043
29.575572
29.918917
30.120217
30.205255
30.196332
30.112794
29.963281
29.76304
29.522005
29.248348
28.948817
28.629024
28.293586
27.946337
27.590494
27.228739
26.863291
26.495999
26.128406
25.761798
25.397241
25.035607
24.677606
24.323846
23.974951
23.631109
23.292754
22.960171
22.633529
22.312898
21.998337
21.689876
21.387505
11.290434
11.975494
12.828946
13.851534
15.025663
16.328147
17.734659
19.218984
20.751336
22.297455
23.818974
25.274466
26.620535
27.812747
28.806184
29.556419
30.078961
30.416576
30.604553
30.671819
30.644027
30.539089
30.368217
30.14698
29.885553
29.592295
29.274058
28.936495
28.584246
28.221132
27.850338
27.474507
27.095817
26.716074
26.336774
25.959158
25.584246
25.212873
24.845712
24.483333
24.126273
23.774781
23.4292
23.089801
22.75675
22.430045
22.109737
21.795834
21.4883
11.28296
11.97098
12.83653
13.878811
15.076571
16.404982
17.840107
19.356617
20.925057
22.510663
24.073952
25.572149
26.960538
28.193389
29.224433
30.006488
30.538406
30.872392
31.049038
31.100482
31.055778
30.931013
30.740628
30.500071
30.219844
29.908496
29.572987
29.219017
28.851241
28.473475
28.088878
27.700056
27.309148
26.917921
26.527827
26.140064
25.755614
25.37527
24.999676
24.629364
24.264807
23.906276
23.554053
23.208392
22.869474
22.537179
22.211596
21.892701
21.580432
11.269109
11.953794
12.831973
13.893757
15.11271
16.463283
17.92302
19.468059
21.069398
22.691641
24.294013
25.832313
27.260471
28.531457
29.597811
30.411737
30.954703
31.286989
31.454292
31.491858
31.432117
31.289333
31.081234
30.823053
30.525633
30.197714
29.846368
29.477345
29.095319
28.704106
28.306839
27.906094
27.503977
27.102214
26.702221
26.305155
25.911961
25.523398
25.140078
24.762501
24.391087
24.026112
23.667816
23.316421
11.250779
11.929144
12.821083
13.901531
15.138301
16.506617
17.986674
19.556536
21.18765
22.843759
24.482579
26.058393
27.523768
28.830405
29.929761
30.773843
31.329176
31.661513
31.821315
31.846931
31.773953
31.615027
31.390975
31.116849
30.803824
30.460838
30.095071
29.712329
29.31731
28.913829
28.505004
28.093382
27.681037
27.269664
26.860642
26.455094
26.053929
25.657875
25.267515
24.883317
24.505663
24.134819
23.770994
23.414359
11.229525
11.902228
12.80989
13.907141
15.157196
16.5382
18.034092
19.625108
21.282981
22.970286
24.642946
26.253655
27.753699
29.093574
30.223417
31.094464
31.663621
31.997473
32.151485
32.166986
32.082452
31.909265
31.670962
31.382525
31.055448
30.69886
30.320053
29.924893
29.518102
29.103503
28.684198
28.262712
27.841094
27.421007
27.003799
26.590562
26.182172
25.77933
25.38259
24.992393
24.609091
24.232931
23.8641
23.502722
11.206998
11.878881
12.804648
13.915185
15.1727
16.560828
18.068029
19.676663
21.358441
23.074372
24.778243
26.421181
27.953437
29.324095
30.48186
31.376553
31.960217
32.296727
32.446446
32.453532
32.35897
32.173375
31.922436
31.621256
31.281622
30.912846
30.522334
30.11601
29.698629
29.27402
28.845277
28.414906
27.984933
27.556994
27.132412
26.712248
26.297351
25.888395
25.48591
25.090313
24.701926
24.320982
23.947646
23.582007
11.185403
11.866252
12.811514
13.929461
15.187375
16.576816
18.090962
19.713917
21.416948
23.158999
24.891396
26.563956
28.125925
29.524934
30.70815
31.623787
32.221455
32.561345
32.708016
32.708262
32.605023
32.408768
32.146725
31.834294
31.483527
31.103915
30.702974
30.286691
29.859852
29.426296
28.989114
28.550796
28.113349
27.678387
27.247207
26.820846
26.400129
25.985705
25.578083
25.177655
24.784724
24.399502
24.022138
23.652696
11.16822
11.873162
12.83601
13.952467
15.202855
16.587956
18.105087
19.73943
21.461236
23.226937
24.985248
26.684685
28.273903
29.698945
30.905047
31.839272
32.449875
32.793506
32.938118
32.932997
32.822223
32.616906
32.345214
32.022936
31.662383
31.273217
30.863061
30.437964
30.002746
29.561259
29.116591
28.671222
28.227142
27.785946
27.34891
26.917049
26.491165
26.071889
25.659707
25.254994
24.85803
24.469014
24.088076
23.715264
11.161297
11.910117
12.881633
13.984823
15.219717
16.595516
18.112299
19.755539
21.493816
23.280866
25.062356
26.785829
28.400005
29.848658
31.07509
32.025783
32.647956
32.995425
33.138776
33.129455
33.012306
32.799311
32.519319
32.188504
31.819429
31.421916
31.003691
30.570866
30.128293
29.679837
29.228589
28.77702
28.327106
27.880427
27.438239
27.00154
26.571112
26.147567
25.731375
25.322892
24.922383
24.53003
24.14595
23.770177
11.175037
11.987057
12.947851
14.024787
15.237472
16.600313
18.114326
19.764341
21.517082
23.32317
25.124885
26.869834
28.506653
29.976302
31.220654
32.18581
32.818087
33.169297
33.311994
33.299411
33.176972
32.957523
32.670463
32.332325
31.955905
31.551175
31.125959
30.686428
30.237465
29.782952
29.325981
28.869017
28.414027
27.962575
27.515903
27.074991
26.640608
26.213348
25.793665
25.381902
24.978307
24.583049
24.196235
23.817887
11.230996
12.105712
13.02788
14.068244
15.254777
16.60272
18.112616
19.76782
21.533164
23.355794
25.174951
26.938907
28.595968
30.083931
31.343926
32.321615
32.962535
33.317248
33.45973
33.44464
33.317884
33.093064
32.800055
32.455711
32.073036
31.662144
31.230947
30.785669