/*--------------------------------*- C++ -*----------------------------------*\
| =========                 |                                                 |
| \\      /  F ield         | OpenFOAM: The Open Source CFD Toolbox           |
|  \\    /   O peration     | Version:  2312                                  |
|   \\  /    A nd           | Website:  www.openfoam.com                      |
|    \\/     M anipulation  |                                                 |
\*---------------------------------------------------------------------------*/
FoamFile
{
    version     2.0;
    format      ascii;
    arch        "LSB;label=32;scalar=64";
    class       volScalarField;
    location    "0.04";
    object      N2;
}
// * * * * * * * * * * * * * * * * * * * * * * * * * * * * * * * * * * * * * //

dimensions      [0 0 0 0 0 0 0];

internalField   nonuniform List<scalar> 
3221
(
0.76978396
0.76932913
0.76885098
0.76834957
0.76782501
0.76727752
0.76670739
0.76611497
0.76550071
0.76486512
0.76420881
0.76353242
0.76283668
0.76212241
0.76139046
0.76064174
0.75987725
0.75909801
0.75830512
0.75749971
0.75668297
0.75585611
0.75502042
0.75417718
0.75332775
0.75247347
0.75161577
0.75075605
0.74989576
0.74903637
0.74817936
0.7473262
0.74647839
0.74563742
0.74480479
0.74398199
0.74317049
0.74237175
0.74158723
0.74081833
0.74006647
0.73933302
0.73861929
0.73792661
0.73725622
0.73660934
0.73598715
0.73539077
0.73482127
0.73427965
0.73376685
0.7332836
0.76978169
0.76932208
0.7688389
0.76833221
0.76780213
0.7672489
0.76667282
0.76607425
0.76545366
0.76481159
0.76414863
0.76346548
0.76276286
0.76204161
0.76130259
0.76054675
0.75977508
0.75898864
0.75818853
0.7573759
0.75655195
0.75571793
0.75487511
0.75402483
0.75316842
0.75230729
0.75144283
0.7505765
0.74970974
0.74884405
0.7479809
0.7471218
0.74626825
0.74542177
0.74458384
0.74375598
0.74293966
0.74213637
0.74134755
0.74057462
0.739819
0.73908206
0.73836513
0.73766951
0.73699647
0.73634722
0.73572294
0.73512475
0.73455372
0.73401088
0.73349716
0.73301324
0.76977729
0.76930839
0.76881543
0.76829849
0.76775774
0.7671934
0.76660581
0.76599537
0.76536257
0.76470798
0.76403223
0.76333604
0.76262018
0.7618855
0.76113291
0.76036339
0.75957797
0.75877772
0.7579638
0.75713739
0.75629971
0.75545206
0.75459574
0.7537321
0.75286254
0.75198846
0.75111132
0.75023258
0.74935374
0.7484763
0.74760177
0.74673168
0.74586756
0.74501095
0.74416335
0.74332629
0.74250127
0.74168977
0.74089326
0.74011318
0.73935093
0.73860789
0.73788539
0.73718475
0.73650722
0.73585402
0.7352263
0.73462519
0.73405175
0.73350699
0.73299185
0.73250696
0.76977085
0.76928834
0.76878107
0.76824916
0.76769278
0.76711223
0.76650785
0.76588011
0.76522953
0.76455672
0.76386237
0.76314723
0.76241214
0.76165799
0.76088575
0.76009643
0.75929113
0.75847098
0.75763717
0.75679093
0.75593356
0.75506637
0.75419074
0.75330807
0.75241979
0.75152735
0.75063227
0.74973605
0.74884022
0.74794633
0.74705593
0.74617058
0.74529184
0.74442128
0.74356043
0.74271085
0.74187404
0.74105152
0.74024475
0.73945518
0.73868422
0.73793325
0.73720362
0.73649661
0.73581347
0.73515541
0.73452359
0.73391911
0.733343
0.73279627
0.73227982
0.73179427
0.76976243
0.76926214
0.76873617
0.76818469
0.76760793
0.76700621
0.76637995
0.76572966
0.76505593
0.76435942
0.76364089
0.76290116
0.76214113
0.76136176
0.7605641
0.75974922
0.75891828
0.75807249
0.7572131
0.75634143
0.75545883
0.7545667
0.75366646
0.75275958
0.75184757
0.75093194
0.75001426
0.74909609
0.74817902
0.74726464
0.74635456
0.74545038
0.7445537
0.74366611
0.74278919
0.74192451
0.7410736
0.74023798
0.73941913
0.7386185
0.73783751
0.73707753
0.73633988
0.73562586
0.73493669
0.73427357
0.73363761
0.7330299
0.73245145
0.73190324
0.73138613
0.73090072
0.76975208
0.7692299
0.76868093
0.76810538
0.76750353
0.7668758
0.76622265
0.76554468
0.76484254
0.764117
0.76336887
0.76259907
0.76180858
0.76099845
0.76016981
0.75932383
0.75846176
0.75758489
0.75669457
0.7557922
0.75487922
0.75395711
0.75302738
0.75209159
0.75115132
0.75020817
0.74926377
0.74831976
0.74737779
0.74643951
0.74550659
0.74458067
0.7436634
0.7427564
0.74186129
0.74097965
0.74011304
0.73926298
0.73843096
0.73761843
0.73682679
0.7360574
0.73531157
0.73459056
0.73389558
0.73322778
0.73258825
0.73197804
0.73139813
0.73084944
0.7303328
0.72984876
0.7697398
0.76919166
0.76861539
0.76801128
0.76737969
0.76672111
0.7660361
0.76532535
0.76458962
0.76382974
0.76304667
0.7622414
0.76141504
0.76056873
0.75970372
0.75882128
0.75792278
0.75700961
0.75608324
0.75514518
0.75419697
0.7532402
0.75227648
0.75130748
0.75033487
0.74936035
0.74838562
0.74741241
0.74644244
0.74547744
0.74451913
0.7435692
0.74262936
0.74170125
0.74078651
0.73988676
0.73900355
0.73813842
0.73729283
0.73646824
0.73566601
0.73488749
0.73413395
0.73340662
0.73270665
0.73203516
0.73139319
0.73078174
0.73020173
0.72965403
0.72913942
0.7286584
0.76972559
0.76914738
0.76853949
0.76790229
0.76723625
0.76654195
0.76582009
0.76507144
0.76429688
0.76349738
0.76267401
0.76182791
0.76096029
0.76007244
0.75916573
0.75824158
0.75730148
0.75634697
0.75537964
0.75440112
0.7534131
0.75241729
0.75141543
0.75040929
0.74940068
0.74839137
0.7473832
0.74637796
0.74537746
0.74438351
0.74339787
0.74242232
0.74145856
0.7405083
0.7395732
0.73865486
0.73775486
0.73687469
0.73601584
0.7351797
0.73436761
0.73358088
0.73282073
0.73208832
0.73138477
0.73071112
0.73006835
0.7294574
0.72887912
0.72833431
0.72782369
0.72734768
0.76970941
0.76909695
0.76845304
0.76777813
0.76707284
0.76633787
0.76557404
0.76478227
0.76396359
0.7631191
0.76225003
0.76135767
0.76044339
0.75950864
0.75855494
0.75758388
0.7565971
0.75559631
0.75458326
0.75355973
0.75252756
0.75148861
0.75044478
0.74939796
0.74835008
0.74730305
0.7462588
0.74521923
0.74418624
0.7431617
0.74214743
0.74114526
0.74015693
0.73918417
0.73822864
0.73729193
0.73637561
0.73548115
0.73460998
0.73376346
0.73294288
0.73214947
0.73138439
0.73064873
0.72994353
0.72926976
0.72862831
0.72802004
0.72744572
0.72690607
0.72640173
0.72593305
0.7696912
0.7690402
0.76835571
0.76763835
0.76688886
0.76610811
0.76529706
0.76445681
0.76358855
0.76269358
0.76177329
0.76082915
0.75986272
0.75887566
0.75786966
0.7568465
0.75580802
0.75475612
0.75369272
0.7526198
0.75153937
0.75045348
0.74936416
0.74827349
0.74718352
0.7460963
0.74501386
0.74393822
0.74287135
0.74181519
0.74077164
0.73974253
0.73872965
0.73773471
0.73675937
0.7358052
0.73487372
0.73396637
0.7330845
0.7322294
0.7314023
0.73060432
0.72983655
0.72909999
0.72839557
0.72772416
0.72708657
0.72648355
0.72591577
0.72538387
0.72488839
0.7244296
0.7696709
0.76897688
0.7682471
0.76748234
0.76668351
0.76585164
0.76498792
0.76409363
0.76317015
0.76221901
0.7612418
0.76024021
0.75921605
0.75817116
0.75710748
0.75602703
0.75493185
0.75382406
0.75270582
0.75157932
0.75044676
0.7493104
0.74817245
0.74703515
0.74590072
0.74477133
0.74364914
0.74253626
0.74143476
0.74034663
0.7392738
0.73821813
0.7371814
0.73616532
0.7351715
0.73420147
0.73325667
0.73233848
0.73144815
0.73058688
0.7297558
0.72895592
0.72818821
0.72745355
0.72675278
0.72608663
0.7254558
0.72486093
0.72430258
0.72378128
0.72329747
0.72285132
0.76964842
0.7689067
0.76812668
0.76730932
0.76645575
0.7655672
0.76464508
0.76369091
0.76270633
0.76169309
0.76065305
0.75958816
0.75850049
0.75739214
0.75626534
0.75512234
0.75396548
0.75279712
0.75161967
0.75043558
0.7492473
0.74805726
0.7468679
0.74568165
0.74450087
0.7433279
0.74216499
0.74101436
0.73987813
0.73875835
0.73765696
0.73657582
0.73551668
0.73448119
0.73347092
0.7324873
0.73153169
0.73060533
0.72970939
0.72884494
0.72801295
0.72721432
0.72644988
0.72572038
0.72502649
0.72436884
0.72374799
0.72316443
0.72261863
0.72211099
0.72164183
0.72121122
0.76962363
0.76882928
0.7679938
0.76711837
0.76620435
0.76525323
0.76426668
0.76324649
0.7621946
0.76111305
0.760004
0.75886972
0.75771256
0.75653498
0.75533949
0.75412866
0.75290514
0.7516716
0.75043076
0.7491853
0.74793796
0.74669142
0.74544832
0.74421129
0.74298285
0.74176547
0.74056154
0.73937332
0.73820299
0.7370526
0.73592411
0.73481932
0.73373993
0.73268751
0.7316635
0.73066924
0.72970595
0.72877473
0.7278766
0.72701246
0.72618313
0.72538935
0.72463179
0.72391103
0.7232276
0.72258197
0.72197455
0.7214057
0.72087574
0.72038494
0.71993352
0.71952144
0.7695964
0.7687442
0.76784772
0.76690839
0.76592785
0.7649079
0.7638505
0.76275779
0.76163203
0.76047562
0.75929108
0.75808103
0.75684821
0.75559543
0.75432557
0.75304159
0.75174648
0.75044328
0.74913501
0.74782469
0.74651533
0.74520988
0.74391121
0.74262214
0.74134535
0.74008343
0.73883886
0.73761396
0.73641091
0.73523176
0.73407839
0.73295254
0.7318558
0.73078961
0.72975528
0.72875398
0.72778675
0.72685453
0.72595813
0.72509828
0.7242756
0.72349066
0.72274393
0.72203581
0.72136666
0.72073678
0.72014642
0.71959579
0.71908508
0.71861441
0.71818387
0.71779333
0.76956659
0.76865097
0.76768756
0.76667811
0.76562457
0.76452909
0.76339402
0.76222185
0.76101525
0.75977705
0.75851018
0.75721769
0.75590276
0.75456863
0.75321864
0.75185616
0.7504846
0.74910738
0.74772792
0.74634958
0.74497567
0.74360941
0.74225393
0.7409122
0.73958708
0.73828124
0.73699721
0.73573733
0.73450376
0.73329847
0.73212324
0.73097969
0.72986924
0.72879316
0.72775257
0.72674843
0.72578157
0.72485271
0.72396244
0.72311127
0.72229961
0.7215278
0.72079611
0.72010475
0.71945388
0.71884363
0.71827408
0.71774528
0.71725726
0.71681002
0.71640351
0.71603747
0.76953402
0.76854901
0.76751234
0.76642609
0.76529259
0.76411441
0.76289431
0.76163526
0.76034041
0.75901304
0.75765662
0.7562747
0.75487096
0.75344918
0.75201319
0.75056687
0.7491141
0.74765875
0.74620465
0.74475554
0.74331506
0.74188672
0.74047384
0.7390796
0.73770694
0.73635862
0.73503717
0.73374487
0.73248382
0.73125584
0.73006257
0.72890543
0.72778563
0.72670422
0.72566205
0.72465984
0.72369817
0.72277749
0.72189815
0.72106039
0.72026439
0.71951025
0.71879801
0.71812768
0.71749922
0.71691256
0.71636761
0.71586425
0.71540236
0.71498181
0.71460241
0.71426379
0.76949849
0.7684377
0.76732094
0.76615068
0.76492972
0.7636611
0.76234809
0.76099421
0.75960314
0.75817878
0.75672516
0.75524646
0.75374697
0.75223106
0.75070316
0.74916772
0.74762917
0.74609187
0.7445601
0.74303801
0.74152958
0.74003856
0.73856852
0.73712273
0.73570422
0.73431575
0.7329598
0.73163855
0.73035392
0.72910756
0.72790086
0.72673499
0.7256109
0.72452932
0.72349082
0.72249583
0.7215446
0.72063731
0.719774
0.71895465
0.71817917
0.7174474
0.71675916
0.71611422
0.71551232
0.71495322
0.71443663
0.71396228
0.7135299
0.71313922
0.71278993
0.71248153
0.76945978
0.76831632
0.76711208
0.76585005
0.76453351
0.76316609
0.76175166
0.76029437
0.75879859
0.75726887
0.75570998
0.75412681
0.75252437
0.75090773
0.74928201
0.74765231
0.74602367
0.744401
0.74278907
0.74119243
0.73961539
0.73806196
0.73653584
0.73504041
0.73357869
0.73215338
0.73076681
0.72942099
0.72811759
0.72685797
0.72564324
0.72447422
0.72335152
0.72227552
0.72124645
0.72026437
0.71932922
0.71844081
0.7175989
0.71680315
0.71605319
0.71534859
0.71468891
0.71407371
0.71350252
0.71297488
0.71249035
0.71204848
0.71164886
0.71129109
0.71097478
0.71069932
0.76941766
0.76818406
0.76688437
0.76552212
0.76410121
0.76262592
0.76110087
0.75953094
0.75792129
0.75627732
0.75460463
0.75290895
0.75119614
0.7494721
0.74774272
0.74601385
0.7442912
0.74258027
0.74088634
0.73921437
0.73756895
0.73595431
0.73437422
0.73283208
0.73133083
0.729873
0.72846069
0.72709561
0.72577911
0.72451219
0.72329555
0.72212961
0.72101457
0.71995041
0.71893694
0.71797384
0.71706066
0.71619687
0.71538186
0.714615
0.7138956
0.71322298
0.71259643
0.71201527
0.71147883
0.71098646
0.71053752
0.71013144
0.70976766
0.70944566
0.70916495
0.70892485
0.76937184
0.76804004
0.76663623
0.76516457
0.76362971
0.76203673
0.76039107
0.75869852
0.75696522
0.75519752
0.75340203
0.75158549
0.74975472
0.74791658
0.74607789
0.74424529
0.74242522
0.74062383
0.73884689
0.73709971
0.73538716
0.73371356
0.73208272
0.73049792
0.7289619
0.72747693
0.72604474
0.72466666
0.7233436
0.72207608
0.72086434
0.71970831
0.71860771
0.71756206
0.71657071
0.7156329
0.7147478
0.71391447
0.71313196
0.7123993
0.7117155
0.71107959
0.71049063
0.70994769
0.70944989
0.70899641
0.70858644
0.70821926
0.70789418
0.70761057
0.70736786
0.70716529
0.76932203
0.76788326
0.76636588
0.76477482
0.76311559
0.76139418
0.75961708
0.75779117
0.75592369
0.75402219
0.75209444
0.75014837
0.74819195
0.74623315
0.74427977
0.74233937
0.74041918
0.73852596
0.73666594
0.73484478
0.73306749
0.7313384
0.72966121
0.72803897
0.72647409
0.72496842
0.72352323
0.72213931
0.72081701
0.71955632
0.71835689
0.7172181
0.71613913
0.71511898
0.71415651
0.7132505
0.71239967
0.71160271
0.71085827
0.71016506
0.70952179
0.70892721
0.70838013
0.7078794
0.70742395
0.70701276
0.70664489
0.70631948
0.70603572
0.70579289
0.70559032
0.70543026
0.7692679
0.76771261
0.76607136
0.76434997
0.76255495
0.76069345
0.75877315
0.75680225
0.75478933
0.75274333
0.75067343
0.74858895
0.74649919
0.74441335
0.74234037
0.74028879
0.73826661
0.7362812
0.73433922
0.73244653
0.73060816
0.72882834
0.72711048
0.72545726
0.72387058
0.72235173
0.72090135
0.7195196
0.71820615
0.71696033
0.71578115
0.71466735
0.71361753
0.7126301
0.71170342
0.71083578
0.71002544
0.70927068
0.7085698
0.70792117
0.70732319
0.70677435
0.70627323
0.70581847
0.70540881
0.70504307
0.70472016
0.70443911
0.70419902
0.70399907
0.70384159
0.7037209
0.76920907
0.76752687
0.76575047
0.76388677
0.76194351
0.75992916
0.75785289
0.75572443
0.753554
0.7513522
0.74912987
0.74689794
0.74466726
0.74244841
0.74025156
0.73808626
0.73596129
0.73388457
0.73186304
0.72990265
0.72800828
0.72618387
0.72443237
0.72275587
0.72115561
0.71963213
0.7181853
0.7168145
0.71551864
0.71429627
0.71314568
0.71206494
0.71105197
0.71010463
0.70922069
0.70839796
0.70763425
0.70692742
0.70627542
0.70567628
0.70512812
0.7046292
0.70417784
0.70377253
0.70341183
0.70309438
0.70281901
0.70258462
0.70239025
0.70223799
0.7021224
0.70204338
0.76914514
0.76732464
0.76540074
0.76338161
0.76127644
0.75909532
0.75684916
0.75454959
0.75220877
0.74983928
0.74745391
0.74506548
0.74268657
0.74032931
0.73800517
0.73572469
0.73349741
0.73133165
0.7292345
0.72721176
0.72526799
0.72340659
0.72162985
0.71993902
0.71833451
0.71681591
0.71538221
0.71403184
0.71276285
0.71157294
0.7104596
0.70942016
0.70845189
0.707552
0.70671772
0.70594633
0.70523522
0.70458184
0.70398379
0.70343878
0.7029447
0.70249954
0.70210145
0.70174875
0.70143986
0.70117323
0.70094763
0.7007619
0.70061785
0.70050998
0.70043868
0.7004035
0.76907564
0.7671044
0.76501944
0.76283044
0.76054835
0.75818521
0.75575406
0.75326876
0.75074384
0.74819422
0.74563499
0.74308113
0.74054716
0.73804688
0.7355931
0.73319734
0.73086971
0.72861881
0.72645161
0.72437354
0.72238856
0.72049928
0.71870703
0.71701206
0.71541367
0.71391038
0.7125001
0.71118023
0.70994783
0.70879969
0.70773245
0.70674267
0.70582691
0.70498176
0.70420389
0.7034901
0.70283731
0.70224261
0.70170328
0.70121674
0.70078063
0.70039275
0.70005106
0.69975379
0.69949928
0.69928561
0.69911169
0.69897895
0.69888183
0.69882104
0.69879587
0.69880534
0.76900007
0.76686442
0.76460346
0.76222871
0.7597532
0.75719134
0.75455875
0.75187203
0.74914847
0.74640582
0.74366182
0.7409339
0.73823875
0.73559192
0.73300751
0.73049793
0.72807368
0.72574332
0.72351345
0.72138882
0.71937249
0.71746593
0.71566928
0.71398149
0.71240058
0.71092381
0.70954787
0.70826902
0.70708324
0.70598636
0.70497413
0.70404233
0.70318679
0.70240349
0.70168856
0.7010383
0.70044925
0.69991814
0.69944193
0.69901781
0.69864319
0.69831573
0.69803318
0.69779372
0.69759605
0.69743694
0.6973187
0.69723555
0.69718838
0.6971761
0.69719757
0.69725235
0.76891786
0.76660277
0.76414936
0.76157131
0.75888421
0.75610535
0.75325346
0.75034844
0.74741094
0.74446198
0.7415224
0.73861237
0.7357509
0.73295533
0.73024097
0.72762087
0.72510566
0.72270353
0.72042032
0.71825975
0.71622356
0.71431182
0.71252313
0.71085492
0.70930372
0.70786535
0.70653515
0.70530815
0.70417921
0.70314314
0.70219479
0.70132913
0.70054131
0.6998267
0.6991809
0.69859979
0.69807951
0.69761648
0.69720739
0.69684919
0.69653919
0.69627494
0.69605376
0.69587384
0.69573601
0.69563399
0.69556845
0.69553803
0.69554186
0.69557828
0.69564754
0.69574809
0.76882838
0.7663173
0.76365322
0.76085248
0.75793375
0.75491784
0.75182727
0.74868593
0.74551845
0.74234971
0.73920406
0.73610472
0.7330731
0.73012827
0.72728659
0.72456141
0.72196309
0.719499
0.71717382
0.71498978
0.71294692
0.71104351
0.70927634
0.70764106
0.70613252
0.70474494
0.70347224
0.70230812
0.70124627
0.70028048
0.6994047
0.6986131
0.69790017
0.69726071
0.69668985
0.69618306
0.69573616
0.69534526
0.69500684
0.69471761
0.69447486
0.69427644
0.6941184
0.69400222
0.69392198
0.69387732
0.69386727
0.69389003
0.69394523
0.6940316
0.69414842
0.69429475
0.76873093
0.76600555
0.76311063
0.76006569
0.75689322
0.75361828
0.75026805
0.74687119
0.74345709
0.74005508
0.7366935
0.73339882
0.73019489
0.72710235
0.72413823
0.72131579
0.71864457
0.71613063
0.71377697
0.71158379
0.70954904
0.70766881
0.70593778
0.70434961
0.70289725
0.70157325
0.70036997
0.69927979
0.6982952
0.69740896
0.69661413
0.69590417
0.69527291
0.69471463
0.69422404
0.69379627
0.69342686
0.69311164
0.69284702
0.69262926
0.69245568
0.69232608
0.69223389
0.69217874
0.69215888
0.69217246
0.69221814
0.69229509
0.692402
0.69253802
0.69270242
0.69289437
0.76862471
0.76566477
0.76251658
0.75920357
0.75575289
0.75219485
0.74856227
0.74488956
0.74121174
0.73756327
0.73397684
0.73048238
0.72710606
0.72386976
0.7207907
0.71788144
0.71515009
0.71260081
0.71023424
0.70804811
0.70603776
0.70419677
0.70251744
0.70099118
0.69960896
0.69836152
0.69723964
0.69623433
0.69533692
0.69453917
0.69383331
0.69321209
0.69266879
0.69219721
0.69179168
0.69144708
0.69115882
0.69092225
0.69073427
0.69058991
0.69048962
0.690427
0.69040087
0.69040939
0.69045026
0.69052272
0.6906248
0.69075561
0.69091416
0.69109963
0.69131134
0.69154854
0.76850882
0.76529181
0.76186537
0.75825772
0.75450175
0.75063424
0.74669485
0.74272493
0.73876605
0.7348585
0.73103972
0.72734307
0.7237968
0.7204235
0.7172399
0.71425712
0.71148114
0.70891342
0.70655165
0.70439047
0.70242222
0.70063761
0.69902626
0.69757723
0.69627933
0.69512147
0.69409283
0.69318308
0.69238241
0.69168165
0.69107226
0.69054637
0.69009675
0.68971681
0.68940052
0.68914265
0.6889388
0.68878297
0.68867466
0.68860613
0.68857707
0.68858421
0.68862464
0.6886974
0.68879991
0.68893098
0.68908922
0.68927369
0.68948355
0.68971805
0.68997655
0.69025841
0.76838225
0.7648831
0.76115048
0.75721855
0.75312729
0.74892142
0.74464897
0.74035954
0.73610235
0.73192415
0.7278674
0.72396871
0.7202579
0.71675755
0.71348303
0.71044314
0.7076408
0.705074
0.70273674
0.70062007
0.69871285
0.69700261
0.69547612
0.6941199
0.69292056
0.69186516
0.69094132
0.69013739
0.68944254
0.68884672
0.68834071
0.68791614
0.68756527
0.68728134
0.68705783
0.68688942
0.68677344
0.68670142
0.68667138
0.68667989
0.68672377
0.68680126
0.68690919
0.68704602
0.68720989
0.6873994
0.68761332
0.68785094
0.68811156
0.68839445
0.68869901
0.68902474
0.76824386
0.76443452
0.76036442
0.75607506
0.75161522
0.74703942
0.74240585
0.73777394
0.73320163
0.72874277
0.72444486
0.72034739
0.71648096
0.7128671
0.7095188
0.70644143
0.70363386
0.7010897
0.69879862
0.69674746
0.69492127
0.69330409
0.69187968
0.69063193
0.68954527
0.68860491
0.68779697
0.68710858
0.68652799
0.68604445
0.68564804
0.68533011
0.68508234
0.68489827
0.68477039
0.68469585
0.68466684
0.6846794
0.68472981
0.68481588
0.68493388
0.68508163
0.68525674
0.68545749
0.68568229
0.68592974
0.68619855
0.68648853
0.68679917
0.68712963
0.6874793
0.68784792
0.76809231
0.76394134
0.75949856
0.75481459
0.74994921
0.74496901
0.73994453
0.73494674
0.73004348
0.72529614
0.72075703
0.71646776
0.71245859
0.70874877
0.70534758
0.70225571
0.69946686
0.69696939
0.6947479
0.69278457
0.69106022
0.68955524
0.68825025
0.68712652
0.68616631
0.68535307
0.68467155
0.68410775
0.68364915
0.68328452
0.68300308
0.68279656
0.68265523
0.68257467
0.68254531
0.682564
0.68262459
0.68272253
0.68285437
0.68301796
0.68320986
0.68342773
0.68366953
0.68393365
0.68421871
0.6845234
0.68484585
0.68518714
0.68554694
0.68592406
0.68631764
0.68672798
0.76792611
0.7633981
0.75854286
0.75342249
0.74811047
0.74268836
0.73724157
0.73185456
0.72660613
0.72156538
0.71678887
0.71231915
0.70818466
0.70440081
0.70097158
0.69789158
0.69514819
0.69272361
0.69059672
0.68874455
0.68714346
0.68577003
0.68460171
0.6836172
0.68279668
0.68212202
0.68157671
0.68114572
0.68081596
0.68057624
0.68041402
0.68032347
0.68029228
0.68031508
0.68038599
0.68050024
0.680652
0.68083487
0.68104766
0.68128888
0.68155424
0.68184161
0.68214927
0.68247584
0.68282026
0.68318159
0.68355564
0.68394696
0.68435514
0.68477796
0.68521386
0.68566461
0.76774352
0.7627984
0.75748562
0.7518817
0.74607736
0.74017262
0.73427077
0.72847179
0.72286636
0.71753109
0.71252567
0.70789191
0.70365459
0.6998233
0.69639498
0.69335662
0.6906881
0.68836459
0.68635864
0.68464176
0.68318567
0.68196307
0.68094833
0.68011769
0.6794494
0.67892392
0.67852381
0.67823292
0.67803772
0.67792871
0.67789016
0.6779163
0.67799759
0.67812601
0.6782986
0.67850883
0.67875288
0.67901934
0.67931204
0.67963107
0.67996897
0.6803248
0.68069716
0.68108491
0.68148745
0.68190568
0.68232759
0.68276756
0.68322376
0.68369153
0.6841674
0.68465706
0.76754253
0.76213476
0.75631307
0.75017227
0.74382479
0.73739342
0.73100278
0.72477048
0.7187996
0.71317347
0.70795318
0.70317763
0.69886552
0.69501838
0.69162407
0.68866047
0.68609874
0.6839062
0.68204857
0.68049161
0.67920228
0.67814947
0.67730461
0.67664175
0.6761373
0.67577063
0.67552391
0.67537937
0.67532528
0.67534858
0.67543561
0.67558252
0.67577891
0.67601168
0.67628694
0.6765928
0.67692565
0.67727946
0.67765359
0.6780468
0.67845551
0.67887839
0.67931398
0.67976127
0.68021975
0.68068888
0.68116478
0.6816526
0.68215269
0.68266536
0.68317696
0.68370396
0.76732078
0.76139833
0.75500893
0.74827074
0.74132358
0.73431833
0.7274048
0.72072014
0.71437987
0.70847249
0.70305798
0.69816944
0.69381663
0.68999038
0.68666744
0.68381491
0.68139416
0.67936393
0.67768272
0.67631044
0.67520937
0.6743447
0.67368517
0.67320307
0.672873
0.67267351
0.67258772
0.67259507
0.6726834
0.67284467
0.67305844
0.67332754
0.67363681
0.67397993
0.67435522
0.6747558
0.67517757
0.67561636
0.67607011
0.67653684
0.67701463
0.67750299
0.6780001
0.67850515
0.67901787
0.67953777
0.68006356
0.68059734
0.68113974
0.76707551
0.76057856
0.75355379
0.7461493
0.73853964
0.73091014
0.72344004
0.71628759
0.70957989
0.70340807
0.69782766
0.69286229
0.68850932
0.68474609
0.68153602
0.67883391
0.67659028
0.67475477
0.67327843
0.67211539
0.67122353
0.6705644
0.67010451
0.66981517
0.66966873
0.66964502
0.66972335
0.66988653
0.6701219
0.67042056
0.67076718
0.67115725
0.67157922
0.67203055
0.672506
0.67300025
0.67350988
0.67403171
0.67456326
0.67510202
0.6756466
0.67619881
0.67675557
0.67731635
0.67788153
0.6784508
0.67902377
0.67960152
0.68018459
0.76680346
0.75966279
0.75192429
0.7437748
0.73543291
0.72712605
0.71906724
0.71143668
0.70437103
0.69796035
0.69225119
0.68725322
0.68294754
0.67929493
0.6762433
0.67373366
0.6717049
0.67009715
0.66885406
0.66792424
0.66726167
0.66682428
0.6665768
0.66649133
0.66653631
0.6666922
0.66693969
0.66726435
0.66764871
0.6680855
0.66856355
0.66907598
0.66960853
0.67016702
0.67074165
0.67132786
0.6719236
0.67252643
0.67313385
0.67374312
0.67435097
0.67496576
0.67558015
0.67619426
0.67680996
0.67742678
0.67804467
0.67866439
0.67928653
0.76650074
0.75863567
0.75009213
0.74110743
0.73195613
0.72291667
0.71424004
0.70612807
0.69872341
0.69210985
0.68631916
0.68134171
0.67713804
0.67364917
0.67080534
0.66853259
0.66675758
0.66541084
0.66442882
0.66375511
0.66334094
0.66313996
0.66311735
0.66324182
0.6634841
0.66382802
0.66424798
0.66473529
0.66526796
0.66584362
0.66645209
0.66708847
0.66772602
0.668392
0.6690641
0.66973979
0.67041935
0.67110085
0.67178177
0.6724615
0.67312619
0.67380345
0.67447362
0.6751378
0.67580214
0.67646452
0.67712517
0.67778486
0.67844428
0.76616266
0.75747837
0.74802266
0.73809905
0.72805324
0.71822478
0.70890618
0.70031878
0.69260581
0.68583765
0.6800241
0.67513007
0.67109074
0.66782414
0.66524096
0.66325135
0.66176956
0.66071674
0.6600226
0.65962628
0.6594786
0.65952688
0.65973541
0.66008052
0.66052679
0.66106111
0.66165295
0.66230669
0.66298456
0.6636988
0.66443552
0.66518799
0.66594296
0.66670833
0.66747489
0.66823651
0.66899722
0.66975488
0.67050532
0.67124768
0.67197975
0.67271258
0.67343661
0.67414517
0.67485684
0.67556266
0.67626398
0.67696161
0.67765636
0.76578356
0.7561676
0.74567305
0.73469098
0.72365731
0.71298377
0.7030064
0.69396171
0.68598555
0.67912557
0.6733609
0.66862383
0.66481905
0.66183847
0.65957175
0.65791278
0.65676365
0.65603677
0.65565581
0.65555865
0.65568808
0.65599675
0.65644937
0.65701971
0.65767028
0.65840082
0.6591589
0.65997336
0.66080795
0.66166159
0.66251753
0.66338622
0.66425167
0.66511581
0.66597504
0.66681773
0.66765688
0.66848879
0.66930529
0.67010952
0.67090168
0.67168683
0.67246006
0.67322537
0.67397345
0.67471967
0.67545961
0.67619314
0.67692116
0.7653565
0.7546741
0.74298976
0.73081111
0.71868796
0.70711553
0.69647297
0.68700474
0.67882821
0.67195637
0.66632721
0.6618323
0.65834031
0.65571428
0.65382212
0.65254176
0.65176403
0.65139364
0.65135044
0.65156437
0.65198849
0.65256913
0.6532675
0.65407032
0.65492068
0.65584378
0.65678189
0.65775266
0.65873719
0.65973048
0.66069792
0.66168342
0.66265434
0.66361442
0.66456592
0.66548206
0.66639731
0.6673027
0.66818091
0.66904452
0.66989235
0.67072759
0.67154852
0.67235742
0.67315178
0.67394198
0.67471048
0.67547785
0.67623691
0.76487288
0.75296069
0.7399051
0.72637001
0.71304789
0.70052767
0.68922889
0.67939215
0.67110033
0.66431656
0.65892549
0.65476952
0.65167625
0.64947746
0.64801932
0.64716512
0.64679602
0.6468111
0.64712144
0.64766731
0.64839683
0.64925555
0.65019885
0.65122901
0.652296
0.65341247
0.65451664
0.65564416
0.65677471
0.65789458
0.65899115
0.66008101
0.66115173
0.66220297
0.66323439
0.66423597
0.66522301
0.66619732
0.66713028
0.66805077
0.6689508
0.66983371
0.67069982
0.67155056
0.67238591
0.67321094
0.6740234
0.67481521
0.67560166
0.76432196
0.75097929
0.73633235
0.72125564
0.70661804
0.6931125
0.68119074
0.67106908
0.66277397
0.65620023
0.65116594
0.6474562
0.64485373
0.64315781
0.64219335
0.64181137
0.64188536
0.64230724
0.64299841
0.64388158
0.64492701
0.64605264
0.64726067
0.64852639
0.6497909
0.65109138
0.65237754
0.65365771
0.65492448
0.65616893
0.65738451
0.65857764
0.65974366
0.66088195
0.6619921
0.66307084
0.66412575
0.66515833
0.66616199
0.66712944
0.66807574
0.66900332
0.66991198
0.67080225
0.67167506
0.67253372
0.67337852
0.67421087
0.67501439
0.76369007
0.74866667
0.73215892
0.71532602
0.69925494
0.68474958
0.67227249
0.66198523
0.65382974
0.6476115
0.64306851
0.63992144
0.6379058
0.63678907
0.63637678
0.63650908
0.63705534
0.63791467
0.6389977
0.64022104
0.64157677
0.64300333
0.64445485
0.64594147
0.64742666
0.64890555
0.65035918
0.6517878
0.65318724
0.65455229
0.65587973
0.65717249
0.65842938
0.65965051
0.66083622
0.66198626
0.66310515
0.66419461
0.66525225
0.66627759
0.66727663
0.66823415
0.66918296
0.67011029
0.67101765
0.67190807
0.67278313
0.673647
0.67447949
0.76295957
0.74593791
0.72723625
0.70840218
0.69079032
0.67530772
0.66238916
0.65209881
0.64426022
0.63856696
0.63466431
0.63220338
0.6308722
0.63040916
0.63060222
0.63128798
0.63234077
0.63365131
0.63511851
0.63670576
0.63838961
0.64007805
0.64180012
0.64351048
0.64519585
0.64685059
0.64846439
0.65003591
0.65156317
0.65304379
0.65447686
0.65586457
0.65720763
0.65850716
0.65976447
0.66098087
0.66215988
0.66330356
0.66441193
0.66548687
0.66653393
0.66753438
0.66851103
0.66947257
0.67041178
0.67133178
0.67223446
0.67312201
0.67399005
0.76210712
0.74267636
0.72136678
0.70026145
0.68102999
0.66464855
0.65146217
0.64138161
0.63407368
0.62909791
0.62599672
0.62434938
0.62379906
0.62405671
0.62490658
0.62618665
0.62776375
0.62951643
0.63141349
0.63335128
0.63533815
0.63732979
0.63929671
0.64122404
0.64310246
0.64492764
0.6466945
0.64840257
0.65005184
0.65164233
0.65317499
0.65465242
0.65607671
0.65745002
0.6587746
0.66005281
0.661288
0.66248274
0.66363843
0.66475757
0.66584301
0.66689374
0.66790239
0.66888691
0.66985537
0.67080277
0.67173098
0.67264172
0.67353393
0.76110097
0.73871773
0.71428707
0.69062944
0.66975489
0.65263272
0.63942649
0.62982477
0.62329792
0.61925245
0.61712206
0.61641597
0.61673393
0.61777842
0.61933478
0.62123208
0.62332277
0.62557538
0.6278574
0.63016975
0.63247948
0.63474336
0.6369484
0.63908528
0.64114886
0.64313741
0.64504979
0.64688739
0.64865222
0.65034639
0.65197255
0.65353419
0.65503457
0.65647687
0.65786423
0.65919985
0.66048729
0.66172962
0.6629292
0.66408886
0.66521119
0.66629784
0.667352
0.66835507
0.66934621
0.67031894
0.67127075
0.67220342
0.67311774
0.75989617
0.73382649
0.7056462
0.67917235
0.65672608
0.63912968
0.62623992
0.61744527
0.61198391
0.60909696
0.60810978
0.60846255
0.60973592
0.61162949
0.61392016
0.61642244
0.61909923
0.62179222
0.62450678
0.62718511
0.62979709
0.63232433
0.63475872
0.63709626
0.63933612
0.64147983
0.64352966
0.64548927
0.6473627
0.64915402
0.65086747
0.65250762
0.65407882
0.65558522
0.65703081
0.6584195
0.65975526
0.66104165
0.66228172
0.66347865
0.66463538
0.66575493
0.66684369
0.66787762
0.75842626
0.72765743
0.69497567
0.66549275
0.64169587
0.62403184
0.61189412
0.60429253
0.60020883
0.59871683
0.59903549
0.60056243
0.60287685
0.60565183
0.60866045
0.61185643
0.61504655
0.6182426
0.62137026
0.62439196
0.62729677
0.63007668
0.63272988
0.63525786
0.63766424
0.63995404
0.64213275
0.64420641
0.64618114
0.64806283
0.64985725
0.6515701
0.65320679
0.65477237
0.65627163
0.65770913
0.65908931
0.6604162
0.66169341
0.6629245
0.6641128
0.66526181
0.6663758
0.66744965
0.75658598
0.71969147
0.68165389
0.64913395
0.6244277
0.60727308
0.59642693
0.59045442
0.58807807
0.58821027
0.58998696
0.5928133
0.59621098
0.59984303
0.60367654
0.60747726
0.61125743
0.61492944
0.61844612
0.6217978
0.62498287
0.62800282
0.63086282