/*--------------------------------*- C++ -*----------------------------------*\
| =========                 |                                                 |
| \\      /  F ield         | OpenFOAM: The Open Source CFD Toolbox           |
|  \\    /   O peration     | Version:  2312                                  |
|   \\  /    A nd           | Website:  www.openfoam.com                      |
|    \\/     M anipulation  |                                                 |
\*---------------------------------------------------------------------------*/
FoamFile
{
    version     2.0;
    format      ascii;
    arch        "LSB;label=32;scalar=64";
    class       volScalarField;
    location    "0.04";
    object      nut;
}
// * * * * * * * * * * * * * * * * * * * * * * * * * * * * * * * * * * * * * //

dimensions      [0 2 -1 0 0 0 0];

internalField   nonuniform List<scalar> 
3221
(
0.024418429
0.02436707
0.024324715
0.024291183
0.024266232
0.024249586
0.024240931
0.02423993
0.024246216
0.024259405
0.024279096
0.024304879
0.02433634
0.024373066
0.024414652
0.02446071
0.024510869
0.024564783
0.024622134
0.024682636
0.024746037
0.024812116
0.024880689
0.024951603
0.025024714
0.025099728
0.025177062
0.025256405
0.025337726
0.025421006
0.025506235
0.025593407
0.02568252
0.025773568
0.02586654
0.025961421
0.026058184
0.026156795
0.026257209
0.026359368
0.026463207
0.026568645
0.026675593
0.026783953
0.026893616
0.027004466
0.027116378
0.027229223
0.027342865
0.027457163
0.027571971
0.027687139
0.024418579
0.024367579
0.024325569
0.024292349
0.024267673
0.024251258
0.024242791
0.024241927
0.0242483
0.024261525
0.0242812
0.024306916
0.02433826
0.02437482
0.024416197
0.024462005
0.024511878
0.024565475
0.024622485
0.024682628
0.024745659
0.024811366
0.024879573
0.024950137
0.025022857
0.025097631
0.025174701
0.025253823
0.02533497
0.025418131
0.025503297
0.025590467
0.025679638
0.025770805
0.025863958
0.025959078
0.026056138
0.0261551
0.026255915
0.026358523
0.026462852
0.026568818
0.026676327
0.026785275
0.02689555
0.02700703
0.027119587
0.027233087
0.02734739
0.027462355
0.027577834
0.02769366
0.024418916
0.024368573
0.024327162
0.024294478
0.024270271
0.024254249
0.024246091
0.024245447
0.024251945
0.024265196
0.024284799
0.024310345
0.024341428
0.024377646
0.024418604
0.024463926
0.02451325
0.024566248
0.024622621
0.024682104
0.024744465
0.024809507
0.02487707
0.024947025
0.025019088
0.025093482
0.025170137
0.025248934
0.025329856
0.025412897
0.025498055
0.025585332
0.025674726
0.02576623
0.025859833
0.025955511
0.026053231
0.026152949
0.026254607
0.026358136
0.026463455
0.026570471
0.02667908
0.026789168
0.026900613
0.027013285
0.027127046
0.027241754
0.027357263
0.027473421
0.027590075
0.027707051
0.024419424
0.024370053
0.024329521
0.024297618
0.024274086
0.024258627
0.024250908
0.024250574
0.024257246
0.024270532
0.024290029
0.024315331
0.024346037
0.024381753
0.024422099
0.024466719
0.02451528
0.024567465
0.02462298
0.024681582
0.02474306
0.024807242
0.024873988
0.02494312
0.02501451
0.025088429
0.025164644
0.025243139
0.025323908
0.025406954
0.02549228
0.02557989
0.02566978
0.025761942
0.025856355
0.025952989
0.026051801
0.026152733
0.026255716
0.026360666
0.026467488
0.026576074
0.026686306
0.026798056
0.026911189
0.02702556
0.02714102
0.027257416
0.027374591
0.027492384
0.027610632
0.027729152
0.024420089
0.02437199
0.024332603
0.024301711
0.024279046
0.024264301
0.024257136
0.024257188
0.024264072
0.024277394
0.024296751
0.024321743
0.024351977
0.02438707
0.024426663
0.024470418
0.024518025
0.024569206
0.024623718
0.024681321
0.024741816
0.02480506
0.024870942
0.024939151
0.025010094
0.025083532
0.025159437
0.025237808
0.025318653
0.025401978
0.025487793
0.025576097
0.025666884
0.025760136
0.025855821
0.025953895
0.026054299
0.026156957
0.026261782
0.026368672
0.02647751
0.026588172
0.026700519
0.026814407
0.026929682
0.027046185
0.027163754
0.027282219
0.027401414
0.027521166
0.027641303
0.027761633
0.024420901
0.024374357
0.024336369
0.024306705
0.024285086
0.024271196
0.024264689
0.024265192
0.02427232
0.024285677
0.024304865
0.024329493
0.024359179
0.024393562
0.024432305
0.024475095
0.024521657
0.024571747
0.024625155
0.024681711
0.02474125
0.02480362
0.02486856
0.024936332
0.025006859
0.025080064
0.025155956
0.025234548
0.025315856
0.025399892
0.02548666
0.025576156
0.025668361
0.025763242
0.02586075
0.02596082
0.02606337
0.026168303
0.026275505
0.02638485
0.026496201
0.026609407
0.02672431
0.026840745
0.026958538
0.027077515
0.027197496
0.027318301
0.027439748
0.027561657
0.027683846
0.027806115
0.024421851
0.02437713
0.024340778
0.024312545
0.024292139
0.024279235
0.024273478
0.024274492
0.024281892
0.024295286
0.024314285
0.024338512
0.024367607
0.024401233
0.024439083
0.024480882
0.024526392
0.02457541
0.024627771
0.024683346
0.024742036
0.024803581
0.024868135
0.024935679
0.025006137
0.025079526
0.02515587
0.025235192
0.02531751
0.025402834
0.025491158
0.025582463
0.025676712
0.025773849
0.025873799
0.025976469
0.026081749
0.026189511
0.026299615
0.026411906
0.026526218
0.026642377
0.0267602
0.0268795
0.027000087
0.027121766
0.027244346
0.027367632
0.027491433
0.027615561
0.027739826
0.027864023
0.024422932
0.024380286
0.024345791
0.024319176
0.024300137
0.024288335
0.024283411
0.024284992
0.024292693
0.024306134
0.024324942
0.024348761
0.024377261
0.024410138
0.024447125
0.024487991
0.024532543
0.02458063
0.024632134
0.024686973
0.024744926
0.024806232
0.024870807
0.024938544
0.025009476
0.025083641
0.02516107
0.025241791
0.025325815
0.025413138
0.025503737
0.025597569
0.025694566
0.025794642
0.025897689
0.026003579
0.026112168
0.026223293
0.02633678
0.026452445
0.026570092
0.026689521
0.026810526
0.0269329
0.027056432
0.027180916
0.027306146
0.027431918
0.027558034
0.0276843
0.027810523
0.027936494
0.024424137
0.024383801
0.024351367
0.024326542
0.024309005
0.024298412
0.0242944
0.024296599
0.024304637
0.024318151
0.024336793
0.024360239
0.024388194
0.024420401
0.024456641
0.024496737
0.02454055
0.024587983
0.024638971
0.024693292
0.024751276
0.024812838
0.024877948
0.024946541
0.025018664
0.025094363
0.025173671
0.025256604
0.025343157
0.025433301
0.025526983
0.025624124
0.025724619
0.025828341
0.025935141
0.026044849
0.026157283
0.026272242
0.026389517
0.026508892
0.026630143
0.026753043
0.026877367
0.027002887
0.027129381
0.027256629
0.027384416
0.027512534
0.027640781
0.027768962
0.027896885
0.028024342
0.024425457
0.024387651
0.024357465
0.024334583
0.024318672
0.024309382
0.024306354
0.024309229
0.024317655
0.024331294
0.024349834
0.024372994
0.024400529
0.024432235
0.024467953
0.024507566
0.024551
0.024598221
0.024648968
0.024703743
0.024762353
0.024824832
0.024891222
0.024961521
0.025035723
0.025113873
0.025195992
0.025282073
0.025372079
0.025465943
0.02556357
0.025664832
0.025769578
0.025877632
0.025988798
0.026102861
0.026219595
0.026338762
0.026460119
0.026583417
0.026708406
0.02683484
0.026962474
0.027091067
0.027220387
0.027350208
0.027480311
0.027610489
0.027740542
0.027870277
0.027999508
0.028128033
0.024426883
0.024391811
0.024364041
0.02434324
0.024329065
0.024321165
0.024319194
0.024322813
0.024331699
0.024345553
0.024364111
0.024387146
0.024414474
0.024445959
0.024481509
0.024521076
0.024564651
0.024612012
0.024663717
0.024719557
0.024779608
0.024843932
0.024912582
0.024985588
0.025062904
0.025144555
0.025230532
0.025320786
0.025415233
0.025513754
0.025616196
0.025722376
0.025832085
0.025945094
0.026061154
0.026180005
0.026301377
0.026424996
0.026550585
0.026677869
0.026806579
0.026936451
0.027067227
0.027198662
0.027330518
0.027462569
0.027594602
0.027726412
0.027857807
0.027988606
0.028118633
0.028247696
0.024428407
0.024396253
0.024371051
0.024352452
0.02434011
0.024333686
0.024332852
0.024337303
0.024346756
0.024360969
0.024379736
0.024402899
0.02443035
0.024462028
0.02449792
0.024537988
0.024582238
0.024631066
0.024684375
0.024742263
0.024804818
0.02487211
0.024944183
0.025021049
0.025102647
0.025188958
0.025279919
0.025375422
0.025475319
0.025579423
0.025687514
0.025799344
0.025914642
0.026033119
0.026154477
0.026278408
0.026404603
0.026532755
0.026662561
0.026793728
0.02692597
0.027059015
0.027192603
0.027326487
0.027460435
0.027594228
0.027727662
0.027860545
0.0279927
0.028123959
0.028254163
0.028383135
0.024430018
0.02440095
0.024378448
0.024362159
0.024351742
0.024346879
0.024347278
0.024352679
0.024362859
0.024377642
0.024396901
0.024420563
0.024448603
0.02448105
0.024517831
0.024559223
0.024605444
0.024656509
0.024712551
0.024773685
0.024840003
0.02491156
0.024988367
0.025070391
0.025157544
0.025249743
0.02534685
0.02544868
0.025555006
0.025665559
0.025780046
0.025898145
0.026019523
0.026143833
0.026270727
0.026399857
0.026530881
0.026663466
0.026797292
0.026932055
0.027067465
0.027203249
0.027339154
0.027474941
0.027610391
0.0277453
0.027879482
0.028012764
0.028144987
0.028276006
0.028405682
0.028533858
0.024431705
0.024405869
0.024386185
0.024372301
0.024363898
0.024360694
0.024362448
0.024368962
0.024380093
0.024395751
0.024415903
0.024440577
0.024469837
0.024503583
0.024542396
0.024586306
0.024635449
0.02469
0.02475011
0.024815893
0.024887416
0.024964689
0.025047666
0.025136237
0.025230278
0.025329615
0.025434016
0.025543202
0.02565685
0.025774607
0.025896096
0.026020926
0.0261487
0.02627902
0.026411495
0.026545744
0.026681403
0.026818125
0.026955583
0.027093473
0.02723151
0.027369434
0.027507006
0.027644006
0.027780237
0.027915518
0.028049686
0.028182594
0.028314109
0.028444111
0.028572487
0.028699103
0.024433457
0.024410981
0.024394214
0.024382823
0.024376528
0.0243751
0.024378369
0.024386225
0.02439862
0.02441557
0.024437153
0.024463535
0.024494504
0.024531024
0.02457293
0.024620491
0.024673932
0.024733443
0.024799167
0.024871185
0.024949507
0.02503407
0.025124735
0.02522129
0.025323557
0.025431247
0.025544017
0.025661476
0.025783203
0.025908752
0.026037667
0.026169489
0.026303765
0.026440056
0.026577939
0.026717014
0.026856907
0.026997269
0.02713778
0.027278147
0.027418106
0.027557418
0.027695868
0.027833267
0.027969445
0.028104253
0.028237559
0.028369246
0.028499213
0.028627367
0.028753627
0.028877885
0.02443526
0.024416252
0.02440249
0.024393679
0.024389597
0.024390094
0.024395097
0.024404602
0.024418685
0.024437487
0.024461172
0.024489818
0.024524227
0.024564441
0.024610759
0.024663473
0.024722822
0.024788984
0.024862057
0.024942051
0.025028884
0.025122381
0.025222282
0.025328247
0.025440024
0.025557189
0.025679268
0.025805755
0.025936124
0.026069842
0.026206379
0.026345219
0.026485868
0.026627856
0.026770746
0.026914134
0.027057651
0.027200961
0.027343765
0.027485797
0.027626822
0.027766635
0.027905057
0.028041935
0.028177138
0.028310552
0.028442084
0.028571652
0.028699189
0.028824636
0.028947943
0.029069033
0.024437101
0.024421651
0.02441097
0.024404828
0.024403088
0.024405708
0.024412734
0.024424304
0.024440635
0.024461896
0.02448847
0.024521059
0.024559847
0.024605232
0.024657578
0.024717188
0.024784282
0.024858982
0.024941298
0.025031125
0.025128244
0.025232331
0.025342976
0.025459711
0.025582171
0.025709773
0.02584191
0.025977958
0.026117294
0.026259305
0.026403404
0.026549033
0.026695672
0.026842842
0.026990108
0.027137081
0.027283412
0.027428797
0.027572972
0.02771571
0.027856819
0.027996137
0.02813353
0.02826889
0.02840213
0.02853318
0.028661987
0.028788508
0.028912717
0.029034585
0.029154103
0.029271219
0.024438966
0.024427144
0.024419618
0.024416247
0.024417014
0.024422015
0.024431453
0.02444563
0.024464739
0.024489467
0.02452046
0.024558059
0.024602773
0.024655063
0.024715314
0.024783804
0.024860687
0.024945977
0.025039545
0.02514112
0.025250303
0.025366579
0.025489335
0.025618103
0.02575224
0.025891024
0.026033718
0.026179593
0.026327942
0.026478092
0.026629415
0.026781334
0.026933326
0.027084924
0.027235715
0.027385342
0.027533499
0.027679927
0.027824412
0.027966778
0.028106888
0.028244631
0.028379929
0.028512723
0.028642975
0.028770662
0.028895781
0.029018321
0.029138313
0.029255731
0.029370735
0.029483046
0.024440841
0.024432704
0.024428404
0.024427929
0.024431418
0.024439142
0.024451496
0.02446872
0.024491794
0.02452136
0.024557937
0.024602167
0.024654636
0.024715834
0.02478612
0.024865693
0.024954582
0.025052632
0.025159518
0.025274753
0.025397716
0.025527676
0.025663829
0.025805609
0.025952148
0.026102573
0.026256027
0.026411691
0.026568795
0.026726631
0.026884557
0.027042001
0.027198461
0.027353506
0.027506768
0.027657943
0.027806783
0.02795309
0.028096713
0.028237541
0.028375497
0.028510534
0.028642631
0.028771785
0.028898014
0.029021336
0.029141822
0.029259439
0.02937446
0.029486581
0.029596086
0.029702917
0.02444271
0.024438303
0.02443731
0.024439891
0.024446382
0.024457277
0.024472885
0.024494459
0.02452271
0.024558346
0.024602178
0.024654951
0.024717292
0.024789668
0.024872351
0.024965395
0.02506863
0.025181669
0.025303928
0.025434653
0.025572962
0.02571788
0.0258685
0.026024017
0.02618338
0.026345581
0.026509666
0.026674752
0.026840037
0.027004807
0.027168435
0.027330383
0.027490199
0.02764751
0.027802016
0.027953484
0.02810174
0.028246662
0.028388175
0.028526238
0.028660847
0.028792021
0.028919801
0.029044243
0.029165436
0.029283381
0.02939843
0.029510266
0.029619233
0.029725342
0.029828699
0.029929334
0.024444561
0.024443922
0.024446332
0.024452175
0.024462037
0.024476327
0.024496539
0.024523527
0.024558209
0.024601606
0.024654664
0.024718193
0.024792807
0.024878882
0.024976526
0.025085563
0.025205549
0.02533579
0.025475385
0.025623271
0.025778271
0.025939147
0.026105013
0.026274665
0.026446923
0.026620678
0.026794914
0.026968719
0.027141296
0.027311957
0.027480126
0.027645329
0.027807188
0.027965415
0.028119796
0.028270187
0.028416505
0.028558714
0.028696822
0.02883087
0.028960926
0.029087087
0.029209452
0.02932812
0.029443367
0.029555098
0.029663538
0.029768809
0.029871061
0.029970403
0.030066947
0.030160742
0.024446381
0.024449547
0.024455486
0.024464861
0.024478197
0.0244972
0.024522937
0.024556563
0.024599354
0.024652511
0.024717081
0.024793881
0.024883441
0.024985956
0.025101274
0.025228901
0.02536803
0.025517591
0.025676312
0.025842782
0.026015522
0.026193181
0.026374609
0.02655839
0.026743222
0.026927932
0.027111481
0.027292973
0.027471651
0.027646896
0.027818213
0.027985222
0.028147649
0.028305308
0.028458093
0.028605963
0.028748936
0.028887072
0.02902047
0.029149254
0.029273567
0.029393601
0.029509511
0.029621556
0.029729694
0.029834264
0.029935426
0.030033347
0.030128191
0.030220109
0.030309224
0.030395615
0.024448162
0.024455178
0.024464806
0.024477692
0.024495712
0.024520211
0.02455261
0.024594493
0.024647379
0.02471262
0.024791308
0.02488419
0.024991611
0.025113481
0.025249278
0.025398087
0.025558654
0.025729467
0.02590884
0.026094996
0.026286158
0.02648102
0.026677959
0.026875453
0.027072139
0.027266828
0.027458507
0.027646341
0.027829661
0.028007948
0.028180826
0.028348038
0.028509432
0.028664949
0.028814603
0.028958469
0.029096673
0.02922938
0.029356784
0.029479096
0.029596495
0.02970951
0.029817876
0.029922131
0.030022449
0.030119075
0.030212226
0.03030211
0.030388921
0.030472826
0.030553978
0.030632489
0.024449903
0.024460825
0.024473998
0.024491424
0.024514773
0.024545761
0.024586334
0.024638397
0.024703693
0.024783678
0.024879407
0.024991453
0.025119853
0.025264103
0.025423195
0.025595686
0.025779796
0.025973517
0.026174724
0.026381261
0.026591327
0.026803231
0.027015163
0.027225526
0.027432946
0.027636275
0.027834582
0.028027139
0.028213405
0.028393005
0.028565707
0.028731403
0.028890087
0.029041839
0.029186804
0.029325181
0.029457211
0.029583164
0.029703338
0.029818063
0.029927661
0.030032249
0.030132247
0.030227962
0.030319667
0.030407634
0.030492123
0.030573374
0.030651597
0.030726989
0.030799737
0.030869969
0.024451628
0.024466188
0.024483701
0.02450617
0.02453564
0.024574465
0.024625012
0.024689506
0.024769875
0.024867601
0.024983595
0.025118119
0.025270757
0.025440451
0.025625575
0.025824061
0.026033534
0.026251456
0.026475268
0.026702527
0.026931398
0.027159752
0.027385711
0.027607678
0.027824335
0.028034636
0.028237785
0.028433213
0.028620547
0.028799587
0.028970275
0.029132671
0.029286932
0.029433285
0.029572019
0.029703458
0.029827955
0.029945889
0.030057851
0.030163798
0.030264327
0.030359804
0.030450586
0.030537019
0.030619423
0.030698111
0.030773377
0.030845477
0.030914652
0.030981131
0.031045113
0.031106731
0.024453152
0.024471801
0.024493985
0.024522044
0.024558767
0.024607044
0.02466968
0.024749203
0.024847662
0.024966456
0.025106208
0.025266704
0.02544691
0.025645053
0.02585877
0.026085277
0.026321552
0.026564514
0.026811168
0.027059204
0.027306191
0.027549909
0.027788486
0.028020397
0.028244451
0.028459769
0.028665744
0.028862009
0.029048398
0.029224916
0.029391698
0.029548992
0.029697123
0.029836478
0.029967488
0.030090608
0.030206291
0.030315316
0.03041754
0.030513781
0.030604469
0.030690027
0.030770862
0.03084736
0.030919878
0.030988763
0.031054329
0.031116863
0.031176632
0.031233876
0.031288801
0.031341551
0.024454609
0.024477643
0.024504821
0.02453935
0.024584691
0.024644322
0.024721503
0.024819016
0.024938935
0.025082431
0.025249657
0.025439729
0.025650807
0.02588025
0.026124838
0.026381003
0.026645062
0.026913402
0.027182925
0.027450977
0.027714881
0.027972412
0.028221782
0.028461622
0.028690942
0.028909089
0.029115697
0.029310642
0.029493997
0.029665991
0.029826974
0.029977385
0.030117729
0.030248551
0.030370424
0.03048401
0.030589898
0.030688371
0.03078017
0.030865852
0.030945925
0.031020869
0.031091137
0.031157154
0.031219301
0.03127795
0.031333445
0.0313861
0.031436184
0.031483946
0.031529606
0.031573324
0.024456073
0.024483612
0.02451639
0.024558453
0.024614028
0.024687233
0.024781768
0.024900602
0.025045693
0.025217793
0.025416367
0.025639641
0.025884771
0.026148097
0.026425445
0.026712428
0.02700472
0.027298301
0.027590086
0.027876879
0.028156015
0.02842537
0.028683342
0.028928799
0.029161021
0.029379639
0.029584573
0.029775976
0.029954183
0.030119666
0.030272995
0.03041481
0.030545792
0.030666645
0.03077825
0.030881073
0.030975707
0.031062968
0.031143482
0.031217857
0.031286658
0.031350406
0.0314096
0.031464686
0.031516079
0.031564173
0.031609328
0.031651865
0.031692065
0.03173019
0.031766464
0.031801049
0.024457511
0.024489828
0.024528924
0.024579781
0.024647478
0.024736809
0.02485188
0.02499573
0.025170017
0.025374837
0.025608709
0.025868727
0.026150849
0.026450263
0.026761774
0.027080165
0.027400505
0.027718904
0.02803158
0.028335306
0.028627528
0.028906339
0.029170416
0.029418943
0.029651538
0.029868164
0.030069065
0.030254697
0.030425674
0.030582717
0.030726623
0.030858229
0.030978389
0.031088212
0.031188101
0.031278924
0.031361584
0.031436821
0.031505332
0.031567775
0.031624765
0.031676855
0.03172457
0.031768391
0.031808758
0.031846069
0.031880693
0.031912965
0.031943174
0.031971581
0.031998414
0.032023833
0.024458934
0.02449641
0.024542688
0.024603818
0.024685819
0.024794179
0.024933342
0.025106253
0.025314027
0.025555817
0.02582891
0.026129017
0.026450714
0.026787931
0.027134435
0.027484215
0.027832202
0.028174012
0.028505663
0.02882403
0.029126797
0.02941238
0.029679829
0.029928721
0.030159063
0.030371197
0.030565716
0.030743397
0.030905139
0.031051917
0.031184749
0.031304665
0.031413002
0.031510176
0.031597286
0.031675364
0.031745266
0.031807803
0.031863727
0.031913743
0.031958498
0.031998577
0.032034534
0.032066864
0.032096017
0.032122407
0.032146407
0.03216835
0.032188532
0.032207212
0.032224615
0.032240901
0.024460371
0.024503496
0.024557986
0.024631103
0.0247299
0.024860554
0.025027733
0.025234064
0.025479817
0.025762869
0.02607896
0.026422173
0.026785547
0.0271617
0.027543389
0.027924065
0.028298485
0.028661738
0.029009947
0.029340247
0.029650692
0.029940127
0.030208059
0.030454525
0.030679968
0.030885137
0.031070994
0.031238642
0.031389267
0.031524095
0.031644354
0.031751619
0.031846402
0.031929985
0.032003569
0.032068151
0.032124658
0.032173956
0.032216844
0.032254058
0.032286279
0.032314118
0.032338134
0.03235884
0.032376695
0.032392114
0.032405471
0.032417098
0.032427289
0.032436297
0.032444344
0.032451583
0.024461863
0.024511244
0.02457515
0.024662222
0.02478063
0.024937208
0.025136676
0.025381049
0.025669384
0.025997907
0.026360493
0.026749373
0.027155936
0.027571484
0.027987857
0.028398507
0.02879735
0.029179531
0.029541445
0.029880637
0.030195652
0.030485868
0.030751324
0.030992567
0.031210511
0.031406331
0.031581364
0.031737043
0.031874831
0.031996189
0.032102935
0.032195781
0.032276126
0.032345394
0.032404737
0.032455229
0.032497847
0.032533503
0.032563035
0.032587207
0.03260671
0.032622177
0.032634176
0.032643222
0.032649778
0.032654255
0.032657026
0.032658418
0.032658717
0.03265817
0.032656988
0.032655319
0.02446346
0.024519835
0.024594547
0.024697803
0.024838969
0.025025458
0.025261796
0.025549015
0.025884528
0.02626251
0.026674659
0.027111179
0.02756176
0.028016437
0.028466783
0.028905396
0.029326082
0.029724219
0.030096637
0.030441436
0.03075777
0.031045636
0.031305667
0.031538957
0.031746914
0.031931144
0.032093359
0.032235314
0.032358733
0.03246568
0.032557192
0.032634709
0.032699944
0.032754225
0.03279878
0.032834735
0.032863115
0.032884868
0.032900853
0.03291185
0.032918565
0.032921635
0.03292163
0.032919064
0.032914397
0.032908036
0.032900346
0.032891645
0.03288221
0.032872278
0.032862046
0.03285165
0.024465224
0.024529465
0.024616565
0.024738505
0.024905907
0.025126624
0.025404659
0.025739598
0.026126731
0.02655777
0.027021975
0.027507414
0.028002095
0.028495253
0.028977796
0.029441812
0.029881295
0.03029206
0.030671541
0.031018526
0.031332884
0.0316153
0.031867046
0.03208979
0.032285441
0.032456033
0.032603638
0.032730327
0.032838406
0.032929369
0.033004616
0.033066224
0.033115724
0.033154518
0.033183892
0.033205017
0.033218953
0.033226668
0.033229034
0.03322684
0.033220793
0.03321153
0.03319962
0.033185568
0.033169828
0.033152797
0.03313483
0.033116235
0.033097276
0.033078177
0.033059115
0.033040213
0.024467226
0.024540349
0.024641614
0.024785007
0.024982442
0.025241991
0.025566692
0.025954146
0.026397003
0.026884135
0.027402167
0.027937019
0.028475226
0.029005506
0.029517757
0.030004123
0.030458997
0.030878826
0.031261805
0.03160753
0.031916669
0.03219065
0.032431417
0.03264122
0.032822466
0.032977604
0.033109033
0.033219431
0.033310866
0.033384582
0.03344312
0.033488241
0.033521556
0.03354453
0.03355849
0.033564639
0.033564056
0.033557718
0.033546504
0.033531201
0.03351251
0.033491065
0.033467423
0.033442082
0.033415481
0.033388007
0.03336
0.033331757
0.033303531
0.033275526
0.033247889
0.033220732
0.024469548
0.024552711
0.024670108
0.024837991
0.025069546
0.025372735
0.025749073
0.026193559
0.026695693
0.027241204
0.027813985
0.028397872
0.028978704
0.029543755
0.030082724
0.030588029
0.03105467
0.031479898
0.031862808
0.032203911
0.032504735
0.032767495
0.032994817
0.033189532
0.033354534
0.033492668
0.033606747
0.033699993
0.033773153
0.033829363
0.033870665
0.033898908
0.033915769
0.033922752
0.033921215
0.033912373
0.033897317
0.033877022
0.033852368
0.033824129
0.033792995
0.03375959
0.033724461
0.033688086
0.033650893
0.033613252
0.033575488
0.033537885
0.033500684
0.033464076
0.033428146
0.03339301
0.024472281
0.02456678
0.024702462
0.024898123
0.025168122
0.025519835
0.025952576
0.026458083
0.027022258
0.027627513
0.028255047
0.028887302
0.029508648
0.030105635
0.030668
0.031188648
0.031663367
0.032090369
0.032469771
0.032803074
0.033092723
0.03334174
0.033553434
0.033731206
0.033878411
0.033998289
0.034094586
0.034168649
0.034223493
0.034261725
0.034285466
0.034296629
0.03429693
0.034287904
0.034270919
0.034247196
0.034217822
0.034183768
0.0341459
0.034104981
0.034061678
0.034016605
0.033970288
0.033923191
0.033875721
0.033828232
0.033781031
0.033734388
0.033688536
0.03364367
0.033599731
0.03355691
0.024475523
0.024582784
0.024739073
0.024966019
0.025278929
0.025683942
0.026177365
0.026747043
0.027374972
0.028040273
0.028721853
0.029400833
0.030060091
0.030685896
0.031268218
0.031800619
0.032279834
0.032705169
0.03307786
0.033400468
0.03367639
0.033909463
0.034103674
0.034262966
0.034391118
0.034492352
0.034569049
0.034623795
0.034659948
0.034679953
0.034686
0.034680047
0.034663838
0.03463892
0.034606661
0.034568277
0.034524843
0.034477313
0.03442654
0.034373269
0.034318133
0.034261737
0.034204587
0.034147121
0.03408973
0.034032747
0.033976459
0.033921119
0.033866953
0.024479375
0.024600935
0.024780305
0.02504221
0.025402492
0.025865182
0.026422703
0.027058496
0.027750583
0.028475025
0.029209392
0.029932661
0.03062699
0.031278482
0.03187745
0.032418233
0.032898639
0.033319182
0.033682305
0.033991686
0.034251695
0.034466989
0.034642215
0.034781829
0.034890337
0.034971899
0.035028218
0.035063591
0.035080874
0.035082596
0.035070991
0.035048044
0.035015514
0.034974949
0.034927701
0.034874974
0.034817823
0.034757178
0.034693874
0.034628644
0.034562065
0.034494738
0.034427151
0.034359707
0.034292783
0.034226689
0.034161689
0.034098012
0.034035836
0.024483942
0.024621424
0.024826468
0.02512708
0.025538949
0.026062886
0.026686557
0.02738879
0.028143921
0.028926031
0.029710655
0.030475578
0.031202273
0.031876648
0.032489358
0.033035584
0.033514311
0.033927371
0.034278502
0.034572547
0.03481487
0.035010941
0.03516605
0.035285213
0.035373944
0.035434287
0.035470564
0.035486463
0.035484899
0.03546846
0.035439407
0.035399732
0.035351195
0.035295337
0.035233482
0.035166816
0.035096367
0.035023035
0.034947627
0.034870882
0.034793295
0.034715469
0.034637878
0.034560876
0.034484833
0.034410034
0.034336717
0.034265085
0.034195283
0.02448932
0.024644403
0.024877779
0.025220766
0.025687821
0.026275183
0.026965062
0.027732003
0.028547654
0.029384606
0.030216725
0.031020975
0.031777944
0.032473122
0.033097371
0.033646736
0.034121491
0.034524909
0.034862116
0.035139181
0.035362478
0.035538288
0.035672493
0.035771344
0.035838901
0.0358783
0.03589457
0.035891116
0.035870916
0.035836604
0.03579045
0.035734439
0.035670319
0.035599615
0.035523618
0.035443489
0.035360226
0.035274691
0.035187656
0.035099873
0.035011753
0.034923885
0.034836757
0.034750639
0.034665912
0.034582829
0.034501606
0.03442242
0.034345388
0.024495595
0.024669966
0.02493432
0.025323012
0.025847667
0.026498427
0.027251781
0.028079145
0.028951424
0.029839543
0.030716689
0.031558911
0.032345263
0.03306032
0.033694887
0.0342459
0.034715073
0.035107283
0.035429171
0.035688096
0.035891468
0.036046387
0.036159489
0.036237941
0.036283591
0.036302547
0.036299027
0.036276533
0.036238079
0.036186323
0.036123538
0.036051694
0.035972511
0.035887484
0.035797881
0.035704825
0.035609282
0.035512078
0.035413949
0.0353156
0.035217461
0.035120032
0.035023855
0.034929083
0.034836119
0.034745188
0.03465648
0.034570147
0.034486285
0.024502832
0.024698124
0.024995954
0.02543291
0.026015536
0.026726364
0.027536741
0.028417908
0.02934103
0.030276716
0.031197565
0.032078278
0.032894984
0.033630606
0.034275509
0.03482762
0.035290347
0.035670407
0.035976119
0.036216223
0.036399202
0.036532941
0.036625679
0.036682486
0.036707101
0.036705914
0.036683014
0.036641963
0.036585784
0.036517133
0.03643829
0.036351207
0.036257557
0.036158804
0.036056184
0.035950785
0.035843536
0.035735225
0.035626551
0.035518171
0.035410534
0.035304075
0.035199275
0.035096351
0.034995614
0.034897277
0.034801509
0.034708441
0.034618149
0.024511056
0.02472876
0.025062181
0.025548479
0.026186132
0.026948933
0.027805128
0.028730325
0.029697983
0.030678815
0.031644329
0.032567068
0.033417688
0.034176612
0.034833285
0.035386948
0.03584312
0.0362107
0.036499902
0.036720964
0.036883495
0.036996367
0.037069063
0.037104011
0.037108358
0.03708758
0.037045883
0.036986892
0.036913638
0.036828752
0.036734518
0.036632857
0.036525398
0.036413568
0.036298565
0.036181444
0.036063093
0.035944261
0.03582561
0.035707755
0.03559115
0.035476172
0.035363257
0.03525265
0.035144606
0.035039311
0.03493691
0.034837517
0.03474119
0.02452023
0.02476156
0.0251319
0.025665948
0.026350497
0.027150526
0.02804648
0.02901339
0.03002318
0.03104622
0.032053238
0.033015591
0.033904192
0.034691596
0.035362961
0.035919607
0.036369824
0.036725157
0.036997993
0.037200208
0.037342544
0.03743567
0.037487771
0.037501951
0.037486664
0.037446993
0.037387228
0.037311037
0.037221452
0.037121085
0.037012195
0.036896671
0.036776109
0.03665189
0.036525175
0.036396979
0.03626815
0.036139399
0.036011351
0.035884583
0.035759555
0.035636572
0.035516049
0.035398237
0.035283348
0.035171541
0.035062934
0.034957623
0.034855652
0.024530198
0.02479589
0.025202964
0.025778521
0.026493956
0.027329139
0.028263268
0.029269483
0.030318719
0.031380983
0.032426458
0.03342576
0.034349605
0.03516985
0.035860205
0.036422124
0.036867583
0.037211386
0.03746841
0.037652335
0.03777512
0.037849733
0.03788104
0.037875692
0.037841583
0.037783864
0.037706878
0.037614316
0.037509225
0.037394191
0.037271433
0.037142811
0.037009887
0.036873993
0.036736257
0.036597647
0.036458977
0.036320923
0.036184068
0.036048944
0.035916047
0.035785572
0.035657943
0.035533401
0.035412129
0.035294251
0.035179862
0.035069033
0.0349618
0.02454058
0.024830567
0.025271385
0.025874248
0.026618573
0.027488037
0.028458355
0.029501217
0.030586956
0.031685364
0.032766267
0.03379975
0.034756154
0.035606536
0.036321798
0.036891924
0.037334264
0.037667618
0.03790971
0.038076202
0.038180569
0.038237394
0.038248709
0.038224917
0.038172951
0.038098125
0.038004852
0.037896831
0.037777117
0.037648272
0.037512474
0.037371551
0.037227027
0.037080193
0.036932136
0.036783784
0.036635915
0.036489174
0.036344102
0.036201177
0.036060964
0.035923506
0.035789266
0.035658468
0.035531269
0.035407753
0.035287994
0.035172044
0.035059924
0.024550516
0.024863448
0.02532987
0.025954082
0.02672795
0.027630564
0.028634751
0.029711274
0.030830322
0.031961686
0.03307497
0.034139836
0.035126199
0.036004532
0.036745881
0.03732738
0.037768469
0.038092686
0.038320982
0.038471076
0.038558679
0.038597899
0.038590825
0.038549593
0.038480818
0.038389917
0.038281354
0.038158838
0.038025426
0.037883656
0.037735671
0.037583259
0.037427911
0.037270876
0.037113205
0.036955785