/*--------------------------------*- C++ -*----------------------------------*\
| =========                 |                                                 |
| \\      /  F ield         | OpenFOAM: The Open Source CFD Toolbox           |
|  \\    /   O peration     | Version:  2312                                  |
|   \\  /    A nd           | Website:  www.openfoam.com                      |
|    \\/     M anipulation  |                                                 |
\*---------------------------------------------------------------------------*/
FoamFile
{
    version     2.0;
    format      ascii;
    arch        "LSB;label=32;scalar=64";
    class       surfaceScalarField;
    location    "0.04";
    object      phi;
}
// * * * * * * * * * * * * * * * * * * * * * * * * * * * * * * * * * * * * * //

dimensions      [1 0 -1 0 0 0 0];

oriented        oriented;

internalField   nonuniform List<scalar> 
6325
(
4.4923784e-07
-5.557981e-10
4.4720772e-07
-1.295405e-09
4.4475314e-07
-1.648521e-09
4.419974e-07
-1.7430968e-09
4.3900669e-07
-1.7123879e-09
4.3582344e-07
-1.648882e-09
4.3247745e-07
-1.6188326e-09
4.2899107e-07
-1.6708342e-09
4.2538274e-07
-1.8416096e-09
4.2166974e-07
-2.1601946e-09
4.1786995e-07
-2.649792e-09
4.1400199e-07
-3.3279337e-09
4.1008473e-07
-4.2074994e-09
4.0614006e-07
-5.2998634e-09
4.0218519e-07
-6.6032809e-09
3.9823679e-07
-8.1180109e-09
3.9431036e-07
-9.841911e-09
3.9041985e-07
-1.1770337e-08
3.8657757e-07
-1.3896799e-08
3.8279428e-07
-1.6213359e-08
3.7907922e-07
-1.8710881e-08
3.7544014e-07
-2.1379255e-08
3.7188336e-07
-2.42076e-08
3.6841384e-07
-2.7184453e-08
3.650352e-07
-3.0297939e-08
3.6174984e-07
-3.353592e-08
3.58559e-07
-3.6886114e-08
3.5546284e-07
-4.0336216e-08
3.5246051e-07
-4.3874019e-08
3.4955025e-07
-4.7487486e-08
3.4672947e-07
-5.1164823e-08
3.4399485e-07
-5.4894538e-08
3.4134241e-07
-5.866549e-08
3.3876762e-07
-6.2466924e-08
3.3626548e-07
-6.6288503e-08
3.3383056e-07
-7.0120326e-08
3.3145716e-07
-7.3952939e-08
3.291393e-07
-7.7777345e-08
3.2687082e-07
-8.1585002e-08
3.2464549e-07
-8.5367823e-08
3.2245698e-07
-8.9118167e-08
3.20299e-07
-9.2828829e-08
3.181653e-07
-9.6493033e-08
3.1604972e-07
-1.0010441e-07
3.1394624e-07
-1.03657e-07
3.1184902e-07
-1.0714522e-07
3.0975241e-07
-1.1056385e-07
3.0765098e-07
-1.1390804e-07
3.0553954e-07
-1.1717328e-07
3.0341311e-07
-1.2035538e-07
3.0126693e-07
-1.2345051e-07
-1.2645512e-07
4.3767634e-07
9.7560461e-11
4.36084e-07
3.1047674e-10
4.3387763e-07
5.8085551e-10
4.3125678e-07
9.1094122e-10
4.2832915e-07
1.2593043e-09
4.2516118e-07
1.5747281e-09
4.2179966e-07
1.8105803e-09
4.1828178e-07
1.927836e-09
4.1463967e-07
1.8948574e-09
4.1090158e-07
1.6864792e-09
4.070918e-07
1.2834594e-09
4.0322803e-07
6.7486234e-10
3.9931903e-07
-1.4313446e-10
3.9541578e-07
-1.2245149e-09
3.9151362e-07
-2.5116032e-09
3.8762777e-07
-4.0246008e-09
3.8377281e-07
-5.7608129e-09
3.7996185e-07
-7.7141374e-09
3.762067e-07
-9.8768432e-09
3.7251773e-07
-1.2239604e-08
3.6890378e-07
-1.4791831e-08
3.6537223e-07
-1.7521961e-08
3.6192892e-07
-2.0417698e-08
3.585783e-07
-2.3466215e-08
3.5532346e-07
-2.6654341e-08
3.521662e-07
-2.9968716e-08
3.4910713e-07
-3.339593e-08
3.4614577e-07
-3.692264e-08
3.4328064e-07
-4.0535688e-08
3.4050934e-07
-4.4222185e-08
3.3782865e-07
-4.7969577e-08
3.3523468e-07
-5.1765706e-08
3.3272288e-07
-5.5598854e-08
3.302882e-07
-5.9457782e-08
3.2792514e-07
-6.3331745e-08
3.2562788e-07
-6.7210516e-08
3.233903e-07
-7.1084389e-08
3.2120609e-07
-7.4944181e-08
3.1906881e-07
-7.8781229e-08
3.1697197e-07
-8.258738e-08
3.1490907e-07
-8.6354983e-08
3.1287364e-07
-9.0076867e-08
3.1085933e-07
-9.3746333e-08
3.0885992e-07
-9.735713e-08
3.0686933e-07
-1.0090344e-07
3.0488174e-07
-1.0437985e-07
3.0289151e-07
-1.0778135e-07
3.0089327e-07
-1.111033e-07
2.9888187e-07
-1.1434142e-07
2.9685244e-07
-1.1749177e-07
2.9480027e-07
-1.2055073e-07
-1.2351503e-07
4.2604134e-07
5.9032862e-10
4.247569e-07
1.6072947e-09
4.2284617e-07
2.5123966e-09
4.2045394e-07
3.3330973e-09
4.1769002e-07
4.0629068e-09
4.1463537e-07
4.6794512e-09
4.1135132e-07
5.1557275e-09
4.0788636e-07
5.4655251e-09
4.0428051e-07
5.5856964e-09
4.0056781e-07
5.4970389e-09
3.96778e-07
5.1846404e-09
3.9294044e-07
4.637879e-09
3.8908861e-07
3.8487302e-09
3.8521032e-07
2.8092165e-09
3.8134473e-07
1.5253695e-09
3.775077e-07
2.6953681e-13
3.7371575e-07
-1.7640684e-09
3.6998128e-07
-3.7574293e-09
3.6631587e-07
-5.9713265e-09
3.6272941e-07
-8.394777e-09
3.5923012e-07
-1.1015569e-08
3.5582459e-07
-1.3820563e-08
3.525178e-07
-1.6795939e-08
3.4931326e-07
-1.9927421e-08
3.4621303e-07
-2.3200473e-08
3.4321785e-07
-2.6600468e-08
3.4032726e-07
-3.011283e-08
3.3753967e-07
-3.3723168e-08
3.3485251e-07
-3.7417381e-08
3.322623e-07
-4.1181743e-08
3.2976482e-07
-4.5002975e-08
3.2735517e-07
-4.8868297e-08
3.2502787e-07
-5.2765472e-08
3.2277701e-07
-5.6682831e-08
3.2059631e-07
-6.0609296e-08
3.1847919e-07
-6.4534383e-08
3.1641891e-07
-6.8448208e-08
3.1440858e-07
-7.2341479e-08
3.1244127e-07
-7.6205487e-08
3.1051006e-07
-8.003209e-08
3.0860811e-07
-8.3813695e-08
3.0672866e-07
-8.7543238e-08
3.0486516e-07
-9.1214161e-08
3.0301122e-07
-9.4820389e-08
3.0116069e-07
-9.8356307e-08
2.9930768e-07
-1.0181673e-07
2.9744657e-07
-1.051969e-07
2.9557202e-07
-1.0849243e-07
2.9367901e-07
-1.1169932e-07
2.9176275e-07
-1.1481389e-07
2.8981873e-07
-1.1783282e-07
-1.2075311e-07
4.1466254e-07
9.8344965e-10
4.1357244e-07
2.7082233e-09
4.1188411e-07
4.2187508e-09
4.0970026e-07
5.5428024e-09
4.0711248e-07
6.6849481e-09
4.0419855e-07
7.6366289e-09
4.0102366e-07
8.3834301e-09
3.9764272e-07
8.9093964e-09
3.9410257e-07
9.1994482e-09
3.9044375e-07
9.24071e-09
3.8670186e-07
9.023184e-09
3.8290882e-07
8.5399548e-09
3.7909238e-07
7.7871148e-09
3.7527288e-07
6.7641485e-09
3.7147359e-07
5.4740998e-09
3.6771504e-07
3.9227703e-09
3.6401228e-07
2.117674e-09
3.6038049e-07
6.8801653e-11
3.5683141e-07
-2.2119359e-09
3.53375e-07
-4.7118255e-09
3.500191e-07
-7.4165741e-09
3.4676966e-07
-1.0311188e-08
3.4363079e-07
-1.3380104e-08
3.4060496e-07
-1.660742e-08
3.3769308e-07
-1.9977106e-08
3.3489464e-07
-2.3473178e-08
3.3220788e-07
-2.7079839e-08
3.2962989e-07
-3.0781615e-08
3.2715675e-07
-3.4563458e-08
3.247837e-07
-3.8410827e-08
3.2250524e-07
-4.2309756e-08
3.2031525e-07
-4.6246897e-08
3.1820715e-07
-5.020956e-08
3.1617394e-07
-5.4185727e-08
3.1420837e-07
-5.8164066e-08
3.1230299e-07
-6.213393e-08
3.1045027e-07
-6.6085349e-08
3.0864262e-07
-7.0009017e-08
3.0687253e-07
-7.3896274e-08
3.0513257e-07
-7.7739079e-08
3.0341547e-07
-8.152999e-08
3.0171417e-07
-8.5262133e-08
3.0002184e-07
-8.8929173e-08
2.9833193e-07
-9.2525287e-08
2.966382e-07
-9.6045134e-08
2.9493471e-07
-9.9483825e-08
2.9321586e-07
-1.028369e-07
2.9147639e-07
-1.0610028e-07
2.8971139e-07
-1.0927029e-07
2.8791626e-07
-1.1234359e-07
2.8608669e-07
-1.1531716e-07
-1.1818832e-07
4.0354751e-07
1.3218799e-09
4.0258244e-07
3.6823112e-09
4.0105294e-07
5.7630565e-09
3.9903415e-07
7.5827651e-09
3.9660091e-07
9.1462618e-09
3.9382327e-07
1.0449763e-08
3.9076485e-07
1.1485282e-08
3.8748262e-07
1.2243492e-08
3.8402734e-07
1.2715528e-08
3.8044417e-07
1.2894124e-08
3.7677326e-07
1.277429e-08
3.730502e-07
1.2353673e-08
3.6930623e-07
1.1632715e-08
3.6556872e-07
1.0614749e-08
3.6186184e-07
9.3060347e-09
3.5820681e-07
7.7152899e-09
3.5462148e-07
5.8533623e-09
3.5112093e-07
3.7330004e-09
3.4771775e-07
1.368573e-09
3.4442166e-07
-1.2243764e-09
3.4124009e-07
-4.029319e-09
3.3817825e-07
-7.0290743e-09
3.3523927e-07
-1.0206072e-08
3.3242443e-07
-1.3542588e-08
3.2973333e-07
-1.7020951e-08
3.2716404e-07
-2.0623709e-08
3.2471329e-07
-2.4333783e-08
3.2237666e-07
-2.8134585e-08
3.2014874e-07
-3.2010122e-08
3.1802328e-07
-3.5945068e-08
3.1599336e-07
-3.9924815e-08
3.1405151e-07
-4.393552e-08
3.1218988e-07
-4.7964119e-08
3.104003e-07
-5.199834e-08
3.0867445e-07
-5.60267e-08
3.0700393e-07
-6.0038494e-08
3.0538034e-07
-6.4023778e-08
3.0379538e-07
-6.7973341e-08
3.0224089e-07
-7.1878679e-08
3.0070893e-07
-7.5731963e-08
2.9919181e-07
-7.9526002e-08
2.9768214e-07
-8.3254208e-08
2.9617288e-07
-8.6910563e-08
2.9465732e-07
-9.0489579e-08
2.9312914e-07
-9.3986267e-08
2.9158242e-07
-9.7396101e-08
2.9001162e-07
-1.0071499e-07
2.8841161e-07
-1.0393923e-07
2.8677766e-07
-1.070655e-07
2.8510538e-07
-1.1009084e-07
2.8339072e-07
-1.1301258e-07
-1.1582838e-07
3.9271012e-07
1.6284306e-09
3.9182358e-07
4.5758994e-09
3.9040198e-07
7.1959734e-09
3.8850421e-07
9.496652e-09
3.8619336e-07
1.1478536e-08
3.8353251e-07
1.3137795e-08
3.8058237e-07
1.4468835e-08
3.773999e-07
1.5466034e-08
3.7403774e-07
1.6124867e-08
3.7054399e-07
1.6442635e-08
3.6696211e-07
1.6418939e-08
3.6333109e-07
1.6055947e-08
3.596855e-07
1.5358504e-08
3.5605568e-07
1.4334144e-08
3.5246812e-07
1.2993011e-08
3.4894556e-07
1.1347536e-08
3.4550713e-07
9.412149e-09
3.4216856e-07
7.202985e-09
3.3894242e-07
4.7375433e-09
3.3583827e-07
2.034353e-09
3.3286288e-07
-8.8733934e-10
3.3002054e-07
-4.007861e-09
3.2731318e-07
-7.3073871e-09
3.2474071e-07
-1.0766176e-08
3.223012e-07
-1.4364765e-08
3.199911e-07
-1.8084143e-08
3.1780551e-07
-2.1905891e-08
3.1573831e-07
-2.5812298e-08
3.1378245e-07
-2.9786441e-08
3.1193007e-07
-3.3812252e-08
3.1017274e-07
-3.7874557e-08
3.0850154e-07
-4.19591e-08
3.0690728e-07
-4.6052547e-08
3.0538059e-07
-5.0142484e-08
3.0391204e-07
-5.4217395e-08
3.0249225e-07
-5.8266645e-08
3.01112e-07
-6.2280436e-08
2.9976224e-07
-6.6249778e-08
2.9843422e-07
-7.0166448e-08
2.9711952e-07
-7.4022941e-08
2.9581009e-07
-7.7812429e-08
2.9449826e-07
-8.1528717e-08
2.9317682e-07
-8.5166201e-08
2.9183899e-07
-8.8719818e-08
2.9047845e-07
-9.2185013e-08
2.8908934e-07
-9.5557696e-08
2.8766628e-07
-9.8834208e-08
2.8620433e-07
-1.0201128e-07
2.84699e-07
-1.0508602e-07
2.8314622e-07
-1.0805585e-07
2.8154228e-07
-1.1091852e-07
-1.1367205e-07
3.8215181e-07
1.9164495e-09
3.8131311e-07
5.4195895e-09
3.7996136e-07
8.5554258e-09
3.7814709e-07
1.1321835e-08
3.7592653e-07
1.3713669e-08
3.7335823e-07
1.5724745e-08
3.7050065e-07
1.7349552e-08
3.6741045e-07
1.8584263e-08
3.6414132e-07
1.9427294e-08
3.6074332e-07
1.9879629e-08
3.5726233e-07
1.9945004e-08
3.5373988e-07
1.9629976e-08
3.5021299e-07
1.8943891e-08
3.4671417e-07
1.7898773e-08
3.432716e-07
1.6509118e-08
3.399092e-07
1.4791594e-08
3.3664679e-07
1.2764703e-08
3.3350033e-07
1.0448433e-08
3.3048214e-07
7.8638957e-09
3.2760116e-07
5.0329714e-09
3.2486323e-07
1.9779795e-09
3.2227135e-07
-1.2786301e-09
3.1982603e-07
-4.7145491e-09
3.1752553e-07
-8.3078405e-09
3.1536617e-07
-1.2037135e-08
3.1334258e-07
-1.5881794e-08
3.1144802e-07
-1.9822034e-08
3.0967457e-07
-2.3839029e-08
3.0801339e-07
-2.7914978e-08
3.0645495e-07
-3.2033143e-08
3.049892e-07
-3.6177878e-08
3.0360576e-07
-4.0334626e-08
3.0229408e-07
-4.4489911e-08
3.0104358e-07
-4.8631309e-08
2.9984377e-07
-5.2747413e-08
2.9868432e-07
-5.6827791e-08
2.9755522e-07
-6.0862938e-08
2.9644677e-07
-6.484422e-08
2.9534971e-07
-6.8763821e-08
2.9425521e-07
-7.261469e-08
2.9315492e-07
-7.6390479e-08
2.9204103e-07
-8.0085494e-08
2.9090625e-07
-8.3694643e-08
2.897438e-07
-8.7213381e-08
2.8854748e-07
-9.063767e-08
2.8731159e-07
-9.3963927e-08
2.8603097e-07
-9.7188994e-08
2.8470099e-07
-1.0031009e-07
2.8331749e-07
-1.0332479e-07
2.8187678e-07
-1.0623098e-07
2.803756e-07
-1.0902685e-07
-1.1171085e-07
3.7186955e-07
2.1944803e-09
3.7105751e-07
6.2345385e-09
3.6974729e-07
9.869735e-09
3.6798619e-07
1.3088654e-08
3.6582754e-07
1.5880077e-08
3.6332795e-07
1.8234512e-08
3.6054507e-07
2.014539e-08
3.5753582e-07
2.1609619e-08
3.5435498e-07
2.2627735e-08
3.510542e-07
2.3203865e-08
3.4768126e-07
2.3345618e-08
3.4427958e-07
2.3063911e-08
3.4088794e-07
2.2372747e-08
3.3754033e-07
2.1288934e-08
3.3426593e-07
1.9831751e-08
3.3108925e-07
1.8022559e-08
3.2803024e-07
1.588439e-08
3.2510454e-07
1.3441533e-08
3.2232374e-07
1.0719122e-08
3.1969568e-07
7.7427506e-09
3.1722483e-07
4.5381123e-09
3.1491257e-07
1.1306809e-09
3.127576e-07
-2.4545598e-09
3.1075623e-07
-6.1933485e-09
3.0890278e-07
-1.0062333e-08
3.0718985e-07
-1.4039218e-08
3.0560867e-07
-1.8102875e-08
3.0414938e-07
-2.2233418e-08
3.0280127e-07
-2.6412246e-08
3.0155304e-07
-3.0622066e-08
3.0039303e-07
-3.4846885e-08
2.9930938e-07
-3.9071993e-08
2.9829022e-07
-4.3283919e-08
2.9732379e-07
-4.7470389e-08
2.9639859e-07
-5.1620261e-08
2.9550348e-07
-5.5723469e-08
2.9462772e-07
-5.9770949e-08
2.9376109e-07
-6.3754569e-08
2.928939e-07
-6.7667064e-08
2.9201707e-07
-7.1501961e-08
2.9112209e-07
-7.5253515e-08
2.9020109e-07
-7.891664e-08
2.8924683e-07
-8.2486856e-08
2.8825268e-07
-8.5960224e-08
2.8721264e-07
-8.9333297e-08
2.861213e-07
-9.2603074e-08
2.8497383e-07
-9.5766951e-08
2.8376598e-07
-9.8822689e-08
2.82494e-07
-1.0176838e-07
2.8115469e-07
-1.046024e-07
2.7974527e-07
-1.0732343e-07
-1.0993041e-07
3.6185824e-07
2.4685066e-09
3.6105744e-07
7.0362266e-09
3.5976717e-07
1.1160576e-08
3.5803496e-07
1.4821545e-08
3.5591423e-07
1.8001964e-08
3.5346196e-07
2.068877e-08
3.5073659e-07
2.2873914e-08
3.4779621e-07
2.4554623e-08
3.4469714e-07
2.5733237e-08
3.4149268e-07
2.6416871e-08
3.3823229e-07
2.6617013e-08
3.3496089e-07
2.6349105e-08
3.3171846e-07
2.5632087e-08
3.2853983e-07
2.4487932e-08
3.2545459e-07
2.294114e-08
3.224872e-07
2.1018228e-08
3.1965708e-07
1.874721e-08
3.1697896e-07
1.6157096e-08
3.1446312e-07
1.3277422e-08
3.121158e-07
1.0137813e-08
3.0993956e-07
6.7675947e-09
3.0793375e-07
3.1954657e-09
3.0609486e-07
-5.5078123e-10
3.0441693e-07
-4.4444844e-09
3.0289199e-07
-8.4602886e-09
3.0151038e-07
-1.2574271e-08
3.0026116e-07
-1.6764025e-08
2.9913237e-07
-2.1008706e-08
2.9811137e-07
-2.5289049e-08
2.9718508e-07
-2.9587354e-08
2.963402e-07
-3.3887452e-08
2.9556345e-07
-3.8174652e-08
2.9484167e-07
-4.2435673e-08
2.9416207e-07
-4.6658572e-08
2.9351223e-07
-5.0832652e-08
2.9288029e-07
-5.4948382e-08
2.9225497e-07
-5.8997306e-08
2.9162564e-07
-6.297195e-08
2.9098237e-07
-6.6865739e-08
2.9031593e-07
-7.0672913e-08
2.8961783e-07
-7.4388443e-08
2.8888029e-07
-7.8007963e-08
2.8809626e-07
-8.1527694e-08
2.8725939e-07
-8.4944385e-08
2.86364e-07
-8.8255251e-08
2.8540508e-07
-9.1457927e-08
2.8437826e-07
-9.4550416e-08
2.8327972e-07
-9.7531052e-08
2.8210625e-07
-1.0039847e-07
2.8085511e-07
-1.0315156e-07
2.7952403e-07
-1.0578948e-07
-1.0831161e-07
3.5211193e-07
2.7430406e-09
3.5131052e-07
7.8366028e-09
3.5002324e-07
1.2445093e-08
3.4830029e-07
1.6540396e-08
3.4619751e-07
2.009966e-08
3.437742e-07
2.3106349e-08
3.4109105e-07
2.5550967e-08
3.3820841e-07
2.74311e-08
3.3518472e-07
2.8751e-08
3.3207522e-07
2.9520966e-08
3.2893098e-07
2.9756669e-08
3.2579818e-07
2.9478455e-08
3.2271759e-07
2.8710658e-08
3.1972435e-07
2.7480905e-08
3.1684784e-07
2.5819431e-08
3.141118e-07
2.3758404e-08
3.1153451e-07
2.133128e-08
3.0912912e-07
1.8572205e-08
3.0690398e-07
1.5515463e-08
3.0486314e-07
1.2194987e-08
3.0300678e-07
8.6439484e-09
3.013317e-07
4.8944103e-09
2.9983178e-07
9.7704545e-10
2.9849846e-07
-3.079077e-09
2.9732118e-07
-7.246644e-09
2.9628784e-07
-1.1500196e-08
2.9538515e-07
-1.5816177e-08
2.9459898e-07
-2.0172948e-08
2.939147e-07
-2.4550761e-08
2.9331745e-07
-2.8931709e-08
2.9279235e-07
-3.3299656e-08
2.9232475e-07
-3.7640143e-08
2.9190038e-07
-4.1940291e-08
2.9150546e-07
-4.6188689e-08
2.9112687e-07
-5.0375287e-08
2.9075218e-07
-5.4491275e-08
2.9036973e-07
-5.8528974e-08
2.8996867e-07
-6.2481728e-08
2.8953899e-07
-6.6343797e-08
2.8907151e-07
-7.0110259e-08
2.8855791e-07
-7.377692e-08
2.8799067e-07
-7.7340225e-08
2.8736309e-07
-8.0797186e-08
2.8666922e-07
-8.4145307e-08
2.8590387e-07
-8.7382527e-08
2.8506254e-07
-9.050716e-08
2.841414e-07
-9.3517852e-08
2.8313721e-07
-9.6413535e-08
2.8204733e-07
-9.9193396e-08
2.8086959e-07
-1.0185685e-07
2.7960229e-07
-1.0440351e-07
-1.0683319e-07
3.4262426e-07
3.0217084e-09
3.4181269e-07
8.6453481e-09
3.4051461e-07
1.3737303e-08
3.3878482e-07
1.826166e-08
3.3668344e-07
2.2190195e-08
3.342737e-07
2.5503211e-08
3.3161996e-07
2.8190098e-08
3.2878578e-07
3.0249192e-08
3.258324e-07
3.1687112e-08
3.228173e-07
3.2517863e-08
3.1979326e-07
3.2761873e-08
3.1680751e-07
3.2445016e-08
3.1390125e-07
3.1597654e-08
3.1110941e-07
3.0253701e-08
3.0846058e-07
2.8449725e-08
3.0597713e-07
2.6224096e-08
3.0367551e-07
2.36162e-08
3.0156662e-07
2.0665719e-08
2.9965627e-07
1.7412005e-08
2.9794571e-07
1.3893542e-08
2.9643218e-07
1.0147497e-08
2.9510944e-07
6.2093692e-09
2.9396838e-07
2.1127077e-09
2.9299748e-07
-2.1110755e-09
2.9218339e-07
-6.4328283e-09
2.9151134e-07
-1.0825719e-08
2.9096557e-07
-1.5265242e-08
2.9052974e-07
-1.9729185e-08
2.9018724e-07
-2.419756e-08
2.8992145e-07
-2.8652503e-08
2.8971603e-07
-3.3078159e-08
2.895551e-07
-3.7460551e-08
2.8942338e-07
-4.1787438e-08
2.8930634e-07
-4.6048174e-08
2.8919031e-07
-5.023356e-08
2.890625e-07
-5.4335705e-08
2.8891107e-07
-5.8347886e-08
2.8872517e-07
-6.226442e-08
2.8849489e-07
-6.6080543e-08
2.8821132e-07
-6.9792293e-08
2.8786646e-07
-7.3396411e-08
2.8745324e-07
-7.6890244e-08
2.8696545e-07
-8.0271664e-08
2.8639771e-07
-8.3538991e-08
2.8574544e-07
-8.6690928e-08
2.8500478e-07
-8.9726504e-08
2.8417253e-07
-9.2645027e-08
2.8324614e-07
-9.544604e-08
2.8222362e-07
-9.8129286e-08
2.8110345e-07
-1.0069468e-07
2.7988454e-07
-1.031423e-07
-1.0547238e-07
3.3338875e-07
3.3075829e-09
3.3255898e-07
9.4706418e-09
3.3123858e-07
1.5049019e-08
3.2948853e-07
1.9999168e-08
3.2737481e-07
2.4287828e-08
3.2496609e-07
2.7892602e-08
3.2233155e-07
3.0802343e-08
3.1953891e-07
3.3016811e-08
3.166528e-07
3.4545749e-08
3.1373332e-07
3.5407686e-08
3.1083494e-07
3.5628656e-08
3.0800579e-07
3.5240913e-08
3.0528714e-07
3.428167e-08
3.0271319e-07
3.2791903e-08
3.0031111e-07
3.0815216e-08
2.9810124e-07
2.8396788e-08
2.9609751e-07
2.5582437e-08
2.9430788e-07
2.2417784e-08
2.9273495e-07
1.8947539e-08
2.9137656e-07
1.5214921e-08
2.9022646e-07
1.1261179e-08
2.8927494e-07
7.1252387e-09
2.8850948e-07
2.8434439e-09
2.8791534e-07
-1.5506e-09
2.8747611e-07
-6.0261059e-09
2.8717423e-07
-1.0555112e-08
2.8699143e-07
-1.5112437e-08
2.8690914e-07
-1.9675586e-08
2.869088e-07
-2.4224627e-08
2.869722e-07
-2.8742038e-08
2.8708164e-07
-3.3212538e-08
2.8722019e-07
-3.7622911e-08
2.8737179e-07
-4.1961819e-08
2.8752136e-07
-4.6219618e-08
2.876549e-07
-5.0388188e-08
2.877595e-07
-5.446075e-08
2.8782338e-07
-5.8431713e-08
2.8783588e-07
-6.2296521e-08
2.8778745e-07
-6.6051513e-08
2.876696e-07
-6.96938e-08
2.8747488e-07
-7.3221146e-08
2.8719682e-07
-7.6631873e-08
2.8682989e-07
-7.9924769e-08
2.863694e-07
-8.3099009e-08
2.858115e-07
-8.6154091e-08
2.8515307e-07
-8.9089776e-08
2.8439168e-07
-9.190604e-08
2.8352552e-07
-9.4603034e-08
2.8255335e-07
-9.7181052e-08
2.8147434e-07
-9.9640502e-08
2.8028806e-07
-1.0198191e-07
-1.0420591e-07
3.2439887e-07
3.6033828e-09
3.2354394e-07
1.0319638e-08
3.2219132e-07
1.6390438e-08
3.2040968e-07
2.1764681e-08
3.1827233e-07
2.6404442e-08
3.1585467e-07
3.0285223e-08
3.1323178e-07
3.3396134e-08
3.104764e-07
3.57393e-08
3.0765708e-07
3.7328633e-08
3.0483675e-07
3.8188287e-08
3.0207164e-07
3.8351014e-08
2.9941051e-07
3.7856523e-08
2.9689426e-07
3.6749895e-08
2.9455581e-07
3.5080082e-08
2.9242025e-07
3.2898517e-08
2.9050519e-07
3.025785e-08
2.888213e-07
2.7210855e-08
2.8737289e-07
2.3809471e-08
2.8615867e-07
2.0104018e-08
2.8517248e-07
1.6142563e-08
2.8440405e-07
1.1970441e-08
2.8383975e-07
7.6299092e-09
2.8346334e-07
3.159929e-09
2.8325657e-07
-1.4039447e-09
2.8319983e-07
-6.0295833e-09
2.8327271e-07
-1.0688224e-08
2.8345442e-07
-1.5354357e-08
2.8372421e-07
-2.0005562e-08
2.8406174e-07
-2.4622319e-08
2.8444732e-07
-2.9187793e-08
2.8486214e-07
-3.3687606e-08
2.8528843e-07
-3.8109605e-08
2.8570961e-07
-4.2443636e-08
2.8611029e-07
-4.6681314e-08
2.8647643e-07
-5.0815814e-08
2.8679524e-07
-5.4841668e-08
2.8705524e-07
-5.8754583e-08
2.8724622e-07
-6.2551268e-08
2.8735918e-07
-6.6229283e-08
2.8738629e-07
-6.97869e-08
2.8732081e-07
-7.3222983e-08
2.8715706e-07
-7.6536881e-08
2.8689031e-07
-7.9728335e-08
2.8651671e-07
-8.27974e-08
2.8603325e-07
-8.5744378e-08
2.8543766e-07
-8.8569761e-08
2.8472835e-07
-9.1274186e-08
2.8390434e-07
-9.3858397e-08
2.8296515e-07
-9.6323214e-08
2.8191074e-07
-9.8669516e-08
2.8074126e-07
-1.0089823e-07
-1.030104e-07
3.1564819e-07
3.9115966e-09
3.1476184e-07
1.1198765e-08
3.1336834e-07
1.7770533e-08
3.1154551e-07
2.3568267e-08
3.0937537e-07
2.8549817e-08
3.0694124e-07
3.2689347e-08
3.0432517e-07
3.5977239e-08
3.016056e-07
3.8419201e-08
2.9885545e-07
4.0034648e-08
2.9614066e-07
4.0854742e-08
2.9351906e-07
4.0920324e-08
2.9103975e-07
4.0279868e-08
2.8874272e-07
3.8987514e-08
2.8665899e-07
3.7101237e-08
2.8481083e-07
3.4681171e-08
2.8321235e-07
3.1788146e-08
2.8187017e-07
2.8482412e-08
2.8078424e-07
2.4822573e-08
2.7994869e-07
2.0864736e-08
2.7935278e-07
1.6661852e-08
2.7898173e-07
1.2263247e-08
2.7881761e-07
7.7143106e-09
2.7884015e-07
3.0563385e-09
2.7902745e-07
-1.6735132e-09
2.7935661e-07
-6.4421649e-09
2.7980436e-07
-1.1220469e-08
2.8034745e-07
-1.5983011e-08
2.8096316e-07
-2.0707869e-08
2.8162951e-07
-2.5376342e-08
2.8232559e-07
-2.9972667e-08
2.8303175e-07
-3.4483725e-08
2.8372968e-07
-3.8898752e-08
2.8440252e-07
-4.3209062e-08
2.8503494e-07
-4.7407783e-08
2.8561308e-07
-5.1489603e-08
2.8612457e-07
-5.5450548e-08
2.8655852e-07
-5.9287772e-08
2.8690536e-07
-6.2999373e-08
2.871569e-07
-6.6584223e-08
2.8730613e-07
-7.0041829e-08
2.8734724e-07
-7.3372202e-08
2.8727547e-07
-7.6575752e-08
2.8708702e-07
-7.9653191e-08
2.8677902e-07
-8.2605457e-08
2.8634939e-07
-8.5433648e-08
2.8579678e-07
-8.813897e-08
2.8512051e-07
-9.0722696e-08
2.8432046e-07
-9.3186127e-08
2.8339698e-07
-9.5530565e-08
2.8235076e-07
-9.7757299e-08
2.8118255e-07
-9.9867556e-08
-1.0186256e-07
3.0713035e-07
4.2345623e-09
3.0620686e-07
1.2113923e-08
3.0476482e-07
1.9197289e-08
3.0289266e-07
2.541852e-08
3.006825e-07
3.0731786e-08
2.982268e-07
3.5110863e-08
2.9561544e-07
3.8548686e-08
2.9293322e-07
4.1056055e-08
2.9025777e-07
4.265953e-08
2.8765804e-07
4.3398964e-08
2.8519324e-07
4.3324927e-08
2.829123e-07
4.2496187e-08
2.8085372e-07
4.0977306e-08
2.7904582e-07
3.8836437e-08
2.7750724e-07
3.6143374e-08
2.7624775e-07
3.2967841e-08
2.7526912e-07
2.9378055e-08
2.7456616e-07
2.5439569e-08
2.7412779e-07
2.1214368e-08
2.739381e-07
1.6760215e-08
2.7397737e-07
1.2130213e-08
2.7422307e-07
7.3725667e-09
2.7465069e-07
2.5304993e-09
2.7523458e-07
-2.3576909e-09
2.7594858e-07
-7.2584651e-09
2.7676663e-07
-1.2142794e-08
2.7766326e-07
-1.698586e-08
2.7861393e-07
-2.1766717e-08
2.7959536e-07
-2.6467938e-08
2.8058572e-07
-3.1075247e-08
2.8156481e-07
-3.5577156e-08
2.8251414e-07
-3.9964624e-08
2.8341693e-07
-4.4230721e-08
2.8425816e-07
-4.8370324e-08
2.8502452e-07
-5.2379841e-08
2.8570434e-07
-5.625695e-08
2.8628753e-07
-6.0000383e-08
2.8676546e-07
-6.3609718e-08
2.8713091e-07
-6.7085213e-08
2.8737794e-07
-7.0427654e-08
2.8750177e-07
-7.3638224e-08
2.874987e-07
-7.6718401e-08
2.8736603e-07
-7.9669864e-08
2.8710191e-07
-8.2494418e-08
2.8670528e-07
-8.5193931e-08
2.8617578e-07
-8.777029e-08
2.8551368e-07
-9.0225363e-08
2.8471975e-07
-9.256096e-08
2.8379521e-07
-9.4778816e-08
2.8274149e-07
-9.6880529e-08
2.8155989e-07
-9.8867478e-08
-1.0074038e-07
2.9883911e-07
4.5745221e-09
2.9787317e-07
1.3070609e-08
2.9637574e-07
2.0677864e-08
2.9444745e-07
2.7322701e-08
2.9219192e-07
3.2956308e-08
2.8971189e-07
3.7553268e-08
2.8710597e-07
4.1110657e-08
2.8446582e-07
4.3646208e-08
2.8187397e-07
4.5195611e-08
2.7940224e-07
4.5809408e-08
2.7711081e-07
4.5549817e-08
2.7504783e-07
4.4487641e-08
2.732495e-07
4.2699386e-08
2.7174056e-07
4.0264657e-08
2.705351e-07
3.7263887e-08
2.6963761e-07
3.3776392e-08
2.6904417e-07
2.9878794e-08
2.687437e-07
2.5643777e-08
2.6871925e-07
2.1139179e-08
2.6894926e-07
1.6427366e-08
2.6940871e-07
1.1564869e-08
2.7007021e-07
6.6022457e-09
2.7090493e-07
1.5841121e-09
2.7188349e-07
-3.4506706e-09
2.7297659e-07
-8.4686966e-09
2.7415562e-07
-1.3441644e-08
2.753931e-07
-1.8345857e-08
2.7666306e-07
-2.31619e-08
2.7794123e-07
-2.7874102e-08
2.7920527e-07
-3.2470106e-08
2.8043481e-07
-3.6940441e-08
2.8161152e-07
-4.1278107e-08
2.8271909e-07
-4.5478203e-08
2.8374316e-07
-4.953758e-08
2.8467126e-07
-5.3454536e-08
2.854927e-07
-5.7228541e-08
2.8619847e-07
-6.0859997e-08
2.867811e-07
-6.4350032e-08
2.8723454e-07
-6.7700325e-08
2.8755404e-07
-7.0912954e-08
2.8773603e-07
-7.3990276e-08
2.8777801e-07
-7.6934821e-08
2.8767839e-07
-7.9749206e-08
2.8743647e-07
-8.2436067e-08
2.8705226e-07
-8.4998001e-08
2.8652642e-07
-8.743753e-08
2.858602e-07
-8.9757071e-08
2.8505534e-07
-9.1958924e-08
2.8411398e-07
-9.4045239e-08
2.8303852e-07
-9.6018015e-08
2.8183107e-07
-9.7878944e-08
-9.962822e-08
2.9076838e-07
4.9336593e-09
2.8975499e-07
1.4073997e-08
2.8819606e-07
2.221867e-08
2.862061e-07
2.9286787e-08
2.8390168e-07
3.5227465e-08
2.8139701e-07
4.0017596e-08
2.7880021e-07
4.3660342e-08
2.762102e-07
4.6182611e-08
2.7371442e-07
4.7631583e-08
2.7138726e-07
4.8070832e-08
2.6928927e-07
4.7576418e-08
2.6746699e-07
4.6233145e-08
2.6595335e-07
4.4131134e-08
2.6476848e-07
4.1362778e-08
2.6392087e-07
3.8020127e-08
2.6340877e-07
3.4192737e-08
2.6322166e-07
2.9965963e-08
2.6334185e-07
2.5419676e-08
2.6374592e-07
2.0627384e-08
2.6440622e-07
1.5655684e-08
2.6529216e-07
1.056402e-08
2.6637139e-07
5.4046863e-09
2.676108e-07
2.2301856e-10
2.6897741e-07
-4.942258e-09
2.7043903e-07
-1.0058563e-08
2.7196482e-07
-1.5098948e-08
2.735257e-07
-2.0041541e-08
2.7509464e-07
-2.486898e-08
2.7664685e-07
-2.9567857e-08
2.7815987e-07
-3.4128171e-08
2.7961363e-07
-3.8542831e-08
2.8099037e-07
-4.2807188e-08
2.8227459e-07
-4.6918613e-08
2.8345296e-07
-5.0876122e-08
2.8451416e-07
-5.4680043e-08
2.8544876e-07
-5.8331733e-08
2.8624906e-07
-6.1833326e-08
2.8690894e-07
-6.5187529e-08
2.8742371e-07
-6.8397446e-08
2.8778995e-07
-7.1466435e-08
2.880054e-07
-7.4397992e-08
2.8806881e-07
-7.7195659e-08
2.8797984e-07
-7.986294e-08
2.8773892e-07
-8.2403248e-08
2.8734717e-07
-8.4819846e-08
2.8680629e-07
-8.7115826e-08
2.8611849e-07
-8.9294103e-08
2.8528647e-07
-9.135744e-08
2.8431337e-07
-9.3308477e-08
2.8320262e-07
-9.5149751e-08
2.8195733e-07
-9.688384e-08
-9.8514512e-08
2.8291218e-07
5.3141265e-09
2.818466e-07
1.5128995e-08
2.8022075e-07
2.3825418e-08
2.7816484e-07
3.1315476e-08
2.7580993e-07
3.7547404e-08
2.7328286e-07
4.2502289e-08
2.7070196e-07
4.6191767e-08
2.681737e-07
4.8654613e-08
2.6579025e-07
4.9952285e-08
2.6362804e-07
5.01641e-08
2.6174715e-07
4.9382454e-08
2.6019149e-07
4.7708331e-08
2.5898953e-07
4.5247252e-08
2.5815562e-07
4.2105751e-08
2.576915e-07
3.8388438e-08
2.5758814e-07
3.4195648e-08
2.5782756e-07
2.9621651e-08
2.583847e-07
2.4753382e-08
2.592292e-07
1.966964e-08
2.6032697e-07
1.4440687e-08
2.6164172e-07
9.1281807e-09
2.6313616e-07
3.7853662e-09
2.6477309e-07
-1.542518e-09
2.6651621e-07
-6.8176929e-09
2.6833081e-07
-1.2009188e-08
2.7018427e-07
-1.7092156e-08
2.7204638e-07
-2.2047174e-08
2.7388958e-07
-2.6859537e-08
2.7568903e-07
-3.1518597e-08
2.7742267e-07
-3.6017134e-08
2.7907113e-07
-4.035078e-08
2.8061768e-07
-4.4517505e-08
2.8204801e-07
-4.8517157e-08
2.8335015e-07
-5.2351063e-08
2.8451423e-07
-5.602168e-08
2.8553234e-07
-5.9532305e-08
2.863983e-07
-6.2886825e-08
2.8710752e-07
-6.6089516e-08
2.8765678e-07
-6.9144877e-08
2.8804412e-07
-7.2057495e-08
2.8826866e-07
-7.4831948e-08
2.8833047e-07
-7.7472719e-08
2.8823044e-07
-7.9984134e-08
2.879702e-07
-8.2370299e-08
2.8755195e-07
-8.4635067e-08
2.8697839e-07
-8.6782001e-08
2.8625261e-07
-8.8814406e-08
2.8537804e-07
-9.0735371e-08
2.8435842e-07
-9.2547826e-08
2.8319759e-07
-9.4254576e-08
2.8189911e-07
-9.5858419e-08
-9.7362557e-08
2.7526471e-07
5.7180669e-09
2.7414241e-07
1.6240277e-08
2.7244489e-07
2.5503124e-08
2.7032004e-07
3.3412138e-08
2.6791504e-07
3.9916229e-08
2.653705e-07
4.5003031e-08
2.6281562e-07
4.8695581e-08
2.6036447e-07
5.1047735e-08
2.5811358e-07
5.2138497e-08
2.5614064e-07
5.2066047e-08
2.5450414e-07
5.0941916e-08
2.5324407e-07
4.8885628e-08
2.5238312e-07
4.6019956e-08
2.5192849e-07
4.2466918e-08
2.5187397e-07
3.8344522e-08
2.5220214e-07
3.3764258e-08
2.5288671e-07
2.8829287e-08
2.5389463e-07
2.3633252e-08
2.5518814e-07
1.8259637e-08
2.5672659e-07
1.2781579e-08
2.5846797e-07
7.2620428e-09
2.6037027e-07
1.7542727e-09
2.6239249e-07
-3.6975512e-09
2.6449549e-07
-9.0575109e-09
2.6664255e-07
-1.4297103e-08
2.6879982e-07
-1.9394359e-08
2.7093653e-07
-2.4332978e-08
2.7302515e-07
-2.9101496e-08
2.7504137e-07
-3.3692506e-08
2.7696401e-07
-3.810195e-08
2.7877491e-07
-4.2328485e-08
2.8045876e-07
-4.6372922e-08
2.8200284e-07
-5.0237739e-08
2.8339683e-07
-5.3926669e-08
2.8463262e-07
-5.7444345e-08
2.85704e-07
-6.0796011e-08
2.8660651e-07
-6.3987284e-08
2.8733721e-07
-6.7023959e-08
2.8789448e-07
-6.991186e-08
2.8827788e-07
-7.2656728e-08
2.8848793e-07
-7.5264131e-08
2.8852606e-07
-7.7739406e-08
2.883944e-07
-8.0087603e-08
2.8809575e-07
-8.2313439e-08
2.8763338e-07
-8.4421254e-08
2.8701096e-07
-8.6414973e-08
2.8623241e-07
-8.8298173e-08
2.8530187e-07
-9.0074147e-08
2.8422364e-07
-9.1745965e-08
2.8300206e-07
-9.3316499e-08
2.8164119e-07
-9.4788466e-08
-9.6164384e-08
2.6782026e-07
6.1476322e-09
2.6663693e-07
1.7412298e-08
2.6486368e-07
2.7256091e-08
2.6266828e-07
3.5578737e-08
2.6021575e-07
4.2331842e-08
2.5766162e-07
4.7512539e-08
2.551464e-07
5.1158812e-08
2.5279171e-07
5.3343429e-08
2.5069777e-07
5.4166767e-08
2.4894239e-07
5.3749411e-08
2.4758114e-07
5.2225115e-08
2.4664852e-07
4.9734447e-08
2.4615988e-07
4.6419322e-08
2.4611382e-07
4.2418495e-08
2.4649483e-07
3.7864036e-08
2.4727608e-07
3.2878733e-08
2.4842214e-07
2.7574346e-08
2.4989144e-07
2.2050591e-08
2.5163859e-07
1.6394758e-08
2.5361634e-07
1.0681823e-08
2.5577721e-07
4.9749425e-09
2.5807481e-07
-6.7376531e-10
2.6046488e-07
-6.2222593e-09
2.6290599e-07
-1.1637493e-08
2.6536008e-07
-1.6894337e-08
2.6779271e-07
-2.1974493e-08
2.7017323e-07
-2.6865457e-08
2.7247476e-07
-3.1559552e-08
2.7467407e-07
-3.6053048e-08
2.7675144e-07
-4.0345385e-08
2.7869036e-07
-4.4438481e-08
2.8047734e-07
-4.8336149e-08
2.821016e-07
-5.204359e-08
2.8355479e-07
-5.5566979e-08
2.8483072e-07
-5.8913117e-08
2.8592513e-07
-6.2089155e-08
2.868354e-07
-6.510237e-08
2.8756034e-07
-6.7959988e-08
2.8809998e-07
-7.0669059e-08
2.8845543e-07
-7.323636e-08
2.8862863e-07
-7.566834e-08
2.8862233e-07
-7.797108e-08
2.884399e-07
-8.015024e-08
2.8808527e-07
-8.2211043e-08
2.8756278e-07
-8.4158221e-08