/*--------------------------------*- C++ -*----------------------------------*\
| =========                 |                                                 |
| \\      /  F ield         | OpenFOAM: The Open Source CFD Toolbox           |
|  \\    /   O peration     | Version:  2312                                  |
|   \\  /    A nd           | Website:  www.openfoam.com                      |
|    \\/     M anipulation  |                                                 |
\*---------------------------------------------------------------------------*/
FoamFile
{
    version     2.0;
    format      ascii;
    arch        "LSB;label=32;scalar=64";
    class       volScalarField;
    location    "0.04";
    object      T;
}
// * * * * * * * * * * * * * * * * * * * * * * * * * * * * * * * * * * * * * //

dimensions      [0 0 0 1 0 0 0];

internalField   nonuniform List<scalar> 
3221
(
300.88848
302.75094
304.70602
306.7536
308.89322
311.12414
313.4453
315.85538
318.35276
320.93556
323.60165
326.34866
329.17397
332.07477
335.04803
338.09057
341.19903
344.36991
347.59956
350.88426
354.22016
357.60335
361.02983
364.49559
367.99656
371.52866
375.08781
378.66991
382.27089
385.88673
389.51346
393.14715
396.78395
400.42012
404.05198
407.67597
411.28864
414.88665
418.4668
422.02601
425.56136
429.07003
432.54936
435.99684
439.41007
442.7868
446.12491
449.4224
452.6774
455.88811
459.05287
462.17004
300.89575
302.77345
304.74455
306.80887
308.96592
311.21489
313.55468
315.98389
318.50085
321.1036
323.78995
326.55746
329.40344
332.32502
335.31911
338.38244
341.51161
344.70305
347.95306
351.25784
354.61349
358.01604
361.46145
364.94564
368.4645
372.0139
375.58971
379.1878
382.80405
386.43442
390.07489
393.72151
397.37044
401.01788
404.66015
408.2937
411.91505
415.5209
419.10802
422.67338
426.21404
429.72722
433.2103
436.66076
440.07628
443.45462
446.79371
450.0916
453.34646
456.55659
459.72035
462.83609
300.90994
302.81738
304.81963
306.91647
309.10731
311.39125
313.76706
316.23324
318.78799
321.42923
324.15463
326.96162
329.84738
332.80891
335.84299
338.94623
342.11509
345.34586
348.63473
351.97779
355.37102
358.81033
362.29157
365.81057
369.36312
372.94501
376.552
380.17988
383.82448
387.48169
391.14744
394.81773
398.48868
402.15647
405.81741
409.46793
413.10456
416.724
420.32308
423.89875
427.44815
430.96853
434.45733
437.91211
441.33059
444.71064
448.05025
451.34757
454.60084
457.80847
460.96891
464.08059
300.93076
302.8818
304.92974
307.0742
309.31448
311.6495
314.07791
316.598
319.2078
321.90504
324.68721
327.55153
330.495
333.51441
336.60634
339.76721
342.99328
346.28067
349.62539
353.02332
356.47029
359.96205
363.49428
367.06266
370.66284
374.29047
377.9412
381.6107
385.29472
388.98904
392.68953
396.39215
400.09294
403.78808
407.47385
411.14669
414.80315
418.43995
422.05396
425.64222
429.2019
432.73037
436.22513
439.68386
443.1044
446.48471
449.82294
453.11733
456.3663
459.56836
462.72211
465.82613
300.95802
302.96614
305.07387
307.28064
309.58554
311.98729
314.48431
317.07466
319.75613
322.52621
325.3821
328.32079
331.33899
334.43324
337.59987
340.83502
344.13471
347.4948
350.91105
354.37912
357.89459
361.45299
365.0498
368.68052
372.34061
376.02552
379.73076
383.45188
387.18449
390.92428
394.66703
398.40863
402.1451
405.87258
409.58736
413.28587
416.96473
420.62072
424.25076
427.85199
431.4217
434.95736
438.45664
441.91734
445.33745
448.71512
452.04865
455.33647
458.57717
461.76945
464.91209
468.00386
300.99162
303.0701
305.25152
307.53506
309.91953
312.40339
314.98475
317.66139
320.43078
323.29007
326.23616
329.26568
332.37504
335.56043
338.81783
342.14309
345.53188
348.97976
352.48217
356.03448
359.63197
363.26991
366.94354
370.64809
374.37879
378.13091
381.89976
385.68074
389.46932
393.26108
397.05172
400.83707
404.61311
408.37597
412.12197
415.84759
419.54951
423.22459
426.86989
430.48267
434.06039
437.60068
441.10138
444.5605
447.97624
451.34695
454.67116
457.94753
461.17486
464.35206
467.47818
470.55218
301.03155
303.19366
305.46265
307.83739
310.31635
312.89764
315.579
318.35783
321.23121
324.19591
327.2484
330.38492
333.60146
336.8938
340.25754
343.68809
347.18076
350.7307
354.33299
357.98264
361.6746
365.4038
369.16518
372.95366
376.76423
380.59192
384.43185
388.27923
392.1294
395.97783
399.82013
403.65209
407.46967
411.26904
415.04655
418.79879
422.52253
426.21478
429.87277
433.49394
437.07595
440.61667
444.11417
447.56671
450.97274
454.33089
457.63994
460.89884
464.10664
467.26255
470.36585
473.4158
301.07788
303.33702
305.70762
308.18815
310.77667
313.47086
316.26799
319.16501
322.15852
325.2448
328.41984
331.67939
335.01893
338.43376
341.91899
345.46956
349.08029
352.7459
356.46101
360.22022
364.01807
367.84913
371.70794
375.58913
379.48738
383.39748
387.31434
391.23298
395.14859
399.05655
402.95241
406.83194
410.69114
414.52621
418.33364
422.11012
425.8526
429.5583
433.22466
436.84938
440.43038
443.9658
447.45403
450.89363
454.28336
457.62217
460.90916
464.14359
467.32483
470.45239
473.52586
476.5448
301.13076
303.50063
305.98721
308.58845
311.30193
314.12479
317.05377
320.08524
323.21523
326.43945
329.7533
333.15193
336.63025
340.18297
343.80462
347.48957
351.2321
355.02639
358.86655
362.74669
366.6609
370.60328
374.56799
378.54931
382.54161
386.5394
390.53737
394.53037
398.51347
402.48197
406.43141
410.35756
414.25651
418.1246
421.95844
425.75494
429.5113
433.22499
436.89374
440.51558
444.08875
447.61177
451.08335
454.50244
457.86816
461.17984
464.43694
467.63907
470.78597
473.87749
476.91354
479.89404
301.1904
303.68518
306.30255
309.03993
311.89427
314.86207
317.93943
321.12206
324.40529
327.78413
331.25331
334.80728
338.44023
342.14621
345.91906
349.7525
353.64016
357.5756
361.55236
365.56397
369.60398
373.66602
377.74384
381.83132
385.9225
390.01162
394.09317
398.16183
402.21261
406.24074
410.24182
414.21171
418.14663
422.04311
425.89801
429.70851
433.47214
437.1867
440.85031
444.46137
448.01855
451.52077
454.96718
458.35714
461.69021
464.96612
468.18475
471.34612
474.45035
477.49766
480.48832
483.42261
301.25709
303.89153
306.65518
309.54477
312.55651
315.68619
318.92911
322.28019
325.73396
329.28461
332.92603
336.65187
340.45551
344.33018
348.26894
352.26475
356.31049
360.39902
364.5232
368.67591
372.85014
377.039
381.23577
385.43393
389.6272
393.80957
397.97532
402.11906
406.23573
410.32063
414.36944
418.3782
422.34336
426.26174
430.13052
433.94727
437.70991
441.41668
445.06616
448.65723
452.18904
455.66098
459.0727
462.42405
465.71506
468.94592
472.11696
475.22864
478.28149
481.27613
484.21323
487.09341
301.33118
304.1208
307.04699
310.10566
313.2922
316.6015
320.02795
323.56553
327.20782
330.94806
334.77917
338.69382
342.68446
346.74338
350.86272
355.03456
359.25094
363.5039
367.78553
372.08802
376.40374
380.72523
385.0453
389.35702
393.65383
397.92947
402.17813
406.39434
410.57311
414.70985
418.80046
422.84125
426.82901
430.76094
434.63468
438.44826
442.20012
445.88904
449.51413
453.07483
456.57084
460.00212
463.36887
466.67145
469.91043
473.08649
476.20046
479.25324
482.24582
485.17924
488.05453
490.87274
301.4131
304.3743
307.48022
310.72584
314.10555
317.61319
321.2421
324.98514
328.83477
332.78311
336.82194
340.94283
345.1371
349.39596
353.71051
358.07181
362.47092
366.89895
371.34716
375.80701
380.27016
384.72859
389.17464
393.60101
398.00086
402.36781
406.69597
410.97994
415.21488
419.39646
423.52089
427.5849
431.58572
435.52109
439.3892
443.18869
446.9186
450.57834
454.16767
457.68665
461.13562
464.51516
467.82605
471.06925
474.24587
477.35715
480.40439
483.389
486.31242
489.17609
491.98149
494.73002
301.50334
304.65357
307.95751
311.40908
315.00148
318.72734
322.57873
326.54722
330.62397
334.79976
339.06507
343.41014
347.82502
352.29966
356.82396
361.38778
365.98109
370.59401
375.21689
379.84035
384.45537
389.05336
393.6262
398.16628
402.66658
407.12067
411.52272
415.86753
420.15053
424.36781
428.51604
432.59251
436.59506
440.52209
444.37248
448.14558
451.84115
455.45934
459.00063
462.4658
465.85587
469.17208
472.41588
475.58884
478.69265
481.72908
484.69999
487.60725
490.45276
493.23842
495.96607
498.63751
301.60247
304.96035
308.48189
312.1597
315.98564
319.9509
324.04606
328.26118
332.58589
337.00942
341.52071
346.10846
350.76127
355.46761
360.21596
364.99489
369.79316
374.59978
379.4041
384.1959
388.96547
393.70366
398.40198
403.05262
407.64848
412.18321
416.6512
421.04761
425.36836
429.61008
433.77011
437.84644
441.8377
445.74309
449.56231
453.29554
456.94339
460.50683
463.98713
467.38585
470.70476
473.94583
477.11117
480.20298
483.22356
486.17525
489.06041
491.88141
494.6406
497.34031
499.9828
502.57027
301.71113
305.29665
309.05679
312.98264
317.06446
321.29176
325.6534
330.13766
334.73235
339.42491
344.20247
349.05199
353.9603
358.91419
363.90058
368.90658
373.91958
378.9274
383.91837
388.88141
393.80614
398.68297
403.50312
408.25871
412.94274
417.54913
422.07269
426.50915
430.8551
435.10793
439.26584
443.32772
447.29315
451.16225
454.93571
458.61467
462.20064
465.69552
469.10145
472.42081
475.65617
478.81023
481.8858
484.88573
487.81293
490.67028
493.46067
496.18692
498.85183
501.45813
504.00851
506.50564
301.83004
305.66472
309.68606
313.88341
318.24514
322.7588
327.4112
332.18855
337.07653
342.06047
347.12543
352.25626
357.43779
362.65493
367.89281
373.1369
378.37315
383.58811
388.76904
393.90406
398.98223
403.99359
408.9293
413.78158
418.54376
423.21025
427.77654
432.23915
436.59558
440.84424
444.98436
449.01594
452.93965
456.75673
460.46895
464.07851
467.58795
471.00012
474.3181
477.54514
480.68462
483.74
486.71478
489.61247
492.43655
495.19047
497.87758
500.50116
503.06438
505.57035
508.02208
510.42264
301.96002
306.06708
310.37406
314.86823
319.53578
324.36195
329.33113
334.42707
339.63302
344.93181
350.306
355.73808
361.21059
366.70629
372.2083
377.70031
383.16672
388.59276
393.96471
399.26996
404.49713
409.63615
414.6783
419.61618
424.44372
429.15611
433.74981
438.2224
442.57257
446.79995
450.90505
454.88916
458.7542
462.50268
466.13755
469.66215
473.08014
476.39538
479.6119
482.73385
485.76542
488.71083
491.57427
494.35988
497.07171
499.71371
502.28971
504.80338
507.25822
509.6576
512.00469
514.30255
302.10197
306.50654
311.1256
315.94403
320.94541
326.11224
331.4261
336.86788
342.41788
348.05601
353.76199
359.51555
365.2966
371.08547
376.86311
382.61126
388.31271
393.95144
399.51279
404.98363
410.35237
415.60909
420.74551
425.75493
430.63222
435.37369
439.97707
444.44134
448.76662
452.95404
457.00558
460.92399
464.71263
468.37535
471.91641
475.34036
478.652
481.85624
484.9581
487.96259
490.87473
493.69947
496.44166
499.10603
501.69718
504.21955
506.67738
509.0747
511.41531
513.70279
515.94047
518.13152
302.2569
306.98623
311.9461
317.11853
322.48405
328.02193
333.71046
339.52708
345.44865
351.45166
357.51254
363.60785
369.71451
375.81016
381.87335
387.88381
393.82272
399.67289
405.41897
411.0475
416.54706
421.90822
427.12354
432.18741
437.09602
441.8472
446.44029
450.87599
455.15614
459.28358
463.262
467.09575
470.78975
474.3493
477.78003
481.08777
484.27845
487.35805
490.33255
493.20784
495.98971
498.6838
501.2956
503.83039
506.29328
508.68913
511.02258
513.29798
515.51939
517.6906
519.81505
521.89609
302.42593
307.50965
312.84156
318.40033
324.16286
330.10464
336.2
342.4223
348.74439
355.13879
361.57807
368.03516
374.48366
380.8982
387.25481
393.53119
399.707
405.7641
411.6867
417.46146
423.0775
428.52638
433.80193
438.90011
443.81889
448.55802
453.11883
457.50403
461.71747
465.76392
469.64895
473.37866
476.95961
480.39864
483.70278
486.87911
489.93475
492.87671
495.71189
498.44702
501.08862
503.64297
506.11613
508.5139
510.84181
513.10518
515.30895
517.45777
519.55593
521.60737
523.61562
525.54707
302.61031
308.08068
313.81867
319.79898
325.99424
332.3754
338.91205
345.57282
352.32579
359.13886
365.98016
372.81847
379.62368
386.36725
393.02255
399.56534
405.97397
412.22969
418.31671
424.22232
429.93673
435.45303
440.76688
445.87632
450.78158
455.48475
459.98954
464.30096
468.42512
472.36894
476.13996
479.74616
483.19582
486.49732
489.65909
492.6895
495.59676
498.38891
501.07371
503.65866
506.15096
508.55746
510.88472
513.13896
515.32617
517.45203
519.52177
521.54027
523.51201
525.44109
527.29527
529.13012
302.81143
308.70365
314.8849
321.32515
327.99194
334.85077
341.86567
348.99964
356.21518
363.47477
370.74143
377.97932
385.15427
392.23435
399.19038
405.99633
412.62965
419.07145
425.30656
431.32351
437.1143
442.67415
448.00117
453.09608
457.96185
462.60335
467.02699
471.24039
475.2521
479.07133
482.70775
486.17124
489.47181
492.6194
495.62382
498.49464
501.24115
503.87233
506.39673
508.82256
511.15759
513.40918
515.58431
517.68955
519.73126
521.71559
523.64791
525.53322
527.37623
529.14699
530.89959
532.63344
303.03085
309.3834
316.04857
322.9907
330.17117
337.54906
345.08177
352.72562
360.43652
368.1707
375.88538
383.53955
391.09471
398.51551
405.77038
412.8319
419.67717
426.28787
432.6502
438.75472
444.59597
450.17204
455.48416
460.53632
465.33472
469.8874
474.20378
478.29433
482.17022
485.84304
489.32462
492.62678
495.76123
498.73942
501.57248
504.27112
506.84564
509.30582
511.66098
513.91988
516.09081
518.18155
520.19943
522.15119
524.04345
525.88333
527.67581
529.42592
531.10584
532.77111
534.41601
536.03648
303.2703
310.12534
317.31899
324.80881
332.54885
340.4905
348.58324
356.77547
365.01542
373.25206
381.4361
389.52091
397.46346
405.22512
412.7723
420.07684
427.11625
433.87368
440.33765
446.50168
452.36368
457.9254
463.19193
468.17105
472.87269
477.30841
481.49091
485.43366
489.15053
492.65559
495.9628
499.08588
502.0382
504.83264
507.48153
509.99665
512.38914
514.66957
516.84785
518.93327
520.93446
522.85956
524.71626
526.51109
528.25034
529.94429
531.59549
533.17831
534.74828
536.29573
537.82016
539.29778
303.53174
310.93555
318.70655
326.7942
335.14378
343.69741
352.39511
361.17592
369.97908
378.74531
387.41804
395.94467
404.27766
412.37543
420.20303
427.73247
434.94273
441.81952
448.35481
454.54607
460.39552
465.90945
471.09746
475.97169
480.54618
484.83629
488.85819
492.62846
496.16375
499.48052
502.59484
505.52227
508.2777
510.87533
513.3286
515.65018
517.85199
519.94522
521.9403
523.84695
525.67397
527.4297
529.12269
530.75855
532.33988
533.88939
535.36971
536.841
538.27866
539.70203
541.07966
542.45804
303.81735
311.82079
320.22289
328.96337
337.97688
347.19442
356.5447
365.95569
375.35624
384.6777
393.85559
402.83113
411.55251
419.9759
428.06599
435.79616
443.14818
450.11167
456.68326
462.86549
468.66593
474.09621
479.17106
483.90746
488.3239
492.43975
496.27473
499.84857
503.18064
506.28975
509.19397
511.91054
514.45578
516.84503
519.09269
521.21217
523.21601
525.11595
526.92286
528.64683
530.29643
531.87966
533.4083
534.88693
536.29714
537.68623
539.04946
540.38638
541.67925
542.96207
544.24066
545.50651
304.1296
312.78872
321.88115
331.33479
341.07145
351.00869
361.06174
371.14557
381.17703
391.07702
400.77265
410.19901
419.30068
428.03264
436.3606
444.26086
451.7196
458.73187
465.30027
471.43365
477.14593
482.45481
487.38073
491.94588
496.1734
500.08679
503.70937
507.06393
510.17247
513.05599
515.73442
518.22651
520.54983
522.72072
524.75433
526.66464
528.46466
530.16662
531.7816
533.32051
534.79096
536.19747
537.5629
538.85669
540.13155
541.37366
542.59935
543.77824
544.95554
546.12115
547.2793
548.43217
304.47127
313.848
323.69614
333.92922
344.45344
355.17019
365.97861
376.77841
387.47277
397.97119
408.19206
418.06488
427.53167
436.54776
445.08175
453.11476
460.63925
467.65731
474.17898
480.22067
485.80351
490.95199
495.69267
500.0532
504.06152
507.74524
511.13117
514.24506
517.11133
519.75301
522.19167
524.44739
526.53877
528.48296
530.29575
531.99138
533.58308
535.08378
536.50391
537.85731
539.15032
540.36959
541.55762
542.70899
543.83677
544.91891
545.99686
547.05734
548.10715
549.15068
550.19168
551.23335
304.84555
315.00847
325.68463
336.77002
348.15186
359.71197
371.33035
382.889
394.27571
405.38776
416.13504
426.44241
436.25106
445.5188
454.21937
462.34103
469.88449
476.86069
483.28864
489.19337
494.6041
499.55258
504.07181
508.19503
511.95493
515.38315
518.50982
521.3634
523.97053
526.35599
528.54277
530.55201
532.40319
534.11405
535.70097
537.17799
538.55804
539.85595
541.0778
542.24723
543.33998
544.40025
545.43073
546.41302
547.38121
548.33332
549.27204
550.20119
551.12562
552.04944
552.97616
553.90914
305.25605
316.28132
327.86567
339.88357
352.19909
364.67043
377.1549
389.51403
401.61864
413.35339
424.6204
435.34167
445.45993
454.93819
463.75812
471.91764
479.42791
486.31056
492.59498
498.31586
503.51109
508.22007
512.48236
516.33676
519.8206
522.96928
525.81601
528.39169
530.72483
532.8417
534.76644
536.52096
538.12551
539.59802
540.95592
542.21214
543.37744
544.47501
545.49044
546.4651
547.39756
548.2776
549.13623
549.97502
550.79558
551.60506
552.40786
553.20804
554.00976
554.81673
555.63219
556.45941
305.70692
317.67938
330.26098
343.29977
356.63143
370.08569
383.49308
396.69182
409.5344
421.89308
433.66384
444.76837
455.15418
464.79284
473.67715
481.81739
489.2375
495.97161
502.06073
507.54999
512.4864
516.91715
520.88835
524.44416
527.62626
530.47351
533.02184
535.30424
537.35075
539.18874
540.84328
542.33668
543.69009
544.92047
546.04839
547.08426
548.02827
548.91196
549.75151
550.53092
551.28037
552.00266
552.70208
553.38689
554.06176
554.73215
555.40251
556.07691
556.75915
557.45253
558.16003
558.88473
306.20298
319.21741
332.89548
347.05253
361.48953
376.00186
390.38864
404.46201
418.05529
431.02947
443.27703
454.7231
465.32397
475.06382
483.95
492.00807
499.27707
505.80521
511.64615
516.85599
521.49109
525.60634
529.25417
532.48378
535.3408
537.86714
540.10103
542.07719
543.8267
545.37757
546.75595
547.98344
549.08359
550.068
550.96784
551.76467
552.51272
553.18956
553.83098
554.43591
555.01225
555.56861
556.11102
556.64599
557.17862
557.7137
558.25537
558.80766
559.37407
559.95751
560.56061
561.18629
306.74977
320.9125
335.79782
351.18056
366.81903
382.46736
397.88825
412.86514
427.21231
440.78185
453.46682
465.20061
475.95331
485.72611
494.54465
502.45275
509.50666
515.76996
521.30966
526.19312
530.48593
534.25047
537.54505
540.42342
542.93469
545.12327
547.02921
548.68866
550.13319
551.39062
552.48941
553.44692
554.29606
555.02677
555.69531
556.27503
556.80927
557.29512
557.74666
558.17188
558.57817
558.97279
559.3619
559.75124
560.14573
560.54972
560.9667
561.40089
561.8555
562.33295
562.83543
563.36581
307.3538
322.78451
339.00115
355.72807
372.6712
389.53526
406.04125
421.94202
437.03426
451.16527
464.23432
476.18923
487.01965
496.74858
505.42385
513.11033
519.88317
525.82232
531.00849
535.52021
539.43201
542.81324
545.72749
548.23246
550.38019
552.21696
553.78401
555.11893
556.2531
557.21193
558.03173
558.71238
559.30583
559.79869
560.23171
560.6024
560.92928
561.22006
561.4862
561.73619
561.97664
562.21406
562.45429
562.70257
562.9635
563.2411
563.53745
563.85781
564.20505
564.58073
564.98647
565.42541
308.02273
324.85676
342.54404
360.74583
379.10365
397.26352
414.89941
431.73298
447.54675
462.18947
475.57411
487.67034
498.49372
508.0942
516.54552
523.93599
530.36097
535.9173
540.69932
544.79636
548.29126
551.25966
553.76968
555.88222
557.65169
559.1255
560.34514
561.35038
562.17229
562.82588
563.35994
563.77785
564.11489
564.37512
564.57957
564.73767
564.8629
564.96209
565.04757
565.12756
565.20713
565.29232
565.3886
565.50076
565.63302
565.78969
565.96911
566.18015
566.42487
566.70334
567.01614
567.36759
308.76564
327.15674
346.4716
366.29226
386.1812
405.71514
424.51643
442.2769
458.77104
473.85786
487.4735
499.61797
510.33957
519.72036
527.8633
534.88194
540.89264
546.00912
550.33893
553.98143
557.0269
559.55647
561.64181
563.34611
564.72586
565.82871
566.6942
567.3673
567.86574
568.22574
568.47783
568.63563
568.72143
568.74691
568.72901
568.67834
568.60605
568.52051
568.43126
568.34597
568.27007
568.2084
568.16604
568.14729
568.15575
568.19463
568.26519
568.37209
568.5177
568.70392
568.92718
569.19515
309.59337
329.71713
350.83687
372.43486
393.97663
414.95825
434.94725
453.61008
470.72284
486.16656
499.91192
511.9986
522.51483
531.57941
539.32718
545.89808
551.42963
556.05192
559.88482
563.03661
565.60392
567.67247
569.31641
570.59982
571.58174
572.30932
572.81445
573.14905
573.33635
573.40463
573.37837
573.2755
573.11606
572.91177
572.67708
572.42311
572.15952
571.89452
571.63635
571.39199
571.16675
570.9639
570.78853
570.64444
570.53449
570.46142
570.42717
570.43468
570.48592
310.51906
332.57711
355.70265
379.25179
402.57167
425.06599
446.24709
465.76492
483.41108
499.10357
512.86053
524.7714
534.97115
543.61927
550.88425
556.9328
561.92302
566.00037
569.29573
571.92489
573.98937
575.57884
576.76862
577.62127
578.20061
578.54267
578.6963
578.69765
578.57538
578.35228
578.05218
577.69352
577.29601
576.86745
576.42239
575.9716
575.52334
575.08507
574.66421
574.26706
573.89932
573.56115
573.25857
572.99502
572.77225
572.59275
572.45846
572.37144
572.33341
311.5587
335.78405
361.14372
386.83383
412.05778
436.11612
458.47029
478.76848
496.83675
512.64796
526.28205
537.88844
547.6548
555.78419
562.47951
567.9337
572.32421
575.8103
578.5322
580.61148
582.15262
583.24927
583.97669
584.3904
584.56177
584.52738
584.33033
584.00049
583.5719
583.06335
582.49579
581.88665
581.26019
580.61333
579.96479
579.32454
578.69876
578.09397
577.51711
576.97311
576.47088
576.00306
575.57909
575.20238
574.87242
574.59194
574.36263
574.18602
574.06352
312.73209
339.39576
367.24967
395.28659
422.53697
448.19041
471.66886
492.64108
510.99188
526.76954
540.13109
551.29531
560.50737
568.01552
574.05663
578.84836
582.58555
585.4392
587.55696
589.06426
590.06541
590.65995
590.914
590.89502
590.66222
590.24934
589.70465
589.04884
588.32225
587.53495
586.7073
585.85213
585.01007
584.14962
583.30514
582.48371
581.68804
580.92385
580.19834
579.51203
578.88581
578.29314
577.75306
577.27031
576.83878
576.46272
576.14354
575.8823
575.68013
314.06395
343.48347
374.1285
404.733
434.12237
461.37359
485.89091
507.39497
525.85879
541.42893
554.35447
564.93172
573.46658
580.25257
585.55876
589.62504
592.66093
594.84669
596.33526
597.25432
597.70181
597.78671
597.57542
597.11983
596.48455
595.69795
594.81571
593.83664
592.82414
591.7656
590.68727
589.60265
588.53441
587.47648
586.44505
585.45197
584.49435
583.57789
582.71173
581.89681
581.14045
580.43469
579.78255
579.20325
578.67534
578.20914
577.80522
577.46432
577.18726
315.58567
348.13589
381.91115
415.31618
446.93854
475.75204
501.17906
523.03322
541.40993
556.57789
568.89197
578.73233
586.46708
592.43337
596.92929
600.21331
602.5063
603.9949
604.83502
605.14777
605.04585
604.62111
603.93903
603.05059
602.02394
600.86464
599.66278
598.37697
597.06863
595.74463
594.43533
593.12705
591.84754
590.59812
589.38693
588.2334
587.1217
586.05947
585.06088
584.12239
583.2471
582.43266
581.682
580.99739
580.38578
579.83547
579.35189
578.93624
578.58905
317.33775
353.46474
390.7572
427.20239
461.12125
491.41214
517.56921
539.54939
557.60824
572.16003
583.67715
592.62757
599.4413
604.49552
608.11251
610.56467
612.08017
612.8488
613.02295
612.73526
612.07479
611.13874
609.99726
608.67734
607.27798
605.76158
604.22713
602.64961
601.06295
599.47943
597.95694
596.42939
594.95076
593.51869
592.13277
590.83362
589.57494
588.3718
587.25027
586.19481
585.2092
584.29297
583.44716
582.67297
581.97302
581.34005
580.78785
580.3023
579.88975
319.37338
359.6123
400.86201
440.58405
476.81692
508.43879
535.0867
556.92187
574.40134
588.10652
598.63531
606.54373
612.32011
616.37679
619.05427
620.63307
621.34398
621.37429
620.88573
619.9869
618.76938
617.32946
615.74457
614.01424
612.22548
610.36029
608.52434
606.66167
604.80925
602.9926
601.23454
599.51211
597.84741
596.24397
594.70499
593.24706
591.85117
590.51723
589.28558
588.11966
587.03085
586.01955
585.08404
584.22572
583.44544
582.73988
582.11145
581.56602
581.09372
321.76386
366.76196
412.46552
455.68266
494.18149
526.90666
553.73381
575.10295
591.71393
604.33143
613.68085
620.40164
625.03304
628.01578
629.70259
630.3754
630.26251
629.55375
628.38535
626.88996
625.11801
623.20974
621.16244
619.02012
616.8841
614.69436
612.53775
610.40366
608.30726
606.26605
604.29332
602.38205
600.54215
598.7774
597.0909
595.48962
593.9653
592.51796
591.15853
589.89879
588.71633
587.61723
586.59792
585.66109
584.80685
584.03301
583.33983
582.72663
582.20473
324.60697
375.15299
425.86298
472.75126
513.36898
546.86251
573.47748
594.01313
609.44628
620.73192
628.7175
634.11622
637.50803
639.3527
640.00818
639.75407
638.81071
637.3462
635.5083
633.43489
631.13732
628.71929
626.25879
623.74019
621.22696
618.73021
616.28404
613.89129
611.56185
609.30719
607.13544
605.04498
603.0404
601.12421
599.29832
597.56536
595.92122
594.36548
592.90327
591.53954
590.25614
589.09119
587.99393
586.98415
586.06172
585.22434
584.47108
583.79919
583.22307
328.04008
385.1013
441.41754
492.06661
534.51001
568.30983
594.2412
613.53805
627.47434
637.18979
643.64033
647.59848
649.67218
650.32955
649.92924
648.73479
646.94683
644.73874
642.27192
639.60269
636.76773
633.92067
631.01309
628.12338
625.27599
622.48338
619.76567
617.12852
614.57852
612.12267
609.76559
607.50685
605.34815
603.29041
601.33412
599.47959
597.72403
596.06639
594.50828
593.05051
591.68221
590.4349
589.27672
588.19988
587.21475
586.31865
585.51025
584.78808
584.15565
332.26134
397.02867
459.56938
513.90959
557.68974
591.19386
615.89821
633.52758
645.65155
653.57432
658.33854
660.75779
661.45349
660.89736
659.42159
657.27355
654.65469
651.75121
648.60531
645.38349
642.06965
638.73708
635.43667
632.19582
629.03319
625.95965
622.98726
620.12062
617.36345
614.71922
612.18972
609.77404
607.47183
605.28244
603.20498
601.23822
599.3795
597.62705
595.98045
594.43898
592.99801
591.66277
590.44149
589.31324
588.27075
587.3206
586.46147
585.69213
585.01362
337.56439
411.50334
480.83487
538.53544
582.92056
615.38693
638.26766
653.79745
663.8125
669.74592
672.69862
673.50438
672.79207
670.99855
668.43604
665.35067
661.95846
658.29554
654.56888
650.77321
646.96185
643.20732
639.53417
635.96176
632.50298
629.16521
625.95482
622.87394
619.92349
617.10391
614.41459
611.85337
609.41823
607.10705
604.91761
602.84751
600.89369
599.05367
597.32572
595.70815
594.19788
592.79512
591.49655
590.32462
589.23454
588.23484
587.32915
586.51621
585.79551
344.39542
429.28733
505.78719
566.12996
610.11131
640.67736
661.11486
674.13392
681.77817
685.56065
686.60769
685.76389
683.6143
680.57438
676.94841
672.99451
668.74943
664.45189
660.08794
655.74925
651.4867
647.33417
643.31014
639.42682
635.69138
632.107
628.67538
625.39567
622.26604
619.28424
616.44744
613.75202
611.19442
608.77115
606.47881
604.31392
602.27287
600.35245
598.54999
596.86301
595.28852
593.82434
592.46363
591.23566
353.44701
451.39266
535.01252
596.74835
639.03778
666.76488
684.15694
694.30132
699.36255
700.87508
699.97182
697.44603
693.84511
689.59512
684.99237
680.07632
675.1271
670.11944
665.16828
660.33665
655.64805
651.12253
646.77072
642.59792
638.60569
634.7928
631.15678
627.69369
624.399
621.26803
618.29589
615.47743
612.80766
610.28183
607.89541
605.64402
603.52336
601.52956
599.65917
597.90905
596.27591
594.75664
593.34698
592.05393
365.81962
479.13599
569.01577
630.24087
669.32196
693.26561
707.07376
714.05195
716.37995
715.56771
712.68596
708.44945
703.44758
698.1009
692.41501
686.71391
680.9704
675.31654
669.83095
664.53822
659.45145
654.57908
649.92343
645.48311
641.2542
637.23111
633.40749
629.77638
626.33067
623.06341
619.96782
617.03723
614.26533
611.64621
609.17431
606.84439
604.6515
602.5911
600.65914
598.85186
597.16558
595.59668
594.1411
592.79666
383.30093
514.14576
608.05592
666.17914
700.4286
719.7282
729.52362
733.13742
732.6679
729.52687
724.60292
718.73337
712.46653
705.90853
699.35708
692.76895
686.30029
680.06339
674.07988
668.35951
662.90421
657.71202
652.77704
648.09144
643.64607
639.43107
635.43652
631.65255
628.06963
624.67871
621.47125
618.43916
615.57489
612.87146
610.32237
607.92161
605.66357
603.54314
601.5557
599.69697
597.96289
596.34947
594.85245
593.46651
408.85289
558.21585
651.90988
703.8085
731.686
745.66018
751.16189
751.32921
748.10205
742.54824
735.68351
728.35399
720.67311
713.18846
705.67137
698.24923
691.14136
684.36436
677.9216
671.80834
666.01529
660.53088
655.34137
650.43281
645.79107
641.40231
637.25325
633.3313
629.62467
626.12239
622.81431
619.69101
616.7438
613.9647
611.34641
608.88217
606.56579
604.39162
602.35453
600.4498
598.67302
597.0199
595.48621
594.06879
447.44435
612.80141
699.61414
742.05597
762.33265
770.56155
771.65907
768.47081
762.42559
754.59109
745.99352
737.03114
728.26465
719.81105
711.31705
703.19429
695.49846
688.22675
681.36498
674.89447
668.7951
663.04633
657.62713
652.51778
647.69955
643.15485
638.86734
634.82192
631.0047
627.40299
624.00515
620.80054
617.77945
614.93301
612.25315
609.73249
607.36427
605.14236
603.06118
601.11565
599.301
597.61274
596.04652
594.59917
507.29375
677.91194
749.30513
779.61385
791.58362
793.96065
790.79336
784.27305
775.55152
765.74995
755.17565
744.85037
735.25371
725.67955
716.37568
707.60995
699.37981
691.66051
684.42096
677.62933
671.25529
665.27
659.64572
654.35745
649.38221
644.69898
640.28864
636.1338
632.21869
628.52902
625.05186
621.77546
618.68917
615.78334
613.04922
610.47884
608.06497
605.80102
603.68106
601.69963
599.85171
598.13259
596.53774
595.06348
600.52222
750.48817
798.31384
815.0939
818.70533
815.52824
808.24733
798.54657
787.63049
775.63655
763.30714
751.94479
741.44138
730.85098
720.84871
711.5053
702.79663
694.67792
687.10229
680.02575
673.40854
667.21427
661.40912
655.96331
650.85002
646.04516
641.52709
637.27638
633.27557
629.50898
625.96248
622.62337
619.48016
616.52252
613.74107
611.12736
608.6737
606.37314
604.2194
602.20673
600.32988
598.58392
596.96419
595.46655
736.60399
823.3496
843.59974
847.07797
843.17612
834.95919
823.63912
811.52085
798.26693
784.26292
770.36251
758.3388
746.79104
735.37369
724.74731
714.89312
705.76284
697.29328
689.42324
682.09769
675.26836
668.8921
662.9297
657.34712
652.11413
647.20392
642.59264
638.25905
634.18421
630.35121