/*--------------------------------*- C++ -*----------------------------------*\
| =========                 |                                                 |
| \\      /  F ield         | OpenFOAM: The Open Source CFD Toolbox           |
|  \\    /   O peration     | Version:  2312                                  |
|   \\  /    A nd           | Website:  www.openfoam.com                      |
|    \\/     M anipulation  |                                                 |
\*---------------------------------------------------------------------------*/
FoamFile
{
    version     2.0;
    format      ascii;
    arch        "LSB;label=32;scalar=64";
    class       volScalarField;
    location    "0.01";
    object      alphat;
}
// * * * * * * * * * * * * * * * * * * * * * * * * * * * * * * * * * * * * * //

dimensions      [1 -1 -1 0 0 0 0];

internalField   nonuniform List<scalar> 
3221
(
0.028107529
0.027777101
0.027440438
0.027099834
0.026756611
0.026411747
0.026066079
0.025720396
0.025375475
0.025032098
0.024690867
0.024352854
0.024018947
0.023689785
0.023366136
0.023048734
0.02273826
0.022435337
0.022140523
0.021854301
0.021577076
0.021309178
0.021050858
0.020802294
0.020563595
0.020334805
0.020115916
0.019909985
0.019711643
0.019522004
0.019341856
0.019173086
0.019012466
0.018859728
0.01871561
0.018581258
0.018454735
0.018335386
0.018223843
0.018119883
0.01802329
0.017933858
0.017851389
0.01777569
0.017706579
0.017643877
0.017587413
0.01753702
0.01749253
0.017453758
0.017420636
0.01739298
0.028102557
0.027767196
0.027427263
0.027083954
0.026738265
0.02639108
0.026043198
0.025695394
0.02534844
0.02500312
0.02465995
0.024320245
0.023984658
0.023653912
0.023328779
0.023009996
0.022698249
0.022394162
0.022098295
0.021811129
0.021533069
0.021264442
0.021005493
0.020756394
0.020517245
0.020288082
0.020068885
0.019862758
0.019664358
0.019474531
0.019294205
0.019125291
0.018964668
0.018811733
0.018667396
0.018532781
0.018406209
0.018286545
0.018174622
0.018070226
0.017973136
0.017883139
0.017800037
0.017723636
0.017653754
0.017590214
0.017532846
0.017481485
0.017435969
0.017396096
0.017361809
0.01733296
0.028096882
0.02775254
0.027405264
0.027055599
0.02670419
0.026351701
0.025998842
0.025646336
0.025294922
0.024945337
0.024598128
0.024254733
0.023915619
0.023581588
0.023253418
0.022931852
0.022617577
0.022311221
0.022013338
0.021724405
0.021444817
0.021174888
0.020914848
0.02066485
0.020424975
0.020195235
0.019975584
0.019769209
0.019570805
0.01938075
0.019200197
0.019030968
0.018870453
0.018717193
0.018572526
0.018437394
0.018310361
0.018190277
0.018077607
0.017972327
0.017874212
0.017783046
0.01769863
0.017620772
0.017549291
0.017484017
0.017424783
0.017371433
0.017323815
0.017281742
0.01724514
0.017213906
0.028090363
0.027734551
0.027377166
0.02701843
0.026658719
0.026298544
0.025938493
0.025579219
0.025221428
0.024865642
0.024512915
0.024164218
0.023820161
0.023481556
0.023149187
0.022823802
0.022506092
0.02219668
0.021896116
0.021604866
0.021323309
0.021051737
0.020790356
0.020539291
0.020298591
0.020068235
0.019848143
0.019641616
0.019443403
0.019253324
0.019073
0.018902329
0.018742412
0.018589111
0.018444325
0.018307836
0.018180425
0.018060021
0.017946414
0.017839985
0.017740512
0.017647781
0.017561593
0.017481761
0.017408107
0.017340468
0.017278688
0.01722262
0.017172125
0.017127049
0.017087275
0.017052773
0.028083141
0.027714007
0.027344385
0.02697436
0.02660418
0.026234237
0.025865031
0.025497155
0.025131271
0.024767711
0.024408072
0.024052765
0.023702595
0.023358379
0.023020906
0.022690926
0.02236913
0.022056136
0.021752481
0.021458613
0.021174888
0.020901567
0.020638823
0.02038674
0.020145324
0.019914511
0.019694172
0.019487742
0.019289991
0.019100013
0.018919741
0.018748846
0.018589074
0.018435838
0.018290743
0.018153728
0.018025583
0.01790483
0.017790234
0.017682486
0.017581438
0.017486873
0.01739859
0.017316406
0.017240151
0.01716967
0.01710482
0.017045469
0.016991493
0.016942774
0.01689916
0.016860682
0.028075344
0.027691448
0.027307931
0.026924852
0.02654241
0.02616094
0.025780901
0.025402851
0.025027217
0.024654868
0.024286955
0.023923976
0.023566763
0.023216137
0.022872896
0.022537789
0.022211502
0.021894641
0.021587725
0.021291176
0.021005314
0.020730361
0.020466443
0.020213594
0.019971762
0.019740825
0.019520591
0.019314634
0.019117714
0.018928155
0.018748268
0.018577659
0.018418295
0.018265367
0.018120291
0.017983151
0.017853677
0.017732493
0.017617304
0.017508211
0.017405492
0.01730894
0.017218357
0.017133567
0.01705441
0.016980744
0.016912441
0.016849387
0.016791476
0.016738613
0.016690687
0.016647676
0.028067063
0.027667252
0.027268518
0.026870959
0.026474784
0.026080328
0.025688042
0.025298474
0.024911827
0.024529667
0.024152466
0.02378096
0.023415988
0.023058378
0.022708931
0.022368391
0.022037435
0.02171665
0.021406526
0.021107448
0.020819692
0.020543427
0.020278718
0.020025533
0.019783753
0.01955318
0.019333548
0.01912857
0.018932951
0.018744273
0.018565233
0.018395379
0.018236815
0.018084508
0.017939648
0.01780235
0.017672338
0.017550463
0.017434887
0.017324449
0.017220025
0.017121411
0.017028411
0.016940855
0.016858595
0.016781505
0.016709477
0.016642417
0.016580243
0.016522881
0.016470269
0.016422341
0.02805836
0.027641669
0.027226629
0.026813416
0.026402298
0.025993648
0.025587949
0.025185588
0.024787207
0.024394203
0.024006945
0.023626274
0.023253041
0.022888085
0.022532206
0.022186145
0.021850557
0.021526002
0.021212932
0.020911682
0.020622468
0.020345392
0.020080445
0.019827515
0.019586399
0.019356813
0.0191384
0.018935014
0.018741231
0.01855399
0.018376327
0.018207721
0.018050399
0.01789908
0.017754754
0.017617635
0.017487343
0.017364913
0.017248596
0.017137257
0.017031156
0.016930462
0.016834983
0.01674456
0.016659064
0.016578388
0.016502445
0.016431165
0.016364492
0.016302379
0.01624479
0.016191711
0.028049276
0.027614858
0.027182576
0.026752714
0.02632563
0.025901771
0.025481679
0.025065513
0.024654783
0.024250148
0.023852255
0.023461976
0.023080181
0.022707721
0.022345394
0.021993927
0.02165395
0.021325983
0.021010425
0.020707545
0.020417486
0.020140267
0.019875787
0.01962384
0.019384122
0.019156251
0.01893977
0.018738669
0.018547287
0.018362098
0.018186377
0.018019534
0.01786392
0.017713973
0.017570553
0.01743401
0.017303972
0.017180236
0.01706342
0.016951569
0.016843852
0.016741085
0.016643094
0.016549741
0.016460916
0.016376535
0.016296538
0.016220881
0.016149538
0.016082492
0.016019736
0.015961295
0.028039827
0.027586905
0.027136539
0.026689149
0.02624521
0.025805273
0.025369843
0.024939331
0.024515542
0.024098743
0.023689821
0.02328968
0.022899218
0.022519294
0.022150703
0.021794149
0.021450224
0.021119394
0.020801989
0.020498197
0.020208069
0.01993152
0.019668343
0.019418219
0.019180732
0.018955387
0.018741617
0.018543541
0.018355133
0.018172636
0.017999439
0.017834874
0.017681421
0.017533186
0.01739098
0.017255215
0.017125424
0.017001338
0.016883748
0.016771106
0.016662078
0.016557231
0.016456697
0.016360357
0.016268125
0.016179943
0.01609578
0.016015624
0.01593948
0.015867364
0.0157993
0.015735341
0.028030013
0.027557832
0.027088585
0.026622853
0.026161258
0.025704489
0.025252812
0.024807706
0.024370194
0.023940873
0.0235207
0.023110628
0.022711582
0.02232443
0.021949955
0.021588827
0.021241587
0.020908629
0.020590194
0.020286369
0.01999709
0.019722153
0.019461223
0.019213854
0.018979503
0.018757549
0.018547309
0.01835302
0.018168148
0.017988982
0.017818876
0.017657088
0.017506222
0.017359998
0.017219302
0.017084564
0.016955324
0.016831398
0.016712217
0.016598835
0.016488846
0.016381924
0.016278811
0.016179424
0.016083706
0.015991631
0.015903201
0.015818437
0.01573738
0.015660083
0.015586604
0.015517026
0.028019819
0.027527609
0.027038689
0.026553827
0.026073814
0.025599454
0.025131001
0.02467083
0.024219207
0.023777141
0.023345656
0.022925757
0.022518396
0.022124443
0.021744658
0.021379663
0.021029927
0.020695749
0.020377263
0.020074428
0.019787045
0.019514768
0.019257117
0.019013501
0.018783236
0.018565568
0.018359687
0.01816994
0.017989143
0.017813921
0.017647442
0.017488889
0.01734099
0.017197019
0.017058072
0.016924526
0.016795897
0.016671954
0.016551984
0.016437478
0.016326379
0.01621746
0.016111689
0.016009171
0.015909875
0.015813807
0.015721003
0.015631525
0.01554545
0.015462869
0.01538388
0.015308597
0.028009213
0.027496158
0.026986748
0.026481968
0.025982824
0.025489893
0.025004676
0.024528766
0.024062801
0.023607916
0.02316522
0.022735773
0.02232055
0.021920414
0.021536085
0.021168115
0.020816878
0.020482557
0.020165144
0.01986445
0.019580116
0.019311631
0.019058351
0.018819526
0.018594318
0.01838183
0.018181121
0.017996638
0.017820424
0.017649708
0.017487338
0.017332427
0.017187816
0.017046272
0.016909254
0.01677702
0.016649075
0.016525189
0.01640457
0.016288748
0.016176082
0.016065437
0.015956923
0.015851173
0.015748189
0.015648012
0.01555072
0.015456413
0.015365211
0.015277247
0.015192657
0.015111591
0.027998149
0.027463359
0.026932582
0.026407052
0.025887991
0.02537589
0.024873506
0.024381501
0.023901052
0.023433404
0.022979754
0.022541211
0.022118765
0.021713253
0.021325332
0.020955462
0.02060389
0.020270649
0.019955565
0.01965827
0.019378219
0.019114715
0.018866933
0.018633948
0.018414762
0.018208324
0.018013559
0.017835006
0.017663834
0.017498116
0.017340274
0.01718936
0.017048281
0.016909265
0.016774282
0.016643424
0.016516208
0.016392482
0.0162715
0.016153301
0.016039127
0.015926926
0.015815579
0.015706471
0.015599667
0.015495251
0.015393341
0.015294084
0.015197641
0.01510419
0.015013909
0.014926983
0.02798657
0.027429056
0.026875964
0.026328826
0.025788755
0.025257433
0.02473718
0.024228855
0.023733899
0.023253688
0.022789502
0.022342495
0.02191365
0.021503757
0.021113383
0.020742859
0.02039227
0.020061468
0.019750078
0.019457521
0.019183042
0.018925736
0.018684583
0.018458474
0.018246239
0.018046675
0.017858568
0.017686533
0.017520803
0.017360476
0.017207501
0.017060919
0.016923515
0.016787044
0.016654122
0.016524623
0.016398075
0.016274377
0.016152631
0.016032824
0.015916739
0.015802273
0.015688292
0.015575669
0.015464894
0.015356092
0.015249426
0.015145087
0.015043284
0.014944238
0.014848172
0.014755311
0.027974406
0.027393056
0.026816587
0.02624686
0.02568494
0.025133991
0.024595375
0.024070574
0.023561205
0.023068773
0.022594639
0.02213998
0.021705751
0.021292661
0.020901149
0.020531376
0.02018323
0.019856337
0.019550087
0.019263661
0.018996067
0.018746176
0.018512757
0.018294511
0.0180901
0.017898169
0.017717362
0.017552348
0.017392378
0.017237695
0.017089768
0.01694807
0.016814238
0.016680237
0.016549327
0.016421117
0.016295165
0.016171349
0.016048731
0.015927344
0.015808934
0.01569187
0.015575295
0.015459003
0.015344098
0.015230756
0.015119188
0.015009632
0.014902345
0.014797593
0.014695649
0.014596774
0.027961578
0.027355148
0.026754155
0.026160516
0.025576384
0.025005008
0.024447686
0.023906344
0.023382781
0.022878628
0.022395308
0.021933998
0.02149559
0.021080669
0.020689501
0.020322032
0.019977903
0.019656477
0.019356869
0.01907799
0.01881859
0.018577295
0.018352658
0.018143188
0.017947388
0.017763768
0.017590836
0.017433256
0.017279281
0.017130287
0.01698687
0.01685213
0.016720669
0.016589103
0.016460096
0.016333055
0.01620762
0.016083494
0.015959963
0.01583719
0.015715299
0.015595702
0.015476441
0.015356429
0.015237223
0.015119182
0.015002565
0.014887656
0.014774762
0.014664198
0.014556282
0.014451317
0.027947993
0.027315075
0.026688248
0.026069454
0.025462584
0.024869965
0.024293659
0.023735816
0.023198419
0.022683211
0.022191656
0.02172489
0.021283696
0.020868488
0.020479301
0.020115813
0.01977737
0.019463025
0.019171584
0.01890166
0.018651722
0.018420142
0.018205247
0.018005359
0.017818841
0.017644115
0.017479593
0.017329776
0.017182027
0.017039028
0.016900873
0.016771225
0.016642412
0.016513496
0.016386308
0.016260292
0.016135227
0.016010554
0.015885848
0.015761193
0.015636528
0.015513916
0.015391288
0.015267655
0.015143983
0.015021087
0.014899276
0.014778886
0.014660269
0.01454379
0.014429815
0.014318689
0.027933554
0.027272578
0.026618231
0.025973512
0.025342856
0.02472839
0.024132826
0.023558637
0.023007919
0.022482505
0.021983856
0.021513025
0.021070628
0.02065684
0.020271407
0.019913679
0.019582654
0.01927703
0.018995273
0.018735671
0.018496396
0.01827556
0.018071259
0.017881629
0.017704908
0.017539524
0.01738399
0.017242074
0.017100624
0.016963698
0.016830852
0.016705793
0.016579545
0.016453155
0.016327625
0.016202448
0.016077557
0.015952098
0.015825998
0.015699265
0.015571832
0.015445774
0.015319461
0.015192199
0.015063905
0.014936008
0.014808871
0.014682879
0.014558435
0.014435951
0.01431584
0.014198492
0.027918144
0.027227327
0.026543682
0.025872226
0.02521658
0.024579728
0.023964772
0.023374462
0.022811112
0.022276531
0.021772136
0.021298829
0.020856988
0.020446479
0.020066687
0.019716571
0.019394725
0.019099456
0.018828853
0.018580866
0.018353363
0.018144191
0.017951222
0.017772395
0.017605806
0.017449952
0.017304312
0.017169948
0.017034747
0.016903852
0.016776331
0.016655523
0.01653168
0.016407585
0.016283487
0.016158953
0.016033971
0.015907504
0.015779816
0.015650886
0.015520862
0.015390255
0.015260316
0.015129334
0.014996379
0.014863346
0.014730765
0.014599068
0.014468707
0.014340142
0.014213834
0.014090217
0.027901657
0.027178774
0.026464494
0.025764828
0.025083179
0.024423419
0.023789031
0.023183026
0.022607881
0.022065374
0.021556785
0.021082785
0.020643429
0.020238188
0.019866011
0.019525398
0.019214491
0.018931162
0.018673108
0.018437925
0.018223182
0.018026471
0.017845456
0.017677894
0.017521649
0.017374629
0.017241361
0.017112543
0.01698384
0.016858801
0.016736929
0.016619736
0.016498127
0.016376061
0.016253133
0.016129109
0.016003615
0.015875997
0.015746494
0.015615122
0.015482025
0.015347409
0.015213448
0.015078163
0.014940668
0.014802394
0.014664274
0.014526789
0.01439044
0.014255738
0.014123189
0.013993271
0.027883967
0.027126558
0.026380305
0.025650632
0.024942015
0.024258897
0.023605162
0.02298406
0.022398143
0.021849186
0.02133817
0.020865448
0.020430656
0.020032778
0.019670244
0.019341031
0.019042778
0.018772899
0.018528676
0.018307356
0.018106214
0.017922611
0.017754034
0.017598116
0.01745265
0.017315537
0.017191952
0.017069367
0.016947203
0.016827191
0.016712912
0.016597218
0.016478047
0.016357718
0.016235697
0.016111947
0.015985642
0.015856656
0.015725117
0.015591077
0.015454681
0.015316111
0.015177909
0.015038029
0.014895992
0.01475238
0.014608642
0.014465307
0.014322923
0.014182049
0.014043236
0.013907007
0.027864802
0.027070737
0.026290336
0.025529029
0.02479245
0.024085601
0.023412751
0.02277735
0.02218196
0.021628216
0.021116739
0.02064744
0.020219418
0.019831072
0.019480229
0.019164281
0.018880324
0.018625287
0.018396041
0.018189485
0.018002623
0.017832604
0.017676767
0.017532666
0.017398106
0.017271118
0.01715644
0.017040122
0.016924485
0.01681014
0.016700963
0.016587194
0.016470411
0.01635157
0.016230227
0.016106434
0.015979075
0.015848501
0.01571472
0.015577826
0.015437986
0.015295403
0.015152754
0.015008056
0.014861477
0.014712473
0.014563066
0.014413843
0.014265401
0.014118343
0.013973267
0.013830737
0.02784398
0.027011025
0.026193878
0.025399325
0.024633825
0.023902977
0.02321142
0.022562739
0.021959409
0.021402779
0.020893013
0.020429438
0.020010497
0.019633895
0.019296773
0.018995884
0.018727752
0.01848881
0.018275522
0.018084462
0.017912383
0.017756251
0.017613275
0.017480931
0.017357091
0.017240771
0.01713422
0.017023955
0.016914501
0.016806116
0.016700772
0.016588913
0.016474216
0.016356557
0.016235771
0.01611142
0.015982901
0.015850514
0.015714301
0.015574402
0.015431029
0.015284401
0.015137021
0.014987376
0.01483607
0.014681826
0.014526716
0.014371592
0.014217093
0.014063865
0.013912549
0.013763751
0.027821479
0.026946611
0.026090299
0.025260812
0.024465474
0.023710493
0.023000835
0.02234013
0.021730639
0.021173268
0.02066758
0.020212171
0.019804691
0.019442047
0.01912062
0.018836479
0.018585555
0.018363794
0.018167269
0.017992258
0.017835296
0.017693199
0.017563062
0.0174422
0.017327923
0.017224835
0.017124187
0.01701981
0.016915483
0.016814961
0.016711081
0.01660138
0.016488404
0.016371641
0.016251134
0.016125915
0.015996038
0.015861645
0.015722835
0.015579805
0.015432855
0.015282419
0.015129272
0.014975253
0.014818917
0.014659548
0.014498746
0.014337738
0.014177209
0.014017849
0.013860341
0.01370533
0.027797135
0.026876903
0.025978912
0.025112759
0.024286729
0.023507639
0.022780711
0.0221095
0.021495886
0.020940152
0.020441088
0.019996395
0.01960279
0.019256282
0.018952429
0.018686583
0.018454083
0.018250403
0.018071258
0.017912669
0.017770997
0.017642956
0.017525606
0.017416306
0.017312525
0.017219732
0.017124771
0.017026964
0.016928413
0.016833106
0.016730788
0.016623398
0.016511839
0.016395795
0.016275118
0.016148867
0.016017425
0.015880849
0.015739288
0.015592991
0.015442306
0.015287675
0.01512959
0.014970727
0.014809206
0.014644793
0.014478325
0.014311474
0.014144966
0.013979535
0.013815905
0.01365476
0.02777067
0.026801444
0.025859022
0.024954418
0.024096923
0.023293932
0.022550818
0.021870896
0.021255467
0.020703969
0.020214228
0.019782871
0.019405551
0.019077279
0.018792745
0.018546572
0.01833352
0.018148627
0.017987291
0.017845322
0.017718952
0.01760484
0.017500077
0.017402176
0.017308882
0.017224978
0.017135599
0.017044087
0.016951581
0.016859845
0.016759209
0.016653849
0.016543414
0.016427928
0.016306609
0.016179221
0.01604602
0.015907098
0.015762652
0.015612976
0.015458453
0.01529954
0.015136723
0.014972952
0.014806062
0.014636714
0.014464643
0.01429201
0.014119597
0.013948178
0.013778518
0.013611336
0.027741842
0.026719687
0.02572989
0.024785011
0.023895383
0.023068913
0.022310978
0.021624438
0.021009764
0.020465306
0.019987709
0.019572345
0.019213666
0.018905614
0.018641979
0.018416663
0.018223882
0.018058282
0.017914999
0.017789682
0.01767848
0.017578033
0.017485486
0.017398571
0.017316067
0.01723958
0.017155658
0.017069464
0.016984752
0.016893686
0.016795381
0.016691667
0.016582114
0.016466841
0.016344633
0.016215935
0.016080808
0.015939402
0.015791961
0.01563882
0.015480397
0.015317184
0.015149725
0.014981219
0.014808554
0.014634424
0.014456925
0.014278585
0.014100359
0.013923056
0.013747478
0.013574379
0.027710396
0.026631023
0.025590713
0.024603719
0.023681427
0.02283215
0.022061064
0.021370303
0.020759218
0.020224782
0.019762236
0.019365506
0.019027731
0.018741728
0.018500379
0.018296897
0.018125002
0.017979009
0.017853853
0.017745076
0.017648786
0.017561629
0.017480769
0.017403703
0.01733426
0.01726192
0.017184122
0.017104134
0.017023925
0.016934217
0.016838139
0.016735759
0.016627021
0.016511345
0.016388228
0.016258027
0.016120825
0.015976818
0.015826294
0.015669629
0.015507276
0.015339757
0.015167656
0.014994242
0.01481647
0.014637149
0.014454414
0.014270468
0.014086542
0.013903479
0.013722112
0.013543231
0.027676054
0.026534781
0.025440626
0.024409679
0.023454362
0.02258323
0.021800989
0.021108718
0.020504299
0.019983017
0.019538466
0.019162957
0.018848213
0.0185859
0.018368013
0.018187127
0.018036533
0.017910284
0.017803179
0.017710707
0.017628983
0.017554683
0.017485116
0.017419218
0.017358986
0.017291402
0.017219112
0.017147152
0.017068252
0.016980683
0.016886481
0.016785188
0.016676956
0.016560591
0.016436419
0.016304561
0.016165161
0.016018459
0.015864788
0.015704564
0.015538275
0.015366472
0.015189753
0.015011424
0.01482878
0.014644235
0.014456404
0.014266971
0.014077475
0.01388879
0.013701783
0.013517272
0.027638504
0.026430219
0.025278686
0.024201972
0.023213471
0.022321753
0.021530705
0.020839943
0.020245488
0.019740598
0.019316982
0.018965171
0.018675413
0.018438221
0.018244752
0.018087015
0.01795795
0.017851425
0.017762169
0.017685679
0.017618111
0.017556134
0.017496566
0.017444023
0.017389759
0.017327444
0.01726173
0.017194647
0.017117197
0.01703205
0.016939401
0.016839134
0.016730793
0.016613722
0.016488317
0.016354668
0.016212965
0.016063497
0.015906639
0.015742844
0.01557264
0.015396604
0.015215331
0.015032079
0.014844709
0.014654989
0.01446223
0.014267444
0.014072526
0.013878375
0.013685887
0.013495913
0.027597399
0.026316514
0.025103861
0.023979609
0.022958008
0.022047326
0.021250182
0.020564247
0.019983235
0.01949804
0.019098238
0.018772457
0.018509435
0.018298573
0.018130262
0.017996033
0.017888563
0.017801612
0.017729907
0.017669013
0.017615197
0.017565328
0.017516707
0.017474434
0.017424967
0.017368446
0.01731102
0.017245573
0.017170401
0.017087375
0.016996042
0.016896544
0.016787747
0.016669876
0.016543093
0.016407539
0.016263454
0.01611117
0.015951103
0.015783749
0.015609674
0.015429498
0.01524382
0.015055517
0.014863581
0.014668748
0.014471254
0.014271283
0.014071107
0.01387166
0.013673867
0.013478606
0.027552346
0.026192741
0.024915007
0.02374152
0.022687189
0.021759546
0.020959391
0.020281877
0.019717921
0.019255735
0.01888252
0.018584913
0.018350158
0.018166612
0.018024001
0.017913471
0.01782753
0.017759907
0.017705389
0.017659653
0.01761911
0.017580897
0.017543674
0.017509364
0.017465028
0.017415503
0.017363205
0.017299469
0.017226981
0.01714576
0.017055688
0.016956373
0.016847095
0.016728269
0.016599985
0.016462437
0.016315909
0.016160778
0.0159975
0.015826613
0.015648729
0.01546454
0.015274862
0.015080971
0.014884811
0.014684883
0.014482863
0.014277937
0.014072679
0.013868116
0.013665202
0.013464843
0.027502895
0.026057856
0.02471085
0.023486536
0.022400175
0.021457994
0.020658283
0.019993022
0.019449793
0.019013907
0.018669895
0.018402393
0.01819721
0.018041763
0.01792522
0.017838453
0.017773885
0.017725284
0.017687553
0.017656517
0.017628706
0.017601079
0.017577235
0.017547403
0.017508733
0.017467755
0.017417186
0.017356193
0.017286092
0.01720645
0.017117426
0.017017909
0.016908102
0.016788185
0.0166583
0.016518687
0.016369677
0.016211687
0.016045214
0.015870834
0.015689198
0.015501042
0.015307196
0.015108578
0.014908189
0.014702799
0.014496474
0.0142869
0.014076748
0.013867259
0.013659417
0.013454155
0.027448531
0.025910666
0.02448996
0.023213371
0.022096059
0.021142203
0.020346752
0.019697776
0.019178983
0.018772559
0.018460163
0.018224469
0.018049955
0.017923218
0.017832987
0.017769962
0.017726562
0.017696661
0.017675322
0.017658555
0.017643135
0.017627426
0.017612993
0.017588583
0.017557065
0.017521343
0.01747294
0.017414952
0.017346945
0.017268852
0.017180296
0.017080567
0.016970095
0.016848978
0.016717413
0.016575686
0.016424171
0.016263327
0.016093689
0.015915867
0.015730548
0.01553849
0.015340523
0.015137492
0.014932706
0.014722582
0.014511757
0.014297728
0.014082872
0.013868651
0.013656081
0.013446118
0.027388651
0.025749795
0.024250715
0.022920595
0.021773848
0.020811638
0.020024586
0.019396061
0.018905439
0.018531402
0.018252801
0.018050404
0.017907483
0.017809945
0.0177462
0.017706865
0.017684432
0.017672927
0.017667621
0.017664688
0.017660774
0.017658998
0.017649951
0.017632238
0.01760918
0.017575267
0.017530334
0.017475024
0.017408905
0.017332166
0.017243693
0.017143731
0.017032473
0.016910068
0.016776762
0.016632889
0.016478866
0.016315189
0.01614243
0.015961232
0.015772308
0.015576439
0.015374457
0.015167207
0.014958115
0.014743582
0.01452833
0.014310028
0.014090655
0.013871898
0.013654802
0.013440348
0.027322545
0.025573647
0.023991269
0.022606616
0.021432436
0.020465652
0.019691401
0.019087513
0.018628667
0.018289758
0.018046916
0.017879133
0.017768616
0.017700716
0.017663622
0.017647954
0.017646329
0.017652977
0.017663428
0.017674085
0.017683109
0.017691523
0.017687974
0.017679792
0.017660889
0.017630166
0.017588603
0.017535724
0.017471499
0.017395527
0.017307157
0.017206842
0.017094699
0.016970937
0.016835851
0.016689819
0.016533299
0.016366824
0.016191
0.016006501
0.015814065
0.015614492
0.015408627
0.015197329
0.014984083
0.014765359
0.014545822
0.01432344
0.014099742
0.013876646
0.013655218
0.013436495
0.027249367
0.025380352
0.023709511
0.02226965
0.02107058
0.020103438
0.019346565
0.018771381
0.018347767
0.018046507
0.017841207
0.017709254
0.017631929
0.017594134
0.017583924
0.017591981
0.017611092
0.017635732
0.017661749
0.017685246
0.017709211
0.017724238
0.017728914
0.017727521
0.01771223
0.017685591
0.017647141
0.017596535
0.017534019
0.017458454
0.017370181
0.017269405
0.017156302
0.017031133
0.016894243
0.016746053
0.016587062
0.016417837
0.016239017
0.016051304
0.01585546
0.015652304
0.015442697
0.01522752
0.015010291
0.014787563
0.014563895
0.01433764
0.014109817
0.027168096
0.025167703
0.023403012
0.021907691
0.020686852
0.019723949
0.018989106
0.018446675
0.018061339
0.017800017
0.017633938
0.017539036
0.017495776
0.017488681
0.017505727
0.017537707
0.017577604
0.017620163
0.017661862
0.0176995
0.017734758
0.017757254
0.017771899
0.017774167
0.017763733
0.017740952
0.017705385
0.017657105
0.017595696
0.017520598
0.017432312
0.01733099
0.017216866
0.017090258
0.016951555
0.016801225
0.016639801
0.016467887
0.01628615
0.016095319
0.015896181
0.015689573
0.015476374
0.015257489
0.015036457
0.014809906
0.014582252
0.014352333
0.014120595
0.027077486
0.024933083
0.023068982
0.021518474
0.020279588
0.019325784
0.018617501
0.018111584
0.017767309
0.017548068
0.017422923
0.017366451
0.017358348
0.017382777
0.01742766
0.017483949
0.017544835
0.017605243
0.017662621
0.017715897
0.017758955
0.0177925
0.017813117
0.017820522
0.01781486
0.017795746
0.017762943
0.017716803
0.01765618
0.017581551
0.017493157
0.01739122
0.017276034
0.017147969
0.017007461
0.016855019
0.016691213
0.01651668
0.016332115
0.016138273
0.015935962
0.015726039
0.015509404
0.015286985
0.01506234
0.014832162
0.014600622
0.01436725
0.014131833
0.026975996
0.024673367
0.022704201
0.021099432
0.019846793
0.018907043
0.018229484
0.017763473
0.017462811
0.017287801
0.017205534
0.017189217
0.017217732
0.017274839
0.01734841
0.017429625
0.017511914
0.017590006
0.01766572
0.01772992
0.017784716
0.017826284
0.017853113
0.017866262
0.01786516
0.017849517
0.017819571
0.017774961
0.017715222
0.017640957
0.017552379
0.017449775
0.0173335
0.017203973
0.01706168
0.016907167
0.016741041
0.016563968
0.016376673
0.016179933
0.015974577
0.015761483
0.015541571
0.015315794
0.015087736
0.014854173
0.014618751
0.014382144
0.014143304
0.026861704
0.024384811
0.022304958
0.020647633
0.019386022
0.01846513
0.017822104
0.017398712
0.017144065
0.017015676
0.016978739
0.017004875
0.017071999
0.017163363
0.017266777
0.017373785
0.017478229
0.017575834
0.017667432
0.017743551
0.017809249
0.017858198
0.017892184
0.017910956
0.017914247
0.017901989
0.017874719
0.017831348
0.017772498
0.017698514
0.01760969
0.017506382
0.017389004
0.017258026
0.017113978
0.016957446
0.01678907
0.016609546
0.016419625
0.016220106
0.016011839
0.015795721
0.015572692
0.015343729
0.015112461
0.014875896
0.014636362
0.014396801
0.01415481
0.026732176
0.024062904
0.021866968
0.02015968
0.018894168
0.017996376
0.017390847
0.017012357
0.016806251
0.016727456
0.016739171
0.016810879
0.016919298
0.017047006
0.017181722
0.017315599
0.017442891
0.017561837
0.017666545
0.017757267
0.017831486
0.01788906
0.017930009
0.017954258
0.017961776
0.017953014
0.017927828
0.017885804
0.017827743
0.017753968
0.017664851
0.017560816
0.017442333
0.017309924
0.017164163
0.017005671
0.016835123
0.016653244
0.016460808
0.016258635
0.016047595
0.015828601
0.015602614
0.015370632
0.015136305
0.014896722
0.014653734
0.014411156
0.014166204
0.026584289
0.023702187
0.021385275
0.019631566
0.018367166
0.01749572
0.016929486
0.016597877
0.016443396
0.016418221
0.016483248
0.016604727
0.016757978
0.016924679
0.01709242
0.017254469
0.017407426
0.017544375
0.017665541
0.017768032
0.017852469
0.017918558
0.017966313
0.017995898
0.01800757
0.018002157
0.017978751
0.017938089
0.017880737
0.017807112
0.017717667
0.01761289
0.017493312
0.017359503
0.017212077
0.017051696
0.016879062
0.016694929
0.016500092
0.016295395
0.016081722
0.015860004
0.015631216
0.015396376
0.015159144
0.014916662
0.014670585
0.014425099
0.014177364
0.026413977
0.023296029
0.020854121
0.019058412
0.01779952
0.016956122
0.016434653
0.016156099
0.016057505
0.016088563
0.01620872
0.016384107
0.016586705
0.016795656
0.016998292
0.017192001
0.017368544
0.017525534
0.017661698
0.017777069
0.017871968
0.017946463
0.01800088
0.01803564
0.018051562
0.018048971
0.018027409
0.017988017
0.017931302
0.017857779
0.017767979
0.017662459
0.017541804
0.017406633
0.017257602
0.017095405
0.016920778
0.016734497
0.01653738
0.01633029
0.016114127
0.015889836
0.015658406
0.015420868
0.015180887
0.014935664
0.014686753
0.014438522
0.014188186
0.026215841
0.02283633
0.020266758
0.018434018
0.017183545
0.016380107
0.015912725
0.015693306
0.015654419
0.015743903
0.015920412
0.016150016
0.016404591
0.016659687
0.016900911
0.017125742
0.017327122
0.017503667
0.017655939
0.017784471
0.017889825
0.017972616
0.01803355
0.018073375
0.018093494
0.018093331
0.018073651
0.01803544
0.0179793
0.01790584
0.017815669
0.01770941
0.017587705
0.017451219
0.017300647
0.017136717
0.016960191
0.016771872
0.016572599
0.016363249
0.016144741
0.015918029
0.015684116
0.015444037
0.015201465
0.014953666
0.014702136
0.014451338
0.014198584
0.025982552
0.022313149
0.019615151
0.017750081
0.016524687
0.015774834
0.015370759
0.015216079
0.015240087
0.015389616
0.015623121
0.015906816
0.016212873
0.016516672
0.016799887
0.017056171
0.01728263
0.017479692
0.017648534
0.017790226
0.017905965
0.017996918
0.018064206
0.018109088
0.018133043
0.018135228
0.018117358
0.018080248
0.018024627
0.017951197
0.017860647
0.017753664
0.017630943
0.017493194
0.017341151
0.017175572
0.016997249
0.016807006
0.016605701
0.016394228
0.016173519
0.015944539
0.015708298
0.015465837
0.015220829
0.01497062
0.014716663
0.014463481
0.01420849
0.025703872
0.021714222
0.01888946
0.017009801
0.015830311
0.015148314
0.014816239
0.014731094
0.014820388
0.015030908
0.015321476
0.015658643
0.01601535
0.016368186
0.016694003
0.016983157
0.017235956
0.017454101
0.017639595
0.017794382
0.017920377
0.018019323
0.01809277
0.018142785
0.018170007
0.018174624
0.018158448
0.018122363
0.018067211
0.017993788
0.017902856
0.017795168