/*--------------------------------*- C++ -*----------------------------------*\
| =========                 |                                                 |
| \\      /  F ield         | OpenFOAM: The Open Source CFD Toolbox           |
|  \\    /   O peration     | Version:  2312                                  |
|   \\  /    A nd           | Website:  www.openfoam.com                      |
|    \\/     M anipulation  |                                                 |
\*---------------------------------------------------------------------------*/
FoamFile
{
    version     2.0;
    format      ascii;
    arch        "LSB;label=32;scalar=64";
    class       volScalarField;
    location    "0.01";
    object      CO2;
}
// * * * * * * * * * * * * * * * * * * * * * * * * * * * * * * * * * * * * * //

dimensions      [0 0 0 0 0 0 0];

internalField   nonuniform List<scalar> 
3221
(
0.00013695767
0.00042693455
0.00073311852
0.0010558487
0.0013953234
0.0017515874
0.0021245155
0.002513794
0.0029189039
0.0033391049
0.0037734237
0.0042206406
0.0046792803
0.0051476123
0.0056236537
0.0061051748
0.0065897106
0.0070745789
0.0075569026
0.0080336377
0.0085016072
0.008957539
0.0093981092
0.0098199894
0.010219895
0.010594635
0.010941157
0.011252491
0.011532835
0.011778053
0.011984878
0.01214961
0.012273751
0.012355961
0.012394784
0.012390036
0.012342159
0.012251103
0.012118243
0.011945005
0.011733197
0.011484984
0.011202856
0.010889587
0.010548196
0.010181898
0.0097940504
0.0093881036
0.0089707761
0.0085418427
0.0081031003
0.0076604741
0.00014041598
0.00043779216
0.00075192186
0.0010831903
0.0014318353
0.0017979357
0.0021813947
0.0025819221
0.0029990169
0.0034319507
0.0038797555
0.004341209
0.0048148237
0.0052988501
0.0057912752
0.0062898293
0.0067919965
0.0072950326
0.0077959873
0.0082917329
0.008778998
0.009254406
0.0097145196
0.010155888
0.010575097
0.010968818
0.011333858
0.011662828
0.011960042
0.012221471
0.012443441
0.012621937
0.012758425
0.012851713
0.012900006
0.012902928
0.01286104
0.012774053
0.012643294
0.012470167
0.012256462
0.012004349
0.011716346
0.011395281
0.01104425
0.010666567
0.010265731
0.0098455245
0.0094111399
0.0089662194
0.0085094421
0.0080479467
0.00014700722
0.00045845875
0.00078764125
0.0011350195
0.0015009054
0.0018854427
0.0022885899
0.0027101023
0.0031495134
0.0036061184
0.0040789607
0.0045668133
0.0050681699
0.0055812462
0.0061039768
0.0066340199
0.0071687688
0.0077053677
0.0082407352
0.0087715924
0.0092944975
0.0098058857
0.010302114
0.01077951
0.011234425
0.011663282
0.012062632
0.012424299
0.012752817
0.01304439
0.013294588
0.013498948
0.01365852
0.013772651
0.013838869
0.013856467
0.013825967
0.013747122
0.013620772
0.013448385
0.013231711
0.012972917
0.012674566
0.012339576
0.01197118
0.011572887
0.011148435
0.010701756
0.010236917
0.0097613218
0.0092720011
0.0087757603
0.00015638002
0.00048783782
0.00083837967
0.0012085674
0.0015988074
0.0020093305
0.002440172
0.0028911514
0.0033618531
0.003851609
0.0043594801
0.0048842356
0.0054243484
0.0059779896
0.0065430245
0.0071170163
0.0076972364
0.0082806798
0.0088640883
0.0094439789
0.010016679
0.010578369
0.011125126
0.011652978
0.012157953
0.012636137
0.013083728
0.013491424
0.013864044
0.014198163
0.014487992
0.014730647
0.014922807
0.015066793
0.015158947
0.015198328
0.015184752
0.015118435
0.014999441
0.014829294
0.014609661
0.014342688
0.014030975
0.013677537
0.013285768
0.012859388
0.012402386
0.011918957
0.011413384
0.010894252
0.010359901
0.009814908
0.00016819688
0.00052488074
0.00090233523
0.0013012302
0.0017220794
0.0021652156
0.0026307665
0.0031186318
0.0036284607
0.0041596341
0.0047112371
0.0052820402
0.0058704958
0.006474725
0.007092513
0.007721312
0.0083582489
0.0090001413
0.0096435193
0.010284655
0.0109196
0.011544224
0.01215427
0.0127454
0.013313254
0.013853508
0.014361926
0.014827767
0.015256206
0.015644532
0.015985511
0.01627613
0.016511146
0.016693936
0.016820196
0.016888467
0.016897938
0.0168491
0.016741365
0.016576002
0.016354631
0.016079337
0.01575273
0.015377913
0.014958447
0.014498291
0.014001761
0.013473511
0.012918603
0.012342541
0.011753563
0.011147718
0.0001821441
0.00056861551
0.00097784397
0.0014106152
0.0018675594
0.0023491214
0.0028555335
0.0033867876
0.0039426112
0.0045224427
0.0051253976
0.0057502567
0.0063954522
0.0070590533
0.0077387591
0.0084318994
0.0091354415
0.0098460043
0.010559881
0.011273069
0.011981307
0.012680119
0.013364865
0.014030796
0.014673113
0.015287026
0.015867815
0.016402995
0.016898203
0.017351761
0.017754549
0.018103065
0.018390525
0.018621176
0.018789963
0.018894704
0.01893421
0.018908286
0.0188168
0.018659884
0.018439261
0.018156887
0.017815335
0.017417768
0.016967898
0.016469938
0.015928545
0.015348771
0.014736003
0.014095753
0.013439274
0.012763555
0.00019793416
0.00061815265
0.0010633864
0.0015345436
0.0020323775
0.0025574539
0.0031101181
0.0036904638
0.0042983079
0.0049331516
0.0055941496
0.0062800985
0.0069894131
0.0077201099
0.0084697984
0.0092356786
0.010014547
0.010802809
0.011596504
0.012391331
0.013182693
0.013965737
0.014735413
0.015486525
0.016213801
0.016911947
0.017575722
0.018190607
0.018762843
0.019292049
0.019766835
0.020183104
0.020532408
0.020820019
0.02104004
0.021189385
0.021266359
0.021269876
0.021200409
0.021056787
0.020840662
0.02055382
0.020198733
0.019778562
0.019297133
0.01875888
0.018168796
0.017532373
0.016855588
0.016144979
0.015407695
0.014655122
0.00021530549
0.00067268377
0.0011575834
0.0016710407
0.0022139385
0.0027869695
0.0033905991
0.0040250325
0.0046901803
0.0053856114
0.0061105285
0.0068637469
0.0076436656
0.0084482484
0.0092750119
0.010121021
0.010982893
0.011856811
0.012738544
0.013623482
0.014506672
0.015382869
0.016246593
0.017092183
0.017913869
0.018705837
0.0194623
0.020166419
0.020825285
0.021439941
0.021996457
0.022490091
0.022910483
0.023264182
0.023544366
0.023746844
0.023869333
0.023909751
0.023868488
0.023744417
0.023537736
0.023250364
0.022884569
0.022443432
0.021930821
0.021351351
0.020710329
0.02001369
0.019267924
0.018479953
0.017656777
0.016813862
0.0002340214
0.00073147778
0.0012591885
0.0018183236
0.0024099011
0.0030347459
0.0036934493
0.0043863342
0.0051134067
0.0058743075
0.0066682922
0.0074941957
0.008350401
0.0092348171
0.010144864
0.011077466
0.012029054
0.01299558
0.013972536
0.01495499
0.015937627
0.016914802
0.017880592
0.018828866
0.019753352
0.020647705
0.021505589
0.022307561
0.02306197
0.023771182
0.024418602
0.02499881
0.025499254
0.025928101
0.026277445
0.026541792
0.026718101
0.026803987
0.026798065
0.026700394
0.026509266
0.02622656
0.025854245
0.025395218
0.024853299
0.024233202
0.023540487
0.022781503
0.021963303
0.021093549
0.020180419
0.019232827
0.00025386879
0.00079387692
0.0013670809
0.0019747902
0.0026181626
0.0032981598
0.004015504
0.004770638
0.0055636618
0.0063942924
0.0072618375
0.0081651492
0.009102591
0.010072012
0.01107073
0.012095521
0.013142623
0.014207747
0.015286104
0.016372434
0.017461057
0.018545922
0.019620672
0.020678708
0.02171326
0.022717464
0.023684436
0.024591866
0.025449963
0.026261998
0.027008777
0.02768419
0.028273201
0.028786045
0.029213467
0.029548574
0.029787533
0.029927231
0.029964901
0.029900761
0.029732674
0.029460932
0.029087538
0.028615064
0.028047158
0.027388523
0.026644881
0.025822906
0.024930141
0.023974847
0.022965796
0.021911976
0.0002746572
0.0008592937
0.0014802602
0.002139011
0.0028368481
0.0035748725
0.0043539426
0.0051746164
0.0060370857
0.0069411459
0.0078861497
0.0088709603
0.0098939138
0.010952791
0.012044795
0.013166545
0.014314075
0.015482851
0.016667792
0.017863311
0.019063363
0.020261499
0.021450936
0.022624623
0.023775312
0.024895639
0.0259782
0.026997551
0.027966589
0.028888712
0.029742405
0.030520865
0.031206288
0.031811568
0.032325647
0.032740221
0.033050549
0.033252569
0.033342995
0.033320054
0.033182975
0.032929494
0.032561584
0.032081364
0.031492167
0.030798553
0.030006282
0.029122269
0.028154507
0.027111955
0.026004434
0.02484271
0.00029621805
0.00092720892
0.0015978433
0.0023097253
0.0030643042
0.0038628238
0.0047062776
0.005595332
0.006530269
0.007510955
0.0085367783
0.0096066005
0.010718717
0.011870824
0.013059997
0.014282683
0.015534701
0.016811257
0.018106978
0.019415947
0.020731759
0.022047582
0.023356222
0.0246502
0.025921825
0.027163267
0.028366633
0.029503109
0.030589299
0.031627607
0.032594665
0.033483
0.034271772
0.034977284
0.035585996
0.03608831
0.036478519
0.036751596
0.036903345
0.036930129
0.036832009
0.036605145
0.036250174
0.035768996
0.035164459
0.034440812
0.033603703
0.032660151
0.031618486
0.030488251
0.029280114
0.028005941
0.00031840425
0.00099717055
0.0017190626
0.0024858386
0.0032990972
0.0041602287
0.0050703527
0.0060302353
0.0070402468
0.0081003087
0.0092098287
0.010367649
0.011572004
0.012820483
0.014110013
0.015436849
0.016796576
0.018184132
0.019593844
0.021019467
0.022454245
0.023890978
0.025322088
0.026739702
0.028135723
0.029501905
0.030829921
0.032087359
0.033295709
0.034454977
0.035540545
0.036544312
0.037442217
0.038254862
0.038965299
0.039562882
0.040040876
0.040393227
0.040614751
0.040699948
0.040648581
0.040457204
0.040123287
0.039648814
0.039035968
0.038288503
0.037411776
0.036412738
0.0352999
0.034083244
0.032774113
0.031385217
0.00034108994
0.0010687932
0.0018432656
0.0026664229
0.0035400149
0.0044655764
0.0054443414
0.006477168
0.0075645018
0.0087062993
0.009901965
0.011150295
0.012449434
0.013796838
0.015189254
0.016622719
0.018092565
0.019593448
0.021119387
0.022663811
0.024219629
0.025779291
0.027334868
0.028878129
0.030400621
0.03189374
0.033348792
0.034729582
0.036063757
0.037347318
0.038555046
0.039678229
0.040689672
0.041615202
0.042433294
0.043132591
0.043705282
0.044144194
0.044442912
0.044595834
0.044598878
0.044451283
0.044146976
0.043687464
0.043074186
0.042310209
0.041400391
0.040351414
0.039171781
0.037871755
0.03646327
0.034960004
0.0003641703
0.001141758
0.0019699147
0.0028507161
0.0037860668
0.0047776342
0.0058267525
0.0069343656
0.0081009692
0.0093265292
0.010610416
0.011951345
0.013347333
0.014795664
0.016292873
0.017834745
0.019416334
0.021031997
0.022675437
0.024339767
0.026017573
0.027700984
0.029381753
0.031051332
0.032700959
0.034321733
0.035904687
0.037409702
0.038871914
0.040281623
0.041613547
0.04285805
0.043985994
0.045028825
0.045959072
0.046765138
0.04743816
0.047969888
0.048352825
0.048580396
0.048645916
0.048549089
0.048283685
0.047847604
0.047242316
0.04646998
0.045534727
0.044442735
0.043202263
0.04182364
0.040319197
0.038703398
0.00038756142
0.0012158122
0.0020985878
0.0030381259
0.004036484
0.0050954466
0.0062164355
0.0074004621
0.0086480424
0.0099591165
0.01133298
0.012768225
0.014262694
0.015813452
0.017416776
0.019068165
0.020762364
0.022493411
0.024254693
0.026039011
0.02783865
0.029645454
0.031450895
0.033246146
0.035022168
0.036769811
0.038479931
0.040108469
0.04169939
0.043235747
0.044692658
0.046056646
0.04730341
0.048466456
0.04951165
0.050427814
0.051205134
0.051834345
0.052306892
0.052615156
0.052750178
0.052711095
0.052492688
0.052088504
0.051499878
0.050727906
0.049775769
0.048648884
0.047355005
0.045904254
0.044309111
0.042584585
0.00041120008
0.0012907693
0.0022289772
0.003228228
0.0042907205
0.0054183389
0.0066125808
0.0078744934
0.009204576
0.010602699
0.012068034
0.013598993
0.015193188
0.01684741
0.018557628
0.02031901
0.022125961
0.023972183
0.025850742
0.027754141
0.029674397
0.031603105
0.033531504
0.035450529
0.037350867
0.03922308
0.041057908
0.042807629
0.044526293
0.046188736
0.047773858
0.049242799
0.05061604
0.051899656
0.053060616
0.054088212
0.054971868
0.055701366
0.056267068
0.056660016
0.056871915
0.056896157
0.056731204
0.056367291
0.055803836
0.055041184
0.054081317
0.052928626
0.051590063
0.050075246
0.048396512
0.046569169
0.0004350434
0.001366508
0.0023608913
0.003420765
0.0045484517
0.0057459195
0.0070147208
0.008355898
0.0097698874
0.011256435
0.012814526
0.014442328
0.016137154
0.017895459
0.019712845
0.0215841
0.023503259
0.02546367
0.027458079
0.02947871
0.031517346
0.033565393
0.035613923
0.037653688
0.039675079
0.041668127
0.043623175
0.045490168
0.04733359
0.049117711
0.05082351
0.052405112
0.053901303
0.055301704
0.05657677
0.057714999
0.058705009
0.059535704
0.060196499
0.060677431
0.060969378
0.061062456
0.060955906
0.060640236
0.060110047
0.059365586
0.058407432
0.057238688
0.055865202
0.05429576
0.052542217
0.050619865
0.0004590684
0.0014429706
0.0024942527
0.0036156444
0.004809574
0.0060780784
0.0074227287
0.0088445155
0.010343754
0.011919999
0.013571976
0.015297528
0.017093596
0.018956223
0.020880582
0.022861035
0.024891211
0.026964091
0.029072107
0.031207229
0.033361051
0.035524852
0.037689636
0.039846098
0.041984382
0.044093427
0.046161248
0.048140868
0.05010504
0.052005573
0.053826297
0.055518063
0.057133671
0.058646821
0.060032578
0.061278705
0.062373101
0.063303924
0.064059764
0.06462975
0.065003815
0.065169535
0.065125772
0.064864494
0.064374996
0.063657198
0.062710154
0.061535446
0.060137521
0.058523989
0.056705853
0.05469801
0.00048327141
0.0015201638
0.0026290944
0.0038129357
0.0050742045
0.0064149843
0.0078368162
0.0093405826
0.010926408
0.012593574
0.014340458
0.016164494
0.018062159
0.020029005
0.022059712
0.024148168
0.026287564
0.028470508
0.030689129
0.032935172
0.035200083
0.037475079
0.039751188
0.04201925
0.044269561
0.046489852
0.048657674
0.050747027
0.052826811
0.054837206
0.056764724
0.058561452
0.060291331
0.061911813
0.063403161
0.064752622
0.065947549
0.066975521
0.067824424
0.068482526
0.068938494
0.069180946
0.069202482
0.06899963
0.068557654
0.067874227
0.066947305
0.065776709
0.0643652
0.062718867
0.060847477
0.058765123
0.00050766709
0.0015981568
0.0027655569
0.0040128674
0.0053426785
0.0067570806
0.0082575291
0.0098447278
0.011518526
0.013277838
0.015120592
0.017043707
0.019043103
0.021113759
0.023249792
0.025444568
0.027690825
0.029980794
0.032306319
0.034658955
0.037030041
0.039410756
0.041792168
0.044165287
0.046521199
0.048851664
0.051095019
0.05330209
0.055487325
0.05760016
0.059621277
0.061518988
0.063356039
0.065076773
0.066666952
0.068113502
0.069403414
0.070523854
0.071462154
0.072205924
0.072743128
0.073062252
0.073151558
0.073009225
0.072620808
0.071978569
0.071080131
0.06992338
0.068509145
0.066841677
0.064929124
0.062784352
0.00053228884
0.0016770774
0.0029038854
0.0042158269
0.0056155447
0.007105082
0.0086857418
0.010357964
0.012121223
0.013973953
0.015913518
0.017936205
0.020037277
0.02221105
0.024451016
0.026749982
0.029100215
0.031493585
0.033921681
0.03637591
0.038847547
0.041327765
0.043807638
0.046278138
0.048730214
0.05115531
0.053483653
0.055795616
0.058075966
0.060288063
0.06237316
0.064381324
0.066312659
0.068125201
0.069806024
0.071342002
0.072719951
0.073926766
0.074949408
0.075775021
0.076391055
0.076785462
0.076943119
0.076863145
0.076532379
0.075937125
0.075074658
0.073940841
0.072534386
0.07085743
0.06891615
0.066721762
0.00055718907
0.0017571092
0.0030444269
0.0044223592
0.0058935623
0.0074599708
0.0091226525
0.010881681
0.012736036
0.014683545
0.016720871
0.018843552
0.021046076
0.023322014
0.025664173
0.028064772
0.030515611
0.033008221
0.035533984
0.03808421
0.040650173
0.043223099
0.045794102
0.048354041
0.050893237
0.053401644
0.055809911
0.058216864
0.060580662
0.062873487
0.065031767
0.067135766
0.069149501
0.071043983
0.072806178
0.074422883
0.075880865
0.077166879
0.07826767
0.079170084
0.079861175
0.080328389
0.080553805
0.080536973
0.080266293
0.079722743
0.078902652
0.077799944
0.076411095
0.074735906
0.072778265
0.070547347
0.00058243471
0.0018384905
0.0031876318
0.0046331628
0.0061776991
0.007822993
0.0095697772
0.011417636
0.013364915
0.015408684
0.017544763
0.019767799
0.022071398
0.0244483
0.026890581
0.029389858
0.031937478
0.034524675
0.037142679
0.039782775
0.042436311
0.045094655
0.047749112
0.050390698
0.053008924
0.055584315
0.058067452
0.060560085
0.0629974
0.065353409
0.067583472
0.069771254
0.071856955
0.073823189
0.075656921
0.077345022
0.078874346
0.080231638
0.08140357
0.082376812
0.083138114
0.083674577
0.083966794
0.084012905
0.083802363
0.083314746
0.082542104
0.081477556
0.080115191
0.078452294
0.076490205
0.074235702
0.00060810544
0.0019215141
0.0033340545
0.0048490883
0.0064691295
0.0081956567
0.010028947
0.011967948
0.014010208
0.01615187
0.018387746
0.020711454
0.023115602
0.025592026
0.028132035
0.030726647
0.033366793
0.036043465
0.03874781
0.041471164
0.04420502
0.046940974
0.049670719
0.052386475
0.055083194
0.057688015
0.060254708
0.062821947
0.065329653
0.067711556
0.070025849
0.072281041
0.074428546
0.0764562
0.07835138
0.080101256
0.081692888
0.083113136
0.084348721
0.085386222
0.086212058
0.086812359
0.087172304
0.087278816
0.087127594
0.086698362
0.085977183
0.084956669
0.083628533
0.081987456
0.080032041
0.077766381
0.00063429728
0.0020065272
0.003484348
0.0050711374
0.0067692342
0.0085797317
0.010502304
0.01253509
0.014674648
0.016916006
0.019252791
0.021677439
0.024181457
0.026755713
0.029390733
0.032076962
0.034804966
0.037565569
0.040349916
0.043149466
0.04595592
0.048761079
0.05155668
0.054334541
0.057088385
0.059734421
0.062375266
0.064996136
0.067551422
0.069971713
0.072356328
0.07466262
0.076860969
0.078939523
0.08088603
0.082688048
0.084332918
0.085807717
0.087099313
0.088194325
0.089079077
0.089739562
0.09016158
0.090327406
0.090234745
0.089864934
0.089198045
0.088226188
0.086938769
0.085327844
0.083389169
0.081123928
0.00066112223
0.0020939308
0.0036392636
0.005300464
0.0070796032
0.008977252
0.010992306
0.013121887
0.015361348
0.017704384
0.02014325
0.022669051
0.025272091
0.027942228
0.030669214
0.033442964
0.036253754
0.039092328
0.041949918
0.044818196
0.047689143
0.050554798
0.053406771
0.056235571
0.059031955
0.061717793
0.064421019
0.067083466
0.069666556
0.072128876
0.074568783
0.076914709
0.079153142
0.081272285
0.083260257
0.085105035
0.086794307
0.08831542
0.089655482
0.090801256
0.091739092
0.092454959
0.092934559
0.093157127
0.093121615
0.092811073
0.092200263
0.091280437
0.090038905
0.08846515
0.086552034
0.084297686
0.00068870608
0.0021841786
0.0037996538
0.0055383786
0.0074020408
0.0093905219
0.011501726
0.013731516
0.016073788
0.018520666
0.021062834
0.023689919
0.02639094
0.029154725
0.031970281
0.034827068
0.037715166
0.040625337
0.043549004
0.046478148
0.049405133
0.052322365
0.055221533
0.058091646
0.060911664
0.063637546
0.066390349
0.069089946
0.071662816
0.074189329
0.076661687
0.07903747
0.081305917
0.083455864
0.085475951
0.087354578
0.089079806
0.090639359
0.09202062
0.093210583
0.094195652
0.094961823
0.095494607
0.095770737
0.095790571
0.095537664
0.094984175
0.094118471
0.092926686
0.091395758
0.089515663
0.087281403
0.00071718814
0.0022777773
0.0039664756
0.0057863545
0.0077385758
0.0098221262
0.012033663
0.014367507
0.016815807
0.019368864
0.022015579
0.024743968
0.027541699
0.030396579
0.033296934
0.036231864
0.039191366
0.042166339
0.045148505
0.048130259
0.05110447
0.054064117
0.057001665
0.059910026
0.062713254
0.065501155
0.068280632
0.070989281
0.073576293
0.076145686
0.078637365
0.081032889
0.083321799
0.08549343
0.087536939
0.089441151
0.091194538
0.092785199
0.094200821
0.09542861
0.096455199
0.097266615
0.097848202
0.098174494
0.098247552
0.098049508
0.097553666
0.096743236
0.09560386
0.094120085
0.092279085
0.090072733
0.00074672121
0.0023752894
0.0041407959
0.0060460384
0.0080914746
0.010274945
0.012591555
0.015033748
0.017591607
0.020253326
0.023005819
0.025835369
0.028728262
0.031671322
0.034652287
0.037660024
0.040684577
0.043717111
0.046749764
0.049775472
0.052787763
0.055780419
0.058745812
0.061662031
0.064472815
0.067303615
0.070102351
0.072778274
0.075407316
0.077995749
0.080497724
0.082903934
0.085204577
0.087389576
0.089448581
0.091370857
0.093145291
0.094760354
0.096204042
0.097463801
0.098526446
0.099378097
0.10000418
0.10037725
0.10050046
0.10035492
0.099915768
0.099160836
0.098075426
0.096641874
0.094844681
0.092672652
0.00077747185
0.0024773358
0.0043238006
0.006319265
0.0084632612
0.010752176
0.013179195
0.0157345
0.018405742
0.02117872
0.024038158
0.026968506
0.029954672
0.032982576
0.036039495
0.039114211
0.04219697
0.045279342
0.048354011
0.051414571
0.0544554
0.057472016
0.060464401
0.063345825
0.06618561
0.069039493
0.071826882
0.074495553
0.07715251
0.079742363
0.082245921
0.084654545
0.086959054
0.089149954
0.091217361
0.093150978
0.094940093
0.09657353
0.098039583
0.099325937
0.10041958
0.10130673
0.10197293
0.10238965
0.10255957
0.10246398
0.1020798
0.10137978
0.1003489
0.098967487
0.097217529
0.095084875
0.00080962088
0.0025846011
0.004516806
0.0066080767
0.0088567429
0.011257361
0.013800757
0.016474405
0.01926313
0.022150024
0.025117439
0.02814793
0.031225067
0.034333985
0.037461664
0.040596977
0.04373055
0.046854514
0.049962234
0.053048055
0.056107008
0.059134471
0.062127083
0.064990265
0.067860548
0.070717025
0.073451786
0.076145412
0.078805836
0.081388521
0.083885748
0.086289356
0.08859075
0.090780952
0.09285052
0.094789572
0.096587765
0.098234247
0.099717586
0.10102568
0.10214565
0.10306377
0.1037657
0.10422375
0.10443662
0.10438811
0.10405657
0.10341027
0.10243364
0.10110525
0.099404786
0.097315271
0.00084336433
0.0026978406
0.0047212755
0.0069147501
0.0092750446
0.011794422
0.014460827
0.017258514
0.020169048
0.023172513
0.026248721
0.029378313
0.032543614
0.035729134
0.038921755
0.042110652
0.045287031
0.04844377
0.051575083
0.054676257
0.057743194
0.060770712
0.063740857
0.0665974
0.069480863
0.07230687
0.075017672
0.077724284
0.080369433
0.08293751
0.085421393
0.08781345
0.090105634
0.092289412
0.09435575
0.096295138
0.098097561
0.099752453
0.10124862
0.10257413
0.1037162
0.10466099
0.10539308
0.10589335
0.10614412
0.10613957
0.10585771
0.10526365
0.10434021
0.10306486
0.10141511
0.099371327
0.00087891474
0.00281789
0.0049388412
0.007241831
0.0097216531
0.01236771
0.015164443
0.018092309
0.021129152
0.024251748
0.027437246
0.030664407
0.03391445
0.037171467
0.040422478
0.043657212
0.046867694
0.050047765
0.05319268
0.056298964
0.059364247
0.062388779
0.065293047
0.068174144
0.071050668
0.073805874
0.076531211
0.079223417
0.081846042
0.084392885
0.086857299
0.089232171
0.091509919
0.093682397
0.095740934
0.097676336
0.099478868
0.1011382
0.10264333
0.1039825
0.105143
0.10611102
0.10687127
0.10740689
0.107694
0.10773104
0.10749518
0.10695168
0.10607987
0.10485686
0.10325816
0.10126168
0.00091650315
0.0029456776
0.005171333
0.0075921793
0.010200473
0.012982057
0.015917143
0.018981736
0.022149481
0.025393567
0.028688412
0.032010987
0.035341601
0.038664182
0.041966172
0.045238141
0.048473235
0.05166651
0.05481445
0.057915017
0.060966691
0.063954598
0.066825963
0.069707777
0.072540634
0.075259451
0.077982722
0.080644628
0.083238456
0.085758321
0.088198033
0.09055096
0.092809889
0.094967011
0.097013951
0.098941778
0.10074098
0.1024014
0.10391223
0.1052618
0.10643752
0.10742567
0.10821119
0.10877788
0.10909872
0.10917476
0.10898149
0.10848624
0.10766417
0.10649223
0.10494419
0.1029957
0.00095638167
0.0030822422
0.0054208162
0.0079690277
0.010715897
0.013642857
0.016725028
0.019933249
0.023236477
0.02660408
0.030007739
0.033422793
0.036828897
0.040210121
0.043554656
0.046854272
0.050103601
0.05329923
0.056439061
0.059523209
0.062556828
0.065462926
0.06834289
0.071194909
0.073947423
0.07667439
0.079363421
0.08198977
0.0845495
0.08703753
0.089448192
0.091775245
0.094011779
0.096150253
0.098182525
0.10009986
0.10189291
0.10355167
0.10506543
0.10642263
0.10761079
0.10861627
0.10942421
0.11001856
0.11037033
0.11048251
0.11032875
0.10987915
0.10910462
0.10798205
0.10648367
0.10458317
0.00099882703
0.0032287549
0.0056896407
0.0083760561
0.011272898
0.014356145
0.017594833
0.020953856
0.024397008
0.02788966
0.031400831
0.034904458
0.038379861
0.041811622
0.045189078
0.048505617
0.051757823
0.054944201
0.058064048
0.061119127
0.064099001
0.066956645
0.069834784
0.072596959
0.075326494
0.078029694
0.080675619
0.08326097
0.08578203
0.088234225
0.09061232
0.092910362
0.095121675
0.097238919
0.099254112
0.10115865
0.1029433
0.10459815
0.10611256
0.10747507
0.10867325
0.10969356
0.11052126
0.11114035
0.11152032
0.11166579
0.11154879
0.11114193
0.1104125
0.10933724
0.10788709
0.1060341
0.0010441451
0.0033865489
0.0059805055
0.008817489
0.011877142
0.015128717
0.018534023
0.022051189
0.0256384
0.029256937
0.032873321
0.0364604
0.039997562
0.043470358
0.046869739
0.050191197
0.053433874
0.056598713
0.059686268
0.062707748
0.065587225
0.068435949
0.071257448
0.073960512
0.076668127
0.079322071
0.081920169
0.084460187
0.086938866
0.089352065
0.091694859
0.093961493
0.096145455
0.098239528
0.10023583
0.10212581
0.10390032
0.10554948
0.1070627
0.10842856
0.10963469
0.11066762
0.11151269
0.1121539
0.1125595
0.11273551
0.11265254
0.11228547
0.11159864
0.001092677
0.0035571583
0.0062965432
0.0092982196
0.012535133
0.015968269
0.019550912
0.023233582
0.026968468
0.030712778
0.034430797
0.038094692
0.041684437
0.04518713
0.048595907
0.051908892
0.055128555
0.058259074
0.061298566
0.064253273
0.067069306
0.069887719
0.072608
0.075298634
0.077952177
0.080551863
0.083098103
0.085589356
0.088022798
0.090394632
0.092700118
0.094933629
0.097088738
0.099158278
0.10113439
0.10300856
0.10477162
0.10641372
0.10792428
0.10929189
0.11050421
0.11154783
0.11240813
0.11306909
0.11349792
0.11370187
0.11365032
0.11332027
0.11267339
0.0011448065
0.0037423693
0.0066414306
0.009823972
0.013254398
0.016883567
0.020654805
0.02451017
0.028395568
0.032264262
0.036078683
0.039810866
0.043442043
0.046961626
0.050365635
0.05365529
0.056837417
0.059922072
0.062900013
0.065750068
0.068548189
0.071262002
0.073943067
0.076586414
0.079178173
0.081719398
0.084210542
0.086650435
0.08903659
0.091365414
0.093632259
0.095831548
0.097956861
0.10000102
0.10195613
0.10381364
0.10556434
0.10719837
0.10870511
0.11007317
0.1112902
0.11234282
0.11321644
0.11389504
0.11434488
0.11457431
0.11455173
0.11425583
0.11364623
0.0012009701
0.0039442891
0.0070195359
0.010401511
0.014043723
0.017884686
0.021856196
0.025891032
0.029928639
0.033918607
0.037822064
0.041611651
0.045270756
0.048792143
0.052175601
0.055425564
0.058554152
0.061584932
0.064444852
0.067255763
0.06995756
0.072612688
0.075243561
0.077819049
0.080345381
0.082825009
0.085258664
0.087645412
0.089982967
0.092267803
0.094495282
0.096659797
0.098754868
0.10077323
0.10270692
0.10454729
0.10628506
0.10791031
0.10941238
0.11077983
0.11200034
0.11306051
0.11394577
0.1146401
0.1151089
0.1153615
0.11536565
0.11510103
0.11452631
0.0012616693
0.0041654375
0.0074361151
0.011038921
0.014913464
0.018983303
0.023167022
0.027387353
0.031577243
0.035683054
0.039665417
0.043498619
0.047169391
0.050675261
0.054021006
0.057213521
0.060269123
0.063206563
0.065974856
0.068722173
0.071334499
0.073940076
0.076492713
0.078995476
0.081453329
0.08386913
0.086243729
0.088576308
0.090864617
0.093105088
0.095293017
0.097422691
0.099487503
0.10148005
0.10339224
0.1052153
0.10693985
0.10855587
0.11005264
0.11141869
0.11264164
0.11370812
0.11460354
0.11531186
0.11579776
0.11607134
0.11610042
0.11586402
0.11532179
0.0013274871
0.0044088728
0.0078975768
0.011745969
0.015875952
0.020193096
0.024600999
0.029011642
0.033351566
0.037564634
0.041612209
0.045471729
0.049134763
0.052605464
0.055895591
0.059012343
0.061978541
0.064779603
0.067503444
0.07012308
0.072694696
0.075215934
0.077687508
0.080114444
0.082501699
0.084852316
0.08716709
0.089445168
0.091684189
0.093880459
0.096029127
0.098124311
0.10015922
0.10212626
0.10401716
0.10582301
0.10753428
0.10914085
0.11063191
0.11199592
0.11322048
0.1142922
0.11519648
0.11591726
0.11641855
0.11671117
0.11676316
0.11655243
0.11604024
0.0013991089
0.0046783646
0.0084118443
0.012534602
0.016946045
0.021530293
0.026174103
0.030777986
0.035262348
0.039569783
0.043664332
0.047528782
0.051161218
0.054574675
0.057791687
0.060813614
0.063634061
0.066357818
0.068963884
0.071517426
0.074004306
0.076437386
0.078825705
0.081174897
0.083490348
0.085775274
0.088030195
0.090254066
0.092444301
0.094597003
0.09670711
0.098768509
0.10077417
0.10271629
0.10458636
0.10637531
0.10807345
0.10967052
0.11115562
0.11251714
0.11374264
0.11481869
0.11573068
0.11646256
0.1169777
0.11728757
0.11736048
0.11717315
0.11668857
0.0014773499
0.0049786385
0.0089888567
0.01341962
0.018141887
0.023014454
0.027904951
0.032701771
0.037320063
0.041703316
0.045821219
0.049664812
0.053240212
0.056571634
0.059700743
0.062566978
0.065281771
0.06788378
0.07041147
0.07286825
0.075259292
0.077601744
0.079905623
0.082176077
0.084419331
0.086638885
0.088834594
0.091005108
0.093147534
0.095257705
0.097330296
0.099358917
0.10133626
0.10325425
0.10510416
0.10687669
0.108562
0.11014967
0.11162872
0.11298744
0.11421333
0.11529294
0.11621165
0.11695339
0.11748099
0.11780648
0.11789842
0.11773241
0.11727313
0.0015631918
0.0053157277
0.0096412768
0.014419617
0.019485992
0.024668817
0.029814107
0.034798332
0.039533297
0.043966833
0.04807849
0.051871361
0.0553601
0.058580867
0.061572887
0.064301943
0.066891189
0.069394439
0.071816741
0.074164927
0.076456277
0.078706671
0.080926137
0.083117556
0.085288897
0.087444223
0.089581932
0.091700429
0.093796431
0.095865449
0.097901858
0.099898956
0.10184912
0.10374397
0.10557453
0.10733127
0.10900418
0.11058269
0.11205569
0.1134114
0.11463727
0.1157198
0.11664435
0.11739486
0.11793366
0.11827324
0.11838246
0.11823582
0.11779967
0.0016578331
0.0056974902
0.010385508
0.015558349
0.021005775
0.026519683
0.031922944
0.037081379
0.041906858
0.046356871
0.050426474
0.054135892
0.057506468
0.06059096
0.063395143
0.066000833
0.068478042
0.07086301
0.073165281
0.075402248
0.077592019
0.079750162
0.081886769
0.083999218
0.086099431
0.088192574
0.09027395
0.092342198
0.094393498
0.096423018
0.098424816
0.10039184
0.10231613
0.10418897
0.10600112
0.10774281
0.10940385
0.11097353
0.1124406
0.1137932
0.11501871
0.11610361
0.11703324
0.11779155
0.11834042
0.11869268
0.11881754
0.11868848
0.11827338
0.0017627607
0.006134392
0.011243197
0.016865814
0.022733561
0.028595926
0.03425221
0.039560801
0.044439471
0.048863074
0.052848971
0.056441565
0.059661247
0.062543766