/*--------------------------------*- C++ -*----------------------------------*\
| =========                 |                                                 |
| \\      /  F ield         | OpenFOAM: The Open Source CFD Toolbox           |
|  \\    /   O peration     | Version:  2312                                  |
|   \\  /    A nd           | Website:  www.openfoam.com                      |
|    \\/     M anipulation  |                                                 |
\*---------------------------------------------------------------------------*/
FoamFile
{
    version     2.0;
    format      ascii;
    arch        "LSB;label=32;scalar=64";
    class       volScalarField;
    location    "0.01";
    object      f_Bilger;
}
// * * * * * * * * * * * * * * * * * * * * * * * * * * * * * * * * * * * * * //

dimensions      [0 0 0 0 0 0 0];

internalField   nonuniform List<scalar> 
3221
(
0.00010895176
0.000339461
0.00058231138
0.00083734152
0.0011042271
0.0013824729
0.0016714042
0.0019701583
0.0022776793
0.0025927164
0.0029138263
0.0032393775
0.0035675584
0.003896395
0.0042237715
0.0045474526
0.0048651124
0.0051743659
0.0054728038
0.0057580297
0.0060276988
0.0062795567
0.0065114791
0.0067215085
0.0069078896
0.0070691002
0.0072038765
0.0073098366
0.0073886742
0.0074392643
0.0074611807
0.007454697
0.0074203658
0.0073585828
0.0072705982
0.0071588409
0.0070235421
0.0068655111
0.0066875913
0.0064917542
0.0062800726
0.0060546873
0.005817774
0.0055715118
0.0053180528
0.0050594938
0.0047978504
0.0045350338
0.0042748435
0.0040165698
0.0037607978
0.0035104311
0.00011313855
0.00035257166
0.00060493651
0.00087009279
0.0011477249
0.0014373352
0.0017382358
0.0020495408
0.0023701612
0.0026988026
0.0030339684
0.003373963
0.0037169002
0.0040607234
0.0044032242
0.0047420674
0.00507482
0.0053989842
0.0057120344
0.0060114554
0.0062947836
0.0065596475
0.0068038091
0.0070252033
0.0072219743
0.0073925085
0.0075354616
0.0076482783
0.0077327193
0.0077876676
0.0078125915
0.0078077319
0.0077737114
0.0077108484
0.0076204477
0.0075050247
0.0073651715
0.0072011517
0.0070161407
0.00681222
0.0065915493
0.0063563639
0.0061089395
0.0058515583
0.0055864779
0.0053159017
0.0050419623
0.0047667955
0.0044932575
0.004223025
0.0039547243
0.0036919712
0.00012120206
0.00037779488
0.00064839232
0.00093288451
0.0012309699
0.0015421464
0.001865702
0.0022007082
0.0025460139
0.0029002444
0.003261804
0.0036288773
0.0039994409
0.0043712843
0.0047420286
0.0051091534
0.0054700278
0.0058219466
0.0061621693
0.0064879622
0.0067966427
0.0070856243
0.0073524606
0.0075948887
0.0078108692
0.0079986219
0.0081566558
0.0082820939
0.0083768215
0.0084397548
0.0084701591
0.008468218
0.0084346921
0.0083697619
0.0082748256
0.0081525028
0.0080037098
0.0078288214
0.0076306113
0.0074116424
0.0071742418
0.0069208221
0.0066538444
0.0063757832
0.0060890945
0.0057961881
0.0054994057
0.0052010063
0.0049031444
0.0046098569
0.00431863
0.0040328582
0.00013288484
0.00041433006
0.00071129416
0.0010236925
0.001351232
0.0016933975
0.0020494406
0.0024183707
0.0027989493
0.0031896886
0.0035888521
0.0039944555
0.0044042837
0.004815909
0.0052267125
0.0056339133
0.0060346025
0.006425783
0.0068044127
0.0071674514
0.00751191
0.0078349002
0.0081336846
0.0084057246
0.0086487251
0.0088606749
0.0090398803
0.009183007
0.009292114
0.0093662015
0.0094042301
0.0094063314
0.0093734161
0.0093055853
0.009204417
0.0090715078
0.0089101684
0.0087202084
0.0085033915
0.0082631969
0.0080021979
0.0077230583
0.0074284979
0.0071212556
0.0068040539
0.0064795653
0.0061503796
0.0058189705
0.0054876386
0.0051611792
0.0048377319
0.0045192919
0.00014800036
0.0004616035
0.00079266127
0.0011411032
0.0015066326
0.0018887075
0.0022865263
0.0026990159
0.0031248244
0.0035623201
0.0040095856
0.0044644228
0.0049243735
0.0053867345
0.0058485824
0.006306806
0.0067581444
0.0071992308
0.0076266416
0.0080369492
0.0084267774
0.0087928581
0.0091320879
0.0094415824
0.0097187271
0.0099612227
0.010167125
0.010332513
0.010459664
0.010547736
0.01059528
0.010602401
0.01057004
0.010498369
0.010388942
0.010243444
0.010065666
0.009856574
0.0096163253
0.0093492363
0.0090583633
0.0087466739
0.0084172065
0.0080730285
0.0077171944
0.007352708
0.0069824914
0.0066093836
0.006236203
0.0058657884
0.0055023937
0.0051425659
0.00016642581
0.00051924344
0.0008918667
0.0012842253
0.0016960027
0.002126613
0.0025751811
0.0030405281
0.0035211624
0.0040152741
0.0045207245
0.0050350599
0.0055555272
0.0060790907
0.0066024603
0.0071221271
0.0076344063
0.0081354872
0.0086214881
0.0090885174
0.009532736
0.009950423
0.01033804
0.010692291
0.011010187
0.01128909
0.011526763
0.011718575
0.011867071
0.011971658
0.012030371
0.012043293
0.012011398
0.011934989
0.01181566
0.011655484
0.011456838
0.011224334
0.010956895
0.010657651
0.010331055
0.0099804488
0.0096092496
0.0092209142
0.0088188921
0.0084065828
0.0079872983
0.0075642373
0.0071404636
0.0067187967
0.0063053684
0.0058970252
0.00018809155
0.00058704579
0.0010085748
0.0014525925
0.0019187446
0.0024063803
0.0029145279
0.0034418763
0.0039867648
0.0045471667
0.0051206822
0.0057045562
0.006295688
0.0068906514
0.0074857261
0.0080769377
0.0086601062
0.0092309025
0.0097849124
0.010317705
0.010824906
0.011302271
0.011745763
0.012151617
0.012516415
0.012837139
0.013111225
0.013333215
0.013505991
0.013629282
0.013700522
0.013719775
0.013688072
0.013605857
0.013474703
0.013296884
0.013074805
0.012814305
0.012515808
0.012179364
0.011811454
0.011415878
0.010996478
0.01055715
0.01010179
0.0096342468
0.0091582707
0.0086774891
0.0081954068
0.0077154857
0.0072412029
0.0067782335
0.00021297118
0.00066494273
0.0011426859
0.0016460814
0.002174717
0.0027278535
0.0033043961
0.0039028726
0.0045214171
0.0051577438
0.0058091503
0.0064725287
0.007144374
0.0078208083
0.0084976144
0.0091702816
0.009834061
0.01048403
0.011115166
0.011722426
0.012300827
0.012845538
0.01335196
0.013815808
0.01423319
0.014600673
0.01491534
0.015170794
0.015370359
0.015514123
0.015598858
0.015624626
0.015592543
0.015503208
0.015358202
0.015160081
0.01491144
0.014618859
0.014283752
0.013906467
0.013491832
0.013045458
0.012571653
0.012074801
0.011559293
0.011029475
0.010489591
0.0099437499
0.009395886
0.008849713
0.0083085274
0.0077804775
0.00024107336
0.00075297695
0.0012942912
0.001864845
0.0024641452
0.0030913382
0.0037451755
0.0044239912
0.0051256705
0.0058476238
0.0065867972
0.0073396727
0.0081022793
0.0088702193
0.0096387069
0.01040262
0.011156562
0.01189494
0.012612045
0.013302148
0.01395959
0.014578887
0.015154825
0.015682551
0.016157665
0.016576288
0.016935138
0.01722678
0.017455137
0.017620615
0.017719322
0.01775134
0.017717919
0.017619827
0.017458731
0.017237632
0.016959666
0.016628601
0.016252611
0.015830896
0.015364327
0.014861514
0.014327318
0.013766667
0.013184492
0.012585675
0.011974995
0.011357085
0.010736388
0.010117121
0.0095032579
0.0088986857
0.00027243554
0.00085128224
0.0014636397
0.0021092641
0.0027875562
0.0034975176
0.004237713
0.0050062419
0.0058006902
0.0066181163
0.0074550564
0.0083075176
0.0091709928
0.010040489
0.010910573
0.011775428
0.012628929
0.013464728
0.014276353
0.015057311
0.015801203
0.016501834
0.017153324
0.017750216
0.018287571
0.018761054
0.01916701
0.019496884
0.019755421
0.019943207
0.020055754
0.020093195
0.020056974
0.019948002
0.019768085
0.019520626
0.019209052
0.018837151
0.018414638
0.017942646
0.01742032
0.016855489
0.016255087
0.015624596
0.014969515
0.014295294
0.013607276
0.012910639
0.012210344
0.011511069
0.010817112
0.010132233
0.00030711956
0.00096007003
0.0016511152
0.0023799149
0.0031457349
0.0039473974
0.0047832433
0.0056510852
0.006548155
0.0074711031
0.0084159863
0.0093782629
0.010352809
0.011333952
0.012315522
0.013290917
0.014253195
0.015195166
0.016109514
0.01698891
0.017826148
0.018614268
0.019346687
0.020017314
0.020620659
0.021151928
0.021607103
0.021976448
0.022265818
0.02247574
0.022601276
0.022642652
0.022601588
0.022479096
0.022277243
0.021999909
0.021651042
0.021235279
0.020758003
0.020230777
0.019649541
0.019017402
0.018345202
0.017639082
0.016905152
0.016149461
0.015377942
0.014596353
0.013810221
0.013024798
0.012245022
0.011475601
0.00034520889
0.0010796213
0.0018572227
0.0026775494
0.003539699
0.0044422755
0.0053833492
0.0063603844
0.0073701998
0.0084089675
0.0094721854
0.010554676
0.011650608
0.01275353
0.013856437
0.014951844
0.016031892
0.017088462
0.018113307
0.019098193
0.020035046
0.0209161
0.021734035
0.022482114
0.023154297
0.023745347
0.024250909
0.024660034
0.02498003
0.02521104
0.025347893
0.025390962
0.025342354
0.025203091
0.024975667
0.024664421
0.024273706
0.023808446
0.023273914
0.022684891
0.0220396
0.021335898
0.020586411
0.019799113
0.018980704
0.018137839
0.01727706
0.016404721
0.015526935
0.014649523
0.013777987
0.012917577
0.00038680735
0.0012102829
0.0020825828
0.0030030886
0.0039706896
0.0049837299
0.0060399466
0.0071363867
0.0082693899
0.0094345624
0.01062675
0.011840041
0.013067786
0.014302649
0.015536674
0.016761386
0.017967904
0.019147084
0.020289667
0.021386446
0.022428429
0.023407008
0.024314114
0.025142365
0.025885191
0.026536946
0.027092986
0.027541154
0.027890587
0.028140666
0.028286261
0.028327956
0.028268384
0.028108436
0.027851265
0.027501673
0.027064476
0.026545013
0.025948806
0.025292006
0.024575336
0.023797803
0.022965866
0.022092159
0.021183993
0.020248651
0.019293294
0.018324888
0.017350139
0.016375435
0.015406802
0.014449924
0.00043203894
0.0013524678
0.002327933
0.0033576237
0.0044401766
0.0055736214
0.0067552867
0.0079817293
0.0092487227
0.010551207
0.011883267
0.013238136
0.014608228
0.01598519
0.017359996
0.018723057
0.020064362
0.021373642
0.022640549
0.02385484
0.025006566
0.02608626
0.027085108
0.027995104
0.028809192
0.029521373
0.030126786
0.030612116
0.030988705
0.031254787
0.031405588
0.031441978
0.031367269
0.031182039
0.030890403
0.030497636
0.030009146
0.029431028
0.028770065
0.028034203
0.027241908
0.02638839
0.025469359
0.02450433
0.02350151
0.02246882
0.02141405
0.020344779
0.019268311
0.018191613
0.017121272
0.016063532
0.00048104866
0.0015066585
0.0025941336
0.0037424266
0.0049498722
0.0062141113
0.0075319785
0.0088994588
0.01031165
0.011762706
0.013245823
0.014753244
0.016276298
0.017805479
0.019330544
0.020840663
0.022324578
0.023770802
0.025167821
0.026504307
0.027769333
0.028952576
0.030044501
0.031036529
0.031921179
0.032692182
0.033344562
0.033863947
0.034264232
0.034542166
0.034693645
0.034719916
0.034625126
0.034409333
0.034077969
0.033636714
0.033091553
0.032449126
0.031716571
0.030901298
0.030027032
0.029088664
0.028081638
0.027020623
0.025918632
0.024784186
0.023625681
0.0224513
0.021268937
0.020086135
0.018910032
0.017747422
0.00053400415
0.0016734127
0.0028821797
0.0041589694
0.0055017516
0.0069076871
0.0083730242
0.0098930692
0.011462114
0.013073389
0.014719045
0.016390175
0.018076861
0.019768277
0.021452815
0.023118261
0.024751995
0.026341216
0.027873182
0.029335451
0.030716117
0.032004028
0.033188985
0.03426191
0.035214987
0.036041782
0.036737329
0.037286381
0.037705674
0.037990205
0.038136842
0.038147349
0.038026713
0.037774455
0.037397618
0.036902218
0.036294859
0.035582776
0.034773601
0.033874834
0.032911509
0.031882326
0.030786041
0.029625021
0.028419862
0.027179771
0.025913764
0.024630614
0.023338792
0.022046405
0.02076113
0.01949028
0.00059109805
0.0018533719
0.0031932149
0.0046089461
0.0060980835
0.0076572023
0.0092818613
0.01096655
0.012704602
0.014488155
0.016308138
0.018154302
0.020015299
0.021878798
0.023731658
0.025560139
0.027350139
0.029087461
0.030758092
0.032348466
0.033845728
0.035237962
0.036514395
0.037665555
0.038683403
0.039561446
0.040294871
0.040867894
0.041300264
0.041585062
0.041720379
0.04170881
0.041555504
0.041260516
0.04083201
0.040276504
0.03960129
0.038814336
0.037924245
0.036940365
0.035873873
0.034751853
0.033564187
0.032301147
0.03098921
0.0296401
0.028263392
0.02686842
0.025464214
0.024059419
0.022662242
0.021280513
0.00065255074
0.0020472711
0.0035285534
0.005094299
0.0067414649
0.0084659246
0.010262416
0.012124444
0.014044202
0.016012536
0.018018938
0.020051606
0.022097541
0.024142711
0.026172264
0.028170782
0.030122574
0.032011984
0.033823701
0.035543064
0.037156336
0.038650941
0.040015664
0.041240789
0.042318191
0.043241382
0.044005758
0.044595766
0.045034093
0.045311807
0.045428414
0.045387765
0.04519427
0.044849807
0.044363051
0.043741208
0.042992257
0.042124816
0.041148069
0.040071615
0.038905226
0.037684081
0.036395946
0.035032161
0.033610418
0.03214948
0.030659464
0.029150241
0.027631366
0.026112004
0.024600869
0.023106292
0.00071861369
0.0022559506
0.0038897015
0.0056172506
0.0074348656
0.0093375885
0.011319163
0.013371913
0.015486673
0.017652755
0.019857971
0.022088712
0.024330091
0.026566155
0.028780151
0.030954844
0.033072858
0.035117035
0.037070784
0.038918411
0.040645407
0.042238687
0.043686782
0.044979948
0.046110158
0.047070913
0.047857304
0.04845622
0.048892325
0.049154662
0.049244351
0.049166882
0.048925274
0.048524057
0.047972201
0.04727764
0.046449045
0.045495671
0.044427257
0.043253813
0.041985168
0.040658396
0.039264981
0.037801236
0.036267308
0.034692309
0.033086976
0.031461693
0.029826509
0.028191079
0.026564591
0.024955857
0.00078957337
0.0024803713
0.0042783796
0.0061803376
0.0081816801
0.010276455
0.012457198
0.014714815
0.017038516
0.0194158
0.021832508
0.024272938
0.026720048
0.029155729
0.031561143
0.033917102
0.036204477
0.038404604
0.040499669
0.042473058
0.044309647
0.045996042
0.047520752
0.048874284
0.050049071
0.051038746
0.051835383
0.052434823
0.052859522
0.053097286
0.053151109
0.053028394
0.052730306
0.052264756
0.051640782
0.050867077
0.049953009
0.048908523
0.04774403
0.046470511
0.04510055
0.043652239
0.042154071
0.040590218
0.038944186
0.03725336
0.035531284
0.033788748
0.032036247
0.030283887
0.028541304
0.026817754
0.00086575482
0.0027216313
0.0046965494
0.0067864535
0.008985784
0.011287378
0.013682309
0.016159777
0.018707053
0.02130949
0.023950618
0.026612323
0.029275114
0.031918485
0.034521328
0.037062397
0.039520776
0.04187634
0.044110162
0.046204877
0.048144962
0.049916949
0.051509571
0.052913848
0.054123136
0.055133313
0.055923745
0.056517821
0.056919946
0.057122967
0.0571314
0.05695421
0.056591057
0.056053433
0.055350259
0.054491017
0.053485781
0.052345184
0.051080289
0.049702667
0.04822469
0.046659319
0.045051928
0.043379577
0.04162555
0.039817935
0.037978322
0.036117948
0.034247734
0.032378205
0.030519407
0.028681012
0.00094752857
0.0029809798
0.0051464439
0.0074389002
0.0098515951
0.012375883
0.015001065
0.01771429
0.020500511
0.023342545
0.026221223
0.029115656
0.032003597
0.034861893
0.037667006
0.04039556
0.043024873
0.045533461
0.047901466
0.050111005
0.05214643
0.053994492
0.055644426
0.057087966
0.058319334
0.059335315
0.060114497
0.060689562
0.061057158
0.061214492
0.061168271
0.06092575
0.060489542
0.059871946
0.059082506
0.058131447
0.057029531
0.05578801
0.054418481
0.052932862
0.051343289
0.049661628
0.047941812
0.046156769
0.044297243
0.042372242
0.040414833
0.038436601
0.036448859
0.034462509
0.032487967
0.030535284
0.0010353181
0.0032598343
0.0056306034
0.0081414452
0.010784144
0.013548246
0.016420906
0.019386796
0.022428107
0.025524656
0.028654139
0.031792495
0.034914392
0.037993798
0.041004617
0.043921323
0.046719556
0.049376657
0.05187209
0.054187768
0.056308261
0.058220891
0.059915739
0.061385547
0.062625511
0.063633177
0.064389934
0.064933099
0.065254258
0.065354727
0.065243815
0.064925719
0.064407976
0.063702623
0.062820015
0.061771088
0.060567274
0.059220376
0.057742462
0.056145755
0.05444239
0.052643815
0.05080861
0.048907557
0.0469454
0.044903407
0.042828498
0.040732926
0.038628385
0.036526109
0.034436844
0.032370979
0.0011295993
0.0035598039
0.0061519247
0.0088983807
0.011789157
0.014811595
0.017950242
0.021186791
0.02450013
0.027866551
0.031260114
0.034653161
0.038016945
0.041322348
0.044540642
0.047644204
0.050607172
0.05340598
0.056019761
0.058430615
0.060623741
0.062587455
0.064313104
0.065794871
0.067029169
0.068011779
0.068733942
0.069231898
0.069494418
0.069526796
0.069340542
0.068937019
0.068329216
0.067528514
0.066546092
0.065393577
0.06408303
0.062626765
0.061037306
0.059327265
0.057509088
0.055593842
0.053638464
0.051619913
0.049553257
0.047399977
0.045208078
0.042996153
0.040776048
0.038559253
0.03635679
0.034179347
0.0012309054
0.003882717
0.006713712
0.0097145942
0.012873144
0.016174009
0.019598571
0.023124929
0.02672804
0.030380056
0.034050854
0.037708727
0.041321199
0.044855908
0.048281491
0.051568383
0.054689494
0.057620728
0.060341326
0.062834044
0.06508519
0.067084534
0.068825162
0.070303432
0.071519536
0.072452183
0.073131158
0.073569783
0.073761057
0.073714725
0.073440879
0.072943194
0.07223692
0.071333547
0.070245008
0.068983597
0.067561924
0.065992786
0.064289148
0.062464156
0.060531361
0.058505709
0.056407969
0.054286656
0.052109958
0.049850613
0.047543269
0.045216572
0.042882634
0.040553191
0.03823951
0.035952544
0.001339842
0.0042306547
0.0073197258
0.01059565
0.014043504
0.017644642
0.021376597
0.025213138
0.029124552
0.033078152
0.037039031
0.040970979
0.044837512
0.04860294
0.052233368
0.055697556
0.058967589
0.062019328
0.06483266
0.06739155
0.069683939
0.071701515
0.073439392
0.074895866
0.076072683
0.076948432
0.077567899
0.07793111
0.078038129
0.077902183
0.077528779
0.076928403
0.076115598
0.075102634
0.07390212
0.072526971
0.070990267
0.069305218
0.067485148
0.065543521
0.0634941
0.06135115
0.059128644
0.056895851
0.054606842
0.052246127
0.049825141
0.047385662
0.044940034
0.04250022
0.040077704
0.037683663
0.0014570977
0.0046059852
0.0079742462
0.011547881
0.015308644
0.019233857
0.023296369
0.027464744
0.031703728
0.035975017
0.04023828
0.04445236
0.048576556
0.052571869
0.05640211
0.060034778
0.063441665
0.066599208
0.069488575
0.072095567
0.074410341
0.076427004
0.078143065
0.079558772
0.080677094
0.081483014
0.082026436
0.082299964
0.082310225
0.082072744
0.081589359
0.080877648
0.079950747
0.078821764
0.077503948
0.076010744
0.07435563
0.072552138
0.070613835
0.068554334
0.066387326
0.064126473
0.061784566
0.05944014
0.057034603
0.054577993
0.052046007
0.049496091
0.046941251
0.044393689
0.041865065
0.039366742
0.0015834512
0.0050114013
0.0086821505
0.012578502
0.016678122
0.020953383
0.025371438
0.029894599
0.034481072
0.039086066
0.04366317
0.048165886
0.052549182
0.056770919
0.060793017
0.064582287
0.068110926
0.071356678
0.074302735
0.076937422
0.07925374
0.081248769
0.082922894
0.084278596
0.085317454
0.086040026
0.086490735
0.086660529
0.086563352
0.086209882
0.085608526
0.084777015
0.083728952
0.082478078
0.081038225
0.079423234
0.0776469
0.07572298
0.07366518
0.071487148
0.069202461
0.066824544
0.064366593
0.061916794
0.059382641
0.056836506
0.054199729
0.051541696
0.048880372
0.046227977
0.043596268
0.040996745
0.0017197836
0.0054499696
0.0094490036
0.013695743
0.018162805
0.02281649
0.027617025
0.032519224
0.037473611
0.042427969
0.047329158
0.05212503
0.056766263
0.061207928
0.065410653
0.069341331
0.07297341
0.076286813
0.079267575
0.081907294
0.084202463
0.086153705
0.087764909
0.089042941
0.089974589
0.090605353
0.090945551
0.090998294
0.090781435
0.090300428
0.089572496
0.088613512
0.087437879
0.086059913
0.084493922
0.082754041
0.080854286
0.078808539
0.076630551
0.074333922
0.071932067
0.069438142
0.066865074
0.064305637
0.061662826
0.059015074
0.05628044
0.053517238
0.050752487
0.047998444
0.045266927
0.042569531
0.0018670936
0.0059251883
0.010281166
0.014909001
0.019775068
0.024838202
0.030050212
0.035356955
0.04069998
0.046018655
0.051252515
0.056343589
0.061238508
0.065890139
0.070258644
0.074311973
0.078025842
0.081383337
0.084374235
0.08699419
0.089243851
0.091127937
0.092653881
0.093826512
0.094645107
0.095162328
0.095376053
0.095299917
0.094948801
0.094331636
0.093468683
0.092375237
0.091066333
0.0895568
0.087861256
0.085994046
0.0839693
0.081800933
0.079502654
0.077087952
0.074570024
0.071961622
0.069274813
0.066605912
0.063862333
0.061111386
0.05828387
0.055418544
0.052553651
0.049701378
0.046873545
0.044081805
0.002026515
0.0064410572
0.011185926
0.016229034
0.021529019
0.027035532
0.032690162
0.038428101
0.044180495
0.049877295
0.055450217
0.060835505
0.065976248
0.07082397
0.075339461
0.07949291
0.083263487
0.086638527
0.089612506
0.092185926
0.094364241
0.096157044
0.097578427
0.098613835
0.099310874
0.099695111
0.099768011
0.099550862
0.099052326
0.098291101
0.097285468
0.096051359
0.094604285
0.09295946
0.091131676
0.089135381
0.086984716
0.08469354
0.082275455
0.079743795
0.077111545
0.074391023
0.071592848
0.068814033
0.065974859
0.063121299
0.060206426
0.057242302
0.054280808
0.051333931
0.048413458
0.045531064
0.0021993384
0.0070021631
0.012171656
0.017668184
0.023440771
0.029427761
0.035558356
0.041755109
0.047937217
0.054024256
0.059939813
0.065614666
0.070989196
0.076014775
0.08065419
0.084881284
0.088680005
0.092043122
0.094970791
0.097469125
0.099548848
0.10122409
0.1025117
0.10340127
0.10395797
0.10418903
0.10410876
0.10373548
0.10308075
0.10216728
0.10101225
0.099632138
0.098042852
0.096259794
0.094297827
0.092171382
0.08989451
0.087480932
0.084944084
0.082297144
0.079553
0.076723949
0.073819451
0.070925488
0.067996337
0.065040511
0.062044692
0.058985977
0.055931723
0.05289406
0.049884772
0.04691554
0.0023870365
0.007613784
0.01324801
0.019240653
0.025528767
0.032036763
0.038678863
0.045362735
0.051994004
0.058481033
0.064739249
0.070694664
0.076286184
0.081466579
0.086202309
0.090472493
0.094267328
0.097586254
0.1004361
0.10282934
0.1047825
0.10631443
0.10744134
0.10817218
0.10856749
0.10863017
0.10838431
0.10784104
0.10702276
0.10594967
0.10463946
0.10310895
0.10137427
0.099450855
0.097353513
0.095096541
0.092693799
0.090158789
0.087504728
0.084744635
0.081891477
0.078958637
0.075961982
0.072931913
0.069924932
0.066864737
0.063794758
0.060648108
0.057504977
0.054380469
0.051286302
0.048234136
0.0025912958
0.0082820185
0.014426164
0.020962847
0.027814174
0.034887388
0.042078646
0.049278221
0.05637654
0.063270142
0.069866666
0.076088531
0.081874872
0.087181811
0.091981454
0.096260025
0.10001554
0.10325538
0.105994
0.10825096
0.11004929
0.11141468
0.11234866
0.11291106
0.11312384
0.11300642
0.11257861
0.1118574
0.11086771
0.10962876
0.10815859
0.10647424
0.10459188
0.10252681
0.10029365
0.097906442
0.095378767
0.092723822
0.08995454
0.08708371
0.084124207
0.081089495
0.077994663
0.074856454
0.071771997
0.068589523
0.065452253
0.06222761
0.058999855
0.055792541
0.052617508
0.049486369
0.0028140557
0.0090139468
0.015719117
0.022853788
0.030321352
0.0380079
0.045787897
0.053531475
0.061112343
0.068414977
0.075340145
0.081808437
0.087761445
0.093161023
0.097987193
0.10223528
0.10591278
0.10903624
0.11162864
0.11371722
0.11533142
0.11649692
0.11723155
0.11760019
0.11761384
0.11730308
0.11668004
0.11577386
0.11460595
0.11319599
0.11156217
0.10972155
0.10769011
0.10548289
0.10311419
0.1005977
0.097946597
0.095173704
0.092291586
0.089312707
0.086249638
0.083115363
0.079923448
0.076686432
0.073515751
0.070237533
0.067022212
0.063724702
0.060416373
0.057130263
0.053878414
0.050672309
0.0030575558
0.0098178337
0.017142068
0.024935635
0.033078433
0.041430508
0.049840413
0.058155246
0.066230738
0.073939622
0.081177427
0.087865361
0.093950292
0.09940261
0.1042128
0.10838744
0.11194514
0.11491285
0.1173228
0.11921052
0.12061407
0.12154475
0.12207136
0.12222302
0.12202604
0.12150351
0.12067921
0.11958051
0.11822882
0.11664386
0.11484378
0.11284542
0.11066439
0.10831533
0.1058121
0.10316788
0.1003954
0.097506996
0.094514798
0.091430843
0.088267236
0.085036275
0.081750211
0.078419878
0.075163933
0.071800299
0.068506442
0.065140344
0.061755154
0.058394124
0.055069514
0.051792511
0.0033243967
0.010703386
0.018712895
0.02723433
0.036118018
0.045191975
0.05427402
0.063185308
0.071762816
0.079868644
0.087395595
0.094268739
0.10044366
0.10590252
0.11064905
0.11470329
0.11809663
0.12086749
0.12305783
0.12471146
0.12586793
0.12655619
0.12684861
0.12676707
0.12634283
0.12559844
0.12456551
0.12326834
0.1217286
0.11996587
0.11799802
0.11584143
0.11351118
0.11102136
0.10838525
0.10561546
0.10272413
0.099723077
0.0966239
0.093438125
0.090177298
0.086852975
0.083476363
0.080057344
0.076719463
0.073276161
0.069905768
0.066475676
0.063017225
0.059584964
0.056191571
0.05284795
0.0036176147
0.011682082
0.020452766
0.029780414
0.039478035
0.049334347
0.059131052
0.068660658
0.077741368
0.086226839
0.094010717
0.10102608
0.10724131
0.11265398
0.11728403
0.12116717
0.12434915
0.12688075
0.12881392
0.13020325
0.13107608
0.13151163
0.13154624
0.13121819
0.13054993
0.12957784
0.12832957
0.12682934
0.12509859
0.12315653
0.12102047
0.1187061
0.11622785
0.11359908
0.11083239
0.10793971
0.10493254
0.10182207
0.098619326
0.095335258
0.091980797
0.08856677
0.085103538
0.081600293
0.07818444
0.074665841
0.071221167
0.067731928
0.064203933
0.0039407781
0.012767601
0.022386928
0.032610056
0.043202796
0.05390582
0.064458891
0.074623698
0.084200783
0.093038933
0.10103746
0.10814254
0.11434013
0.1196472
0.12410293
0.12776085
0.13068247
0.13293169
0.13456917
0.1356554
0.13623544
0.13638957
0.13615206
0.13555689
0.13463855
0.13343153
0.1319629
0.13025646
0.1283331
0.12621134
0.12390767
0.12143692
0.11881267
0.11604745
0.11315306
0.11014067
0.10702106
0.10380476
0.10050214
0.097123548
0.093679266
0.090179437
0.086633712
0.083050725
0.079561186
0.075971346
0.072453764
0.068910283
0.065316926
0.004298109
0.013976376
0.02454573
0.035766366
0.0473443
0.05896177
0.070310592
0.081120446
0.091176947
0.10032927
0.10848863
0.11562051
0.12173379
0.1268691
0.13108791
0.13446349
0.13707431
0.13899841
0.14030304
0.14105018
0.1413239
0.14117486
0.14064566
0.13977319
0.13859766
0.13715034
0.13545799
0.13354369
0.13142744
0.12912677
0.1266571
0.12403223
0.12126474
0.11836621
0.11534753
0.11221905
0.10899078
0.10567251
0.10227396
0.098804811
0.095274704
0.091693138
0.088069172
0.084411018
0.080852473
0.077196004
0.073604513
0.070011543
0.066358095
0.0046946413
0.015328341
0.026965969
0.039301085
0.051963863
0.064566011
0.076745659
0.088200846
0.098707159
0.10812145
0.11637477
0.12345911
0.12941229
0.13430303
0.13821801
0.14125163
0.14350023
0.14505835
0.14598198
0.146382
0.14631939
0.1458493
0.14501208
0.14385615
0.14241734
0.14072612
0.13880837
0.13668602
0.1343779
0.13190022
0.12926713
0.12649123
0.12358394
0.1205558
0.11741672
0.11417617
0.11084332
0.10742723
0.10393688
0.1003813
0.096769491
0.093110352
0.089412443
0.085683742
0.082061386
0.078345336
0.074673532
0.071036399
0.067329484
0.0051364257
0.016847917
0.02969268
0.043276758
0.057134163
0.070792355
0.083830975
0.095919138
0.10683006
0.11643798
0.12470352
0.13165364
0.13736155
0.14192852
0.14546904
0.14809925
0.14993318
0.15107508
0.15160169
0.15162439
0.15120567
0.15039195
0.14924078
0.1477947
0.14608868
0.14415184
0.1420086
0.13967948
0.13718174
0.13453002
0.13173699
0.12881388
0.12577085
0.12261732
0.11936216
0.11601388
0.11258082
0.10907123
0.10549339
0.10185562
0.098166325
0.094433814
0.090666218
0.086871427
0.083190568
0.079429386
0.075658428
0.071985605
0.068232863
0.0056307997
0.018565363
0.032781534
0.047769589
0.062941839
0.077726571
0.091642056
0.10433447
0.11558563
0.12529983
0.1334791
0.14019501
0.14556295
0.14972098
0.15281363
0.15497813
0.15634681
0.15702738
0.15713572
0.15675851
0.15595602
0.15479233
0.1533194
0.15157888
0.1496039
0.1474215
0.14505434
0.14252109
0.13983714
0.13701534
0.13406668
0.13100087
0.12782673
0.12455247
0.12118589
0.11773452
0.11420582
0.11060724
0.10694631
0.1032307
0.099468161
0.095666472
0.091833329
0.087976424
0.084239789
0.08042728
0.076584597
0.07286647
0.069071271
0.0061867483
0.020518648
0.036302103
0.052873192
0.06949087
0.085469011
0.10026488
0.11351178
0.1250153
0.13472596
0.1427015
0.14906903
0.15399282
0.15765139
0.16022132
0.16185762
0.16270185
0.16290364
0.16256095
0.16175433
0.16055874
0.15903643
0.15723664
0.15519988
0.15295636
0.15053028
0.14794229
0.14520886
0.14234322
0.1393562
0.13625695
0.13305355
0.1297534
0.12636345
0.12289041
0.11934082
0.11572123
0.11203827
0.10829876
0.10450967
0.10067816
0.096811457
0.092916802
0.089001551
0.085211909
0.081348745
0.077446961
0.073682674
0.06984772
0.0068153914
0.022756083
0.040342362
0.058703615
0.076907049
0.094138198
0.10979708
0.12352044
0.13515926
0.14473091
0.15236511
0.15825566
0.16262198
0.165686
0.16765889
0.16869183
0.16898776
0.16867423
0.16784667
0.16659595
0.16499839
0.16311157
0.16098232
0.15865013
0.15614068
0.15347445
0.1506702
0.14774172
0.14469991
0.14155337
0.13830923
0.13497387
0.13155321
0.12805294
0.12447864
0.12083586
0.11713025
0.11336763
0.10955407
0.1056959
0.10179967
0.097872051
0.093919832
0.089949923
0.086110328
0.082199165
0.078245513
0.074436982
0.070565071
0.0075306593
0.025340116
0.04501499
0.065406189
0.085344155
0.10387211
0.12034438
0.13442874
0.14605114
0.15532036
0.16245555
0.16772741
0.17141522
0.17378574
0.17507532
0.17546757
0.17517226
0.17430516
0.17297133
0.17126661
0.16926049
0.16700639
0.16454744
0.16192338
0.15915281
0.15625143
0.1532368
0.15011954
0.14690799
0.14360834
0.1402256
0.13676433
0.13322899
0.12962401
0.12595383
0.12222302
0.11843634
0.1145988
0.11071576
0.10679288
0.10283613
0.098851647
0.094845732
0.090824808
0.086938465
0.082982471
0.078982051
0.075132045
0.071226095
0.0083502508
0.028352927
0.050466343
0.073165129
0.094987298
0.11482483
0.1320154
0.14629882
0.15771344
0.16648725
0.17294633
0.1774474
0.18033092
0.18190926
0.18243921
0.18214636
0.18121627
0.17976836
0.17791612
0.17574939
0.17333201
0.17071111
0.16792396
0.16501474
0.16199011
0.1588596
0.15564185
0.15234303
0.14896896
0.14552326
0.14200866
0.1384279
0.13478397
0.13108005
0.1273195
0.12350591
0.11964315
0.11573545
0.11178747
0.10780422
0.10379109
0.099753712
0.095697891
0.091629538
0.087699674
0.083702086
0.079659039
0.075770546
0.071833518
0.0092970451
0.031904879
0.056889506
0.082212352
0.10605318
0.12716368
0.1449169
0.15918158
0.17015335
0.17820885
0.18379723
0.18736814
0.18931992
0.19000139
0.18972462
0.18868285
0.18708535
0.18504264
0.18266079
0.18002884
0.17720162
0.17421782
0.17110459
0.16792081