/*--------------------------------*- C++ -*----------------------------------*\
| =========                 |                                                 |
| \\      /  F ield         | OpenFOAM: The Open Source CFD Toolbox           |
|  \\    /   O peration     | Version:  2312                                  |
|   \\  /    A nd           | Website:  www.openfoam.com                      |
|    \\/     M anipulation  |                                                 |
\*---------------------------------------------------------------------------*/
FoamFile
{
    version     2.0;
    format      ascii;
    arch        "LSB;label=32;scalar=64";
    class       volScalarField;
    location    "0.01";
    object      H2O;
}
// * * * * * * * * * * * * * * * * * * * * * * * * * * * * * * * * * * * * * //

dimensions      [0 0 0 0 0 0 0];

internalField   nonuniform List<scalar> 
3221
(
0.00011212604
0.00034952756
0.00060019769
0.00086441403
0.001142339
0.0014340092
0.0017393222
0.002058021
0.002389681
0.0027336958
0.0030892688
0.0034554014
0.0038308856
0.0042143049
0.0046040358
0.0049982529
0.0053949381
0.0057918956
0.0061867697
0.0065770685
0.006960191
0.0073334584
0.0076941494
0.008039539
0.0083669381
0.0086737342
0.0089574291
0.0092123156
0.0094418305
0.0096425888
0.0098119142
0.0099467789
0.010048412
0.010115717
0.010147501
0.010143614
0.010104417
0.01002987
0.009921099
0.0097792708
0.0096058656
0.0094026558
0.0091716794
0.0089152088
0.0086357155
0.0083358305
0.008018303
0.0076859579
0.0073442955
0.0069931315
0.006633937
0.0062715628
0.00011495733
0.00035841659
0.00061559182
0.00088679834
0.0011722309
0.0014719541
0.0017858886
0.0021137969
0.0024552688
0.0028097078
0.0031763217
0.0035541096
0.0039418539
0.0043381219
0.0047412661
0.005149428
0.0055605478
0.005972379
0.0063825063
0.0067883688
0.0071872884
0.0075765008
0.0079531918
0.0083145361
0.0086577385
0.0089800744
0.0092789298
0.0095482544
0.0097915811
0.010005611
0.010187336
0.010333469
0.010445211
0.010521585
0.010561121
0.010563514
0.01052922
0.010458005
0.010350954
0.010209216
0.010034257
0.0098278547
0.0095920693
0.0093292166
0.0090418306
0.0087326249
0.0084044635
0.0080604443
0.0077048175
0.007340565
0.0069666055
0.0065887832
0.00012035352
0.00037533615
0.00064483497
0.00092923047
0.001228778
0.0015435953
0.0018736485
0.0022187369
0.0025784789
0.0029522974
0.0033394093
0.0037388099
0.0041492661
0.0045693172
0.0049972721
0.0054312138
0.005869008
0.0063083168
0.0067466175
0.0071812256
0.0076093234
0.0080279924
0.0084342501
0.0088250904
0.009197525
0.0095486267
0.0098755705
0.010171664
0.010440619
0.010679327
0.010884163
0.01105147
0.01118211
0.011275548
0.01132976
0.011344167
0.011319198
0.011254648
0.011151206
0.011010075
0.010832685
0.010620813
0.010376556
0.010102302
0.0098007
0.0094746209
0.0091271259
0.0087614339
0.0083808738
0.0079915083
0.0075909058
0.0071846378
0.00012802695
0.00039938854
0.00068637407
0.00098944348
0.0013089295
0.0016450212
0.0019977473
0.0023669603
0.0027523196
0.0031532785
0.003569068
0.0039986807
0.0044408663
0.0048941275
0.0053567166
0.0058266387
0.0063016597
0.0067793198
0.0072569511
0.0077317025
0.0082005672
0.0086604177
0.009108043
0.0095401903
0.009953609
0.010345095
0.010711533
0.01104531
0.011350371
0.011623911
0.011861192
0.012059851
0.012217171
0.012335051
0.012410497
0.012442738
0.012431623
0.01237733
0.012279911
0.012140613
0.011960801
0.011742233
0.011487036
0.011197679
0.010876942
0.010527867
0.010153724
0.0097579455
0.0093440372
0.0089190286
0.0084815599
0.0080353789
0.00013770131
0.00042971525
0.00073873392
0.0010653057
0.0014098513
0.001772643
0.0021537854
0.0025531964
0.0029705888
0.0034054559
0.0038570484
0.0043243599
0.0048061233
0.0053008004
0.005806578
0.0063213702
0.0068428249
0.0073683365
0.0078950644
0.0084199568
0.0089397803
0.009451155
0.0099505941
0.010434547
0.010899444
0.011341745
0.011757983
0.012139363
0.012490122
0.012808041
0.013087197
0.013325124
0.01351753
0.013667179
0.013770547
0.01382644
0.013834193
0.01379421
0.013706009
0.013570627
0.013389393
0.013164012
0.012896621
0.012589762
0.012246349
0.011869623
0.011463119
0.011030645
0.010576347
0.01010473
0.0096225386
0.0091265384
0.00014911977
0.00046552052
0.00080055226
0.0011548583
0.0015289544
0.0019232051
0.0023378002
0.0027727332
0.0032277812
0.003702484
0.004196118
0.0047076846
0.0052359005
0.0057791848
0.006335654
0.0069031219
0.0074791056
0.0080608372
0.0086452819
0.0092291627
0.0098089909
0.010381102
0.010941698
0.01148689
0.012012749
0.012515354
0.01299084
0.013428988
0.01383441
0.014205734
0.014535493
0.01482082
0.015056161
0.015244993
0.015383177
0.015468928
0.015501271
0.015480048
0.015405149
0.015276683
0.015096061
0.014864883
0.014585258
0.014259773
0.013891469
0.013483794
0.01304056
0.012565904
0.012064236
0.011540069
0.011002615
0.010449411
0.00016204695
0.00050607614
0.00087058512
0.0012563173
0.0016638896
0.002093765
0.0025462263
0.0030213503
0.0035189869
0.0040387279
0.0045798811
0.0051414614
0.005722171
0.0063203861
0.0069341495
0.0075611689
0.0081988215
0.008844165
0.0094939559
0.010144674
0.010792555
0.011433626
0.012063753
0.012678682
0.013274096
0.013845662
0.014389089
0.01489249
0.015360975
0.015794231
0.016182934
0.01652373
0.016809702
0.017045167
0.017225295
0.017347563
0.017410581
0.01741346
0.017356588
0.017239007
0.017062067
0.016827232
0.016536525
0.016192535
0.015798393
0.01535773
0.014874633
0.0143536
0.013799522
0.013217753
0.012614145
0.01199802
0.00017626871
0.00055072029
0.00094770336
0.0013680663
0.001812532
0.0022816674
0.0027758537
0.0032952587
0.0038398093
0.0044091527
0.0050026359
0.0056192892
0.0062578018
0.0069165067
0.0075933707
0.0082859909
0.008991598
0.0097070667
0.010428934
0.011153425
0.011876484
0.01259382
0.013300943
0.01399322
0.014665927
0.015314304
0.015933614
0.01651007
0.017049477
0.017552691
0.018008306
0.01841244
0.018756611
0.019046181
0.019275565
0.019441332
0.019541613
0.019574703
0.019540921
0.019439345
0.019270138
0.019034869
0.018735395
0.01837424
0.017954571
0.017480164
0.016955365
0.016385032
0.01577448
0.015129375
0.014455448
0.013765361
0.00019159126
0.00059885443
0.0010308865
0.0014886456
0.0019729649
0.0024845198
0.0030237944
0.0035910532
0.0041863011
0.0048092439
0.0054592722
0.0061354322
0.0068363999
0.0075604636
0.0083055109
0.0090690239
0.0098480809
0.010639367
0.011439192
0.012243519
0.013047995
0.013847999
0.014638683
0.015415027
0.016171896
0.016904095
0.017606436
0.018263004
0.018880632
0.019461258
0.019991295
0.020466306
0.020876015
0.021227108
0.021513113
0.021729531
0.021873874
0.021944189
0.021939341
0.021859378
0.021702903
0.021471454
0.021166643
0.020790842
0.020347178
0.019839509
0.01927239
0.018651016
0.017981163
0.017269103
0.016521532
0.015745746
0.00020784015
0.00064994006
0.0011192171
0.0016167433
0.0021434667
0.0027001744
0.0032874578
0.0039056794
0.004554921
0.005234951
0.0059452025
0.0066847358
0.0074522112
0.0082458679
0.0090635094
0.0099024968
0.01075975
0.011631758
0.012514599
0.013403968
0.014295213
0.015183383
0.016063272
0.016929476
0.017776455
0.018598588
0.01939024
0.020133144
0.020835661
0.021500467
0.022111849
0.022664803
0.023147021
0.023566882
0.023916809
0.024191158
0.024386791
0.024501161
0.024532001
0.02447949
0.024341879
0.024119406
0.023813712
0.023426901
0.022961962
0.022422743
0.021813929
0.021140986
0.020410087
0.019627997
0.018801895
0.017939142
0.00022485943
0.0007034962
0.001211876
0.0017511895
0.0023225026
0.0029267167
0.0035645345
0.004236413
0.004942509
0.0056826551
0.0064563214
0.0072625772
0.0081000603
0.0089669533
0.0098609674
0.010779334
0.011718808
0.012675674
0.013645775
0.014624536
0.015607007
0.016587911
0.017561693
0.01852258
0.019464639
0.020381841
0.021268124
0.022102657
0.022896
0.023650934
0.024349845
0.024987164
0.025548314
0.026043851
0.026464723
0.026804131
0.027058194
0.027223586
0.027297616
0.027278835
0.02716661
0.026959087
0.026657882
0.02626473
0.025782361
0.025214505
0.024565879
0.023842146
0.023049847
0.022196319
0.021289601
0.020338509
0.00024251111
0.00075909779
0.0013081403
0.0018909518
0.0025087189
0.0031624599
0.0038529881
0.0045808491
0.0053462738
0.0061491528
0.0069889853
0.0078648394
0.0087753193
0.009718539
0.010692105
0.011693107
0.012718123
0.013763228
0.014824023
0.015895665
0.016972909
0.018050161
0.019121533
0.020180902
0.02122197
0.022238328
0.023223513
0.024153936
0.02504319
0.025893244
0.026684966
0.027412237
0.028057998
0.028635595
0.029133942
0.029545182
0.029864643
0.030088208
0.030212444
0.030234372
0.030154041
0.029968311
0.029677699
0.029283762
0.028788833
0.02819639
0.027511056
0.026738579
0.025885776
0.024960463
0.023971372
0.022928217
0.00026067476
0.00081637476
0.0014073815
0.0020351342
0.0027009419
0.0034059426
0.0041510531
0.0049369006
0.0057637881
0.0066316515
0.0075400058
0.0084879033
0.0094738976
0.010496017
0.011551744
0.012638012
0.013751209
0.014887189
0.016041308
0.017208453
0.018383093
0.019559333
0.020730971
0.021891559
0.023034469
0.02415295
0.025240185
0.026269639
0.027258905
0.028207987
0.029096732
0.029918507
0.030653614
0.031318919
0.031900548
0.032389784
0.032781113
0.03306958
0.03325094
0.03332069
0.033278636
0.033121957
0.032848583
0.032460136
0.031958404
0.031346461
0.030628692
0.029810789
0.028899718
0.027903652
0.026831878
0.025694801
0.00027924733
0.00087501159
0.0015090653
0.002182977
0.002898179
0.0036559282
0.0044572344
0.0053028005
0.0061929911
0.0071277707
0.0081066517
0.0091286489
0.010192242
0.01129535
0.012435308
0.013608874
0.014812224
0.016040984
0.017290256
0.018554663
0.019828397
0.021105279
0.022378816
0.02364227
0.024888721
0.026111124
0.027302363
0.028432803
0.029525081
0.030575921
0.031564677
0.032484217
0.033312276
0.03407
0.034739765
0.035312273
0.03578113
0.036140463
0.036385021
0.036510217
0.036512709
0.036391874
0.036142741
0.035766543
0.035264458
0.034638996
0.033894136
0.033035348
0.032069593
0.031005273
0.029852159
0.028621448
0.00029814303
0.00093474723
0.0016127519
0.0023338562
0.0030996196
0.0039114071
0.0047703111
0.0056771041
0.0066321923
0.0076355475
0.0086866539
0.0097844607
0.010927344
0.01211308
0.013338832
0.014601149
0.015895982
0.017218711
0.018564181
0.019926754
0.021300358
0.022678552
0.024054583
0.025421453
0.026771987
0.028098901
0.029394851
0.030626994
0.031824094
0.03297821
0.034068645
0.035087509
0.036010947
0.036864703
0.037626289
0.038286207
0.038837205
0.039272526
0.039586033
0.039772343
0.039825984
0.039746712
0.039529428
0.039172412
0.038676869
0.038044564
0.037278881
0.036384876
0.035369313
0.034240646
0.033008972
0.031686132
0.00031729312
0.00099537479
0.0017180954
0.002487287
0.0033046339
0.0041715973
0.0050893411
0.0060586933
0.0070800762
0.0081534411
0.0092782112
0.010453234
0.011676742
0.012946334
0.014258962
0.015610939
0.016997965
0.018415158
0.019857104
0.021317909
0.022791258
0.024270473
0.025748571
0.027218327
0.028672341
0.030103121
0.031503181
0.032836451
0.034138924
0.035396726
0.036589486
0.037706171
0.038726886
0.039679061
0.040534752
0.041284808
0.041921193
0.042436322
0.042823193
0.043075566
0.043186107
0.04315411
0.042975302
0.0426444
0.042162497
0.041530491
0.040750984
0.039828414
0.038769126
0.037581409
0.036275479
0.034863625
0.00033664589
0.0010567415
0.001824844
0.0026429219
0.0035127751
0.0044359464
0.0054136618
0.0064467785
0.0075357054
0.0086803366
0.0098799932
0.011133376
0.012438529
0.013792827
0.015192967
0.016634995
0.018114329
0.019625815
0.021163775
0.022722071
0.024294168
0.025873184
0.027451947
0.029023036
0.030578826
0.032111591
0.033613749
0.035046229
0.036453284
0.037814312
0.039112037
0.040314646
0.041438907
0.042489792
0.04344026
0.044281544
0.045004985
0.045602218
0.046065354
0.046387057
0.046560537
0.046580383
0.046445338
0.046147406
0.04568611
0.045061733
0.044275899
0.043332201
0.042236331
0.040996164
0.039621799
0.038125769
0.00035616621
0.001118748
0.0019328409
0.0028005502
0.0037237774
0.0047041338
0.0057428903
0.0068409003
0.0079985209
0.0092155446
0.01049114
0.011823807
0.013211346
0.014650855
0.016138733
0.017670713
0.019241912
0.020846883
0.022479687
0.024133961
0.025802974
0.027479692
0.029156806
0.030826743
0.032481639
0.03411333
0.035713909
0.037242401
0.038751594
0.040212238
0.041608761
0.042903605
0.044128523
0.045275019
0.046318904
0.047250762
0.048061275
0.048741357
0.049282345
0.049676079
0.049915094
0.049991296
0.049904064
0.049645628
0.049211567
0.048602083
0.047817651
0.04686081
0.045736349
0.044451461
0.043015851
0.041442038
0.00037583526
0.0011813473
0.0020420227
0.0029600962
0.0039375559
0.0049760694
0.0060769228
0.0072409271
0.0084683404
0.0097587986
0.011111257
0.012523951
0.013994377
0.015519293
0.017094749
0.018716129
0.020378216
0.022075264
0.023801078
0.025549084
0.027312399
0.029083884
0.030856174
0.03262165
0.034372244
0.036098901
0.037791808
0.039412505
0.041020556
0.042576506
0.044067116
0.04545215
0.046774834
0.048013636
0.049148144
0.050168337
0.05106431
0.051826366
0.052445166
0.052911808
0.053218052
0.053353725
0.053317897
0.053103991
0.052703243
0.052115588
0.051340252
0.050378528
0.04923406
0.047913075
0.046424583
0.04478078
0.00039565006
0.0012445447
0.0021524164
0.0031216169
0.0041542066
0.0052518912
0.0064159325
0.0076470528
0.0089453538
0.010310248
0.011740407
0.013233729
0.01478733
0.01639757
0.018060093
0.019769892
0.021521397
0.023308555
0.02512492
0.026963735
0.028817999
0.030680517
0.032543948
0.03440079
0.0362431
0.038060833
0.039835609
0.041546145
0.043248846
0.044894738
0.04647278
0.047943746
0.049359982
0.050686657
0.05190761
0.053012402
0.053990679
0.05483227
0.055527259
0.056066042
0.056439339
0.056637832
0.056655463
0.05648939
0.056127548
0.055568033
0.05480917
0.053850813
0.052695223
0.051347385
0.049815294
0.048110489
0.00041562258
0.0013083969
0.0022641371
0.0032852992
0.0043740039
0.0055319624
0.0067603664
0.0080597921
0.0094301157
0.010870449
0.012379096
0.013953533
0.015590421
0.017285649
0.0190344
0.020831244
0.022670235
0.024545012
0.0264489
0.028374982
0.030316169
0.032265239
0.03421488
0.036157733
0.038086497
0.039994428
0.041831043
0.043637952
0.045426985
0.047156744
0.048811415
0.050365055
0.051869032
0.053277782
0.054579648
0.055763925
0.056819965
0.057737259
0.058505437
0.059114355
0.05955416
0.059815424
0.059888537
0.05977201
0.059454017
0.058928222
0.058192678
0.057245656
0.056087835
0.054722693
0.053156903
0.051400997
0.00043578019
0.0013730085
0.0023773855
0.0034514604
0.004597397
0.0058168682
0.0071109405
0.008479974
0.0099235384
0.011440353
0.013028257
0.014684214
0.016404343
0.018183992
0.020017832
0.021899975
0.02382409
0.025783521
0.027771382
0.029780638
0.031804145
0.033834678
0.035864928
0.037887505
0.039894998
0.041880402
0.043786597
0.04567938
0.047546283
0.049357307
0.051064358
0.052708424
0.054289591
0.055773503
0.057149578
0.05840707
0.059535184
0.060523194
0.061360422
0.062036344
0.062540685
0.062863582
0.062992655
0.062927181
0.062656386
0.062169057
0.061462962
0.060534716
0.059383264
0.058010355
0.056421046
0.05462452
0.00045616579
0.0014385298
0.0024924455
0.0036205466
0.0048250076
0.0061074125
0.0074686354
0.0089087365
0.010426881
0.012021289
0.01368923
0.01542705
0.017230237
0.019093527
0.021011032
0.022976382
0.024982863
0.027023541
0.02909136
0.031179208
0.03327994
0.035386371
0.037491228
0.039587029
0.041665845
0.043719456
0.045691083
0.047661635
0.049596855
0.051473971
0.053240936
0.054963461
0.056612088
0.058163084
0.059605778
0.06092936
0.062122997
0.063175845
0.064077053
0.064815852
0.065381642
0.065764145
0.065948692
0.065934912
0.065713308
0.065268308
0.064596907
0.06369413
0.062557091
0.061185629
0.059582925
0.057756492
0.00047683418
0.001505156
0.0026096861
0.0037931296
0.005057628
0.0064046156
0.0078346925
0.0093475183
0.010941739
0.012614954
0.014363743
0.016183723
0.01806966
0.020015608
0.022015082
0.024061218
0.026146932
0.028265048
0.030408385
0.032569808
0.034742235
0.036918597
0.039091778
0.041254421
0.04339794
0.04550639
0.047539312
0.049580009
0.051575418
0.053504261
0.055329994
0.057121112
0.058828657
0.060438395
0.061939656
0.06332169
0.064573734
0.065684936
0.066644387
0.067441172
0.068064443
0.068503641
0.068742875
0.068780627
0.068608258
0.06820905
0.067576495
0.066704959
0.065589603
0.064228203
0.062621858
0.060776117
0.00049785058
0.0015731267
0.0027295611
0.0039699059
0.0052962194
0.0067097121
0.0082106105
0.0097980536
0.011470034
0.013223394
0.015053886
0.016956285
0.01892454
0.020951967
0.023031449
0.025155636
0.0273171
0.029508467
0.031722492
0.033952077
0.036190261
0.038430162
0.040664981
0.042888346
0.045096126
0.047228671
0.04933
0.051431775
0.053484812
0.055434856
0.057329547
0.059175853
0.060933996
0.062594019
0.064145586
0.065578194
0.066881249
0.068043994
0.069055556
0.069904949
0.070581054
0.071072515
0.071367199
0.071454399
0.071330595
0.070979187
0.070388764
0.069553278
0.068465945
0.067122409
0.065521528
0.063666652
0.00051929361
0.0016427262
0.002852605
0.0041516956
0.0055419125
0.0070241509
0.008598144
0.010262368
0.012014006
0.013848985
0.01576209
0.017747129
0.019797146
0.021904667
0.024061935
0.026261127
0.02849452
0.030754601
0.033034121
0.035326089
0.037623708
0.039920266
0.042209
0.044483211
0.046737759
0.048904045
0.051066082
0.053211765
0.055303755
0.057285226
0.059237489
0.061125631
0.062925399
0.064627094
0.066220682
0.067695978
0.069042619
0.070250023
0.071307441
0.072203919
0.072928257
0.07346899
0.073814493
0.073950253
0.073874392
0.073571632
0.073025655
0.072230005
0.071176006
0.069857156
0.06826998
0.066415446
0.00054125495
0.0017142827
0.0029794331
0.0043394433
0.0057960089
0.0073495972
0.0089993041
0.010742774
0.012576201
0.014494424
0.016491101
0.018558953
0.020690038
0.022876056
0.025108616
0.02737946
0.02968063
0.032004545
0.034344029
0.036692263
0.039042682
0.041388769
0.043723654
0.046039568
0.048328942
0.050527814
0.052740922
0.054920643
0.057035397
0.059051276
0.061048807
0.062969396
0.064801981
0.066536905
0.068164441
0.069674744
0.071057736
0.072303058
0.073400154
0.07433819
0.075105988
0.075692062
0.076084706
0.076266921
0.076237848
0.07598361
0.075483545
0.074730491
0.07371406
0.07242564
0.070859389
0.069013774
0.00056383761
0.0017881678
0.0031107432
0.0045342219
0.0060599857
0.0076879377
0.0094163617
0.011241872
0.013159469
0.015162707
0.017243957
0.019394729
0.021606031
0.023868717
0.026173788
0.028512614
0.030877074
0.033259606
0.035653187
0.038051251
0.040447548
0.04283586
0.045209383
0.04755912
0.049867844
0.052099499
0.054353195
0.056563331
0.058669717
0.060738152
0.062762249
0.064707282
0.066564439
0.068324582
0.06997841
0.071516425
0.072928854
0.074205646
0.075336473
0.076310685
0.077117152
0.077744409
0.078180595
0.07840666
0.078422898
0.078215846
0.077762709
0.077053964
0.076078261
0.074824903
0.073285686
0.071456518
0.00058715563
0.0018647963
0.0032473187
0.0047372375
0.0063355039
0.0080412884
0.009851854
0.011762552
0.013766954
0.015857119
0.018023961
0.020257669
0.022548147
0.024885412
0.027259907
0.029662708
0.032085627
0.034521211
0.036962684
0.03940382
0.04183878
0.044261817
0.046666762
0.049047811
0.05134279
0.05362522
0.055900753
0.058118301
0.060236264
0.062339803
0.064379719
0.066340914
0.068214824
0.069992719
0.071665722
0.073224684
0.074660166
0.075962427
0.077121384
0.078126564
0.078967023
0.079631323
0.080107463
0.080374595
0.080434407
0.08027227
0.079866329
0.079202836
0.07827004
0.077055286
0.075548076
0.073741754
0.00061133409
0.0019446285
0.0033900332
0.0049498385
0.0066244191
0.0084120074
0.010308595
0.012307998
0.014402094
0.01658122
0.018834662
0.021151189
0.023519575
0.025929032
0.028369523
0.03083193
0.033308105
0.035790815
0.038273621
0.040750741
0.043216878
0.045666939
0.04809468
0.050482163
0.052783327
0.055100878
0.057392178
0.059582933
0.061735307
0.063854434
0.065902778
0.067872722
0.069756238
0.071545077
0.073230767
0.074804517
0.076257231
0.077579469
0.078761403
0.079792757
0.080662735
0.081359974
0.081872544
0.082177971
0.082278842
0.08215969
0.08180016
0.081182104
0.080293489
0.079119852
0.077648506
0.075870286
0.00063650936
0.002028173
0.0035398576
0.0051735267
0.0069287975
0.0088027123
0.010789691
0.012881697
0.015068619
0.017338832
0.019679829
0.022078879
0.024523627
0.027002545
0.029505218
0.03202246
0.034546288
0.037069799
0.039587004
0.042092657
0.044582157
0.047051834
0.049501673
0.05186067
0.054185577
0.056522026
0.058804037
0.060988854
0.063164081
0.065284372
0.067334012
0.069305932
0.071192613
0.072986284
0.074678851
0.076261886
0.077726619
0.079063899
0.080264145
0.081317271
0.082212624
0.082938929
0.083484344
0.083825503
0.083964617
0.083886358
0.083571833
0.082998733
0.082154763
0.081023811
0.079591136
0.077845151
0.0006628295
0.0021159902
0.0036978694
0.0054099743
0.0072509375
0.0092163026
0.011298558
0.01348745
0.015770555
0.01813403
0.020563427
0.023044463
0.025563688
0.028108931
0.030669535
0.033236388
0.035801817
0.038359379
0.040903642
0.043429976
0.045934314
0.048412871
0.050862896
0.053206958
0.055556834
0.057895407
0.060134331
0.062339579
0.064517645
0.066632067
0.068676524
0.070644337
0.072528468
0.074321567
0.076015905
0.077603389
0.079075554
0.080423514
0.081637911
0.082708834
0.083625742
0.084377402
0.084952069
0.085327071
0.085501338
0.085461629
0.085190202
0.084661077
0.083861518
0.08277398
0.081381825
0.079671156
0.00069045496
0.0022086984
0.0038652667
0.0056610451
0.0075933975
0.0096559898
0.011838952
0.014129394
0.016512222
0.018971133
0.021489597
0.024051767
0.026643171
0.029251128
0.031864898
0.03447562
0.037076094
0.039660489
0.042224067
0.044762971
0.047273845
0.049752447
0.052184079
0.054522706
0.056883372
0.059196998
0.061416309
0.063632188
0.065797748
0.06790021
0.069933744
0.0718921
0.073768691
0.07555653
0.077248223
0.078835982
0.080311611
0.081666456
0.082891352
0.083976537
0.084911545
0.085685033
0.086284389
0.086693955
0.086899256
0.086895535
0.086664775
0.086178422
0.085422411
0.084378296
0.083027659
0.081354432
0.00071955977
0.0023069817
0.0040433858
0.0059288233
0.0079590319
0.010125335
0.012414996
0.014812014
0.017298251
0.019854693
0.022462632
0.02510468
0.027765462
0.030431953
0.033093527
0.035741775
0.038370169
0.040973665
0.043548379
0.046091467
0.048600987
0.051077144
0.053454844
0.055813572
0.058168557
0.06042422
0.062655429
0.064859515
0.067006635
0.069091713
0.071109307
0.073053594
0.074918366
0.076696955
0.07838226
0.079966757
0.081442474
0.082800955
0.084033195
0.085129558
0.086079653
0.086872157
0.087494565
0.087933077
0.088168134
0.088198455
0.08800536
0.0875604
0.08684666
0.085845392
0.08453655
0.082902045
0.00075033307
0.0024116003
0.0042337248
0.0062156505
0.0083510372
0.010628296
0.013031225
0.01554018
0.018133585
0.02078949
0.02348695
0.026207113
0.028933858
0.031654026
0.034357336
0.037036068
0.039684611
0.042298917
0.044876108
0.047414515
0.049912894
0.052359067
0.054709828
0.057069144
0.059388379
0.061614251
0.063843769
0.066023048
0.068146592
0.070209583
0.072206954
0.074133275
0.07598264
0.077748657
0.079424469
0.081002763
0.08247575
0.08383513
0.085072027
0.08617691
0.087139465
0.08794845
0.088591553
0.089055497
0.089318161
0.089380414
0.089222185
0.088816728
0.088143708
0.087184253
0.085916883
0.08432167
0.00078298126
0.0025234046
0.0044379745
0.0065241729
0.0087730103
0.011169287
0.013692633
0.016319176
0.0190235
0.021780526
0.024567072
0.027362947
0.030151494
0.032919672
0.035657814
0.038359181
0.041019377
0.043635611
0.046206163
0.048731128
0.051214725
0.053593922
0.055951723
0.058286646
0.060540105
0.062772649
0.064974135
0.067124303
0.069219932
0.071256861
0.073230449
0.075135586
0.076966617
0.078717366
0.08038117
0.081950874
0.083418826
0.08477684
0.08601614
0.087127275
0.088100008
0.088923183
0.089584635
0.090071231
0.090359216
0.090451057
0.090325178
0.089957097
0.089322993
0.088403953
0.087177245
0.085621323
0.0008177309
0.0026433533
0.0046580588
0.0068574035
0.0092290222
0.011753249
0.014404735
0.017154738
0.019973616
0.022833019
0.025707584
0.028575973
0.031421254
0.034230808
0.036995901
0.039711122
0.042373674
0.044982334
0.047536525
0.050037692
0.052477288
0.054816816
0.057173124
0.059434492
0.061669138
0.063882224
0.06604842
0.068165024
0.070228994
0.072236584
0.07418351
0.076064896
0.077875279
0.079608648
0.081258469
0.082817697
0.084278771
0.085633583
0.086873422
0.087988897
0.088969834
0.089805152
0.090482783
0.090989627
0.091300704
0.091419801
0.09132401
0.090990923
0.090393743
0.089513439
0.088326215
0.086809188
0.00085483244
0.0027725378
0.0048961873
0.0072188007
0.0097237117
0.012385748
0.015173642
0.018053115
0.020989933
0.023952397
0.026913099
0.029849809
0.032745652
0.0355888
0.038371843
0.041091092
0.043745842
0.046336869
0.048864623
0.051338282
0.053695685
0.05602791
0.058337846
0.060550821
0.062767522
0.064940282
0.067067322
0.069146813
0.071176085
0.07315175
0.075069774
0.076925448
0.078713439
0.080427838
0.082062189
0.083609506
0.085062275
0.086412428
0.087651291
0.088769511
0.089756958
0.090602611
0.09129446
0.091819409
0.09215147
0.092295571
0.092227641
0.091927124
0.091364828
0.00089456508
0.0029122142
0.0051549246
0.0076123707
0.010262403
0.013073081
0.016006159
0.019021129
0.022078848
0.025144282
0.028188191
0.031187789
0.034126682
0.036994306
0.039785041
0.042497353
0.045133263
0.047696192
0.050184597
0.052603589
0.054909051
0.057216461
0.059443531
0.06164633
0.063818762
0.065947102
0.068031686
0.070071254
0.072063491
0.074005291
0.075892771
0.077721327
0.079485696
0.08118001
0.082797837
0.084332205
0.085775606
0.087119979
0.088356659
0.08947631
0.090468828
0.09132323
0.092027545
0.09256867
0.09291975
0.093086719
0.09304452
0.092774306
0.092244711
0.00093724305
0.0030638449
0.0054372808
0.0080427995
0.010851259
0.013822428
0.016909907
0.02006626
0.023247202
0.026414468
0.029537301
0.032592806
0.035565618
0.03844707
0.041233903
0.043927114
0.046532293
0.049057673
0.051495687
0.053829002
0.056119799
0.058341575
0.060536539
0.062700624
0.064822474
0.066902952
0.06894243
0.070939949
0.072893473
0.074800061
0.076655907
0.078456445
0.080196421
0.081869953
0.083470583
0.08499131
0.086424598
0.087762361
0.088995919
0.090115933
0.091112307
0.091974082
0.092689306
0.093244869
0.093613151
0.093800976
0.093782492
0.093540246
0.09304117
0.00098322364
0.0032291548
0.0057468323
0.0085156259
0.011497473
0.014642035
0.017893476
0.02119676
0.024502314
0.027768866
0.030964591
0.034067093
0.037062769
0.039945699
0.042715706
0.045376422
0.047937769
0.050419043
0.052760433
0.055061702
0.057273639
0.059447369
0.061601242
0.063709771
0.065778057
0.067808107
0.069800519
0.071754528
0.073668264
0.075538839
0.077362456
0.079134526
0.080849742
0.082502159
0.084085249
0.085591944
0.087014646
0.08834522
0.08957495
0.090694474
0.091693691
0.092561649
0.093286403
0.093854838
0.094238648
0.094445448
0.094448846
0.094232201
0.09376168
0.0010329175
0.0034102071
0.006087882
0.0090374674
0.012209522
0.015541463
0.018966637
0.022421785
0.025852011
0.029213403
0.032473728
0.035611937
0.038617166
0.04148739
0.044226522
0.046840207
0.049341801
0.051746657
0.054013034
0.056262239
0.058400927
0.06053409
0.062623911
0.064672902
0.066685124
0.06866292
0.070606983
0.072516644
0.074390063
0.076224317
0.078015555
0.0797591
0.081449544
0.083080828
0.084646317
0.086138841
0.087550718
0.088873738
0.090099131
0.091217499
0.09221872
0.093091839
0.093824911
0.094404809
0.09480261
0.095026588
0.09505039
0.094856854
0.094412937
0.001086802
0.0036095054
0.0064656767
0.0096163213
0.012997502
0.01653191
0.020140621
0.023751576
0.027304634
0.030753836
0.03406755
0.037227304
0.040226199
0.043067631
0.045761229
0.048312886
0.050741287
0.053034492
0.055264476
0.057409149
0.059514508
0.061578624
0.063602079
0.065588991
0.067543415
0.069467845
0.07136293
0.073227973
0.075061039
0.076859106
0.078618202
0.08033351
0.08199947
0.083609871
0.085157936
0.086636367
0.088037372
0.089352653
0.09057337
0.091690072
0.092692613
0.093570019
0.094310342
0.094900445
0.095310847
0.095550412
0.09559297
0.09542045
0.09500112
0.0011454381
0.0038301359
0.006886703
0.010261968
0.013873578
0.017626662
0.021428508
0.025197667
0.028868975
0.032395434
0.035747605
0.038911396
0.04188524
0.044679807
0.047313546
0.049787571
0.052096646
0.054326562
0.056460126
0.058550688
0.060586674
0.062578616
0.064533911
0.066457174
0.068352813
0.070223462
0.072069547
0.07389021
0.075683337
0.077445735
0.07917326
0.08086091
0.082502929
0.084092921
0.085623936
0.08708853
0.08847878
0.089786286
0.091002126
0.092116792
0.093120097
0.094001049
0.094747689
0.095346871
0.095768613
0.096022305
0.096081994
0.095928629
0.095531905
0.0012094934
0.0040759676
0.007359098
0.010986525
0.014852604
0.018841731
0.022845538
0.026772652
0.030553608
0.034142138
0.037513429
0.040660145
0.043587293
0.046314699
0.048876473
0.051223034
0.053445612
0.055575854
0.057645252
0.059656596
0.061614121
0.063531866
0.065418031
0.067276831
0.069113364
0.070930494
0.072728101
0.074505081
0.076259067
0.077986646
0.079683457
0.081344272
0.082963106
0.084533348
0.086047852
0.087499007
0.088878752
0.09017857
0.09138945
0.09250182
0.093505448
0.094389317
0.095141456
0.095748713
0.096180655
0.096447126
0.096522403
0.096386487
0.096010483
0.0012797714
0.0043519395
0.0078932286
0.011805214
0.01595301
0.020196143
0.024408547
0.028489089
0.032365562
0.03599526
0.039361437
0.042466628
0.045322827
0.047959641
0.050409181
0.052643435
0.054763228
0.056812617
0.058795735
0.060718173
0.062594081
0.064436459
0.066253517
0.068047612
0.06982527
0.071589817
0.07333994
0.075074335
0.076790313
0.0784842
0.08015139
0.081786397
0.083382976
0.084934275
0.086432936
0.087871168
0.08924076
0.090533076
0.091739011
0.09284892
0.093852525
0.094738781
0.095495705
0.09611014
0.096551251
0.096829258
0.096918679
0.096798629
0.096441554
0.0013572534
0.0046644852
0.0085025242
0.012737483
0.017197243
0.021711431
0.026135033
0.030358199
0.034308776
0.037951963
0.041283711
0.044320579
0.04708004
0.049605286
0.051901046
0.054034302
0.056062371
0.058014923
0.059899772
0.061731157
0.063523903
0.065290757
0.067039978
0.068769421
0.070488847
0.072202484
0.073906489
0.075599745
0.077279127
0.078940677
0.080579531
0.08218992
0.083765313