/*--------------------------------*- C++ -*----------------------------------*\
| =========                 |                                                 |
| \\      /  F ield         | OpenFOAM: The Open Source CFD Toolbox           |
|  \\    /   O peration     | Version:  2312                                  |
|   \\  /    A nd           | Website:  www.openfoam.com                      |
|    \\/     M anipulation  |                                                 |
\*---------------------------------------------------------------------------*/
FoamFile
{
    version     2.0;
    format      ascii;
    arch        "LSB;label=32;scalar=64";
    class       volScalarField;
    location    "0.01";
    object      k;
}
// * * * * * * * * * * * * * * * * * * * * * * * * * * * * * * * * * * * * * //

dimensions      [0 2 -2 0 0 0 0];

internalField   nonuniform List<scalar> 
3221
(
10.954934
10.870862
10.79602
10.731536
10.677745
10.634617
10.601913
10.579243
10.566102
10.561894
10.565863
10.577391
10.595737
10.620016
10.649386
10.682987
10.719954
10.759424
10.800547
10.842495
10.884468
10.925703
10.965482
11.00314
11.038073
11.069746
11.097698
11.121522
11.140877
11.155447
11.165038
11.169508
11.168783
11.162825
11.151611
11.135294
11.114027
11.087958
11.057328
11.022408
10.9835
10.940932
10.895054
10.846233
10.794847
10.74128
10.685918
10.629141
10.57132
10.512812
10.453961
10.395091
10.952417
10.867331
10.792829
10.7292
10.676528
10.63471
10.603477
10.582427
10.571048
10.568734
10.574687
10.588384
10.60897
10.635588
10.667385
10.703491
10.74303
10.785128
10.828924
10.873576
10.918273
10.962239
11.004742
11.045102
11.082703
11.116996
11.147501
11.173796
11.195521
11.212338
11.224036
11.230463
11.231534
11.227207
11.21745
11.202384
11.182161
11.156936
11.126938
11.092438
11.053739
11.011171
10.965092
10.915876
10.863911
10.809593
10.753318
10.695481
10.636469
10.576655
10.516398
10.456038
10.950676
10.86402
10.789252
10.726215
10.67474
10.634571
10.605364
10.586667
10.577936
10.578529
10.587644
10.604792
10.629024
10.659497
10.69534
10.735668
10.779584
10.826194
10.874614
10.923979
10.973452
11.022229
11.069551
11.114711
11.157061
11.196021
11.231082
11.261786
11.287739
11.308561
11.324004
11.333872
11.338116
11.336617
11.329389
11.316452
11.297966
11.274105
11.245074
11.211141
11.172611
11.129824
11.083147
11.032971
10.979703
10.923758
10.865559
10.805528
10.744079
10.681618
10.618531
10.55519
10.949444
10.861614
10.786769
10.724559
10.674636
10.636632
10.61011
10.594562
10.5894
10.593869
10.607358
10.629158
10.658354
10.694082
10.73545
10.781546
10.831447
10.88423
10.93898
10.994798
11.05081
11.106175
11.160096
11.211823
11.260667
11.306006
11.347285
11.384001
11.41572
11.442003
11.462534
11.476987
11.485507
11.487852
11.483989
11.473919
11.457749
11.435678
11.407893
11.374657
11.336281
11.293114
11.245542
11.193975
11.138845
11.0806
11.019694
10.956587
10.891732
10.825577
10.758549
10.691063
10.948695
10.860319
10.785841
10.724838
10.676885
10.641529
10.61827
10.606543
10.605716
10.614924
10.633759
10.661247
10.696524
10.738697
10.786846
10.840025
10.897279
10.957647
11.020174
11.083919
11.147962
11.211414
11.273427
11.333201
11.389995
11.443129
11.491996
11.53603
11.574734
11.607591
11.634256
11.654458
11.668094
11.675012
11.675113
11.668459
11.655008
11.635001
11.608628
11.576128
11.537819
11.494067
11.445278
11.391889
11.334364
11.273187
11.208855
11.14187
11.072737
11.001951
10.929994
10.85733
10.948407
10.860206
10.786678
10.727395
10.681903
10.649711
10.630279
10.623005
10.627129
10.641984
10.666946
10.701041
10.743385
10.793052
10.849084
10.9105
10.976303
11.045487
11.117049
11.189996
11.263354
11.336176
11.407555
11.476628
11.54259
11.604697
11.662274
11.714688
11.761372
11.801736
11.835398
11.862057
11.881501
11.893565
11.898125
11.895168
11.884689
11.866888
11.841969
11.810143
11.771736
11.727136
11.676772
11.621113
11.560659
11.495937
11.427493
11.355881
11.281662
11.205388
11.127602
11.048827
10.948554
10.86128
10.789361
10.732394
10.689929
10.661469
10.646452
10.644253
10.653991
10.675268
10.707137
10.74869
10.799008
10.857126
10.922047
10.992746
11.068176
11.14728
11.228999
11.312278
11.396078
11.479387
11.561226
11.640662
11.716816
11.78887
11.856075
11.917722
11.973173
12.02176
12.063055
12.096702
12.122416
12.139989
12.149261
12.150176
12.142836
12.127248
12.103665
12.072324
12.033557
11.987768
11.935413
11.876995
11.813056
11.744173
11.670943
11.59398
11.513905
11.431336
11.346882
11.261134
10.949111
10.863518
10.793901
10.739899
10.701088
10.676979
10.667012
10.670473
10.686641
10.715019
10.75458
10.804421
10.863587
10.931073
11.005838
11.086803
11.172867
11.262913
11.355815
11.450448
11.5457
11.640482
11.733735
11.824446
11.911653
11.994456
12.072025
12.143571
12.208381
12.265708
12.315069
12.356049
12.388301
12.41157
12.425656
12.430485
12.426127
12.412641
12.390159
12.359013
12.319525
12.272121
12.217287
12.155566
12.087548
12.013861
11.935162
11.852127
11.765446
11.675804
11.583884
11.490348
10.950058
10.866887
10.800282
10.749929
10.71544
10.69635
10.69211
10.701885
10.725298
10.761505
10.809559
10.868529
10.93742
11.015185
11.10073
11.19292
11.29059
11.392551
11.497602
11.604539
11.712166
11.819306
11.924813
12.027582
12.126562
12.220764
12.309274
12.391215
12.465796
12.532192
12.589863
12.638334
12.677201
12.706164
12.72499
12.733579
12.731952
12.720267
12.69853
12.667154
12.626469
12.576925
12.519042
12.453407
12.380662
12.301491
12.216616
12.12678
12.032742
11.935264
11.835102
11.732997
10.951377
10.871359
10.808482
10.762486
10.733027
10.719669
10.721828
10.738751
10.770158
10.815001
10.87239
10.941364
11.020887
11.109863
11.207139
11.311516
11.421752
11.536581
11.654715
11.774858
11.89572
12.016026
12.134531
12.250033
12.361383
12.4675
12.567376
12.660048
12.744644
12.820263
12.886309
12.942247
12.987624
13.0221
13.04541
13.057439
13.058168
13.047825
13.026329
12.994153
12.951689
12.899382
12.837794
12.767562
12.689383
12.604006
12.512216
12.414829
12.312679
12.206604
12.097441
11.986009
10.953056
10.876914
10.818488
10.777579
10.753889
10.74702
10.756265
10.781292
10.821456
10.875803
10.943427
11.023333
11.114443
11.215603
11.325595
11.443142
11.566921
11.695571
11.827705
11.961925
12.096835
12.23105
12.363219
12.492032
12.616237
12.734655
12.846187
12.949775
13.044468
13.129299
13.203613
13.266825
13.318432
13.358064
13.385436
13.40042
13.402991
13.393371
13.371484
13.33784
13.292888
13.237093
13.171059
13.095476
13.011101
12.918747
12.819271
12.713564
12.602534
12.487103
12.368187
12.246689
10.95509
10.883543
10.830302
10.795229
10.778075
10.778466
10.795656
10.829661
10.879466
10.944246
11.023069
11.114901
11.218613
11.332988
11.456728
11.58847
11.726791
11.870226
12.017275
12.166423
12.316155
12.464968
12.611392
12.754003
12.891442
13.022427
13.145766
13.260311
13.365031
13.458904
13.541217
13.611341
13.668736
13.713007
13.743856
13.761147
13.76486
13.755248
13.73227
13.696382
13.648108
13.588005
13.516703
13.434947
13.343559
13.243418
13.135456
13.020637
12.899954
12.774407
12.644996
12.512709
10.957476
10.891248
10.843941
10.81548
10.805678
10.814032
10.840281
10.884069
10.944487
11.020706
11.111768
11.216595
11.333997
11.462681
11.60126
11.748267
11.902166
12.061368
12.224247
12.389158
12.554451
12.718494
12.879691
13.036498
13.187441
13.331137
13.466303
13.591701
13.70623
13.808821
13.898707
13.975223
14.03781
14.086055
14.119657
14.138483
14.142524
14.132085
14.107121
14.068107
14.015631
13.95033
13.872874
13.784072
13.684811
13.576041
13.458768
13.334037
13.202921
13.066503
12.925868
12.782088
10.960216
10.900043
10.859436
10.838387
10.836763
10.853979
10.890262
10.944807
11.016873
11.105612
11.210033
11.329005
11.461264
11.605427
11.759999
11.923393
12.09394
12.269912
12.449537
12.631023
12.812577
12.992424
13.168834
13.340135
13.504742
13.661168
13.808044
13.944049
14.068022
14.178859
14.275743
14.357976
14.425012
14.476429
14.51193
14.531394
14.534835
14.522634
14.494692
14.451586
14.393953
14.322502
14.237959
14.141198
14.033173
13.914911
13.787493
13.652046
13.509723
13.361692
13.209122
13.053169
10.963317
10.909955
10.876841
10.86405
10.871352
10.898611
10.945819
11.012187
11.097019
11.199447
11.318438
11.452792
11.60116
11.762047
11.933832
12.114786
12.303086
12.496844
12.694125
12.892973
13.091436
13.287591
13.479563
13.665555
13.843864
14.012906
14.171232
14.317452
14.450357
14.568828
14.671992
14.759115
14.829722
14.883382
14.91981
14.938905
14.940722
14.925733
14.893762
14.845542
14.781742
14.703122
14.61053
14.504872
14.38718
14.258556
14.12016
13.973201
13.818913
13.658548
13.493358
13.324585
10.966788
10.921016
10.896216
10.892544
10.909689
10.948082
11.007243
11.086574
11.185377
11.302756
11.43762
11.58869
11.754505
11.933441
12.123725
12.323459
12.530646
12.743212
12.959039
13.175993
13.391951
13.604829
13.812611
14.013368
14.205287
14.38669
14.55606
14.711948
14.853118
14.978458
15.087058
15.178132
15.251317
15.30617
15.342439
15.360064
15.35917
15.340263
15.303168
15.248758
15.177737
15.090937
14.989304
14.873804
14.74554
14.605691
14.455499
14.296252
14.129267
13.955878
13.777419
13.595216
10.970644
10.93327
10.917652
10.923899
10.952082
11.002594
11.074855
11.168377
11.282451
11.416142
11.568288
11.737504
11.922198
12.120585
12.330715
12.550492
12.777715
13.010102
13.245331
13.481075
13.715028
13.944943
14.168658
14.38412
14.589412
14.782772
14.962622
15.127476
15.276078
15.407342
15.520394
15.614465
15.689136
15.744003
15.778924
15.793887
15.789156
15.765111
15.721779
15.660071
15.580762
15.484765
15.373089
15.246815
15.107089
14.955176
14.792397
14.62012
14.439743
14.25268
14.060347
13.864151
10.974897
10.946765
10.941219
10.9583
10.998723
11.062416
11.149015
11.258052
11.388803
11.540277
11.71122
11.900117
12.105212
12.324531
12.555908
12.79702
13.045431
13.298626
13.55406
13.809194
14.061536
14.308673
14.548303
14.778257
14.99653
15.201288
15.390882
15.563864
15.718947
15.855087
15.971454
16.067332
16.142266
16.195934
16.22827
16.239336
16.229582
16.19917
16.14845
16.078336
15.989676
15.883452
15.760776
15.622809
15.470762
15.305979
15.129862
14.943857
14.749441
14.548106
14.341345
14.130646
10.979567
10.961564
10.96693
10.996046
11.049775
11.127862
11.230125
11.356106
11.505052
11.675897
11.867268
12.077487
12.304601
12.546402
12.800472
13.064227
13.33496
13.609902
13.886261
14.161281
14.432275
14.696669
14.95203
15.196097
15.426801
15.642249
15.840612
16.020749
16.181242
16.321084
16.439487
16.535858
16.609751
16.660928
16.689395
16.695299
16.679298
16.641285
16.582022
16.502409
16.403355
16.28587
16.151266
16.000734
15.835552
15.657144
15.46699
15.266613
15.057566
14.841418
14.619737
14.394084
10.984673
10.977717
10.994905
11.037344
11.105463
11.199262
11.318622
11.463093
11.631876
11.823807
12.037358
12.270652
12.521488
12.787385
13.065628
13.353328
13.647481
13.945031
14.242931
14.538195
14.827947
15.109458
15.380183
15.63779
15.880192
16.105499
16.311391
16.497586
16.662285
16.804543
16.923559
17.019033
17.090515
17.137851
17.161124
17.160604
17.137067
17.090243
17.021295
16.931109
16.82068
16.690908
16.543496
16.379563
16.200495
16.007766
15.802937
15.587608
15.363404
15.131967
14.894936
14.653945
10.99024
10.995202
11.025418
11.082296
11.166062
11.276981
11.414983
11.579617
11.770015
11.984882
12.222494
12.480722
12.75707
13.048727
13.352635
13.665557
13.984157
14.305075
14.624993
14.940696
15.249126
15.547417
15.832928
16.103267
16.35631
16.590197
16.803023
16.993786
17.161227
17.304485
17.422599
17.515722
17.58336
17.625453
17.642165
17.634044
17.601528
17.544793
17.465018
17.363165
17.240317
17.097592
16.936469
16.758332
16.564665
16.356978
16.136903
15.906109
15.666291
15.419159
15.16642
14.909775
10.996294
11.014085
11.058659
11.131063
11.231848
11.361405
11.519723
11.706332
11.920269
12.160066
12.423749
12.708881
13.012605
13.331723
13.662777
14.002142
14.346119
14.691024
15.033265
15.369408
15.696228
16.010747
16.310258
16.592348
16.854902
17.096119
17.314287
17.50819
17.676844
17.819531
17.93551
18.024727
18.086993
18.122393
18.131175
18.114179
18.071388
18.003602
17.911929
17.797414
17.661227
17.50463
17.329064
17.136041
16.927144
16.703936
16.468118
16.22142
15.965605
15.702445
15.433711
15.161168
11.002807
11.034612
11.094659
11.183858
11.303116
11.452949
11.633393
11.843943
12.083502
12.350374
12.642273
12.956378
13.289404
13.637695
13.997339
14.36428
14.734429
15.103767
15.468434
15.824791
16.169476
16.499432
16.81193
17.104572
17.375301
17.622388
17.844241
18.039706
18.207983
18.348494
18.460696
18.544486
18.599912
18.627191
18.626727
18.599516
18.545243
18.465301
18.360707
18.232595
18.082217
17.910931
17.720217
17.511699
17.287019
17.047811
16.795828
16.532866
16.260746
15.981302
15.696361
15.40775
11.009791
11.056906
11.133493
11.240872
11.380172
11.552048
11.756585
11.993208
12.26064
12.556889
12.879278
13.22452
13.588814
13.967977
14.357584
14.753107
15.150048
15.544055
15.931011
16.307105
16.668873
17.013225
17.33745
17.639219
17.916578
18.167895
18.391712
18.587026
18.75323
18.889883
18.996616
19.073422
19.120523
19.138251
19.12739
19.08842
19.021657
18.928487
18.810002
18.667422
18.502076
18.315391
18.108889
17.88434
17.64339
17.387786
17.119301
16.839793
16.55114
16.255231
15.953946
15.649166
11.017327
11.080883
11.175284
11.302308
11.463331
11.659164
11.889923
12.154932
12.452667
12.780757
13.136037
13.514653
13.912198
14.323883
14.744713
15.169657
15.593797
16.012459
16.421301
16.816378
17.194178
17.551626
17.886084
18.195332
18.477582
18.731317
18.955282
19.148641
19.310969
19.442026
19.541617
19.609872
19.647167
19.65398
19.631435
19.579433
19.499116
19.391726
19.258452
19.100601
18.919585
18.716889
18.494065
18.253
17.995396
17.723072
17.437825
17.141568
16.836231
16.52375
16.206057
15.885079
11.025444
11.106557
11.22014
11.36837
11.552922
11.774778
12.034073
12.329972
12.660626
13.023179
13.413864
13.828143
14.260904
14.706671
15.159829
15.614819
16.06631
16.509332
16.939362
17.352378
17.744876
18.113868
18.456842
18.771732
19.056898
19.31111
19.533315
19.722882
19.879427
20.003127
20.093911
20.15207
20.178098
20.172786
20.137098
20.07101
19.976115
19.853585
19.704702
19.530852
19.333523
19.114275
18.874743
18.616785
18.3422
18.052904
17.750713
17.437581
17.115482
16.786399
16.452303
16.115168
11.034128
11.134009
11.268176
11.439259
11.649276
11.899393
12.18973
12.519229
12.885607
13.285398
13.714094
14.166347
14.636229
15.117502
15.603887
16.08929
16.567989
17.034762
17.484966
17.91457
18.320154
18.698882
19.048448
19.366973
19.652888
19.905512
20.12397
20.307864
20.456747
20.571325
20.651655
20.698187
20.711537
20.692957
20.642672
20.561577
20.451152
20.312646
20.14742
19.956937
19.742751
19.506499
19.249894
18.974768
18.682973
18.376539
18.057304
17.727246
17.388383
17.042735
16.69231
16.339123
11.043388
11.16329
11.319497
11.515174
11.75273
12.033524
12.35762
12.723641
13.128737
13.568678
14.038056
14.530572
15.039371
15.557383
16.077638
16.593517
17.09895
17.588527
18.057563
18.502097
18.91887
19.305276
19.659288
19.979306
20.263755
20.51262
20.725223
20.901432
21.041043
21.144728
21.212959
21.246366
21.245757
21.212592
21.146586
21.049545
20.922738
20.767511
20.585304
20.377647
20.146157
19.892532
19.618554
19.326068
19.016935
18.693269
18.356968
18.01001
17.654449
17.292341
16.925727
16.556654
11.05323
11.194432
11.374189
11.596296
11.863617
12.177701
12.538491
12.944171
13.391161
13.874277
14.387034
14.922029
15.471374
16.027109
16.581566
17.127638
17.658971
18.170054
18.656249
19.113758
19.539565
19.931358
20.28744
20.606584
20.887599
21.13047
21.335099
21.501603
21.630079
21.721227
21.775829
21.794674
21.77911
21.729749
21.64726
21.533376
21.389423
21.216826
21.017094
20.791818
20.542667
20.27139
19.979816
19.669825
19.343361
19.002453
18.64912
18.285352
17.913228
17.53483
17.152225
16.76749
11.063656
11.227453
11.432316
11.682792
11.982262
12.332454
12.733103
13.181794
13.67401
14.203403
14.762208
15.341765
15.933052
16.527188
17.115822
17.691425
18.247447
18.778381
19.279744
19.748003
20.180475
20.575216
20.930928
21.246766
21.521998
21.756738
21.951368
22.106203
22.221706
22.298734
22.338262
22.341299
22.309555
22.242873
22.143057
22.01156
21.849804
21.659289
21.441586
21.198342
20.931272
20.64216
20.332865
20.005308
19.661518
19.303455
18.933212
18.552794
18.164304
17.769844
17.371504
16.971384
11.074662
11.262349
11.493915
11.774802
12.108973
12.498309
12.942212
13.437463
13.978369
14.557163
15.164593
15.790587
16.424916
17.057763
17.680154
18.284222
18.86334
19.412125
19.92637
20.402917
20.839503
21.234629
21.587465
21.897507
22.164548
22.389037
22.571652
22.712955
22.813773
22.875166
22.89824
22.884551
22.835064
22.750379
22.632432
22.482653
22.302541
22.093662
21.857643
21.596178
21.311021
21.003985
20.676939
20.331825
19.970775
19.595706
19.208743
18.811901
18.407302
17.997063
17.583294
17.168114
11.086235
11.299094
11.558994
11.872436
12.244035
12.675772
13.166544
13.712079
14.305212
14.936488
15.594947
16.26897
16.947072
17.618531
18.273831
18.904891
19.505141
20.06946
20.594043
21.076218
21.514235
21.907104
22.254482
22.556252
22.812764
23.024913
23.193541
23.319562
23.40412
23.448461
23.453894
23.42239
23.354027
23.250649
23.113895
22.945279
22.746369
22.518784
22.264203
21.984356
21.681034
21.356071
21.011338
20.648754
20.27058
19.878706
19.475269
19.062288
18.641889
18.216206
17.787362
17.35749
11.098352
11.337633
11.627519
11.975765
12.387698
12.865308
13.406766
14.006429
14.655332
15.342037
16.053665
16.776946
17.499125
18.208649
18.895576
19.551762
20.170844
20.748108
21.280276
21.765275
22.201949
22.589886
22.929226
23.220323
23.464089
23.661829
23.814617
23.923733
23.990579
24.016559
24.003519
23.952739
23.864907
23.742155
23.58604
23.398148
23.180105
22.93358
22.660287
22.361991
22.040505
21.697689
21.335414
20.955545
20.56045
20.152029
19.73241
19.303624
18.867783
18.427035
17.983511
17.539356
11.110982
11.377881
11.699416
12.084812
12.54016
13.067318
13.663431
14.321117
15.029236
15.774073
16.540649
17.313974
18.080068
18.826649
19.543507
20.222597
20.857932
21.445342
21.982202
22.467136
22.899668
23.28002
23.608793
23.886931
24.11587
24.297238
24.432482
24.523211
24.571026
24.577561
24.545105
24.473958
24.366136
24.223457
24.047549
23.84006
23.602663
23.337065
23.045011
22.728285
22.388719
22.028181
21.648549
21.251726
20.839984
20.415327
19.979855
19.535637
19.084752
18.629355
18.171587
17.713592
11.12408
11.419716
11.774555
12.199541
12.701548
13.282088
13.936909
14.656448
15.427004
16.232309
17.055146
17.878805
18.688162
19.470356
20.21508
20.91457
21.563374
22.158009
22.696605
23.178578
23.60422
23.974366
24.290173
24.553234
24.765386
24.92861
25.04478
25.115777
25.143375
25.129779
25.076551
24.984584
24.856236
24.693212
24.497206
24.269915
24.013052
23.728353
23.417582
23.082538
22.725056
22.34701
21.950288
21.536828
21.108803
20.668285
20.217356
19.758113
19.292615
18.823017
18.351474
17.880114
11.137587
11.462974
11.852751
12.319847
12.871887
13.50974
14.22728
15.012284
15.848109
16.71571
17.595575
18.469326
19.320829
20.136813
20.907058
21.624255
22.283645
22.88256
23.419972
23.896144
24.312259
24.669693
24.970315
25.216344
25.409922
25.55345
25.649204
25.699287
25.70574
25.671226
25.596251
25.483119
25.333842
25.150186
24.933899
24.686719
24.410387
24.106658
23.777306
23.424137
23.048985
22.653719
22.240238
21.810497
21.366602
20.910649
20.444706
19.970889
19.491241
19.007912
18.523095
18.038882
11.15143
11.507449
11.933752
12.445533
13.051062
13.750132
14.534189
15.387841
16.291181
17.222264
18.159314
19.082403
19.974545
20.822232
21.615497
22.347644
23.014755
23.615089
24.148544
24.616228
25.020303
25.362744
25.646204
25.873376
26.046814
26.169326
26.243497
26.271657
26.256488
26.199812
26.102833
25.968167
25.7977
25.593259
25.356633
25.08959
24.793888
24.471293
24.123585
23.752564
23.360059
22.947931
22.51808
22.07247
21.613155
21.14223
20.661752
20.173851
19.680546
19.183961
18.686409
18.189905
11.165521
11.552883
12.017232
12.576292
13.238746
14.002736
14.856633
15.781416
16.753712
17.7487
18.742477
19.713725
20.644757
21.521963
22.335759
23.080191
23.752298
24.351386
24.878355
25.335107
25.724842
26.050295
26.314814
26.521528
26.673507
26.773883
26.825515
26.831054
26.79365
26.714027
26.594889
26.438459
26.246682
26.021431
25.764526
25.477753
25.162882
24.821678
24.455918
24.067392
23.657918
23.229345
22.78357
22.32255
21.848302
21.362905
20.868399
20.366936
19.860498
11.179753
11.598967
12.102781
12.711669
13.43431
14.26644
15.192672
16.190024
17.231678
18.290156
19.33967
20.357659
21.325821
22.230503
23.062571
23.81689
24.49155
25.087009
25.605273
26.048982
26.422401
26.729172
26.97319
27.158134
27.287566
27.364885
27.393214
27.375926
27.315187
27.212609
27.071129
26.892856
26.679786
26.433826
26.156816
25.850552
25.516804
25.157332
24.7739
24.368285
23.942288
23.497741
23.036532
22.560608
22.071949
21.572609
21.064612
20.55013
20.031139
11.194003
11.645338
12.189895
12.851011
13.636679
14.539273
15.539015
16.608917
17.719078
18.839816
19.943754
21.007136
22.01099
22.941549
23.790106
24.552384
25.227591
25.817422
26.325058
26.754088
27.109602
27.39625
27.618514
27.78067
27.886682
27.940258
27.944865
27.904347
27.819739
27.694259
27.530407
27.330356
27.09614
26.829691
26.532859
26.207439
25.855195
25.477874
25.077223
24.654997
24.212976
23.752974
23.276864
22.786577
22.284059
21.771336
21.250403
20.723457
20.192476
11.20813
11.691573
12.277954
12.99338
13.844102
14.817993
15.890455
17.030965
18.207378
19.388487
20.545608
21.653573
22.692447
23.648092
24.512109
25.28109
25.955428
26.53816
27.033637
27.446661
27.783106
28.048529
28.24814
28.386742
28.468713
28.498063
28.479046
28.414383
28.306179
28.157824
27.971722
27.750095
27.495007
27.208401
26.892129
26.54798
26.177702
25.783023
25.365666
24.927362
24.469867
23.994971
23.504528
23.00045
22.484652
21.959128
21.42584
20.887001
20.344596
11.221972
11.737189
12.366191
13.137415
14.053818
15.097495
16.239087
17.445843
18.684835
19.924154
21.133932
22.286859
23.361409
24.342568
25.222045
25.997322
26.670091
27.244791
27.727101
28.123181
28.439736
28.683229
28.859582
28.974133
29.031707
29.036723
28.99393
28.904863
28.773346
28.602306
28.394222
28.151352
27.87578
27.569454
27.234219
26.871849
26.484071
26.072589
25.639098
25.1853
24.712922
24.223729
23.719551
23.202278
22.673798
22.136071
21.591031
21.040881
20.487628
11.235346
11.78163
12.453632
13.281106
14.261519
15.369951
16.573232
17.839009
19.13572
20.431512
21.695119
22.895431
24.00831
25.017075
25.913297
26.695453
27.36672
27.933071
28.401776
28.780384
29.076594
29.297782
29.450554
29.540835
29.573875
29.554976
29.487755
29.374824
29.220252
29.026867
28.7972
28.53354
28.237981
27.912467
27.55883
27.178823
26.774147
26.346474
25.89747
25.428803
24.942171
24.439308
23.922019
23.392168
22.851614
22.302293
21.746121
21.185258
20.621735
11.248042
11.824249
12.53899
13.4214
14.460535
15.623556
16.875966
18.190373
19.53941
20.891479
22.213229
23.466446
24.623084
25.663647
26.579397
27.370107
28.040703
28.599074
29.054257
29.415296
29.691073
29.88986
30.019017
30.085072
30.093821
30.051198
29.95953
29.823283
29.646079
29.430826
29.180101
28.896214
28.581262
28.237179
27.865777
27.468782
27.047864
26.604664
26.140809
25.657936
25.157708
24.641828
24.112072
23.570276
23.018269
22.457972
21.891284
21.320313
20.747104
11.259806
11.86427
12.620458
13.553539
14.640547
15.840698
17.133572
18.493356
19.891624
21.296564
22.673886
23.986086
25.19555
26.274594
27.214276
28.016282
28.687872
29.239257
29.681474
30.025277
30.280837
30.45742
30.563191
30.605277
30.590472
30.523862
30.408492
30.249446
30.050173
29.813655
29.542509
29.239058
28.905395
28.543438
28.154974
27.741698
27.305246
26.847222
26.369216
25.872829
25.359687
24.831463
24.289899
23.736801
23.173973
22.603321
22.026728
21.446257
20.863948
11.270305
11.900698
12.695335
13.669909
14.785559
16.019215
17.350013
18.752013
20.196336
21.650934
23.080948
24.448805
25.715909
26.842891
27.812473
28.629581
29.304594
29.850526
30.280774
30.608011
30.843868
30.998714
31.081568
31.100248
31.062578
30.972102
30.833892
30.652699
30.432047
30.174982
29.884152
29.561886
29.210271
28.831201
28.426435
27.997633
27.546396
27.074286
26.582857
26.073671
25.548318
25.008434
24.455732
23.891985
23.31897
22.738584
22.152695
21.563324
20.972505
11.279031
11.932155
12.759333
13.758016
14.898809
16.163462
17.529336
18.970336
20.457504
21.958635
23.438404
24.858811
26.180347
27.362545
28.369406
29.206361
29.88784
30.430295
30.849909
31.161549
31.378485
31.512291
31.572897
31.569125
31.508927
31.395391
31.235154
31.032601
30.791374
30.514579
30.204887
29.864634
29.495889
29.100524
28.680264
28.236733
27.771491
27.286062
26.781959
26.260706
25.723855
25.173009
24.609845
24.036101
23.453531
22.864035
22.269451
21.671776
21.073029
11.285079
11.956543
12.80528
13.820004
14.984592
16.277694
17.675548
19.152231
20.67902
22.223627
23.75025
25.220261
26.593229
27.827707
28.881505
29.743823
30.435239
30.976502
31.387082
31.684331
31.883339
31.997002
32.036187
32.011266
31.928654
31.793301
31.611897
31.388878
31.127978
30.832355
30.504702
30.147351
29.762356
29.351558
28.91665
28.459216
27.980777
27.482815
26.966803
26.434226
25.8866
25.325492
24.752543
24.169458
23.577956
22.979967
22.377284
21.771888
21.165796
11.286626
11.970377
12.828513
13.860253
15.047296
16.366078
17.792551
19.301489
20.86468
22.449782
24.020431
25.53722
26.95871
28.242606
29.346634
30.240037
30.94509
31.487631
31.890947
32.175177
32.357418
32.451996
32.470856
32.425793
32.321544
32.165487
31.963913
31.721418
31.44183
31.128354
30.783699
30.410194
30.00987
29.58454
29.135859
28.665373
28.174561
27.664865
27.137718
26.594566
26.03689
25.466221
24.884166
24.292388
23.692561
23.086696
22.4765
21.863957
21.251101
11.279699
11.965802
12.834367
13.883579
15.09136
16.432649
17.8841
19.421769
21.018173
22.640872
24.252809
25.813602
27.280781
28.611234
29.762398
30.693916
31.416364
31.962705
32.3606
32.633282
32.800027
32.87669
32.876568
32.812164
32.687473
32.511821
32.29116
32.03026
31.733037
31.40274
31.042094
30.653417
30.23872
29.799784
29.338227
28.855555
28.353206
27.832582
27.295077
26.7421
26.175096
25.595563
25.005074
24.405251
23.797678
23.184556
22.567432
21.9483
21.329263
11.266198
11.948572
12.828411
13.895017
15.121165
16.481259
17.953764
19.516579
21.143067
22.800557
24.451109
26.05321
27.563302
28.937423
30.132366
31.105495
31.84868
32.401252
32.795554
33.058193
33.21078
33.270727
33.253315
33.170047
33.026466
32.832354
32.593756
32.31558
32.001829
31.655791
31.2802
30.877365
30.449274
29.997675
29.524151
29.030166
28.51712
27.986376
27.439288
26.87723
26.301614
25.713907
25.115653
24.508433
11.24815
11.923942
12.816389
13.899668
15.1409
16.515499
18.004894
19.589267
21.242804
22.932375
24.618924
26.259693
27.809975
29.22487
30.460654
31.475161
32.242203
32.803261
33.195705
33.449784
33.589583
33.634135
33.600858
33.499723
33.338631
33.127292
32.871961
32.577688
32.248555
31.887885
31.498422
31.082462
30.641969
30.178662
29.694083
29.189661
28.666757
28.126693
27.570791
27.000389
26.416867
25.821664
25.216297
24.602346
11.227162
11.897121
12.804276
13.902483
15.154409
16.538622
18.040596
19.643004
21.320685
23.039721
24.759709
26.436548
28.024272
29.477034
30.750613
31.802982
32.597598
33.169137
33.56129
33.808225
33.936602
33.967126
33.919301
33.801539
33.624276
33.396987
33.126168
32.817009
32.473665
32.099496
31.697248
31.269204
30.817308
30.343244
29.848523
29.334534
28.802601
28.254012
27.690053
27.11203
26.521293
25.919255
25.307411
24.68734
11.204903
11.873938
12.798283
13.908018
15.164999
16.553472
18.063711
19.68078
21.379851
23.125849
24.876762
26.587046
28.20946
29.69717
31.005452
32.091886
32.916164
33.49965
33.892849
34.133945
34.252231
34.270111
34.20899
34.075961
33.883864
33.641928
33.356889
33.034073
32.677706
32.291176
31.877233
31.43815
30.975844
30.491972
29.98801
29.465314
28.92517
28.368834
27.797559
27.212621
26.615344
26.007116
25.389409
24.7638
11.183583
11.861518
12.804504
13.920047
15.175253
16.562411
18.076754
19.70538
21.423285
23.193848
24.973157
26.714258
28.368586
29.888311
31.228257
32.345684
33.199548
33.795844
34.191171
34.427604
34.537063
34.543696
34.470443
34.323597
34.117995
33.862724
33.564743
33.229503
32.8613
32.463548
32.038998
31.589909
31.118177
30.625433
30.113118
29.582556
29.035003
28.47168
27.893812
27.302647
26.699483
26.085688
25.462711
24.832124
11.166681
11.868638
12.828429
13.941065
15.186834
16.567266
18.081948
19.719384
21.453783
23.246562
25.051766
26.821034
28.504463
30.05326
31.421875
32.567414
33.44943
34.058956
34.457255
34.690054
34.791858
34.788677
34.704306
34.545192
34.327385
34.060085
33.750437
33.404004
33.025145
32.617297
32.183213
31.725137
31.244946
30.744245
30.224445
29.686841
29.132656
28.563085
27.979325
27.382598
26.77418
26.155417
25.527741
24.892714
11.160019
11.905791
12.873533
13.971708
15.200356
16.569331
18.081383
19.72515
21.473906
23.286609
25.115249
26.909986
28.619651
30.194578
31.588889
32.759681
33.667401
34.290355
34.692264
34.922317
35.017546
35.005945
34.911455
34.741544
34.512848
34.234815
33.914758
33.558346
33.169992
32.753157
32.31059
31.844525
31.356819
30.849052
30.322612
29.778762
29.2187
28.643596
28.054619
27.45297
26.839905
26.216752
25.584923
24.945971
11.17399
11.982867
12.93929
14.010261
15.215363
16.569473
18.076649
19.724951
21.485955
23.31636
25.166003
26.983516
28.716448
30.314622
31.731699
32.924765
33.854856
34.491542
34.897498
35.125547
35.215212
35.196393
35.092925
34.913566
34.67528
34.387787
34.05856
33.693357
33.296645
32.871902
32.421877
31.948792
31.454484
30.940517
30.40825
29.858925
29.293713
28.713761
28.120217
27.514262
26.897132
26.270139
25.634679
24.992295
11.230116
12.101573
13.018976
14.052683
15.23052
16.568089
18.069153
19.720585
21.491979
23.33797
25.206132
27.043602
28.796996
30.415544
31.852495
33.064863
34.013587
34.664138
35.074364
35.301006
35.386031
35.361069
35.249797
35.062265
34.815653
34.519941
34.182746
33.80991
33.405941
32.974339