/*--------------------------------*- C++ -*----------------------------------*\
| =========                 |                                                 |
| \\      /  F ield         | OpenFOAM: The Open Source CFD Toolbox           |
|  \\    /   O peration     | Version:  2312                                  |
|   \\  /    A nd           | Website:  www.openfoam.com                      |
|    \\/     M anipulation  |                                                 |
\*---------------------------------------------------------------------------*/
FoamFile
{
    version     2.0;
    format      ascii;
    arch        "LSB;label=32;scalar=64";
    class       volScalarField;
    location    "0.01";
    object      p;
}
// * * * * * * * * * * * * * * * * * * * * * * * * * * * * * * * * * * * * * //

dimensions      [1 -1 -2 0 0 0 0];

internalField   nonuniform List<scalar> 
3221
(
100001.57
100001.48
100001.46
100001.48
100001.52
100001.57
100001.62
100001.66
100001.7
100001.74
100001.77
100001.8
100001.82
100001.84
100001.85
100001.86
100001.87
100001.87
100001.88
100001.87
100001.87
100001.87
100001.86
100001.86
100001.86
100001.85
100001.85
100001.84
100001.84
100001.84
100001.84
100001.84
100001.84
100001.84
100001.85
100001.86
100001.86
100001.87
100001.89
100001.9
100001.92
100001.93
100001.95
100001.97
100001.98
100002
100002.02
100002.04
100002.06
100002.09
100002.11
100002.13
100001.78
100001.62
100001.46
100001.36
100001.31
100001.28
100001.26
100001.24
100001.24
100001.24
100001.23
100001.23
100001.23
100001.23
100001.23
100001.23
100001.23
100001.23
100001.23
100001.22
100001.22
100001.22
100001.22
100001.22
100001.22
100001.22
100001.22
100001.22
100001.21
100001.22
100001.22
100001.23
100001.23
100001.23
100001.24
100001.25
100001.26
100001.27
100001.28
100001.29
100001.31
100001.32
100001.33
100001.35
100001.36
100001.38
100001.39
100001.41
100001.42
100001.43
100001.45
100001.46
100001.94
100001.79
100001.63
100001.52
100001.44
100001.38
100001.33
100001.29
100001.27
100001.25
100001.23
100001.21
100001.2
100001.19
100001.19
100001.18
100001.17
100001.17
100001.16
100001.16
100001.15
100001.15
100001.15
100001.15
100001.15
100001.15
100001.15
100001.16
100001.16
100001.16
100001.17
100001.18
100001.18
100001.19
100001.2
100001.21
100001.23
100001.24
100001.25
100001.27
100001.28
100001.3
100001.31
100001.33
100001.34
100001.36
100001.38
100001.39
100001.41
100001.42
100001.44
100001.45
100002.05
100001.9
100001.76
100001.65
100001.56
100001.49
100001.43
100001.38
100001.34
100001.3
100001.28
100001.25
100001.23
100001.22
100001.2
100001.19
100001.18
100001.17
100001.17
100001.16
100001.15
100001.15
100001.15
100001.15
100001.15
100001.16
100001.16
100001.17
100001.17
100001.17
100001.19
100001.19
100001.21
100001.22
100001.23
100001.25
100001.26
100001.27
100001.29
100001.31
100001.33
100001.34
100001.36
100001.38
100001.4
100001.41
100001.43
100001.45
100001.47
100001.48
100001.5
100001.51
100002.09
100001.96
100001.82
100001.71
100001.62
100001.54
100001.48
100001.42
100001.37
100001.33
100001.3
100001.27
100001.24
100001.22
100001.2
100001.18
100001.17
100001.16
100001.15
100001.15
100001.14
100001.14
100001.14
100001.14
100001.14
100001.15
100001.16
100001.16
100001.16
100001.17
100001.19
100001.2
100001.22
100001.23
100001.25
100001.26
100001.28
100001.3
100001.32
100001.34
100001.36
100001.38
100001.4
100001.41
100001.43
100001.45
100001.47
100001.49
100001.51
100001.53
100001.54
100001.56
100002.09
100001.97
100001.85
100001.74
100001.65
100001.57
100001.5
100001.44
100001.38
100001.34
100001.3
100001.26
100001.23
100001.21
100001.19
100001.17
100001.16
100001.14
100001.13
100001.13
100001.12
100001.12
100001.12
100001.13
100001.13
100001.14
100001.15
100001.16
100001.16
100001.18
100001.19
100001.21
100001.23
100001.24
100001.26
100001.28
100001.3
100001.32
100001.34
100001.36
100001.39
100001.41
100001.43
100001.45
100001.47
100001.49
100001.51
100001.53
100001.55
100001.57
100001.59
100001.6
100002.07
100001.96
100001.84
100001.74
100001.65
100001.57
100001.5
100001.43
100001.38
100001.33
100001.29
100001.25
100001.22
100001.19
100001.17
100001.15
100001.13
100001.12
100001.11
100001.11
100001.11
100001.11
100001.11
100001.11
100001.12
100001.13
100001.14
100001.15
100001.16
100001.18
100001.2
100001.22
100001.24
100001.26
100001.28
100001.3
100001.33
100001.35
100001.37
100001.4
100001.42
100001.44
100001.47
100001.49
100001.51
100001.53
100001.56
100001.58
100001.6
100001.62
100001.63
100001.65
100002.04
100001.93
100001.82
100001.72
100001.63
100001.55
100001.48
100001.41
100001.36
100001.31
100001.26
100001.22
100001.19
100001.17
100001.14
100001.12
100001.11
100001.1
100001.09
100001.09
100001.09
100001.09
100001.09
100001.1
100001.11
100001.13
100001.14
100001.16
100001.16
100001.18
100001.21
100001.23
100001.26
100001.28
100001.3
100001.33
100001.36
100001.38
100001.41
100001.43
100001.46
100001.48
100001.51
100001.53
100001.56
100001.58
100001.6
100001.62
100001.64
100001.66
100001.68
100001.7
100001.99
100001.89
100001.77
100001.68
100001.59
100001.51
100001.44
100001.38
100001.32
100001.27
100001.23
100001.19
100001.16
100001.13
100001.11
100001.09
100001.08
100001.07
100001.06
100001.06
100001.07
100001.07
100001.08
100001.09
100001.11
100001.12
100001.14
100001.16
100001.17
100001.19
100001.22
100001.25
100001.27
100001.3
100001.33
100001.36
100001.39
100001.42
100001.44
100001.47
100001.5
100001.52
100001.55
100001.58
100001.6
100001.63
100001.65
100001.67
100001.69
100001.71
100001.73
100001.74
100001.94
100001.83
100001.72
100001.62
100001.54
100001.46
100001.39
100001.32
100001.27
100001.22
100001.18
100001.14
100001.11
100001.09
100001.07
100001.05
100001.04
100001.04
100001.03
100001.04
100001.04
100001.05
100001.06
100001.08
100001.1
100001.12
100001.14
100001.16
100001.18
100001.21
100001.24
100001.27
100001.3
100001.33
100001.36
100001.39
100001.42
100001.45
100001.48
100001.51
100001.54
100001.57
100001.6
100001.62
100001.65
100001.67
100001.7
100001.72
100001.74
100001.76
100001.78
100001.79
100001.87
100001.76
100001.65
100001.55
100001.47
100001.39
100001.32
100001.26
100001.21
100001.16
100001.12
100001.09
100001.06
100001.04
100001.02
100001.01
100001
100001
100001
100001.01
100001.02
100001.03
100001.05
100001.07
100001.09
100001.12
100001.14
100001.17
100001.19
100001.22
100001.26
100001.29
100001.32
100001.36
100001.39
100001.43
100001.46
100001.49
100001.53
100001.56
100001.59
100001.62
100001.65
100001.67
100001.7
100001.73
100001.75
100001.77
100001.79
100001.81
100001.83
100001.84
100001.79
100001.68
100001.57
100001.47
100001.39
100001.31
100001.24
100001.18
100001.13
100001.09
100001.05
100001.02
100001
100000.98
100000.97
100000.96
100000.95
100000.96
100000.96
100000.97
100000.99
100001.01
100001.03
100001.05
100001.08
100001.11
100001.15
100001.18
100001.2
100001.24
100001.28
100001.32
100001.35
100001.39
100001.43
100001.46
100001.5
100001.54
100001.57
100001.61
100001.64
100001.67
100001.7
100001.73
100001.75
100001.78
100001.8
100001.82
100001.84
100001.86
100001.88
100001.89
100001.7
100001.59
100001.48
100001.38
100001.29
100001.22
100001.15
100001.1
100001.05
100001.01
100000.97
100000.95
100000.93
100000.91
100000.9
100000.9
100000.9
100000.91
100000.92
100000.94
100000.96
100000.98
100001.01
100001.04
100001.08
100001.11
100001.15
100001.19
100001.22
100001.26
100001.3
100001.35
100001.39
100001.43
100001.47
100001.51
100001.55
100001.59
100001.62
100001.66
100001.69
100001.72
100001.75
100001.78
100001.81
100001.83
100001.86
100001.88
100001.9
100001.91
100001.93
100001.94
100001.6
100001.49
100001.37
100001.27
100001.19
100001.12
100001.05
100001
100000.95
100000.91
100000.88
100000.86
100000.85
100000.84
100000.84
100000.84
100000.85
100000.86
100000.88
100000.9
100000.93
100000.96
100000.99
100001.03
100001.07
100001.11
100001.16
100001.2
100001.24
100001.29
100001.33
100001.38
100001.42
100001.47
100001.51
100001.55
100001.6
100001.64
100001.67
100001.71
100001.75
100001.78
100001.81
100001.84
100001.86
100001.89
100001.91
100001.93
100001.95
100001.97
100001.98
100002
100001.49
100001.37
100001.26
100001.16
100001.07
100001
100000.94
100000.89
100000.84
100000.81
100000.79
100000.77
100000.76
100000.76
100000.76
100000.77
100000.79
100000.81
100000.83
100000.86
100000.9
100000.93
100000.97
100001.02
100001.07
100001.12
100001.17
100001.21
100001.26
100001.31
100001.37
100001.42
100001.46
100001.51
100001.56
100001.6
100001.65
100001.69
100001.73
100001.77
100001.8
100001.84
100001.87
100001.9
100001.92
100001.95
100001.97
100001.99
100002.01
100002.02
100002.04
100002.05
100001.37
100001.25
100001.13
100001.03
100000.94
100000.87
100000.81
100000.77
100000.73
100000.7
100000.68
100000.67
100000.67
100000.68
100000.69
100000.7
100000.73
100000.75
100000.79
100000.82
100000.86
100000.91
100000.96
100001.01
100001.06
100001.12
100001.18
100001.23
100001.29
100001.34
100001.4
100001.46
100001.51
100001.56
100001.61
100001.65
100001.7
100001.74
100001.79
100001.82
100001.86
100001.9
100001.93
100001.96
100001.98
100002.01
100002.03
100002.05
100002.06
100002.08
100002.09
100002.1
100001.24
100001.11
100000.99
100000.89
100000.8
100000.73
100000.68
100000.63
100000.6
100000.58
100000.57
100000.57
100000.57
100000.59
100000.6
100000.63
100000.66
100000.7
100000.74
100000.78
100000.83
100000.88
100000.94
100001
100001.06
100001.13
100001.19
100001.26
100001.32
100001.38
100001.44
100001.5
100001.55
100001.61
100001.66
100001.71
100001.76
100001.8
100001.85
100001.89
100001.92
100001.96
100001.99
100002.02
100002.04
100002.07
100002.09
100002.1
100002.12
100002.13
100002.14
100002.15
100001.1
100000.96
100000.83
100000.73
100000.65
100000.58
100000.53
100000.49
100000.46
100000.45
100000.45
100000.45
100000.47
100000.49
100000.52
100000.55
100000.59
100000.64
100000.69
100000.74
100000.8
100000.86
100000.92
100000.99
100001.06
100001.13
100001.21
100001.28
100001.35
100001.42
100001.48
100001.54
100001.6
100001.66
100001.71
100001.77
100001.82
100001.86
100001.91
100001.95
100001.98
100002.02
100002.05
100002.08
100002.1
100002.13
100002.14
100002.16
100002.17
100002.18
100002.19
100002.2
100000.94
100000.79
100000.66
100000.56
100000.48
100000.41
100000.37
100000.33
100000.31
100000.31
100000.32
100000.33
100000.36
100000.39
100000.43
100000.47
100000.52
100000.58
100000.64
100000.7
100000.77
100000.84
100000.91
100000.98
100001.06
100001.14
100001.24
100001.32
100001.39
100001.46
100001.53
100001.59
100001.65
100001.71
100001.77
100001.83
100001.88
100001.92
100001.97
100002.01
100002.04
100002.09
100002.12
100002.14
100002.16
100002.19
100002.2
100002.22
100002.23
100002.24
100002.24
100002.25
100000.76
100000.61
100000.48
100000.37
100000.29
100000.23
100000.19
100000.17
100000.16
100000.16
100000.18
100000.2
100000.24
100000.29
100000.34
100000.39
100000.46
100000.52
100000.59
100000.67
100000.74
100000.82
100000.9
100000.98
100001.06
100001.16
100001.27
100001.36
100001.43
100001.51
100001.58
100001.65
100001.71
100001.77
100001.83
100001.89
100001.94
100001.99
100002.03
100002.07
100002.11
100002.15
100002.18
100002.21
100002.23
100002.24
100002.26
100002.27
100002.28
100002.29
100002.3
100002.3
100000.57
100000.41
100000.27
100000.17
100000.09
100000.04
100000
99999.986
99999.987
100000
100000.03
100000.07
100000.12
100000.18
100000.24
100000.31
100000.39
100000.46
100000.55
100000.63
100000.72
100000.81
100000.9
100000.99
100001.08
100001.18
100001.3
100001.39
100001.47
100001.55
100001.63
100001.7
100001.77
100001.83
100001.9
100001.95
100002.01
100002.06
100002.1
100002.14
100002.18
100002.22
100002.24
100002.27
100002.29
100002.3
100002.32
100002.33
100002.34
100002.34
100002.34
100002.35
100000.37
100000.2
100000.05
99999.951
99999.876
99999.826
99999.799
99999.793
99999.806
99999.835
99999.878
99999.931
99999.995
100000.07
100000.15
100000.23
100000.32
100000.41
100000.5
100000.6
100000.7
100000.8
100000.91
100001.01
100001.11
100001.21
100001.32
100001.42
100001.52
100001.6
100001.68
100001.76
100001.83
100001.9
100001.96
100002.02
100002.08
100002.12
100002.17
100002.21
100002.25
100002.28
100002.3
100002.33
100002.34
100002.36
100002.37
100002.38
100002.39
100002.39
100002.39
100002.39
100000.14
99999.965
99999.816
99999.712
99999.641
99999.599
99999.582
99999.589
99999.615
99999.659
99999.717
99999.787
99999.867
99999.954
100000.05
100000.15
100000.25
100000.36
100000.47
100000.58
100000.69
100000.8
100000.92
100001.03
100001.14
100001.25
100001.36
100001.46
100001.57
100001.65
100001.74
100001.82
100001.9
100001.97
100002.03
100002.09
100002.15
100002.19
100002.24
100002.28
100002.31
100002.34
100002.37
100002.39
100002.4
100002.42
100002.43
100002.44
100002.44
100002.44
100002.44
100002.44
99999.896
99999.709
99999.556
99999.453
99999.388
99999.354
99999.35
99999.371
99999.413
99999.474
99999.55
99999.638
99999.735
99999.841
99999.952
100000.07
100000.19
100000.31
100000.43
100000.56
100000.68
100000.81
100000.93
100001.06
100001.18
100001.29
100001.4
100001.52
100001.62
100001.71
100001.8
100001.88
100001.96
100002.04
100002.1
100002.16
100002.22
100002.27
100002.31
100002.35
100002.38
100002.41
100002.43
100002.45
100002.46
100002.47
100002.48
100002.49
100002.49
100002.49
100002.49
100002.48
99999.627
99999.43
99999.273
99999.173
99999.114
99999.092
99999.102
99999.139
99999.2
99999.281
99999.377
99999.485
99999.602
99999.727
99999.857
99999.992
100000.13
100000.27
100000.41
100000.55
100000.69
100000.82
100000.96
100001.09
100001.22
100001.34
100001.45
100001.57
100001.68
100001.78
100001.87
100001.96
100002.04
100002.11
100002.18
100002.24
100002.29
100002.34
100002.38
100002.42
100002.45
100002.48
100002.49
100002.51
100002.52
100002.53
100002.54
100002.54
100002.54
100002.54
100002.53
100002.52
99999.334
99999.126
99998.965
99998.869
99998.82
99998.811
99998.838
99998.895
99998.977
99999.08
99999.198
99999.329
99999.468
99999.614
99999.765
99999.919
100000.07
100000.23
100000.39
100000.54
100000.69
100000.85
100000.99
100001.13
100001.26
100001.39
100001.51
100001.63
100001.74
100001.85
100001.94
100002.03
100002.11
100002.19
100002.25
100002.31
100002.36
100002.41
100002.45
100002.49
100002.52
100002.54
100002.56
100002.57
100002.58
100002.58
100002.59
100002.59
100002.59
100002.58
100002.57
100002.56
99999.015
99998.795
99998.631
99998.54
99998.502
99998.51
99998.557
99998.637
99998.744
99998.871
99999.015
99999.171
99999.334
99999.504
99999.677
99999.852
100000.03
100000.2
100000.38
100000.55
100000.71
100000.87
100001.03
100001.18
100001.32
100001.45
100001.58
100001.7
100001.82
100001.92
100002.02
100002.11
100002.19
100002.26
100002.33
100002.39
100002.44
100002.49
100002.52
100002.56
100002.58
100002.61
100002.62
100002.63
100002.64
100002.64
100002.64
100002.64
100002.63
100002.63
100002.62
100002.6
99998.666
99998.434
99998.268
99998.184
99998.161
99998.188
99998.259
99998.365
99998.5
99998.656
99998.829
99999.012
99999.202
99999.397
99999.595
99999.792
99999.988
100000.18
100000.37
100000.56
100000.74
100000.91
100001.08
100001.23
100001.38
100001.52
100001.66
100001.78
100001.9
100002
100002.1
100002.19
100002.27
100002.35
100002.41
100002.47
100002.52
100002.56
100002.6
100002.63
100002.65
100002.67
100002.68
100002.69
100002.69
100002.69
100002.69
100002.69
100002.68
100002.67
100002.66
100002.64
99998.286
99998.041
99997.873
99997.799
99997.793
99997.844
99997.943
99998.081
99998.247
99998.436
99998.64
99998.854
99999.073
99999.296
99999.519
99999.74
99999.958
100000.17
100000.38
100000.58
100000.78
100000.96
100001.14
100001.29
100001.45
100001.6
100001.74
100001.86
100001.98
100002.09
100002.19
100002.28
100002.36
100002.43
100002.49
100002.55
100002.59
100002.64
100002.67
100002.7
100002.72
100002.74
100002.74
100002.75
100002.74
100002.74
100002.74
100002.73
100002.72
100002.71
100002.7
100002.68
99997.87
99997.611
99997.444
99997.382
99997.398
99997.478
99997.61
99997.783
99997.986
99998.211
99998.45
99998.698
99998.95
99999.202
99999.452
99999.699
99999.94
100000.17
100000.4
100000.62
100000.82
100001.02
100001.2
100001.37
100001.53
100001.68
100001.82
100001.95
100002.07
100002.18
100002.28
100002.37
100002.45
100002.52
100002.58
100002.63
100002.67
100002.71
100002.74
100002.77
100002.79
100002.8
100002.81
100002.81
100002.8
100002.8
100002.79
100002.78
100002.77
100002.75
100002.73
100002.72
99997.415
99997.141
99996.976
99996.932
99996.974
99997.088
99997.259
99997.473
99997.717
99997.983
99998.261
99998.546
99998.833
99999.117
99999.397
99999.669
99999.934
100000.19
100000.43
100000.66
100000.88
100001.09
100001.28
100001.45
100001.62
100001.78
100001.92
100002.05
100002.17
100002.28
100002.37
100002.46
100002.54
100002.6
100002.66
100002.71
100002.75
100002.79
100002.81
100002.84
100002.85
100002.86
100002.87
100002.86
100002.85
100002.85
100002.83
100002.82
100002.81
100002.79
100002.77
100002.75
99996.916
99996.627
99996.467
99996.444
99996.52
99996.674
99996.89
99997.151
99997.443
99997.754
99998.075
99998.401
99998.725
99999.043
99999.354
99999.654
99999.942
100000.22
100000.48
100000.72
100000.96
100001.17
100001.36
100001.55
100001.72
100001.88
100002.02
100002.15
100002.27
100002.38
100002.47
100002.55
100002.63
100002.69
100002.75
100002.79
100002.83
100002.86
100002.89
100002.9
100002.92
100002.92
100002.92
100002.92
100002.9
100002.9
100002.88
100002.86
100002.85
100002.83
100002.81
100002.78
99996.369
99996.064
99995.913
99995.917
99996.033
99996.235
99996.504
99996.819
99997.163
99997.525
99997.895
99998.264
99998.629
99998.983
99999.326
99999.654
99999.966
100000.26
100000.54
100000.8
100001.04
100001.26
100001.46
100001.65
100001.83
100001.98
100002.13
100002.26
100002.38
100002.48
100002.57
100002.65
100002.72
100002.78
100002.83
100002.88
100002.91
100002.94
100002.96
100002.97
100002.98
100002.98
100002.98
100002.97
100002.96
100002.94
100002.92
100002.91
100002.89
100002.86
100002.84
100002.81
99995.767
99995.446
99995.308
99995.348
99995.512
99995.771
99996.101
99996.477
99996.882
99997.301
99997.723
99998.14
99998.547
99998.94
99999.315
99999.672
100000.01
100000.32
100000.62
100000.89
100001.14
100001.36
100001.57
100001.76
100001.94
100002.1
100002.24
100002.37
100002.49
100002.59
100002.68
100002.75
100002.82
100002.87
100002.92
100002.96
100002.99
100003.01
100003.03
100003.04
100003.04
100003.04
100003.04
100003.02
100003.01
100002.99
100002.97
100002.95
100002.92
100002.9
100002.87
100002.84
99995.105
99994.768
99994.649
99994.732
99994.955
99995.282
99995.682
99996.129
99996.601
99997.082
99997.561
99998.03
99998.483
99998.915
99999.325
99999.709
100000.07
100000.4
100000.71
100000.99
100001.25
100001.48
100001.69
100001.89
100002.06
100002.22
100002.36
100002.49
100002.6
100002.7
100002.78
100002.85
100002.91
100002.97
100003.01
100003.04
100003.07
100003.09
100003.1
100003.1
100003.11
100003.1
100003.09
100003.08
100003.06
100003.03
100003.01
100002.99
100002.96
100002.93
100002.9
100002.87
99994.374
99994.021
99993.929
99994.067
99994.361
99994.768
99995.25
99995.777
99996.324
99996.874
99997.416
99997.939
99998.44
99998.912
99999.356
99999.768
100000.15
100000.5
100000.82
100001.11
100001.37
100001.61
100001.82
100002.02
100002.19
100002.35
100002.49
100002.61
100002.72
100002.81
100002.89
100002.95
100003.01
100003.06
100003.09
100003.12
100003.14
100003.16
100003.17
100003.17
100003.17
100003.16
100003.15
100003.13
100003.1
100003.08
100003.05
100003.02
100003
100002.97
100002.93
100002.9
99993.566
99993.198
99993.142
99993.349
99993.729
99994.23
99994.807
99995.424
99996.054
99996.681
99997.289
99997.871
99998.42
99998.934
99999.411
99999.851
100000.25
100000.62
100000.95
100001.24
100001.51
100001.75
100001.96
100002.16
100002.33
100002.48
100002.62
100002.73
100002.83
100002.92
100002.99
100003.06
100003.11
100003.15
100003.18
100003.2
100003.22
100003.23
100003.23
100003.23
100003.23
100003.21
100003.2
100003.17
100003.15
100003.12
100003.09
100003.06
100003.03
100003
100002.96
100002.93
99992.669
99992.288
99992.283
99992.575
99993.059
99993.67
99994.356
99995.074
99995.798
99996.507
99997.187
99997.829
99998.429
99998.984
99999.493
99999.957
100000.38
100000.76
100001.09
100001.39
100001.66
100001.9
100002.11
100002.3
100002.47
100002.62
100002.75
100002.86
100002.95
100003.03
100003.1
100003.16
100003.2
100003.24
100003.27
100003.28
100003.3
100003.3
100003.3
100003.29
100003.28
100003.27
100003.25
100003.22
100003.19
100003.16
100003.13
100003.09
100003.06
99991.672
99991.281
99991.343
99991.742
99992.351
99993.091
99993.901
99994.735
99995.561
99996.359
99997.115
99997.82
99998.47
99999.064
99999.603
100000.09
100000.53
100000.91
100001.25
100001.55
100001.82
100002.06
100002.27
100002.46
100002.62
100002.76
100002.88
100002.99
100003.07
100003.15
100003.21
100003.26
100003.3
100003.33
100003.35
100003.36
100003.37
100003.37
100003.36
100003.35
100003.34
100003.32
100003.3
100003.27
100003.24
100003.2
100003.17
100003.13
100003.09
99990.559
99990.163
99990.316
99990.846
99991.606
99992.497
99993.449
99994.412
99995.35
99996.244
99997.078
99997.847
99998.547
99999.178
99999.744
100000.25
100000.7
100001.09
100001.43
100001.73
100001.99
100002.23
100002.44
100002.62
100002.77
100002.9
100003.02
100003.11
100003.2
100003.26
100003.32
100003.36
100003.39
100003.42
100003.43
100003.44
100003.44
100003.44
100003.43
100003.41
100003.39
100003.37
100003.34
100003.31
100003.28
100003.24
100003.2
100003.16
100003.12
99989.313
99988.918
99989.193
99989.886
99990.826
99991.894
99993.008
99994.114
99995.175
99996.17
99997.085
99997.916
99998.663
99999.328
99999.916
100000.43
100000.89
100001.28
100001.62
100001.92
100002.18
100002.41
100002.61
100002.78
100002.93
100003.05
100003.15
100003.24
100003.32
100003.37
100003.42
100003.46
100003.48
100003.5
100003.51
100003.51
100003.51
100003.5
100003.49
100003.47
100003.44
100003.42
100003.39
100003.35
100003.32
100003.27
100003.23
100003.19
100003.15
99987.914
99987.529
99987.967
99988.861
99990.016
99991.289
99992.589
99993.853
99995.046
99996.146
99997.142
99998.033
99998.822
99999.516
100000.12
100000.65
100001.11
100001.5
100001.83
100002.13
100002.37
100002.6
100002.78
100002.94
100003.08
100003.19
100003.29
100003.37
100003.43
100003.48
100003.52
100003.55
100003.57
100003.58
100003.59
100003.58
100003.58
100003.56
100003.54
100003.52
100003.49
100003.46
100003.43
100003.39
100003.35
100003.31
100003.26
100003.22
100003.18
99986.338
99985.974
99986.628
99987.769
99989.183
99990.695
99992.204
99993.643
99994.976
99996.183
99997.258
99998.204
99999.029
99999.744
100000.36
100000.89
100001.34
100001.73
100002.06
100002.34
100002.58
100002.79
100002.96
100003.11
100003.23
100003.34
100003.42
100003.49
100003.55
100003.59
100003.62
100003.65
100003.66
100003.66
100003.66
100003.65
100003.64
100003.62
100003.6
100003.57
100003.54
100003.51
100003.47
100003.43
100003.39
100003.34
100003.29
100003.25
100003.2
99984.557
99984.227
99985.172
99986.615
99988.338
99990.127
99991.871
99993.501
99994.98
99996.293
99997.441
99998.433
99999.285
100000.01
100000.63
100001.15
100001.59
100001.97
100002.29
100002.56
100002.79
100002.98
100003.14
100003.28
100003.39
100003.48
100003.56
100003.62
100003.66
100003.7
100003.72
100003.74
100003.74
100003.74
100003.73
100003.72
100003.7
100003.68
100003.65
100003.62
100003.59
100003.55
100003.51
100003.47
100003.42
100003.37
100003.32
100003.27
100003.23
99982.542
99982.259
99983.591
99985.403
99987.495
99989.603
99991.61
99993.443
99995.07
99996.485
99997.699
99998.726
99999.593
100000.33
100000.93
100001.44
100001.87
100002.23
100002.54
100002.79
100003
100003.17
100003.32
100003.44
100003.54
100003.62
100003.69
100003.74
100003.77
100003.8
100003.81
100003.82
100003.82
100003.81
100003.8
100003.78
100003.76
100003.73
100003.7
100003.67
100003.63
100003.59
100003.55
100003.5
100003.45
100003.4
100003.35
100003.3
100003.25
99980.257
99980.034
99981.884
99984.143
99986.675
99989.145
99991.439
99993.484
99995.258
99996.769
99998.036
99999.086
99999.955
100000.68
100001.26
100001.75
100002.17
100002.51
100002.79
100003.02
100003.21
100003.37
100003.5
100003.6
100003.69
100003.76
100003.81
100003.85
100003.88
100003.9
100003.9
100003.9
100003.9
100003.88
100003.87
100003.84
100003.82
100003.78
100003.75
100003.71
100003.67
100003.63
100003.58
100003.53
100003.48
100003.43
100003.38
100003.32
100003.27
99977.666
99977.509
99980.053
99982.85
99985.899
99988.777
99991.378
99993.64
99995.555
99997.148
99998.454
99999.512
100000.37
100001.06
100001.63
100002.09
100002.47
100002.79
100003.04
100003.25
100003.42
100003.56
100003.67
100003.76
100003.83
100003.89
100003.93
100003.96
100003.98
100003.99
100003.99
100003.98
100003.97
100003.95
100003.93
100003.9
100003.87
100003.83
100003.79
100003.75
100003.71
100003.66
100003.62
100003.56
100003.51
100003.45
100003.4
100003.35
100003.29
99974.731
99974.633
99978.105
99981.543
99985.195
99988.523
99991.449
99993.925
99995.969
99997.627
99998.955
100000
100000.83
100001.49
100002.02
100002.44
100002.79
100003.07
100003.3
100003.48
100003.63
100003.75
100003.84
100003.92
100003.97
100004.02
100004.05
100004.07
100004.08
100004.08
100004.07
100004.06
100004.04
100004.01
100003.99
100003.95
100003.92
100003.88
100003.84
100003.79
100003.75
100003.7
100003.65
100003.59
100003.54
100003.48
100003.42
100003.37
100003.31
99971.416
99971.348
99976.055
99980.248
99984.596
99988.414
99991.674
99994.355
99996.506
99998.206
99999.536
100000.55
100001.33
100001.95
100002.43
100002.81
100003.12
100003.36
100003.55
100003.71
100003.83
100003.93
100004
100004.06
100004.11
100004.14
100004.16
100004.17
100004.17
100004.16
100004.15
100004.13
100004.1
100004.07
100004.04
100004
100003.96
100003.92
100003.87
100003.83
100003.78
100003.73
100003.68
100003.62
100003.56
100003.5
100003.44
100003.39
100003.33
99967.691
99967.585
99973.929
99979.001
99984.142
99988.483
99992.076
99994.94
99997.171
99998.885
100000.19
100001.16
100001.88
100002.43
100002.85
100003.18
100003.44
100003.65
100003.81
100003.93
100004.03
100004.1
100004.16
100004.2
100004.23
100004.25
100004.26
100004.26
100004.25
100004.24
100004.22
100004.19
100004.16
100004.13
100004.09
100004.05
100004
100003.96
100003.91
100003.86
100003.81
100003.76
100003.7
100003.64
100003.58
100003.52
100003.46
100003.4
100003.34
99963.54
99963.262
99971.763
99977.846
99983.878
99988.764
99992.674
99995.69
99997.964
99999.658
100000.91
100001.81
100002.46
100002.94
100003.29
100003.56
100003.77
100003.93
100004.06
100004.15
100004.22
100004.27
100004.31
100004.34
100004.35
100004.36
100004.36
100004.35
100004.33
100004.31
100004.28
100004.25
100004.22
100004.18
100004.14
100004.09
100004.04
100003.99
100003.94
100003.89
100003.84
100003.78
100003.73
100003.67
99958.955
99958.283
99969.608
99976.846
99983.861
99989.294
99993.487
99996.608
99998.88
100000.52
100001.69
100002.49
100003.05
100003.45
100003.73
100003.94
100004.09
100004.21
100004.3
100004.36
100004.4
100004.43
100004.45
100004.46
100004.46
100004.46
100004.45
100004.43
100004.41
100004.38
100004.34
100004.31
100004.27
100004.22
100004.18
100004.13
100004.08
100004.03
100003.97
100003.92
100003.86
100003.81
100003.75
100003.69
99953.915
99952.535
99967.539
99976.083
99984.151
99990.108
99994.527
99997.693
99999.909
100001.45
100002.51
100003.21
100003.66
100003.96
100004.16
100004.31
100004.4
100004.48
100004.53
100004.56
100004.57
100004.58
100004.58
100004.58
100004.57
100004.55
100004.53
100004.5
100004.47
100004.44
100004.4
100004.36
100004.31
100004.27
100004.22
100004.17
100004.11
100004.06
100004
100003.95
100003.89
100003.83
100003.77
100003.71
99948.388
99945.917
99965.664
99975.663
99984.816
99991.235
99995.799
99998.937
100001.04
100002.44
100003.37
100003.93
100004.27
100004.47
100004.59
100004.67
100004.71
100004.74
100004.75
100004.75
100004.73
100004.71
100004.7
100004.68
100004.66
100004.64
100004.61
100004.57
100004.53
100004.49
100004.45
100004.4
100004.35
100004.3
100004.25
100004.2
100004.14
100004.09
100004.03
100003.97
100003.91
100003.85
100003.79
100003.72
99942.649
99938.451
99964.128
99975.716
99985.919
99992.698
99997.296
100000.32
100002.24
100003.47
100004.24
100004.65
100004.86
100004.97
100005
100005.02
100005
100004.98
100004.96
100004.93
100004.88
100004.84
100004.8
100004.78
100004.74
100004.71
100004.67
100004.63
100004.59
100004.54
100004.5
100004.44
100004.39
100004.34
100004.28
100004.23
100004.17
100004.11
100004.05
100003.99
100003.93
100003.87
100003.81
100003.74
99937.849
99930.295
99963.079
99976.384
99987.515
99994.501
99999
100001.83
100003.5
100004.51
100005.12
100005.37
100005.44
100005.44
100005.38
100005.34
100005.27
100005.21
100005.15
100005.09
100005.01
100004.95
100004.9
100004.86
100004.82
100004.78
100004.73
100004.69
100004.64
100004.59
100004.54
100004.48
100004.43
100004.37
100004.31
100004.25
100004.19
100004.13
100004.07
100004.01
100003.95
100003.88
100003.82
100003.75
99933.312
99921.096
99962.629
99977.825
99989.642
99996.625
100000.87
100003.41
100004.78
100005.55
100005.96
100006.06
100005.98
100005.89
100005.75
100005.63
100005.51
100005.42
100005.33
100005.24
100005.12
100005.05
100004.99
100004.94
100004.89
100004.84
100004.79
100004.74
100004.68
100004.63
100004.57
100004.51
100004.45
100004.39
100004.33
100004.27
100004.21
100004.15
100004.09
100004.03
100003.96
100003.9
100003.84
100003.77
99913.065
99909.137
99963.138
99980.294
99992.344
99999.031
100002.86
100005.02
100006.06
100006.55
100006.76
100006.68
100006.51
100006.31
100006.09
100005.9
100005.72
100005.6
100005.49
100005.39
100005.22
100005.13
100005.06
100005
100004.94
100004.89
100004.83
100004.78
100004.72
100004.66
100004.6
100004.54
100004.48
100004.42
100004.36
100004.29
100004.23
100004.17
100004.1
100004.04
100003.98
100003.91
100003.85
100003.78
99837.252
99895.867
99966.017
99984.133
99995.686
100001.69
100004.92
100006.63
100007.32
100007.49
100007.5
100007.28
100006.99
100006.69
100006.4
100006.15
100005.92
100005.75
100005.63
100005.52
100005.31
100005.2
100005.12
100005.05
100004.99
100004.93
100004.87
100004.81