/*--------------------------------*- C++ -*----------------------------------*\
| =========                 |                                                 |
| \\      /  F ield         | OpenFOAM: The Open Source CFD Toolbox           |
|  \\    /   O peration     | Version:  2312                                  |
|   \\  /    A nd           | Website:  www.openfoam.com                      |
|    \\/     M anipulation  |                                                 |
\*---------------------------------------------------------------------------*/
FoamFile
{
    version     2.0;
    format      ascii;
    arch        "LSB;label=32;scalar=64";
    class       surfaceScalarField;
    location    "0.01";
    object      phi;
}
// * * * * * * * * * * * * * * * * * * * * * * * * * * * * * * * * * * * * * //

dimensions      [1 0 -1 0 0 0 0];

oriented        oriented;

internalField   nonuniform List<scalar> 
6325
(
4.4654742e-07
-1.0795344e-08
4.4000941e-07
-3.0571138e-08
4.3215555e-07
-4.8147057e-08
4.2336714e-07
-6.3794036e-08
4.1386185e-07
-7.7872071e-08
4.0378398e-07
-9.0602439e-08
3.9324085e-07
-1.0214168e-07
3.8232138e-07
-1.1261086e-07
3.7110503e-07
-1.2210733e-07
3.5966566e-07
-1.307118e-07
3.4807295e-07
-1.3849329e-07
3.363931e-07
-1.4551253e-07
3.2468884e-07
-1.5182436e-07
3.1301917e-07
-1.5747935e-07
3.0143916e-07
-1.6252481e-07
2.8999971e-07
-1.6700532e-07
2.7874733e-07
-1.7096305e-07
2.6772391e-07
-1.7443788e-07
2.5696674e-07
-1.7746745e-07
2.4650849e-07
-1.8008715e-07
2.3637749e-07
-1.8233008e-07
2.2659806e-07
-1.842271e-07
2.1719074e-07
-1.8580667e-07
2.0817253e-07
-1.8709483e-07
1.995568e-07
-1.8811496e-07
1.9135369e-07
-1.8888769e-07
1.8357124e-07
-1.894316e-07
1.7620177e-07
-1.8979456e-07
1.6919047e-07
-1.8994584e-07
1.6259146e-07
-1.89916e-07
1.5639759e-07
-1.8972882e-07
1.505941e-07
-1.8941394e-07
1.4511932e-07
-1.8895098e-07
1.4001535e-07
-1.8835019e-07
1.3526641e-07
-1.8763306e-07
1.3085314e-07
-1.8682042e-07
1.2671624e-07
-1.8590658e-07
1.2288129e-07
-1.8488938e-07
1.1932705e-07
-1.8378949e-07
1.1603446e-07
-1.8261273e-07
1.129854e-07
-1.8136452e-07
1.1016232e-07
-1.8005038e-07
1.0754808e-07
-1.7867555e-07
1.0512592e-07
-1.7724491e-07
1.0287942e-07
-1.7576302e-07
1.0079256e-07
-1.7423413e-07
9.88498e-08
-1.7266219e-07
9.7036224e-08
-1.7105091e-07
9.5335593e-08
-1.6940382e-07
9.3737626e-08
-1.6772351e-07
9.222739e-08
-1.6601414e-07
-1.6427816e-07
4.3623013e-07
-8.7113394e-09
4.3107164e-07
-2.5455928e-08
4.2396305e-07
-4.1103405e-08
4.1560019e-07
-5.5511841e-08
4.0634996e-07
-6.8710818e-08
3.9643667e-07
-8.0777344e-08
3.8601384e-07
-9.1795438e-08
3.7519665e-07
-1.018461e-07
3.6407907e-07
-1.1100389e-07
3.5274285e-07
-1.1933584e-07
3.4126195e-07
-1.2690193e-07
3.2970477e-07
-1.3375619e-07
3.1813504e-07
-1.399479e-07
3.0661203e-07
-1.4552269e-07
2.9519065e-07
-1.5052317e-07
2.8392133e-07
-1.5498943e-07
2.7284989e-07
-1.5895929e-07
2.620174e-07
-1.6246838e-07
2.5146019e-07
-1.655502e-07
2.4120993e-07
-1.6823615e-07
2.3129382e-07
-1.7055551e-07
2.2173492e-07
-1.7253546e-07
2.1255243e-07
-1.7420106e-07
2.0376188e-07
-1.7557524e-07
1.9537533e-07
-1.7667882e-07
1.8740147e-07
-1.7753054e-07
1.7984566e-07
-1.7814749e-07
1.7269842e-07
-1.785749e-07
1.6589671e-07
-1.7878247e-07
1.5950318e-07
-1.787967e-07
1.5351394e-07
-1.7864509e-07
1.4791853e-07
-1.7835551e-07
1.4263932e-07
-1.7790479e-07
1.3772329e-07
-1.7729522e-07
1.3315323e-07
-1.765537e-07
1.289036e-07
-1.7570381e-07
1.2493693e-07
-1.7474167e-07
1.212499e-07
-1.7366205e-07
1.1783549e-07
-1.7248372e-07
1.1467324e-07
-1.7121585e-07
1.117448e-07
-1.6986516e-07
1.0903268e-07
-1.6843799e-07
1.0651988e-07
-1.6694043e-07
1.0418987e-07
-1.6537832e-07
1.0202649e-07
-1.6375722e-07
1.000141e-07
-1.6208244e-07
9.8137559e-08
-1.6035902e-07
9.6382096e-08
-1.5859177e-07
9.4733284e-08
-1.5678506e-07
9.3178993e-08
-1.5494268e-07
9.1706527e-08
-1.5306979e-07
-1.5116984e-07
4.2498593e-07
-7.1900997e-09
4.2089125e-07
-2.1436983e-08
4.1483228e-07
-3.5162773e-08
4.0731227e-07
-4.8147392e-08
3.9870161e-07
-6.0285969e-08
3.8926672e-07
-7.1549827e-08
3.7920463e-07
-8.1951755e-08
3.6866689e-07
-9.1525569e-08
3.5777529e-07
-1.0031437e-07
3.4663172e-07
-1.0836389e-07
3.3532443e-07
-1.1571911e-07
3.2393185e-07
-1.2242303e-07
3.1252454e-07
-1.285163e-07
3.0116648e-07
-1.3403732e-07
2.8991566e-07
-1.3902245e-07
2.7882444e-07
-1.435061e-07
2.6793971e-07
-1.4752083e-07
2.5730302e-07
-1.5109736e-07
2.4695068e-07
-1.5426457e-07
2.36914e-07
-1.5704949e-07
2.2721954e-07
-1.5947729e-07
2.1788944e-07
-1.6157133e-07
2.0894175e-07
-1.6335315e-07
2.0039064e-07
-1.6484253e-07
1.9224655e-07
-1.6605757e-07
1.8451624e-07
-1.670148e-07
1.7720274e-07
-1.6772936e-07
1.7029491e-07
-1.6824412e-07
1.6371788e-07
-1.68529e-07
1.5753486e-07
-1.6860371e-07
1.5174677e-07
-1.6850286e-07
1.4639012e-07
-1.6825994e-07
1.4133435e-07
-1.6783794e-07
1.3662067e-07
-1.6723029e-07
1.3223949e-07
-1.6647914e-07
1.2816513e-07
-1.6560084e-07
1.2438091e-07
-1.6459966e-07
1.2085548e-07
-1.634696e-07
1.1759035e-07
-1.6222378e-07
1.1456588e-07
-1.6087441e-07
1.1176407e-07
-1.5942989e-07
1.091677e-07
-1.5789761e-07
1.0675998e-07
-1.5628462e-07
1.0452454e-07
-1.5459778e-07
1.0244556e-07
-1.5284373e-07
1.0050774e-07
-1.5102892e-07
9.8696392e-08
-1.4915949e-07
9.6997477e-08
-1.4724135e-07
9.5397549e-08
-1.452801e-07
9.3882757e-08
-1.4328077e-07
9.2444045e-08
-1.4124878e-07
-1.3918933e-07
4.1383236e-07
-6.0082056e-09
4.1043458e-07
-1.8157003e-08
4.0521021e-07
-3.0126183e-08
3.9850115e-07
-4.1691124e-08
3.9060843e-07
-5.2704402e-08
3.8178212e-07
-6.3084552e-08
3.7222679e-07
-7.2796986e-08
3.621106e-07
-8.183729e-08
3.5157369e-07
-9.0218872e-08
3.4073488e-07
-9.7964675e-08
3.2969685e-07
-1.051021e-07
3.1854959e-07
-1.1166028e-07
3.0737272e-07
-1.1766868e-07
2.9623711e-07
-1.2315634e-07
2.8520586e-07
-1.2815153e-07
2.7433502e-07
-1.3268157e-07
2.6367401e-07
-1.3677257e-07
2.5326598e-07
-1.4044941e-07
2.4314815e-07
-1.437356e-07
2.3335217e-07
-1.4665323e-07
2.2390448e-07
-1.4922296e-07
2.1482669e-07
-1.5146402e-07
2.0613599e-07
-1.5339427e-07
1.9784543e-07
-1.5503023e-07
1.8996412e-07
-1.5638728e-07
1.8249733e-07
-1.5747966e-07
1.7544634e-07
-1.5832062e-07
1.6879864e-07
-1.5895184e-07
1.6246404e-07
-1.5934681e-07
1.5650098e-07
-1.5951929e-07
1.5088309e-07
-1.594871e-07
1.4580298e-07
-1.5924775e-07
1.4100612e-07
-1.5886245e-07
1.3650152e-07
-1.5828967e-07
1.3231187e-07
-1.5755089e-07
1.2842229e-07
-1.5666025e-07
1.2482158e-07
-1.5563623e-07
1.214633e-07
-1.5447324e-07
1.1835064e-07
-1.5317009e-07
1.1546496e-07
-1.5174915e-07
1.1278947e-07
-1.5022061e-07
1.1030735e-07
-1.4859243e-07
1.0800203e-07
-1.4687258e-07
1.0585745e-07
-1.4506905e-07
1.0385813e-07
-1.4318964e-07
1.0198927e-07
-1.4124196e-07
1.0023672e-07
-1.3923334e-07
9.8587055e-08
-1.3717087e-07
9.7027633e-08
-1.3506134e-07
9.5545003e-08
-1.3291117e-07
9.4130775e-08
-1.307259e-07
-1.285127e-07
4.028649e-07
-5.0450345e-09
3.9994767e-07
-1.5405539e-08
3.9535406e-07
-2.5799544e-08
3.8932479e-07
-3.6025312e-08
3.8209558e-07
-4.5928593e-08
3.7388263e-07
-5.5406451e-08
3.6487792e-07
-6.4398136e-08
3.5524955e-07
-7.2873497e-08
3.4514415e-07
-8.0822746e-08
3.3468982e-07
-8.8248739e-08
3.2399905e-07
-9.5161842e-08
3.13171e-07
-1.0157671e-07
3.0229332e-07
-1.0751041e-07
2.9144352e-07
-1.1298129e-07
2.8069005e-07
-1.1800823e-07
2.7009303e-07
-1.2261016e-07
2.5970488e-07
-1.268057e-07
2.4957083e-07
-1.3061295e-07
2.397294e-07
-1.3404927e-07
2.3021287e-07
-1.3713119e-07
2.2104774e-07
-1.3987434e-07
2.1225524e-07
-1.4229346e-07
2.038517e-07
-1.4440239e-07
1.9584891e-07
-1.4621417e-07
1.8825434e-07
-1.4774112e-07
1.810714e-07
-1.4899488e-07
1.7429964e-07
-1.4998644e-07
1.6792703e-07
-1.5075569e-07
1.6185214e-07
-1.5127554e-07
1.5615788e-07
-1.515508e-07
1.508417e-07
-1.5160377e-07
1.4594249e-07
-1.5144396e-07
1.4137329e-07
-1.5110798e-07
1.3709009e-07
-1.5056904e-07
1.3310301e-07
-1.4984843e-07
1.2940353e-07
-1.4896051e-07
1.2598808e-07
-1.4792347e-07
1.2281569e-07
-1.4673085e-07
1.1985454e-07
-1.4538335e-07
1.171055e-07
-1.4390223e-07
1.1455312e-07
-1.422999e-07
1.1218102e-07
-1.4058525e-07
1.0997287e-07
-1.3876738e-07
1.0791295e-07
-1.3685554e-07
1.0598625e-07
-1.3485879e-07
1.0417852e-07
-1.3278597e-07
1.0247628e-07
-1.3064567e-07
1.0086678e-07
-1.2844618e-07
9.933793e-08
-1.2619545e-07
9.7878665e-08
-1.2390102e-07
9.6478162e-08
-1.2156986e-07
-1.1920962e-07
3.9212639e-07
-4.2299086e-09
3.8954543e-07
-1.3040946e-08
3.8542454e-07
-2.2029098e-08
3.7994045e-07
-3.1021085e-08
3.7327985e-07
-3.987061e-08
3.6562645e-07
-4.8469675e-08
3.5715376e-07
-5.674532e-08
3.4802173e-07
-6.4651903e-08
3.3837559e-07
-7.2163228e-08
3.283462e-07
-7.9266122e-08
3.180509e-07
-8.595598e-08
3.0759443e-07
-9.2233768e-08
2.9706997e-07
-9.8104156e-08
2.8656007e-07
-1.0357427e-07
2.7613745e-07
-1.0865287e-07
2.6586568e-07
-1.1334969e-07
2.5579977e-07
-1.1767507e-07
2.4598677e-07
-1.2163956e-07
2.3646634e-07
-1.2525371e-07
2.2727124e-07
-1.2852792e-07
2.1842799e-07
-1.3147233e-07
2.0995729e-07
-1.3409678e-07
2.0187456e-07
-1.3641082e-07
1.9419037e-07
-1.3842374e-07
1.8691081e-07
-1.4014459e-07
1.8003798e-07
-1.4158219e-07
1.7357059e-07
-1.4274506e-07
1.674978e-07
-1.4367134e-07
1.6170744e-07
-1.4433362e-07
1.5629928e-07
-1.4473093e-07
1.5126571e-07
-1.4489016e-07
1.4659859e-07
-1.4482043e-07
1.4226113e-07
-1.445544e-07
1.3820054e-07
-1.4406705e-07
1.3441761e-07
-1.4338024e-07
1.3089712e-07
-1.4250229e-07
1.2768083e-07
-1.4144022e-07
1.2468882e-07
-1.4022474e-07
1.2187845e-07
-1.3885e-07
1.1926269e-07
-1.373201e-07
1.1682852e-07
-1.3565355e-07
1.1456027e-07
-1.3386109e-07
1.1244205e-07
-1.3195343e-07
1.1045862e-07
-1.2994121e-07
1.0859557e-07
-1.2783486e-07
1.0683938e-07
-1.2564453e-07
1.0517735e-07
-1.2338009e-07
1.0359756e-07
-1.2105106e-07
1.0208887e-07
-1.1866658e-07
1.0064113e-07
-1.1623547e-07
9.9243827e-08
-1.1376615e-07
-1.1126601e-07
3.8163778e-07
-3.5202527e-09
3.7929618e-07
-1.0966295e-08
3.755288e-07
-1.8695514e-08
3.7047317e-07
-2.6561254e-08
3.6428214e-07
-3.4430381e-08
3.5711371e-07
-4.2197848e-08
3.4912393e-07
-4.9786648e-08
3.4046232e-07
-5.714263e-08
3.3126906e-07
-6.4228533e-08
3.2167376e-07
-7.101894e-08
3.1179485e-07
-7.7496645e-08
3.0173947e-07
-8.3650274e-08
2.9160376e-07
-8.9472677e-08
2.8147327e-07
-9.4959848e-08
2.7142341e-07
-1.0011015e-07
2.6151994e-07
-1.0492375e-07
2.5181955e-07
-1.0940214e-07
2.4237036e-07
-1.1354782e-07
2.3321255e-07
-1.1736406e-07
2.2437895e-07
-1.2085468e-07
2.1589563e-07
-1.2402396e-07
2.0778252e-07
-1.2687655e-07
2.0005393e-07
-1.2941746e-07
1.9271912e-07
-1.3165204e-07
1.8578284e-07
-1.3358593e-07
1.7924605e-07
-1.3522505e-07
1.7310685e-07
-1.3657547e-07
1.6735548e-07
-1.3767414e-07
1.6186869e-07
-1.3849327e-07
1.5675534e-07
-1.3902656e-07
1.5200131e-07
-1.3930358e-07
1.4759022e-07
-1.3933261e-07
1.4349404e-07
-1.3914543e-07
1.3965994e-07
-1.3871608e-07
1.3609542e-07
-1.3806568e-07
1.3278622e-07
-1.3720599e-07
1.2973507e-07
-1.3614765e-07
1.2690028e-07
-1.349173e-07
1.242402e-07
-1.3351685e-07
1.2175232e-07
-1.3194279e-07
1.1943151e-07
-1.3021641e-07
1.1726067e-07
-1.2835153e-07
1.1522428e-07
-1.2636004e-07
1.1330798e-07
-1.2425379e-07
1.1149837e-07
-1.2204449e-07
1.0978289e-07
-1.1974354e-07
1.0814983e-07
-1.1736204e-07
1.0658825e-07
-1.1491076e-07
1.0508796e-07
-1.1240006e-07
1.0363937e-07
-1.0983982e-07
1.0223495e-07
-1.0723935e-07
-1.0460778e-07
3.7140668e-07
-2.888276e-09
3.6923753e-07
-9.1126298e-09
3.6573447e-07
-1.5706066e-08
3.6101191e-07
-2.2545242e-08
3.5520081e-07
-2.9511211e-08
3.4844083e-07
-3.650533e-08
3.4087411e-07
-4.3450873e-08
3.3264047e-07
-5.0289447e-08
3.2387416e-07
-5.6976363e-08
3.147017e-07
-6.347679e-08
3.0524034e-07
-6.9762991e-08
2.9559738e-07
-7.5812563e-08
2.8586981e-07
-8.1607286e-08
2.7614425e-07
-8.713234e-08
2.6649718e-07
-9.237574e-08
2.5699518e-07
-9.7327884e-08
2.4769538e-07
-1.0198119e-07
2.3864599e-07
-1.0632979e-07
2.2988688e-07
-1.1036934e-07
2.214502e-07
-1.1409681e-07
2.1336104e-07
-1.1751039e-07
2.0563805e-07
-1.2060933e-07
1.982941e-07
-1.2339398e-07
1.9133692e-07
-1.2586564e-07
1.8476978e-07
-1.2802653e-07
1.7859234e-07
-1.298797e-07
1.7280188e-07
-1.314289e-07
1.673891e-07
-1.3271041e-07
1.6222135e-07
-1.3369555e-07
1.5741315e-07
-1.3437315e-07
1.5294659e-07
-1.3477457e-07
1.4880286e-07
-1.3490777e-07
1.4495598e-07
-1.348045e-07
1.4135186e-07
-1.3443801e-07
1.3800353e-07
-1.3382934e-07
1.3489357e-07
-1.3299396e-07
1.3200937e-07
-1.3194484e-07
1.293217e-07
-1.3070159e-07
1.2681132e-07
-1.2927478e-07
1.2444475e-07
-1.2766321e-07
1.222281e-07
-1.258821e-07
1.2014426e-07
-1.2394923e-07
1.1817859e-07
-1.2187863e-07
1.1631787e-07
-1.1968356e-07
1.1454982e-07
-1.1737692e-07
1.1286295e-07
-1.1497135e-07
1.112466e-07
-1.1247916e-07
1.096909e-07
-1.0991231e-07
1.0818676e-07
-1.0728234e-07
1.067259e-07
-1.0460027e-07
1.053012e-07
-1.0187663e-07
-9.912159e-08
3.6143395e-07
-2.3142143e-09
3.5938911e-07
-7.4283132e-09
3.5608292e-07
-1.2987356e-08
3.516171e-07
-1.8888138e-08
3.4610945e-07
-2.5025271e-08
3.3968769e-07
-3.1307603e-08
3.3248405e-07
-3.7660687e-08
3.2463076e-07
-4.4024158e-08
3.1625673e-07
-5.0348103e-08
3.0748488e-07
-5.6590109e-08
2.9843027e-07
-6.2713345e-08
2.8919896e-07
-6.8685392e-08
2.7988723e-07
-7.4477596e-08
2.7058129e-07
-8.0064667e-08
2.6135719e-07
-8.5424388e-08
2.5228096e-07
-9.0537365e-08
2.4340898e-07
-9.538681e-08
2.3478846e-07
-9.995835e-08
2.2645797e-07
-1.0423986e-07
2.1844818e-07
-1.0822131e-07
2.1078247e-07
-1.1189468e-07
2.0347767e-07
-1.1525379e-07
1.9654476e-07
-1.1829427e-07
1.8998956e-07
-1.2101341e-07
1.8381357e-07
-1.2341008e-07
1.7801488e-07
-1.2548456e-07
1.7258951e-07
-1.2723852e-07
1.6752797e-07
-1.2870799e-07
1.6269164e-07
-1.2986262e-07
1.5819724e-07
-1.3068747e-07
1.5402478e-07
-1.3121517e-07
1.5015414e-07
-1.3145366e-07
1.465603e-07
-1.3143555e-07
1.4318684e-07
-1.3113305e-07
1.4004929e-07
-1.3056729e-07
1.3712762e-07
-1.2975608e-07
1.344048e-07
-1.2871358e-07
1.3186157e-07
-1.2745569e-07
1.2948971e-07
-1.2600437e-07
1.2723659e-07
-1.2436205e-07
1.2511381e-07
-1.2252652e-07
1.2310508e-07
-1.2052738e-07
1.2119774e-07
-1.1838075e-07
1.1937994e-07
-1.1610062e-07
1.1764062e-07
-1.1370099e-07
1.1596947e-07
-1.1119569e-07
1.1435697e-07
-1.0859826e-07
1.1279441e-07
-1.0592183e-07
1.1127384e-07
-1.0317907e-07
1.0978813e-07
-1.0038211e-07
1.083309e-07
-9.7542526e-08
-9.4671369e-08
3.517173e-07
-1.7831314e-09
3.4976091e-07
-5.8730065e-09
3.4659972e-07
-1.0479977e-08
3.4232974e-07
-1.5518281e-08
3.3706196e-07
-2.0894863e-08
3.3091729e-07
-2.6525959e-08
3.2402177e-07
-3.2340012e-08
3.1650246e-07
-3.8275618e-08
3.0848417e-07
-4.4278683e-08
3.0008654e-07
-5.0300203e-08
2.9142215e-07
-5.6295035e-08
2.8259501e-07
-6.2221329e-08
2.7369973e-07
-6.8040383e-08
2.6482088e-07
-7.3716654e-08
2.5603287e-07
-7.9217779e-08
2.4739998e-07
-8.4514579e-08
2.3897668e-07
-8.9581018e-08
2.3080806e-07
-9.4394148e-08
2.2293046e-07
-9.8934018e-08
2.1537218e-07
-1.0318359e-07
2.0815417e-07
-1.0712863e-07
2.012908e-07
-1.1075758e-07
1.9479065e-07
-1.1406146e-07
1.8865724e-07
-1.1703368e-07
1.8288995e-07
-1.1966991e-07
1.7748492e-07
-1.2196787e-07
1.7243645e-07
-1.2392738e-07
1.6773425e-07
-1.2558462e-07
1.6323804e-07
-1.2690666e-07
1.590627e-07
-1.2787648e-07
1.5518722e-07
-1.2852755e-07
1.5159093e-07
-1.2886809e-07
1.4824928e-07
-1.2893208e-07
1.4510394e-07
-1.2869031e-07
1.4217116e-07
-1.2816463e-07
1.3942899e-07
-1.2737456e-07
1.3685857e-07
-1.2633516e-07
1.3444954e-07
-1.250642e-07
1.3219305e-07
-1.2358251e-07
1.3005788e-07
-1.2189758e-07
1.2801419e-07
-1.2001266e-07
1.260667e-07
-1.1794997e-07
1.2420373e-07
-1.1572948e-07
1.22415e-07
-1.1336689e-07
1.2069074e-07
-1.1087749e-07
1.1902182e-07
-1.0827634e-07
1.1739992e-07
-1.0557818e-07
1.1581749e-07
-1.0279732e-07
1.1426781e-07
-9.9947539e-08
1.1274489e-07
-9.7042031e-08
1.1124347e-07
-9.4093345e-08
-9.1113478e-08
3.422528e-07
-1.2832339e-09
3.4035736e-07
-4.4141846e-09
3.3730064e-07
-8.1349381e-09
3.331778e-07
-1.237497e-08
3.280977e-07
-1.7052171e-08
3.2217849e-07
-2.2089445e-08
3.1554323e-07
-2.741788e-08
3.0831615e-07
-3.2975102e-08
3.0061931e-07
-3.8703022e-08
2.925698e-07
-4.4546298e-08
2.8427776e-07
-5.045168e-08
2.7584485e-07
-5.6368036e-08
2.6736325e-07
-6.2246702e-08
2.5891503e-07
-6.8041901e-08
2.5057195e-07
-7.3711116e-08
2.4239545e-07
-7.921535e-08
2.3443702e-07
-8.4519299e-08
2.2673864e-07
-8.9591434e-08
2.1933348e-07
-9.4404016e-08
2.122466e-07
-9.8933062e-08
2.0549577e-07
-1.0315825e-07
1.9909232e-07
-1.0706283e-07
1.930419e-07
-1.1063338e-07
1.8734536e-07
-1.1385972e-07
1.8199957e-07
-1.1673458e-07
1.7699843e-07
-1.1925339e-07
1.723341e-07
-1.2141432e-07
1.6799488e-07
-1.2325407e-07
1.6384312e-07
-1.2473621e-07
1.5998789e-07
-1.258438e-07
1.5640805e-07
-1.2661083e-07
1.5308295e-07
-1.2704612e-07
1.499882e-07
-1.2718497e-07
1.4706462e-07
-1.2699643e-07
1.443282e-07
-1.2650457e-07
1.4175649e-07
-1.2573106e-07
1.3932938e-07
-1.2469136e-07
1.3703716e-07
-1.234e-07
1.3488864e-07
-1.2187267e-07
1.3284821e-07
-1.2014134e-07
1.3087249e-07
-1.1821074e-07
1.289725e-07
-1.160836e-07
1.2713969e-07
-1.1378946e-07
1.2536591e-07
-1.1134566e-07
1.2364276e-07
-1.0876849e-07
1.2196237e-07
-1.0607425e-07
1.2031768e-07
-1.0327895e-07
1.1870241e-07
-1.0039803e-07
1.1711111e-07
-9.7446349e-08
1.1553898e-07
-9.4438086e-08
1.139819e-07
-9.1386719e-08
-8.8305048e-08
3.3303566e-07
-8.0490972e-10
3.3117959e-07
-3.0250154e-09
3.2819523e-07
-5.9112871e-09
3.2418044e-07
-9.4066485e-09
3.1924555e-07
-1.3438531e-08
3.1350913e-07
-1.7935475e-08
3.0709397e-07
-2.2830412e-08
3.0012349e-07
-2.8059441e-08
2.9271834e-07
-3.3560054e-08
2.8499383e-07
-3.927021e-08
2.7705793e-07
-4.5128263e-08
2.6900974e-07
-5.1073542e-08
2.6093854e-07
-5.7047193e-08
2.5292316e-07
-6.2993019e-08
2.450318e-07
-6.8858202e-08
2.3732216e-07
-7.4593839e-08
2.2984177e-07
-8.0155327e-08
2.2262858e-07
-8.5502588e-08
2.1571165e-07
-9.0600188e-08
2.0911204e-07
-9.5417353e-08
2.0284364e-07
-9.9927904e-08
1.9691412e-07
-1.0411012e-07
1.9132576e-07
-1.0794654e-07
1.8607638e-07
-1.114237e-07
1.8116013e-07
-1.1453179e-07
1.7656841e-07
-1.172643e-07
1.7229093e-07
-1.1961801e-07
1.6831406e-07
-1.2163035e-07
1.6450629e-07
-1.232605e-07
1.609675e-07
-1.2449406e-07
1.5767736e-07
-1.253655e-07
1.5461589e-07
-1.2588435e-07
1.5175827e-07
-1.2608671e-07
1.4904559e-07
-1.2593935e-07
1.4649312e-07
-1.2546986e-07
1.4407993e-07
-1.2470131e-07
1.417886e-07
-1.2365026e-07
1.3961053e-07
-1.2233291e-07
1.3754563e-07
-1.2076697e-07
1.3556651e-07
-1.1898528e-07
1.3365214e-07
-1.1699488e-07
1.3178259e-07
-1.148023e-07
1.2996539e-07
-1.1243313e-07
1.2819249e-07
-1.099076e-07
1.2645652e-07
-1.0724323e-07
1.2475097e-07
-1.044576e-07
1.2307021e-07
-1.0156788e-07
1.2140935e-07
-9.8590563e-08
1.1976425e-07
-9.5541491e-08
1.1813137e-07
-9.2435764e-08
1.1650777e-07
-8.9287696e-08
-8.6110811e-08
3.240606e-07
-3.4014173e-10
3.2222667e-07
-1.6830009e-09
3.192889e-07
-3.774487e-09
3.1535073e-07
-6.5695027e-09
3.1052675e-07
-1.0003642e-08
3.0493856e-07
-1.4009822e-08
2.9871093e-07
-1.8521685e-08
2.9196809e-07
-2.3472744e-08
2.8483054e-07
-2.8795148e-08
2.7741249e-07
-3.4419322e-08
2.6981997e-07
-4.0274493e-08
2.6214942e-07
-4.628983e-08
2.5448675e-07
-5.2395776e-08
2.4690691e-07
-5.8525322e-08
2.3947379e-07
-6.4615074e-08
2.3224042e-07
-7.0606065e-08
2.2524951e-07
-7.6444343e-08
2.1853407e-07
-8.2081342e-08
2.1211829e-07
-8.7474084e-08
2.0601845e-07
-9.2585235e-08
2.0024394e-07
-9.7383055e-08
1.947982e-07
-1.0184124e-07
1.8967977e-07
-1.0593869e-07
1.8488315e-07
-1.0965916e-07
1.8039968e-07
-1.1299083e-07
1.7621825e-07
-1.1592574e-07
1.7232604e-07
-1.1845954e-07
1.6870691e-07
-1.2063045e-07
1.6523783e-07
-1.2239234e-07
1.6200696e-07
-1.2373597e-07
1.5899619e-07
-1.246966e-07
1.5618781e-07
-1.252846e-07
1.535551e-07
-1.2553593e-07
1.510399e-07
-1.2541471e-07
1.4865617e-07
-1.2495397e-07
1.4638555e-07
-1.2417806e-07
1.4421338e-07
-1.2310528e-07
1.4213074e-07
-1.2175415e-07
1.4013347e-07
-1.2014495e-07
1.3820158e-07
-1.1830367e-07
1.3632665e-07
-1.1624894e-07
1.3447244e-07
-1.1398879e-07
1.3265539e-07
-1.1154146e-07
1.3086841e-07
-1.0893263e-07
1.2910519e-07
-1.0618086e-07
1.2736065e-07
-1.0330489e-07
1.2563066e-07
-1.003229e-07
1.2391178e-07
-9.7252376e-08
1.222012e-07
-9.4110011e-08
1.2049668e-07
-9.0911719e-08
1.1879647e-07
-8.7672558e-08
-8.4406686e-08
3.153221e-07
1.1787231e-10
3.1349628e-07
-3.6905945e-10
3.1058429e-07
-1.6952557e-09
3.0669747e-07
-3.8263625e-09
3.01957e-07
-6.7047706e-09
2.9648972e-07
-1.0266344e-08
2.9042413e-07
-1.4443997e-08
2.8388674e-07
-1.9167214e-08
2.7699882e-07
-2.4361448e-08
2.6987407e-07
-2.9948336e-08
2.6261673e-07
-3.584687e-08
2.5532034e-07
-4.1975113e-08
2.4806704e-07
-4.825204e-08
2.4092721e-07
-5.4599252e-08
2.3395967e-07
-6.0942384e-08
2.2721196e-07
-6.7212196e-08
2.2072112e-07
-7.3345337e-08
2.1451443e-07
-7.9284846e-08
2.0861044e-07
-8.4980412e-08
2.0302001e-07
-9.0388454e-08
1.9774741e-07
-9.5472055e-08
1.9279143e-07
-1.0020078e-07
1.8814647e-07
-1.0455039e-07
1.8380358e-07
-1.0850247e-07
1.7975129e-07
-1.1204388e-07
1.7597634e-07
-1.1516602e-07
1.7246371e-07
-1.1786392e-07
1.691942e-07
-1.2017603e-07
1.6605386e-07
-1.220502e-07
1.6311699e-07
-1.2348433e-07
1.6036962e-07
-1.2451502e-07
1.5780184e-07
-1.2515488e-07
1.5537924e-07
-1.2543697e-07
1.5304456e-07
-1.2532463e-07
1.5081125e-07
-1.2485808e-07
1.4866419e-07
-1.2406216e-07
1.4659106e-07
-1.229566e-07
1.4458311e-07
-1.2156148e-07
1.4263419e-07
-1.1989791e-07
1.4073276e-07
-1.1798758e-07
1.3887862e-07
-1.1586302e-07
1.3702567e-07
-1.1353615e-07
1.3519204e-07
-1.110077e-07
1.3337566e-07
-1.0831259e-07
1.3157063e-07
-1.0547255e-07
1.2977342e-07
-1.0250688e-07
1.2798142e-07
-9.9434512e-08
1.2619264e-07
-9.6273708e-08
1.2440563e-07
-9.3041931e-08
1.2261942e-07
-8.975579e-08
1.2083343e-07
-8.643098e-08
-8.3082219e-08
3.0681449e-07
5.7498521e-10
3.0498524e-07
9.33131e-10
3.0208209e-07
3.512982e-10
2.9822637e-07
-1.1458259e-09
2.9354789e-07
-3.5060444e-09
2.8818055e-07
-6.6665568e-09
2.8225814e-07
-1.0557791e-08
2.7591053e-07
-1.5103444e-08
2.6926055e-07
-2.0220506e-08
2.6242168e-07
-2.5820205e-08
2.5549636e-07
-3.1809845e-08
2.4857497e-07
-3.8095145e-08
2.4173528e-07
-4.458263e-08
2.3504246e-07
-5.1181778e-08
2.2854938e-07
-5.7806777e-08
2.2229734e-07
-6.4377866e-08
2.1631686e-07
-7.0822271e-08
2.1062877e-07
-7.7074782e-08
2.052453e-07
-8.3078051e-08
2.0017131e-07
-8.8782652e-08
1.9540548e-07
-9.4146966e-08
1.9094154e-07
-9.9136937e-08
1.8676945e-07
-1.0372575e-07
1.8287659e-07
-1.0789344e-07
1.7924887e-07
-1.1162646e-07
1.7587158e-07
-1.1491691e-07
1.727288e-07
-1.1776047e-07
1.6979736e-07
-1.2019385e-07
1.6697201e-07
-1.221592e-07
1.6431112e-07
-1.2366236e-07
1.6180496e-07
-1.2473888e-07
1.5946471e-07
-1.2540932e-07
1.5723281e-07
-1.2569815e-07
1.5505714e-07
-1.2557707e-07
1.5295259e-07
-1.2509043e-07
1.5090763e-07
-1.2426129e-07
1.4891201e-07
-1.2311072e-07
1.4695781e-07
-1.2166041e-07
1.4503973e-07
-1.199329e-07
1.4315254e-07
-1.1795057e-07
1.4128756e-07
-1.1574897e-07
1.3942959e-07
-1.1333958e-07
1.3756371e-07
-1.107315e-07
1.3570216e-07
-1.0795006e-07
1.3384072e-07
-1.0502158e-07
1.3197745e-07
-1.0196705e-07
1.3011124e-07
-9.8806245e-08
1.2824147e-07
-9.5558126e-08
1.2636797e-07
-9.2240819e-08
1.24491e-07
-8.887153e-08
1.2261111e-07
-8.5466493e-08
-8.2040885e-08
2.9853207e-07
1.0363014e-09
2.9668972e-07
2.2376347e-09
2.9378157e-07
2.3863378e-09
2.8994087e-07
1.4984387e-09
2.8530791e-07
-3.7781225e-10
2.8002526e-07
-3.1791342e-09
2.7423325e-07
-6.8314077e-09
2.6806599e-07
-1.1250386e-08
2.6164838e-07
-1.6342481e-08
2.550938e-07
-2.2006513e-08
2.4850268e-07
-2.8136329e-08
2.4196171e-07
-3.4623822e-08
2.3554366e-07
-4.1361888e-08
2.2930764e-07
-4.8247036e-08
2.232998e-07
-5.5181478e-08
2.1755429e-07
-6.20747e-08
2.1209438e-07
-6.8844521e-08
2.0693372e-07
-7.5417725e-08
2.0207768e-07
-8.173033e-08
1.9752466e-07
-8.7727579e-08
1.932674e-07
-9.3363725e-08
1.8929424e-07
-9.8601672e-08
1.855904e-07
-1.0341254e-07
1.8213927e-07
-1.0777532e-07
1.7892393e-07
-1.1167697e-07
1.7592967e-07
-1.151129e-07
1.731426e-07
-1.1808183e-07
1.7053335e-07
-1.2061296e-07
1.6800559e-07
-1.2264601e-07
1.6560432e-07
-1.2419792e-07
1.6331877e-07
-1.2529344e-07
1.6118764e-07
-1.2596769e-07
1.5911455e-07
-1.26235e-07
1.5707248e-07
-1.2609154e-07
1.5507359e-07
-1.2557024e-07
1.5310843e-07
-1.246934e-07
1.5116862e-07
-1.2348459e-07
1.4924731e-07
-1.2196733e-07
1.4734029e-07
-1.2016581e-07
1.4544688e-07
-1.1810521e-07
1.4355662e-07
-1.1581544e-07
1.4166964e-07
-1.1332047e-07
1.3975879e-07
-1.106331e-07
1.3783791e-07
-1.0776191e-07
1.3590649e-07
-1.0474427e-07
1.3396476e-07
-1.0160181e-07
1.3201309e-07
-9.8354649e-08
1.3005223e-07
-9.5022333e-08
1.2808326e-07
-9.1623531e-08
1.2610759e-07
-8.8175933e-08
1.2412686e-07
-8.4696194e-08
-8.1199842e-08
2.9046915e-07
1.506325e-09
2.8860551e-07
3.5566445e-09
2.8568101e-07
4.4278553e-09
2.8184274e-07
4.1282928e-09
2.7724323e-07
2.7038976e-09
2.7203515e-07
2.205468e-10
2.663664e-07
-3.2407234e-09
2.6037603e-07
-7.5851479e-09
2.541912e-07
-1.2706044e-08
2.4792506e-07
-1.848748e-08
2.4167558e-07
-2.4807778e-08
2.3552511e-07
-3.1543286e-08
2.2954053e-07
-3.8571953e-08
2.2377401e-07
-4.5776396e-08
2.1826405e-07
-5.3046317e-08
2.1303678e-07
-6.0280261e-08
2.0810746e-07
-6.7386758e-08
2.0348197e-07
-7.4284944e-08
1.9915833e-07
-8.0904752e-08
1.9512819e-07
-8.7186769e-08
1.9137815e-07
-9.3081828e-08
1.8789111e-07
-9.8550463e-08
1.8464732e-07
-1.0356216e-07
1.8162523e-07
-1.0809483e-07
1.7880397e-07
-1.1213653e-07
1.7617138e-07
-1.1569098e-07
1.7372284e-07
-1.1876365e-07
1.7141603e-07
-1.2136306e-07
1.6916227e-07
-1.2342935e-07
1.6700186e-07
-1.2499851e-07
1.6493369e-07
-1.2609509e-07
1.6297758e-07
-1.2676497e-07
1.6101797e-07
-1.2699878e-07
1.5908444e-07
-1.2680614e-07
1.5716736e-07
-1.2622813e-07
1.5525943e-07
-1.2528637e-07
1.5335379e-07
-1.2400506e-07
1.5144498e-07
-1.2240897e-07
1.4952973e-07
-1.2052325e-07
1.4760718e-07
-1.1837424e-07
1.4567396e-07
-1.1599073e-07
1.4373433e-07
-1.1341117e-07
1.4177193e-07
-1.1063453e-07
1.3977631e-07
-1.0767499e-07
1.3776196e-07
-1.0456861e-07
1.3573021e-07
-1.0133948e-07
1.3368286e-07
-9.800841e-08
1.3162194e-07
-9.4595381e-08
1.2954971e-07
-9.111945e-08
1.2746866e-07
-8.7598658e-08
1.2538145e-07
-8.4049971e-08
-8.0489161e-08
2.8262007e-07
1.9890879e-09
2.8072808e-07
4.900801e-09
2.7777793e-07
6.4910867e-09
2.7393252e-07
6.7616201e-09
2.6935831e-07
5.7578908e-09
2.6421939e-07
3.5508084e-09
2.5867207e-07
2.3120958e-10
2.5286076e-07
-4.0926907e-09
2.4691486e-07
-9.298143e-09
2.409469e-07
-1.5251758e-08
2.3505168e-07
-2.1813977e-08
2.2930625e-07
-2.8843693e-08
2.2377065e-07
-3.6202481e-08
2.1848902e-07
-4.375812e-08
2.1349121e-07
-5.1387313e-08
2.0879447e-07
-5.8977571e-08
2.0440531e-07
-6.6428391e-08
2.0032127e-07
-7.3651786e-08
1.9653272e-07
-8.0572342e-08
1.9302441e-07
-8.7126849e-08
1.8977698e-07
-9.3263682e-08
1.8676814e-07
-9.8941898e-08
1.8397345e-07
-1.0413009e-07
1.8136528e-07
-1.088044e-07
1.7891369e-07
-1.1295193e-07
1.7660818e-07
-1.1659045e-07
1.7448998e-07
-1.19752e-07
1.7246574e-07
-1.223838e-07
1.7045749e-07
-1.2444749e-07
1.6851021e-07
-1.2600735e-07
1.6662886e-07
-1.270883e-07
1.6480378e-07
-1.2773064e-07
1.6294611e-07
-1.279079e-07
1.6109211e-07
-1.2764889e-07
1.5923062e-07
-1.2699575e-07
1.5735502e-07
-1.2597279e-07
1.5546006e-07
-1.2460521e-07
1.5354177e-07
-1.2291874e-07
1.5159737e-07
-1.2093892e-07
1.4962537e-07
-1.1869247e-07
1.4762941e-07
-1.1621223e-07
1.456261e-07
-1.1354636e-07
1.4359371e-07
-1.1067671e-07
1.4151155e-07
-1.0762828e-07
1.3940255e-07
-1.0443324e-07
1.3727035e-07
-1.0111931e-07
1.351183e-07
-9.770742e-08
1.3294963e-07
-9.4217705e-08
1.3076768e-07
-9.0669465e-08
1.2857593e-07
-8.7080981e-08
1.2637795e-07
-8.3469423e-08
-7.9850703e-08
2.7497923e-07
2.4882522e-09
2.7305272e-07
6.2794584e-09
2.7006935e-07
8.5888764e-09
2.6620987e-07
9.4127036e-09
2.6165639e-07
8.7981665e-09
2.5658555e-07
6.8241065e-09
2.5116287e-07
3.5944769e-09
2.4553823e-07
-7.6551013e-10
2.3984297e-07
-6.1136776e-09
2.341883e-07
-1.2296075e-08
2.2866484e-07
-1.915264e-08
2.2334324e-07
-2.6522741e-08
2.1827543e-07
-3.4250093e-08
2.1349638e-07
-4.2186729e-08
2.0902622e-07
-5.0195959e-08
2.0487242e-07
-5.8154333e-08
2.0103203e-07
-6.5952743e-08
1.9749382e-07
-7.3496809e-08
1.9424025e-07
-8.07067e-08
1.9124927e-07
-8.7516543e-08
1.884959e-07
-9.3873497e-08
1.8595357e-07
-9.9736667e-08
1.8359441e-07
-1.0507559e-07
1.8138556e-07
-1.098663e-07
1.7927752e-07
-1.1408952e-07
1.7722691e-07
-1.1776018e-07
1.7546344e-07
-1.2099345e-07
1.7369544e-07
-1.2360515e-07
1.7189253e-07
-1.2563781e-07
1.7011461e-07
-1.2716529e-07
1.6838744e-07
-1.2821259e-07
1.6666926e-07
-1.2879977e-07
1.648915e-07
-1.2889699e-07
1.63089e-07
-1.2855377e-07
1.6125548e-07
-1.278099e-07
1.5938631e-07
-1.2669172e-07
1.5747821e-07
-1.2522601e-07
1.5552909e-07
-1.2343982e-07
1.5353689e-07
-1.2135933e-07
1.5149604e-07
-1.1901003e-07
1.4940485e-07
-1.1642554e-07
1.4733742e-07
-1.1367098e-07
1.4522012e-07
-1.1070044e-07
1.4303996e-07
-1.0756769e-07
1.4082502e-07
-1.0428571e-07
1.3858293e-07
-1.0089029e-07
1.3631847e-07
-9.7401681e-08
1.3403578e-07
-9.3840011e-08
1.3173907e-07
-9.0224839e-08
1.294327e-07
-8.6574627e-08
1.2712104e-07
-8.2906657e-08
-7.923689e-08
2.6754111e-07
3.0071988e-09
2.6557458e-07
7.70089e-09
2.6255189e-07
1.0731965e-08
2.5867382e-07
1.2092548e-08
2.5413979e-07
1.1834235e-08
2.491402e-07
1.0047257e-08
2.438502e-07
6.8526366e-09
2.384251e-07
2.3966649e-09
2.3299755e-07
-3.1551413e-09
2.2767639e-07
-9.6248036e-09
2.2254681e-07
-1.6828879e-08
2.1767163e-07
-2.4585028e-08
2.1309329e-07
-3.2717624e-08
2.0883629e-07
-4.1062148e-08
2.0490992e-07
-4.9468302e-08
2.0131099e-07
-5.780195e-08
1.9802647e-07
-6.5946041e-08
1.9503596e-07
-7.380074e-08
1.9231387e-07
-8.1282942e-08
1.8983141e-07
-8.8325387e-08
1.8755838e-07
-9.4875507e-08
1.8546443e-07
-1.008941e-07
1.8351916e-07
-1.0635418e-07
1.8169034e-07
-1.1124178e-07
1.7991878e-07
-1.1555325e-07
1.7804609e-07
-1.1926531e-07
1.7666128e-07
-1.2232788e-07
1.7509431e-07
-1.2492822e-07
1.7345543e-07
-1.2694816e-07
1.7179677e-07
-1.2842172e-07
1.7020536e-07
-1.2940933e-07
1.6856819e-07
-1.2990744e-07