/*--------------------------------*- C++ -*----------------------------------*\
| =========                 |                                                 |
| \\      /  F ield         | OpenFOAM: The Open Source CFD Toolbox           |
|  \\    /   O peration     | Version:  2312                                  |
|   \\  /    A nd           | Website:  www.openfoam.com                      |
|    \\/     M anipulation  |                                                 |
\*---------------------------------------------------------------------------*/
FoamFile
{
    version     2.0;
    format      ascii;
    arch        "LSB;label=32;scalar=64";
    class       volScalarField;
    location    "0.01";
    object      Qdot;
}
// * * * * * * * * * * * * * * * * * * * * * * * * * * * * * * * * * * * * * //

dimensions      [1 -1 -3 0 0 0 0];

internalField   nonuniform List<scalar> 
3221
(
4.4396045e-06
2.6460039e-05
8.8135071e-05
0.00024915247
0.00064940477
0.0016206786
0.0039149737
0.009227419
0.021285265
0.048113639
0.10659522
0.23133946
0.49142952
1.0207564
2.070905
4.099319
7.9093924
14.861677
27.174104
48.321133
83.523832
140.29354
228.95293
363.01624
559.27658
837.43699
1219.1449
1718.6815
2365.1139
3172.876
4146.5452
5268.0057
6536.9043
7928.0584
9391.1711
10856.756
12282.346
13611.812
14773.782
15714.52
16391.916
16778.616
16863.691
16652.721
16166.408
15437.991
14509.853
13429.753
12256.508
11026.839
9780.1542
8560.6772
4.7130546e-06
2.8022557e-05
9.3846432e-05
0.00026625913
0.00070003716
0.0017559446
0.0042690463
0.010121801
0.023488021
0.053403186
0.11898767
0.25967016
0.5545764
1.1578767
2.3607469
4.6951945
9.0999534
17.171888
31.525388
56.27302
97.619789
164.52833
269.3654
428.38843
661.88836
993.78862
1450.526
2049.8142
2826.9265
3801.1302
4978.6478
6338.5967
7880.0906
9576.8686
11367.46
13167.723
14922.076
16568.845
18017.311
19200.268
20064.636
20575.026
20715.988
20492.326
19927.591
19061.062
17943.641
16633.134
15201.012
13697.276
12165.35
10662.037
5.1313219e-06
3.101446e-05
0.00010526766
0.00030220653
0.00080233905
0.0020344671
0.0049997689
0.011984184
0.028106185
0.064572399
0.14534036
0.32031081
0.69059262
1.4550126
2.9924051
6.0007829
11.72168
22.283224
41.195059
74.016801
129.1938
219.0062
360.51145
576.287
894.71608
1349.5315
1978.3613
2807.0126
3885.1993
5244.1256
6894.2139
8810.0422
10986.411
13398.303
15958.208
18549.53
21089.39
23489.329
25626.811
27398.749
28725.319
29551.075
29848.616
29619.546
28892.82
27720.875
26174.183
24334.95
22290.888
20142.824
17938.766
15760.548
5.7851672e-06
3.5798786e-05
0.00012264691
0.00035755006
0.00096382444
0.0024813295
0.0061889802
0.015053901
0.035813545
0.083437249
0.19035316
0.42500689
0.92781187
1.9781973
4.1146054
8.3397795
16.455348
31.579078
58.899296
106.70569
187.69493
320.47736
531.10937
854.3589
1334.3064
2023.8293
2982.5496
4252.3402
5910.9273
8014.1413
10577.985
13598.194
17013.056
20829.955
24907.142
29102.616
33215.866
37132.547
40680.542
43676.406
45984.766
47507.231
48188.983
48021.27
47039.761
45319.253
42965.569
40105.709
36877.254
33447.189
29904.37
26365.921
6.7432963e-06
4.1961595e-05
0.00014690099
0.00043625074
0.0011982918
0.0031421053
0.007980616
0.019755946
0.047815687
0.11326147
0.262553
0.59523274
1.3184527
2.8500735
6.0055648
12.321749
24.590712
47.694597
89.837041
164.24524
291.35337
501.36126
836.89408
1355.29
2129.8589
3249.3474
4814.8787
6898.9281
9631.6223
13120.188
17398.036
22476.396
28240.506
34721.232
41701.287
48952.126
56128.982
63003.452
69339.47
74797.969
79128.75
82145.531
83733.301
83854.532
82548.452
79923.909
76147.115
71426.302
65996.611
60108.779
54016.97
47840.009
7.8247607e-06
5.0021909e-05
0.00017923712
0.00054339667
0.0015253968
0.0040862991
0.010593243
0.026753972
0.066015451
0.15929246
0.37584691
0.86651147
1.9500172
4.2785513
9.1418981
19.000726
38.37628
75.256562
143.19219
264.22335
472.67565
819.66567
1377.8674
2245.7427
3550.1096
5445.718
8110.5427
11674.07
16362.807
22386.935
29813.986
38682.877
48798.283
60233.93
72642.965
85623.491
98701.683
111251.24
122958.12
133276.98
141695.08
147848.94
151495.16
152524.08
150962.21
146963.46
140790.81
132791.07
123366.17
112941.86
102030.92
90868.127
9.0692141e-06
6.0100023e-05
0.00022087011
0.00068644037
0.0019738291
0.005410129
0.014347297
0.037032616
0.093299504
0.22964632
0.5521317
1.295667
2.9644817
6.6053017
14.315564
30.144898
61.614653
122.14227
234.68578
436.87502
787.72027
1375.648
2327.1048
3814.3567
6060.5234
9339.5188
13968.638
20180.475
28375.188
38960.53
52067.628
67792.164
85802.712
106264.43
128625.83
152199.02
176194.98
199436.87
221266.19
240947.08
257410.99
269951.41
278065.03
281477.3
280154.32
274294.61
264303
250750.65
234327.43
215796.44
195962.35
175640.28
1.0699892e-05
7.2608885e-05
0.000274038
0.00087490322
0.0025794559
0.0072512483
0.019697739
0.052026055
0.13397882
0.33667657
0.82534726
1.9722334
4.5887595
10.383103
22.82127
48.669958
100.61976
201.50116
390.66157
732.99065
1330.775
2337.9633
3975.5294
6545.5433
10440.539
16144.142
24219.081
35077.227
49423.852
68027.233
91131.356
118941.88
150893.05
187337.56
227404.16
269916.41
313547.6
356222.84
396688.91
433639.45
465352.61
490359.7
507655.97
516619.66
517044.73
509139.3
493492.43
471014.57
442859.5
410335.53
374803.54
337932.3
1.2732569e-05
8.8027007e-05
0.00034106951
0.0011194272
0.0033938766
0.0097949124
0.027284255
0.073809834
0.19442483
0.49903276
1.2476828
3.0360244
7.1819672
16.496663
36.75004
79.318265
165.7141
334.90324
654.40667
1236.0426
2256.6156
3982.8022
6797.924
11226.451
17950.364
27810.536
41786.677
60587.361
85438.338
117727.07
157885.77
206314.88
262045.16
325793.22
396185.64
471221.09
548633.36
625716.14
698828.11
766185.57
825465.51
873593.98
908652.37
929343.42
935062.62
925915.8
902683.98
866741.95
819940.39
764464.07
702676.98
636964.51
1.4874654e-05
0.00010635544
0.00042542296
0.0014370598
0.004482292
0.013293872
0.038007268
0.10537843
0.28403938
0.74477117
1.89897
4.7040816
11.308339
26.34948
59.44343
129.707
273.52751
557.13418
1095.6744
2080.2087
3813.0528
6750.037
11545.588
19093.461
30553.237
47351.338
71146.31
103109.59
145325.67
200173.02
268376.02
350648.09
445332.6
553825.14
673972.26
802505.25
935795.61
1069598.9
1197572.3
1316360.1
1422582.1
1511217.7
1578481.7
1621872.2
1639983.8
1632570.1
1600521.6
1545767.1
1471108.6
1380005.2
1276314.6
1163976.6
1.7314678e-05
0.00012865535
0.00053011718
0.0018477477
0.005932959
0.018098168
0.053135923
0.15104782
0.4166714
1.1160145
2.9010295
7.3119777
17.849433
42.151601
96.19125
211.92939
450.47768
923.36843
1824.7126
3476.4315
6386.9594
11320.601
19370.293
32021.608
51191.847
79226.461
118837.46
171869.96
241774.6
332393.32
444867.81
580362.35
736068.63
914591
1112525.2
1324720.3
1545477.7
1767964.3
1984495.7
2185164.9
2366466.9
2521799.9
2643664
2727541.4
2770578.1
2771711
2731686.8
2652964
2539510.3
2396509.8
2230004.3
2046477.5
2.012399e-05
0.00015487513
0.00065978983
0.0023750542
0.0078614935
0.024683472
0.074460982
0.21706056
0.61277351
1.676074
4.4396173
11.377402
28.17711
67.36244
155.2996
344.9839
737.98569
1519.7466
3012.5428
5749.1996
10567.424
18719.196
31982.538
52755.597
84107.58
129759.98
193976.67
279505.76
391888.33
536936.02
716329.77
931803.73
1178671.3
1461594.8
1775124
2111519.2
2462275.7
2817272.5
3165399.1
3490108
3785332.2
4043450.2
4251901.3
4402633.9
4490441.5
4512705.6
4469509.8
4363590.1
4200123.8
3986373.7
3731212.2
3444531.6
2.3469134e-05
0.00018630786
0.00082110857
0.0030525795
0.010426683
0.033712305
0.10452745
0.31248572
0.90265565
2.5203375
6.7983591
17.698664
44.421302
107.37329
249.72374
558.44472
1200.2329
2478.7975
4919.8212
9387.3993
17230.11
30445.982
51844.724
85175.244
135180.2
207540.37
308681.73
442444.86
617441.44
841852.51
1117967.2
1448119.2
1824678.8
2255655.3
2732237.2
3243342.4
3776777
4318140.3
4851730.1
5353187
5812358.4
6218001.3
6554868.7
6808189.2
6969215.2
7032709.6
6997220.4
6865148.6
6642595.1
6338991.1
5966523.5
5539343.7
2.7045824e-05
0.00022329184
0.001020338
0.0039249154
0.013841126
0.046108607
0.14696791
0.4506004
1.3315178
3.7932037
10.411588
27.508392
69.886761
170.56257
399.5663
897.99544
1935.6372
4001.7305
7937.3966
15113.411
27647.357
48640.272
82397.123
134582.34
212256.23
323744.38
478310.89
680942.45
944577.13
1279842.3
1689565.7
2176503.8
2728693.4
3359315.2
4054132.7
4798020.8
5574102.8
6362465.3
7140907.5
7885273.1
8564155.4
9168000.3
9683247.8
10083506
10354912
10488256
10479276
10328949
10043505
9634148.6
9116483.4
8509605.4
3.1298046e-05
0.00026729637
0.0012677577
0.0050484924
0.018392402
0.063166452
0.20703993
0.65099338
1.9672388
5.7145725
15.947535
42.715287
109.70557
269.93379
635.90532
1433.7643
3093.7691
6390.4346
12642.714
23975.626
43629.027
76278.451
128311.83
207991.37
325429.26
492322.99
721428.81
1018669
1402835.4
1886496.4
2472680.1
3163880.8
3942589.4
4829332.3
5801444.5
6839319.8
7920625.3
9019376.4
10107044
11153904
12113063
12973908
13719192
14316751
14742978
14983127
15028474
14876937
14533414
14009771
13324418
12501451
3.6137402e-05
0.00032050273
0.0015749808
0.0064992606
0.024486151
0.086737678
0.2924153
0.94285133
2.9126794
8.6219055
24.440495
66.287513
171.86538
425.66916
1006.6723
2272.8734
4900.2072
10093.141
19877.539
37470.742
67699.5
117407.36
195767.44
314404.04
487236.96
729999.33
1059439.3
1481800.4
2023507.5
2697795.1
3507248.5
4451083.8
5508946.8
6708616.2
8015433.6
9405356.9
10850103
12317303
13771884
15177866
16475595
17648613
18673415
19520278
20150036
20540731
20677219
20552190
20166995
19532131
18667237
17600530
4.1484373e-05
0.0003826723
0.0019572857
0.0083804661
0.032680634
0.11948424
0.41441489
1.3701606
4.3252765
13.037592
37.502927
102.86571
268.83997
669.12703
1585.6943
3578.3212
7692.9461
15769.201
30854.125
57703.438
103316.41
177413.03
292735.08
465048.23
712749.81
1056056.1
1515869.3
2097639.2
2837413.4
3747175
4830570.1
6062935.9
7455904.1
9019211.5
10710064
12499913
14354525
16235212
18100100
19904919
21602099
23128335
24474517
25617327
26499632
27088690
27360911
27301174
26904347
26176537
25135846
23812516
4.7250904e-05
0.00045696903
0.0024344538
0.010834298
0.043776001
0.16528851
0.58997362
1.9999803
6.4486597
19.778224
57.669172
159.75107
420.19045
1049.1233
2486.6229
5597.3625
11975.527
24380.389
47298.874
87592.219
155136.25
263322.18
429263.1
673562.39
1019543.9
1491936.5
2115326.9
2892902.2
3872149.6
5059743.7
6457545.8
8025478
9795171.8
11758372
13867588
16088502
18381269
20701823
23003192
25236565
27352722
29265772
30971522
32444459
33624113
34459933
34917950
34972466
34608366
33823408
32630145
31057284
5.4142491e-05
0.00054626835
0.0030360972
0.014056508
0.058915404
0.22990073
0.84475565
2.9358859
9.6643345
30.133739
88.95798
248.51045
656.73821
1641.8333
3884.4045
8704.0769
18494.2
37318.618
71644.686
131131.04
229330.65
384129.8
617739.97
956095.89
1427550.1
2060739.1
2882107.5
3892100.2
5150683.4
6653925.2
8400647.9
10335760
12511322
14895212
17437936
20099800
22836345
25599682
28339688
31004871
33543863
35860512
37945340
39768506
41281960
42409811
43106063
43331790
43058151
42269916
40968935
39177306
6.1575829e-05
0.00065287032
0.0037965577
0.01832496
0.079764267
0.32193965
1.2182005
4.3400308
14.577261
46.164632
137.80193
387.60333
1027.2933
2566.4387
6048.3632
13463.012
28349.307
56582.965
107285.33
193716.43
333954.35
551140.16
873101.45
1331249.3
1958660.3
2786716.8
3838098.1
5116362.6
6689676.4
8538232.1
10655857
12974624
15567939
18373784
21343327
24432578
27594059
30778090
33933513
37007413
39942868
42682379
45138216
47316774
49186093
50644737
51630448
52089015
51974327
51253247
49910958
47956535
7.0144755e-05
0.00078188786
0.0047650139
0.024026905
0.10878285
0.45454161
1.7718472
6.4699172
22.159397
71.200661
214.59773
606.7117
1609.5508
4009.8902
9393.1022
20723.907
43154.812
85022.317
158906.86
282548.86
479363.3
778309.14
1212959.4
1819773.4
2635767.8
3696173.5
4997453.5
6584939.4
8498276.3
10710991
13202043
15907852
18911023
22118931
25486251
28966267
32510549
36070035
39595286
43036009
46339769
49454465
52271123
54808075
57037285
58855719
60177128
60930674
61050041
60479532
59181409
57144363
7.973664e-05
0.00093786894
0.0060131235
0.031733934
0.14966166
0.64802632
2.6032075
9.7405996
33.993833
110.6874
336.31601
953.92292
2527.7995
6266.1146
14556.602
31761.793
65264.578
126663.49
232911.79
407113.77
678676.14
1082584.4
1657727
2444388.8
3481257.3
4802613.6
6388930.9
8308861.2
10576677
13166209
15991553
19094239
22473051
26043168
29758820
33572817
37438170
41309012
45140468
48888005
52506244
55949142
59094753
61974295
64554168
66749927
68444942
69551603
69981548
69652701
68498522
66479611
9.0649253e-05
0.001129646
0.0076342483
0.042274985
0.20803436
0.93436269
3.869346
14.831541
52.695521
173.63954
530.93273
1507.7145
3981.7752
9798.0381
22519.522
48482.574
98089.52
187147.7
337949.87
579739.66
948255.1
1484193.6
2230652.7
3229794.1
4519060.8
6127643.1
8021623.7
10288878
12911121
15856261
19013812
22475906
26179784
30054086
34051998
38127788
42238246
46343122
50404640
54386489
58252295
61964497
65396642
68590681
71498518
74075946
76171413
77681023
78493885
78499087
77596423
75711116
0.00010312348
0.0013661879
0.009765515
0.056882896
0.29262653
1.3647321
5.8276338
22.872997
82.646375
275.16376
845.01564
2397.0472
6293.736
15335.474
34786.329
73721.616
146535.71
274299.8
485564.5
816219.25
1308166.4
2006808.5
2957603.7
4202091.3
5773255.1
7685301.2
9901852.6
12520717
15485929
18750419
22214197
25985427
29952682
34060652
38263567
42519389
46790881
51045482
55254475
59391440
63430232
67344194
71016723
74485385
77696699
80639445
83149913
85100508
86359196
86785512
86242334
84613368
0.00011748044
0.0016596261
0.012601914
0.07743432
0.41722688
2.0225787
8.9073299
35.776361
131.29704
440.88488
1356.8067
3835.1782
9985.2524
24028.979
53658.027
111671.99
217599.02
398853.17
690954.07
1136464.6
1782566.8
2677512.9
3866492
5387852.5
7271840.2
9474948.2
12033045
14994183
18287626
21790079
25545838
29556116
33716010
37979429
42304368
46654747
51001146
55320295
59593844
63806123
67940683
71975256
75871703
79544314
83030718
86312120
89238008
91653302
93407058
94330275
94247629
92996957
0.00013379669
0.002030001
0.016427214
0.10681376
0.60402538
3.0465978
13.837733
56.82904
211.50282
714.78889
2198.924
6176.6896
15902.237
37690.173
82638.442
168489.22
321155.21
575346.42
973831.26
1565148.3
2399954.9
3526520.4
4986069.4
6808927.6
9013514
11523123
14418831
17686960
21253646
24972012
28957957
33127025
37401661
41738824
46102112
50463122
54801564
59104515
63364805
67578483
71741278
75844616
79874247
83716695
87443160
91027909
94357138
97245722
99527451
1.0100751e+08
1.0147319e+08
1.0071432e+08
0.00015288345
0.0025005167
0.021665305
0.14955829
0.88945039
4.6719698
21.881697
91.782912
345.76943
1173.2477
3597.9539
10013.734
25417.718
59163.914
127031.35
253129.07
470983
823192.9
1359338.9
2132258.6
3193231.2
4586820.7
6346041.8
8488378.8
11015142
13828854
17041977
20574371
24348498
28241458
32381217
36629062
40935395
45261818
49579214
53868164
58151458
62365839
66543760
70693176
74822492
78936726
83035023
87000769
90932943
94777941
98486487
1.0184239e+08
1.0466774e+08
1.06746e+08
1.0782991e+08
1.0766153e+08
0.00017477231
0.0031055131
0.028953817
0.21293423
1.3346075
7.3059592
35.269304
150.8775
574.06417
1950.2983
5943.7335
16338.24
40758.629
92898.144
194803.45
378481.89
686047.11
1167898.1
1878947.1
2873459.3
4199418.4
5893315.7
7975777.7
10447443
13279843
16386483
19881410
23643001
27518128
31573480
35776470
40029995
44293895
48537233
52739579
56891068
60991699
65050231
69082196
73165503
77208022
81280692
85393100
89427393
93544473
97602870
1.0165229e+08
1.0545738e+08
1.0882547e+08
1.115239e+08
1.1327543e+08
1.1377685e+08
0.00020058238
0.0038948503
0.039276154
0.30885227
2.0442858
11.669328
58.018345
252.65899
968.3494
3283.5072
9910.7755
26814.277
65527.744
145803.74
297805.94
562865.16
992044.82
1642360.9
2571216.2
3830128.5
5458956.8
7481201.8
9902247.1
12708790
15790664
19197181
22913583
26817133
30775866
34907731
39094136
43278967
47428997
51521829
55546401
59502540
63400178
67258082
71101949
74961949
78869673
82934320
87018758
91090282
95320272
99572519
1.0391824e+08
1.0814354e+08
1.1203876e+08
1.1536081e+08
1.1780823e+08
1.1903694e+08
0.00023090683
0.0049385255
0.054177968
0.45726516
3.2024888
19.066861
97.516246
431.2969
1659.8975
5597.5862
16670.922
44232.459
105527.13
228528.35
453460.22
831920.21
1423176.2
2288139.7
3482270.1
5048935.6
7014218.4
9385200.6
12147427
15252204
18582145
22238027
26121523
30050668
34081231
38195314
42293687
46341457
50314233
54199023
57994247
61709105
65362740
68982933
72604348
76266291
80009942
83874940
87992506
92067469
96363142
1.0077578e+08
1.0537224e+08
1.0998114e+08
1.1437582e+08
1.1830858e+08
1.214601e+08
1.2345134e+08
0.00026720135
0.0063407762
0.076136772
0.69242756
5.1403783
31.916295
167.6274
750.79923
2891.0703
9657.2443
28264.522
73260.9
170036.9
357301.06
687012.45
1220917.7
2024031.9
3156501.7
4665662.8
6580535.9
8908616.7
11636861
14738644
18069144
21638788
25476841
29429590
33361074
37386805
41398029
45341482
49191462
52933189
56563243
60089142
63528723
66909269
70266303
73642024
77083346
80639445
84358821
88286077
92453212
96776696
1.0131524e+08
1.0611594e+08
1.1106715e+08
1.1592475e+08
1.2044195e+08
1.2428816e+08
1.2705605e+08
0.00031021325
0.008256459
0.1092318
1.0747062
8.4696008
54.806145
294.90924
1332.987
5114.1342
16846.673
48244.175
121670.03
273761.32
556529.3
1034433.2
1777402.3
2851401
4308900.8
6182006.7
8478591.8
11182669
14257515
17651975
21184814
24955091
28893179
32793062
36714250
40640636
44481724
48210516
51811053
55278309
58617984
61845907
64987463
68076776
71155669
74272356
77479742
80833247
84388233
88199233
92211265
96664509
1.0129818e+08
1.0625709e+08
1.1150634e+08
1.1678457e+08
1.2184995e+08
1.263669e+08
1.2990694e+08
0.0003624272
0.010923042
0.1603508
1.7134401
14.350826
96.659956
531.26771
2413.1739
9180.6805
29679.189
82780.132
202296.09
439716.9
862329.38
1545965.6
2563957.4
3975604.6
5817064.7
8096894.1
10796360
13873380
17267227
20889957
24588009
28481538
32408569
36229803
40063639
43806158
47417151
50880280
54189642
57349538
60373883
63285703
66116607
68906132
71700925
74553699
77521801
80665131
84042831
87707526
91692086
95972380
1.0083026e+08
1.0590452e+08
1.1140388e+08
1.1705786e+08
1.2262843e+08
1.2778113e+08
1.3207331e+08
0.00042700409
0.014713527
0.24141975
2.8125596
25.049485
175.26552
980.15375
4452.0362
16705.35
52720.878
142532.03
336119.85
703386.18
1327120.6
2290163.9
3660887.2
5481344
7761265.7
10478372
13583832
17010505
20684399
24422071
28265187
32187592
35975752
39707184
43354972
46851400
50180514
53336519
56323124
59152952
61846923
64433892
66950256
69439512
71951702
74542645
77272806
80205536
83404228
86928501
90834075
95056629
99844070
1.0516372e+08
1.1086169e+08
1.1684535e+08
1.2287417e+08
1.286199e+08
1.3363216e+08
0.0005066776
0.020218888
0.37376391
4.7644156
45.118254
326.96838
1851.6194
8361.966
30763.188
94247.694
245759.47
556961.38
1118463.2
2025255.4
3358185
5167962.7
7466650
10227702
13392889
16883242
20609174
24463024
28282030
32167827
35991271
39614524
43168843
46552213
49748668
52753465
55570806
58212953
60699473
63056846
65318264
67523455
69718483
71955467
74292104
76790865
79517661
82539775
85923398
89733676
93902649
98710662
1.0411856e+08
1.0997336e+08
1.1624163e+08
1.2268024e+08
1.2897168e+08
1.3466323e+08
0.00060658963
0.028417974
0.59671549
8.3492123
83.985824
627.87388
3579.5822
15966.947
57219.536
169175.1
423367.78
918394.03
1764403
3059500.8
4867452.4
7204856.3
10040425
13303919
16900247
20725641
24683046
28573535
32445890
36249197
39842020
43288155
46560655
49623122
52475133
55123052
57579996
59865238
62003690
64025811
65967625
67870790
69782665
71756286
73850177
76127875
78657032
81508005
84752115
88460595
92569707
97370129
1.0264991e+08
1.0882202e+08
1.1533253e+08
1.2213273e+08
1.2892079e+08
1.3524493e+08
0.00073336663
0.040968612
0.98540218
15.17341
161.79015
1241.1943
7074.3534
30937.478
107241.74
304135.36
726846.1
1503481.1
2755789.1
4567508.7
6963979.9
9909156.9
13317402
17072517
21047349
25122750
29174567
33043642
36861267
40409805
43765026
46923388
49847174
52540228
55013141
57281519
59365617
61289868
63082814
64777292
66410714
68025397
69668872
71394113
73259602
75329160
77671435
80358990
83466968
87071348
91114314
95890267
1.012024e+08
1.0747982e+08
1.1419369e+08
1.2130845e+08
1.2854519e+08
1.3545249e+08
0.0008979121
0.060765416
1.6888222
28.668745
322.9093
2525.0368
14270.869
60684.82
201973.47
546050.21
1240275.9
2437789.7
4252817.5
6727238.6
9821876.5
13431191
17410543
21603525
25862574
30079365
34042947
37832925
41417950
44657727
47697023
50472611
52994948
55280799
57350216
59225948
60933220
62499687
63955782
65335193
66675409
68018296
69410620
70904492
72557654
74433577
76601266
79134715
82111835
85612471
89585028
94325572
99655383
1.0578716e+08
1.128905e+08
0.0011150767
0.093070536
3.0148233
56.455269
668.26281
5282.0471
29324.236
120167.13
381055.09
976129.7
2097662.4
3905438.2
6471630.6
9759334.9
13638626
17924991
22420993
26946068
31345939
35521831
39309673
42868415
46055220
48950540
51563536
53896526
55975562
57827370
59478973
60957784
62291723
63509736
64642495
65723157
66788162
67877998
69037916
70318535
71776327
73473913
75480134
77869766
80722651
84121758
88021568
92719415
98056596
1.0422307e+08
1.1147906e+08
0.001407063
0.14781243
5.6281904
116.15198
1434.617
11346.024
61217.219
239432.24
717735.32
1731771.7
3506351.3
6166994.1
9691897.4
13924113
18624785
23535245
28426201
33122124
37479725
41391020
44917814
48022533
50776971
53201591
55317450
57160410
58766129
60167913
61396842
62482316
63452750
64336562
65163180
65964051
66773631
67630308
68577239
69663098
70942692
72477427
74335573
76592169
79328315
82629367
86455342
91104982
96445488
1.0262689e+08
1.0976475e+08
0.0018095797
0.24459764
11.035168
250.24916
3194.5737
24975.604
129419.37
478266.83
1344729.2
3039085.7
5776153.3
9576115.5
14257971
19510569
24987314
30380780
35466490
40118788
44149626
47699565
50710478
53285747
55492618
57351123
58916277
60235240
61349627
62295743
63105629
63808085
64429988
64997610
65537879
66079578
66654460
67298267
68051666
68961066
70079351
71466460
73189792
75324261
77951681
81159038
84910642
89504937
94854978
1.0103541e+08
1.0825178e+08
0.0023792803
0.42409917
22.830656
565.76511
7373.5216
56187.467
276034.76
953865.9
2496535.7
5257770.4
9351199.7
14589615
20569037
26815291
32906840
38536325
43531195
47826620
51337742
54300119
56645903
58574756
60119291
61348120
62323815
63098421
63714994
64209201
64610998
64946272
65238577
65510687
65786037
66090020
66451165
66902210
67481069
68231706
69204928
70459053
72060416
74083528
76610531
79729416
83406884
87928680
93314294
99477663
1.0674691e+08
0.0032109393
0.77555932
50.09089
1344.4519
17615.339
128738.53
591416.33
1891246.6
4574692.7
8937458.8
14837623
21763251
29053677
36110511
42510647
48015873
52563951
56147002
58950491
61063637
62636962
63782909
64593246
65147711
65510995
65734071
65856953
65911160
65921867
65910074
65894547
65893517
65926190
66014064
66182119
66459878
66882373
67491046
68334563
69469549
70961166
72883358
75318390
78355142
81963682
86428414
91811385
97968155
1.0527391e+08
0.0044724369
1.5075101
117.16359
3361.8634
43455.067
299145.5
1266795.5
3710854.3
8241064.6
14878522
23014994
31724178
40125856
47602782
53844516
58756977
62392403
65021311
66791603
67922109
68556217
68833269
68858509
68713009
68456452
68132991
67775572
67408435
67049769
66714107
66414325
66163367
65975724
65868711
65863588
65986584
66269831
66752250
67480376
68509135
69902477
71733701
74085104
77046473
80591669
85005160
90369785
96520329
1.0385047e+08
0.0064701206
3.1431857
293.75285
8848.4289
110319.42
701438.13
2698437.8
7170653
14535367
24178673
34813904
45111959
54122993
61386798
66848566
70558540
72919295
74230524
74755230
74721046
74308142
73656963
72868506
72016101
71146674
70292319
69475659
68711110
68008198
67373845
66814296
66336747
65950725
65669241
65509813
65495403
65655302
66025977
66651901
67586341
68892046
70641653
72917467
75810192
79297376
83663038
89002620
95144652
1.0248946e+08
0.0098048651
7.1060957
793.71541
24493.083
286914.14
1649700.6
5681444.5
13572741
24992331
38230705
51237206
62483507
71232318
77401841
81287486
83260714
83905909
83601853
82660358
81336165
79806802
78196066
76587135
75038406
73575775
72214898
70966039
69831823
68811983
67905123
67110439
66429186
65865869
65429231
65133127
64997369
65048523
65320724
65856481
66707479
67935314
69611982
71819808
74650410
78084728
82405619
87717421
93848441
1.0120016e+08
0.015739608
17.642542
2322.7381
71140.126
759633.87
3862205.7
11739666
25017158
41702162
58625308
73208760
84186569
91417916
95415405
96886686
96563974
95093439
92907909
90349804
87657616
84979378
82405554
79989035
77770521
75744971
73908422
72258765
70785054
69476709
68323693
67318035
66455066
65734381
65160600
64744091
64501678
64457374
64643128
65099610
65877026
67035882
68647580
70794486
73569158
76955654
81235009
86518192
92636205
99988806
0.027173172
48.819996
7391.4789
215790.27
2029457.1
8917801.5
23617006
44621908
67220062
86916744
1.0135523e+08
1.1022212e+08
1.1436182e+08
1.1498961e+08
1.1329622e+08
1.1010402e+08
1.0618934e+08
1.0194845e+08
97682996
93592551
89769149
86254459
83058926
80211739
77661868
75384423
73368329
71586452
70018195
68644869
67451442
66427520
65568023
64873692
64351629
64015888
63888114
63998240
64385242
65097953
66195870
67749841
69842308
72566812
75910472
80151766
85406405
91510060
98858990
0.051514332
153.14997
25625.753
677918.1
5408135.3
20089358
45854795
76526003
1.0421097e+08
1.2423844e+08
1.3575484e+08
1.4013001e+08
1.3944828e+08
1.3560664e+08
1.3000839e+08
1.2346506e+08
1.1693846e+08
1.1054406e+08
1.0454042e+08
99068806
94136986
89726384
85789790
82369494
79339708
76657056
74310950
72252212
70452052
68883229
67523928
66358371
65377130
64577368
63963187
63546103
63345601
63389775
63716054
64372010
65416211
66918987
68962857
71642410
74948163
79155009
84381644
90470220
97812095
0.11041504
554.9657
96584.29
2177381.7
14168563
43618059
85148297
1.253953e+08
1.5475873e+08
1.708218e+08
1.7572321e+08
1.7297176e+08
1.6587922e+08
1.5650566e+08
1.4647223e+08
1.3639851e+08
1.2704446e+08
1.1849974e+08
1.1082774e+08
1.0403693e+08
98061382
92819926
88228882
84249048
80756648
77740763
75104093
72798516
70793324
69052403
67547573
66258118
65170658
64279115
63584873
63097154
62833493
62820323
63093672
63699966
64696914
66154342
68154775
70793837
74066631
78242422
83442563
89516163
96848404
0.27879985
2366.9375
392316.33
7020800.8
35871927
90082647
1.4984045e+08
1.951725e+08
2.1941002e+08
2.2555558e+08
2.1971737e+08
2.0751876e+08
1.9253275e+08
1.770277e+08
1.620875e+08
1.484496e+08
1.3635552e+08
1.2573882e+08
1.164873e+08
1.084709e+08
1.0153689e+08
95539650
90351346
85877519
81995948
78634016
75751477
73240957
71056225
69164926
67533206
66135956
64956266
63985165
63221609
62672765
62354425
62291535
62518866
63081806
64037265
65454555
67416008
70017889
0.87859631
12065.39
1686981.1
22189605
86076736
1.7457766e+08
2.4773376e+08
2.8710274e+08
2.9624389e+08
2.8578063e+08
2.6571962e+08
2.4209121e+08
2.1825457e+08
1.9615864e+08
1.7649519e+08
1.5940156e+08
1.4472529e+08
1.3218746e+08
1.2149033e+08
1.1236601e+08
1.0457248e+08
97901093
92179846
87272724
83046492
79404512
76265597
73581361
71253974
69232161
67490400
65999821
64740398
63700610
62877263
62275700
61910166
61804289
61991715
62516901
63436012
64817807
66744073
69310039
3.7426938
73964.485
7454789.6
66751307
1.9169628e+08
3.1329775e+08
3.8192474e+08
3.9764951e+08
3.8043919e+08
3.4800803e+08
3.1094235e+08
2.7458948e+08
2.4183139e+08
2.1346658e+08
1.8935381e+08
1.6908154e+08
1.5206728e+08
1.3781309e+08
1.258353e+08
1.1573596e+08
1.07189e+08
99927570
93739466
88455966
83928884
80042928
76702671
73827114
71393270
69264257
67427491
65856455
64528385
63429524
62554783
61907902
61501762
61358824
61511745
62004143
62891498
64241985
66136558
68670345
23.963825
538569.92
32410136
1.8473946e+08
3.8786905e+08
5.145251e+08
5.4597764e+08
5.1747865e+08
4.6567275e+08
4.0749297e+08
3.5188758e+08
3.0351154e+08
2.6253192e+08
2.285053e+08
2.0044352e+08
1.7740194e+08
1.5835198e+08
1.4262051e+08
1.2954423e+08
1.1860921e+08
1.0941632e+08
1.0164765e+08
95057032
89450026
84663545
80567337
77053799
74026716
71473169
69270113
67351626
65711483
64324549
63175075
62256321
61570617
61129651
60954867
61078045
61542060
62401772
63724795
65591256
68096587
262.4723
4455057.9
1.3082204e+08
4.5336387e+08
6.9900788e+08
7.6632249e+08
7.2169417e+08
6.3419149e+08
5.4373134e+08
4.5855611e+08
3.8646138e+08
3.2779831e+08
2.7979973e+08
2.4102926e+08
2.0966998e+08
1.8435845e+08
1.6359933e+08
1.4664578e+08
1.3265787e+08
1.2102512e+08
1.1129036e+08
1.030929e+08
96160046
90277847
85270110
80994573
77334179
74190673
71506670
69252767
67268820
65569512
64132303
62939642
61983341
61264504
60793780
60591727
60689360
61128903
61964660
63263750
65105607
67586036
5593.7238
38185091
4.5691066e+08
9.5106228e+08
1.1045884e+09
1.0302524e+09
8.8243585e+08
7.3504105e+08
6.0581508e+08
4.981697e+08
4.1323188e+08
3.4686646e+08
2.9340666e+08
2.509945e+08
2.1705145e+08
1.900222e+08
1.6786713e+08
1.4994882e+08
1.3523044e+08
1.2303004e+08
1.1285053e+08
1.0429603e+08
97075622
90961588
85766964
81339864
77555538
74310862
71526681
69213063
67184591
65434214
63954255
62724914
61736723
60989730
60493689
60268387
60344180
60762721
61577834
62856211
64676763
67135597
245692.85
2.9190105e+08
1.2770207e+09
1.6538532e+09
1.5182691e+09
1.2515446e+09
1.0069237e+09
8.0522886e+08
6.4743375e+08
5.2490302e+08
4.3166395e+08
3.6072725e+08
3.0342737e+08
2.5853599e+08
2.2288212e+08
1.9442216e+08
1.7118262e+08
1.5260591e+08
1.3732443e+08
1.2467368e+08
1.1413735e+08
1.0528929e+08
97829588
91521951
86170902
81616832
77728704
74398525
71535858
69159847
67101536
65308328
63792312
62531990
61516856
60746062
60228594
59983577
60040799
60441422
61238858
62499451
64301728
66742014
18810746
1.6161775e+09
2.6547263e+09
2.3460253e+09
1.8197692e+09
1.3923907e+09
1.0745941e+09