/*--------------------------------*- C++ -*----------------------------------*\
| =========                 |                                                 |
| \\      /  F ield         | OpenFOAM: The Open Source CFD Toolbox           |
|  \\    /   O peration     | Version:  2312                                  |
|   \\  /    A nd           | Website:  www.openfoam.com                      |
|    \\/     M anipulation  |                                                 |
\*---------------------------------------------------------------------------*/
FoamFile
{
    version     2.0;
    format      ascii;
    arch        "LSB;label=32;scalar=64";
    class       volScalarField;
    location    "0.01";
    object      T;
}
// * * * * * * * * * * * * * * * * * * * * * * * * * * * * * * * * * * * * * //

dimensions      [0 0 0 1 0 0 0];

internalField   nonuniform List<scalar> 
3221
(
302.06458
306.39946
310.9626
315.75268
320.76642
325.99866
331.4423
337.0883
342.9257
348.94155
355.12105
361.44752
367.90248
374.46586
381.11613
387.8305
394.58515
401.35545
408.11625
414.84212
421.50767
428.08786
434.55828
440.89548
447.07727
453.08298
458.89364
464.41948
469.76467
474.88765
479.75446
484.3025
488.59875
492.63996
496.39403
499.82315
502.9721
505.85315
508.44527
510.75219
512.7789
514.53157
516.01746
517.24481
518.22275
518.96114
519.47049
519.7618
519.84579
519.73593
519.44188
518.97586
302.08238
306.45516
311.05939
315.89387
320.95546
326.23905
331.7376
337.44206
343.34144
349.42273
355.67104
362.06955
368.59963
375.241
381.97193
388.76939
395.60928
402.46671
409.31622
416.13209
422.88864
429.56054
436.1231
442.5526
448.82662
454.92423
460.82625
466.44084
471.87167
477.08273
482.03621
486.66805
491.04239
495.16476
498.99818
502.50375
505.71939
508.67079
511.33061
513.70209
515.79023
517.60115
519.14203
520.42107
521.44732
522.23064
522.78151
523.111
523.22974
523.15165
522.88652
522.44567
302.11668
306.56216
311.24448
316.16275
321.31406
326.6935
332.29412
338.10691
344.12083
350.32278
356.69768
363.22848
369.89623
376.68034
383.55867
390.50775
397.50301
404.51902
411.52983
418.50918
425.43086
432.26902
438.99849
445.5951
452.03596
458.29974
464.36684
470.14161
475.72702
481.09687
486.20669
490.99279
495.50733
499.77571
503.75206
507.39729
510.74355
513.81728
516.60032
519.08999
521.29106
523.20947
524.85224
526.22742
527.34396
528.21159
528.84073
529.24235
529.42786
529.40937
529.19856
528.80579
302.16559
306.71454
311.50763
316.54424
321.82174
327.33543
333.0785
339.04199
345.21478
351.58365
358.13329
364.84628
371.7033
378.68327
385.76349
392.9199
400.12726
407.35947
414.58984
421.7914
428.93725
436.00086
442.9564
449.77907
456.44541
462.93354
469.22332
475.21367
481.00656
486.58771
491.89855
496.92143
501.61636
506.076
510.23812
514.09529
517.6149
520.84991
523.80092
526.45269
528.8094
530.87659
532.66105
534.1706
535.414
536.40084
537.1414
537.64659
537.92781
537.99635
537.86549
537.54453
302.22718
306.90629
311.83845
317.02328
322.45837
328.13921
334.05909
340.20906
346.57793
353.15228
359.91648
366.85268
373.94106
381.15993
388.48593
395.89423
403.35877
410.85263
418.34824
425.81778
433.2335
440.56805
447.79484
454.88838
461.82451
468.58074
475.13633
481.38352
487.42379
493.25899
498.82114
504.09936
509.02951
513.71983
518.11236
522.19888
525.93925
529.3709
532.52472
535.37459
537.92195
540.17215
542.13174
543.80828
545.21029
546.34714
547.22893
547.8664
548.27074
548.45336
548.42702
548.20189
302.29963
307.13177
312.22724
317.58584
323.20532
329.08127
335.20702
341.57356
348.16956
354.98133
361.9928
369.1856
376.53932
384.03153
391.63804
399.33314
407.08984
414.88021
422.67571
430.44753
438.16699
445.80583
453.33664
460.73315
467.97056
475.02573
481.87745
488.41042
494.72655
500.84591
506.68855
512.24418
517.4382
522.38687
527.03533
531.36808
535.37898
539.03808
542.40963
545.48431
548.24956
550.71014
552.87221
554.74302
556.33078
557.64454
558.69414
559.49006
560.04337
560.36558
560.46772
560.36249
302.38132
307.38596
312.66539
318.2195
324.04611
330.14084
336.49695
343.10528
349.95425
357.02977
364.31519
371.79157
379.4377
387.23032
395.14427
403.1528
411.22786
419.3404
427.46079
435.55916
443.60578
451.57149
459.428
467.14831
474.70695
482.0803
489.24677
496.08289
502.69227
509.11335
515.25312
521.10121
526.5751
531.79921
536.72285
541.32723
545.61061
549.52786
553.13039
556.45005
559.45375
562.14569
564.53179
566.61896
568.41501
569.92864
571.16932
572.14721
572.87307
573.35808
573.61338
573.6504
302.47089
307.6646
313.14557
318.91371
324.96681
331.30039
337.90753
344.7788
351.90222
359.26311
366.84418
374.6257
382.58555
390.69944
398.9411
407.28261
415.6947
424.14711
432.60901
441.04937
449.43743
457.74304
465.93712
473.99195
481.88154
489.58186
497.07116
504.21722
511.12745
517.85695
524.30019
530.44691
536.20689
541.71404
546.9213
551.80564
556.3669
560.55548
564.4149
567.97943
571.2352
574.17331
576.79938
579.11988
581.14222
582.87461
584.32609
585.50639
586.42587
587.09541
587.52634
587.72756
302.56722
307.96425
313.66189
319.65998
325.95618
332.54577
339.42151
346.57357
353.98936
361.65346
369.54775
377.65154
385.9416
394.39243
402.97649
411.6645
420.42586
429.22896
438.04169
446.83183
455.56754
464.21774
472.75259
481.14377
489.36488
497.3917
505.20246
512.65585
519.86612
526.90125
533.64512
540.08786
546.13133
551.92054
557.41025
562.57183
567.40227
571.89732
576.01441
579.81815
583.33276
586.52588
589.4024
591.96826
594.23031
596.19628
597.87464
599.27459
600.40598
601.27919
601.90503
602.29373
302.66947
308.28229
314.20986
320.45185
327.00565
333.86619
341.02575
348.47388
356.19719
364.17932
372.40113
380.84071
389.47353
398.27267
407.20911
416.25207
425.36943
434.52814
443.69472
452.83576
461.91831
470.91046
479.78167
488.5032
497.04843
505.39312
513.51572
521.26561
528.76788
536.0976
543.13121
549.85954
556.1764
562.24023
568.0056
573.44052
578.54339
583.31528
587.70197
591.75574
595.52108
598.97326
602.10585
604.92439
607.43521
609.64546
611.56304
613.1965
614.55506
615.64855
616.48728
617.0814
302.77705
308.61691
314.78636
321.28481
328.10928
335.25412
342.711
350.46862
358.51252
366.82522
375.38629
384.17235
393.15732
402.31261
411.60752
421.00956
430.48496
439.99913
449.51716
459.0044
468.42691
477.75197
486.94855
495.98764
504.84262
513.48952
521.90723
529.93578
537.71581
545.32208
552.62766
559.62439
566.19799
572.52305
578.55028
584.24578
589.60726
594.63214
599.31602
603.61413
607.61296
611.32213
614.71145
617.78548
620.5499
623.01121
625.17662
627.05397
628.65172
629.97894
631.04518
631.8598
302.88963
308.96703
315.38957
322.15626
329.26355
336.70511
344.47173
352.55099
360.92714
369.58131
378.49147
387.63251
396.97648
406.4929
416.14912
425.91077
435.74226
445.60736
455.46972
465.29346
475.04372
484.68715
494.19238
503.5304
512.67488
521.60236
530.29251
538.57609
546.61434
554.47336
562.02748
569.2698
576.07815
582.64635
588.91671
594.85611
600.46322
605.73768
610.68161
615.22943
619.45691
623.41236
627.05561
630.38409
633.40311
636.11854
638.53683
640.66503
642.51076
644.08222
645.38812
646.43715
303.00708
309.3323
316.01889
323.06531
330.46726
338.21755
346.3058
354.71816
363.43739
372.44287
381.71062
391.21349
400.92136
410.80155
420.81923
430.93793
441.12012
451.32784
461.52329
471.66946
481.73069
491.67318
501.4655
511.07889
520.48762
529.66914
538.60421
547.1146
555.38706
563.4706
571.24529
578.70586
585.72288
592.51254
599.00355
605.16614
610.99987
616.50583
621.68866
626.47969
630.94059
635.11804
639.00809
642.58628
645.85739
648.82658
651.49949
653.88226
655.98158
657.80469
659.35938
660.65363
303.1295
309.71302
316.67482
324.01266
331.7213
339.79242
348.21417
356.97099
366.04377
375.40979
385.04278
394.91315
404.98829
415.233
425.61
436.08054
446.60503
457.14374
467.65747
478.10819
488.45963
498.67783
508.73154
518.59262
528.23629
537.64131
546.78996
555.49551
563.97458
572.25127
580.21518
587.86278
595.0595
602.0464
608.73296
615.09508
621.13254
626.84568
632.23457
637.29483
641.96901
646.34284
650.46865
654.2889
657.80665
661.02625
663.95246
666.59048
668.94599
671.02518
672.83476
674.38186
303.25717
310.11006
317.35889
325.00049
333.02851
341.43313
350.20068
359.3136
368.7505
378.48614
388.49154
398.73427
409.17886
419.78724
430.51946
441.33429
452.19
463.0451
473.8591
484.59313
495.2106
505.67767
515.96367
526.04142
535.88747
545.48229
554.81026
563.67685
572.33229
580.76914
588.88883
596.68775
604.03424
611.19291
618.04859
624.58536
630.80376
636.70518
642.29199
647.56831
652.45102
657.0305
661.3639
665.41662
669.17319
672.6373
675.81286
678.70408
681.31559
683.65246
685.72027
687.52518
303.39056
310.52486
318.07356
326.03236
334.39348
343.14524
352.27178
361.75314
371.56519
381.67969
392.06449
402.68389
413.49912
424.46899
435.55055
446.69999
457.87337
469.02755
480.1209
491.11402
501.97033
512.65655
523.14297
533.40376
543.41715
553.16565
562.6363
571.62808
580.42786
588.99227
597.23577
605.13887
612.61045
619.9152
626.91275
633.59804
639.97278
646.0395
651.8021
657.26784
662.35335
667.13085
671.64669
675.91944
679.90473
683.6052
687.0238
690.16375
693.02856
695.62214
697.94888
700.01387
303.53029
310.95937
318.8222
327.11309
335.82246
344.93635
354.43632
364.29949
374.49846
385.00149
395.77272
406.77271
417.95899
429.28685
440.71021
452.18252
463.6577
475.09108
486.4402
497.66551
508.73089
519.60409
530.2569
540.66526
550.80929
560.67354
570.24804
579.32785
588.23863
596.90081
605.25839
613.16151
620.77155
628.19204
635.30378
642.1107
648.61621
654.82348
660.7354
666.35318
671.67005
676.61761
681.29454
685.76795
689.97056
693.89755
697.551
700.93313
704.04635
706.89334
709.47726
711.80209
303.67713
311.41602
319.609
328.24869
337.32325
346.81596
356.70535
366.965
377.56369
388.46552
399.63038
411.01456
422.57148
434.25262
446.00853
457.78994
469.54874
481.239
492.81781
504.24592
515.48828
526.5143
537.29788
547.81729
558.05466
567.99569
577.63232
586.76244
595.74812
604.46657
612.87918
620.81419
628.52118
636.0168
643.21302
650.11463
656.72602
663.05123
669.09403
674.85783
680.34653
685.46005
690.30665
694.9513
699.35845
703.50072
707.37929
710.99534
714.35017
717.44524
720.28244
722.8646
303.83203
311.8977
320.43897
329.44631
338.90509
348.79538
359.092
369.76438
380.77672
392.08834
403.65425
415.42591
427.3522
439.38052
451.45798
463.53261
475.55451
487.47689
499.25687
510.85614
522.24135
533.38429
544.26181
554.85538
565.1496
575.12912
584.7799
593.92608
602.95345
611.69228
620.12307
628.07249
635.84614
643.38751
650.64087
657.6116
664.3049
670.72568
676.87867
682.76848
688.40128
693.67457
698.68202
703.4731
708.07107
712.41643
716.5092
720.34953
723.93761
727.27371
730.35841
733.1934
303.99606
312.40777
321.3179
330.7142
340.5787
350.88764
361.61141
372.71446
384.15568
395.88882
407.86335
420.02534
432.31873
444.68661
457.07264
469.42235
481.68443
493.81171
505.76202
517.49866
528.99073
540.21315
551.14653
561.77676
572.0929
582.07813
591.67963
600.82165
609.85971
618.58567
626.99684
634.93714
642.74928
650.31069
657.59617
664.61206
671.36443
677.85896
684.10065
690.09299
695.83377
701.29579
706.43662
711.35362
716.12276
720.65858
724.95377
729.00768
732.81942
736.38806
739.7129
742.79448
304.17044
312.95007
322.25235
332.06173
342.35624
353.10752
364.28061
375.83416
387.72079
399.8879
412.27864
424.83316
437.4901
450.18812
462.86753
475.47172
487.94849
500.251
512.33853
524.17681
535.73813
547.0012
557.9509
568.57802
578.87925
588.85893
598.30396
607.47256
616.47652
625.16006
633.50151
641.42078
649.24341
656.8005
664.09465
671.13327
677.92331
684.47109
690.78175
696.85871
702.70213
708.3093
713.57691
718.62746
723.53805
728.25053
732.73567
736.99167
741.01652
744.80807
748.3644
751.68486
304.35655
313.52889
323.24971
333.49942
344.25133
355.47148
367.11857
379.14436
391.49426
404.10833
416.92267
429.87097
442.88629
455.90287
468.85796
481.69332
494.35659
506.80213
518.99159
530.89402
542.48574
553.74994
564.67603
575.25915
585.49982
595.40508
604.74172
613.88027
622.81199
631.44655
639.61195
647.55613
655.34566
662.87585
670.15676
677.19726
684.00524
690.58755
696.94968
703.09574
709.02844
714.75098
720.13579
725.31534
730.34593
735.22198
739.88446
744.33063
748.55737
752.56138
756.33951
759.88997
304.55595
314.14903
324.31818
335.03904
346.27913
357.99777
370.14615
382.66792
395.50009
408.57445
421.81926
435.16125
448.52774
461.84873
475.05889
488.09914
500.91787
513.47168
525.72565
537.65318
549.23558
560.46126
571.32479
581.82571
591.96669
601.75348
610.96807
620.03944
628.86205
637.38651
645.43161
653.35208
661.07736
668.55828
675.80562
682.82897
689.63684
696.23651
702.6338
708.83336
714.83921
720.65665
726.14906
731.45126
736.58167
741.60735
746.4345
751.05871
755.47572
759.68115
763.67063
767.44129
304.77037
314.81579
325.46694
336.69363
348.45642
360.7065
373.38617
386.42955
399.76404
413.31203
426.9932
440.72693
454.43481
468.04302
481.48439
494.69998
507.64012
520.26485
532.54389
544.45611
555.98877
567.13644
577.89983
588.28415
598.29387
607.90505
616.9851
625.95981
634.64834
643.01427
650.9513
658.81632
666.45715
673.86986
681.0657
688.05484
694.84631
701.44761
707.86472
714.10229
720.16431
726.05736
731.6544
737.06989
742.29296
747.4432
752.42307
757.21323
761.80872
766.20413
770.39401
774.37442
305.00168
315.53511
326.70619
338.47769
350.80169
363.61971
376.86344
390.45593
404.31347
418.34801
432.46991
446.59098
460.62734
474.50201
488.14703
501.5049
514.52926
527.18499
539.44775
551.30303
562.745
573.7752
584.40155
594.63896
604.51624
613.82447
622.80767
631.65457
640.21128
648.30872
656.19635
663.96444
671.50512
678.83343
685.96204
692.90189
699.66242
706.25121
712.67411
718.93512
725.0357
730.97165
736.71993
742.19619
747.51677
752.76969
757.88932
762.83319
767.59526
772.16909
776.54812
780.72737
305.252
316.31356
328.04726
340.40725
353.33537
366.76153
380.60489
394.77557
409.17724
423.71025
438.27509
452.77597
467.12408
481.24034
495.05739
508.52071
521.58889
534.2332
546.4366
558.19232
569.50229
580.37538
590.82569
600.87215
610.54362
619.60536
628.46331
637.12177
645.48464
653.37898
661.18355
668.81871
676.24297
683.47215
690.51964
697.39698
704.11377
710.67757
717.09406
723.36684
729.49704
735.48252
741.32026
746.87227
752.28712
757.62472
762.87207
767.95778
772.87473
777.61546
782.17229
786.53928
305.52371
317.15851
329.50275
342.50009
356.07995
370.15836
384.63962
399.4189
414.38558
429.42731
444.43433
459.30356
473.94221
488.27054
502.22354
515.75155
528.81995
541.40805
553.50748
565.12035
576.25715
586.93446
597.17214
606.99019
616.41244
625.2346
633.93455
642.379
650.50222
658.22449
665.91235
673.39762
680.69121
687.80837
694.76274
701.56612
708.22807
714.75609
721.1556
727.43004
733.58072
739.60719
745.50981
751.13069
756.6419
762.04652
767.40933
772.62552
777.68606
782.58236
787.30575
791.84932
305.81944
318.07816
331.08672
344.77595
359.06027
373.83903
388.99907
404.41822
419.96987
435.52806
450.97263
466.19398
481.09675
495.60244
509.65056
523.19849
536.22039
548.7053
560.65495
572.08133
583.00423
593.4486
603.44069
613.00087
622.12083
630.71429
639.22406
647.45534
655.24126
662.87538
670.39245
677.71735
684.86889
691.86322
698.71433
705.43401
712.0317
718.51466
724.88808
731.15519
737.31738
743.37458
749.32596
754.99545
760.62409
766.0768
771.53711
776.87359
782.06695
787.10789
791.9868
796.69589
306.14218
319.08172
332.81487
347.25683
362.30375
377.83507
393.71703
409.80762
425.9625
442.04134
457.91397
473.46548
488.60001
503.24272
517.34017
530.85923
543.78494
556.11783
567.87099
579.0672
589.73624
599.91203
609.62938
618.92589
627.62717
636.06818
644.3286
652.27838
659.82151
667.31568
674.64089
681.79411
688.79388
695.65647
702.39594
709.02384
715.54935
721.97941
728.31889
734.57074
740.73625
746.8154
752.80715
758.52977
764.22757
769.75187
775.29121
780.73772
786.05355
791.22855
796.25228
801.11608
306.49525
320.17953
334.70486
349.96725
365.84075
382.18091
398.82985
415.62295
432.3965
448.99549
465.28065
481.13377
496.46108
511.19442
525.29035
538.72784
551.50502
563.63554
575.14502
586.06779
596.44407
606.31721
615.72737
624.67216
633.04513
641.28009
649.28189
656.84808
664.24431
671.54377
678.66896
685.64223
692.48258
699.20639
705.82749
712.35707
718.80391
725.17453
731.47338
737.70303
743.86452
749.95788
755.98284
761.75466
767.50132
773.09811
778.70422
784.25147
789.67998
794.97897
800.13718
805.14518
306.88246
321.38332
336.77658
352.93472
369.70492
386.91417
404.37644
421.90161
439.30522
456.41784
473.09278
489.21132
504.68522
519.4565
533.49502
546.79462
559.36864
571.24539
582.46397
593.07074
603.1167
612.65694
621.75907
630.23531
638.35366
646.33281
654.00431
661.27793
668.49911
675.57037
682.48808
689.27496
695.9501
702.52973
709.02727
715.45342
721.81644
728.1223
734.37491
740.57631
746.72708
752.82713
758.8779
764.6971
770.48015
776.14618
781.8071
787.44635
792.97824
798.39158
803.67439
808.81648
307.30812
322.70637
339.05254
356.19014
373.93365
392.07597
410.39838
428.68237
446.72185
464.33402
481.3675
497.70679
513.27338
528.02353
541.9439
555.04601
567.36048
578.93156
589.81249
600.06176
609.74008
618.908
627.62734
635.69861
643.57139
651.24715
658.49377
665.57585
672.56841
679.40408
686.10867
692.70443
699.21019
705.64178
712.01199
718.33091
724.60616
730.84305
737.04482
743.21277
749.34661
755.44519
761.51078
767.38589
773.19374
778.92682
784.62996
790.35181
795.97808
801.4966
806.89458
812.16108
307.77717
324.16391
341.55839
359.76838
378.56854
397.71115
416.93984
436.00503
454.67883
472.76732
490.11831
506.6244
522.22175
536.88534
550.62233
563.46465
575.462
586.67559
597.17322
607.02556
616.30283
625.0691
633.34959
641.05935
648.64525
655.9435
662.85869
669.72786
676.4568
683.05236
689.54006
695.94161
702.27535
708.55639
714.79679
721.00589
727.19056
733.35534
739.50264
745.63286
751.74434
757.83258
763.88574
769.85768
775.66674
781.47018
787.20297
792.99456
798.70684
804.32185
809.8261
815.20782
308.29532
325.77345
344.32347
363.70894
383.65598
403.86863
424.04759
443.90997
463.20719
481.73785
499.35432
515.9633
531.52131
546.02688
559.51128
572.02942
583.65158
594.4566
604.52691
613.94531
622.79282
631.1523
638.88796
646.32689
653.58114
660.41599
667.10975
673.70812
680.16929
686.5219
692.7906
698.99638
705.15682
711.28609
717.39539
723.4932
729.5855
735.67598
741.76617
747.85547
753.941
760.01669
766.07088
772.08591
777.89893
783.80646
789.55613
795.39941
801.1895
806.89286
812.49499
817.98329
308.86921
327.55526
347.38155
368.05673
389.24775
410.60163
431.77072
452.43761
472.3357
491.26167
509.07948
525.71707
541.15761
555.4281
568.58746
580.7157
591.90481
602.25154
611.85254
620.80209
629.18818
637.05743
644.34972
651.46039
658.30323
664.7764
671.21689
677.5186
683.7101
689.81861
695.86777
701.87765
707.86474
713.84219
719.8202
725.80624
731.80534
737.82025
743.85157
749.89774
755.95493
762.01652
768.0726
774.11376
779.95001
785.91257
791.70167
797.58807
803.44866
809.23281
814.92505
820.51182
309.50661
329.533
350.77173
372.86305
395.40176
417.9679
440.16036
461.6276
482.08991
501.34988
519.29187
535.87325
551.11055
565.06406
577.82346
589.49559
600.19478
610.03552
619.12783
627.57786
635.4938
642.76869
649.73026
656.44556
662.80493
669.03305
675.15527
681.16096
687.08285
692.94774
698.7783
704.5934
710.40829
716.23494
722.08242
727.95712
733.86304
739.80192
745.77342
751.77508
757.80231
763.84828
769.90438
775.96359
781.82422
787.8247
793.65619
799.57966
805.50462
811.36267
817.13799
822.81557
310.21671
331.73447
354.53956
378.18667
402.18274
426.02983
449.2692
471.51793
492.49113
512.00771
529.98306
546.41306
561.35436
574.90506
587.18813
598.3383
608.49244
617.78209
626.32886
634.24767
641.61041
648.3884
654.99664
661.19029
667.21246
673.1311
678.9275
684.63718
690.29084
695.91408
701.52827
707.15088
712.79577
718.47361
724.19221
729.95681
735.77031
741.63344
747.54487
753.5013
759.49749
765.52644
771.58018
777.65225
783.53445
789.56504
795.43748
801.39197
807.3758
813.30128
819.15408
824.91536
311.01047
334.19264
358.73843
384.09523
409.66312
434.85449
459.15077
482.14386
503.5553
523.23365
541.13763
557.31119
571.8577
584.91695
596.64692
607.21059
616.76703
625.46385
633.43186
640.81118
647.52139
653.9045
660.04266
665.79914
671.49566
677.0601
682.53272
687.94867
693.33705
698.72197
704.12325
709.55673
715.03477
720.56662
726.15878
731.81524
737.53776
743.32602
749.17773
755.08877
761.05328
767.064
773.11315
779.19414
785.09445
791.1505
797.06219
803.04168
809.07912
311.9011
336.94693
363.43139
390.66679
417.92378
444.51348
469.85849
493.53665
515.29182
535.01866
552.73274
568.53581
582.58392
595.06153
606.16245
616.07731
624.98657
633.05299
640.40578
647.17408
653.33252
659.27695
664.86333
670.29225
675.60624
680.81827
685.97056
691.09678
696.2243
701.3755
706.56838
711.81705
717.13225
722.52171
727.99053
733.54144
739.175
744.88983
750.68268
756.54861
762.48116
768.47272
774.51533
780.602
786.51693
792.59486
798.5458
804.5445
810.63068
312.9047
340.0449
368.69333
397.99171
427.0549
455.08248
481.44456
505.72218
527.70254
547.34552
564.73799
580.04872
593.49142
605.2971
615.69509
624.9019
633.11842
640.52503
647.23687
653.32113
659.03591
664.39724
669.57277
674.61204
679.54068
684.404
689.24096
694.08295
698.95535
703.87854
708.86852
713.93755
719.09465
724.34597
729.69517
735.14364
740.69075
746.33404
752.06932
757.89083
763.79149
769.76322
775.79767
781.88721
787.81308
793.90887
799.90317
805.91561
812.04357
314.04112
343.54451
374.61379
406.17484
437.15666
466.64062
493.95852
518.71962
540.78078
560.18851
577.11545
591.80568
604.53414
615.57896
625.2036
633.647
641.12852
647.85838
653.81783
659.36854
664.4887
669.37162
674.12463
678.74643
683.29541
687.81597
692.34417
696.90883
701.53303
706.2349
711.02831
715.9236
720.92799
726.046
731.27978
736.62938
742.09298
747.66701
753.34636
759.12448
764.99361
770.94516
776.97019
783.06013
788.99284
795.09891
801.14986
807.17014
813.33082
315.33516
347.51711
381.30057
415.33797
448.33977
479.26951
507.44575
532.54019
554.5107
573.51316
589.81988
603.75686
615.6621
625.86006
634.64594
642.27521
648.97898
654.95519
660.23295
665.20928
669.76106
674.19155
678.48319
682.69153
686.86787
691.05337
695.28083
699.57629
703.96023
708.44832
713.05225
717.78034
722.63795
727.62793
732.75092
738.00561
743.38896
748.89635
754.52172
760.25773
766.09598
772.02728
778.04204
784.13052
790.06607
796.16323
802.305
808.32158
814.50499
316.81831
352.05149
388.8842
425.62255
460.72571
493.05184
521.94593
547.18619
568.86691
587.27647
602.79915
615.84743
626.822
636.09139
643.98011
650.75116
656.64741
661.79889
666.4928
670.79233
674.87118
678.80149
682.64082
686.44358
690.25617
694.11591
698.05203
702.08752
706.23999
710.52259
714.94475
719.51269
724.22991
729.09755
734.11471
739.27874
744.5854
750.029
755.60258
761.29803
767.10628
773.01756
779.02163
785.10778
791.0465
797.14923
803.34011
809.37276
815.57553
318.53114
357.25941
397.52362
437.19268
474.44661
508.06995
537.49189
562.65054
583.81464
601.42728
615.99473
628.01821
637.95785
646.2224
653.16489
659.03977
664.03278
668.48114
672.47291
676.21101
679.75583
683.19436
686.59207
689.99966
693.45918
697.00394
700.65932
704.44497
708.37554
712.46157
716.71017
721.12546
725.70903
730.46031
735.37688
740.45475
745.68848
751.07136
756.59554
762.25214
768.03147
773.9232
779.91651
786
791.94238
798.05411
804.27702
810.33058
816.55082
320.52695
363.28315
407.41323
450.238
489.64464
524.40443
554.10668
578.91261
599.30591
615.90421
629.34167
640.20634
649.01164
656.20083
662.16118
667.03631
671.21184
674.89457
678.25498
681.39777
684.40623
687.36432
690.33307
693.35786
696.47655
699.71846
703.1047
706.65145
710.37032
714.2692
718.35286
722.62332
727.08026
731.7214
736.54283
741.5392
746.70393
752.02931
757.50661
763.12624
768.87789
774.75072
780.73345
786.81423
792.76044
798.88148
805.1283
811.20286
817.43868
322.8772
370.30611
418.79171
464.97661
506.47109
542.12624
571.79227
595.92868
615.27346
630.63223
642.76673
652.34529
659.92425
665.97185
670.86484
674.78693
678.12369
681.08311
683.78557
686.333
688.81554
691.30683
693.86143
696.51734
699.30869
702.26111
705.39065
708.71011
712.22796
715.9495
719.87716
724.01086
728.3484
732.8858
737.61765
742.53732
747.63709
752.90828
758.34133
763.92597
769.65131
775.50604
781.47853
787.55667
793.5068
799.63664
805.90276
811.99697
818.24634
325.67984
378.56748
431.95256
481.65755
525.07513
561.2796
590.51758
613.62598
631.62804
645.5212
656.18724
664.36463
670.63683
675.49239
679.25058
682.24962
684.77407
686.99751
689.04042
691.00671
692.978
695.01865
697.17622
699.47827
701.95672
704.63423
707.52014
710.62442
713.95234
717.50662
721.28743
725.29263
729.51812
733.95827
738.60619
743.45402
748.49293
753.71331
759.10483
764.65653
770.35699
776.19451
782.15719
788.23288
794.18705
800.32508
806.60745
812.71952
818.98037
329.07252
388.38305
447.2567
500.55269
545.58276
581.86753
610.21107
631.89999
648.25855
660.46724
669.51254
676.19088
681.08948
684.66106
687.34049
689.42142
691.12005
692.60822
694.00832
695.41133
696.88935
698.49775
700.27804
702.24178
704.42236
706.84087
709.49654
712.39818
715.54752
718.9448
722.58806
726.47311
730.59398
734.9434
739.51309
744.29395
749.27613
754.44912
759.80183
765.32268
770.99975
776.82098
782.77432
788.84776
794.80634
800.95198
807.24819
813.37631
819.64665
333.25373
400.17432
465.14101
521.93725
568.07586
603.83773
630.75455
650.61354
665.03356
675.35506
682.6458
687.74992
691.16821
693.50215
695.10799
696.26202
697.12964
697.90186
698.68064
699.54149
700.54696
701.74313
703.16939
704.80983
706.70764
708.88496
711.3236
714.03552
717.01775
720.26838
723.78343
727.55671
731.5804
735.84563
740.34276
745.06152
749.99107
755.12008
760.43672
765.92883
771.58402
777.3899
783.3343
789.40563
795.36939
801.52208
807.82999
813.97244
820.25036
338.51753
414.50884
486.11729
546.0608
592.56603
627.06902
651.97956
669.5982
681.80443
690.06122
695.48573
698.91708
700.88534
701.98138
702.50348
702.72271
702.7949
702.8732
703.05141
703.39394
703.94985
704.75435
705.83269
707.18354
708.83804
710.77234
713.0052
715.54085
718.36744
721.48175
724.87795
728.54782
732.48174
736.66926
741.09944
745.7609
750.6419
755.73029
761.01359
766.47907
772.11389
777.90532
783.84106
789.91011
795.88059
802.03963
808.35747
814.51284
820.79647
345.31071
432.14737
510.75283
573.10459
618.96534
651.36081
673.6675
688.65832
698.40977
704.45826
707.93804
709.64253
710.18513
710.03611
709.49288
708.79809
708.09608
707.50945
707.11621
706.9674
707.09893
707.53499
708.29058
709.36657
710.77659
712.51659
714.55714
716.919
719.60115
722.58936
725.87599
729.45077
733.30224
737.41844
741.78718
746.39608
751.23252
756.28361
761.53625
766.97718
772.59312
778.37098
784.29818
790.36405
354.32654
454.09945
539.62683
603.12229
647.05822
676.42865
695.55437
707.57759
714.68101
718.41816
719.8801
719.90168
719.00994
717.6268
716.04507
714.47019
713.0246
711.80591
710.87324
710.26252
709.99665
710.08891
710.54551
711.36459
712.54891
714.09167
715.98219
718.18707
720.72349
723.59566
726.78192
730.26983
734.04605
738.09718
742.4099
746.97085
751.76662
756.78365
762.00827
767.4267
773.02524
778.79039
784.70898
790.7691
366.66619
481.67738
573.23733
635.96783
676.48145
701.90848
717.34051
726.12789
730.44868
731.79097
731.27646
729.614
727.30047
724.7239
722.14086
719.72695
717.57451
715.7605
714.32301
713.28179
712.64682
712.42078
712.60175
713.18326
714.16035
715.52271
717.25765
719.35193
721.74532
724.50509
727.6001
731.00921
734.71724
738.70941
742.97134
747.48882
752.24771
757.23383
762.43298
767.83092
773.41353
779.16686
785.07694
791.13121
384.11793
516.50242
611.83893
671.22389
706.72035
727.37109
738.7045
744.07954
745.52394
744.52095
742.01455
738.71179
735.02435
731.3024
727.76498
724.56082
721.74273
719.37366
717.46822
716.02938
715.05457
714.53617
714.46469
714.82853
715.61659
716.81489
718.40863
720.38838
722.68216
725.32239
728.33481
731.67308
735.31977
739.25888
743.4751
747.95344
752.6791
757.63736
762.81352
768.19293
773.76106
779.50352
785.40559
791.4544
409.64377
560.35808
655.21056
708.15504
737.12785
752.3463
759.32003
761.18295
759.8295
756.4551
752.01858
747.15399
742.15066
737.34328
732.90627
728.96875
725.52886
722.64827
720.31359
718.51101
717.2262
716.44153
716.14058
716.30671
716.92362
717.97371
719.43926
721.30414
723.53226
726.05795
728.99027
732.26551
735.85752
739.74927
743.92464
748.36799
753.06394
757.99726
763.15283
768.5156
774.07069
779.80328
785.69806
791.74197
448.21122
614.68766
702.4013
745.71426
766.968
776.35411
778.87738
777.29286
773.17006
767.49914
761.23205
754.90686
748.65536
742.83379
737.55725
732.95259
728.93481
725.58954
722.86569
720.73377
719.16904
718.14404
717.63626
717.62445
718.08772
719.00501
720.35573
722.12072
724.27786
726.72247
729.57009
732.79055
736.33425
740.18408
744.32328
748.73562
753.40521
758.3164
763.45367
768.80164
774.34508
780.06884
785.95711
791.99674
508.03331
679.49379
751.57208
782.62247
795.47899
798.93801
797.1328
792.20171
785.41637
777.58829
769.60498
761.95033
754.5206
747.76769
741.74498
736.49933
731.9532
728.20494
725.13276
722.70592
720.89133
719.65152
718.95906
718.78868
719.11537
719.91482
721.16375
722.84085
724.92886
727.31535
730.0806
733.25229
736.75363
740.56674
744.6742
749.05931
753.70575
758.59748
763.71864
769.05355
774.58671
780.30266
786.18524
792.22118
601.21503
751.72694
800.08645
817.51721
821.9452
819.74287
813.85482
805.67773
796.52071
786.66269
777.24814
768.14497
759.72039
752.14209
745.44559
739.63521
734.64617
730.47803
727.10478
724.43669
722.40211
720.97227
720.11667
719.80655
720.01319
720.70925
721.86894
723.46878
725.49109
727.83864
730.5281
733.65455
737.11919
740.9005
744.98044
749.3419
753.96822
758.84303
763.95018
769.27371
774.79788
780.50702
786.3847
792.41753
737.19377
824.23991
844.902
848.94235
845.80079
838.5005
828.66373
817.68603
806.43766
794.85924
783.82834
773.5928
764.27319
755.96315
748.66997
742.36607
736.98242
732.47957
728.78967
725.92189
723.71103
722.11494
721.11696
720.68533
720.78786
721.39443
722.47693
724.00955
725.96778
728.29483
730.92022
734.00058
737.4343