/*--------------------------------*- C++ -*----------------------------------*\
| =========                 |                                                 |
| \\      /  F ield         | OpenFOAM: The Open Source CFD Toolbox           |
|  \\    /   O peration     | Version:  2312                                  |
|   \\  /    A nd           | Website:  www.openfoam.com                      |
|    \\/     M anipulation  |                                                 |
\*---------------------------------------------------------------------------*/
FoamFile
{
    version     2.0;
    format      ascii;
    arch        "LSB;label=32;scalar=64";
    class       volScalarField;
    location    "0.08";
    object      CH4;
}
// * * * * * * * * * * * * * * * * * * * * * * * * * * * * * * * * * * * * * //

dimensions      [0 0 0 0 0 0 0];

internalField   nonuniform List<scalar> 
3257
(
0.01064183
0.010335201
0.010036462
0.0097455753
0.0094624719
0.0091870797
0.0089193254
0.0086591329
0.0084064224
0.0081611115
0.0079231151
0.0076923462
0.0074687161
0.0072521351
0.0070425128
0.0068397585
0.0066437813
0.006454491
0.0062717978
0.0060956128
0.0059258486
0.0057624189
0.0056052393
0.0054542271
0.0053093017
0.005170385
0.0050374008
0.0049102759
0.0047889396
0.0046733238
0.0045633638
0.0044589975
0.0043601663
0.0042668144
0.0041788898
0.0040963436
0.0040191306
0.0039472091
0.0038805411
0.0038190923
0.0037628323
0.0037117346
0.0036657767
0.0036249402
0.0035892109
0.0035585789
0.0035330386
0.0035125891
0.003497234
0.0034869818
0.0034818466
0.010663498
0.010355875
0.010056186
0.0097643885
0.0094804124
0.0092041852
0.0089356327
0.0086746778
0.0084212397
0.0081752345
0.0079365761
0.0077051762
0.007480945
0.0072637917
0.0070536246
0.0068503521
0.0066538822
0.0064641237
0.0062809857
0.0061043786
0.0059342139
0.0057704045
0.0056128652
0.0054615125
0.0053162651
0.0051770439
0.0050437724
0.0049163765
0.0047947848
0.0046789289
0.0045687433
0.0044641655
0.0043651363
0.0042715995
0.0041835026
0.0041007964
0.0040234352
0.0039513769
0.0038845833
0.0038230197
0.0037666554
0.0037154638
0.003669422
0.0036285114
0.0035927176
0.0035620306
0.0035364445
0.0035159582
0.0035005752
0.0034903057
0.0034851702
0.010704461
0.010394961
0.010093474
0.0097999578
0.0095143371
0.0092365373
0.008966482
0.0087040915
0.0084492827
0.0082019697
0.0079620638
0.0077294746
0.0075041101
0.0072858773
0.0070746826
0.0068704322
0.0066730324
0.0064823899
0.0062984121
0.0061210076
0.0059500863
0.0057855594
0.0056273402
0.0054753437
0.0053294873
0.0051896904
0.0050558753
0.0049279666
0.0048058918
0.0046895814
0.0045789688
0.0044739905
0.0043745864
0.0042806994
0.0041922763
0.0041092669
0.0040316249
0.0039593075
0.0038922759
0.0038304948
0.0037739331
0.0037225634
0.0036763626
0.0036353117
0.003599396
0.0035686048
0.0035429322
0.0035223764
0.0035069405
0.0034966339
0.0034914798
0.010762321
0.010450173
0.010146154
0.009850214
0.0095622757
0.0092822599
0.0090100866
0.0087456728
0.008488932
0.008239775
0.0079981099
0.0077638432
0.0075368798
0.0073171238
0.0071044788
0.006898848
0.006700135
0.0065082441
0.00632308
0.006144549
0.0059725585
0.0058070176
0.0056478373
0.0054949307
0.005348213
0.0052076019
0.0050730178
0.0049443837
0.0048216254
0.0047046718
0.0045934548
0.0044879096
0.0043879748
0.0042935921
0.004204707
0.0041212683
0.0040432287
0.0039705444
0.0039031758
0.0038410867
0.0037842453
0.0037326235
0.0036861977
0.0036449482
0.0036088597
0.0035779213
0.0035521266
0.0035314735
0.0035159647
0.0035056092
0.0035004309
0.010834819
0.010519364
0.010212179
0.0099132102
0.0096223743
0.0093395876
0.0090647657
0.0087978213
0.0085386637
0.0082871995
0.008043333
0.0078069667
0.0075780019
0.0073563388
0.0071418774
0.0069345177
0.0067341599
0.0065407047
0.0063540541
0.0061741111
0.0060007804
0.0058339682
0.0056735828
0.0055195348
0.0053717369
0.0052301045
0.0050945557
0.0049650113
0.0048413952
0.0047236344
0.0046116589
0.0045054022
0.0044048011
0.0043097961
0.0042203309
0.0041363532
0.0040578143
0.0039846694
0.0039168776
0.0038544018
0.0037972091
0.0037452708
0.0036985624
0.0036570635
0.0036207582
0.0035896351
0.0035636872
0.0035429121
0.003527312
0.0035168957
0.0035116872
0.01091982
0.010600497
0.010289609
0.0099870968
0.0096928701
0.0094068403
0.009128918
0.0088590107
0.0085970231
0.008342857
0.0080964121
0.0078575863
0.0076262764
0.0074023786
0.0071857886
0.0069764023
0.0067741161
0.006578827
0.0063904333
0.0062088344
0.0060339317
0.0058656281
0.0057038289
0.0055484416
0.0053993761
0.005256545
0.0051198639
0.0049892511
0.004864628
0.0047459195
0.0046330534
0.0045259612
0.0044245779
0.0043288419
0.0042386956
0.0041540849
0.0040749596
0.0040012737
0.0039329847
0.0038700547
0.0038124496
0.0037601395
0.0037130992
0.0036713074
0.0036347476
0.0036034076
0.0035772799
0.0035563616
0.0035406544
0.0035301666
0.0035249228
0.011015326
0.010691667
0.010376626
0.010070139
0.0097721084
0.0094824398
0.0092010381
0.0089278056
0.0086626414
0.0084054421
0.0081561021
0.0079145145
0.0076805711
0.0074541634
0.0072351823
0.0070235194
0.0068190666
0.0066217167
0.006431364
0.0062479041
0.0060712344
0.0059012543
0.0057378657
0.0055809725
0.0054304817
0.0052863027
0.0051483482
0.0050165337
0.004890778
0.0047710035
0.0046571355
0.0045491035
0.00444684
0.0043502818
0.0042593691
0.0041740462
0.0040942612
0.0040199665
0.0039511183
0.0038876773
0.003829608
0.0037768798
0.0037294661
0.0036873449
0.0036504987
0.0036189148
0.0035925848
0.0035715054
0.0035556778
0.0035451098
0.0035398262
0.011119486
0.010791105
0.010471543
0.010160726
0.0098585515
0.0095649185
0.0092797257
0.0090028695
0.0087342433
0.0084737379
0.0082212423
0.0079766438
0.0077398293
0.0075106847
0.0072890963
0.0070749505
0.0068681347
0.0066685371
0.0064760475
0.0062905573
0.0061119598
0.0059401506
0.0057750275
0.0056164912
0.0054644449
0.0053187948
0.0051794504
0.0050463243
0.0049193324
0.0047983942
0.0046834326
0.0045743745
0.0044711503
0.0043736944
0.004281945
0.0041958446
0.0041153394
0.0040403801
0.0039709214
0.0039069224
0.0038483466
0.0037951619
0.0037473406
0.0037048598
0.0036677011
0.0036358509
0.0036093002
0.003588045
0.0035720859
0.0035614304
0.0035561033
0.011230599
0.010897187
0.010572805
0.010257374
0.0099507827
0.0096529235
0.0093636891
0.0090829695
0.0088106519
0.0085466211
0.0082907601
0.0080429506
0.0078030737
0.0075710099
0.0073466402
0.0071298458
0.0069205089
0.0067185132
0.0065237435
0.0063360869
0.0061554323
0.005981671
0.005814697
0.0056544069
0.0055007004
0.0053534802
0.0052126523
0.0050781261
0.0049498145
0.004827634
0.004711505
0.0046013516
0.0044971017
0.0043986875
0.004306045
0.0042191145
0.0041378405
0.0040621717
0.0039920613
0.0039274668
0.0038683502
0.0038146782
0.003766422
0.0037235575
0.0036860652
0.0036539309
0.0036271447
0.003605702
0.0035896027
0.0035788537
0.0035734803
0.01134711
0.011008427
0.010678995
0.010358728
0.010047507
0.0097452182
0.0094517472
0.0091669775
0.0088907899
0.008623063
0.0083636735
0.0081124972
0.0078694091
0.0076342842
0.0074069977
0.0071874256
0.0069754448
0.0067709338
0.0065737727
0.0063838437
0.0062010313
0.0060252224
0.0058563067
0.0056941768
0.0055387287
0.0053898612
0.0052474769
0.0051114818
0.0049817857
0.004858302
0.0047409481
0.0046296455
0.0045243196
0.0044248999
0.0043313204
0.0042435191
0.0041614385
0.0040850255
0.0040142314
0.0039490123
0.0038893286
0.0038351455
0.0037864331
0.0037431661
0.0037053242
0.0036728919
0.0036458588
0.0036242194
0.0036079732
0.0035971263
0.0035917042
0.011467613
0.011123479
0.010788827
0.010463559
0.01014755
0.0098406806
0.0095428281
0.0092538697
0.0089736795
0.0087021296
0.0084390905
0.0081844316
0.0079380219
0.0076997305
0.0074694267
0.0072469811
0.0070322651
0.006825152
0.0066255168
0.0064332369
0.006248192
0.0060702645
0.0058993399
0.0057353066
0.0055780564
0.0054274846
0.0052834899
0.005145975
0.0050148463
0.0048900142
0.004771393
0.0046589014
0.0045524622
0.0044520023
0.0043574534
0.0042687512
0.0041858362
0.0041086533
0.0040371521
0.0039712869
0.0039110165
0.003856305
0.0038071208
0.0037634376
0.0037252341
0.0036924938
0.0036652054
0.0036433628
0.0036269646
0.0036160166
0.0036105443
0.011590843
0.011241136
0.010901143
0.01057076
0.010249856
0.0099383007
0.0096359668
0.009342724
0.0090584399
0.0087829797
0.0085162075
0.0082579863
0.0080081789
0.0077666484
0.0075332582
0.0073078732
0.0070903593
0.0068805843
0.0066784183
0.0064837335
0.0062964048
0.0061163102
0.0059433305
0.00577735
0.0056182564
0.0054659411
0.0053202991
0.0051812296
0.0050486355
0.004922424
0.0048025066
0.0046887988
0.0045812208
0.004479697
0.0043841566
0.0042945331
0.0042107648
0.0041327946
0.0040605703
0.0039940445
0.0039331744
0.0038779225
0.0038282561
0.0037841476
0.0037455744
0.0037125193
0.0036849702
0.0036629199
0.0036463666
0.0036353152
0.0036297915
0.01171567
0.011360315
0.01101491
0.010679346
0.01035348
0.010037176
0.0097303013
0.009432717
0.0091442841
0.0088648614
0.0085943062
0.0083324751
0.0080792247
0.0078344119
0.0075978942
0.0073695305
0.0071491813
0.0069367091
0.0067319785
0.0065348568
0.006345214
0.0061629234
0.0059878613
0.0058199078
0.0056589464
0.0055048645
0.0053575535
0.0052169088
0.00508283
0.0049552211
0.0048339904
0.0047190506
0.004610319
0.0045077176
0.0044111728
0.0043206162
0.0042359836
0.0041572162
0.0040842596
0.0040170648
0.0039555875
0.0038997886
0.003849634
0.0038050949
0.0037661477
0.0037327741
0.0037049611
0.0036827007
0.0036659904
0.0036548345
0.003649259
0.011841093
0.01148006
0.011129215
0.010788439
0.010457585
0.010136508
0.0098250675
0.0095231184
0.0092305147
0.0089471083
0.00867275
0.00840729
0.0081505784
0.007902466
0.0076628043
0.0074314465
0.0072082473
0.0069930638
0.0067857554
0.0065861842
0.0063942155
0.0062097177
0.0060325627
0.0058626262
0.0056997876
0.0055439303
0.005394942
0.0052527143
0.0051171436
0.0049881305
0.0048655802
0.0047494024
0.0046395118
0.0045358277
0.004438274
0.0043467799
0.0042612793
0.0041817111
0.0041080191
0.0040401526
0.0039780655
0.0039217173
0.0038710727
0.0038261014
0.0037867788
0.0037530855
0.0037250077
0.0037025366
0.0036856689
0.0036744081
0.0036687806
0.011966234
0.011599529
0.011243251
0.010897273
0.010561437
0.010235594
0.0099195941
0.0096132867
0.0093165186
0.0090291349
0.0087509797
0.0084818966
0.0082217295
0.0079703231
0.0077275228
0.0074931761
0.007267132
0.0070492421
0.0068393606
0.0066373446
0.0064430543
0.0062563536
0.0060771098
0.0059051943
0.0057404823
0.0055828533
0.0054321912
0.005288384
0.0051513247
0.0050209105
0.0048970436
0.0047796309
0.0046685841
0.0045638199
0.0044652599
0.0043728308
0.0042864645
0.0042060976
0.0041316724
0.0040631361
0.0040004412
0.0039435455
0.0038924124
0.0038470104
0.0038073137
0.003773302
0.0037449604
0.0037222795
0.0037052551
0.0036938899
0.0036882106
0.012090324
0.01171799
0.011356319
0.011005175
0.010664395
0.010333821
0.010013296
0.0097026634
0.0094017623
0.0091104313
0.0088285081
0.0085558297
0.0082922338
0.0080375588
0.0077916444
0.0075543321
0.0073254654
0.0071048906
0.0068924564
0.006688015
0.0064914218
0.0063025359
0.0061212202
0.0059473418
0.0057807718
0.0056213857
0.0054690636
0.0053236901
0.0051851546
0.0050533512
0.0049281789
0.0048095418
0.0046973487
0.0045915139
0.0044919564
0.0043986006
0.0043113763
0.0042302181
0.0041550663
0.0040858664
0.0040225693
0.0039651313
0.0039135144
0.0038676859
0.0038276189
0.0037932919
0.0037646893
0.0037418008
0.0037246213
0.0037131529
0.0037074224
0.012212704
0.01183481
0.011467813
0.01111157
0.010765907
0.010430662
0.01010567
0.0097907668
0.0094857856
0.0091905583
0.0089049156
0.0086286886
0.0083617085
0.0081038077
0.0078548199
0.0076145811
0.0073829291
0.0071597048
0.0069447519
0.0067379175
0.0065390522
0.0063480106
0.006164651
0.0059888363
0.0058204335
0.0056593143
0.005505355
0.0053584367
0.0052184455
0.0050852721
0.0049588127
0.0048389683
0.0047256451
0.0046187548
0.004518214
0.0044239449
0.0043358749
0.0042539369
0.0041780691
0.0041082154
0.0040443251
0.003986353
0.0039342596
0.0038880112
0.0038475795
0.0038129423
0.0037840828
0.00376099
0.003743658
0.0037320881
0.0037263072
0.012332807
0.01194945
0.011577218
0.011215963
0.010865502
0.010525667
0.010196285
0.0098771863
0.0095681966
0.0092691413
0.0089798449
0.008700132
0.0084298277
0.0081687585
0.0079167523
0.0076736393
0.0074392521
0.0072134261
0.006996
0.006786816
0.00658572
0.0063925619
0.0062071958
0.0060294803
0.0058592785
0.0056964582
0.0055408921
0.0053924577
0.0052510379
0.0051165202
0.0049887978
0.0048677689
0.0047533371
0.0046454114
0.0045439062
0.0044487412
0.0043598419
0.0042771392
0.0042005694
0.0041300748
0.004065603
0.0040071074
0.0039545472
0.0039078873
0.0038670984
0.0038321573
0.0038030463
0.0037797536
0.0037622724
0.0037506031
0.0037447731
0.012450159
0.012061454
0.011684099
0.011317938
0.010962784
0.010618456
0.01028478
0.0099615766
0.0096486656
0.0093458658
0.0090529955
0.0087698731
0.0084963178
0.00823215
0.0079771922
0.0077312688
0.0074942071
0.0072658374
0.0070459934
0.0068345125
0.0066312358
0.0064360089
0.0062486817
0.0060691085
0.0058971486
0.0057326659
0.0055755297
0.0054256141
0.0052827985
0.0051469676
0.0050180114
0.0048958256
0.004780311
0.0046713741
0.004568927
0.0044728873
0.0043831784
0.0042997291
0.0042224742
0.0041513541
0.0040863148
0.0040273085
0.0039742929
0.0039272317
0.0038860946
0.0038508572
0.0038215011
0.0037980135
0.003780387
0.0037686211
0.0037627432
0.012564364
0.012170444
0.011788095
0.011417153
0.011057422
0.010708717
0.010370855
0.010043652
0.0097269196
0.0094204713
0.009124119
0.0088376749
0.0085609525
0.0082937664
0.0080359335
0.0077872728
0.0075476065
0.0073167597
0.0070945612
0.0068808437
0.0066754439
0.006478203
0.0062889665
0.006107585
0.0059339137
0.0057678131
0.0056091488
0.0054577916
0.0053136178
0.0051765091
0.0050463526
0.0049230412
0.0048064733
0.0046965529
0.0045931898
0.0044962995
0.0044058033
0.0043216282
0.0042437073
0.0041719791
0.0041063885
0.0040468859
0.0039934278
0.0039459768
0.0039045015
0.0038689766
0.0038393826
0.003815706
0.0037979386
0.0037860789
0.0037801547
0.0126751
0.012276113
0.011888913
0.011513325
0.01114915
0.010796194
0.010454267
0.010123179
0.0098027372
0.0094927466
0.0091930139
0.0089033454
0.0086235487
0.0083534331
0.0080928097
0.0078414927
0.0075992988
0.0073660484
0.0071415655
0.0069256781
0.0067182186
0.0065190239
0.0063279356
0.0061448002
0.0059694692
0.0058017996
0.0056416536
0.0054888987
0.0053434081
0.0052050606
0.0050737406
0.0049493382
0.0048317494
0.0047208758
0.0046166251
0.0045189107
0.0044276518
0.0043427738
0.0042642077
0.0041918909
0.0041257663
0.0040657833
0.004011897
0.0039640689
0.0039222664
0.0038864633
0.0038566393
0.0038327802
0.0038148766
0.0038029264
0.0037969574
0.012782109
0.012378215
0.011986317
0.011606233
0.011237755
0.010880684
0.010534823
0.010199976
0.0098759432
0.0095625248
0.0092595211
0.0089667328
0.0086839619
0.0084110122
0.0081476897
0.0078938032
0.0076491647
0.0074135898
0.0071868978
0.0069689124
0.0067594615
0.0065583779
0.0063654994
0.0061806685
0.0060037334
0.0058345474
0.0056729693
0.0055188637
0.0053721008
0.0052325564
0.0051001122
0.004974656
0.0048560811
0.004744287
0.0046391792
0.0045406689
0.0044486737
0.004363117
0.0042839284
0.0042110433
0.0041444036
0.0040839572
0.0040296579
0.0039814661
0.0039393482
0.0039032771
0.0038732315
0.0038491965
0.003831162
0.0038191246
0.0038131126
0.012885194
0.012476563
0.01208013
0.011695705
0.011323074
0.010962032
0.010612375
0.010273901
0.0099464039
0.0096296786
0.0093235195
0.0090277219
0.0087420823
0.0084663993
0.0082004738
0.0079441097
0.0076971142
0.0074592982
0.0072304765
0.0070104686
0.0067990982
0.0065961942
0.0064015903
0.0062151257
0.0060366448
0.0058659977
0.00570304
0.0055476333
0.0053996447
0.0052589475
0.0051254208
0.0049989497
0.0048794253
0.0047667449
0.0046608119
0.0045615357
0.0044688318
0.004382622
0.0043028343
0.0042294027
0.0041622675
0.0041013753
0.004046679
0.0039981377
0.0039557167
0.0039193881
0.0038891298
0.0038649259
0.0038467657
0.0038346448
0.0038285916
0.012984209
0.012571017
0.012170218
0.011781616
0.011404989
0.011040126
0.010686816
0.010344852
0.010014022
0.0096941159
0.0093849215
0.0090862293
0.0087978306
0.008519519
0.0082510905
0.0079923441
0.0077430825
0.007503112
0.0072722432
0.0070502913
0.006837076
0.0066324225
0.0064361607
0.0062481262
0.0060681602
0.0058961094
0.0057318265
0.0055751699
0.0054260042
0.0052841998
0.0051496335
0.0050221879
0.0049017519
0.0047882207
0.0046814956
0.0045814842
0.0044881003
0.0044012639
0.0043209014
0.0042469455
0.0041793352
0.0041180157
0.0040629387
0.0040140624
0.0039713511
0.0039347758
0.0039043139
0.0038799486
0.0038616682
0.0038494673
0.0038433749
0.013079054
0.012661482
0.012256492
0.011863881
0.01148342
0.011114889
0.010758075
0.010412762
0.010078734
0.0097557755
0.0094436691
0.0091422001
0.0088511549
0.0085703222
0.0082994931
0.0080384623
0.0077870277
0.0075449916
0.0073121602
0.0070883447
0.0068733612
0.0066670308
0.0064691801
0.0062796413
0.0060982522
0.0059248565
0.0057593039
0.0056014501
0.0054511568
0.0053082921
0.0051727301
0.0050443513
0.0049230425
0.0048086967
0.0047012134
0.0046004983
0.0045064635
0.0044190275
0.0043381152
0.0042636578
0.004195593
0.004133865
0.0040784242
0.0040292276
0.003986239
0.0039494282
0.0039187718
0.0038942524
0.0038758575
0.0038635806
0.0038574508
0.013169669
0.012747902
0.0123389
0.011942452
0.011558321
0.01118628
0.010826111
0.010477593
0.010140504
0.0098146237
0.0094997304
0.0091956043
0.0089020268
0.008618782
0.0083456566
0.0080824406
0.0078289278
0.0075849161
0.007350208
0.0071246107
0.0069079365
0.0067000031
0.0065006335
0.0063096568
0.0061269076
0.0059522266
0.0057854607
0.0056264628
0.0054750922
0.0053312144
0.0051947013
0.0050654312
0.0049432887
0.0048281651
0.0047199578
0.0046185708
0.0045239147
0.0044359065
0.0043544694
0.0042795335
0.0042110353
0.0041489175
0.0040931298
0.0040436282
0.0040003752
0.0039633401
0.0039324987
0.0039078327
0.0038893289
0.0038769796
0.0038708143
0.013256028
0.012830255
0.012417422
0.012017312
0.011629676
0.011254284
0.010890911
0.010539332
0.01019932
0.0098706502
0.0095530962
0.0092464334
0.0089504388
0.0086648918
0.0083895748
0.0081242735
0.0078687778
0.0076228814
0.0073863829
0.0071590859
0.0069407992
0.0067313368
0.0065305189
0.006338171
0.0061541249
0.0059782185
0.0058102959
0.0056502075
0.00549781
0.0053529667
0.0052155472
0.0050854278
0.0049624911
0.0048466264
0.0047377294
0.0046357026
0.0045404549
0.0044519017
0.0043699651
0.0042945738
0.004225663
0.0041631746
0.0041070569
0.0040572651
0.0040137609
0.0039765127
0.0039454955
0.0039206905
0.0039020835
0.0038896656
0.0038834668
0.013338134
0.012908548
0.012492068
0.01208847
0.011697498
0.011318913
0.010952486
0.01059799
0.010255193
0.0099238654
0.0096037767
0.0092946976
0.0089964008
0.0087086614
0.0084312576
0.0081639711
0.0079065875
0.0076588971
0.0074206946
0.00719178
0.0069719587
0.0067610416
0.0065588454
0.0063651931
0.0061799133
0.0060028412
0.0058338185
0.0056726928
0.0055193188
0.0053735574
0.0052352762
0.0051043493
0.0049806575
0.0048640884
0.004754536
0.0046519012
0.0045560913
0.0044670204
0.0043846094
0.0043087856
0.0042394832
0.0041766429
0.0041202121
0.0040701451
0.0040264027
0.0039889525
0.0039577688
0.0039328322
0.0039141275
0.0039016449
0.0038954146
0.013416021
0.012982821
0.012562879
0.012155966
0.01176182
0.011380198
0.011010867
0.010653597
0.010308152
0.009974297
0.0096517986
0.0093404229
0.0090399382
0.0087501156
0.0084707291
0.0082015565
0.0079423797
0.0076929852
0.0074531643
0.0072227136
0.0070014351
0.0067891368
0.0065856322
0.0063907415
0.0062042906
0.0060261122
0.0058560452
0.0056939353
0.0055396347
0.0053930021
0.0052539032
0.0051222103
0.0049978023
0.0048805651
0.0047703912
0.0046671798
0.0045708369
0.0044812754
0.0043984147
0.0043221812
0.0042525077
0.0041893341
0.0041326069
0.0040822794
0.0040383116
0.0040006704
0.0039693295
0.0039442685
0.0039254718
0.003912928
0.0039066681
0.01348977
0.01305315
0.012629923
0.012219857
0.011822696
0.01143819
0.011066102
0.010706198
0.01035824
0.010021987
0.0096972031
0.0093836489
0.0090810892
0.0087892911
0.0085080247
0.0082370641
0.0079761875
0.0077251779
0.0074838232
0.0072519168
0.0070292576
0.0068156505
0.0066109064
0.0064148424
0.0062272822
0.0060480558
0.0058769999
0.0057139579
0.0055587797
0.0054113223
0.0052714493
0.0051390311
0.0050139452
0.0048960757
0.0047853135
0.0046815565
0.0045847094
0.0044946837
0.0044113978
0.0043347767
0.0042647526
0.004201264
0.0041442567
0.0040936832
0.0040495026
0.0040116812
0.0039801919
0.0039550139
0.0039361306
0.0039235294
0.0039172416
0.013119641
0.012693287
0.012280222
0.011880196
0.011492954
0.011118253
0.010755853
0.010405514
0.010066991
0.0097400426
0.0094244263
0.0091199028
0.0088262352
0.00854319
0.0082705377
0.0080080531
0.0077555157
0.0075127104
0.0072794272
0.0070554624
0.0068406177
0.0066347016
0.0064375285
0.0062489196
0.0060687026
0.0058967119
0.0057327888
0.0055767813
0.0054285444
0.00528794
0.0051548367
0.0050291103
0.0049106434
0.0047993256
0.0046950535
0.0045977303
0.0045072664
0.004423579
0.0043465923
0.0042762372
0.0042124516
0.0041551802
0.0041043748
0.0040599938
0.0040220027
0.0039903739
0.0039650858
0.0039461212
0.0039334661
0.0039271524
0.013182398
0.012753056
0.012337141
0.011934399
0.011544565
0.011167391
0.010802632
0.010450042
0.010109374
0.0097803797
0.0094628152
0.0091564365
0.0088610033
0.0085762783
0.0083020288
0.008038026
0.0077840464
0.0075398716
0.0073052891
0.0070800919
0.0068640794
0.0066570573
0.0064588377
0.0062692393
0.0060880877
0.0059152151
0.0057504609
0.0055936712
0.0054446992
0.0053034048
0.0051696555
0.0050433252
0.0049242952
0.0048124537
0.0047076959
0.004609924
0.0045190472
0.0044349817
0.0043576506
0.0042869839
0.0042229187
0.0041653988
0.0041143752
0.0040698057
0.0040316552
0.0039998954
0.0039745042
0.0039554634
0.0039427579
0.0039364201
0.013241479
0.012809311
0.012390701
0.011985392
0.011593109
0.0112136
0.010846614
0.0104919
0.010149207
0.0098182846
0.009498883
0.0091907554
0.0088936578
0.0086073497
0.0083315948
0.0080661614
0.007810823
0.0075653582
0.0073295515
0.0071031935
0.0068860811
0.0066780173
0.006478812
0.0062882818
0.0061062501
0.0059325472
0.0057670105
0.0056094844
0.0054598202
0.0053178765
0.005183519
0.0050566204
0.0049370605
0.0048247262
0.0047195116
0.0046213176
0.0045300526
0.0044456315
0.0043679766
0.004297017
0.004232689
0.0041749358
0.0041237074
0.0040789611
0.0040406611
0.0040087785
0.0039832907
0.0039641789
0.0039514264
0.0039450661
0.013296974
0.012862146
0.012440997
0.012033268
0.011638678
0.011256969
0.010887885
0.010531171
0.010186572
0.0098538337
0.0095327032
0.0092229299
0.0089242665
0.0086364691
0.0083592983
0.0080925196
0.0078359032
0.0075892253
0.0073522676
0.0071248183
0.0069066717
0.0066976286
0.0064974968
0.0063060908
0.0061232319
0.0059487486
0.0057824765
0.0056242583
0.0054739438
0.0053313901
0.0051964612
0.0050690287
0.004948971
0.0048361739
0.0047305303
0.0046319401
0.0045403105
0.0044555557
0.004377597
0.0043063627
0.0042417883
0.0041838162
0.0041323959
0.004087484
0.0040490441
0.0040170468
0.0039914688
0.0039722907
0.0039594944
0.0039531134
0.013348995
0.012911669
0.012488135
0.01207813
0.011681371
0.011297592
0.010926535
0.010567942
0.010221552
0.0098871082
0.0095643539
0.009253035
0.0089529012
0.0086637055
0.0083852056
0.0081171638
0.007859348
0.0076115315
0.0073734937
0.0071450202
0.0069259031
0.0067159412
0.0065149401
0.0063227122
0.0061390773
0.0059638619
0.0057969
0.0056380326
0.0054871082
0.0053439822
0.0052085175
0.0050805844
0.00496006
0.004846829
0.0047407832
0.0046418217
0.0045498505
0.004464783
0.0043865397
0.0043150482
0.0042502431
0.0041920662
0.0041404665
0.0040953998
0.0040568292
0.0040247248
0.0039990629
0.0039798231
0.0039669861
0.003960586
0.013397666
0.012957998
0.012532226
0.012120086
0.01172129
0.011335569
0.010962662
0.010602306
0.010254236
0.0099181931
0.0095939163
0.0092811488
0.0089796368
0.0086891308
0.0084093854
0.0081401603
0.0078812208
0.0076323377
0.007393288
0.0071638552
0.0069438292
0.0067330067
0.0065311913
0.0063381939
0.0061538321
0.0059779312
0.0058103233
0.0056508481
0.0054993526
0.0053556909
0.0052197247
0.0050913229
0.0049703617
0.0048567247
0.0047503026
0.0046509936
0.0045587029
0.004473343
0.0043948336
0.0043231016
0.004258081
0.0041997129
0.0041479456
0.0041027344
0.004064042
0.0040318379
0.0040060979
0.003986801
0.0039739264
0.0039675087
0.013443116
0.013001254
0.012573386
0.012159246
0.011758543
0.011371004
0.010996364
0.010634357
0.010284715
0.0099471756
0.0096214742
0.0093073513
0.0090045503
0.0087128187
0.0084319084
0.0081615768
0.0079015865
0.0076517061
0.0074117104
0.0071813807
0.0069605048
0.0067488777
0.0065463013
0.0063525844
0.0061675433
0.0059910015
0.0058227898
0.0056627465
0.0055107172
0.0053665549
0.00523012
0.0051012803
0.0049799111
0.0048658947
0.0047591212
0.0046594877
0.0045668986
0.0044812657
0.004402508
0.0043305517
0.00426533
0.0042067836
0.0041548601
0.0041095144
0.0040707087
0.0040384119
0.0040125995
0.0039932498
0.0039803403
0.0039739066
0.013485477
0.013041564
0.012611736
0.012195726
0.011793239
0.011404001
0.011027742
0.010664192
0.010313082
0.0099741444
0.0096471127
0.0093317243
0.0090277198
0.008734844
0.0084528465
0.0081814821
0.0079205111
0.0076697
0.0074288214
0.0071976546
0.0069759858
0.0067636079
0.0065603212
0.0063659329
0.0061802579
0.0060031182
0.0058343432
0.0056737699
0.0055212427
0.0053766133
0.0052397413
0.0051104932
0.0049887433
0.0048743733
0.004767272
0.004667336
0.0045744688
0.0044885816
0.0044095925
0.0043374272
0.0042720183
0.0042133059
0.0041612372
0.0041157665
0.0040768555
0.0040444727
0.0040185933
0.0039991949
0.0039862533
0.0039798049
0.013524882
0.013079052
0.012647394
0.01222964
0.011825489
0.011434666
0.011056897
0.010691909
0.01033943
0.0099991889
0.0096709174
0.0093543496
0.0090492238
0.0087552821
0.0084722717
0.0081999452
0.0079380607
0.0076863826
0.0074446817
0.0072127353
0.0069903279
0.0067772507
0.0065733025
0.006378289
0.0061920236
0.0060143269
0.0058450273
0.0056839604
0.0055309695
0.0053859053
0.0052486262
0.0051189978
0.0049968937
0.0048821944
0.0047747881
0.0046745706
0.0045814447
0.0044953208
0.0044161165
0.0043437569
0.004278174
0.0042193075
0.0041671039
0.0041215172
0.0040825086
0.0040500463
0.004024105
0.0040046617
0.0039916907
0.0039852291
0.013561463
0.013113846
0.012680484
0.012261103
0.011855404
0.011463105
0.01108393
0.010717604
0.010363852
0.010022398
0.0096929738
0.0093753094
0.0090691408
0.008774208
0.008490256
0.008217035
0.0079543014
0.0077018174
0.0074593519
0.0072266808
0.0070035867
0.0067898595
0.0065852962
0.0063897015
0.0062028872
0.0060246729
0.0058548856
0.0056933599
0.005539938
0.0053944696
0.0052568121
0.0051268304
0.005004397
0.0048893918
0.0047817022
0.0046812232
0.0045878569
0.0045015133
0.0044221093
0.0043495693
0.0042838251
0.0042248155
0.004172487
0.0041267929
0.004087694
0.0040551583
0.00402916
0.0040096755
0.0039966775
0.003990204
0.013595352
0.013146072
0.012711123
0.012290232
0.011883094
0.011489424
0.011108944
0.010741375
0.01038644
0.010043862
0.0097133669
0.0093946847
0.0090875485
0.0087916962
0.0085068706
0.0082328198
0.0079692983
0.0077160666
0.007472892
0.0072395485
0.0070158173
0.0068014869
0.006596353
0.006400219
0.0062128955
0.0060342008
0.005863961
0.0057020096
0.0055481878
0.0054023445
0.005264336
0.0051340266
0.0050112878
0.0048959988
0.0047880465
0.004687325
0.004593736
0.0045071887
0.0044275996
0.0043548926
0.0042889989
0.004229857
0.0041774129
0.0041316195
0.0040924374
0.004059834
0.0040337833
0.0040142611
0.0040012384
0.0039947542
0.013626679
0.013175853
0.012739432
0.01231714
0.011908667
0.011513727
0.011132038
0.010763318
0.010407287
0.010063667
0.0097321804
0.0094125557
0.0091045237
0.0088078201
0.0085221856
0.0082473667
0.0079831159
0.007729192
0.0074853607
0.0072513946
0.0070270736
0.0068121847
0.0066065225
0.006409889
0.0062220939
0.0060429545
0.0058722957
0.0057099501
0.005555758
0.0054095675
0.0052712341
0.0051406212
0.0050175997
0.0049020482
0.0047938526
0.0046929067
0.0045991116
0.0045123759
0.0044326156
0.0043597542
0.0042937224
0.0042344583
0.0041819074
0.0041360225
0.0040967636
0.004064098
0.0040379993
0.0040184428
0.0040053977
0.003998904
0.013655572
0.013203312
0.012765527
0.012341938
0.011932231
0.011536116
0.011153309
0.010783526
0.010426482
0.010081899
0.0097494965
0.0094290011
0.0091201415
0.0088226515
0.00853627
0.0082607416
0.007995817
0.0077412536
0.0074968157
0.0072622745
0.0070374084
0.0068220035
0.006615853
0.006418758
0.0062305272
0.0060509767
0.0058799307
0.0057172208
0.0055626866
0.0054161753
0.0052775416
0.0051466484
0.0050233657
0.0049075715
0.0047991514
0.0046979983
0.0046040128
0.0045171032
0.0044371849
0.0043641809
0.0042980217
0.004238645
0.0041859958
0.0041400266
0.0041006971
0.0040679744
0.0040418318
0.0040222441
0.0040091787
0.0040026766
0.013682154
0.013228567
0.012789522
0.012364736
0.011953891
0.011556693
0.011172855
0.01080209
0.010444113
0.010098642
0.0097653954
0.0094440975
0.0091344753
0.0088362607
0.0085491908
0.0082730085
0.008007463
0.0077523104
0.0075073133
0.0072722418
0.0070468733
0.0068309926
0.0066243919
0.0064268714
0.0062382387
0.0060583092
0.0058869061
0.0057238603
0.0055690106
0.0054222034
0.0052832929
0.0051521411
0.0050286177
0.0049125999
0.0048039726
0.0047026285
0.0046084677
0.0045213978
0.004441334
0.0043681988
0.0043019223
0.0042424419
0.0041897023
0.0041436557
0.0041042616
0.0040714866
0.004045304
0.0040256881
0.0040126043
0.0040060949
0.013706548
0.013251734
0.012811528
0.01238564
0.011973749
0.011575555
0.011190769
0.010819102
0.010460266
0.010113978
0.0097799552
0.0094579195
0.0091475963
0.0088487157
0.0085610131
0.0082842298
0.0080181136
0.0077624191
0.0075169079
0.0072813488
0.0070555182
0.0068391997
0.006632185
0.0064342729
0.0062452705
0.0060649922
0.0058932606
0.0057299058
0.0055747657
0.0054276863
0.0052885212
0.0051571315
0.0050333866
0.004917163
0.0048083453
0.0047068256
0.0046125035
0.0045252863
0.0044450887
0.004371833
0.0043054488
0.0042458732
0.0041930507
0.0041469332
0.0041074799
0.0040746572
0.0040484383
0.0040287968
0.0040156965
0.0040091808
0.013728871
0.013272926