/*--------------------------------*- C++ -*----------------------------------*\
| =========                 |                                                 |
| \\      /  F ield         | OpenFOAM: The Open Source CFD Toolbox           |
|  \\    /   O peration     | Version:  2312                                  |
|   \\  /    A nd           | Website:  www.openfoam.com                      |
|    \\/     M anipulation  |                                                 |
\*---------------------------------------------------------------------------*/
FoamFile
{
    version     2.0;
    format      ascii;
    arch        "LSB;label=32;scalar=64";
    class       volScalarField;
    location    "0.08";
    object      CO2;
}
// * * * * * * * * * * * * * * * * * * * * * * * * * * * * * * * * * * * * * //

dimensions      [0 0 0 0 0 0 0];

internalField   nonuniform List<scalar> 
3257
(
0.0073988322
0.007242603
0.0070887482
0.0069373591
0.0067885044
0.0066422456
0.0064986399
0.0063577406
0.0062195971
0.0060842556
0.0059517588
0.0058221464
0.0056954551
0.0055717189
0.0054509692
0.0053332349
0.0052185427
0.0051069173
0.0049983812
0.0048929552
0.0047906585
0.0046915087
0.0045955219
0.004502713
0.0044130958
0.0043266828
0.0042434858
0.0041635156
0.0040867823
0.0040132954
0.0039430637
0.0038760957
0.0038123993
0.0037519823
0.0036948522
0.0036410162
0.0035904816
0.0035432557
0.0034993458
0.0034587592
0.0034215037
0.0033875869
0.0033570173
0.0033298033
0.003305954
0.0032854789
0.0032683882
0.0032546925
0.0032444031
0.0032375319
0.0032340905
0.0074121409
0.0072554085
0.0071010719
0.0069492192
0.0067999178
0.0066532284
0.0065092076
0.0063679082
0.0062293794
0.0060936668
0.005960813
0.0058308573
0.005703836
0.0055797828
0.0054587287
0.0053407025
0.0052257303
0.0051138366
0.0050050437
0.004899372
0.0047968404
0.0046974661
0.0046012652
0.0045082521
0.0044184403
0.0043318423
0.0042484694
0.0041683322
0.0040914407
0.004017804
0.0039474308
0.0038803293
0.0038165074
0.0037559726
0.0036987321
0.0036447931
0.0035941628
0.0035468481
0.0035028563
0.0034621947
0.0034248708
0.0033908923
0.0033602673
0.0033330043
0.0033091124
0.0032886011
0.0032714805
0.0032577616
0.0032474565
0.0032405787
0.0032371444
0.0074373318
0.0072796702
0.0071244349
0.0069717141
0.0068215745
0.0066740761
0.0065292748
0.006387223
0.006247969
0.0061115581
0.0059780321
0.0058474296
0.0057197865
0.0055951358
0.005473508
0.005354931
0.0052394308
0.0051270309
0.0050177532
0.0049116176
0.0048086424
0.0047088443
0.0046122387
0.0045188398
0.0044286604
0.0043417124
0.004258007
0.0041775541
0.0041003633
0.0040264433
0.0039558024
0.0038884485
0.003824389
0.0037636311
0.0037061817
0.0036520478
0.0036012361
0.0035537534
0.0035096067
0.003468803
0.0034313495
0.0033972539
0.0033665242
0.0033391685
0.0033151958
0.0032946155
0.0032774375
0.0032636726
0.0032533325
0.0032464305
0.0032429848
0.0074729433
0.0073139778
0.0071574807
0.0070035402
0.0068522221
0.0067035858
0.0065576863
0.0064145751
0.0062742999
0.0061369051
0.0060024317
0.0058709175
0.0057423975
0.005616904
0.0054944666
0.0053751126
0.0052588668
0.0051457523
0.00503579
0.0049289991
0.0048253971
0.004725
0.0046278225
0.004533878
0.0044431787
0.004355736
0.00427156
0.0041906605
0.0041130462
0.0040387253
0.0039677055
0.0038999942
0.0038355984
0.0037745246
0.0037167796
0.0036623695
0.003611301
0.0035635803
0.0035192141
0.0034782091
0.0034405723
0.0034063109
0.0033754326
0.0033479456
0.0033238584
0.0033031804
0.0032859212
0.0032720915
0.0032617027
0.0032547682
0.0032513066
0.0075175968
0.0073570053
0.0071989347
0.0070434725
0.0068906836
0.0067406263
0.0065933551
0.0064489204
0.0063073689
0.0061687441
0.0060330859
0.0059004314
0.0057708144
0.0056442662
0.0055208155
0.0054004885
0.0052833093
0.0051692996
0.0050584797
0.0049508677
0.0048464802
0.0047453323
0.0046474379
0.0045528093
0.0044614582
0.0043733948
0.0042886287
0.0042071688
0.0041290231
0.0040541991
0.0039827039
0.0039145441
0.003849726
0.0037882558
0.0037301394
0.0036753828
0.0036239917
0.0035759722
0.0035313304
0.0034900726
0.0034522054
0.0034177358
0.0033866711
0.0033590191
0.0033347882
0.0033139874
0.0032966262
0.0032827151
0.0032722654
0.0032652902
0.0032618086
0.0075699881
0.0074074978
0.0072475892
0.007090349
0.006935841
0.0067841227
0.0066352475
0.0064892646
0.0063462199
0.0062061557
0.0060691109
0.0059351213
0.0058042198
0.0056764364
0.0055517987
0.0054303318
0.0053120585
0.0051969998
0.0050851745
0.0049765998
0.0048712912
0.0047692628
0.0046705274
0.0045750964
0.0044829804
0.0043941888
0.0043087302
0.0042266125
0.0041478431
0.0040724285
0.004000375
0.0039316886
0.0038663748
0.003804439
0.0037458866
0.0036907229
0.003638953
0.0035905826
0.0035456171
0.0035040624
0.0034659247
0.0034312104
0.0033999267
0.0033720809
0.0033476812
0.0033267361
0.0033092552
0.0032952485
0.0032847271
0.0032777042
0.0032741991
0.0076288963
0.0074642793
0.0073023118
0.0071430795
0.006986645
0.0068330648
0.0066823911
0.0065346722
0.0063899527
0.0062482738
0.0061096731
0.0059741852
0.0058418418
0.0057126717
0.0055867012
0.0054639542
0.0053444523
0.0052282151
0.0051152603
0.0050056039
0.0048992602
0.0047962422
0.0046965615
0.0046002284
0.0045072525
0.004417642
0.0043314047
0.0042485474
0.0041690764
0.0040929975
0.0040203161
0.0039510373
0.0038851657
0.0038227062
0.0037636633
0.0037080415
0.0036558455
0.0036070801
0.0035617504
0.0035198617
0.0034814195
0.0034464301
0.0034148999
0.0033868361
0.0033622463
0.003341139
0.0033235233
0.0033094089
0.003298807
0.0032917303
0.0032881987
0.0076931883
0.007526258
0.0073620505
0.0072006503
0.0070421192
0.0068865122
0.0067338804
0.0065842711
0.0064377276
0.0062942898
0.0061539941
0.0060168737
0.0058829591
0.0057522776
0.0056248543
0.0055007117
0.0053798702
0.0052623479
0.0051481613
0.0050373251
0.0049298524
0.0048257548
0.0047250427
0.0046277254
0.0045338111
0.004443307
0.0043562198
0.0042725551
0.0041923184
0.0041155145
0.0040421476
0.003972222
0.0039057417
0.0038427103
0.0037831318
0.0037270099
0.0036743486
0.0036251521
0.0035794247
0.0035371712
0.0034983967
0.0034631068
0.0034313076
0.0034030057
0.0033782085
0.003356924
0.0033391611
0.0033249293
0.0033142393
0.0033071039
0.0033035433
0.0077618212
0.0075924282
0.0074258357
0.0072621272
0.0071013629
0.006943597
0.0067888793
0.0066372559
0.0064887687
0.0063434563
0.0062013539
0.0060624933
0.0059269035
0.0057946105
0.005665638
0.0055400071
0.0054177367
0.0052988437
0.0051833431
0.0050712482
0.0049625708
0.0048573212
0.0047555086
0.0046571409
0.004562225
0.0044707672
0.0043827728
0.0042982464
0.0042171923
0.0041396143
0.0040655156
0.0039948996
0.0039277692
0.0038641273
0.003803977
0.0037473212
0.0036941632
0.0036445063
0.0035983544
0.0035557115
0.0035165821
0.0034809714
0.0034488849
0.0034203289
0.0033953103
0.0033738367
0.0033559166
0.0033415594
0.0033307754
0.0033235773
0.0033199857
0.0078338424
0.0076618709
0.0074927812
0.0073266552
0.0071635522
0.0070035249
0.0068466221
0.0066928884
0.0065423646
0.006395088
0.0062510921
0.0061104076
0.0059730618
0.0058390796
0.005708483
0.0055812916
0.005457523
0.0053371925
0.0052203139
0.0051068989
0.004996958
0.0048905001
0.0047875331
0.0046880635
0.004592097
0.0044996386
0.0044106924
0.0043252619
0.0042433502
0.0041649599
0.0040900934
0.0040187529
0.0039509404
0.003886658
0.0038259077
0.0037686916
0.0037150124
0.0036648725
0.0036182751
0.0035752236
0.003535722
0.0034997747
0.0034673869
0.0034385642
0.0034133133
0.0033916413
0.0033735564
0.0033590676
0.003348185
0.0033409212
0.003337297
0.0079083878
0.0077337524
0.0075620825
0.0073934586
0.0072279387
0.0070655743
0.0069064129
0.0067504979
0.0065978688
0.0064485613
0.0063026078
0.0061600373
0.0060208759
0.0058851466
0.0057528703
0.005624065
0.0054987467
0.0053769294
0.0052586253
0.0051438447
0.0050325966
0.0049248886
0.0048207271
0.0047201174
0.0046230639
0.0045295702
0.0044396391
0.004353273
0.0042704738
0.0041912431
0.004115582
0.0040434918
0.0039749735
0.0039100282
0.003848657
0.0037908613
0.0037366426
0.003686003
0.0036389447
0.0035954704
0.0035555837
0.0035192882
0.0034865886
0.0034574901
0.0034319988
0.0034101216
0.0033918662
0.0033772413
0.0033662568
0.0033589249
0.003355267
0.0079846795
0.0078073219
0.0076330151
0.0074618382
0.0072938479
0.0071290945
0.0069676243
0.0068094793
0.0066546977
0.0065033138
0.0063553586
0.0062108595
0.0060698413
0.0059323255
0.0057983313
0.0056678753
0.005540972
0.0054176339
0.0052978716
0.0051816941
0.0050691088
0.004960122
0.0048547386
0.0047529625
0.0046547969
0.0045602439
0.0044693052
0.0043819819
0.0042982748
0.0042181841
0.0041417102
0.004068853
0.0039996126
0.0039339891
0.0038719827
0.003813594
0.0037588236
0.0037076727
0.0036601429
0.0036162363
0.0035759556
0.003539304
0.0035062856
0.0034769051
0.0034511681
0.003429081
0.0034106513
0.0033958873
0.0033847985
0.003377397
0.0033737046
0.0080620224
0.0078819083
0.0077049311
0.0075311688
0.0073606765
0.0071935035
0.0070296947
0.0068692909
0.0067123289
0.0065588416
0.0064088585
0.0062624058
0.0061195063
0.0059801804
0.0058444456
0.0057123171
0.0055838078
0.0054589287
0.0053376889
0.0052200958
0.0051061556
0.0049958728
0.0048892512
0.0047862931
0.0046870004
0.004591374
0.0044994142
0.004411121
0.0043264937
0.0042455317
0.004168234
0.0040945996
0.0040246275
0.0039583168
0.0038956669
0.0038366772
0.0037813478
0.003729679
0.0036816716
0.003637327
0.0035966473
0.003559635
0.0035262936
0.0034966275
0.0034706416
0.0034483421
0.0034297358
0.0034148309
0.0034036366
0.0033961646
0.0033924373
0.0081397998
0.007956916
0.0077772557
0.0076008955
0.0074278891
0.0072582846
0.0070921257
0.0069294519
0.0067702985
0.0066146973
0.0064626761
0.0063142596
0.0061694694
0.0060283241
0.0058908398
0.0057570302
0.0056269066
0.0055004784
0.0053777534
0.0052587374
0.0051434351
0.0050318497
0.0049239833
0.0048198371
0.0047194115
0.004622706
0.0045297199
0.0044404516
0.0043548995
0.0042730616
0.0041949359
0.0041205203
0.0040498128
0.0039828115
0.0039195148
0.0038599213
0.0038040302
0.003751841
0.0037033537
0.003658569
0.0036174883
0.0035801137
0.003546448
0.0035164949
0.0034902591
0.0034677462
0.0034489628
0.0034339164
0.0034226161
0.0034150734
0.0034113109
0.008217469
0.0080318209
0.0078494829
0.0076705298
0.0074950141
0.0073229827
0.0071544781
0.0069895385
0.0068281978
0.0066704864
0.0065164308
0.0063660542
0.0062193766
0.0060764152
0.0059371845
0.0058016966
0.0056699615
0.0055419871
0.0054177794
0.005297343
0.005180681
0.0050677952
0.0049586863
0.0048533541
0.0047517976
0.0046540152
0.0045600045
0.004469763
0.0043832878
0.0043005757
0.0042216237
0.0041464284
0.004074987
0.0040072965
0.0039433544
0.0038831584
0.0038267068
0.0037739984
0.0037250323
0.0036798087
0.0036383281
0.0036005921
0.0035666029
0.0035363637
0.0035098787
0.003487153
0.0034681928
0.0034530055
0.0034415995
0.0034339863
0.0034301888
0.0082945563
0.0081061658
0.0079211711
0.0077396453
0.00756164
0.0073872007
0.0072163686
0.0070491808
0.0068856699
0.0067258648
0.0065697906
0.0064174691
0.0062689187
0.0061241553
0.0059831918
0.0058460388
0.0057127048
0.0055831961
0.0054575174
0.0053356717
0.0052176606
0.0051034846
0.004993143
0.0048866341
0.0047839557
0.0046851047
0.0045900776
0.0044988707
0.0044114797
0.0043279005
0.0042481288
0.0041721603
0.004099991
0.004031617
0.0039670348
0.0039062414
0.003849234
0.0037960107
0.00374657
0.0037009112
0.0036590342
0.00362094
0.0035866302
0.0035561075
0.0035293755
0.0035064391
0.0034873039
0.0034719768
0.0034604662
0.0034527831
0.003448951
0.0083706526
0.0081795553
0.0079919384
0.0078078735
0.0076274109
0.007450595
0.0072774658
0.0071080591
0.0069424062
0.0067805346
0.0066224682
0.006468227
0.0063178284
0.0061712864
0.0060286127
0.0058898164
0.0057549044
0.0056238815
0.0054967511
0.0053735146
0.0052541722
0.0051387231
0.005027165
0.004919495
0.0048157095
0.0047158042
0.0046197743
0.0045276148
0.0044393204
0.0043548857
0.0042743054
0.0041975741
0.0041246868
0.0040556386
0.0039904251
0.0039290424
0.003871487
0.0038177561
0.0037678474
0.0037217595
0.0036794918
0.0036410444
0.0036064186
0.0035756165
0.0035486413
0.0035254971
0.0035061895
0.0034907249
0.0034791112
0.0034713592
0.003467493
0.0084454075
0.0082516511
0.0080614582
0.007874899
0.0076920224
0.0075128718
0.0073374861
0.0071658996
0.0069981426
0.0068342411
0.0066742176
0.0065180909
0.0063658767
0.0062175878
0.0060732343
0.0059328238
0.0057963618
0.0056638518
0.0055352955
0.0054106931
0.0052900433
0.0051733437
0.005060591
0.0049517808
0.0048469082
0.0047459676
0.004648953
0.0045558583
0.0044666769
0.0043814023
0.0043000281
0.004222548
0.0041489559
0.004079246
0.004013413
0.003951452
0.0038933588
0.0038391297
0.0037887618
0.003742253
0.003699602
0.0036608083
0.0036258726
0.0035947965
0.0035675827
0.003544235
0.0035247583
0.0035091589
0.0034974442
0.0034896248
0.0034857251
0.0085185252
0.0083221675
0.0081294547
0.0079404554
0.0077552174
0.007573783
0.0073961899
0.0072224713
0.007052656
0.006886769
0.0067248313
0.0065668603
0.0064128703
0.0062628728
0.0061168764
0.0059748872
0.0058369094
0.005702945
0.0055729944
0.0054470561
0.0053251278
0.0052072056
0.0050932848
0.0049833597
0.0048774242
0.0047754714
0.0046774942
0.0045834851
0.0044934366
0.0044073411
0.004325191
0.004246979
0.0041726981
0.0041023415
0.0040359031
0.0039733771
0.0039147584
0.0038600427
0.0038092263
0.0037623064
0.003719281
0.0036801491
0.0036449109
0.0036135673
0.0035861206
0.0035625742
0.0035429326
0.0035272017
0.0035153885
0.0035075032
0.0035035709
0.0085897592
0.0083908664
0.0081956979
0.0080043208
0.0078167817
0.0076331218
0.0074533777
0.0072775815
0.0071057608
0.0069379391
0.0067741362
0.0066143682
0.0064586482
0.006306986
0.0061593889
0.0060158619
0.0058764074
0.0057410262
0.0056097172
0.0054824779
0.0053593042
0.0052401911
0.0051251326
0.0050141217
0.0049071511
0.0048042126
0.004705298
0.0046103986
0.0045195058
0.004432611
0.0043497055
0.004270781
0.0041958296
0.0041248436
0.0040578159
0.00399474
0.00393561
0.0038804208
0.003829168
0.0037818482
0.0037384587
0.0036989979
0.0036634654
0.0036318618
0.0036041887
0.0035804492
0.0035606473
0.0035447886
0.0035328797
0.0035249304
0.0035209665
0.0086589079
0.0084575532
0.0082599999
0.0080663137
0.0078765401
0.0076907191
0.0075088864
0.0073310728
0.0071573048
0.0069876047
0.0068219909
0.0066604784
0.0065030786
0.0063498003
0.0062006494
0.0060556294
0.0059147415
0.005777985
0.0056453576
0.0055168554
0.005392473
0.0052722042
0.0051560415
0.0050439769
0.0049360018
0.0048321069
0.0047322827
0.0046365195
0.0045448076
0.0044571373
0.004373499
0.0042938835
0.0042182817
0.0041466853
0.0040790862
0.0040154771
0.0039558513
0.0039002031
0.0038485273
0.0038008198
0.0037570774
0.0037172979
0.0036814804
0.0036496248
0.0036217324
0.0035978058
0.0035778488
0.0035618664
0.0035498648
0.0035418536
0.0035378591
0.0087258098
0.0085220719
0.0083222102
0.0081262889
0.0079343524
0.0077464398
0.0075625855
0.0073828194
0.0072071668
0.0070356487
0.0068682825
0.0067050816
0.0065460564
0.0063912142
0.0062405598
0.0060940951
0.0059518203
0.0058137333
0.0056798304
0.0055501063
0.0054245547
0.0053031678
0.0051859371
0.0050728534
0.0049639067
0.0048590867
0.0047583828
0.0046617844
0.0045692804
0.0044808603
0.0043965135
0.0043162299
0.0042399994
0.0041678129
0.0040996615
0.004035537
0.0039754322
0.0039193404
0.0038672559
0.0038191739
0.0037750907
0.0037350034
0.0036989106
0.0036668118
0.0036387078
0.0036146007
0.003594494
0.0035783922
0.0035663013
0.0035582303
0.0035542063
0.0087903399
0.0085843019
0.0083822123
0.0081841339
0.0079901101
0.007800179
0.007614374
0.0074327238
0.0072552526
0.0070819804
0.0069129232
0.0067480933
0.0065874999
0.0064311491
0.0062790441
0.0061311859
0.0059875731
0.0058482026
0.0057130694
0.0055821669
0.0054554875
0.0053330224
0.0052147617
0.0051006951
0.0049908116
0.0048850997
0.0047835477
0.0046861439
0.0045928764
0.0045037335
0.0044187038
0.0043377761
0.0042609398
0.0041881846
0.004119501
0.0040548801
0.0039943137
0.0039377947
0.0038853165
0.0038368739
0.0037924624
0.0037520788
0.003715721
0.0036833881
0.0036550804
0.0036307997
0.0036105489
0.0035943324
0.0035821556
0.0035740272
0.0035699748
0.0088524051
0.0086441531
0.0084399194
0.0082397651
0.0080437326
0.007851859
0.0076641768
0.0074807136
0.0073014925
0.0071265324
0.0069558482
0.006789451
0.0066273488
0.0064695465
0.006316046
0.0061668472
0.0060219475
0.0058813424
0.0057450257
0.0056129899
0.0054852259
0.0053617237
0.0052424726
0.0051274609
0.0050166765
0.004910107
0.0048077396
0.0047095615
0.0046155599
0.0045257223
0.0044400361
0.0043584895
0.0042810709
0.0042077693
0.0041385743
0.0040734763
0.0040124666
0.0039555371
0.0039026809
0.0038538919
0.0038091653
0.0037684972
0.003731885
0.0036993275
0.0036708244
0.0036463771
0.0036259882
0.0036096617
0.0035974026
0.0035892191
0.0035851395
0.0089119407
0.0087015635
0.0084952715
0.0082931246
0.0080951641
0.0079014261
0.007711942
0.0075267387
0.0073458382
0.0071692582
0.0069970126
0.0068291114
0.0066655613
0.0065063661
0.0063515267
0.0062010416
0.0060549071
0.0059131176
0.0057756656
0.0056425424
0.005513738
0.0053892412
0.00526904
0.0051531218
0.0050414735
0.0049340815
0.0048309322
0.0047320117
0.0046373063
0.0045468025
0.0044604871
0.0043783472
0.0043003704
0.0042265451
0.00415686
0.004091305
0.0040298704
0.0039725477
0.0039193293
0.0038702087
0.0038251802
0.0037842398
0.0037473841
0.0037146115
0.0036859214
0.0036613148
0.0036407938
0.0036243621
0.0036120243
0.0036037882
0.0035996826
0.008968907
0.0087564948
0.0085482319
0.0083441772
0.0081443706
0.0079488474
0.0077576382
0.0075707689
0.0073882604
0.0072101296
0.0070363891
0.0068670481
0.006702112
0.0065415836
0.0063854625
0.0062337463
0.00608643
0.0059435068
0.0058049684
0.0056708047
0.0055410047
0.0054155561
0.0052944459
0.0051776605
0.0050651856
0.0049570069
0.0048531095
0.0047534789
0.0046581004
0.0045669595
0.0044800423
0.004397335
0.0043188246
0.0042444985
0.004174345
0.004108353
0.0040465124
0.0039888139
0.0039352495
0.0038858119
0.0038404952
0.0037992945
0.0037622064
0.0037292285
0.0037003599
0.0036756012
0.0036549543
0.0036384222
0.0036260094
0.0036177231
0.0036135929
0.0090232862
0.0088089301
0.0085987844
0.0083929072
0.0081913372
0.0079941087
0.0078012516
0.0076127907
0.0074287463
0.0072491341
0.0070739659
0.0069032496
0.0067369899
0.0065751881
0.0064178432
0.0062649513
0.0061165065
0.0059725009
0.0058329251
0.0056977681
0.0055670175
0.0054406603
0.0053186824
0.0052010692
0.0050878054
0.0049788757
0.0048742645
0.0047739561
0.0046779352
0.0045861865
0.0044986951
0.0044154466
0.0043364271
0.0042616234
0.004191023
0.0041246143
0.0040623865
0.0040043298
0.0039504354
0.0039006958
0.0038551043
0.0038136557
0.0037763461
0.0037431726
0.0037141341
0.0036892307
0.0036684638
0.0036518364
0.0036393522
0.0036310181
0.0036268645
0.009075079
0.0088588712
0.0086469309
0.0084393165
0.0082360657
0.0080372117
0.0078427837
0.0076528058
0.0074672974
0.0072862733
0.0071097443
0.0069377174
0.0067701962
0.0066071811
0.0064486699
0.0062946578
0.0061451378
0.006000101
0.0058595369
0.0057234334
0.0055917774
0.0054645547
0.0053417503
0.0052233485
0.0051093334
0.0049996885
0.0048943975
0.0047934439
0.0046968113
0.0046044838
0.0045164458
0.004432682
0.0043531779
0.0042779196
0.0042068939
0.0041400887
0.0040774925
0.0040190949
0.0039648868
0.0039148598
0.0038690071
0.0038273228
0.0037898026
0.0037564434
0.0037272434
0.0037022024
0.0036813217
0.0036646037
0.0036520519
0.0036436725
0.0036394966
0.009124303
0.008906336
0.0086926894
0.008483422
0.008278572
0.0080781717
0.0078822493
0.0076908284
0.0075039274
0.0073215604
0.0071437372
0.0069704639
0.0068017431
0.0066375742
0.0064779539
0.0063228766
0.0061723343
0.006026317
0.0058848133
0.0057478101
0.0056152934
0.005487248
0.0053636579
0.0052445067
0.0051297774
0.0050194528
0.0049135158
0.0048119489
0.0047147352
0.0046218578
0.0045333004
0.0044490471
0.0043690827
0.0042933926
0.0042219631
0.0041547813
0.0040918352
0.0040331141
0.0039786081
0.0039283084
0.0038822078
0.0038402999
0.0038025799
0.0037690444
0.0037396914
0.0037145201
0.0036935316
0.0036767278
0.0036641119
0.0036556896
0.0036514928
0.0091709934
0.0089513576
0.0087360909
0.0085252533
0.0083188845
0.0081170157
0.0079196746
0.0077268836
0.0075386607
0.007355019
0.0071759674
0.007001511
0.0068316515
0.0066663876
0.0065057149
0.0063496268
0.0061981143
0.0060511667
0.0059087714
0.0057709146
0.0056375812
0.0055087553
0.0053844199
0.0052645577
0.0051491511
0.0050381819
0.004931632
0.0048294836
0.0047317187
0.0046383199
0.00454927
0.0044645526
0.0043841518
0.0043080524
0.0042362401
0.0041687014
0.0041054239
0.0040463961
0.0039916079
0.0039410499
0.0038947145
0.0038525948
0.0038146858
0.0037809835
0.0037514856
0.0037261911
0.0037051006
0.0036882158
0.0036755395
0.0036670766
0.00366286
0.0089939803
0.0087771774
0.0085648502
0.0083570412
0.0081537806
0.0079550949
0.0077610058
0.0075715304
0.0073866809
0.0072064654
0.0070308883
0.0068599503
0.0066936491
0.0065319795
0.006374934
0.0062225027
0.006074674
0.0059314344
0.0057927693
0.0056586626
0.0055290975
0.0054040565
0.0052835212
0.0051674732
0.0050558937
0.0049487638
0.0048460649
0.0047477783
0.0046538859
0.00456437
0.0044792134
0.0043983997
0.004321913
0.0042497385
0.0041818622
0.0041182712
0.0040589534
0.0040038983
0.0039530962
0.0039065387
0.003864219
0.0038261313
0.0037922715
0.0037626368
0.0037372259
0.0037160392
0.003699078
0.0036863447
0.0036778436
0.0036736085
0.0090342532
0.0088159961
0.0086022599
0.0083930884
0.0081885111
0.0079885535
0.0077932367
0.0076025767
0.0074165851
0.0072352692
0.0070586323
0.0068866745
0.0067193926
0.0065567805
0.0063988299
0.00624553
0.0060968684
0.0059528307
0.0058134014
0.0056785639
0.0055483003
0.0054225922
0.0053014209
0.0051847668
0.0050726105
0.0049649326
0.0048617135
0.004762934
0.0046685754
0.0045786192
0.0044930478
0.004411844
0.0043349915
0.004262475
0.0041942799
0.0041303929
0.0040708014
0.0040154944
0.0039644618
0.0039176949
0.0038751863
0.0038369302
0.0038029218
0.0037731582
0.0037476377
0.0037263604
0.0037093273
0.0036965404
0.0036880034
0.0036837508
0.0090722345
0.0088526034
0.008637537
0.0084270791
0.0082212586
0.0080201003
0.0078236244
0.0076318462
0.0074447765
0.0072624218
0.0070847847
0.0069118644
0.0067436569
0.0065801554
0.0064213506
0.0062672311
0.0061177835
0.0059729928
0.0058328426
0.0056973154
0.0055663927
0.0054400555
0.005318284
0.0052010582
0.0050883579
0.004980163
0.0048764533
0.0047772089
0.0046824106
0.0045920392
0.0045060766
0.0044245051
0.0043473078
0.0042744688
0.0042059733
0.0041418072
0.0040819578
0.0040264134
0.0039751637
0.0039281996
0.0038855132
0.0038470984
0.0038129503
0.0037830653
0.0037574418
0.0037360793
0.0037189787
0.0037061414
0.0036975707
0.0036933019
0.0091079886
0.0088870621
0.0086707422
0.008459072
0.0082520799
0.00804979
0.0078522218
0.00765939
0.0074713044
0.007287971
0.0071093915
0.0069355644
0.006766485
0.0066021456
0.0064425362
0.0062876446
0.0061374567
0.0059919566
0.0058511274
0.0057149506
0.0055834073
0.0054564775
0.0053341408
0.0052163766
0.0051031641
0.0049944823
0.0048903107
0.0047906287
0.0046954163
0.0046046542
0.0045183233
0.0044364056
0.0043588838
0.0042857414
0.0042169631
0.0041525345
0.0040924424
0.0040366748
0.0039852209
0.0039380713
0.0038952178
0.0038566539
0.0038223744
0.0037923755
0.0037666552
0.0037452129
0.003728049
0.0037151646
0.0037065623
0.0037022783
0.0091415853
0.00891944
0.0087019409
0.0084891304
0.0082810362
0.0080776818
0.0078790861
0.0076852631
0.007496222
0.007311968
0.0071325023
0.0069578224
0.0067879229
0.0066227955
0.0064624295
0.0063068119
0.0061559278
0.0060097607
0.005868293
0.0057315056
0.0055993787
0.0054718917
0.0053490238
0.0052307534
0.0051170593
0.00500792
0.0049033141
0.0048032207
0.0047076193
0.0046164898
0.0045298129
0.0044475699
0.0043697432
0.0042963157
0.0042272718
0.0041625966
0.0041022766
0.0040462993
0.0039946537
0.00394733
0.0039043197
0.0038656159
0.0038312132
0.0038011075
0.0037752965
0.0037537793
0.0037365562
0.0037236278
0.0037149959
0.0037106978
0.0091730984
0.0089498087
0.0087312024
0.0085173209
0.0083081917
0.0081038377
0.0079042772
0.0077095235
0.0075195852
0.0073344669
0.0071541689
0.0069786884
0.006808019
0.0066421519
0.0064810756
0.0063247764
0.0061732388
0.0060264458
0.0058843787
0.0057470181
0.0056143434
0.0054863336
0.0053629669
0.0052442216
0.0051300755
0.0050205067
0.0049154934
0.004815014
0.0047190475
0.0046275734
0.0045405718
0.0044580237
0.0043799109
0.0043062161
0.004236923
0.0041720166
0.0041114829
0.0040553091
0.0040034838
0.0039559968
0.0039128396
0.0038740048
0.0038394867
0.0038092811
0.0037833852
0.0037617981
0.0037445197
0.0037315501
0.0037228907
0.0037185795
0.0092026049
0.0089782424
0.008758598
0.0085437127
0.0083336132
0.0081283221
0.0079278571
0.007732231
0.0075414519
0.0073555234
0.0071744455
0.0069982145
0.0068268236
0.0066602633
0.0064985213
0.0063415834
0.0061894334
0.0060420537
0.005899425
0.0057615272
0.0056283393
0.0054998395
0.0053760056
0.0052568152
0.0051422457
0.0050322746
0.0049268795
0.0048260385
0.00472973
0.0046379331
0.0045506274
0.0044677935
0.0043894128
0.0043154676
0.0042459413
0.0041808184
0.0041200846
0.0040637269
0.0040117334
0.0039640938
0.0039207991
0.0038818418
0.0038472158
0.0038169167
0.0037909417
0.0037692893
0.0037519593
0.0037389515
0.0037302664
0.0037259431
0.0092301836
0.009004817
0.0087842011
0.0085683763
0.0083573688
0.0081512009
0.0079498896
0.0077534471
0.0075618811
0.0073751946
0.0071933869
0.0070164538
0.0068443879
0.006677179
0.0065148142
0.0063572788
0.006204556
0.0060566274
0.0059134734
0.0057750732
0.0056414051
0.005512447
0.005388176
0.0052685693
0.0051536038
0.0050432563
0.0049375042
0.004836325
0.0047396966
0.0046475978
0.0045600078
0.0044769067
0.0043982755
0.0043240962
0.0042543518
0.0041890266
0.0041281058
0.0040715761
0.0040194255
0.0039716433
0.0039282202
0.0038891485
0.0038544219
0.0038240357
0.0037979868
0.0037762736
0.0037588956
0.0037458523
0.0037371434
0.0037328089
0.0092559141
0.0090296094
0.008808086
0.0085913834
0.0083795278
0.0081725407
0.0079704388
0.0077732339
0.0075809328
0.0073935383
0.007211049
0.0070334602
0.0068607639
0.0066929492
0.0065300028
0.0063719094
0.0062186516
0.0060702104
0.0059265658
0.0057876963
0.0056535799
0.0055241938
0.0053995147
0.0052795192
0.0051641838
0.005053485
0.0049473995
0.0048459045
0.0047489775
0.0046565968
0.0045687413
0.0044853907
0.0044065257
0.0043321279
0.00426218
0.0041966659
0.0041355707
0.0040788806
0.0040265834
0.0039786682
0.0039351254
0.0038959471
0.0038611267
0.0038306594
0.0038045417
0.003782772
0.0037653495
0.0037522733
0.0037435422
0.0037391975
0.0092798766
0.0090526968
0.008830327
0.008612806
0.0084001594
0.0081924085
0.0079895695
0.0077916535
0.0075986672
0.0074106125
0.0072274878
0.0070492876
0.0068760035
0.0067076241
0.0065441356
0.0063855219
0.0062317653
0.0060828463
0.0059387443
0.0057994374
0.005664903
0.0055351178
0.0054100583
0.0052897004
0.0051740202
0.0050629938
0.0049565975
0.0048548081
0.0047576028
0.0046649594
0.0045768565
0.0044932734
0.0044141905
0.0043395891
0.0042694516
0.0042037615
0.0041425037
0.0040856643
0.0040332306
0.0039851915
0.0039415373
0.0039022598
0.0038673522
0.0038368094
0.0038106278
0.0037888057
0.0037713419
0.0037582353
0.0037494837
0.0037451296
0.0093021507
0.0090741563
0.0088509985
0.0086327157
0.0084193329
0.008210871
0.0080073459
0.0078087682
0.0076151441
0.0074264751
0.007242759
0.0070639899
0.0068901588
0.0067212538
0.0065572607
0.0063981629
0.0062439422
0.0060945786
0.0059500509
0.0058103368
0.0056754134
0.005545257
0.0054198433
0.0052991482
0.0051831471
0.0050718159
0.0049651304
0.0048630671
0.0047656028
0.0046727149
0.0045843817
0.0045005823
0.0044212967
0.0043465059
0.004276192
0.0042103383
0.0041489293
0.004091951
0.0040393904
0.0039912362
0.0039474784
0.0039081087
0.0038731201
0.0038425072
0.0038162665
0.0037943957
0.0037768939
0.0037637591
0.0037549886
0.003750626
0.0093228155
0.0090940641
0.0088701741
0.0086511834
0.0084371166
0.0082279943
0.0080238318
0.0078246395
0.0076304229
0.0074411832
0.0072569177
0.0070776201
0.006903281
0.0067338879
0.0065694261
0.0064098787
0.0062552268
0.0061054501
0.005960527
0.0058204348
0.0056851501
0.0055546486
0.005428906
0.0053078976
0.0051915985
0.0050799841
0.00497303
0.0048707122
0.0047730072
0.0046798923
0.0045913453
0.0045073449
0.004427871
0.0043529043
0.0042824266
0.0042164209
0.0041548716
0.0040977643
0.0040450859
0.0039968249
0.0039529711
0.0039135159
0.0038784522
0.0038477745
0.0038214789
0.0037995632
0.0037820261
0.0037688655
0.0037600776
0.0037557072
0.0093419488
0.0091124952
0.0088879263
0.0086682791
0.0084535782
0.0082438436
0.0080390901
0.0078393279
0.0076445619
0.0074547932
0.0072700184
0.0070902309
0.0069154208
0.0067455752
0.0065806789
0.0064207145
0.0062656629
0.0061155033
0.0059702136
0.0058297708
0.0056941509
0.0055633297
0.0054372821
0.0053159831
0.0051994076
0.0050875306
0.0049803274
0.0048777737
0.0047798456
0.0046865201
0.0045977748
0.0045135882
0.0044339398
0.0043588099
0.0042881804
0.0042220339
0.0041603545
0.0041031277
0.0040503402
0.0040019802
0.0039580374
0.003918503
0.0038833698
0.0038526321
0.0038262859
0.0038043287
0.0037867592
0.0037735748
0.003764771
0.0037603936
0.0093596271
0.0091295234
0.008904326
0.0086840715
0.0084687839
0.0082584826
0.0080531824
0.0078528928
0.0076576186
0.0074673604
0.0072821144
0.0071018736
0.0069266277
0.0067563634
0.0065910652
0.0064307151
0.0062752936
0.0061247796
0.0059791507
0.0058383834
0.0057024535
0.0055713362
0.0054450063
0.0053234385
0.0052066072
0.0050944872
0.0049870534
0.0048842813
0.0047861468
0.0046926264
0.0046036976
0.0045193386
0.0044395286
0.0043642479
0.0042934778
0.004227201
0.0041654013
0.0041080639
0.0040551755
0.004006724
0.0039626989
0.0039230914
0.003887894
0.0038571009
0.003830708
0.0038087127
0.0037911134
0.0037779073
0.0037690888
0.0037647051
0.0093759248
0.0091452206
0.0089194429
0.0086986276
0.0084827982
0.0082719738
0.0080661688
0.0078653923
0.0076696489
0.0074789387
0.0072932577
0.0071125985
0.0069369503
0.0067662995
0.00660063
0.0064399238
0.0062841609
0.0061333196
0.0059873774
0.0058463105
0.0057100942
0.0055787035
0.0054521129
0.0053302967
0.0052132292
0.0051008847
0.004993238