/*--------------------------------*- C++ -*----------------------------------*\
| =========                 |                                                 |
| \\      /  F ield         | OpenFOAM: The Open Source CFD Toolbox           |
|  \\    /   O peration     | Version:  2312                                  |
|   \\  /    A nd           | Website:  www.openfoam.com                      |
|    \\/     M anipulation  |                                                 |
\*---------------------------------------------------------------------------*/
FoamFile
{
    version     2.0;
    format      ascii;
    arch        "LSB;label=32;scalar=64";
    class       volScalarField;
    location    "0.08";
    object      H2O;
}
// * * * * * * * * * * * * * * * * * * * * * * * * * * * * * * * * * * * * * //

dimensions      [0 0 0 0 0 0 0];

internalField   nonuniform List<scalar> 
3257
(
0.0060573588
0.0059294554
0.0058034958
0.0056795549
0.0055576888
0.0054379481
0.0053203794
0.0052050263
0.0050919295
0.0049811266
0.0048726526
0.0047665401
0.004662819
0.0045615173
0.0044626605
0.0043662725
0.0042723751
0.0041809883
0.0040921307
0.0040058194
0.00392207
0.0038408969
0.0037623134
0.0036863316
0.0036129627
0.0035422172
0.0034741045
0.0034086336
0.0033458128
0.0032856497
0.0032281516
0.0031733255
0.0031211778
0.0030717149
0.003024943
0.0029808679
0.0029394957
0.0029008323
0.0028648836
0.0028316558
0.002801155
0.0027733876
0.0027483605
0.0027260807
0.0027065554
0.0026897927
0.0026758006
0.0026645881
0.0026561643
0.0026505389
0.0026477215
0.0060682546
0.0059399391
0.0058135851
0.0056892647
0.0055670329
0.0054469396
0.005329031
0.0052133504
0.0050999381
0.0049888314
0.0048800652
0.0047736716
0.0046696804
0.0045681191
0.0044690132
0.0043723861
0.0042782595
0.0041866531
0.0040975853
0.0040110728
0.003927131
0.0038457742
0.0037670153
0.0036908663
0.0036173382
0.0035464412
0.0034781845
0.0034125769
0.0033496265
0.0032893408
0.0032317269
0.0031767915
0.0031245411
0.0030749817
0.0030281194
0.0029839601
0.0029425094
0.0029037734
0.0028677577
0.0028344684
0.0028039116
0.0027760937
0.0027510213
0.0027287013
0.0027091413
0.0026923488
0.0026783323
0.0026671008
0.0026586641
0.0026530333
0.0026502216
0.0060888781
0.005959802
0.0058327122
0.005707681
0.005584763
0.0054640074
0.0053454599
0.0052291633
0.0051151573
0.0050034789
0.0048941623
0.0047872392
0.0046827389
0.0045806885
0.0044811128
0.0043840349
0.0042894759
0.0041974551
0.0041079905
0.0040210982
0.0039367933
0.0038550894
0.0037759993
0.0036995344
0.0036257053
0.0035545218
0.0034859929
0.0034201268
0.0033569313
0.0032964137
0.0032385806
0.0031834386
0.0031309936
0.0030812517
0.0030342184
0.0029898994
0.0029483003
0.0029094267
0.0028732841
0.0028398785
0.0028092157
0.0027813019
0.0027561437
0.0027337479
0.0027141217
0.0026972727
0.0026832093
0.0026719401
0.0026634747
0.0026578241
0.0026550032
0.006118033
0.0059878893
0.0058597665
0.0057337368
0.005609854
0.0054881667
0.0053687201
0.0052515562
0.0051367142
0.0050242303
0.004914138
0.0048064685
0.0047012504
0.0045985099
0.0044982715
0.0044005574
0.004305388
0.0042127822
0.004122757
0.0040353282
0.0039505101
0.0038683159
0.0037887576
0.003711846
0.0036375914
0.0035660027
0.0034970886
0.0034308569
0.0033673147
0.0033064688
0.0032483256
0.003192891
0.0031401707
0.0030901701
0.0030428947
0.0029983497
0.0029565404
0.0029174719
0.0028811497
0.0028475792
0.0028167662
0.0027887167
0.002763437
0.0027409336
0.0027212137
0.0027042847
0.0026901548
0.0026788325
0.0026703273
0.0026646501
0.0026618161
0.0061545904
0.0060231155
0.0058937046
0.005766429
0.005641342
0.0055184915
0.0053979218
0.0052796744
0.0051637874
0.0050502965
0.0049392344
0.0048306313
0.004724515
0.0046209111
0.0045198431
0.0044213325
0.0043253988
0.0042320602
0.0041413329
0.0040532318
0.0039677707
0.0038849618
0.0038048165
0.003727345
0.0036525566
0.0035804599
0.0035110626
0.0034443721
0.0033803949
0.0033191371
0.0032606046
0.0032048028
0.0031517368
0.0031014117
0.0030538324
0.0030090036
0.0029669301
0.002927617
0.0028910692
0.0028572918
0.0028262902
0.0027980703
0.0027726378
0.0027499994
0.0027301618
0.0027131323
0.0026989189
0.00268753
0.0026789749
0.0026732643
0.002670414
0.0061974827
0.0060644533
0.0059335376
0.0058048064
0.0056783121
0.0055541016
0.0054322187
0.0053127039
0.0051955945
0.0050809251
0.0049687278
0.0048590316
0.0047518637
0.0046472486
0.0045452088
0.0044457649
0.0043489356
0.0042547381
0.0041631877
0.0040742985
0.0039880833
0.0039045536
0.0038237197
0.0037455912
0.0036701766
0.0035974837
0.0035275195
0.0034602905
0.0033958026
0.0033340614
0.0032750719
0.0032188389
0.003165367
0.0031146608
0.0030667244
0.0030215624
0.0029791789
0.0029395784
0.0029027655
0.0028687451
0.002837522
0.0028091018
0.0027834901
0.002760693
0.0027407171
0.0027235696
0.0027092581
0.0026977909
0.0026891772
0.0026834276
0.002680558
0.0062457103
0.0061109398
0.0059783385
0.0058479763
0.0057199048
0.0055941701
0.0054708148
0.0053498787
0.0052313981
0.0051154068
0.0050019356
0.0048910129
0.0047826645
0.0046769141
0.0045737832
0.0044732913
0.0043754561
0.0042802937
0.0041878186
0.0040980439
0.0040109813
0.0039266413
0.0038450336
0.0037661666
0.003690048
0.0036166847
0.0035460829
0.0034782484
0.0034131862
0.0033509011
0.0032913975
0.0032346795
0.003180751
0.003129616
0.003081278
0.003035741
0.0029930086
0.0029530848
0.0029159738
0.0028816798
0.0028502076
0.002821562
0.0027957485
0.0027727729
0.0027526415
0.0027353612
0.0027209393
0.002709384
0.0027007043
0.0026949106
0.0026920193
0.0062983456
0.0061616812
0.006027246
0.0058951091
0.005765321
0.005637927
0.0055129687
0.0053904849
0.005270511
0.0051530797
0.0050382208
0.0049259616
0.0048163269
0.0047093391
0.0046050188
0.0045033843
0.0044044524
0.004308238
0.0042147544
0.0041240138
0.0040360268
0.003950803
0.0038683509
0.0037886781
0.0037117913
0.0036376964
0.0035663988
0.0034979033
0.0034322142
0.0033693355
0.0033092707
0.0032520232
0.0031975963
0.0031459931
0.0030972167
0.0030512702
0.0030081569
0.0029678802
0.0029304436
0.002895851
0.0028641066
0.0028352151
0.0028091813
0.0027860108
0.0027657096
0.0027482842
0.0027337418
0.0027220904
0.0027133386
0.0027074969
0.0027045818
0.0063545348
0.0062158542
0.0060794664
0.0059454397
0.0058138234
0.0056846618
0.0055579958
0.005433863
0.0053122979
0.0051933319
0.0050769939
0.00496331
0.0048523038
0.0047439967
0.004638408
0.0045355551
0.0044354534
0.0043381167
0.0042435574
0.0041517863
0.0040628131
0.0039766462
0.0038932931
0.0038127603
0.0037350535
0.0036601778
0.0035881375
0.0035189366
0.0034525783
0.0033890658
0.0033284019
0.0032705892
0.0032156301
0.0031635271
0.0031142825
0.0030678989
0.0030243789
0.0029837253
0.0029459411
0.0029110297
0.0028789949
0.0028498407
0.0028235718
0.0028001932
0.0027797107
0.0027621304
0.0027474594
0.0027357053
0.0027268765
0.0027209835
0.0027180431
0.0064134979
0.0062727063
0.0061342741
0.0059982682
0.0058647372
0.0057337243
0.0056052693
0.0054794089
0.0053561764
0.0052356023
0.0051177141
0.0050025369
0.0048900932
0.0047804031
0.0046734848
0.0045693543
0.0044680261
0.0043695126
0.0042738251
0.0041809732
0.0040909656
0.0040038095
0.0039195112
0.0038380763
0.0037595094
0.0036838146
0.0036109951
0.0035410539
0.0034739935
0.003409816
0.0033485235
0.0032901177
0.0032346002
0.0031819727
0.003132237
0.0030853947
0.003041448
0.0030003989
0.00296225
0.0029270041
0.0028946645
0.0028652348
0.0028387191
0.0028151223
0.0027944496
0.0027767069
0.0027619009
0.0027500391
0.0027411297
0.0027351828
0.0027322157
0.0064745275
0.0063315551
0.0061910104
0.0060529595
0.0059174498
0.0057845235
0.0056542195
0.0055265733
0.0054016172
0.0052793804
0.0051598896
0.0050431684
0.0049292381
0.0048181178
0.0047098243
0.0046043725
0.0045017756
0.0044020448
0.0043051903
0.0042112204
0.0041201426
0.004031963
0.0039466869
0.0038643186
0.0037848618
0.0037083193
0.0036346935
0.0035639863
0.0034961994
0.0034313338
0.0033693908
0.0033103712
0.0032542759
0.0032011057
0.0031508616
0.0031035448
0.0030591564
0.0030176982
0.002979172
0.00294358
0.0029109251
0.0028812103
0.0028544394
0.0028306168
0.0028097473
0.0027918366
0.0027768911
0.0027649178
0.0027559249
0.0027499223
0.0027469276
0.0065369869
0.0063917858
0.0062490823
0.0061089413
0.0059714091
0.005836527
0.0057043327
0.0055748608
0.0054481425
0.0053242058
0.0052030762
0.0050847761
0.0049693257
0.0048567427
0.0047470428
0.0046402396
0.004536345
0.0044353692
0.0043373209
0.0042422074
0.0041500348
0.0040608083
0.0039745318
0.0038912086
0.0038108413
0.0037334315
0.0036589808
0.0035874901
0.0035189598
0.0034533903
0.0033907817
0.0033311342
0.0032744477
0.0032207223
0.0031699582
0.0031221558
0.0030773158
0.003035439
0.0029965268
0.0029605809
0.0029276034
0.0028975971
0.0028705652
0.0028465116
0.0028254409
0.0028073585
0.0027922702
0.002780183
0.0027711048
0.0027650452
0.0027620223
0.0066003069
0.006452849
0.0063079593
0.0061657017
0.0060261211
0.0058892581
0.0057551493
0.0056238281
0.0054953247
0.005369666
0.0052468761
0.0051269765
0.005009986
0.0048959211
0.0047847963
0.0046766238
0.0045714144
0.0044691769
0.0043699189
0.0042736466
0.0041803647
0.0040900772
0.0040027869
0.0039184961
0.003837206
0.0037589175
0.0036836309
0.0036113459
0.0035420624
0.0034757795
0.0034124965
0.0033522127
0.0032949271
0.0032406392
0.0031893482
0.0031410539
0.0030957562
0.0030534554
0.0030141522
0.0029778477
0.0029445435
0.0029142418
0.0028869456
0.0028626582
0.0028413838
0.0028231273
0.0028078946
0.002795692
0.0027865273
0.0027804101
0.0027773586
0.0066639825
0.0065142571
0.0063671709
0.0062227863
0.0060811475
0.0059422938
0.005806261
0.0056730813
0.0055427839
0.0054153945
0.0052909361
0.0051694288
0.0050508903
0.004935336
0.0048227788
0.00471323
0.0046066989
0.0045031933
0.0044027194
0.0043052821
0.0042108851
0.0041195311
0.0040312218
0.0039459582
0.0038637407
0.0037845688
0.0037084418
0.0036353587
0.0035653179
0.003498318
0.0034343572
0.0033734338
0.0033155461
0.0032606928
0.0032088723
0.0031600837
0.0031143261
0.0030715992
0.0030319031
0.0029952383
0.0029616059
0.0029310076
0.0029034458
0.0028789235
0.0028574445
0.0028390133
0.0028236355
0.0028113172
0.0028020657
0.0027958905
0.0027928102
0.0067275696
0.0065755812
0.0064263027
0.0062797953
0.0061361021
0.0059952616
0.0058573083
0.0057222737
0.0055901855
0.0054610686
0.0053349446
0.0052118326
0.0050917489
0.0049747077
0.0048607207
0.004749798
0.0046419476
0.0045371761
0.0044354884
0.0043368882
0.004241378
0.0041489594
0.0040596329
0.0039733984
0.0038902549
0.0038102013
0.0037332356
0.0036593556
0.0035885591
0.0035208435
0.0034562062
0.0033946445
0.003336156
0.0032807384
0.0032283896
0.0031791077
0.0031328912
0.0030897393
0.0030496512
0.003012627
0.0029786672
0.0029477731
0.0029199464
0.0028951899
0.0028735068
0.0028549015
0.002839379
0.0028269452
0.0028176073
0.0028113744
0.0028082654
0.0067906803
0.0066364467
0.0064849931
0.0063363796
0.0061906481
0.0060478362
0.0059079775
0.0057711023
0.0056372374
0.0055064064
0.0053786298
0.0052539255
0.0051323086
0.0050137921
0.0048983865
0.0047861006
0.0046769412
0.0045709135
0.0044680215
0.0043682675
0.0042716529
0.004178178
0.0040878423
0.0040006444
0.0039165824
0.003835654
0.0037578562
0.0036831859
0.0036116397
0.0035432141
0.0034779057
0.003415711
0.0033566266
0.0033006494
0.0032477765
0.0031980055
0.003151334
0.0031077606
0.0030672839
0.0030299034
0.0029956191
0.0029644317
0.0029363426
0.0029113539
0.0028894687
0.0028706908
0.002855025
0.0028424769
0.0028330533
0.0028267632
0.0028236259
0.0068529797
0.00669653
0.0065429297
0.0063922374
0.0062444942
0.0060997366
0.0059579973
0.0058193055
0.0056836869
0.0055511641
0.0054217564
0.0052954806
0.0051723505
0.0050523779
0.0049355722
0.0048219409
0.0047114896
0.0046042223
0.0045001418
0.0043992491
0.0043015446
0.0042070274
0.0041156957
0.0040275473
0.003942579
0.0038607874
0.0037821686
0.0037067184
0.0036344326
0.0035653067
0.0034993362
0.003436517
0.0033768448
0.0033203156
0.003266926
0.0032166725
0.0031695524
0.0031255633
0.0030847035
0.0030469718
0.0030123675
0.0029808911
0.0029525432
0.0029273258
0.0029052414
0.0028862935
0.0028704865
0.0028578258
0.0028483178
0.0028419713
0.0028388061
0.0069141808
0.0067555542
0.006599845
0.0064471106
0.0062973911
0.0061507221
0.0060071353
0.005866659
0.0057293178
0.0055951331
0.0054641233
0.0053363037
0.0052116873
0.0050902845
0.0049721035
0.0048571507
0.0047454305
0.0046369457
0.0045316978
0.0044296869
0.0043309119
0.004235371
0.0041430614
0.0040539794
0.0039681211
0.0038854819
0.003806057
0.0037298411
0.0036568291
0.0035870155
0.0035203952
0.0034569629
0.0033967137
0.0033396428
0.0032857459
0.003235019
0.0031874586
0.0031430617
0.003101826
0.0030637496
0.0030288316
0.0029970716
0.00296847
0.0029430283
0.0029207486
0.002901634
0.0028856886
0.0028729175
0.0028633268
0.0028569251
0.0028537325
0.0069740417
0.0068132854
0.0066555131
0.006500781
0.0063491283
0.0062005896
0.0060551956
0.0059129737
0.0057739475
0.0056381373
0.0055055602
0.0053762308
0.0052501605
0.0051273589
0.0050078329
0.0048915876
0.0047786264
0.004668951
0.0045625615
0.004459457
0.0043596353
0.0042630934
0.0041698275
0.0040798328
0.0039931043
0.0039096364
0.0038294234
0.003752459
0.0036787371
0.0036082514
0.0035409958
0.0034769644
0.0034161512
0.0033585509
0.0033041583
0.0032529689
0.0032049783
0.003160183
0.0031185801
0.0030801671
0.0030449426
0.0030129057
0.0029840565
0.0029583958
0.0029359254
0.0029166481
0.0029005678
0.002887689
0.0028780176
0.002871562
0.0028683427
0.0070323603
0.0068695286
0.0067097458
0.0065530671
0.0063995305
0.0062491697
0.0061020148
0.005958092
0.0058174238
0.0056800297
0.0055459257
0.0054151251
0.0052876385
0.005163474
0.0050426376
0.0049251332
0.0048109631
0.0047001277
0.0045926262
0.0044884564
0.0043876152
0.0042900984
0.004195901
0.0041050174
0.0040174414
0.0039331666
0.0038521861
0.0037744928
0.0037000797
0.0036289396
0.0035610656
0.0034964509
0.0034350888
0.0033769732
0.0033220982
0.0032704585
0.0032220493
0.0031768664
0.0031349062
0.0030961658
0.0030606432
0.0030283371
0.0029992469
0.0029733733
0.0029507176
0.0029312822
0.0029150706
0.0029020872
0.0028923375
0.0028858295
0.0028825843
0.0070889717
0.0069241244
0.0067623893
0.0066038201
0.0064484541
0.0062963241
0.0061474593
0.0060018849
0.0058596225
0.0057206905
0.005585104
0.0054528751
0.0053240133
0.0051985257
0.0050764172
0.0049576905
0.0048423468
0.0047303855
0.0046218047
0.004516601
0.0044147702
0.0043163072
0.0042212058
0.0041294596
0.0040410613
0.0039560034
0.0038742782
0.0037958778
0.003720794
0.0036490191
0.0035805452
0.0035153647
0.0034534702
0.0033948548
0.003339512
0.0032874358
0.0032386207
0.003193062
0.0031507554
0.0031116977
0.0030758862
0.0030433191
0.0030139956
0.0029879157
0.0029650805
0.002945492
0.0029291534
0.0029160687
0.0029062431
0.0028996844
0.0028964141
0.0071437438
0.0069769454
0.0068133203
0.0066529213
0.0064957846
0.0063419421
0.0061914223
0.0060442494
0.0059004441
0.0057600238
0.0056230025
0.0054893913
0.0053591988
0.0052324309
0.0051090914
0.0049891821
0.004872703
0.0047596523
0.0046500272
0.0045438232
0.0044410352
0.0043416568
0.0042456811
0.0041531004
0.0040639067
0.0039780915
0.0038956462
0.0038165619
0.0037408297
0.0036684409
0.003599387
0.0035336594
0.0034712502
0.0034121517
0.0033563568
0.0033038587
0.0032546514
0.0032087296
0.0031660884
0.0031267241
0.0030906336
0.0030578145
0.0030282656
0.0030019866
0.0029789781
0.0029592418
0.0029427806
0.0029295982
0.0029196995
0.0029130919
0.0029097974
0.007196574
0.0070278925
0.0068624435
0.0067002785
0.0065414329
0.006385938
0.006233821
0.0060851056
0.0059398115
0.0057979551
0.0056595494
0.0055246047
0.0053931283
0.0052651252
0.0051405982
0.005019548
0.0049019735
0.0047878721
0.0046772397
0.004570071
0.0044663597
0.0043660985
0.0042692796
0.0041758943
0.0040859336
0.0039993882
0.0039162484
0.0038365048
0.0037601475
0.003687167
0.0036175539
0.0035512992
0.0034883939
0.0034288299
0.0033725992
0.0033196947
0.0032701095
0.0032238379
0.0031808745
0.0031412149
0.0031048556
0.0030717939
0.0030420281
0.0030155574
0.0029923822
0.0029725038
0.0029559247
0.0029426483
0.0029326793
0.0029260246
0.0029227069
0.0072473862
0.0070768922
0.0069096878
0.0067458232
0.0065853332
0.0064282479
0.0062745941
0.0061243944
0.0059776677
0.0058344294
0.0056946918
0.0055584639
0.0054257522
0.0052965608
0.0051708914
0.0050487436
0.0049301155
0.0048150033
0.0047034021
0.0045953054
0.0044907062
0.0043895961
0.0042919662
0.0041978071
0.0041071089
0.0040198614
0.0039360541
0.0038556766
0.0037787183
0.003705169
0.0036350185
0.0035682571
0.0035048751
0.0034448637
0.0033882144
0.0033349193
0.0032849711
0.0032383634
0.0031950905
0.0031551474
0.0031185301
0.0030852355
0.0030552615
0.0030286069
0.0030052716
0.0029852569
0.0029685647
0.0029551983
0.0029451618
0.0029384621
0.0029351222
0.0072961275
0.0071238935
0.0069550041
0.0067895082
0.0066274397
0.006468828
0.0063136991
0.0061620748
0.0060139731
0.0058694087
0.0057283927
0.0055909334
0.0054570364
0.0053267047
0.0051999391
0.0050767383
0.0049570992
0.0048410174
0.0047284866
0.0046194999
0.0045140488
0.0044121244
0.0043137167
0.0042188155
0.00412741
0.0040394892
0.0039550417
0.0038740563
0.0037965219
0.0037224273
0.0036517616
0.0035845144
0.0035206755
0.0034602353
0.0034031848
0.0033495154
0.0032992195
0.0032522899
0.0032087205
0.0031685058
0.0031316414
0.0030981238
0.0030679504
0.0030411198
0.0030176315
0.0029974862
0.0029806859
0.0029672334
0.0029571325
0.0029503897
0.0029470285
0.0073427653
0.0071688653
0.0069983623
0.0068313045
0.0066677246
0.0065076515
0.0063511102
0.0061981219
0.0060487038
0.0059028697
0.0057606299
0.0056219919
0.0054869602
0.0053555369
0.005227722
0.0051035133
0.0049829067
0.0048658968
0.0047524766
0.004642638
0.0045363718
0.0044336682
0.0043345163
0.0042389051
0.0041468229
0.0040582579
0.0039731981
0.0038916314
0.0038135458
0.0037389296
0.0036677712
0.0036000595
0.0035357837
0.0034749336
0.0034174995
0.0033634725
0.0033128441
0.0032656069
0.0032217542
0.00318128
0.0031441796
0.003110449
0.0030800853
0.0030530866
0.0030294521
0.0030091824
0.0029922789
0.0029787443
0.002968582
0.0029617981
0.0029584167
0.0073872851
0.0072117936
0.0070397492
0.0068711993
0.0067061757
0.0065447065
0.0063868161
0.0062325248
0.0060818493
0.0059348023
0.0057913937
0.0056516297
0.0055155144
0.0053830487
0.0052542318
0.0051290605
0.0050075301
0.004889634
0.0047753645
0.0046647126
0.0045576683
0.0044542208
0.0043543585
0.0042580696
0.0041653415
0.0040761617
0.0039905175
0.0039083959
0.0038297844
0.0037546706
0.0036830421
0.0036148873
0.0035501947
0.0034889536
0.0034311537
0.0033767854
0.0033258401
0.0032783096
0.0032341867
0.0031934653
0.00315614
0.0031222064
0.0030916613
0.0030645025
0.003040729
0.0030203407
0.0030033391
0.0029897263
0.0029795057
0.0029726826
0.002969282
0.0074296874
0.0072526799
0.0070791663
0.0069091942
0.0067427945
0.0065799945
0.006420818
0.0062652848
0.0061134107
0.0059652079
0.0058206851
0.0056798482
0.0055427001
0.0054092411
0.0052794694
0.005153381
0.0050309703
0.0049122299
0.0047971513
0.0046857246
0.004577939
0.0044737829
0.004373244
0.0042763095
0.0041829663
0.004093201
0.0040070002
0.0039243503
0.0038452381
0.0037696504
0.0036975744
0.0036289978
0.0035639084
0.0035022951
0.0034441471
0.0033894542
0.0033382072
0.0032903977
0.0032460179
0.0032050613
0.0031675221
0.0031333955
0.0031026781
0.0030753671
0.0030514614
0.0030309606
0.0030138657
0.0030001788
0.0029899028
0.0029830426
0.0029796239
0.0074699866
0.0072915389
0.0071166284
0.006945303
0.0067775941
0.0066135281
0.0064531282
0.0062964136
0.0061433994
0.0059940971
0.0058485149
0.0057066575
0.0055685272
0.0054341236
0.0053034439
0.0051764835
0.0050532358
0.0049336927
0.0048178449
0.0047056816
0.0045971913
0.0044923616
0.0043911795
0.0042936315
0.0041997036
0.0041093819
0.0040226521
0.0039395003
0.0038599122
0.0037838743
0.0037113732
0.0036423957
0.0035769296
0.0035149627
0.003456484
0.0034014829
0.0033499495
0.0033018751
0.0032572514
0.0032160716
0.0031783293
0.0031440197
0.0031131387
0.0030856835
0.0030616524
0.003041045
0.0030238618
0.0030101047
0.0029997762
0.002992881
0.002989445
0.0075082116
0.0073283978
0.0071521608
0.0069795499
0.0068105976
0.0066453294
0.0064837679
0.0063259317
0.0061718353
0.0060214894
0.0058749014
0.0057320755
0.005593013
0.0054577129
0.0053261716
0.0051983836
0.0050743417
0.0049540369
0.0048374592
0.004724597
0.0046154382
0.0045099695
0.0044081772
0.0043100471
0.0042155647
0.0041247152
0.0040374838
0.0039538558
0.0038738165
0.0037973517
0.0037244474
0.00365509
0.0035892665
0.0035269646
0.0034681725
0.0034128792
0.0033610744
0.0033127489
0.0032678943
0.0032265029
0.0031885685
0.0031540855
0.0031230497
0.003095458
0.0030713083
0.0030505999
0.0030333333
0.0030195099
0.0030091318
0.0030022034
0.0029987513
0.0073632926
0.007185798
0.0070119676
0.0068418362
0.0066754285
0.0065127662
0.0063538672
0.0061987453
0.0060474107
0.0058998699
0.0057561264
0.005616181
0.0054800317
0.0053476742
0.0052191024
0.0050943083
0.0049732822
0.0048560132
0.0047424893
0.0046326973
0.0045266235
0.0044242535
0.0043255724
0.0042305649
0.0041392157
0.0040515094
0.0039674307
0.0038869643
0.0038100955
0.0037368096
0.0036670927
0.0036009311
0.0035383122
0.0034792235
0.0034236538
0.0033715924
0.0033230295
0.0032779563
0.0032363651
0.0031982489
0.0031636021
0.0031324201
0.0031046993
0.0030804376
0.003059634
0.0030422886
0.0030284027
0.003017978
0.0030110182
0.003007551
0.0073962636
0.0072175785
0.0070425945
0.0068713477
0.006703862
0.0065401585
0.0063802544
0.0062241627
0.006071893
0.0059234512
0.0057788402
0.0056380599
0.0055011076
0.0053679786
0.0052386658
0.0051131605
0.0049914525
0.0048735301
0.0047593806
0.0046489903
0.0045423446
0.0044394286
0.0043402266
0.004244723
0.0041529016
0.0040647466
0.0039802421
0.0038993722
0.0038221216
0.0037484753
0.0036784187
0.0036119379
0.0035490194
0.0034896508
0.0034338201
0.0033815163
0.0033327293
0.0032874499
0.00324567
0.0032073823
0.003172581
0.003141261
0.0031134186
0.0030890514
0.0030681581
0.0030507385
0.0030367937
0.0030263251
0.0030193359
0.0030158544
0.0074273586
0.0072475485
0.0070714756
0.0068991755
0.0067306721
0.0065659856
0.0064051325
0.0062481254
0.006094973
0.0059456808
0.0058002509
0.0056586826
0.0055209726
0.0053871154
0.0052571033
0.005130927
0.0050085756
0.0048900367
0.0047752969
0.004664342
0.0045571568
0.0044537256
0.0043540323
0.0042580606
0.0041657939
0.0040772156
0.0039923094
0.0039110589
0.0038334484
0.0037594621
0.0036890853
0.0036223034
0.0035591027
0.0034994701
0.0034433934
0.0033908611
0.003341863
0.0032963893
0.0032544316
0.0032159824
0.0031810355
0.0031495857
0.0031216289
0.0030971623
0.0030761846
0.0030586953
0.0030446952
0.0030341854
0.0030271686
0.0030236738
0.0074566302
0.0072757596
0.0070986604
0.0069253679
0.0067559053
0.0065902923
0.006428545
0.0062706752
0.0061166912
0.0059665977
0.0058203963
0.0056780856
0.0055396618
0.0054051185
0.0052744477
0.0051476394
0.0050246818
0.0049055622
0.0047902665
0.0046787798
0.0045710865
0.0044671701
0.0043670142
0.0042706017
0.0041779156
0.0040889388
0.0040036543
0.0039220456
0.0038440961
0.0037697899
0.0036991115
0.0036320463
0.0035685798
0.0035086988
0.0034523906
0.0033996435
0.0033504466
0.0033047902
0.0032626653
0.0032240643
0.0031889806
0.0031574087
0.0031293443
0.0031047845
0.0030837275
0.0030661728
0.0030521209
0.0030415726
0.0030345299
0.0030310227
0.0074841355
0.0073022671
0.0071242025
0.0069499764
0.0067796115
0.006613127
0.0064505385
0.0062918573
0.0061370911
0.0059862439
0.0058393169
0.005696308
0.0055572128
0.0054220244
0.0052907342
0.0051633314
0.0050398039
0.0049201383
0.0048043199
0.0046923332
0.0045841621
0.0044797896
0.0043791987
0.0042823719
0.0041892915
0.00409994
0.0040143001
0.0039323546
0.0038540865
0.0037794796
0.003708518
0.0036411864
0.0035774703
0.0035173559
0.0034608303
0.0034078813
0.0033584978
0.0033126697
0.0032703879
0.0032316443
0.0031964322
0.0031647458
0.0031365806
0.0031119333
0.0030908021
0.0030731861
0.0030590857
0.0030485013
0.0030414345
0.0030379157
0.007509935
0.0073271297
0.0071481586
0.0069730557
0.0068018435
0.0066345407
0.0064711622
0.0063117191
0.0061562183
0.0060046636
0.0058570552
0.0057133908
0.0055736653
0.0054378714
0.0053059996
0.0051780388
0.0050539764
0.0049337982
0.0048174891
0.0047050332
0.0045964136
0.004491613
0.0043906139
0.0042933981
0.0041999477
0.0041102447
0.0040242712
0.0039420096
0.0038634427
0.0037885536
0.0037173262
0.0036497448
0.0035857945
0.0035254612
0.0034687316
0.0034155933
0.0033660349
0.0033200459
0.003277617
0.0032387398
0.0032034074
0.0031716137
0.003143354
0.0031186249
0.0030974242
0.003079751
0.0030656053
0.0030549873
0.0030478979
0.0030443684
0.0075340917
0.0073504081
0.0071705872
0.0069946624
0.0068226558
0.0066545858
0.0064904669
0.0063303096
0.0061741203
0.0060219023
0.0058736554
0.0057293767
0.0055890605
0.005452699
0.0053202822
0.0051917985
0.0050672347
0.0049465762
0.0048298074
0.0047169117
0.0046078719
0.0045026703
0.0044012885
0.0043037084
0.0042099114
0.004119879
0.004033593
0.0039510353
0.0038721884
0.003797035
0.0037255586
0.0036577433
0.0035935737
0.0035330354
0.0034761148
0.0034227993
0.003373077
0.0033269374
0.0032843708
0.0032453687
0.0032099237
0.0031780297
0.0031496817
0.0031248762
0.0031036106
0.003085884
0.0030716961
0.0030610467
0.0030539363
0.0030503969
0.0075566701
0.0073721645
0.0071915482
0.0070148543
0.0068421044
0.0066733165
0.0065085047
0.006347679
0.0061908455
0.0060380069
0.0058891626
0.0057443091
0.0056034402
0.0054665477
0.0053336211
0.0052046483
0.0050796154
0.0049585076
0.0048413087
0.0047280016
0.0046185688
0.0045129919
0.0044112523
0.0043133314
0.0042192101
0.0041288696
0.0040422913
0.0039594567
0.003880348
0.0038049475
0.0037332383
0.0036652041
0.0036008294
0.0035400995
0.0034830004
0.0034295192
0.0033796439
0.0033333636
0.0032906683
0.0032515494
0.0032159993
0.0031840117
0.0031555813
0.0031307044
0.0031093784
0.003091602
0.0030773748
0.0030666964
0.0030595664
0.0030560178
0.0075777355
0.0073924618
0.0072111025
0.0070336901
0.0068602457
0.0066907872
0.0065253282
0.0063638782
0.006206443
0.0060530248
0.0059036224
0.005758232
0.0056168471
0.0054794586
0.0053460559
0.0052166262
0.0050911554
0.0049696279
0.0048520273
0.0047383361
0.0046285361
0.0045226089
0.0044205352
0.004322296
0.0042278719
0.0041372437
0.0040503925
0.0039672994
0.0038879461
0.0038123148
0.0037403883
0.0036721499
0.0036075838
0.003546675
0.0034894093
0.0034357735
0.0033857553
0.0033393437
0.0032965285
0.0032573007
0.0032216526
0.0031895776
0.0031610705
0.0031361271
0.0031147448
0.0030969222
0.0030826585
0.0030719532
0.0030648051
0.0030612481
0.0075973533
0.0074113633
0.0072293111
0.0070512285
0.0068771366
0.0067070528
0.0065409903
0.0063789582
0.006220962
0.0060670033
0.0059170807
0.0057711898
0.0056293236
0.0054914729
0.0053576262
0.0052277706
0.0051018915
0.0049799728
0.0048619977
0.0047479484
0.0046378062
0.0045315523
0.0044291671
0.0043306312
0.0042359248
0.0041450285
0.0040579228
0.0039745887
0.0038950076
0.0038191612
0.0037470321
0.0036786034
0.0036138589
0.0035527834
0.0034953624
0.0034415826
0.0033914314
0.0033448974
0.0033019704
0.0032626413
0.003226902
0.0031947458
0.0031661672
0.0031411621
0.0031197275
0.0031018619
0.0030875645
0.0030768342
0.0030696693
0.0030661047
0.007615589
0.007428932
0.0072462347
0.0070675284
0.0068928338
0.0067221679
0.0065555436
0.0063929699
0.0062344515
0.0060799899
0.0059295831
0.0057832264
0.0056409124
0.0055026314
0.0053683717
0.0052381197
0.0051118606
0.0049895779
0.0048712543
0.0047568717
0.0046464111
0.0045398531
0.0044371781
0.004338366
0.004243397
0.0041522511
0.0040649086
0.0039813503
0.0039015571
0.0038255106
0.003753193
0.0036845872
0.0036196767
0.0035584461
0.0035008808
0.0034469669
0.003396692
0.0033500443
0.0033070134
0.00326759
0.0032317659
0.0031995342
0.0031708893
0.0031458269
0.0031243438
0.0031064384
0.0030921098
0.0030813565
0.0030741761
0.0030706045
0.0076325071
0.0074452303
0.0072619336
0.0070826478
0.0069073932
0.0067361866
0.0065690406
0.0064059635
0.0062469601
0.0060920312
0.0059411747
0.0057943854
0.0056516554
0.0055129748
0.0053783314
0.0052477113
0.0051210992
0.0049984783
0.004879831
0.0047651388
0.0046543824
0.004547542
0.0044445976
0.0043455291
0.004250316
0.0041589383
0.0040713759
0.0039876092
0.0039076191
0.0038313867
0.003758894
0.0036901237
0.0036250591
0.0035636845
0.003505985
0.0034519467
0.0034015569
0.0033548036
0.0033116763
0.0032721654
0.0032362627
0.003203961
0.0031752547
0.0031501391
0.0031286112
0.003110669
0.0030963115
0.003085537
0.0030783424
0.0030747645
0.0076481714
0.0074603197
0.0072764671
0.0070966439
0.0069208702
0.0067491622
0.0065815324
0.0064179888
0.0062585356
0.0061031736
0.0059519002
0.0058047097
0.0056615942
0.0055225431
0.0053875439
0.0052565825
0.0051296431
0.0050067088
0.0048877614
0.0047727821
0.0046617513
0.0045546491
0.004451455
0.0043521486
0.0042567093
0.0041651166
0.0040773502
0.0039933904
0.0039132176
0.0038368128
0.0037641578
0.003695235
0.0036300275
0.0035685194
0.0035106956
0.003456542
0.0034060456
0.0033591945
0.0033159779
0.003276386
0.0032404104
0.003208044
0.0031792807
0.003154116
0.0031325466
0.0031145705
0.0031001865
0.0030893925
0.0030821849
0.0030786012
0.0076626444
0.0074742605
0.0072898934
0.007109573
0.0069333189
0.0067611471
0.0065930696
0.0064290943
0.0062692251
0.0061134623
0.005961803
0.0058142415
0.0056707692
0.0055313753
0.0053960471
0.0052647699
0.0051375277
0.0050143032
0.0048950781
0.0047798331
0.0046685485
0.004561204
0.0044577788
0.0043582523
0.0042626035
0.0041708118
0.0040828568
0.0039987182
0.0039183763
0.003841812
0.0037690068
0.0036999428
0.0036346031
0.0035729714
0.0035150325
0.0034607723
0.0034101774
0.0033632358
0.0033199365
0.0032802697
0.0032442268
0.0032118004
0.0031829846
0.0031577746
0.003136167
0.0031181596
0.0031037512
0.0030929395
0.0030857198
0.003082131
0.0076759872
0.0074871117
0.0073022694
0.0071214899
0.0069447923
0.0067721922
0.0066037015
0.0064393275
0.0062790741
0.0061229413
0.0059709259
0.0058230218
0.0056792202
0.0055395099
0.0054038778
0.005272309
0.0051447872
0.0050212949
0.0049018133
0.004786323
0.0046748039
0.0045672355
0.0044635969
0.0043638671
0.0042680249