/*--------------------------------*- C++ -*----------------------------------*\
| =========                 |                                                 |
| \\      /  F ield         | OpenFOAM: The Open Source CFD Toolbox           |
|  \\    /   O peration     | Version:  2312                                  |
|   \\  /    A nd           | Website:  www.openfoam.com                      |
|    \\/     M anipulation  |                                                 |
\*---------------------------------------------------------------------------*/
FoamFile
{
    version     2.0;
    format      ascii;
    arch        "LSB;label=32;scalar=64";
    class       volScalarField;
    location    "0.08";
    object      k;
}
// * * * * * * * * * * * * * * * * * * * * * * * * * * * * * * * * * * * * * //

dimensions      [0 2 -2 0 0 0 0];

internalField   nonuniform List<scalar> 
3257
(
8.8872538
8.8801716
8.8733865
8.8668803
8.8606441
8.8546711
8.8489544
8.8434873
8.8382628
8.8332737
8.8285129
8.823973
8.8196468
8.8155267
8.8116056
8.8078761
8.8043308
8.8009627
8.7977647
8.7947298
8.7918513
8.7891224
8.786537
8.7840885
8.7817712
8.7795791
8.7775068
8.7755489
8.7737004
8.7719567
8.7703131
8.7687657
8.7673104
8.7659437
8.7646624
8.7634636
8.7623446
8.7613033
8.7603376
8.7594461
8.7586274
8.7578808
8.7572055
8.7566015
8.7560689
8.7556082
8.75522
8.7549056
8.7546663
8.754503
8.7544173
8.8898178
8.8826203
8.8757211
8.8691038
8.8627602
8.8566837
8.8508678
8.8453054
8.8399896
8.8349131
8.8300688
8.825449
8.8210465
8.8168537
8.8128632
8.8090675
8.8054593
8.8020313
8.7987763
8.7956872
8.7927573
8.7899798
8.7873481
8.784856
8.7824973
8.7802663
8.7781572
8.7761647
8.7742837
8.7725094
8.7708373
8.7692632
8.767783
8.7663932
8.7650906
8.763872
8.7627349
8.761677
8.7606962
8.7597911
8.7589602
8.7582028
8.7575181
8.756906
8.7563665
8.7559
8.7555071
8.7551886
8.754945
8.754776
8.7546803
8.8939439
8.8865448
8.8794524
8.8726494
8.8661274
8.8598799
8.8538998
8.8481804
8.8427142
8.8374941
8.8325124
8.8277616
8.8232341
8.8189221
8.814818
8.8109143
8.8072033
8.8036776
8.8003299
8.7971529
8.7941397
8.7912833
8.7885772
8.7860147
8.7835897
8.7812963
8.7791286
8.7770811
8.7751487
8.7733264
8.7716096
8.7699939
8.7684754
8.7670502
8.7657151
8.7644669
8.763303
8.7622209
8.7612185
8.7602943
8.7594469
8.7586752
8.7579786
8.7573567
8.7568096
8.7563374
8.7559406
8.7556198
8.7553754
8.7552071
8.7551121
8.8996665
8.8919874
8.8846265
8.8775658
8.8707967
8.8643121
8.8581049
8.852168
8.8464938
8.8410747
8.8359029
8.8309705
8.8262698
8.8217926
8.8175312
8.8134776
8.8096242
8.8059631
8.8024868
8.7991878
8.796059
8.7930933
8.7902837
8.7876236
8.7851066
8.7827265
8.7804774
8.7783536
8.7763497
8.7744607
8.7726818
8.7710085
8.7694366
8.7679623
8.7665821
8.7652927
8.7640914
8.7629756
8.7619432
8.7609923
8.7601215
8.7593297
8.758616
8.7579799
8.7574212
8.7569399
8.7565363
8.7562105
8.7559628
8.7557928
8.755697
8.9067359
8.8987121
8.8910205
8.8836424
8.8765687
8.8697921
8.8633052
8.8571004
8.8511698
8.8455055
8.8400993
8.8349431
8.8300287
8.8253479
8.8208923
8.8166538
8.8126244
8.8087961
8.8051609
8.8017113
8.7984396
8.7953386
8.7924012
8.7896203
8.7869895
8.7845022
8.7821523
8.779934
8.7778417
8.7758701
8.7740142
8.7722695
8.7706314
8.7690961
8.7676598
8.7663192
8.7650713
8.7639135
8.7628433
8.7618589
8.7609586
8.760141
8.7594052
8.7587505
8.7581763
8.7576825
8.7572691
8.7569359
8.7566829
8.7565096
8.7564121
8.9149249
8.9065035
8.8984303
8.8906858
8.8832605
8.8761469
8.8693369
8.8628226
8.8565959
8.8506482
8.8449712
8.8395563
8.8343949
8.8294784
8.8247982
8.8203457
8.8161127
8.8120907
8.8082716
8.8046474
8.8012102
8.7979525
8.7948667
8.7919458
8.7891829
8.7865712
8.7841044
8.7817763
8.7795813
8.7775137
8.7755683
8.7737404
8.7720253
8.7704189
8.7689172
8.7675168
8.7662144
8.7650071
8.7638926
8.7628685
8.7619331
8.7610848
8.7603223
8.7596448
8.7590515
8.7585419
8.7581158
8.7577729
8.7575129
8.7573352
8.7572351
8.9240332
8.9151714
8.9066755
8.898525
8.8907102
8.8832229
8.8760547
8.8691973
8.8626421
8.8563801
8.8504026
8.8447005
8.8392649
8.8340867
8.8291569
8.8244668
8.8200074
8.8157702
8.8117465
8.8079281
8.8043068
8.8008746
8.7976238
8.794547
8.7916369
8.7888866
8.7862894
8.783839
8.7815292
8.7793544
8.7773092
8.7753883
8.773587
8.7719009
8.7703259
8.7688582
8.7674945
8.7662316
8.7650667
8.7639976
8.7630222
8.7621386
8.7613453
8.7606413
8.7600255
8.7594973
8.7590561
8.7587014
8.7584329
8.7582494
8.7581462
8.9338807
8.9245448
8.9155937
8.907006
8.8987715
8.8908815
8.8833274
8.8761001
8.8691907
8.8625898
8.8562881
8.8502762
8.8445446
8.8390839
8.8338848
8.8289379
8.824234
8.8197642
8.8155194
8.8114911
8.8076706
8.8040497
8.8006203
8.7973747
8.7943053
8.7914048
8.7886664
8.7860832
8.7836491
8.781358
8.7792042
8.7771822
8.7752872
8.7735144
8.7718594
8.7703183
8.7688874
8.7675634
8.7663433
8.7652245
8.7642047
8.7632819
8.7624543
8.7617205
8.7610793
8.7605299
8.7600714
8.7597031
8.7594246
8.7592347
8.7591278
8.9443059
8.9344703
8.9250391
8.9159902
8.9073129
8.8989981
8.8910366
8.8834189
8.8761355
8.8691767
8.8625325
8.8561932
8.8501489
8.8443896
8.8389057
8.8336872
8.8287248
8.8240088
8.8195301
8.8152794
8.8112481
8.8074273
8.8038086
8.8003841
8.7971457
8.794086
8.7911976
8.7884736
8.7859074
8.7834926
8.7812233
8.7790938
8.7770988
8.7752335
8.7734931
8.7718734
8.7703706
8.7689811
8.7677016
8.7665292
8.7654614
8.764496
8.7636309
8.7628646
8.7621956
8.7616227
8.761145
8.7607618
8.7604722
8.7602749
8.7601639
8.9551657
8.9448116
8.9348821
8.9253545
8.9162175
8.9074615
8.8990769
8.8910536
8.8833817
8.8760508
8.8690507
8.8623711
8.8560015
8.8499317
8.8441513
8.8386504
8.8334187
8.8284465
8.823724
8.8192419
8.8149907
8.8109615
8.8071456
8.8035344
8.8001198
8.7968938
8.7938488
8.7909777
8.7882733
8.7857292
8.783339
8.7810969
8.7789972
8.7770347
8.7752046
8.7735024
8.7719238
8.770465
8.7691226
8.7678935
8.7667748
8.765764
8.764859
8.7640578
8.7633588
8.7627607
8.7622624
8.7618628
8.7615612
8.7613559
8.7612405
8.9663336
8.9554481
8.9450081
8.9349898
8.9253815
8.9161732
8.9073547
8.8989154
8.8908449
8.8831323
8.8757669
8.8687379
8.8620344
8.8556456
8.8495609
8.8437696
8.8382613
8.8330256
8.8280526
8.8233323
8.8188551
8.8146115
8.8105925
8.8067891
8.8031929
8.7997956
8.7965892
8.7935662
8.7907194
8.7880417
8.7855266
8.783168
8.7809599
8.7788969
8.7769738
8.7751857
8.7735284
8.7719976
8.7705897
8.7693013
8.7681292
8.7670709
8.7661238
8.7652859
8.7645554
8.7639306
8.7634104
8.7629936
8.7626792
8.7624654
8.7623453
8.9776983
8.9662742
8.9553163
8.9448002
8.9347138
8.9250465
8.9157876
8.906926
8.8984508
8.8903506
8.8826142
8.8752302
8.8681873
8.8614744
8.8550802
8.8489938
8.8432041
8.8377005
8.8324726
8.8275099
8.8228025
8.8183406
8.8141146
8.8101155
8.8063341
8.8027621
8.7993911
8.7962132
8.7932208
8.7904067
8.787764
8.7852862
8.7829671
8.780801
8.7787825
8.7769064
8.7751681
8.7735632
8.7720877
8.7707381
8.769511
8.7684034
8.7674128
8.7665367
8.7657733
8.7651207
8.7645776
8.7641428
8.763815
8.7635925
8.7634674
8.9891631
8.9771972
8.9657187
8.9547019
8.9441346
8.9340055
8.9243034
8.9150168
8.9061342
8.8976437
8.8895337
8.8817922
8.8744076
8.867368
8.860662
8.854278
8.8482046
8.8424309
8.8369457
8.8317385
8.8267988
8.8221164
8.8176816
8.8134846
8.8095162
8.8057676
8.80223
8.7988954
8.7957557
8.7928034
8.7900313
8.7874327
8.785001
8.7827303
8.7806147
8.7786491
8.7768283
8.7751479
8.7736035
8.7721914
8.7709079
8.7697499
8.7687145
8.7677993
8.767002
8.7663209
8.7657542
8.7653008
8.7649592
8.7647276
8.7645973
9.0006437
8.9881372
8.9761387
8.9646221
8.9535744
8.942984
8.9328392
8.923128
8.9138383
8.9049578
8.8964742
8.8883753
8.8806488
8.8732826
8.8662646
8.8595828
8.8532255
8.8471812
8.8414385
8.8359864
8.830814
8.8259107
8.8212664
8.816871
8.8127151
8.8087892
8.8050845
8.8015924
8.7983047
8.7952135
8.7923113
8.7895911
8.7870461
8.7846699
8.7824566
8.7804005
8.7784965
8.7767396
8.7751255
8.77365
8.7723093
8.7711001
8.7700193
8.7690642
8.7682325
8.7675222
8.7669315
8.766459
8.7661035
8.7658625
8.7657271
9.0120678
8.999025
8.9865107
8.974498
8.9629736
8.9519253
8.941341
8.9312081
8.9215141
8.9122461
8.9033914
8.8949374
8.8868711
8.8791802
8.8718519
8.864874
8.8582344
8.8519209
8.845922
8.840226
8.8348219
8.8296986
8.8248456
8.8202526
8.8159097
8.8118071
8.8079357
8.8042865
8.8008511
8.7976211
8.794589
8.7917472
8.7890887
8.786607
8.7842957
8.782149
8.7801615
8.7783279
8.7766437
8.7751045
8.7737062
8.7724454
8.7713188
8.7703235
8.769457
8.7687171
8.7681021
8.7676104
8.7672406
8.7669903
8.7668496
9.0233735
9.0098014
8.9967781
8.9842758
8.9722807
8.9607804
8.949762
8.9392127
8.9291193
8.9194685
8.9102472
8.9014421
8.8930401
8.885028
8.877393
8.8701223
8.8632032
8.8566234
8.8503708
8.8444335
8.8388
8.8334588
8.8283991
8.8236103
8.8190819
8.8148041
8.8107673
8.8069623
8.8033802
8.8000125
8.7968511
8.7938885
8.7911172
8.7885304
8.7861216
8.7838846
8.7818138
8.7799037
8.7781495
8.7765466
8.7750908
8.7737783
8.7726058
8.7715701
8.7706687
8.7698993
8.7692598
8.7687488
8.7683647
8.768105
8.7679591
9.0345083
9.0204165
9.0068931
8.9939098
8.9814523
8.9695078
8.9580629
8.9471042
8.9366181
8.926591
8.9170091
8.9078587
8.8991262
8.8907982
8.8828613
8.8753023
8.8681081
8.8612661
8.8547637
8.8485886
8.8427289
8.837173
8.8319095
8.8269275
8.8222162
8.8177655
8.8135655
8.8096065
8.8058795
8.8023756
8.7990866
8.7960044
8.7931215
8.7904307
8.7879253
8.7855988
8.7834453
8.7814593
8.7796355
8.7779693
8.7764563
8.7750924
8.7738741
8.7727983
8.7718621
8.7710631
8.7703993
8.769869
8.7694706
8.7692015
8.7690504
9.045428
9.030828
9.0168156
9.0033617
8.9904518
8.9780725
8.9662102
8.9548508
8.9439803
8.9335846
8.9236495
8.9141609
8.9051048
8.8964672
8.8882344
8.8803927
8.8729289
8.8658297
8.8590822
8.8526738
8.8465922
8.8408255
8.8353619
8.8301902
8.8252993
8.8206787
8.8163182
8.8122079
8.8083383
8.8047005
8.8012858
8.7980859
8.7950931
8.7922997
8.789699
8.7872842
8.7850492
8.7829881
8.7810957
8.7793669
8.7777972
8.7763824
8.7751189
8.7740032
8.7730325
8.7722042
8.7715161
8.7709666
8.7705541
8.7702757
8.7701194
9.0560963
9.0410011
9.0265121
9.0125996
8.9992487
8.9864456
8.9741762
8.962426
8.9511806
8.9404254
8.9301457
8.920327
8.910955
8.9020152
8.8934934
8.8853758
8.8776485
8.870298
8.8633111
8.8566747
8.8503762
8.8444033
8.8387441
8.8333867
8.8283201
8.8235332
8.8190155
8.814757
8.8107478
8.8069787
8.8034408
8.8001255
8.7970247
8.7941308
8.7914364
8.7889349
8.7866197
8.7844848
8.7825248
8.7807344
8.7791089
8.777644
8.7763358
8.7751808
8.774176
8.7733187
8.7726067
8.7720383
8.7716118
8.7713243
8.7711628
9.0664831
9.0509072
9.0359553
9.0215973
9.007818
8.9946031
8.9819381
8.9698081
8.9581983
8.9470934
8.9364787
8.926339
8.9166597
8.9074258
8.898623
8.8902367
8.882253
8.8746578
8.8674376
8.8605792
8.8540694
8.8478956
8.8420456
8.8365073
8.8312692
8.8263201
8.8216492
8.817246
8.8131005
8.8092032
8.8055449
8.8021167
8.7989105
8.7959181
8.7931323
8.7905458
8.7881521
8.785945
8.7839187
8.7820678
8.7803876
8.7788734
8.7775213
8.7763277
8.7752894
8.7744037
8.7736682
8.7730811
8.7726409
8.7723444
8.7721779
9.0765645
9.0605231
9.0451232
9.0303338
9.0161395
9.0025257
8.9894775
8.9769795
8.9650164
8.9535728
8.9426332
8.9321823
8.9222049
8.9126859
8.9036103
8.8949634
8.8867308
8.8788981
8.8714516
8.8643774
8.8576624
8.8512935
8.8452581
8.839544
8.8341392
8.8290324
8.8242123
8.8196684
8.8153903
8.8113682
8.8075927
8.8040547
8.8007456
8.7976574
8.7947822
8.7921129
8.7896426
8.7873649
8.7852739
8.783364
8.7816302
8.7800679
8.7786729
8.7774415
8.7763704
8.7754567
8.7746982
8.7740928
8.7736391
8.7733338
8.7731624
9.0863217
9.069831
9.0539985
9.0387925
9.0241974
9.0101983
8.9967799
8.9839263
8.9716219
8.9598508
8.9485972
8.9378454
8.9275797
8.9177848
8.9084454
8.8995463
8.8910728
8.8830103
8.8753445
8.8680616
8.8611477
8.8545898
8.8483748
8.8424903
8.836924
8.8316643
8.8266996
8.8220192
8.8176124
8.8134692
8.8095798
8.8059351
8.8025262
8.7993448
8.7963829
8.793633
8.7910882
8.7887419
8.7865878
8.7846205
8.7828345
8.7812253
8.7797885
8.7785201
8.777417
8.7764761
8.775695
8.7750718
8.7746049
8.774291
8.7741148
9.0957402
9.0788171
9.0625679
9.0469607
9.0319796
9.0176093
9.003834
8.9906378
8.9780043
8.9659175
8.9543611
8.9433191
8.9327755
8.9227145
8.9131205
8.903978
8.895272
8.8869876
8.8791102
8.8716255
8.8645197
8.8577791
8.8513906
8.8453413
8.8396189
8.8342112
8.8291068
8.8242943
8.819763
8.8155025
8.811503
8.807755
8.8042494
8.8009776
8.7979316
8.7951037
8.7924866
8.7900736
8.7878585
8.7858353
8.7839987
8.7823439
8.7808663
8.7795621
8.7784278
8.7774604
8.7766573
8.7760167
8.7755369
8.7752148
8.7750339
9.10481
9.0874714
9.0708221
9.0548293
9.0394772
9.02475
9.0106318
8.9971061
8.9841563
8.9717659
8.9599183
8.9485971
8.937786
8.9274688
8.9176298
8.908253
8.8993231
8.890825
8.8827436
8.8750646
8.8677738
8.8608571
8.8543013
8.8480933
8.8422202
8.83667
8.8314306
8.8264907
8.8218392
8.8174656
8.8133597
8.8095118
8.8059128
8.8025538
8.7994265
8.7965231
8.7938361
8.7913587
8.7890843
8.7870071
8.7851214
8.7834224
8.7819054
8.7805664
8.7794019
8.7784087
8.7775843
8.7769268
8.7764345
8.7761044
8.7759189
9.1135241
9.0957875
9.0787545
9.0623921
9.0466841
9.0316149
9.0171677
9.003326
8.9900726
8.9773909
8.9652637
8.9536745
8.9426066
8.9320436
8.9219692
8.9123673
8.9032223
8.8945188
8.8862415
8.8783757
8.8709069
8.863821
8.8571043
8.8507435
8.8447256
8.839038
8.8336688
8.8286062
8.823839
8.8193564
8.8151481
8.8112041
8.807515
8.8040719
8.8008662
8.79789
8.7951356
8.7925959
8.7902644
8.788135
8.786202
8.7844602
8.7829051
8.7815325
8.7803386
8.7793205
8.7784755
8.7778016
8.7772972
8.7769593
8.7767694
9.121879
9.1037614
9.0863616
9.0696455
9.0535971
9.0382003
9.0234384
9.0092941
8.9957502
8.9827895
8.9703947
8.9585488
8.9472349
8.9364361
8.9261361
8.9163186
8.9069674
8.8980669
8.8896017
8.8815567
8.8739172
8.8666689
8.8597978
8.8532903
8.8471333
8.8413139
8.83582
8.8306396
8.8257612
8.8211739
8.8168671
8.8128307
8.809055
8.805531
8.8022499
8.7992036
8.7963843
8.7937848
8.7913983
8.7892186
8.7872399
8.785457
8.7838651
8.78246
8.7812379
8.7801957
8.7793307
8.7786409
8.7781249
8.7777795
8.7775853
9.1298736
9.1113918
9.0936418
9.0765881
9.0602145
9.044505
9.0294424
9.0150092
9.0011877
8.9879604
8.9753098
8.9632185
8.9516693
8.9406453
8.9301295
8.9201055
8.910557
8.9014681
8.892823
8.8846065
8.8768036
8.8693997
8.8623807
8.8557327
8.8494425
8.8434969
8.8378834
8.8325901
8.8276051
8.8229174
8.8185161
8.8143911
8.8105324
8.8069307
8.8035773
8.8004637
8.7975821
8.7949251
8.7924857
8.7902577
8.7882351
8.7864126
8.7847853
8.7833489
8.7820997
8.7810342
8.78015
8.7794449
8.7789176
8.778565
8.7783667
9.1375094
9.118679
9.1005955
9.0832202
9.0665369
9.0505294
9.0351802
9.0204715
9.0063853
8.9929038
8.9800091
8.9676837
8.9559101
8.9446709
8.9339492
8.9237281
8.9139912
8.9047222
8.8959053
8.8875249
8.8795658
8.8720133
8.864853
8.8580707
8.851653
8.8455867
8.8398589
8.8344576
8.8293706
8.8245868
8.8200952
8.8158853
8.8119471
8.8082711
8.8048484
8.8016704
8.7987291
8.7960169
8.7935269
8.7912525
8.7891878
8.7873273
8.7856661
8.7841997
8.7829243
8.7818365
8.7809338
8.780214
8.7796758
8.7793163
8.779114
9.1447894
9.1256247
9.1072237
9.0895437
9.0725661
9.0562752
9.0406535
9.0256827
9.0113446
8.9976211
8.9844941
8.9719457
8.9599582
8.9485141
8.9375961
8.9271872
8.9172706
8.90783
8.8988493
8.8903126
8.8822046
8.8745102
8.867215
8.8603046
8.8537653
8.8475837
8.8417469
8.8362424
8.8310581
8.8261826
8.8216046
8.8173137
8.8132995
8.8095525
8.8060636
8.802824
8.7998256
8.7970607
8.7945222
8.7922035
8.7900985
8.7882017
8.7865079
8.7850127
8.7837123
8.7826031
8.7816825
8.7809486
8.7804
8.7800338
8.7798277
9.151713
9.1322339
9.1135297
9.0955615
9.0783053
9.0617458
9.0458653
9.0306456
9.0160682
9.0021147
8.9887669
8.9760065
8.9638157
8.9521767
8.941072
8.9304844
8.9203969
8.9107929
8.9016562
8.8929707
8.8847209
8.8768916
8.8694679
8.8624355
8.8557804
8.849489
8.8435482
8.8379454
8.8326684
8.8277054
8.8230452
8.8186769
8.8145903
8.8107757
8.8072235
8.8039252
8.8008723
8.7980571
8.7954724
8.7931114
8.7909679
8.7890363
8.7873114
8.7857887
8.7844643
8.7833346
8.782397
8.7816494
8.7810908
8.7807184
8.7805086
9.1385082
9.1195192
9.1012789
9.0837593
9.0669454
9.0508198
9.0353642
9.0205598
9.0063882
8.9928307
8.9798692
8.9674853
8.9556613
8.9443793
8.9336219
8.9233721
8.913613
8.904328
8.8955012
8.8871166
8.8791589
8.8716131
8.8644647
8.8576994
8.8513037
8.845264
8.8395678
8.8342025
8.8291563
8.8244178
8.8199761
8.8158206
8.8119414
8.8083292
8.8049749
8.8018702
8.7990071
8.7963783
8.7939769
8.7917967
8.789832
8.7880775
8.7865285
8.7851812
8.7840319
8.783078
8.7823174
8.7817492
8.7813707
8.7811574
9.144466
9.1252027
9.1067032
9.0889341
9.0718795
9.055522
9.039843
9.0248238
9.0104456
8.9966896
8.9835374
8.9709706
8.9589711
8.9475211
8.9366028
8.926199
8.9162927
8.9068672
8.8979062
8.8893937
8.8813142
8.8736526
8.8663941
8.8595243
8.8530294
8.846896
8.841111
8.8356619
8.8305368
8.8257239
8.8212123
8.8169914
8.813051
8.8093817
8.8059742
8.8028202
8.7999116
8.7972409
8.7948012
8.7925861
8.7905898
8.788807
8.7872331
8.785864
8.784696
8.7837265
8.7829535
8.7823761
8.7819919
8.7817751
9.1501053
9.1305859
9.1118415
9.0938365
9.0765544
9.0599777
9.0440877
9.0288653
9.0142917
9.000348
8.9870154
8.9742756
8.9621101
8.9505009
8.9394303
8.9288807
8.9188351
8.9092764
8.9001884
8.8915548
8.88336
8.8755886
8.8682257
8.8612569
8.8546682
8.8484458
8.8425767
8.8370483
8.8318483
8.826965
8.8223872
8.8181042
8.8141058
8.8103822
8.8069244
8.8037237
8.8007718
8.7980614
8.7955853
8.7933371
8.7913108
8.7895012
8.7879036
8.7865136
8.7853279
8.7843436
8.7835587
8.7829724
8.7825828
8.7823628
9.1554352
9.1356762
9.116701
9.0984734
9.0809768
9.0641933
9.048104
9.0326899
9.0179319
9.0038109
8.990308
8.9774046
8.9650823
8.9533228
8.9421082
8.9314208
8.9212434
8.9115589
8.9023508
8.8936027
8.8852988
8.8774236
8.8699621
8.8628996
8.856222
8.8499156
8.843967
8.8383634
8.8330926
8.8281426
8.8235022
8.8191605
8.8151072
8.8113324
8.8078269
8.8045818
8.8015891
8.798841
8.7963304
8.7940508
8.7919962
8.7901612
8.788541
8.7871313
8.7859287
8.7849302
8.784134
8.7835394
8.7831446
8.7829214
9.1604658
9.140482
9.1212897
9.1028526
9.0851538
9.0681755
9.0518986
9.0363038
9.0213719
9.0070837
8.9934202
8.9803626
8.9678923
8.955991
8.9446405
8.9338232
8.9235214
8.9137181
8.9043966
8.8955404
8.8871335
8.8791604
8.8716057
8.8644548
8.8576934
8.8513075
8.8452838
8.8396094
8.8342716
8.8292588
8.8245592
8.820162
8.8160568
8.8122336
8.808683
8.8053962
8.8023648
8.7995811
8.797038
8.7947287
8.7926472
8.7907881
8.7891466
8.7877182
8.7864996
8.7854877
8.7846807
8.7840781
8.7836784
8.7834522
9.1652069
9.1450122
9.125616
9.1069819
9.0890931
9.0719315
9.0554781
9.0397133
9.0246177
9.0101722
8.9963575
8.9831547
8.970545
8.9585101
8.9470316
8.9360917
8.9256728
8.9157577
8.9063293
8.8973712
8.8888673
8.8808018
8.8731594
8.8659252
8.8590847
8.852624
8.8465295
8.8407882
8.8353875
8.8303153
8.82556
8.8211105
8.8169564
8.8130875
8.8094945
8.8061682
8.8031004
8.8002831
8.7977092
8.7953719
8.7932651
8.7913833
8.7897216
8.7882756
8.7870418
8.7860172
8.7852
8.7845898
8.7841854
8.7839564
9.1696684
9.149276
9.1296886
9.1108696
9.0928025
9.0754689
9.0588496
9.0429251
9.0276758
9.0130823
8.9991254
8.9857861
8.9730454
8.9608848
8.949286
8.9382309
8.9277018
8.9176813
8.9081525
8.8990986
8.8905034
8.882351
8.874626
8.8673134
8.8603986
8.8538675
8.8477064
8.8419022
8.8364422
8.8313142
8.8265065
8.8220078
8.8178077
8.8138959
8.8102628
8.8068995
8.8037973
8.8009485
8.7983456
8.795982
8.7938513
8.7919481
8.7902673
8.7888047
8.7875565
8.7865199
8.7856929
8.7850755
8.7846668
8.7844349
9.1738602
9.1532828
9.1335165
9.1145244
9.09629
9.0787952
9.0620204
9.045946
9.0305525
9.0158202
9.0017299
8.9882624
8.9753987
8.9631201
8.9514083
8.940245
8.9296124
8.9194931
8.9098698
8.900726
8.892045
8.8838111
8.8760086
8.8686224
8.8616378
8.8550406
8.848817
8.8429537
8.837438
8.8322576
8.8274006
8.8228558
8.8186125
8.8146603
8.8109897
8.8075915
8.8044572
8.8015787
8.7989486
8.7965602
8.794407
8.7924837
8.790785
8.7893067
8.788045
8.786997
8.7861609
8.7855366
8.7851237
8.7848892
9.1777924
9.1570423
9.1371088
9.1179548
9.0995641
9.0819182
9.0649978
9.0487831
9.0332544
9.0183921
9.0041768
8.9905892
8.9776102
8.9652211
8.9534032
8.9421385
8.9314089
8.9211969
8.9114852
8.902257
8.8934957
8.8851853
8.8773101
8.8698549
8.8628049
8.8561458
8.8498636
8.843945
8.8383772
8.8331476
8.8282445
8.8236565
8.8193726
8.8153827
8.8116769
8.8082461
8.8050815
8.8021752
8.7995196
8.7971079
8.7949337
8.7929914
8.791276
8.7897829
8.7885084
8.7874497
8.7866049
8.7859741
8.7855574
8.7853203
9.1814752
9.1605643
9.1404748
9.1211697
9.1026328
9.0848459
9.0677894
9.0514434
9.0357884
9.0208044
9.0064721
8.9927721
8.9796853
8.9671927
8.9552757
8.943916
8.9330957
8.9227969
8.9130025
8.9036953
8.8948589
8.886477
8.8785338
8.8710141
8.8639029
8.8571858
8.8508488
8.8448785
8.8392619
8.8339864
8.8290402
8.8244116
8.8200899
8.8160647
8.812326
8.8088646
8.8056718
8.8027395
8.80006
8.7976266
8.7954327
8.7934727
8.7917415
8.7902345
8.7889481
8.7878793
8.7870263
8.7863894
8.7859689
8.7857294
9.1849189
9.1638584
9.1436237
9.1241777
9.1055046
9.087586
9.0704025
9.053934
9.038161
9.0230635
9.0086219
8.994817
8.9816293
8.9690401
8.9570305
8.9455822
8.934677
8.9242973
8.9144255
8.9050446
8.896138
8.8876893
8.8796827
8.8721027
8.8649344
8.8581633
8.8517752
8.8457566
8.8400944
8.8347761
8.8297896
8.8251233
8.8207663
8.8167081
8.8129387
8.8094488
8.8062297
8.8032731
8.8005714
8.7981176
8.7959053
8.7939287
8.7921828
8.7906629
8.7893653
8.788287
8.7874262
8.7867835
8.7863596
8.7861177
9.1881337
9.1669345
9.1465649
9.1269878
9.1081878
9.0901466
9.0728446
9.056262
9.0403789
9.0251756
9.0106322
8.9967294
8.9834478
8.9707684
8.9586724
8.9471414
8.9361572
8.925702
8.9157582
8.9063086
8.8973366
8.8888257
8.88076
8.8731239
8.8659024
8.8590809
8.8526452
8.8465816
8.8408771
8.8355189
8.8304949
8.8257935
8.8214036
8.8173146
8.8135167
8.8100003
8.8067566
8.8037774
8.8010549
8.7985822
8.7963528
8.7943608
8.7926011
8.7910691
8.789761
8.7886738
8.7878058
8.7871575
8.7867304
8.7864862
9.1911298
9.1698022
9.1493074
9.1296086
9.1106906
9.0925352
9.0751231
9.0584343
9.0424489
9.0271471
9.012509
8.9985151
8.985146
8.9723827
8.9602064
8.9485985
8.9375407
8.9270152
8.9170044
8.907491
8.8984581
8.8898894
8.8817687
8.8740805
8.8668096
8.8599412
8.8534613
8.847356
8.8416121
8.8362168
8.831158
8.826424
8.8220035
8.8178861
8.8140616
8.8105206
8.8072541
8.8042539
8.8015122
8.7990219
8.7967765
8.7947702
8.7929977
8.7914544
8.7901366
8.789041
8.7881661
8.7875126
8.7870824
8.7868361
9.1939172
9.1724711
9.1518605
9.1320488
9.1130211
9.0947598
9.0772454
9.0604579
9.0443775
9.0289842
9.0142581
9.0001796
8.9867293
8.9738881
8.9616371
8.9499577
8.9388317
8.928241
8.9181679
8.9085953
8.899506
8.8908836
8.882712
8.8749754
8.8676587
8.860747
8.854226
8.848082
8.8423016
8.836872
8.831781
8.8270167
8.822568
8.8184242
8.8145751
8.8110113
8.8077237
8.804704
8.8019445
8.7994379
8.7971777
8.7951581
8.7933737
8.79182
8.790493
8.7893897
8.7885083
8.7878499
8.7874169
8.7871683
9.1965061
9.1749508
9.1542332
9.1343167
9.1151874
9.0968278
9.0792185
9.0623397
9.0461712
9.0306931
9.0158855
9.0017285
8.9882029
8.9752895
8.9629693
8.9512237
8.9400344
8.9293833
8.9192526
8.9096251
8.9004836
8.8918116
8.8835928
8.8758115
8.8684524
8.8615006
8.8549418
8.848762
8.8429479
8.8374866
8.8323658
8.8275736
8.8230987
8.8189305
8.8150587
8.8114738
8.8081668
8.8051291
8.8023531
8.7998314
8.7975576
8.7955257
8.7937303
8.7921668
8.7908314
8.7897208
8.7888334
8.7881703
8.7877346
8.787484
9.1989062
9.1772507
9.1564343
9.1364209
9.1171973
9.0987467
9.0810496
9.0640862
9.0478364
9.0322799
9.0173968
9.0031673
8.9895721
8.9765918
8.9642076
8.9524008
8.941153
8.9304461
8.9202622
8.910584
8.9013943
8.8926765
8.8844143
8.8765917
8.8691935
8.8622048
8.855611
8.8493982
8.843553
8.8380625
8.8329142
8.8280963
8.8235974
8.8194067
8.8155141
8.8119097
8.8085847
8.8055305
8.8027393
8.8002038
8.7979173
8.795874
8.7940685
8.7924961
8.7911528
8.7900354
8.7891424
8.7884749
8.7880366
8.787784
9.2011273
9.1793799
9.1584724
9.1383692
9.1190585
9.1005236
9.0827455
9.0657042
9.0493792
9.0337505
9.0187977
9.0045013
8.9908417
8.9777998
8.9653565
8.9534932
8.9421915
8.9314332
8.9212003
8.9114755
8.9022414
8.8934814
8.8851792
8.8773187
8.8698846
8.8628618
8.8562359
8.8499929
8.8441192
8.8386018
8.8334283
8.8285867
8.8240657
8.8198544
8.8159426
8.8123204
8.8089789
8.8059095
8.8031043
8.8005561
8.7982581
8.7962044
8.7943895
8.7928088
8.7914582
8.7903346
8.7894362
8.7887645
8.7883239
8.7880693
9.203179
9.1813475
9.1603561
9.1401698
9.1207783
9.1021657
9.084313
9.0671999
9.0508059
9.0351106
9.0200938
9.0057357
8.9920169
8.9789181
8.9664205
8.9545052
8.9431539
8.9323483
8.9220705
8.9123028
8.903028
8.8942294
8.8858904
8.8779952
8.8705281
8.8634742
8.8568189
8.8505481
8.8446483
8.8391063
8.8339097
8.8290465
8.8245053
8.8202751
8.8163457
8.8127073
8.8093507
8.8062674
8.8034494
8.8008895
8.7985809
8.7965176
8.7946942
8.7931059
8.7917486
8.7906191
8.7897158
8.7890402
8.7885974
8.7883408
9.205071
9.1831623
9.1620934
9.1418301
9.1223639
9.1036797
9.0857584
9.0685795
9.0521222
9.0363659
9.0212902
9.0068755
8.9931023
8.9799513
8.9674038
8.9554409
8.9440441
8.9331952
8.9228761
8.9130693
8.9037573
8.8949233
8.8865508
8.8786238
8.8711266
8.8640443
8.8573621
8.851066
8.8451423
8.8395779
8.8343603
8.8294774
8.8249177
8.8206703
8.8167249
8.8130716
8.8097012
8.8066053
8.8037757
8.8012051
8.7988869
8.7968148
8.7949836
8.7933883
8.7920248
8.79089
8.789982
8.7893027
8.7888577
8.7885992
9.2068127
9.1848328
9.1636922
9.1433575
9.1238222
9.1050722
9.0870881
9.0698491
9.053334
9.0375219
9.0223924
9.0079258
8.9941026
8.9809039
8.9683106
8.9563041
8.9448658
8.9339774
8.9236207
8.9137781
8.9044322
8.895566
8.8871629
8.879207
8.8716825
8.8645743
8.8578677
8.8515485
8.8456031
8.8400184
8.8347816
8.8298808
8.8253044
8.8210414
8.8170814
8.8134146
8.8100318
8.8069243
8.8040842
8.801504
8.7991769
8.797097
8.7952585
8.7936569
8.7922878
8.791148
8.7902357
8.7895528
8.7891058
8.7888454
9.2084135
9.1863673
9.1651597
9.1447589
9.1251599
9.1063496
9.0883083
9.0710146
9.0544468
9.0385839
9.0234052
9.0088911
8.9950224
8.98178
8.9691451
8.9570988
8.9456227
8.9346982
8.9243074
8.9144323
8.9050556
8.8961602
8.8877294
8.8797473
8.872198
8.8650664
8.8583377
8.8519977
8.8460326
8.8404294
8.8351754
8.8302584
8.8256668
8.8213897
8.8174166
8.8137376
8.8103435
8.8072256
8.8043759
8.801787
8.799452
8.7973648
8.79552
8.7939125
8.7925383
8.7913939
8.7904775
8.7897912
8.7893424
8.78908
9.209883
9.1877735
9.1665024
9.1460408
9.1263833
9.1075179
9.0894247
9.0720816
9.0554662
9.039557
9.0243336
9.0097763
8.995866
8.9825839
8.969911
8.9578286
8.9463182
8.9353611
8.9249393
8.9150349
8.9056303
8.8967085
8.8882528
8.880247
8.8726754
8.8655226
8.858774
8.8524152
8.8464325
8.8408127
8.8355431
8.8306115
8.8260063
8.8217165
8.8177315
8.8140416
8.8106374
8.8075101
8.8046519
8.8020551
8.7997129
8.7976193
8.7957686
8.7941559
8.792777
8.7916284
8.7907082
8.7900187
8.789568
8.7893037
9.2112303
9.1890578
9.1677261
9.1472092
9.1274984
9.1085831
9.0904431
9.0730555
9.0563972
9.0404464
9.0251824
9.0105858
8.9966377
8.9833194
8.9706121
8.9584971
8.9469557
8.9359692
8.9255196
8.9155887
8.9061591
8.8972136
8.8887355
8.8807084
8.8731167
8.865945
8.8591785
8.8528029
8.8468044
8.8411697
8.8358862
8.8309415
8.8263242
8.822023
8.8180275
8.8143277
8.8109144
8.8077788
8.8049129
8.8023091
8.7999605
8.7978611
8.7960052
8.7943878
8.7930047
8.7918522
8.7909285
8.7902359
8.7897834
8.7895172
9.2124654
9.190225
9.1688362
9.1482694
9.1285109
9.1095506
9.091369
9.0739417
9.0572451
9.0412567
9.0259559
9.0113237
8.9973414
8.9839904
8.9712521
8.9591077
8.9475384
8.9365256
8.9260509
8.9160964
8.9066445
8.8976778
8.8891796
8.8811336
8.873524
8.8663355
8.8595531
8.8531625
8.8471499
8.841502
8.836206
8.8312497
8.8266215
8.8223102
8.8183054
8.8145969
8.8111756
8.8080325
8.8051598
8.8025497
8.8001955
8.7980909
8.7962303
8.7946087
8.7932218
8.7920658
8.7911388
8.7904433
8.789989
8.789721
9.191283
9.1698385
9.1492267
9.1294261
9.1104261
9.0922075
9.0747453
9.0580146
9.0419926
9.0266587
9.0119942
8.997981
8.9846006
8.9718344
8.9596636
8.9480694
8.9370331
8.9265362
8.9165607
8.9070889
8.8981034
8.8895875
8.8815247
8.8738993
8.8666957
8.8598992
8.8534954
8.8474704
8.8418108
8.8365038
8.8315373
8.8268996
8.8225794
8.8185662
8.8148501
8.8114216
8.8082721
8.8053933
8.8027777
8.8004185
8.7983093
8.7964446
8.7948193
8.7934289
8.7922698
8.7913397
8.7906413
8.7901854
8.7899155
9.1922341
9.1707386
9.1500857
9.1302491
9.1112145
9.0929638
9.0754711
9.0587106
9.0426586
9.0272949
9.0126013
8.9985602
8.9851534
8.9723623
8.960168
8.9485517
8.9374946
8.9269781
8.916984
8.9074946
8.8984926
8.889961
8.8818835
8.8742442
8.8670275
8.8602187
8.8538032
8.8477672
8.8420974
8.8367809
8.8318054
8.8271593
8.8228313
8.8188109
8.815088
8.8116533
8.8084981
8.805614
8.8029936
8.80063
8.7985169
8.7966486
8.7950199
8.7936265
8.7924645
8.7915316
8.7908305
8.7903729
8.7901012
9.1930957
9.1715407
9.1508516
9.130985
9.1119208
9.0936428
9.076124
9.0593374
9.0432591
9.0278686
9.0131487
8.9990825
8.9856521
8.9728389
8.9606239
8.9489882
8.9379127
8.927379
8.9173687
8.907864
8.8988475
8.8903023
8.882212
8.8745605
8.8673325
8.8605129
8.8540873
8.8480418
8.8423631
8.8370383
8.832055
8.8274016
8.8230669
8.8190402
8.8153115
8.8118715
8.8087112
8.8058226
8.8031981
8.8008307
8.7987141
8.7968426
8.7952111
8.793815
8.7926505
8.7917149
8.7910112
8.7905519
8.7902784
9.1722528
9.1515296
9.1316382
9.1125497
9.094249
9.0767084
9.0598996
9.043798
9.0283834
9.0136398
8.9995512
8.9860999
8.9732672
8.961034
8.9493813
8.9382899
8.9277413
8.9177169
8.908199
8.8991701
8.8906131
8.8825117
8.8748498
8.8676119
8.8607831
8.8543489
8.8482953
8.8426089
8.837277
8.832287
8.8276274
8.8232869
8.8192548
8.8155212
8.8120765
8.8089121
8.8060196
8.8033915
8.8010208
8.7989013
8.7970271
8.7953931
8.7939947
8.7928279
8.79189
8.7911838
8.7907225
8.7904473
9.172874
9.1521251
9.1322132
9.1131056
9.0947868
9.0772285
9.0604011
9.0442792
9.0288429
9.0140779
8.9999693
8.9864996
8.9736499
8.961401
8.9497336
8.9386286
8.9280671
8.9180307