/*--------------------------------*- C++ -*----------------------------------*\
| =========                 |                                                 |
| \\      /  F ield         | OpenFOAM: The Open Source CFD Toolbox           |
|  \\    /   O peration     | Version:  2312                                  |
|   \\  /    A nd           | Website:  www.openfoam.com                      |
|    \\/     M anipulation  |                                                 |
\*---------------------------------------------------------------------------*/
FoamFile
{
    version     2.0;
    format      ascii;
    arch        "LSB;label=32;scalar=64";
    class       volScalarField;
    location    "0.08";
    object      O2;
}
// * * * * * * * * * * * * * * * * * * * * * * * * * * * * * * * * * * * * * //

dimensions      [0 0 0 0 0 0 0];

internalField   nonuniform List<scalar> 
3257
(
0.21617141
0.21648224
0.21678762
0.2170874
0.2173815
0.21766984
0.21795234
0.21822893
0.21849957
0.21876419
0.21902275
0.21927522
0.21952154
0.2197617
0.21999566
0.2202234
0.2204449
0.22066014
0.22086911
0.2210718
0.2212682
0.2214583
0.22164209
0.22181957
0.22199074
0.2221556
0.22231415
0.22246639
0.22261231
0.22275193
0.22288523
0.22301223
0.22313292
0.22324731
0.22335539
0.22345717
0.22355265
0.22364181
0.22372467
0.22380122
0.22387145
0.22393536
0.22399294
0.22404418
0.22408907
0.2241276
0.22415975
0.22418551
0.22420486
0.22421779
0.22422426
0.21614596
0.2164578
0.21676413
0.21706484
0.21735983
0.21764902
0.21793233
0.21820972
0.21848111
0.21874646
0.21900573
0.21925886
0.21950583
0.21974661
0.21998116
0.22020947
0.22043151
0.22064727
0.22085674
0.2210599
0.22125675
0.22144728
0.22163148
0.22180936
0.2219809
0.22214612
0.222305
0.22245755
0.22260378
0.22274368
0.22287725
0.2230045
0.22312543
0.22324004
0.22334834
0.22345031
0.22354596
0.2236353
0.22371831
0.223795
0.22386536
0.22392939
0.22398707
0.2240384
0.22408337
0.22412197
0.22415418
0.22417998
0.22419937
0.2242123
0.22421876
0.21609779
0.21641148
0.21671962
0.21702205
0.2173187
0.21760949
0.21789436
0.21817323
0.21844605
0.21871277
0.21897335
0.21922775
0.21947594
0.21971788
0.21995355
0.22018293
0.22040599
0.22062273
0.22083314
0.2210372
0.2212349
0.22142624
0.22161122
0.22178984
0.22196209
0.22212797
0.22228749
0.22244065
0.22258744
0.22272788
0.22286196
0.22298969
0.22311108
0.22322611
0.2233348
0.22343714
0.22353314
0.22362279
0.2237061
0.22378305
0.22385366
0.2239179
0.22397578
0.22402729
0.22407241
0.22411114
0.22414346
0.22416935
0.2241888
0.22420178
0.22420826
0.21602969
0.216346
0.21665665
0.21696151
0.21726051
0.21755356
0.21784059
0.21812155
0.21839639
0.21866504
0.21892749
0.21918367
0.21943357
0.21967715
0.2199144
0.22014529
0.2203698
0.22058792
0.22079965
0.22100497
0.22120389
0.22139638
0.22158246
0.22176212
0.22193537
0.2221022
0.22226261
0.22241662
0.22256423
0.22270543
0.22284023
0.22296864
0.22309066
0.22320629
0.22331554
0.2234184
0.22351489
0.22360499
0.22368871
0.22376605
0.223837
0.22390155
0.22395971
0.22401147
0.22405681
0.22409572
0.22412819
0.2241542
0.22417374
0.22418678
0.2241933
0.2159443
0.21626387
0.21657766
0.21688556
0.21718748
0.21748334
0.21777309
0.21805667
0.21833402
0.2186051
0.21886986
0.21912828
0.21938032
0.21962596
0.21986518
0.22009796
0.22032428
0.22054414
0.22075753
0.22096444
0.22116486
0.2213588
0.22154626
0.22172723
0.22190173
0.22206974
0.22223129
0.22238637
0.22253498
0.22267714
0.22281285
0.22294211
0.22306493
0.22318131
0.22329127
0.22339479
0.22349188
0.22358255
0.22366679
0.2237446
0.22381598
0.22388094
0.22393945
0.22399151
0.22403712
0.22407626
0.22410892
0.22413509
0.22415474
0.22416786
0.22417441
0.21584412
0.21616749
0.21648496
0.2167964
0.21710174
0.2174009
0.21769383
0.21798046
0.21826075
0.21853466
0.21880215
0.21906318
0.21931773
0.21956578
0.21980731
0.22004231
0.22027076
0.22049265
0.22070798
0.22091674
0.22111894
0.22131458
0.22150365
0.22168616
0.22186212
0.22203153
0.2221944
0.22235073
0.22250054
0.22264382
0.22278059
0.22291085
0.22303462
0.22315188
0.22326266
0.22336695
0.22346476
0.22355609
0.22364094
0.22371932
0.22379121
0.22385662
0.22391554
0.22396797
0.2240139
0.22405331
0.2240862
0.22411255
0.22413234
0.22414555
0.22415214
0.21573148
0.21605911
0.21638069
0.21669611
0.21700528
0.21730814
0.21760462
0.21789469
0.21817828
0.21845537
0.21872591
0.21898988
0.21924725
0.219498
0.21974213
0.21997961
0.22021044
0.22043462
0.22065213
0.22086299
0.22106718
0.22126472
0.22145561
0.22163986
0.22181746
0.22198844
0.2221528
0.22231054
0.22246168
0.22260623
0.2227442
0.22287558
0.2230004
0.22311866
0.22323037
0.22333553
0.22343414
0.22352622
0.22361176
0.22369076
0.22376323
0.22382916
0.22388855
0.22394139
0.22398767
0.22402739
0.22406053
0.22408708
0.22410702
0.22412033
0.22412698
0.21560855
0.21594081
0.21626688
0.21658661
0.21689996
0.21720684
0.2175072
0.217801
0.21808819
0.21836874
0.21864261
0.21890977
0.21917022
0.21942393
0.21967088
0.21991108
0.22014451
0.22037117
0.22059107
0.2208042
0.22101057
0.22121019
0.22140306
0.22158919
0.2217686
0.22194129
0.22210727
0.22226656
0.22241916
0.22256509
0.22270435
0.22283697
0.22296295
0.22308229
0.22319501
0.22330111
0.22340061
0.2234935
0.22357979
0.22365949
0.22373258
0.22379908
0.22385897
0.22391226
0.22395893
0.22399899
0.2240324
0.22405917
0.22407928
0.2240927
0.2240994
0.21547732
0.21581452
0.21614535
0.2164697
0.21678748
0.21709865
0.21740315
0.21770093
0.21799195
0.21827618
0.2185536
0.21882418
0.2190879
0.21934475
0.21959473
0.21983782
0.22007402
0.22030334
0.22052578
0.22074134
0.22095003
0.22115187
0.22134686
0.22153501
0.22171633
0.22189084
0.22205856
0.22221949
0.22237365
0.22252105
0.22266171
0.22279564
0.22292285
0.22304335
0.22315716
0.22326427
0.22336471
0.22345847
0.22354556
0.22362599
0.22369975
0.22376685
0.22382729
0.22388106
0.22392815
0.22396856
0.22400227
0.22402928
0.22404956
0.2240631
0.22406985
0.21533961
0.21568199
0.21601781
0.21634698
0.21666942
0.21698508
0.21729391
0.21759586
0.2178909
0.218179
0.21846013
0.21873428
0.21900144
0.21926159
0.21951473
0.21976085
0.21999996
0.22023207
0.22045717
0.22067528
0.22088642
0.22109058
0.22128778
0.22147805
0.22166138
0.22183781
0.22200735
0.22217
0.2223258
0.22247475
0.22261687
0.22275217
0.22288068
0.22300239
0.22311734
0.22322551
0.22332693
0.22342161
0.22350954
0.22359074
0.22366521
0.22373294
0.22379395
0.22384822
0.22389574
0.22393653
0.22397055
0.2239978
0.22401827
0.22403193
0.22403875
0.21519708
0.2155448
0.21588579
0.21621994
0.21654719
0.21686749
0.21718079
0.21748706
0.21778625
0.21807835
0.21836333
0.21864118
0.21891188
0.21917544
0.21943185
0.21968112
0.21992324
0.22015823
0.22038609
0.22060684
0.22082049
0.22102705
0.22122656
0.22141901
0.22160443
0.22178284
0.22195426
0.2221187
0.22227619
0.22242674
0.22257037
0.2227071
0.22283694
0.22295992
0.22307603
0.22318531
0.22328775
0.22338337
0.22347217
0.22355417
0.22362936
0.22369776
0.22375935
0.22381414
0.22386212
0.22390328
0.22393763
0.22396514
0.2239858
0.22399959
0.22400647
0.21505122
0.21540439
0.21575066
0.21608991
0.21642208
0.21674713
0.217065
0.21737567
0.21767911
0.2179753
0.21826421
0.21854584
0.21882018
0.21908723
0.21934699
0.21959946
0.21984466
0.22008259
0.22031327
0.22053672
0.22075295
0.22096198
0.22116383
0.22135852
0.22154607
0.22172651
0.22189985
0.22206613
0.22222534
0.22237753
0.22252271
0.2226609
0.22279211
0.22291637
0.22303369
0.22314409
0.22324758
0.22334416
0.22343386
0.22351667
0.22359261
0.22366167
0.22372386
0.22377918
0.22382762
0.22386919
0.22390386
0.22393163
0.22395249
0.22396641
0.22397335
0.21490335
0.21526205
0.21561366
0.21595807
0.21629523
0.21662508
0.21694759
0.21726273
0.21757047
0.2178708
0.21816369
0.21844915
0.21872717
0.21899775
0.2192609
0.21951663
0.21976495
0.22000587
0.22023941
0.22046559
0.22068443
0.22089596
0.22110019
0.22129715
0.22148686
0.22166935
0.22184465
0.22201277
0.22217374
0.22232759
0.22247434
0.222614
0.22274661
0.22287217
0.22299071
0.22310224
0.22320679
0.22330435
0.22339495
0.22347859
0.22355528
0.22362502
0.22368782
0.22374368
0.22379259
0.22383455
0.22386956
0.22389759
0.22391865
0.2239327
0.22393971
0.21475465
0.21511891
0.21547589
0.21582549
0.21616765
0.21650234
0.21682951
0.21714913
0.2174612
0.21776569
0.21806259
0.21835189
0.21863361
0.21890775
0.21917431
0.21943331
0.21968476
0.21992868
0.22016509
0.22039402
0.22061549
0.22082952
0.22103615
0.22123539
0.22142727
0.22161183
0.22178909
0.22195907
0.22212181
0.22227732
0.22242565
0.22256679
0.22270079
0.22282767
0.22294743
0.22306011
0.22316572
0.22326426
0.22335577
0.22344024
0.22351768
0.22358811
0.22365152
0.22370792
0.2237573
0.22379967
0.223835
0.22386331
0.22388456
0.22389874
0.22390582
0.21460616
0.21497597
0.21533831
0.21569309
0.21604025
0.21637976
0.21671158
0.21703568
0.21735207
0.21766071
0.2179616
0.21825476
0.21854017
0.21881785
0.21908781
0.21935008
0.21960465
0.21985157
0.22009086
0.22032253
0.22054662
0.22076316
0.22097217
0.22117369
0.22136774
0.22155436
0.22173357
0.22190542
0.22206991
0.22222709
0.22237699
0.22251962
0.22265501
0.22278319
0.22290418
0.223018
0.22312466
0.22322419
0.2233166
0.2234019
0.2234801
0.22355121
0.22361523
0.22367217
0.22372202
0.22376478
0.22380045
0.22382902
0.22385047
0.22386479
0.22387193
0.21445879
0.21483411
0.21520177
0.21556168
0.2159138
0.21625809
0.21659453
0.21692308
0.21724375
0.21755651
0.21786137
0.21815834
0.21844742
0.21872862
0.21900196
0.21926746
0.21952514
0.21977503
0.22001716
0.22025156
0.22047825
0.22069727
0.22090865
0.22111243
0.22130863
0.2214973
0.22167846
0.22185214
0.22201838
0.22217722
0.22232867
0.22247277
0.22260954
0.22273902
0.22286122
0.22297617
0.22308389
0.22318439
0.2232777
0.22336382
0.22344276
0.22351455
0.22357917
0.22363664
0.22368696
0.22373012
0.22376612
0.22379495
0.2238166
0.22383105
0.22383826
0.21431332
0.21469407
0.21506698
0.21543197
0.21578898
0.216138
0.21647899
0.21681193
0.21713682
0.21745366
0.21776243
0.21806316
0.21835586
0.21864053
0.2189172
0.2191859
0.21944665
0.21969948
0.21994442
0.2201815
0.22041076
0.22063223
0.22084595
0.22105195
0.22125028
0.22144096
0.22162404
0.22179954
0.22196751
0.22212797
0.22228096
0.22242651
0.22256465
0.2226954
0.2228188
0.22293486
0.22304362
0.22314508
0.22323927
0.2233262
0.22340588
0.22347833
0.22354355
0.22360155
0.22365232
0.22369588
0.2237322
0.22376129
0.22378313
0.22379771
0.22380498
0.21417042
0.21455651
0.21493458
0.21530455
0.21566637
0.21602003
0.21636549
0.21670275
0.21703179
0.21735262
0.21766525
0.21796967
0.21826592
0.218554
0.21883395
0.21910579
0.21936955
0.21962526
0.21987295
0.22011267
0.22034446
0.22056833
0.22078435
0.22099254
0.22119295
0.22138562
0.22157058
0.22174786
0.22191752
0.22207958
0.22223408
0.22238106
0.22252053
0.22265254
0.22277711
0.22289427
0.22300404
0.22310645
0.2232015
0.22328923
0.22336963
0.22344274
0.22350854
0.22356705
0.22361828
0.22366221
0.22369885
0.2237282
0.22375023
0.22376493
0.22377227
0.21403065
0.21442197
0.21480509
0.21517993
0.21554646
0.21590465
0.21625449
0.21659597
0.21692908
0.21725382
0.2175702
0.21787825
0.21817797
0.21846939
0.21875254
0.21902745
0.21929415
0.21955268
0.21980307
0.22004537
0.22027962
0.22050585
0.22072411
0.22093445
0.22113689
0.22133149
0.22151829
0.22169733
0.22186864
0.22203226
0.22218824
0.2223366
0.22247738
0.22261062
0.22273634
0.22285457
0.22296533
0.22306866
0.22316456
0.22325306
0.22333417
0.22340791
0.22347429
0.2235333
0.22358496
0.22362927
0.22366623
0.22369581
0.22371803
0.22373286
0.22374026
0.2138945
0.2142909
0.21467894
0.21505853
0.21542965
0.21579226
0.21614637
0.21649196
0.21682902
0.21715757
0.21747762
0.21778919
0.2180923
0.21838697
0.21867324
0.21895114
0.21922071
0.21948198
0.21973501
0.21997982
0.22021647
0.22044499
0.22066544
0.22087786
0.22108229
0.22127878
0.22146737
0.2216481
0.22182102
0.22198617
0.22214358
0.2222933
0.22243535
0.22256978
0.22269662
0.22281589
0.22292762
0.22303184
0.22312856
0.22321782
0.22329962
0.22337398
0.22344091
0.22350041
0.2235525
0.22359717
0.22363443
0.22366426
0.22368665
0.2237016
0.22370906
0.21376233
0.21416368
0.2145565
0.2149407
0.21531627
0.21568319
0.21604143
0.21639101
0.21673192
0.21706417
0.21738778
0.21770277
0.21800916
0.21830699
0.21859629
0.21887709
0.21914944
0.21941338
0.21966896
0.21991621
0.22015519
0.22038594
0.22060851
0.22082295
0.2210293
0.22122762
0.22141795
0.22160033
0.22177481
0.22194144
0.22210025
0.22225128
0.22239457
0.22253015
0.22265807
0.22277835
0.22289102
0.2229961
0.22309363
0.22318362
0.22326608
0.22334104
0.22340851
0.22346849
0.22352099
0.22356601
0.22360356
0.22363362
0.22365619
0.22367126
0.22367877
0.21363447
0.21404061
0.21443804
0.21482672
0.2152066
0.21557767
0.21593993
0.21629337
0.216638
0.21697383
0.21730088
0.21761918
0.21792875
0.21822963
0.21852186
0.21880548
0.21908052
0.21934704
0.21960508
0.21985469
0.22009593
0.22032883
0.22055345
0.22076985
0.22097807
0.22117815
0.22137016
0.22155414
0.22173013
0.22189818
0.22205834
0.22221064
0.22235512
0.22249183
0.22262079
0.22274204
0.22285562
0.22296154
0.22305984
0.22315053
0.22323364
0.22330918
0.22337717
0.22343761
0.2234905
0.22353587
0.22357369
0.22360398
0.22362672
0.2236419
0.22364947
0.21351115
0.21392191
0.21432381
0.21471679
0.21510083
0.21547592
0.21584204
0.21619921
0.21654743
0.21688671
0.21721709
0.21753858
0.21785122
0.21815505
0.21845011
0.21873643
0.21901407
0.21928308
0.2195435
0.21979539
0.2200388
0.22027377
0.22050038
0.22071866
0.22092867
0.22113047
0.2213241
0.22150961
0.22168706
0.22185649
0.22201794
0.22217146
0.2223171
0.22245488
0.22258485
0.22270705
0.22282149
0.22292822
0.22302726
0.22311864
0.22320237
0.22327846
0.22334695
0.22340783
0.22346111
0.2235068
0.2235449
0.2235754
0.2235983
0.22361358
0.22362121
0.21339255
0.21380775
0.21421395
0.21461108
0.21499912
0.21537807
0.21574792
0.21610867
0.21646035
0.21680296
0.21713653
0.2174611
0.21777669
0.21808335
0.21838113
0.21867006
0.2189502
0.2192216
0.21948431
0.21973839
0.21998388
0.22022086
0.22044936
0.22066946
0.2208812
0.22108463
0.22127982
0.22146681
0.22164566
0.22181641
0.22197911
0.22213381
0.22228055
0.22241937
0.22255031
0.22267341
0.22278869
0.2228962
0.22299595
0.22308798
0.2231723
0.22324894
0.2233179
0.2233792
0.22343285
0.22347885
0.22351721
0.22354792
0.22357097
0.22358636
0.22359404
0.21327879
0.21369826
0.21410858
0.2145097
0.21490158
0.21528424
0.21565766
0.21602186
0.21637684
0.21672264
0.21705929
0.2173868
0.21770523
0.21801461
0.21831499
0.21860643
0.21888896
0.21916266
0.21942756
0.21968374
0.21993124
0.22017013
0.22040046
0.2206223
0.22083569
0.2210407
0.22123738
0.22142579
0.22160598
0.221778
0.2219419
0.22209772
0.22224552
0.22238533
0.2225172
0.22264116
0.22275725
0.2228655
0.22296594
0.22305859
0.22314348
0.22322063
0.22329005
0.22335176
0.22340576
0.22345206
0.22349067
0.22352157
0.22354477
0.22356026
0.22356798
0.21316995
0.21359351
0.21400778
0.21441271
0.21480827
0.21519448
0.21557132
0.21593881
0.21629697
0.21664583
0.21698541
0.21731574
0.21763688
0.21794887
0.21825175
0.21854558
0.21883041
0.2191063
0.21937331
0.21963149
0.21988091
0.22012163
0.22035371
0.22057721
0.22079219
0.2209987
0.22119681
0.22138658
0.22156805
0.22174128
0.22190632
0.22206322
0.22221203
0.2223528
0.22248555
0.22261034
0.2227272
0.22283615
0.22293724
0.2230305
0.22311593
0.22319357
0.22326343
0.22332552
0.22337986
0.22342644
0.22346529
0.22349638
0.22351972
0.22353531
0.22354307
0.21306606
0.21349353
0.21391158
0.21432014
0.21471922
0.21510881
0.21548893
0.21585957
0.21622076
0.21657253
0.21691492
0.21724795
0.21757168
0.21788615
0.21819141
0.21848753
0.21877455
0.21905254
0.21932155
0.21958165
0.21983291
0.22007538
0.22030912
0.22053421
0.2207507
0.22095865
0.22115812
0.22134918
0.22153187
0.22170626
0.22187239
0.22203032
0.2221801
0.22232177
0.22245537
0.22258094
0.22269853
0.22280817
0.22290988
0.2230037
0.22308965
0.22316776
0.22323803
0.2233005
0.22335515
0.22340201
0.22344108
0.22347235
0.22349583
0.2235115
0.22351931
0.21296713
0.21339832
0.21381996
0.214232
0.21463443
0.21502725
0.21541048
0.21578412
0.2161482
0.21650275
0.21684781
0.21718341
0.21750961
0.21782645
0.21813398
0.21843228
0.21872139
0.21900137
0.21927229
0.21953422
0.21978722
0.22003136
0.22026669
0.22049329
0.22071122
0.22092054
0.22112131
0.2213136
0.22149746
0.22167294
0.22184012
0.22199903
0.22214972
0.22229225
0.22242666
0.22255298
0.22267127
0.22278155
0.22288385
0.22297821
0.22306466
0.22314321
0.22321388
0.22327669
0.22333165
0.22337877
0.22341805
0.22344949
0.2234731
0.22348885
0.22349671
0.21287312
0.21330784
0.2137329
0.21414824
0.21455385
0.21494975
0.21533594
0.21571244
0.21607927
0.21643646
0.21678406
0.21712211
0.21745065
0.21776974
0.21807944
0.2183798
0.2186709
0.21895278
0.21922552
0.21948919
0.21974384
0.21998956
0.2202264
0.22045444
0.22067373
0.22088435
0.22108636
0.22127982
0.22146478
0.22164132
0.22180948
0.22196932
0.22212088
0.22226423
0.2223994
0.22252644
0.22264538
0.22275627
0.22285914
0.22295402
0.22304093
0.2231199
0.22319095
0.22325409
0.22330934
0.2233567
0.22339618
0.22342779
0.22345151
0.22346735
0.22347524
0.21278396
0.21322203
0.21365033
0.21406881
0.21447745
0.21487627
0.21526527
0.21564448
0.21601392
0.21637362
0.21672363
0.217064
0.21739477
0.217716
0.21802774
0.21833007
0.21862305
0.21890673
0.2191812
0.21944651
0.21970274
0.21994996
0.22018823
0.22041763
0.22063822
0.22085007
0.22105325
0.22124782
0.22143383
0.22161136
0.22178045
0.22194117
0.22209357
0.22223769
0.22237359
0.2225013
0.22262087
0.22273234
0.22283574
0.2229311
0.22301846
0.22309782
0.22316923
0.22323268
0.2232882
0.2233358
0.22337547
0.22340723
0.22343107
0.22344698
0.22345491
0.2131408
0.21357218
0.21399363
0.21440514
0.21480673
0.21519839
0.21558017
0.21595208
0.21631416
0.21666646
0.21700902
0.2173419
0.21766515
0.21797884
0.21828303
0.21857779
0.21886318
0.21913928
0.21940615
0.21966387
0.21991251
0.22015214
0.22038283
0.22060465
0.22081766
0.22102195
0.22121756
0.22140457
0.22158304
0.22175302
0.22191457
0.22206775
0.22221261
0.22234919
0.22247754
0.2225977
0.22270972
0.22281362
0.22290944
0.22299722
0.22307696
0.2231487
0.22321245
0.22326823
0.22331604
0.2233559
0.2233878
0.22341174
0.22342773
0.22343569
0.21306405
0.21349835
0.21392261
0.21433684
0.21474105
0.21513524
0.21551944
0.21589369
0.21625802
0.21661248
0.21695712
0.21729199
0.21761715
0.21793268
0.21823863
0.21853507
0.21882207
0.21909971
0.21936806
0.21962719
0.21987717
0.22011808
0.22034999
0.22057296
0.22078709
0.22099242
0.22118902
0.22137697
0.22155632
0.22172714
0.22188948
0.2220434
0.22218894
0.22232617
0.22245513
0.22257585
0.22268838
0.22279276
0.22288902
0.22297718
0.22305728
0.22312934
0.22319337
0.22324939
0.22329741
0.22333744
0.22336947
0.22339351
0.22340957
0.22341756
0.21299168
0.21342873
0.21385566
0.21427245
0.21467913
0.2150757
0.21546219
0.21583865
0.2162051
0.2165616
0.2169082
0.21724495
0.21757192
0.21788918
0.21819679
0.21849482
0.21878334
0.21906244
0.21933217
0.21959263
0.21984388
0.22008599
0.22031905
0.22054313
0.22075829
0.2209646
0.22116215
0.22135098
0.22153117
0.22170277
0.22186585
0.22202047
0.22216667
0.22230451
0.22243403
0.22255528
0.2226683
0.22277312
0.22286979
0.22295833
0.22303876
0.22311111
0.22317541
0.22323166
0.22327987
0.22332006
0.22335222
0.22337636
0.22339247
0.2234005
0.21292357
0.21336321
0.21379265
0.21421186
0.21462086
0.21501968
0.21540833
0.21578687
0.21615532
0.21651374
0.21686218
0.21720071
0.21752938
0.21784827
0.21815744
0.21845696
0.21874692
0.21902739
0.21929843
0.21956014
0.21981258
0.22005584
0.22028998
0.22051508
0.22073122
0.22093846
0.22113689
0.22132655
0.22150753
0.22167988
0.22184365
0.22199893
0.22214574
0.22228415
0.22241421
0.22253595
0.22264943
0.22275468
0.22285173
0.22294061
0.22302136
0.223094
0.22315854
0.223215
0.22326339
0.22330373
0.22333601
0.22336024
0.22337641
0.22338447
0.21285958
0.21330167
0.21373346
0.21415494
0.21456614
0.21496706
0.21535775
0.21573824
0.21610857
0.21646879
0.21681897
0.21715917
0.21748944
0.21780986
0.2181205
0.21842143
0.21871274
0.21899449
0.21926677
0.21952965
0.21978321
0.22002753
0.22026269
0.22048877
0.22070582
0.22091394
0.22111319
0.22130364
0.22148535
0.2216584
0.22182284
0.22197872
0.22212611
0.22226506
0.22239562
0.22251783
0.22263174
0.22273738
0.22283479
0.222924
0.22300505
0.22307795
0.22314272
0.22319938
0.22324795
0.22328842
0.22332081
0.22334512
0.22336135
0.22336943
0.21279957
0.21324395
0.21367796
0.21410157
0.21451482
0.21491773
0.21531033
0.21569265
0.21606475
0.21642667
0.21677848
0.21712023
0.21745201
0.21777387
0.21808589
0.21838814
0.21868071
0.21896367
0.2192371
0.21950109
0.2197557
0.22000103
0.22023714
0.22046412
0.22068204
0.22089098
0.22109101
0.22128219
0.2214646
0.2216383
0.22180335
0.22195981
0.22210774
0.2222472
0.22237823
0.22250087
0.22261518
0.22272119
0.22281894
0.22290847
0.22298979
0.22306293
0.22312792
0.22318477
0.22323349
0.2232741
0.22330659
0.22333098
0.22334726
0.22335537
0.2127434
0.21318993
0.21362601
0.21405163
0.2144668
0.21487157
0.21526595
0.21564999
0.21602374
0.21638725
0.21674059
0.21708381
0.21741699
0.2177402
0.21805351
0.218357
0.21865076
0.21893485
0.21920936
0.21947438
0.21972998
0.21997625
0.22021326
0.22044109
0.22065982
0.22086952
0.22107027
0.22126214
0.2214452
0.22161951
0.22178514
0.22194214
0.22209058
0.22223051
0.22236198
0.22248504
0.22259972
0.22270608
0.22280415
0.22289395
0.22297553
0.22304891
0.2231141
0.22317112
0.22322
0.22326072
0.22329332
0.22331777
0.2233341
0.22334223
0.2126909
0.21313945
0.21357747
0.21400496
0.21442194
0.21482844
0.2152245
0.21561015
0.21598545
0.21635045
0.21670521
0.2170498
0.2173843
0.21770876
0.21802328
0.21832793
0.21862279
0.21890795
0.21918347
0.21944946
0.21970598
0.21995312
0.22019097
0.22041959
0.22063908
0.2208495
0.22105093
0.22124345
0.22142711
0.221602
0.22176816
0.22192567
0.22207459
0.22221496
0.22234684
0.22247027
0.22258531
0.22269199
0.22279035
0.22288043
0.22296225
0.22303584
0.22310122
0.22315841
0.22320742
0.22324826
0.22328094
0.22330547
0.22332184
0.22332999
0.21264194
0.21309237
0.2135322
0.21396144
0.21438011
0.21478823
0.21518585
0.215573
0.21594974
0.21631613
0.21667223
0.2170181
0.21735382
0.21767947
0.21799512
0.21830085
0.21859674
0.21888288
0.21915935
0.21942624
0.21968362
0.21993159
0.22017021
0.22039958
0.22061977
0.22083086
0.22103293
0.22122604
0.22141027
0.22158569
0.22175236
0.22191034
0.2220597
0.22220048
0.22233275
0.22245654
0.22257191
0.22267889
0.22277753
0.22286785
0.2229499
0.22302369
0.22308924
0.22314658
0.22319572
0.22323667
0.22326944
0.22329402
0.22331043
0.2233186
0.21259636
0.21304854
0.21349006
0.21392093
0.21434117
0.2147508
0.21514988
0.21553843
0.21591652
0.2162842
0.21664154
0.21698861
0.21732547
0.21765222
0.21796892
0.21827565
0.21857251
0.21885957
0.21913693
0.21940465
0.21966284
0.21991156
0.22015092
0.22038098
0.22060183
0.22081354
0.2210162
0.22120987
0.22139463
0.22157055
0.22173769
0.22189611
0.22204588
0.22218704
0.22231966
0.22244379
0.22255946
0.22266673
0.22276562
0.22285618
0.22293843
0.22301241
0.22307813
0.22313561
0.22318487
0.22322591
0.22325876
0.2232834
0.22329985
0.22330804
0.21255401
0.21300781
0.21345091
0.2138833
0.214305
0.21471604
0.21511647
0.21550632
0.21588567
0.21625455
0.21661305
0.21696122
0.21729915
0.21762692
0.21794459
0.21825227
0.21855002
0.21883794
0.21911611
0.21938462
0.21964355
0.21989299
0.22013302
0.22036373
0.22058519
0.22079748
0.22100069
0.22119488
0.22138013
0.22155651
0.22172408
0.22188292
0.22203307
0.22217459
0.22230754
0.22243198
0.22254793
0.22265546
0.22275459
0.22284537
0.22292782
0.22300196
0.22306783
0.22312545
0.22317482
0.22321596
0.22324887
0.22327356
0.22329005
0.22329825
0.21251472
0.21297005
0.21341461
0.2138484
0.21427146
0.21468381
0.21508549
0.21547656
0.21585707
0.21622707
0.21658664
0.21693584
0.21727476
0.21760347
0.21792206
0.2182306
0.21852919
0.2188179
0.21909683
0.21936607
0.21962569
0.21987579
0.22011645
0.22034775
0.22056978
0.22078262
0.22098633
0.22118101
0.22136672
0.22154353
0.2217115
0.22187072
0.22202122
0.22216308
0.22229634
0.22242106
0.22253728
0.22264505
0.2227444
0.22283538
0.222918
0.22299231
0.22305832
0.22311606
0.22316553
0.22320675
0.22323973
0.22326448
0.22328099
0.22328921
0.21247837
0.2129351
0.21338102
0.21381612
0.21424043
0.21465399
0.21505684
0.21544903
0.21583061
0.21620165
0.21656221
0.21691237
0.21725221
0.2175818
0.21790123
0.21821057
0.21850993
0.21879938
0.21907902
0.21934893
0.21960919
0.2198599
0.22010114
0.220333
0.22055556
0.22076889
0.22097308
0.2211682
0.22135433
0.22153154
0.2216999
0.22185946
0.22201029
0.22215246
0.222286
0.22241099
0.22252745
0.22263545
0.22273501
0.22282617
0.22290896
0.22298342
0.22304956
0.22310741
0.22315697
0.22319827
0.22323131
0.2232561
0.22327265
0.22328088
0.21244479
0.21290283
0.21335
0.2137863
0.21421178
0.21462646
0.21503039
0.21542361
0.21580619
0.21617819
0.21653967
0.21689072
0.2172314
0.2175618
0.217882
0.2181921
0.21849217
0.2187823
0.21906259
0.21933312
0.21959398
0.21984526
0.22008704
0.22031941
0.22054245
0.22075624
0.22096087
0.22115641
0.22134293
0.22152051
0.22168921
0.2218491
0.22200023
0.22214268
0.2222765
0.22240172
0.22251842
0.22262662
0.22272637
0.2228177
0.22290065
0.22297524
0.2230415
0.22309945
0.22314911
0.22319048
0.22322357
0.2232484
0.22326498
0.22327322
0.21241385
0.21287309
0.21332142
0.21375884
0.21418539
0.2146011
0.21500602
0.21540021
0.2157837
0.21615659
0.21651892
0.21687078
0.21721224
0.21754339
0.21786431
0.21817509
0.21847582
0.21876658
0.21904747
0.21931858
0.21957999
0.21983178
0.22007406
0.22030691
0.2205304
0.22074462
0.22094965
0.22114557
0.22133246
0.22151037
0.22167939
0.22183958
0.221991
0.22213371
0.22226777
0.22239322
0.22251012
0.22261852
0.22271844
0.22280993
0.22289302
0.22296774
0.22303411
0.22309216
0.22314189
0.22318333
0.22321647
0.22324134
0.22325794
0.22326619
0.21238541
0.21284576
0.21329515
0.2137336
0.21416114
0.2145778
0.21498364
0.2153787
0.21576305
0.21613674
0.21649985
0.21685246
0.21719464
0.21752648
0.21784807
0.21815948
0.21846081
0.21875216
0.2190336
0.21930523
0.21956715
0.21981943
0.22006216
0.22029544
0.22051935
0.22073396
0.22093937
0.22113564
0.22132286
0.22150109
0.2216704
0.22183087
0.22198255
0.2221255
0.22225978
0.22238544
0.22250254
0.22261111
0.22271119
0.22280283
0.22288605
0.22296088
0.22302736
0.22308549
0.2231353
0.2231768
0.22320999
0.22323489
0.22325151
0.22325977
0.21235934
0.2128207
0.21327108
0.21371046
0.21413891
0.21455644
0.21496312
0.21535899
0.21574412
0.21611856
0.21648239
0.21683568
0.21717853
0.217511
0.21783319
0.21814518
0.21844707
0.21873895
0.2190209
0.21929302
0.2195554
0.21980812
0.22005128
0.22028496
0.22050925
0.22072422
0.22092997
0.22112657
0.22131409
0.2214926
0.22166219
0.22182291
0.22197483
0.222118
0.22225249
0.22237835
0.22249562
0.22260435
0.22270458
0.22279635
0.22287969
0.22295463
0.2230212
0.22307941
0.22312929
0.22317084
0.22320407
0.223229
0.22324565
0.22325392
0.2123355
0.2127978
0.21324907
0.21368932
0.21411859
0.21453692
0.21494437
0.21534098
0.21572682
0.21610194
0.21646643
0.21682036
0.2171638
0.21749686
0.2178196
0.21813213
0.21843453
0.21872689
0.21900931
0.21928188
0.21954468
0.21979781
0.22004135
0.2202754
0.22050003
0.22071534
0.2209214
0.2211183
0.2213061
0.22148488
0.22165471
0.22181567
0.2219678
0.22211118
0.22224586
0.22237189
0.22248932
0.2225982
0.22269857
0.22279046
0.22287391
0.22294895
0.22301561
0.22307389
0.22312383
0.22316543
0.2231987
0.22322366
0.22324032
0.2232486
0.21231377
0.21277692
0.21322901
0.21367004
0.21410007
0.21451913
0.21492728
0.21532457
0.21571106
0.21608681
0.2164519
0.2168064
0.2171504
0.21748398
0.21780723
0.21812025
0.21842311
0.21871592
0.21899877
0.21927174
0.21953493
0.21978843
0.22003233
0.22026671
0.22049166
0.22070727
0.22091362
0.22111079
0.22129885
0.22147787
0.22164793
0.2218091
0.22196143
0.222105
0.22223985
0.22236604
0.22248362
0.22259264
0.22269313
0.22278513
0.22286869
0.22294381
0.22301055
0.2230689
0.22311889
0.22316054
0.22319385
0.22321883
0.2232355
0.22324379
0.21229403
0.21275796
0.21321079
0.21365254
0.21408325
0.21450298
0.21491177
0.21530967
0.21569675
0.21607307
0.2164387
0.21679373
0.21713823
0.2174723
0.21779601
0.21810947
0.21841276
0.21870597
0.21898921
0.21926255
0.21952609
0.21977993
0.22002415
0.22025884
0.22048409
0.22069997
0.22090658
0.22110399
0.22129229
0.22147153
0.2216418
0.22180316
0.22195568
0.22209941
0.22223442
0.22236076
0.22247848
0.22258762
0.22268822
0.22278033
0.22286397
0.22293918
0.22300598
0.2230644
0.22311444
0.22315613
0.22318947
0.22321447
0.22323116
0.22323945
0.21227617
0.2127408
0.2131943
0.21363669
0.21406803
0.21448836
0.21489773
0.21529619
0.21568381
0.21606064
0.21642677
0.21678227
0.21712723
0.21746173
0.21778587
0.21809972
0.2184034
0.21869698
0.21898057
0.21925425
0.21951812
0.21977226
0.22001677
0.22025174
0.22047725
0.22069339
0.22090023
0.22109787
0.22128638
0.22146582
0.22163628
0.22179782
0.2219505
0.22209439
0.22222955
0.22235602
0.22247385
0.22258311
0.22268381
0.22277601
0.22285974
0.22293502
0.22300189
0.22306036
0.22311045
0.22315218
0.22318554
0.22321056
0.22322727
0.22323556
0.21226008
0.21272534
0.21317944
0.21362241
0.2140543
0.21447518
0.21488507
0.21528404
0.21567215
0.21604945
0.21641602
0.21677195
0.21711732
0.21745222
0.21777673
0.21809095
0.21839498
0.21868889
0.2189728
0.21924679
0.21951094
0.21976537
0.22001014
0.22024536
0.22047111
0.22068748
0.22089454
0.22109238
0.22128108
0.22146071
0.22163133
0.22179303
0.22194587
0.2220899
0.22222518
0.22235177
0.22246972
0.22257908
0.22267988
0.22277216
0.22285596
0.22293131
0.22299824
0.22305676
0.22310689
0.22314865
0.22318204
0.22320708
0.2232238
0.22323209
0.21224565
0.21271147
0.2131661
0.21360959
0.21404199
0.21446335
0.21487372
0.21527315
0.21566169
0.21603941
0.21640639
0.2167627
0.21710844
0.21744369
0.21776855
0.2180831
0.21838743
0.21868165
0.21896585
0.21924011
0.21950453
0.2197592
0.22000421
0.22023966
0.22046563
0.2206822
0.22088946
0.22108748
0.22127635
0.22145614
0.22162693
0.22178877
0.22194174
0.2220859
0.2222213
0.222348
0.22246605
0.22257549
0.22267638
0.22276874
0.22285261
0.22292802
0.222995
0.22305356
0.22310373
0.22314552
0.22317893