/*--------------------------------*- C++ -*----------------------------------*\
| =========                 |                                                 |
| \\      /  F ield         | OpenFOAM: The Open Source CFD Toolbox           |
|  \\    /   O peration     | Version:  2312                                  |
|   \\  /    A nd           | Website:  www.openfoam.com                      |
|    \\/     M anipulation  |                                                 |
\*---------------------------------------------------------------------------*/
FoamFile
{
    version     2.0;
    format      ascii;
    arch        "LSB;label=32;scalar=64";
    class       surfaceScalarField;
    location    "0.08";
    object      phi;
}
// * * * * * * * * * * * * * * * * * * * * * * * * * * * * * * * * * * * * * //

dimensions      [1 0 -1 0 0 0 0];

oriented        oriented;

internalField   nonuniform List<scalar> 
6398
(
1.175613e-07
-1.3117479e-07
1.1574351e-07
-1.2941258e-07
1.1398705e-07
-1.2764574e-07
1.1228652e-07
-1.2587568e-07
1.1064104e-07
-1.2410362e-07
1.0905127e-07
-1.2233103e-07
1.0751803e-07
-1.2055933e-07
1.0604197e-07
-1.1878981e-07
1.0462357e-07
-1.1702374e-07
1.0326322e-07
-1.1526228e-07
1.0196118e-07
-1.1350662e-07
1.0071769e-07
-1.1175791e-07
9.9532924e-08
-1.1001733e-07
9.8407023e-08
-1.0828609e-07
9.7340101e-08
-1.065654e-07
9.6332245e-08
-1.0485651e-07
9.5383516e-08
-1.0316071e-07
9.4493952e-08
-1.014793e-07
9.366357e-08
-9.9813599e-08
9.2892364e-08
-9.8164963e-08
9.2180306e-08
-9.6534768e-08
9.1527349e-08
-9.4924416e-08
9.0933424e-08
-9.3335335e-08
9.0398451e-08
-9.1768977e-08
8.9922331e-08
-9.0226828e-08
8.9504955e-08
-8.87104e-08
8.9146209e-08
-8.7221241e-08
8.8845973e-08
-8.5760933e-08
8.8604128e-08
-8.4331098e-08
8.8420565e-08
-8.29334e-08
8.8295185e-08
-8.1569548e-08
8.8227913e-08
-8.0241303e-08
8.8218699e-08
-7.8950484e-08
8.8267538e-08
-7.7698973e-08
8.8374471e-08
-7.6488727e-08
8.8539606e-08
-7.5321786e-08
8.8763135e-08
-7.4200291e-08
8.9045349e-08
-7.31265e-08
8.9386671e-08
-7.210281e-08
8.9787681e-08
-7.113179e-08
9.0249166e-08
-7.0216212e-08
9.0772166e-08
-6.9359102e-08
9.1358046e-08
-6.8563801e-08
9.2008565e-08
-6.7834033e-08
9.2726042e-08
-6.7174014e-08
9.3513722e-08
-6.6588683e-08
9.4375793e-08
-6.6084176e-08
9.5313578e-08
-6.5667706e-08
9.6316514e-08
-6.5344021e-08
9.7383924e-08
-6.5114742e-08
-6.4957198e-08
1.1455754e-07
-1.2714647e-07
1.1277779e-07
-1.2544178e-07
1.1105794e-07
-1.237328e-07
1.0939233e-07
-1.2202077e-07
1.0777994e-07
-1.2030695e-07
1.0622155e-07
-1.1859263e-07
1.0471813e-07
-1.1687906e-07
1.0327051e-07
-1.1516747e-07
1.0187933e-07
-1.1345903e-07
1.0054502e-07
-1.1175492e-07
9.9267894e-08
-1.1005627e-07
9.8048158e-08
-1.0836423e-07
9.6885953e-08
-1.0667999e-07
9.5781372e-08
-1.0500474e-07
9.4734478e-08
-1.0333968e-07
9.3745311e-08
-1.0168608e-07
9.2813894e-08
-1.000452e-07
9.1940232e-08
-9.8418349e-08
9.1124311e-08
-9.6806851e-08
9.0366099e-08
-9.521206e-08
8.9665547e-08
-9.3635358e-08
8.9022584e-08
-9.2078152e-08
8.843712e-08
-9.0541878e-08
8.790905e-08
-8.9028003e-08
8.7438249e-08
-8.7538024e-08
8.7024581e-08
-8.6073474e-08
8.6667897e-08
-8.4635919e-08
8.6368039e-08
-8.3226968e-08
8.6124846e-08
-8.1848269e-08
8.5938155e-08
-8.0501516e-08
8.5807807e-08
-7.9188456e-08
8.5733651e-08
-7.7910889e-08
8.571555e-08
-7.6670677e-08
8.5753385e-08
-7.5469753e-08
8.584706e-08
-7.4310125e-08
8.5996508e-08
-7.3193896e-08
8.6201694e-08
-7.2123268e-08
8.646262e-08
-7.1100568e-08
8.6779324e-08
-7.0128262e-08
8.7151879e-08
-6.9208985e-08
8.7580385e-08
-6.8345569e-08
8.8064953e-08
-6.7541074e-08
8.8605662e-08
-6.6798828e-08
8.92025e-08
-6.6122463e-08
8.9855235e-08
-6.5515957e-08
9.0563125e-08
-6.498368e-08
9.1324109e-08
-6.4530341e-08
9.2133553e-08
-6.4160442e-08
9.2985324e-08
-6.3877223e-08
9.3872985e-08
-6.3683719e-08
-6.3587921e-08
1.1191866e-07
-1.2322454e-07
1.1016294e-07
-1.2157689e-07
1.0846616e-07
-1.1992496e-07
1.0682255e-07
-1.1826995e-07
1.0523098e-07
-1.1661309e-07
1.0369224e-07
-1.1495561e-07
1.0220741e-07
-1.1329868e-07
1.0077739e-07
-1.1164349e-07
9.9402872e-08
-1.0999116e-07
9.8084326e-08
-1.0834284e-07
9.6822046e-08
-1.0669966e-07
9.5616209e-08
-1.0506277e-07
9.4466906e-08
-1.0343332e-07
9.337418e-08
-1.0181251e-07
9.2338042e-08
-1.0020155e-07
9.1358486e-08
-9.8601679e-08
9.0435489e-08
-9.7014176e-08
8.9569016e-08
-9.5440335e-08
8.8759019e-08
-9.3881482e-08
8.8005431e-08
-9.233897e-08
8.7308167e-08
-9.0814181e-08
8.6667123e-08
-8.9308527e-08
8.6082173e-08
-8.7823448e-08
8.5553172e-08
-8.6360419e-08
8.5079952e-08
-8.4920946e-08
8.4662327e-08
-8.3506573e-08
8.4300094e-08
-8.2118881e-08
8.3993035e-08
-8.0759492e-08
8.3740915e-08
-7.9430074e-08
8.3543489e-08
-7.813234e-08
8.3400502e-08
-7.6868056e-08
8.3311691e-08
-7.5639045e-08
8.3276783e-08
-7.444719e-08
8.3295498e-08
-7.3294446e-08
8.3367546e-08
-7.2182842e-08
8.3492622e-08
-7.1114495e-08
8.3670397e-08
-7.0091618e-08
8.3900507e-08
-6.9116536e-08
8.4182532e-08
-6.8191698e-08
8.4515971e-08
-6.731969e-08
8.4900194e-08
-6.6503259e-08
8.5334395e-08
-6.5745314e-08
8.5817501e-08
-6.5048943e-08
8.6348065e-08
-6.4417398e-08
8.6924094e-08
-6.3854078e-08
8.7542788e-08
-6.3362461e-08
8.8200176e-08
-6.2945909e-08
8.8890931e-08
-6.2607239e-08
8.9609113e-08
-6.2348611e-08
9.034837e-08
-6.2173558e-08
-6.2090598e-08
1.0954911e-07
-1.1940537e-07
1.0780802e-07
-1.178133e-07
1.0612503e-07
-1.1621692e-07
1.0449431e-07
-1.1461741e-07
1.0291478e-07
-1.1301593e-07
1.0138724e-07
-1.1141366e-07
9.9912815e-08
-1.0981173e-07
9.8492456e-08
-1.0821128e-07
9.7126857e-08
-1.0661342e-07
9.5816479e-08
-1.0501926e-07
9.4561592e-08
-1.0342992e-07
9.3362333e-08
-1.0184653e-07
9.2218749e-08
-1.0027025e-07
9.1130833e-08
-9.8702266e-08
9.0098547e-08
-9.7143778e-08
8.9121837e-08
-9.5596025e-08
8.8200637e-08
-9.4060271e-08
8.7334869e-08
-9.2537808e-08
8.6524444e-08
-9.1029957e-08
8.5769254e-08
-8.9538068e-08
8.5069174e-08
-8.8063522e-08
8.4424053e-08
-8.6607727e-08
8.3833722e-08
-8.5172127e-08
8.3297981e-08
-8.3758197e-08
8.281661e-08
-8.2367448e-08
8.2389359e-08
-8.1001428e-08
8.2015958e-08
-7.9661724e-08
8.1696109e-08
-7.8349964e-08
8.142949e-08
-7.7067821e-08
8.1215756e-08
-7.5817015e-08
8.1054538e-08
-7.4599317e-08
8.0945438e-08
-7.3416553e-08
8.0888033e-08
-7.2270607e-08
8.0881862e-08
-7.1163427e-08
8.0926426e-08
-7.0097033e-08
8.1021171e-08
-6.9073519e-08
8.1165475e-08
-6.8095063e-08
8.1358626e-08
-6.7163935e-08
8.1599788e-08
-6.6282502e-08
8.1887969e-08
-6.5453235e-08
8.2221964e-08
-6.4678712e-08
8.2600302e-08
-6.3961613e-08
8.3021169e-08
-6.3304708e-08
8.3482326e-08
-6.2710826e-08
8.3981019e-08
-6.2182814e-08
8.4513889e-08
-6.172345e-08
8.5076957e-08
-6.1335281e-08
8.5665821e-08
-6.102034e-08
8.6276157e-08
-6.0780302e-08
8.6902802e-08
-6.0618593e-08
-6.0542165e-08
1.0739069e-07
-1.1568623e-07
1.0565688e-07
-1.1414811e-07
1.0398046e-07
-1.1260565e-07
1.0235562e-07
-1.1105996e-07
1.0078131e-07
-1.095122e-07
9.9258385e-08
-1.0796347e-07
9.7787973e-08
-1.0641488e-07
9.6371023e-08
-1.0486751e-07
9.5008222e-08
-1.0332246e-07
9.3700006e-08
-1.0178081e-07
9.2446613e-08
-1.0024367e-07
9.1248141e-08
-9.8712171e-08
9.010459e-08
-9.7187444e-08
8.9015908e-08
-9.5670667e-08
8.798201e-08
-9.4163035e-08
8.7002798e-08
-9.2665777e-08
8.6078161e-08
-9.1180145e-08
8.5207979e-08
-8.9707425e-08
8.4392116e-08
-8.8248929e-08
8.3630421e-08
-8.6806001e-08
8.292272e-08
-8.5380014e-08
8.2268817e-08
-8.3972374e-08
8.1668486e-08
-8.2584519e-08
8.1121471e-08
-8.1217922e-08
8.0627489e-08
-7.9874091e-08
8.0186222e-08
-7.8554572e-08
7.9797321e-08
-7.7260949e-08
7.9460405e-08
-7.5994847e-08
7.9175056e-08
-7.4757936e-08
7.8940825e-08
-7.3551928e-08
7.8757221e-08
-7.2378585e-08
7.8623714e-08
-7.123972e-08
7.8539725e-08
-7.0137199e-08
7.8504622e-08
-6.9072943e-08
7.8517708e-08
-6.8048935e-08
7.8578203e-08
-6.7067221e-08
7.8685232e-08
-6.6129915e-08
7.8837792e-08
-6.5239197e-08
7.9034724e-08
-6.4397319e-08
7.9274673e-08
-6.3606605e-08
7.9556046e-08
-6.286944e-08
7.9876962e-08
-6.218826e-08
8.0235207e-08
-6.1565532e-08
8.0628197e-08
-6.1003721e-08
8.1052949e-08
-6.0505239e-08
8.1506107e-08
-6.0072387e-08
8.1984037e-08
-5.9707228e-08
8.2483098e-08
-5.9411397e-08
8.3e-08
-5.9186302e-08
8.3530491e-08
-5.9035027e-08
-5.8963754e-08
1.0539551e-07
-1.1206409e-07
1.0366339e-07
-1.1057826e-07
1.0198807e-07
-1.0908806e-07
1.0036378e-07
-1.0759455e-07
9.8789542e-08
-1.0609884e-07
9.7266213e-08
-1.04602e-07
9.5794917e-08
-1.0310509e-07
9.4376589e-08
-1.0160917e-07
9.3011889e-08
-1.001153e-07
9.1701225e-08
-9.8624562e-08
9.0444798e-08
-9.713803e-08
8.9242665e-08
-9.5656815e-08
8.8094784e-08
-9.418205e-08
8.7001059e-08
-9.271489e-08
8.5961364e-08
-9.1256523e-08
8.4975556e-08
-8.9808161e-08
8.4043481e-08
-8.8371047e-08
8.3164975e-08
-8.6946453e-08
8.2339858e-08
-8.5535683e-08
8.1567932e-08
-8.4140068e-08
8.0848975e-08
-8.2760975e-08
8.0182737e-08
-8.1399798e-08
7.9568937e-08
-8.0057968e-08
7.900726e-08
-7.8736951e-08
7.8497356e-08
-7.7438245e-08
7.8038836e-08
-7.6163387e-08
7.7631275e-08
-7.4913953e-08
7.7274204e-08
-7.3691555e-08
7.6967115e-08
-7.249785e-08
7.6709451e-08
-7.1334534e-08
7.650061e-08
-7.0203349e-08
7.6339935e-08
-6.9106079e-08
7.6226708e-08
-6.8044559e-08
7.6160142e-08
-6.7020668e-08
7.613937e-08
-6.6036337e-08
7.6163428e-08
-6.5093545e-08
7.6231237e-08
-6.4194323e-08
7.6341574e-08
-6.334075e-08
7.649305e-08
-6.2534951e-08
7.6684069e-08
-6.1779093e-08
7.6912798e-08
-6.1075375e-08
7.7177135e-08
-6.0426012e-08
7.7474681e-08
-5.9833211e-08
7.7802737e-08
-5.9299141e-08
7.8158318e-08
-5.8825898e-08
7.8538215e-08
-5.8415451e-08
7.8939131e-08
-5.8069555e-08
7.9357933e-08
-5.7789603e-08
7.9791963e-08
-5.7576799e-08
8.0237712e-08
-5.7433904e-08
-5.7366615e-08
1.035232e-07
-1.0853589e-07
1.017887e-07
-1.0710075e-07
1.0011048e-07
-1.0566118e-07
9.8482862e-08
-1.0421823e-07
9.6904911e-08
-1.0277296e-07
9.5377493e-08
-1.0132639e-07
9.3901713e-08
-9.9879567e-08
9.2478479e-08
-9.8433505e-08
9.110842e-08
-9.6989246e-08
8.9791909e-08
-9.5547837e-08
8.8529109e-08
-9.4110346e-08
8.7320038e-08
-9.2677862e-08
8.6164615e-08
-9.12515e-08
8.5062705e-08
-8.9832403e-08
8.4014141e-08
-8.8421738e-08
8.3018738e-08
-8.7020706e-08
8.2076304e-08
-8.5630535e-08
8.1186629e-08
-8.4252483e-08
8.034949e-08
-8.2887838e-08
7.9564643e-08
-8.1537922e-08
7.8831818e-08
-8.0204085e-08
7.815071e-08
-7.8887711e-08
7.7520986e-08
-7.759022e-08
7.6942268e-08
-7.6313062e-08
7.6414144e-08
-7.5057724e-08
7.5936156e-08
-7.3825729e-08
7.5507802e-08
-7.2618635e-08
7.5128535e-08
-7.1438039e-08
7.4797756e-08
-7.0285574e-08
7.4514817e-08
-6.9162914e-08
7.4279011e-08
-6.8071769e-08
7.4089568e-08
-6.701389e-08
7.3945653e-08
-6.5991068e-08
7.3846349e-08
-6.5005131e-08
7.3790652e-08
-6.4057947e-08
7.3777454e-08
-6.3151423e-08
7.3805522e-08
-6.2287498e-08
7.3873481e-08
-6.1468147e-08
7.3979785e-08
-6.0695368e-08
7.4122691e-08
-5.9971183e-08
7.4300235e-08
-5.9297619e-08
7.4510208e-08
-5.8676699e-08
7.4750148e-08
-5.8110419e-08
7.5017354e-08
-5.7600718e-08
7.5308917e-08
-5.7149452e-08
7.5621804e-08
-5.6758358e-08
7.5952995e-08
-5.6428983e-08
7.6299736e-08
-5.6162552e-08
7.6659842e-08
-5.5960117e-08
7.7030444e-08
-5.5824182e-08
-5.5760109e-08
1.0174035e-07
-1.0509873e-07
1.0000067e-07
-1.037127e-07
9.8316789e-08
-1.0232219e-07
9.6683146e-08
-1.0092822e-07
9.5098862e-08
-9.9531819e-08
9.3564799e-08
-9.8133971e-08
9.2082033e-08
-9.6735675e-08
9.0651439e-08
-9.5337929e-08
8.9273613e-08
-9.3941741e-08
8.7948887e-08
-9.2548139e-08
8.6677392e-08
-9.1158167e-08
8.5459107e-08
-8.9772895e-08
8.4293916e-08
-8.8393419e-08
8.3181646e-08
-8.7020863e-08
8.2122094e-08
-8.5656379e-08
8.1115039e-08
-8.4301148e-08
8.0160246e-08
-8.2956382e-08
7.9257468e-08
-8.1623323e-08
7.840644e-08
-8.0303244e-08
7.7606872e-08
-7.8997449e-08
7.6858445e-08
-7.7707275e-08
7.6160808e-08
-7.6434089e-08
7.551357e-08
-7.5179295e-08
7.4916301e-08
-7.3944328e-08
7.4368526e-08
-7.2730656e-08
7.3869722e-08
-7.1539784e-08
7.341932e-08
-7.0373251e-08
7.3016698e-08
-6.9232628e-08
7.2661179e-08
-6.8119523e-08
7.2352031e-08
-6.7035579e-08
7.2088458e-08
-6.5982472e-08
7.1869598e-08
-6.496191e-08
7.1694515e-08
-6.3975636e-08
7.1562191e-08
-6.3025423e-08
7.1471514e-08
-6.2113072e-08
7.1421269e-08
-6.1240413e-08
7.1410116e-08
-6.0409296e-08
7.1436576e-08
-5.9621592e-08
7.1499008e-08
-5.8879184e-08
7.1595587e-08
-5.8183957e-08
7.1724283e-08
-5.7537794e-08
7.1882854e-08
-5.6942553e-08
7.2068839e-08
-5.6400056e-08
7.2279582e-08
-5.5912065e-08
7.251228e-08
-5.5480253e-08
7.2764063e-08
-5.5106187e-08
7.303214e-08
-5.4791265e-08
7.3314052e-08
-5.4536594e-08
7.3608e-08
-5.4343121e-08
7.3911648e-08
-5.4213145e-08
-5.4151784e-08
1.0001974e-07
-1.0174982e-07
9.8273107e-08
-1.0041135e-07
9.6581837e-08
-9.9068375e-08
9.494048e-08
-9.7721871e-08
9.3348215e-08
-9.6372818e-08
9.1805895e-08
-9.5022178e-08
9.0314565e-08
-9.367091e-08
8.8875064e-08
-9.2319984e-08
8.7487948e-08
-9.0970381e-08
8.6153517e-08
-8.9623101e-08
8.4871864e-08
-8.8279169e-08
8.3642936e-08
-8.6939631e-08
8.2466584e-08
-8.5605564e-08
8.1342601e-08
-8.4278072e-08
8.0270752e-08
-8.2958286e-08
7.925078e-08
-8.1647369e-08
7.8282415e-08
-8.0346514e-08
7.7365374e-08
-7.9056946e-08
7.6499349e-08
-7.7779918e-08
7.5684011e-08
-7.6516717e-08
7.4918997e-08
-7.5268662e-08
7.4203907e-08
-7.4037103e-08
7.3538304e-08
-7.2823423e-08
7.2921702e-08
-7.162904e-08
7.2353573e-08
-7.0455401e-08
7.1833336e-08
-6.9303988e-08
7.1360359e-08
-6.8176315e-08
7.0933956e-08
-6.7073929e-08
7.0553382e-08
-6.5998406e-08
7.0217834e-08
-6.4951354e-08
6.9926442e-08
-6.3934411e-08
6.9678267e-08
-6.2949242e-08
6.9472294e-08
-6.1997536e-08
6.9307427e-08
-6.108101e-08
6.9182475e-08
-6.0201399e-08
6.9096145e-08
-5.9360455e-08
6.9047025e-08
-5.8559945e-08
6.9033573e-08
-5.7801642e-08
6.9054093e-08
-5.7087323e-08
6.910672e-08
-5.6418755e-08
6.9189407e-08
-5.5797693e-08
6.9299915e-08
-5.5225859e-08
6.9435818e-08
-5.4704934e-08
6.959453e-08
-5.4236535e-08
6.9773351e-08
-5.3822198e-08
6.9969558e-08
-5.3463357e-08
7.018055e-08
-5.3161301e-08
7.0404103e-08
-5.2917058e-08
7.0638723e-08
-5.2731497e-08
7.0882522e-08
-5.2606746e-08
-5.254774e-08
9.8339528e-08
-9.8486466e-08
9.6585059e-08
-9.7194081e-08
9.4885504e-08
-9.5897152e-08
9.3235564e-08
-9.4596631e-08
9.1634473e-08
-9.3293461e-08
9.0083072e-08
-9.1988565e-08
8.8582372e-08
-9.068287e-08
8.7133172e-08
-8.9377314e-08
8.5735992e-08
-8.8072852e-08
8.4391095e-08
-8.6770457e-08
8.3098544e-08
-8.5471128e-08
8.1858253e-08
-8.4175892e-08
8.0670045e-08
-8.2885801e-08
7.9533684e-08
-8.1601937e-08
7.8448904e-08
-8.0325413e-08
7.7415418e-08
-7.905737e-08
7.6432925e-08
-7.7798981e-08
7.5501105e-08
-7.655145e-08
7.4619617e-08
-7.5316011e-08
7.3788091e-08
-7.4093932e-08
7.3006125e-08
-7.2886511e-08
7.2273277e-08
-7.1695079e-08
7.1589064e-08
-7.0520998e-08
7.0952955e-08
-6.9365663e-08
7.0364371e-08
-6.8230499e-08
6.982268e-08
-6.7116964e-08
6.9327198e-08
-6.6026546e-08
6.8877182e-08
-6.496076e-08
6.8471831e-08
-6.3921151e-08
6.8110282e-08
-6.2909291e-08
6.7791606e-08
-6.1926777e-08
6.7514802e-08
-6.0975227e-08
6.7278796e-08
-6.0056282e-08
6.7082431e-08
-5.9171598e-08
6.6924461e-08
-5.8322847e-08
6.680354e-08
-5.751171e-08
6.6718212e-08
-5.6739872e-08
6.6666897e-08
-5.600902e-08
6.6647874e-08
-5.5320833e-08
6.665927e-08
-5.4676976e-08
6.6699045e-08
-5.4079094e-08
6.6764986e-08
-5.3528794e-08
6.6854718e-08
-5.302764e-08
6.696573e-08
-5.2577133e-08
6.7095425e-08
-5.2178697e-08
6.7241204e-08
-5.1833667e-08
6.7400622e-08
-5.1543248e-08
6.757164e-08
-5.1308409e-08
6.7753011e-08
-5.1129962e-08
6.7943218e-08
-5.1009892e-08
-5.095297e-08
9.668255e-08
-9.5306069e-08
9.4920043e-08
-9.4058324e-08
9.3212002e-08
-9.2806007e-08
9.1553285e-08
-9.1550041e-08
8.9943185e-08
-9.029133e-08
8.8382526e-08
-8.9030763e-08
8.6872284e-08
-8.7769233e-08
8.5413219e-08
-8.6507645e-08
8.4005812e-08
-8.5246926e-08
8.2650295e-08
-8.3988022e-08
8.13467e-08
-8.2731908e-08
8.0094914e-08
-8.1479585e-08
7.8894734e-08
-8.0232084e-08
7.7745898e-08
-7.8990464e-08
7.6648114e-08
-7.7755814e-08
7.5601069e-08
-7.6529255e-08
7.4604433e-08
-7.5311939e-08
7.3657854e-08
-7.4105047e-08
7.276096e-08
-7.2909793e-08
7.1913346e-08
-7.1727424e-08
7.1114576e-08
-7.0559216e-08
7.0364169e-08
-6.9406478e-08
6.9661601e-08
-6.8270551e-08
6.9006303e-08
-6.7152806e-08
6.839765e-08
-6.6054643e-08
6.783497e-08
-6.4977495e-08
6.7317529e-08
-6.3922819e-08
6.6844541e-08
-6.2892102e-08
6.6415158e-08
-6.1886855e-08
6.6028466e-08
-6.0908612e-08
6.5683491e-08
-5.9958929e-08
6.5379186e-08
-5.9039379e-08
6.511443e-08
-5.8151552e-08
6.4888024e-08
-5.7297049e-08
6.4698683e-08
-5.647748e-08
6.454503e-08
-5.5694459e-08
6.4425581e-08
-5.4949598e-08
6.4338741e-08
-5.4244504e-08
6.4282783e-08
-5.3580771e-08
6.4255843e-08
-5.2959973e-08
6.4255904e-08
-5.2383659e-08
6.4280794e-08
-5.1853341e-08
6.4328196e-08
-5.1370483e-08
6.4395672e-08
-5.0936491e-08
6.4480718e-08
-5.0552699e-08
6.4580845e-08
-5.0220358e-08
6.4693731e-08
-4.9940609e-08
6.4817485e-08
-4.971438e-08
6.4951055e-08
-4.9542438e-08
6.5093237e-08
-4.9426632e-08
-4.937159e-08
9.5035615e-08
-9.2206088e-08
9.3265438e-08
-9.100159e-08
9.1549263e-08
-8.9792499e-08
8.9882122e-08
-8.8579706e-08
8.8263363e-08
-8.7364082e-08
8.6693796e-08
-8.6146476e-08
8.5174357e-08
-8.4927748e-08
8.3705767e-08
-8.3708773e-08
8.2288472e-08
-8.2490446e-08
8.0922673e-08
-8.1273688e-08
7.9608373e-08
-8.0059448e-08
7.8345437e-08
-7.8848701e-08
7.7133638e-08
-7.7642453e-08
7.5972694e-08
-7.6441741e-08
7.4862289e-08
-7.5247631e-08
7.3802086e-08
-7.4061222e-08
7.2791731e-08
-7.2883641e-08
7.1830847e-08
-7.1716048e-08
7.0919031e-08
-7.0559637e-08
7.0055851e-08
-6.9415629e-08
6.9240836e-08
-6.828528e-08
6.8473475e-08
-6.7169876e-08
6.775321e-08
-6.6070734e-08
6.7079433e-08
-6.49892e-08
6.6451488e-08
-6.392665e-08
6.5868661e-08
-6.2884487e-08
6.5330184e-08
-6.1864142e-08
6.483523e-08
-6.0867069e-08
6.4382915e-08
-5.9894744e-08
6.3972288e-08
-5.8948667e-08
6.3602336e-08
-5.803035e-08
6.3271979e-08
-5.7141324e-08
6.2980063e-08
-5.628313e-08
6.272536e-08
-5.5457316e-08
6.250656e-08
-5.4665434e-08
6.2322267e-08
-5.3909037e-08
6.2170987e-08
-5.3189668e-08
6.2051121e-08
-5.2508864e-08
6.1960952e-08
-5.1868142e-08
6.1898634e-08
-5.1268997e-08
6.1862185e-08
-5.0712895e-08
6.1849477e-08
-5.0201264e-08
6.1858254e-08
-4.9735487e-08
6.188615e-08
-4.9316886e-08
6.1930743e-08
-4.894672e-08
6.1989636e-08
-4.8626173e-08
6.206061e-08
-4.835633e-08
6.2141885e-08
-4.8138087e-08
6.2232564e-08
-4.7972175e-08
6.2331714e-08
-4.7860315e-08
-4.780699e-08
9.3388918e-08
-8.9184044e-08
9.1611886e-08
-8.802145e-08
8.9888372e-08
-8.6854247e-08
8.8213593e-08
-8.5683297e-08
8.6586954e-08
-8.4509433e-08
8.5009245e-08
-8.333347e-08
8.3481366e-08
-8.2156233e-08
8.2003997e-08
-8.0978563e-08
8.0577552e-08
-7.9801328e-08
7.9202202e-08
-7.8625421e-08
7.7877925e-08
-7.7451762e-08
7.6604565e-08
-7.6281303e-08
7.5381877e-08
-7.5115026e-08
7.420956e-08
-7.3953941e-08
7.308728e-08
-7.2799092e-08
7.2014679e-08
-7.1651553e-08
7.0991383e-08
-7.0512429e-08
7.001699e-08
-6.9382859e-08
6.9091077e-08
-6.826401e-08
6.8213183e-08
-6.7157082e-08
6.7382811e-08
-6.6063308e-08
6.6599422e-08
-6.498395e-08
6.5862428e-08
-6.3920299e-08
6.5171193e-08
-6.2873679e-08
6.4525029e-08
-6.1845438e-08
6.3923193e-08
-6.0836952e-08
6.3364885e-08
-5.9849622e-08
6.284925e-08
-5.888487e-08
6.237537e-08
-5.7944141e-08
6.1942269e-08
-5.7028894e-08
6.1548906e-08
-5.6140606e-08
6.1194173e-08
-5.5280763e-08
6.0876898e-08
-5.4450861e-08
6.0595831e-08
-5.3652398e-08
6.034965e-08
-5.2886873e-08
6.013695e-08
-5.215578e-08
5.9956236e-08
-5.1460603e-08
5.9805916e-08
-5.0802812e-08
5.9684291e-08
-5.0183858e-08
5.9589541e-08
-4.9605166e-08
5.9519722e-08
-4.9068129e-08
5.9472756e-08
-4.8574102e-08
5.9446445e-08
-4.8124394e-08
5.943849e-08
-4.772026e-08
5.9446544e-08
-4.7362892e-08
5.9468289e-08
-4.7053415e-08
5.9501583e-08
-4.6792867e-08
5.9544736e-08
-4.6582117e-08
5.9596972e-08
-4.6421865e-08
5.9657589e-08
-4.6313701e-08
-4.6261967e-08
9.1735501e-08
-8.6237521e-08
8.9952778e-08
-8.5115538e-08
8.8223064e-08
-8.3988937e-08
8.6541772e-08
-8.2858548e-08
8.4908361e-08
-8.172517e-08
8.3323605e-08
-8.0589579e-08
8.1788363e-08
-7.9452569e-08
8.0303279e-08
-7.8314948e-08
7.8868733e-08
-7.7177555e-08
7.748487e-08
-7.6041253e-08
7.6151647e-08
-7.4906937e-08
7.486889e-08
-7.3775532e-08
7.3636336e-08
-7.2647995e-08
7.2453671e-08
-7.1525311e-08
7.1320545e-08
-7.04085e-08
7.0236585e-08
-6.9298612e-08
6.9201398e-08
-6.8196729e-08
6.8214565e-08
-6.7103964e-08
6.7275639e-08
-6.6021462e-08
6.6384141e-08
-6.4950401e-08
6.5539551e-08
-6.3891987e-08
6.4741305e-08
-6.2847459e-08
6.3988792e-08
-6.1818086e-08
6.3281351e-08
-6.0805162e-08
6.261827e-08
-5.9810011e-08
6.1998779e-08
-5.8833982e-08
6.1422057e-08
-5.7878445e-08
6.0887223e-08
-5.6944792e-08
6.0393338e-08
-5.6034434e-08
5.9939403e-08
-5.5148797e-08
5.9524358e-08
-5.4289317e-08
5.9147079e-08
-5.3457442e-08
5.8806377e-08
-5.2654623e-08
5.8500995e-08
-5.1882311e-08
5.8229603e-08
-5.1141957e-08
5.7990796e-08
-5.0435001e-08
5.7783085e-08
-4.9762873e-08
5.7604892e-08
-4.9126984e-08
5.745454e-08
-4.8528723e-08
5.7330242e-08
-4.7969454e-08
5.7230092e-08
-4.7450505e-08
5.7152063e-08
-4.6973167e-08
5.7094012e-08
-4.6538686e-08
5.7053706e-08
-4.6148253e-08
5.7028862e-08
-4.5803003e-08
5.7017227e-08
-4.5504006e-08
5.7016726e-08
-4.525226e-08
5.7025732e-08
-4.5048609e-08
5.7043563e-08
-4.4893722e-08
5.7069725e-08
-4.4789061e-08
-4.4738815e-08
9.0070772e-08
-8.3364167e-08
8.8283783e-08
-8.2281555e-08
8.6549271e-08
-8.1194319e-08
8.4862846e-08
-8.0103261e-08
8.3224027e-08
-7.9009142e-08
8.1633564e-08
-7.7912705e-08
8.0092281e-08
-7.6814709e-08
7.8600786e-08
-7.5715931e-08
7.7159427e-08
-7.461718e-08
7.5768323e-08
-7.351929e-08
7.4427415e-08
-7.2423131e-08
7.3136512e-08
-7.1329599e-08
7.1895341e-08
-7.0239626e-08
7.0703572e-08
-6.9154174e-08
6.9560846e-08
-6.8074236e-08
6.8466777e-08
-6.7000838e-08
6.7420956e-08
-6.5935038e-08
6.642295e-08
-6.4877925e-08
6.5472297e-08
-6.3830621e-08
6.4568499e-08
-6.2794278e-08
6.3711016e-08
-6.177008e-08
6.2899266e-08
-6.0759241e-08
6.2132619e-08
-5.9763003e-08
6.1410395e-08
-5.8782638e-08
6.0731859e-08
-5.7819441e-08
6.0096226e-08
-5.6874733e-08
5.9502653e-08
-5.5949858e-08
5.8950242e-08
-5.5046175e-08
5.8438038e-08
-5.4165065e-08
5.7965027e-08
-5.3307917e-08
5.7530135e-08
-5.2476134e-08
5.7132227e-08
-5.1671124e-08
5.6770108e-08
-5.0894296e-08
5.6442514e-08
-5.014706e-08
5.6148117e-08
-4.943082e-08
5.5885517e-08
-4.8746967e-08
5.5653237e-08
-4.8096882e-08
5.5449716e-08
-4.7481921e-08
5.5273302e-08
-4.6903421e-08
5.5122241e-08
-4.6362687e-08
5.4994671e-08
-4.586099e-08
5.4888611e-08
-4.5399565e-08
5.4801976e-08
-4.4979599e-08
5.4732588e-08
-4.4602228e-08
5.4678225e-08
-4.4268531e-08
5.4636691e-08
-4.3979532e-08
5.4605958e-08
-4.3736186e-08
5.4584449e-08
-4.3539316e-08
5.4571555e-08
-4.338956e-08
5.4566963e-08
-4.3288247e-08
-4.3239407e-08
8.8392081e-08
-8.0561704e-08
8.6602445e-08
-7.9517273e-08
8.4864725e-08
-7.8468216e-08
8.3174737e-08
-7.7415308e-08
8.1532054e-08
-7.6359274e-08
7.9937408e-08
-7.5300822e-08
7.8391586e-08
-7.4240676e-08
7.6895158e-08
-7.3179586e-08
7.5448445e-08
-7.2118328e-08
7.4051546e-08
-7.105771e-08
7.2704382e-08
-6.9998572e-08
7.1406752e-08
-6.8941786e-08
7.0158373e-08
-6.7888258e-08
6.8958906e-08
-6.6838922e-08
6.7807982e-08
-6.5794749e-08
6.6705206e-08
-6.475674e-08
6.565016e-08
-6.3725926e-08
6.4642397e-08
-6.2703374e-08
6.3681443e-08
-6.1690181e-08
6.2766784e-08
-6.0687476e-08
6.1897868e-08
-5.9696417e-08
6.1074096e-08
-5.8718193e-08
6.0294824e-08
-5.7754024e-08
5.9559354e-08
-5.6805153e-08
5.8866939e-08
-5.5872852e-08
5.8216777e-08
-5.4958413e-08
5.7608013e-08
-5.4063152e-08
5.7039735e-08
-5.3188399e-08
5.6510976e-08
-5.2335503e-08
5.6020713e-08
-5.1505821e-08
5.5567864e-08
-5.0700722e-08
5.5151289e-08
-4.9921576e-08
5.4769787e-08
-4.9169755e-08
5.4422099e-08
-4.8446629e-08
5.4106899e-08
-4.7753557e-08
5.3822796e-08
-4.7091889e-08
5.3568327e-08
-4.6462957e-08
5.3341954e-08
-4.586807e-08
5.3142051e-08
-4.5308515e-08
5.2966899e-08
-4.4785546e-08
5.2814675e-08
-4.4300383e-08
5.268345e-08
-4.3854207e-08
5.2571187e-08
-4.3448152e-08
5.2475765e-08
-4.3083303e-08
5.2395015e-08
-4.2760689e-08
5.2326788e-08
-4.2481287e-08
5.2269097e-08
-4.2246012e-08
5.2220397e-08
-4.2055663e-08
5.2180134e-08
-4.1910849e-08
5.2148161e-08
-4.1812762e-08
-4.1765258e-08
8.6698362e-08
-7.7827932e-08
8.4907827e-08
-7.6820543e-08
8.3168622e-08
-7.580853e-08
8.147677e-08
-7.479264e-08
7.9831897e-08
-7.3773563e-08
7.8234715e-08
-7.2751975e-08
7.6685975e-08
-7.1728567e-08
7.5186215e-08
-7.0704058e-08
7.3735729e-08
-6.9679195e-08
7.2334595e-08
-6.8654758e-08
7.0982721e-08
-6.763156e-08
6.9679898e-08
-6.6610446e-08
6.8425832e-08
-6.5592295e-08
6.7220182e-08
-6.4578017e-08
6.6062571e-08
-6.3568558e-08
6.4952598e-08
-6.2564891e-08
6.3889835e-08
-6.1568027e-08
6.287383e-08
-6.0579005e-08
6.1904095e-08
-5.9598899e-08
6.0980108e-08
-5.8628812e-08
6.0101305e-08
-5.7669881e-08
5.9267076e-08
-5.6723269e-08
5.8476764e-08
-5.579017e-08
5.7729662e-08
-5.4871803e-08
5.7025008e-08
-5.3969414e-08
5.6361993e-08
-5.3084268e-08
5.5739751e-08
-5.2217652e-08
5.5157361e-08
-5.137087e-08
5.4613849e-08
-5.0545239e-08
5.4108187e-08
-4.9742087e-08
5.3639288e-08
-4.8962747e-08
5.320601e-08
-4.8208557e-08
5.2807156e-08
-4.7480854e-08
5.2441468e-08
-4.6780966e-08
5.2107629e-08
-4.6110217e-08
5.180426e-08
-4.5469914e-08
5.1529915e-08
-4.4861346e-08
5.1283077e-08
-4.4285779e-08
5.1062149e-08
-4.3744454e-08
5.0865446e-08
-4.3238578e-08
5.0691186e-08
-4.2769325e-08
5.0537486e-08
-4.2337825e-08
5.040236e-08
-4.1945164e-08
5.0283737e-08
-4.1592379e-08
5.0179497e-08
-4.1280452e-08
5.0087534e-08
-4.101031e-08
5.0005891e-08
-4.0782832e-08
4.9933044e-08
-4.059879e-08
4.9868478e-08
-4.0458764e-08
4.9812199e-08
-4.0363804e-08
-4.031758e-08
8.4989802e-08
-7.5160734e-08
8.3200201e-08
-7.4189296e-08
8.1461315e-08
-7.321324e-08
7.9769378e-08
-7.2233283e-08
7.8124066e-08
-7.1250085e-08
7.6526073e-08
-7.0264288e-08
7.4976115e-08
-6.9276552e-08
7.3474699e-08
-6.8287566e-08
7.2022093e-08
-6.7298049e-08
7.0618359e-08
-6.6308753e-08
6.9263395e-08
-6.5320462e-08
6.7956982e-08
-6.4333998e-08
6.6698823e-08
-6.335021e-08
6.5488573e-08
-6.2369985e-08
6.4325852e-08
-6.1394241e-08
6.3210253e-08
-6.0423929e-08
6.2141347e-08
-5.9460033e-08
6.1118671e-08
-5.8503569e-08
6.0141734e-08
-5.7555585e-08
5.9210005e-08
-5.6617162e-08
5.8322912e-08
-5.568941e-08
5.7479836e-08
-5.4773469e-08
5.6680112e-08
-5.3870508e-08
5.5923025e-08
-5.2981722e-08
5.5207807e-08
-5.2108329e-08
5.453364e-08
-5.1251571e-08
5.3899651e-08
-5.0412707e-08
5.3304917e-08
-4.9593012e-08
5.2748459e-08
-4.8793775e-08
5.2229245e-08
-4.8016294e-08
5.174619e-08
-4.7261871e-08
5.1298154e-08
-4.6531812e-08
5.0883941e-08
-4.5827418e-08
5.0502302e-08
-4.5149985e-08
5.0151929e-08
-4.4500798e-08
4.9831458e-08
-4.3881126e-08
4.953946e-08
-4.3292219e-08
4.927444e-08
-4.2735303e-08
4.9034831e-08
-4.2211576e-08
4.8818982e-08
-4.1722204e-08
4.8625149e-08
-4.1268314e-08
4.8451495e-08
-4.0850992e-08
4.8296082e-08
-4.047128e-08
4.8156887e-08
-4.0130166e-08
4.8031836e-08
-3.9828586e-08
4.7918861e-08
-3.9567422e-08
4.7816026e-08
-3.934751e-08
4.772182e-08
-3.9169597e-08
4.7635755e-08
-3.9034231e-08
4.7557979e-08
-3.8942317e-08
-3.8897324e-08
8.3267577e-08
-7.2558078e-08
8.1480781e-08
-7.1621547e-08
7.9744061e-08
-7.0680407e-08
7.8053858e-08
-6.9735347e-08
7.6409899e-08
-6.8786994e-08
7.4812859e-08
-6.783596e-08
7.326342e-08
-6.6882877e-08
7.176206e-08
-6.5928404e-08
7.0309025e-08
-6.4973231e-08
6.8904363e-08
-6.4018082e-08
6.7547962e-08
-6.3063718e-08
6.6239599e-08
-6.2110929e-08
6.4978974e-08
-6.1160541e-08
6.3765741e-08
-6.0213414e-08
6.2599519e-08
-5.9270442e-08
6.1479899e-08
-5.8332549e-08
6.0406448e-08
-5.7400695e-08
5.9378703e-08
-5.6475872e-08
5.8396166e-08
-5.5559103e-08
5.7458302e-08
-5.4651444e-08
5.6564533e-08
-5.3753982e-08
5.5714236e-08
-5.2867833e-08
5.490674e-08
-5.1994141e-08
5.4141325e-08
-5.1134076e-08
5.3417218e-08
-5.0288831e-08
5.2733597e-08
-4.9459622e-08
5.2089587e-08
-4.8647682e-08
5.1484262e-08
-4.785426e-08
5.0916643e-08
-4.7080616e-08
5.0385698e-08
-4.632802e-08
4.9890345e-08
-4.5597744e-08
4.9429447e-08
-4.4891063e-08
4.9001815e-08
-4.4209247e-08
4.8606209e-08
-4.3553557e-08
4.8241333e-08
-4.2925245e-08
4.7905836e-08
-4.2325545e-08
4.7598308e-08
-4.1755669e-08
4.7317279e-08
-4.1216807e-08
4.7061207e-08
-4.0710118e-08
4.6828476e-08
-4.0236727e-08
4.6617381e-08
-3.979772e-08
4.6426127e-08
-3.9394141e-08
4.6252822e-08
-3.9026988e-08
4.6095491e-08
-3.8697204e-08
4.5952103e-08
-3.8405678e-08
4.5820621e-08
-3.8153248e-08
4.5699129e-08
-3.7940707e-08
4.5586118e-08
-3.7768771e-08
4.5481119e-08
-3.7637958e-08
4.5384411e-08
-3.7549026e-08
-3.7505222e-08
8.1533611e-08
-7.0018014e-08
7.97515e-08
-6.9115393e-08
7.8018801e-08
-6.8208172e-08
7.6332159e-08
-6.7297015e-08
7.4691352e-08
-6.6382519e-08
7.3097033e-08
-6.5465266e-08
7.1549857e-08
-6.4545861e-08
7.0050272e-08
-6.3624934e-08
6.8598506e-08
-6.2703149e-08
6.7194594e-08
-6.1781203e-08
6.5838417e-08
-6.0859828e-08
6.4529749e-08
-5.993979e-08
6.3268291e-08
-5.9021888e-08
6.2053697e-08
-5.8106955e-08
6.0885587e-08
-5.7195859e-08
5.9763552e-08
-5.6289501e-08
5.868716e-08
-5.5388816e-08
5.7655945e-08
-5.4494769e-08
5.6669408e-08
-5.3608362e-08
5.5727012e-08
-5.2730624e-08
5.4828176e-08
-5.186262e-08
5.3972274e-08
-5.100544e-08
5.3158633e-08
-5.0160205e-08
5.2386529e-08
-4.932806e-08
5.1655188e-08
-4.8510174e-08
5.0963788e-08
-4.7707736e-08
5.0311452e-08
-4.6921956e-08
4.9697255e-08
-4.6154055e-08
4.912022e-08
-4.5405268e-08
4.8579318e-08
-4.4676835e-08
4.807347e-08
-4.3970001e-08
4.7601546e-08
-4.3286011e-08
4.7162367e-08
-4.2626105e-08
4.6754699e-08
-4.1991514e-08
4.6377261e-08
-4.1383456e-08
4.6028717e-08
-4.0803132e-08
4.5707677e-08
-4.0251722e-08
4.5412692e-08
-3.9730378e-08
4.5142248e-08
-3.9240224e-08
4.489476e-08
-3.8782348e-08
4.4668562e-08
-3.8357797e-08
4.44619e-08
-3.7967575e-08
4.4272927e-08
-3.7612637e-08
4.4099714e-08
-3.7293883e-08
4.3940267e-08
-3.7012157e-08
4.3792584e-08
-3.6768249e-08
4.3654761e-08
-3.6562909e-08
4.3525287e-08
-3.6396822e-08
4.3403698e-08
-3.6270471e-08
4.3290403e-08