/*--------------------------------*- C++ -*----------------------------------*\
| =========                 |                                                 |
| \\      /  F ield         | OpenFOAM: The Open Source CFD Toolbox           |
|  \\    /   O peration     | Version:  2312                                  |
|   \\  /    A nd           | Website:  www.openfoam.com                      |
|    \\/     M anipulation  |                                                 |
\*---------------------------------------------------------------------------*/
FoamFile
{
    version     2.0;
    format      ascii;
    arch        "LSB;label=32;scalar=64";
    class       volScalarField;
    location    "0.08";
    object      Qdot;
}
// * * * * * * * * * * * * * * * * * * * * * * * * * * * * * * * * * * * * * //

dimensions      [1 -1 -3 0 0 0 0];

internalField   nonuniform List<scalar> 
3257
(
0.67658816
0.58497696
0.5061686
0.4383533
0.37998839
0.32973767
0.28645664
0.24916275
0.21701032
0.18927388
0.16533136
0.14464588
0.12676169
0.11128475
0.097876555
0.086254703
0.076164448
0.067397871
0.059771638
0.053130788
0.047338381
0.042283687
0.037864668
0.033996923
0.030607526
0.027635176
0.025023717
0.022726575
0.020702646
0.01892053
0.01734793
0.015959137
0.014733309
0.013647752
0.012690254
0.011843629
0.011093392
0.010431487
0.0098495036
0.0093355381
0.0088879053
0.0084951153
0.0081553965
0.007862229
0.0076129466
0.0074048283
0.0072351343
0.007101689
0.007002147
0.0069368802
0.0069042468
0.68495759
0.5920226
0.51210247
0.44335471
0.38420504
0.33329344
0.28946129
0.25170381
0.21916453
0.19109741
0.16687905
0.14596123
0.1278819
0.11223961
0.098694162
0.086953261
0.076764247
0.067914717
0.060216794
0.05351566
0.047673289
0.042572988
0.038117032
0.034218426
0.030801476
0.027804619
0.025172439
0.022858175
0.020820782
0.019024302
0.017442337
0.016043782
0.014808596
0.013718308
0.012753548
0.011899539
0.011145605
0.010480668
0.009893922
0.0093778606
0.0089253432
0.0085325537
0.0081884833
0.0078944586
0.007644924
0.0074348816
0.0072644029
0.0071313624
0.0070309626
0.0069653641
0.0069325285
0.70102063
0.60553431
0.52347343
0.45293063
0.39227596
0.34010361
0.2952111
0.25656204
0.22327594
0.19458463
0.16983782
0.14847815
0.13002266
0.11406749
0.10025465
0.088291434
0.077912411
0.068901637
0.0610663
0.054250344
0.048308682
0.043126365
0.038597629
0.034636133
0.031169073
0.028128575
0.025457641
0.023109222
0.021044412
0.019224453
0.017620078
0.016205178
0.014954561
0.013848842
0.012873002
0.012008317
0.011246337
0.010572575
0.0099800379
0.0094569648
0.0090016907
0.008602576
0.0082558035
0.0079578737
0.0077055086
0.0074938241
0.0073219541
0.0071854271
0.0070848184
0.0070193003
0.0069859314
0.72431336
0.62511568
0.53994571
0.46679462
0.40395438
0.34995061
0.30352412
0.26358844
0.22921958
0.19961929
0.17410931
0.15210568
0.13311196
0.11670042
0.10250656
0.090214226
0.079563864
0.0703197
0.062289903
0.055307004
0.049224262
0.043919992
0.039288803
0.035242129
0.031697936
0.028591234
0.025866775
0.023472995
0.021365206
0.019510439
0.017877327
0.016433661
0.015160504
0.014035941
0.013042695
0.012165742
0.011389268
0.010704953
0.010102524
0.0095712833
0.0091086238
0.0087034359
0.0083521837
0.008049579
0.0077916737
0.0075772793
0.0074034371
0.0072655917
0.0071639958
0.0070954939
0.0070625294
0.75452918
0.65049407
0.56127518
0.48473866
0.4190591
0.36267831
0.31425794
0.2726538
0.23688388
0.20610878
0.17961175
0.15678009
0.13708691
0.12008666
0.10539767
0.092688948
0.081682457
0.072141632
0.063859469
0.056661393
0.050395904
0.044937217
0.040173926
0.036015189
0.032375142
0.02918602
0.02638997
0.023935281
0.021776185
0.019877122
0.018203662
0.016728097
0.015425922
0.014277097
0.013260252
0.012362731
0.011572671
0.010872924
0.01025995
0.0097184372
0.0092441646
0.0088319967
0.0084719686
0.0081656188
0.0079032829
0.0076849419
0.0075065457
0.0073666542
0.0072626806
0.0071935959
0.0071599764
0.79145306
0.68148251
0.58729966
0.50660847
0.43745328
0.37816436
0.32730893
0.28366716
0.24618739
0.21397906
0.18628031
0.16243615
0.14189687
0.12418385
0.10889163
0.095677264
0.084243829
0.074338949
0.065749831
0.058292004
0.051808045
0.046161071
0.041239699
0.036943952
0.033187209
0.029900793
0.02701916
0.024490502
0.022269584
0.020317524
0.018595385
0.01707935
0.01574277
0.014563211
0.013521319
0.012602043
0.011789572
0.011075987
0.01044573
0.0098924821
0.0094087223
0.0089849416
0.0086182578
0.008304322
0.0080369299
0.0078121116
0.0076308844
0.0074870947
0.0073814298
0.0073110763
0.0072750785
0.83495823
0.7179552
0.61789545
0.53229356
0.45903328
0.39631538
0.34259089
0.29654649
0.25705807
0.22316757
0.19405724
0.16903245
0.14749677
0.12894793
0.1129532
0.099146421
0.087213924
0.076887518
0.067943202
0.060181581
0.053441157
0.047578883
0.042471974
0.038015363
0.034126268
0.030722751
0.027745143
0.025131962
0.02283773
0.020821849
0.019047902
0.017484538
0.016107205
0.014892707
0.013821546
0.012875379
0.012043126
0.011307786
0.010660124
0.010092634
0.0095942274
0.0091608372
0.0087841343
0.0084628063
0.0081890171
0.0079593938
0.0077722955
0.0076255466
0.0075174235
0.0074447728
0.0074091788
0.88495927
0.75981777
0.65297157
0.56170347
0.4837168
0.41705207
0.36002938
0.31122956
0.26943899
0.23362241
0.20289766
0.17651957
0.15385072
0.13435005
0.11755431
0.1030718
0.090571018
0.079767178
0.070417017
0.062313099
0.055282872
0.049173238
0.043856165
0.039223407
0.035180428
0.031648505
0.028557736
0.025850026
0.023474312
0.021387366
0.019551977
0.017938365
0.016515547
0.015261898
0.014157116
0.013182992
0.012321849
0.011564631
0.010899565
0.01031573
0.0098030813
0.0093566383
0.0089718878
0.0086393585
0.0083571905
0.0081232169
0.0079304564
0.0077805448
0.0076678685
0.0075938994
0.0075583063
0.94137432
0.80699372
0.6924439
0.59476224
0.51142476
0.44029891
0.3795596
0.32765545
0.28327161
0.24528868
0.21275017
0.18485552
0.16091564
0.14034828
0.12265949
0.10742423
0.094290824
0.082952452
0.073151092
0.064668123
0.057313657
0.050931497
0.04538197
0.040553128
0.036341241
0.032665479
0.029450783
0.026638639
0.024173807
0.022008639
0.020106543
0.018433989
0.016963591
0.015665889
0.014523267
0.013516968
0.012628683
0.011847325
0.01116157
0.010558737
0.010030529
0.0095722211
0.0091745462
0.0088319968
0.0085426465
0.0082998486
0.0081036363
0.0079487182
0.0078332117
0.0077579242
0.0077200825
1.0041436
0.85940629
0.736241
0.63138524
0.54208596
0.46598795
0.40111112
0.34575744
0.29849686
0.25811342
0.22357182
0.19400051
0.16865669
0.1469161
0.1282391
0.1121791
0.098348854
0.086425869
0.076129639
0.067228428
0.059523244
0.052840451
0.047038681
0.0419931
0.037598716
0.033765909
0.03041911
0.027490933
0.024927588
0.02267965
0.020704369
0.018970244
0.017443122
0.016100347
0.014918029
0.013875733
0.012958835
0.012150715
0.011442137
0.010819927
0.01027657
0.009801108
0.0093927584
0.0090396614
0.0087406231
0.0084908864
0.0082887613
0.0081285547
0.0080108227
0.0079325025
0.0078937957
1.0731736
0.91696031
0.78426345
0.67149233
0.57560778
0.49404005
0.42461114
0.36547173
0.31505723
0.27204334
0.23531115
0.20390949
0.17703695
0.15401475
0.13426591
0.1173063
0.10272304
0.09016308
0.079333255
0.069980845
0.061893951
0.054889297
0.048812499
0.043535775
0.038942962
0.034941901
0.0314523
0.028401378
0.025732295
0.023394019
0.02134201
0.019538923
0.017957492
0.016563943
0.015337711
0.014258381
0.013309303
0.012473232
0.01174052
0.011098148
0.010535793
0.010045556
0.0096239012
0.0092603797
0.00895145
0.0086930919
0.0084839069
0.008319882
0.0081994411
0.0081177564
0.0080780635
1.1483507
0.97954157
0.83640518
0.71497114
0.61190091
0.52436976
0.44998451
0.38672869
0.33288814
0.28702597
0.24791833
0.21453863
0.18601292
0.16160944
0.14070771
0.12278279
0.10738376
0.094144357
0.082741906
0.072906645
0.064410089
0.057062229
0.050694813
0.045167575
0.040365779
0.036186574
0.032542054
0.029362976
0.026581419
0.024145574
0.02201274
0.020140163
0.018496498
0.01704902
0.015778364
0.01466078
0.013677175
0.012812086
0.012052612
0.011388079
0.010805814
0.010301488
0.0098650575
0.0094886115
0.0091713844
0.0089055615
0.0086893964
0.0085203581
0.0083935194
0.0083106459
0.0082695129
1.2295142
1.047008
0.89252861
0.76170246
0.65085298
0.55686921
0.47713553
0.40944155
0.35191732
0.30299091
0.26133719
0.22583678
0.19554426
0.16966746
0.14753117
0.12857267
0.11231358
0.098348854
0.086335402
0.075988429
0.067060175
0.05934657
0.052670102
0.046882573
0.041858343
0.037490342
0.033684022
0.030366493
0.027467455
0.024933532
0.022714459
0.020764751
0.019057793
0.017557844
0.016237204
0.015078488
0.014058481
0.013163338
0.012376974
0.01169134
0.011090763
0.010566501
0.010115044
0.0097283277
0.0093996157
0.009125495
0.0089026009
0.0087273671
0.0085984756
0.0085128447
0.0084701974
1.3164597
1.1191723
0.95247207
0.81153917
0.69232658
0.5914269
0.50596607
0.43352462
0.37206671
0.31987564
0.27550921
0.23775279
0.20558427
0.17814133
0.15470264
0.13465225
0.11748075
0.10275022
0.090096083
0.079208261
0.069827238
0.061728074
0.054728968
0.048666663
0.043409844
0.038844859
0.034871499
0.031409193
0.028387669
0.025748632
0.02343753
0.021414791
0.019640188
0.018080641
0.016711477
0.015510316
0.014454304
0.013526859
0.012714921
0.012000528
0.011381755
0.010840371
0.010374268
0.0099744974
0.0096339209
0.0093517533
0.0091211442
0.0089417611
0.0088080656
0.0087198538
0.0086751541
1.4089411
1.1958099
1.0160309
0.86430458
0.73617507
0.6279091
0.53635908
0.45888059
0.39325062
0.33760212
0.2903687
0.25023075
0.21608632
0.18699627
0.16218288
0.14099027
0.12285873
0.1073272
0.093999704
0.082550052
0.072693568
0.064196351
0.056859449
0.050512196
0.045014219
0.040242759
0.036094415
0.032483516
0.029336214
0.02658721
0.02418395
0.022078257
0.020235759
0.018618458
0.017198148
0.015952408
0.014858958
0.013899867
0.013057722
0.012321065
0.011678949
0.011120032
0.010637964
0.010224889
0.0098753283
0.0095823629
0.0093447733
0.0091591151
0.0090216013
0.0089303503
0.0088843387
1.5066486
1.2766527
1.0829807
0.9197975
0.78222605
0.66617157
0.56818845
0.48539634
0.41537411
0.35609202
0.30584681
0.26321531
0.22699418
0.19618347
0.16993551
0.14754701
0.12842038
0.11205621
0.098030818
0.085993231
0.075646664
0.066734374
0.059047911
0.052406779
0.046657633
0.041673874
0.037347539
0.033583162
0.030304136
0.027443726
0.024944459
0.022759159
0.020843605
0.019166571
0.017695236
0.016402952
0.015270471
0.014277225
0.013405156
0.012644365
0.011981554
0.011403106
0.010906293
0.010479883
0.01011874
0.0098178569
0.0095734096
0.0093810222
0.0092379692
0.0091436839
0.0090965576
1.6092193
1.3613931
1.1530554
0.97780036
0.83029094
0.70604527
0.60131372
0.51295479
0.43833565
0.37525594
0.32187084
0.27663706
0.23826121
0.20565915
0.17792458
0.15429758
0.13413882
0.11691075
0.10216479
0.089524775
0.078668066
0.06933015
0.061285982
0.054339211
0.048335193
0.043134283
0.038622167
0.034701805
0.031289335
0.028313295
0.025717519
0.023448077
0.021460931
0.01972167
0.018196148
0.01685876
0.01568699
0.014658936
0.013758908
0.012973078
0.012286384
0.011692002
0.011177503
0.010737789
0.010364377
0.010055196
0.0098011085
0.0096029297
0.0094585586
0.0093604556
0.0093124648
1.7162433
1.4496861
1.2259576
1.0380602
0.88015244
0.74735639
0.63558605
0.54142773
0.46203054
0.39500609
0.33836316
0.29043356
0.24982888
0.21537774
0.18610945
0.16120281
0.13998
0.12186627
0.10638103
0.093120776
0.081745751
0.071969964
0.06355608
0.056302506
0.050034761
0.044614198
0.039913513
0.035833226
0.032284958
0.029192878
0.026497155
0.024141879
0.022083546
0.020280992
0.018702318
0.017317472
0.016106542
0.015043679
0.014115449
0.013301918
0.01259453
0.011979833
0.011448995
0.010995823
0.010612512
0.010292252
0.010032907
0.0098272147
0.0096774326
0.0095773562
0.009527521
1.8272687
1.5411477
1.3013745
1.1003035
0.93158824
0.78991277
0.67084361
0.57068418
0.4863425
0.41524833
0.35524395
0.30453991
0.26163783
0.22528747
0.19444383
0.16823094
0.14591969
0.12689815
0.11065728
0.096765045
0.084859708
0.074639832
0.065853473
0.05828424
0.051750292
0.046104912
0.041214781
0.036970714
0.033285312
0.030077345
0.027281417
0.024840437
0.022707197
0.020842821
0.019209426
0.017778158
0.016525568
0.015429489
0.014469864
0.013631286
0.012901082
0.012268195
0.011721272
0.011254384
0.01085962
0.010528279
0.010262327
0.010049907
0.0098956443
0.0097926573
0.0097420366
1.9417971
1.6353635
1.3789502
1.16425
0.98435472
0.83351603
0.70692075
0.60058166
0.51115737
0.43587948
0.37243009
0.31888516
0.27363585
0.23534439
0.20289264
0.17534634
0.15192621
0.13198264
0.11497212
0.1004387
0.087994748
0.077326198
0.068161008
0.060274548
0.053472681
0.047600509
0.042517337
0.038111897
0.034287915
0.030961407
0.028064619
0.025537805
0.023330192
0.021401738
0.019714157
0.018236092
0.016943025
0.015810261
0.014821116
0.013958154
0.013206194
0.012554836
0.011991445
0.0115111
0.011103283
0.010765084
0.010488586
0.010273407
0.010113856
0.010008773
0.0099553707
2.0592975
1.7318949
1.4583274
1.2295941
1.0382114
0.87795391
0.74364554
0.63097624
0.5363567
0.4568047
0.38984222
0.33340131
0.28576334
0.24549673
0.2114124
0.18251224
0.1579719
0.13709692
0.11930781
0.10412477
0.091141016
0.080018354
0.070472522
0.062264047
0.055193471
0.049093195
0.043817789
0.039249513
0.035285235
0.031840739
0.028842814
0.026231356
0.023948585
0.021956959
0.02021532
0.018690987
0.017357821
0.016192376
0.015172117
0.014282643
0.013508799
0.012838192
0.012260026
0.011765187
0.011345353
0.010997668
0.010714844
0.010492404
0.010328912
0.010220134
0.010165947
2.1792144
1.8302823
1.5391301
1.2960231
1.0928902
0.92302235
0.78084396
0.66172629
0.56181948
0.47792743
0.40739703
0.3480179
0.29796101
0.25570052
0.21996433
0.18970136
0.16402866
0.14221384
0.12364351
0.1078082
0.094280149
0.082702998
0.072775456
0.064246469
0.056906245
0.050577333
0.045109289
0.040376988
0.036275319
0.032714531
0.029616126
0.026916707
0.024563686
0.02250639
0.020711753
0.019140997
0.017767482
0.016567106
0.01551664
0.014602242
0.013806115
0.013119042
0.012522534
0.012015046
0.011584414
0.011227088
0.010936218
0.010710898
0.010541988
0.010430703
0.010374801
2.3009758
1.9300541
1.6209661
1.3632242
1.148135
0.96850348
0.81834038
0.69268494
0.58742731
0.4991467
0.42501144
0.36267092
0.31017527
0.26590481
0.22851312
0.19687727
0.17006843
0.14731205
0.12795785
0.11147144
0.097399904
0.085367479
0.075060856
0.066211049
0.05860159
0.052045764
0.046386545
0.041494038
0.037253537
0.033573271
0.030377572
0.027592724
0.025165055
0.023048307
0.02119933
0.019582435
0.018168319
0.016934978
0.01585615
0.014916841
0.014100019
0.013391319
0.012780439
0.012260811
0.011818841
0.011451502
0.011153903
0.010920665
0.010747809
0.010634802
0.010578237
2.4239973
2.0307404
1.7034536
1.4308757
1.2036931
1.0141881
0.85596019
0.7237174
0.61305988
0.52036435
0.44260608
0.37729307
0.32235341
0.2760701
0.23701679
0.20401154
0.17606625
0.15237043
0.13223738
0.11510028
0.10048854
0.088002948
0.077317244
0.068150867
0.060275988
0.053494309
0.047645993
0.04259171
0.038215668
0.034419767
0.031123588
0.028256198
0.025758652
0.023579928
0.021678358
0.020015702
0.018564272
0.017296372
0.016188687
0.015225642
0.014387192
0.013658961
0.013034777
0.012499994
0.012048261
0.011673281
0.011368701
0.011128452
0.010951778
0.010835487
0.010775356
2.547695
2.1318616
1.7862035
1.4986723
1.259303
1.0598639
0.89353462
0.75467155
0.63861286
0.54149103
0.46011079
0.39182345
0.33444083
0.28614968
0.24544294
0.21107144
0.1819984
0.15736856
0.13646035
0.11867928
0.10353145
0.090597125
0.079536035
0.070058252
0.061917679
0.054915937
0.048880928
0.043667877
0.039159329
0.03525058
0.031856299
0.028907548
0.026337229
0.024098901
0.022145902
0.020439477
0.018949144
0.017649751
0.016514108
0.01552362
0.014665664
0.013921218
0.013282008
0.012733766
0.012272546
0.011886614
0.011575049
0.011329541
0.011150612
0.011030632
0.010971027
2.6714961
2.2329553
1.8688425
1.5662988
1.314719
1.1053344
0.93090264
0.78543086
0.66397121
0.56243496
0.47744486
0.40619956
0.34639139
0.29610505
0.25375623
0.21803243
0.18784343
0.16228821
0.14061436
0.12219736
0.10651789
0.093142128
0.081715163
0.071928046
0.063527344
0.056307359
0.050088819
0.044720065
0.040078985
0.036059484
0.032571727
0.029539779
0.026902214
0.024606009
0.022600925
0.020851118
0.019324933
0.017991112
0.016829362
0.015816868
0.014937157
0.014175306
0.013521975
0.012961213
0.012490102
0.012095339
0.011775985
0.01152666
0.011341406
0.011219575
0.011158659
2.7948325
2.3335707
1.9510041
1.6334701
1.369705
1.1504071
0.96790089
0.81585204
0.68903262
0.58311732
0.49454397
0.42036839
0.35815921
0.30589983
0.26192976
0.22486845
0.19357886
0.16711164
0.14468397
0.12564148
0.10944118
0.095633753
0.083841803
0.073750511
0.065097567
0.05766491
0.051264284
0.045744553
0.040975721
0.036846505
0.03326659
0.030155665
0.027451644
0.025095964
0.023042767
0.021249699
0.019688584
0.018323642
0.017135129
0.016098625
0.015199413
0.014422535
0.013751928
0.013180087
0.012698301
0.012296147
0.011971785
0.011715602
0.011526127
0.011401918
0.011341155
2.9171735
2.433266
2.032344
1.6999057
1.4240366
1.1948969
1.0043947
0.84583128
0.71370218
0.60345735
0.51134882
0.43428171
0.36970234
0.31549998
0.26993345
0.2315581
0.19918574
0.17182431
0.14865655
0.12900055
0.11228945
0.098057329
0.085912031
0.075525488
0.066623622
0.058982516
0.052406657
0.046738987
0.041843568
0.037609673
0.033937981
0.030751769
0.027981948
0.025570365
0.023469177
0.021636165
0.020038114
0.018643376
0.017428879
0.016371434
0.015453218
0.01465828
0.013976214
0.013392759
0.012899642
0.012490102
0.012158229
0.01189835
0.011705712
0.011579529
0.011516236
3.0379889
2.5316389
2.112531
1.765344
1.4775032
1.2386465
1.040239
0.87525465
0.73789205
0.62338419
0.52779844
0.44788808
0.38098151
0.3248723
0.27774093
0.23808322
0.20464838
0.17641237
0.15251863
0.13226349
0.11505717
0.10041129
0.087919873
0.07724512
0.068103004
0.060259117
0.053513031
0.047701241
0.042684395
0.038347391
0.034589209
0.03132784
0.02849432
0.026028826
0.023880811
0.022009577
0.020377501
0.018952961
0.017713173
0.016633562
0.015697537
0.014887572
0.014191392
0.013597666
0.013094909
0.012677201
0.012339658
0.012074772
0.011878972
0.011748567
0.011685145
3.1567585
2.6283277
2.1912731
1.8295471
1.5299158
1.2814914
1.0753193
0.90402033
0.76152578
0.64283952
0.54384144
0.46114793
0.39196744
0.33399226
0.28533405
0.24441765
0.20995042
0.18086159
0.15626666
0.13542675
0.11773787
0.1026898
0.089861785
0.078906845
0.069530828
0.061489296
0.054579712
0.048628029
0.043493832
0.039057279
0.035213644
0.031881088
0.028986402
0.026467886
0.024276108
0.022367154
0.020701862
0.019250431
0.017985038
0.016886582
0.015930653
0.015106973
0.014396428
0.013792277
0.01327963
0.012856786
0.012511859
0.012242622
0.012042593
0.011911936
0.011846136
2.7229723
2.2683117
1.8923032
1.5810979
1.3232972
1.1095176
0.93204314
0.78452608
0.66175608
0.55943005
0.4740225
0.40262294
0.34283612
0.29268876
0.25055116
0.2150808
0.18516576
0.15988442
0.13848165
0.12032162
0.10488622
0.091734742
0.080509246
0.070906316
0.062673586
0.055604199
0.049519354
0.044272555
0.039738028
0.035814632
0.032413114
0.029458952
0.026891004
0.024654656
0.02270917
0.021011576
0.019534038
0.018246106
0.017126679
0.016154938
0.015316611
0.01459354
0.013978187
0.013459214
0.013026076
0.012677201
0.012402424
0.012199767
0.012067793
0.012000399
2.8154028
2.3434095
1.9534165
1.6309017
1.3639389
1.1427393
0.9592411
0.80683601
0.68008803
0.57452633
0.48648174
0.41293115
0.35138173
0.29979323
0.25647264
0.22002763
0.18931147
0.16336927
0.14142022
0.12280849
0.1069956
0.093534538
0.082045574
0.072225491
0.063811607
0.05658702
0.05037296
0.045017786
0.040391352
0.036389385
0.032919413
0.029909624
0.02729447
0.025017521
0.023036038
0.021308641
0.019804342
0.018494654
0.017357037
0.016368394
0.015516512
0.014781422
0.014155523
0.013628375
0.013189444
0.012834375
0.012555903
0.012350867
0.012215326
0.01214702
2.9052113
2.4163293
2.0127104
1.6791825
1.4033094
1.1748923
0.98554824
0.82840044
0.69779685
0.58909971
0.49850035
0.42286437
0.35961274
0.30662895
0.26216629
0.22478619
0.19329473
0.16671766
0.14424253
0.12519422
0.10901872
0.095255205
0.083517846
0.073487318
0.064898199
0.057526206
0.051189653
0.045727804
0.041013159
0.036936689
0.03340517
0.030341574
0.027678558
0.025362571
0.02334669
0.021591464
0.020062247
0.018730932
0.017575378
0.016570268
0.01570505
0.014959696
0.014326277
0.013789244
0.013344112
0.012983097
0.012701334
0.01249367
0.012355218
0.012286385
2.9921473
2.4868784
2.0700321
1.725821
1.4413156
1.2059103
1.0109063
0.84917113
0.71484374
0.60311796
0.51005218
0.43240598
0.36751569
0.31318994
0.26762892
0.22934379
0.19711066
0.16992246
0.14693983
0.12747397
0.11095209
0.09689993
0.084922855
0.074690734
0.06593536
0.058421883
0.051965471
0.046405672
0.0416061
0.037458039
0.03386533
0.030748203
0.028042992
0.025690223
0.023642033
0.021859794
0.020306039
0.018955622
0.017781069
0.016762906
0.015885297
0.015129917
0.014484891
0.01394206
0.01349205
0.013124711
0.012838193
0.012627899
0.012489318
0.012418107
3.0760056
2.5548865
2.1252555
1.7707228
1.4778811
1.2357334
1.0352748
0.8691143
0.73119871
0.61656137
0.52112382
0.4415489
0.37507876
0.31946426
0.27284739
0.23369729
0.20075452
0.17297933
0.14951372
0.12964887
0.11279458
0.098466334
0.086259459
0.075836795
0.066920436
0.059272852
0.052704377
0.047048321
0.042169118
0.037952094
0.03430163
0.031136642
0.028388704
0.025999686
0.023922882
0.022112815
0.020537053
0.019167233
0.017978592
0.016946187
0.016054458
0.015288659
0.014636396
0.014085776
0.013630097
0.013258407
0.012969259
0.012755521
0.012614441
0.01254429
3.156615
2.6202206
2.1782706
1.8138021
1.5129379
1.2643132
1.0586071
0.88819964
0.74684378
0.62940639
0.53169993
0.4502725
0.38229686
0.32545141
0.27782401
0.23784588
0.20422197
0.17588826
0.15196102
0.13171434
0.11454333
0.099954823
0.087529582
0.076924576
0.067853017
0.060080187
0.05340253
0.047657073
0.042701144
0.038421078
0.034715238
0.031504918
0.028715443
0.026293056
0.024185924
0.022352912
0.020756049
0.01936923
0.018162124
0.017116787
0.016215853
0.015440164
0.014780638
0.014223039
0.013758787
0.01338459
0.013091998
0.012874975
0.012732577
0.012661519
3.2338454
2.6827771
2.2290024
1.8550011
1.546444
1.2916037
1.0808777
0.9064095
0.76175599
0.64165364
0.54177107
0.4585792
0.38916056
0.33113873
0.28254933
0.24178455
0.20751577
0.17864884
0.15428255
0.13367087
0.11620389
0.10136181
0.088730493
0.077951975
0.068737613
0.060842952
0.054062713
0.048231422
0.043204152
0.038861731
0.035104333
0.03185063
0.029024244
0.026570744
0.024434593
0.02257773
0.020961085
0.019556327
0.018335635
0.017277656
0.016365231
0.015581374
0.014914212
0.014350006
0.013881273
0.013503259
0.013206849
0.012987853
0.012844388
0.012772392
3.3075895
2.742473
2.2773903
1.8942728
1.5783638
1.3175941
1.1020724
0.9237246
0.77593352
0.65328273
0.55133564
0.46646025
0.39567141
0.33653094
0.28702967
0.24551494
0.21063158
0.18125821
0.15647618
0.13552248
0.11776792
0.10269194
0.089861785
0.078921871
0.069570521
0.061560103
0.054686768
0.048774528
0.043677769
0.039277998
0.035470894
0.032174715
0.029312865
0.026829029
0.024668365
0.022788679
0.021155035
0.019733535
0.018499004
0.01743035
0.016506846
0.015715474
0.015039861
0.014469864
0.013996909
0.013613881
0.013314188
0.013093186
0.012947626
0.012875509
3.3777718
2.7992591
2.3233893
1.9315865
1.6086761
1.3422568
1.1221794
0.94014336
0.78936822
0.66429952
0.56038836
0.4739165
0.40183103
0.34162888
0.29126159
0.24903935
0.21357137
0.18372225
0.15854534
0.13726728
0.11924255
0.1039444
0.090930188
0.079834418
0.070352535
0.062235845
0.055270481
0.049282421
0.044121988
0.039667222
0.035814504
0.032478761
0.029585012
0.027071503
0.024888299
0.022987391
0.021334093
0.019898877
0.018651294
0.017572215
0.016639352
0.015839279
0.015157091
0.014581804
0.014103965
0.013717775
0.013415703
0.013191823
0.013045073
0.012971889
3.4443493
2.8530962
2.3669778
1.9669244
1.6373714
1.3655939
1.141189
0.95566422
0.80206004
0.67470239
0.56893159
0.48094949
0.40763543
0.34643409
0.29524828
0.25235491
0.21634025
0.18603862
0.1604916
0.13890568
0.12062858
0.10512158
0.091930946
0.080690805
0.071089469
0.062868731
0.055817938
0.049757477
0.044537851
0.04003206
0.036136616
0.032764366
0.029839756
0.02729895
0.02509149
0.023172362
0.021504442
0.020053545
0.018793159
0.017704593
0.016763439
0.015955037
0.01526612
0.014685575
0.014205886
0.013814818
0.013509454
0.013283981
0.013135913
0.013062073
3.5073029
2.9039806
2.408155
2.0002944
1.6644536
1.3876079
1.1591156
0.97028557
0.81401455
0.68449268
0.57697247
0.48756664
0.41309331
0.35094899
0.29899263
0.25546793
0.21893828
0.18821261
0.16231472
0.1404436
0.12192759
0.10622241
0.092866034
0.081491412
0.071774819
0.063460888
0.056330052
0.050202481
0.044925353
0.040371448
0.036436714
0.033029913
0.030074967
0.027510311
0.025282406
0.023343778
0.021659893
0.020196727
0.018925948
0.017826553
0.01687788
0.016062375
0.015369357
0.01478274
0.014297792
0.013904218
0.013597132
0.013370874
0.013221092
0.013146589
3.5666407
2.9519152
2.4469249
2.0316963
1.6899242
1.4083045
1.1759608
0.98402273
0.82523651
0.69368225
0.58451363
0.49377028
0.41820866
0.35517828
0.30249726
0.25838319
0.22136858
0.19024565
0.16402103
0.14187709
0.12313918
0.10724847
0.093743392
0.082237832
0.072415501
0.064011759
0.056805893
0.050615434
0.0452869
0.040689607
0.036715437
0.033277014
0.030295435
0.027707301
0.025458829
0.023503985
0.021806514
0.020331361
0.019048564
0.017940872
0.016982969
0.016161263
0.015462705
0.014872674
0.014384031
0.013986889
0.013678897
0.013449857
0.013298756
0.013224254
3.6223825
2.9969224
2.4833164
2.0611579
1.7138143
1.4277047
1.1917464
0.9968894
0.83574407
0.70228245
0.59156851
0.49957311
0.42299226
0.3591291
0.30577087
0.2611033
0.22363511
0.1921393
0.1656109
0.14321329
0.12426809
0.10820612
0.09455427
0.082932823
0.073010416
0.064524407
0.057250112
0.05100071
0.045621936
0.040984043
0.036973471
0.033504842
0.030499404
0.027890452
0.025623234
0.023652709
0.02194021
0.020452659
0.019163537
0.018044766
0.017081727
0.016255014
0.015550665
0.01495719
0.014464324
0.014064676
0.013752462
0.013523697
0.013372063
0.01329625
3.6745794
3.0390519
2.5173598
2.0887087
1.7361419
1.4458333
1.2064867
1.0089022
0.8455515
0.71030486
0.59814898
0.50497639
0.42744569
0.36281015
0.30882034
0.2636354
0.22574262
0.19390322
0.16708831
0.14445771
0.12531671
0.10909375
0.095310298
0.083574007
0.073561287
0.064999464
0.057660963
0.051357373
0.045932184
0.041253004
0.037213187
0.033717917
0.030688224
0.028059079
0.025774739
0.023789971
0.02206627
0.020567761
0.019269154
0.01814353
0.017173101
0.016340191
0.01563083
0.015032477
0.014537759
0.014136017
0.013820891
0.013589748
0.013438647
0.013361645
3.7232946
3.0783489
2.5491051
2.114393
1.7569498
1.4627181
1.2202141
1.0200785
0.85467383
0.71776506
0.60426034
0.51000235
0.43158402
0.36622619
0.31164726
0.265985
0.22770013
0.19553555
0.16845613
0.14560879
0.12628939
0.10991545
0.096010328
0.084170111
0.074072746
0.065438394
0.058037795
0.051685025
0.046219229
0.041504713
0.037434439
0.033912407
0.030860951
0.028212557
0.025913975
0.023915621
0.022180056
0.020671
0.019365283
0.018232397
0.017255367
0.016418512
0.015704395
0.015102217
0.014604749
0.014198905
0.013885374
0.013652509
0.013498374
0.013423217
3.7685961
3.1148835
2.5786041
2.1382427
1.7762722
1.4783898
1.2329503
1.0304476
0.86313242
0.72467966
0.60992443
0.51465329
0.4354122
0.36938748
0.31426426
0.26815581
0.22950756
0.19704368
0.1697214
0.14667006
0.12718375
0.11067493
0.096651916
0.08472073
0.074542667
0.06584186
0.058387729
0.051987226
0.04648227
0.041736383
0.037637091
0.034091458
0.031020098
0.028354833
0.026041224
0.024031127
0.022283949
0.020768569
0.019452152
0.018313879
0.01733237
0.016489974
0.01577085
0.015166295
0.014665664
0.014259821
0.013941404
0.013707762
0.013554939
0.013478341
3.8105821
3.1487263
2.6059212
2.1603261
1.7941471
1.4928845
1.2447278
1.0400317
0.87094784
0.73107029
0.61515924
0.51894745
0.4389485
0.372303
0.31667716
0.27015733
0.23117363
0.19843538
0.17088366
0.14764946
0.12800768
0.11137177
0.097243668
0.085224394
0.074973833
0.066212367
0.058707083
0.052265447
0.046722367
0.041947211
0.03782275
0.034255079
0.03116553
0.0284843
0.026157767
0.024136216
0.022381396
0.02085534
0.019532598
0.018388504
0.017400143
0.016553397
0.015833739
0.015226304
0.014722229
0.014314412
0.013995058
0.013761287
0.013605963
0.013529237
3.8493434
3.1799587
2.6311235
2.1806922
1.8106329
1.5062475
1.2555753
1.0488592
0.8781446
0.73694457
0.61997239
0.52289801
0.44219838
0.37498222
0.31889386
0.27199588
0.23270285
0.19971116
0.17195009
0.14854408
0.12876321
0.11200901
0.097787559
0.085687084
0.075369785
0.066552031
0.058999798
0.052518468
0.04694349
0.042139445
0.037992695
0.03440474
0.031298037
0.028602969
0.026263382
0.024233252
0.022467358
0.020934978
0.019606164
0.018456682
0.017463437
0.016614312
0.015890174
0.015279829
0.014772065
0.014362526
0.014043454
0.013807053
0.013652386
0.013575506
3.8849915
3.208669
2.6542881
2.1994081
1.8257735
1.5185176
1.2655378
1.0569608
0.88474723
0.74233495
0.62438362
0.52651683
0.44517298
0.37743626
0.32092386
0.27367779
0.23410235
0.20087807
0.17292711
0.1493634
0.12945266
0.11259206
0.098281209
0.086107427
0.075728146
0.066860305
0.059265872
0.052749077
0.047144426
0.042314549
0.038145517
0.034540409
0.03141868
0.028709903
0.02635964
0.024318308
0.022546205
0.021006441
0.019672086
0.018516942
0.01752119
0.016667181
0.0159387
0.015326502
0.014819143
0.014408949
0.014086714
0.013850031
0.013693391
0.013616388
3.9176332
3.2349474
2.6754809
2.2165315
1.8396261
1.529742
1.2746454
1.0643621
0.89077551
0.74725936
0.62841014
0.52981893
0.44788834
0.37967511
0.32277349
0.27520989
0.23537444
0.20193843
0.17381474
0.15010744
0.13007922
0.1131233
0.098729375
0.086490069
0.07605461
0.067140872
0.059506097
0.052956742
0.047325071
0.042473697
0.038284753
0.034662896
0.031527458
0.028806817
0.026447319
0.024397406
0.022617797
0.021071303
0.019731562
0.018572318
0.017571559
0.016716233
0.015985244
0.015370546
0.014860276
0.01444573
0.014124937
0.013886942
0.013730957
0.013654231