/*--------------------------------*- C++ -*----------------------------------*\
| =========                 |                                                 |
| \\      /  F ield         | OpenFOAM: The Open Source CFD Toolbox           |
|  \\    /   O peration     | Version:  2312                                  |
|   \\  /    A nd           | Website:  www.openfoam.com                      |
|    \\/     M anipulation  |                                                 |
\*---------------------------------------------------------------------------*/
FoamFile
{
    version     2.0;
    format      ascii;
    arch        "LSB;label=32;scalar=64";
    class       volScalarField;
    location    "0.08";
    object      T;
}
// * * * * * * * * * * * * * * * * * * * * * * * * * * * * * * * * * * * * * //

dimensions      [0 0 0 1 0 0 0];

internalField   nonuniform List<scalar> 
3257
(
355.17732
354.08722
353.01265
351.95393
350.91154
349.88595
348.8776
347.88691
346.91428
345.96009
345.02469
344.10843
343.21162
342.33457
341.47757
340.6409
339.8248
339.02952
338.25529
337.50234
336.77086
336.06106
335.37311
334.70719
334.06348
333.44212
332.84327
332.26708
331.71367
331.18318
330.67574
330.19145
329.73045
329.29284
328.87872
328.4882
328.12138
327.77836
327.45924
327.1641
326.89304
326.64615
326.42352
326.22525
326.05142
325.90213
325.77747
325.67753
325.60242
325.55222
325.52707
355.27363
354.18023
353.10241
352.04053
350.99507
349.9665
348.95528
347.9618
346.98649
346.02971
345.09181
344.17314
343.27402
342.39475
341.5356
340.69687
339.87879
339.08161
338.30557
337.55087
336.81772
336.10632
335.41684
334.74947
334.10436
333.48168
332.88157
332.30417
331.74962
331.21806
330.70959
330.22435
329.76244
329.32397
328.90905
328.51779
328.15028
327.80661
327.48689
327.1912
326.91965
326.67231
326.44928
326.25065
326.07651
325.92695
325.80206
325.70194
325.62669
325.57638
325.55105
355.45528
354.35552
353.27155
352.20371
351.15247
350.11832
349.10169
348.10299
347.12263
346.16098
345.21839
344.2952
343.39171
342.50824
341.64506
340.80244
339.98064
339.17988
338.4004
337.64241
336.90611
336.19169
335.49933
334.8292
334.18146
333.55627
332.95378
332.37412
331.81742
331.28381
330.77342
330.28635
329.82272
329.38264
328.96621
328.57354
328.20471
327.85982
327.53897
327.24225
326.96975
326.72156
326.49777
326.29846
326.12373
325.97367
325.84836
325.74791
325.6724
325.62193
325.59652
355.7119
354.60322
353.51059
352.43436
351.375
350.33298
349.30874
348.3027
347.31524
346.34673
345.39753
344.46796
343.55833
342.66894
341.80007
340.95198
340.12492
339.31911
338.53478
337.77214
337.03139
336.31271
335.61627
334.94225
334.2908
333.66207
333.05621
332.47334
331.9136
331.37711
330.86398
330.37434
329.90828
329.46592
329.04735
328.65268
328.28199
327.93537
327.61293
327.31475
327.04091
326.79152
326.56664
326.36638
326.19081
326.04004
325.91414
325.81321
325.73735
325.68664
325.66112
356.03352
354.9137
353.81027
352.72356
351.65406
350.60223
349.5685
348.55327
347.55695
346.57988
345.62241
344.68487
343.76757
342.87078
341.99479
341.13985
340.3062
339.49407
338.70368
337.93522
337.18889
336.46487
335.76333
335.08443
334.42833
333.79516
333.18506
332.59818
332.03462
331.49451
330.97797
330.48509
330.01599
329.57076
329.14951
328.75232
328.37929
328.03051
327.70607
327.40605
327.13054
326.87963
326.6534
326.45193
326.27532
326.12365
325.99701
325.89549
325.81919
325.76818
325.74251
356.41068
355.27786
354.16182
353.06289
351.98154
350.91824
349.87341
348.84746
347.84076
346.85368
345.88654
344.93968
344.01339
343.10794
342.22362
341.36066
340.5193
339.69977
338.90226
338.12699
337.37412
336.64385
335.93632
335.2517
334.59013
333.95176
333.33671
332.74511
332.17707
331.63272
331.11215
330.61548
330.14281
329.69422
329.26981
328.86968
328.49391
328.14259
327.81579
327.51362
327.23615
326.98345
326.75563
326.55275
326.37491
326.22219
326.09468
325.99247
325.91564
325.86429
325.83844
356.83456
355.68718
354.55702
353.4444
352.34979
351.27365
350.21638
349.17841
348.16009
347.16177
346.1838
345.22648
344.29011
343.37495
342.48127
341.60931
340.7593
339.93145
339.12596
338.34303
337.58283
336.84552
336.13127
335.44023
334.77252
334.1283
333.50767
332.91077
332.3377
331.78858
331.26349
330.76256
330.28586
329.83349
329.40554
329.00209
328.62324
328.26905
327.93962
327.63502
327.35533
327.10064
326.87103
326.66656
326.48734
326.33344
326.20495
326.10195
326.02454
325.9728
325.94675
357.29695
356.13376
354.98825
353.86074
352.75171
351.66159
350.5908
349.53974
348.50877
347.49824
346.50847
345.53977
344.59241
343.66667
342.7628
341.88104
341.0216
340.18469
339.3705
338.57922
337.81101
337.06604
336.34446
335.6464
334.97201
334.3214
333.6947
333.09201
332.51345
331.95912
331.42911
330.92351
330.44242
329.98593
329.55411
329.14705
328.76482
328.40751
328.0752
327.76795
327.48586
327.22898
326.99741
326.79122
326.61048
326.4553
326.32573
326.22188
326.14384
326.09167
326.06541
357.79032
356.61031
355.44847
354.30513
353.18075
352.07575
350.99057
349.92558
348.88114
347.8576
346.85526
345.87443
344.91537
343.97836
343.06363
342.17142
341.30193
340.45536
339.63189
338.83171
338.05497
337.30183
336.57242
335.86689
335.18536
334.52794
333.89475
333.28589
332.70147
332.14158
331.60631
331.09574
330.60997
330.14907
329.71312
329.3022
328.91638
328.55574
328.22035
327.91028
327.62561
327.3664
327.13274
326.9247
326.74236
326.5858
326.45509
326.35033
326.2716
326.21899
326.1925
358.30779
357.11018
355.93127
354.77136
353.63091
352.51036
351.4101
350.33053
349.272
348.23482
347.21932
346.22579
345.25448
344.30566
343.37956
342.47639
341.59637
340.73967
339.90649
339.09697
338.31129
337.54958
336.81197
336.0986
335.40958
334.74502
334.10503
333.4897
332.89913
332.33341
331.79262
331.27684
330.78616
330.32064
329.88036
329.46539
329.0758
328.71166
328.37304
328.06001
327.77263
327.51099
327.27514
327.06516
326.88113
326.72313
326.59122
326.48551
326.40607
326.35298
326.32625
358.84311
357.62735
356.43081
355.2538
354.09677
352.96015
351.84433
350.7497
349.6766
348.62535
347.59626
346.5896
345.60563
344.64461
343.70674
342.79226
341.90135
341.03419
340.19095
339.37179
338.57685
337.80628
337.06019
336.33871
335.64195
334.97
334.32297
333.70095
333.10403
332.53227
331.98578
331.46461
330.96884
330.49854
330.05378
329.63462
329.24113
328.87338
328.53142
328.21532
327.92515
327.66098
327.42287
327.21089
327.02511
326.86562
326.73248
326.62578
326.5456
326.49202
326.46504
359.3907
358.15641
356.94187
355.74739
354.57343
353.4204
352.28869
351.17868
350.0907
349.02507
347.98209
346.96202
345.96511
344.99161
344.04173
343.11568
342.21364
341.33578
340.48226
339.65324
338.84885
338.06922
337.31446
336.58469
335.88
335.2005
334.54628
333.91741
333.31398
332.73606
332.18373
331.65704
331.15608
330.68089
330.23154
329.8081
329.41063
329.03917
328.6938
328.37457
328.08154
327.81478
327.57436
327.36033
327.17277
327.01175
326.87735
326.76964
326.68871
326.63463
326.6074
359.94554
358.6925
357.45976
356.24762
355.05652
353.88689
352.7391
351.61353
350.51049
349.4303
348.37325
347.33961
346.32961
345.34348
344.38143
343.44366
342.53035
341.64166
340.77773
339.93872
339.12475
338.33594
337.5724
336.83423
336.12152
335.43437
334.77286
334.13706
333.52704
332.94287
332.38462
331.85235
331.34612
330.86598
330.41199
329.98421
329.58269
329.20749
328.85866
328.53626
328.24034
327.97097
327.7282
327.5121
327.32273
327.16017
327.02448
326.91575
326.83406
326.77948
326.75199
360.5032
359.23136
357.98034
356.75047
355.54217
354.35587
353.19194
352.05073
350.93258
349.83778
348.7666
347.71932
346.69616
345.69735
344.72308
343.77355
342.84891
341.94933
341.07496
340.22591
339.40231
338.60428
337.83191
337.0853
336.36454
335.6697
335.00086
334.35809
333.74145
333.15101
332.58681
332.04893
331.5374
331.05229
330.59364
330.1615
329.75592
329.37696
329.02465
328.69906
328.40024
328.12824
327.88311
327.66493
327.47375
327.30964
327.17267
327.06292
326.98046
326.92537
326.89762
361.0598
359.76921
358.49997
357.25242
356.02698
354.82405
353.64402
352.48723
351.354
350.24461
349.15936
348.09847
347.06219
346.05073
345.06427
344.10299
343.16706
342.25662
341.37181
340.51275
339.67955
338.87232
338.09115
337.33612
336.60731
335.9048
335.22865
334.57893
333.95568
333.35897
332.78885
332.24536
331.72856
331.23848
330.77518
330.33869
329.92906
329.54634
329.19057
328.8618
328.56008
328.28546
328.03799
327.81773
327.62474
327.45909
327.32084
327.21007
327.12685
327.07125
327.04325
361.61196
360.30277
359.01549
357.75041
356.50797
355.28857
354.09258
352.92033
351.77215
350.64832
349.54909
348.47473
347.42543
346.40142
345.40287
344.42995
343.48282
342.56161
341.66646
340.79746
339.95474
339.13839
338.34848
337.5851
336.84831
336.13819
335.4548
334.79818
334.16838
333.56546
332.98946
332.44042
331.91838
331.42338
330.95546
330.51466
330.10102
329.71458
329.35537
329.02345
328.71886
328.44164
328.19184
327.96953
327.77475
327.60757
327.46805
327.35627
327.27229
327.2162
327.18795
362.15673
360.82923
359.52414
358.24179
356.98259
355.74694
354.53521
353.34773
352.1848
351.04671
349.93372
348.84605
347.78393
346.74754
345.73706
344.75266
343.79448
342.86265
341.95729
341.0785
340.22638
339.40103
338.6025
337.83088
337.08623
336.36861
335.67806
335.01464
334.37838
333.76933
333.18753
332.63301
332.10581
331.60596
331.13349
330.68844
330.27084
329.88072
329.51813
329.18311
328.87568
328.5959
328.34382
328.11948
327.92293
327.75425
327.61348
327.5007
327.41599
327.3594
327.3309
362.69165
361.34616
360.02361
358.7243
357.44865
356.19706
354.96988
353.76744
352.59004
351.43796
350.31145
349.21072
348.136
347.08746
346.06528
345.06961
344.10058
343.15832
342.24294
341.35454
340.4932
339.659
338.85202
338.07232
337.31994
336.59495
335.89738
335.22728
334.58468
333.96962
333.38213
332.82223
332.28996
331.78534
331.30841
330.85919
330.4377
330.04399
329.67808
329.34
329.0298
328.74752
328.49318
328.26686
328.06858
327.89842
327.75643
327.64268
327.55723
327.50017
327.47143
363.2146
361.85154
360.51191
359.19603
357.90431
356.63713
355.39486
354.1778
352.98626
351.8205
350.68077
349.56729
348.48025
347.41984
346.38621
345.37952
344.39989
343.44743
342.52226
341.62445
340.7541
339.91127
339.09602
338.30841
337.54849
336.81629
336.11186
335.43524
334.78644
334.1655
333.57244
333.00729
332.47007
331.9608
331.4795
331.02621
330.60093
330.2037
329.83454
329.49349
329.18058
328.89584
328.63932
328.41105
328.21109
328.03949
327.8963
327.7816
327.69545
327.63791
327.60894
363.72384
362.34368
360.98743
359.65541
358.34804
357.06569
355.80871
354.57742
353.37211
352.19304
351.04044
349.91453
348.8155
347.74352
346.69875
345.68133
344.69138
343.72899
342.79428
341.88733
341.00819
340.15695
339.33365
338.53835
337.77107
337.03187
336.32076
335.63778
334.98295
334.35629
333.75781
333.18755
332.64551
332.13171
331.64617
331.1889
330.75993
330.35928
329.98697
329.64302
329.32747
329.04035
328.78169
328.55154
328.34994
328.17694
328.03259
327.91697
327.83013
327.77214
327.74294
364.21795
362.82119
361.44882
360.10115
358.77859
357.48152
356.21028
354.96518
353.7465
352.55451
351.38943
350.25146
349.14079
348.0576
347.00202
345.97418
344.97421
344.0022
343.05823
342.14239
341.25474
340.39534
339.56423
338.76146
337.98705
337.24104
336.52346
335.83431
335.17363
334.54142
333.93769
333.36247
332.81575
332.29756
331.8079
331.34679
330.91424
330.51027
330.1349
329.78815
329.47004
329.18061
328.91989
328.68791
328.48472
328.31036
328.1649
328.04838
327.96088
327.90245
327.87303
364.6958
363.28299
361.89503
360.53222
359.19497
357.88366
356.59863
355.34017
354.10857
352.90408
351.72692
350.57729
349.45537
348.36133
347.29529
346.25738
345.24772
344.26639
343.31348
342.38905
341.49316
340.62587
339.78721
338.97721
338.19591
337.44332
336.71947
336.02437
335.35802
334.72044
334.11164
333.53162
332.98039
332.45795
331.96431
331.49948
331.06347
330.6563
330.27797
329.92851
329.60793
329.31627
329.05356
328.81982
328.61509
328.43943
328.29288
328.1755
328.08736
328.02851
327.99888
365.15652
363.72824
362.32523
360.94782
359.59642
358.27138
356.97304
355.70171
354.45765
353.2411
352.0523
350.89142
349.75865
348.65414
347.57802
346.5304
345.51139
344.52108
343.55954
342.62683
341.723
340.8481
340.00215
339.18519
338.39724
337.63831
336.90842
336.20757
335.53577
334.89302
334.27932
333.69468
333.13909
332.61256
332.11509
331.64668
331.20734
330.79707
330.4159
330.06383
329.74088
329.44707
329.18243
328.94699
328.74079
328.56388
328.41629
328.29808
328.20932
328.15007
328.12023
365.59947
364.1563
362.73883
361.34739
359.98236
358.64412
357.33299
356.04927
354.79323
353.5651
352.36509
351.1934
350.05019
348.93562
347.8498
346.79284
345.76485
344.7659
343.79606
342.85538
341.94392
341.06169
340.20875
339.38509
338.59075
337.82573
337.09003
336.38365
335.70661
335.05888
334.44048
333.8514
333.29162
332.76116
332.26
331.78815
331.34561
330.93238
330.54847
330.19389
329.86866
329.57279
329.30631
329.06924
328.86163
328.6835
328.53492
328.41592
328.32657
328.26693
328.2369
366.0242
364.56675
363.13541
361.73051
360.35242
359.00152
357.67812
356.38252
355.11498
353.87573
352.66498
351.48292
350.3297
349.20547
348.11035
347.04444
346.00783
345.00059
344.02279
343.07448
342.15568
341.26644
340.40678
339.57671
338.77623
338.00536
337.26409
336.55242
335.87035
335.21786
334.59495
334.0016
333.43782
332.90358
332.3989
331.92375
331.47814
331.06207
330.67554
330.31856
329.99114
329.6933
329.42505
329.18643
328.97746
328.79818
328.64864
328.52888
328.43897
328.37896
328.34875
366.43045
364.95934
363.51473
362.09695
360.70637
359.34335
358.00822
356.70125
355.42271
354.17282
352.95179
351.7598
350.597
349.46353
348.35951
347.28503
346.24017
345.225
344.23959
343.28396
342.35816
341.46221
340.59612
339.75991
338.95357
338.1771
337.43051
336.71377
336.02688
335.36984
334.74261
334.14519
333.57757
333.03973
332.53167
332.05337
331.60483
331.18604
330.79701
330.43773
330.10822
329.8085
329.53856
329.29845
329.08819
328.90781
328.75736
328.63689
328.54644
328.48608
328.45569
366.81811
365.33395
363.87669
362.44662
361.04411
359.66953
358.32319
357.00536
355.71632
354.45627
353.22543
352.02396
350.85202
349.70973
348.5972
347.51454
346.46181
345.43908
344.44639
343.48379
342.55129
341.64893
340.77671
339.93463
339.1227
338.34089
337.58921
336.86764
336.17617
335.51477
334.88342
334.28212
333.71084
333.16956
332.65828
332.17697
331.72563
331.30425
330.91283
330.55137
330.21987
329.91835
329.64681
329.40528
329.19379
329.01237
328.86105
328.73988
328.64893
328.58824
328.55768
367.1872
365.69062
364.22131
362.77954
361.36568
359.98008
358.62306
357.29489
355.99584
354.72612
353.48592
352.27543
351.09477
349.94408
348.82345
347.73299
346.67276
345.64282
344.64321
343.67396
342.73509
341.82662
340.94856
340.1009
339.28363
338.49674
337.74022
337.01404
336.3182
335.65265
335.01739
334.41239
333.83762
333.29307
332.77872
332.29455
331.84055
331.41671
331.02302
330.65948
330.32608
330.02285
329.74979
329.50691
329.29425
329.11183
328.95969
328.83788
328.74644
328.68543
328.65472
367.53782
366.02946
364.54873
363.09585
361.67119
360.27512
358.90795
357.56995
356.26138
354.98246
353.73337
352.51429
351.32535
350.16666
349.03835
347.94047
346.87311
345.83631
344.83011
343.85455
342.90962
341.99535
341.11173
340.25876
339.43643
338.64471
337.88358
337.15303
336.45303
335.78355
335.14456
334.53604
333.95797
333.41031
332.89305
332.40616
331.94963
331.52344
331.1276
330.76208
330.42689
330.12203
329.84752
329.60337
329.3896
329.20624
329.05332
328.93089
328.83899
328.77769
328.74683
367.87006
366.35078
364.85918
363.39577
361.96088
360.55487
359.17806
357.83073
356.51313
355.22548
353.96795
352.74072
351.54391
350.37765
349.24203
348.13712
347.06299
346.01969
345.00724
344.02568
343.07501
342.15523
341.26635
340.40834
339.58119
338.78489
338.0194
337.2847
336.58075
335.90754
335.26502
334.65317
334.07195
333.52135
333.00132
332.51186
332.05293
331.62453
331.22664
330.85924
330.52235
330.21596
329.94008
329.69472
329.4799
329.29564
329.14199
329.01898
328.92665
328.86507
328.83407
366.65478
365.15303
363.67963
362.23502
360.81959
359.43365
358.07748
356.75133
355.4554
354.18989
352.95494
351.75068
350.57724
349.4347
348.32313
347.2426
346.19313
345.17477
344.18753
343.23141
342.30642
341.41255
340.54977
339.71807
338.91743
338.1478
337.40917
336.7015
336.02475
335.37889
334.76388
334.17969
333.62629
333.10365
332.61175
332.15056
331.72005
331.32023
330.95107
330.61257
330.30472
330.02754
329.78104
329.56523
329.38013
329.22578
329.10222
329.0095
328.94765
328.91652
366.94234
365.43068
363.94778
362.49397
361.06963
359.67505
358.31052
356.97628
355.67253
354.39946
353.15721
351.94592
350.76569
349.61661
348.49874
347.41215
346.35686
345.33291
344.3403
343.37903
342.44912
341.55052
340.68324
339.84724
339.04249
338.26896
337.52661
336.81541
336.13532
335.4863
334.86831
334.28131
333.72528
333.20017
332.70596
332.24263
331.81015
331.40849
331.03766
330.69764
330.38843
330.11002
329.86244
329.6457
329.45981
329.30481
329.18073
329.08762
329.02553
328.99428
367.21345
365.69249
364.20061
362.73812
361.30535
359.90263
358.53021
357.18833
355.8772
354.59699
353.34786
352.12992
350.94328
349.78803
348.66422
347.57191
346.51113
345.48189
344.48422
343.5181
342.58353
341.68049
340.80895
339.96889
339.16027
338.38305
337.6372
336.92268
336.23943
335.58743
334.96662
334.37698
333.81846
333.29102
332.79464
332.32929
331.89494
331.49156
331.11916
330.7777
330.4672
330.18765
329.93905
329.72142
329.53479
329.37917
329.25461
329.16115
329.09882
329.06746
367.46859
365.9389
364.43857
362.96789
361.52719
360.11678
358.73692
357.38785
356.06976
354.78284
353.52721
352.30302
351.11034
349.94927
348.81987
347.72217
346.65621
345.622
344.61956
343.64886
342.70991
341.80268
340.92713
340.08325
339.27098
338.49029
337.74114
337.02348
336.33727
335.68246
335.059
334.46686
333.906
333.37637
332.87795
332.41069
331.97458
331.56959
331.1957
330.8529
330.54118
330.26054
330.01099
329.79254
329.60521
329.44902
329.324
329.2302
329.16767
329.13619
367.70828
366.1704
364.66212
363.18373
361.73557
360.31793
358.93108
357.57524
356.25061
354.95737
353.69564
352.46556
351.26721
350.10067
348.96599
347.86323
346.7924
345.75352
344.74658
343.77159
342.82852
341.91734
341.03803
340.19054
339.37485
338.59089
337.83864
337.11803
336.42903
335.77158
335.14563
334.55115
333.98809
333.4564
332.95605
332.48701
332.04924
331.64273
331.26745
330.92338
330.61052
330.32887
330.07842
329.8592
329.67121
329.51448
329.38903
329.29493
329.23219
329.20062
367.93306
366.3875
364.87176
363.38614
361.93097
360.50655
359.11313
357.75093
356.42016
355.12098
353.85353
352.61791
351.41423
350.24256
349.10294
347.99542
346.92002
345.87674
344.8656
343.88656
342.93962
342.02474
341.14189
340.29103
339.47211
338.6851
337.92993
337.20655
336.51493
335.855
335.22672
334.63003
334.0649
333.53128
333.02913
332.55841
332.11909
331.71115
331.33456
330.98931
330.67538
330.39278
330.1415
329.92154
329.73294
329.5757
329.44987
329.35547
329.29255
329.26089
368.14349
366.59074
365.06801
363.57561
362.11388
360.68309
359.28351
357.91536
356.57883
355.27409
354.00126
352.76046
351.55179
350.3753
349.23105
348.11907
347.03938
345.99199
344.97689
343.99407
343.0435
342.12516
341.23899
340.38496
339.56303
338.77314
338.01523
337.28927
336.59519
335.93294
335.30246
334.70372
334.13665
333.60122
333.09737
332.62509
332.18432
331.77504
331.39722
331.05086
330.73593
330.45244
330.20037
329.97974
329.79056
329.63286
329.50665
329.41198
329.34889
329.31715
368.34015
366.78066
365.2514
363.75266
362.28478
360.84804
359.4427
358.06897
356.72706
355.4171
354.13925
352.8936
351.68025
350.49926
349.35067
348.23452
347.15082
346.09958
345.08079
344.09442
343.14046
342.21886
341.32959
340.4726
339.64784
338.85526
338.09481
337.36641
336.67003
336.00561
335.37309
334.77241
334.20353
333.6664
333.16098
332.68722
332.24509
331.83456
331.45561
331.1082
330.79234
330.50801
330.25521
330.03395
329.84424
329.68609
329.55954
329.46463
329.40138
329.36956
368.52361
366.95784
365.42247
363.9178
362.44418
361.00188
359.59115
358.21222
356.86527
355.55045
354.2679
353.01773
351.80001
350.6148
349.46217
348.34212
347.25467
346.19983
345.17759
344.18791
343.23078
342.30615
341.41398
340.55422
339.72682
338.93173
338.16888
337.43822
336.73969
336.07324
335.4388
334.83632
334.26575
333.72704
333.22014
332.74501
332.30161
331.88991
331.50989
331.16152
330.84478
330.55968
330.30619
330.08434
329.89413
329.73558
329.60871
329.51356
329.45017
329.41828
368.69445
367.12281
365.58174
364.07155
362.59257
361.14509
359.72934
358.34556
356.99391
355.67456
354.38763
353.13323
351.91144
350.72231
349.56589
348.44221
347.35127
346.29307
345.2676
344.27484
343.31475
342.38729
341.49241
340.63007
339.80021
339.00277
338.2377
337.50493
336.8044
336.13605
335.49982
334.89566
334.32351
333.78332
333.27504
332.79863
332.35405
331.94127
331.56025
331.21097
330.89343
330.6076
330.35348
330.13108
329.94041
329.78147
329.65431
329.55895
329.49543
329.46347
368.85324
367.27613
365.72977
364.21444
362.73047
361.27816
359.85774
358.46943
357.11342
355.78984
354.49884
353.2405
352.01492
350.82214
349.6622
348.53513
347.44094
346.37962
345.35115
344.35551
343.39267
342.46257
341.56518
340.70043
339.86828
339.06866
338.30151
337.56677
336.86437
336.19426
335.55637
334.95064
334.37702
333.83546
333.3259
332.8483
332.40261
331.98882
331.60687
331.25676
330.93845
330.65195
330.39724
330.17433
329.98323
329.82395
329.69651
329.60095
329.53731
329.5053
369.00054
367.41836
365.86707
364.34696
362.85836
361.40156
359.9768
358.5843
357.22422
355.89672
354.60193
353.33994
352.11083
350.91465
349.75145
348.62124
347.52402
346.4598
345.42854
344.43023
343.46482
342.53227
341.63254
340.76556
339.93128
339.12963
338.36055
337.62398
336.91985
336.24809
335.60866
335.00147
334.42649
333.88364
333.37289
332.89418
332.44748
332.03274
331.64993
331.29904
330.98003
330.6929
330.43765
330.21426
330.02276
329.86316
329.73547
329.63973
329.57598
329.54392
369.13691
367.55003
365.99416
364.46963
362.97674
361.51578
360.08699
358.69059
357.32674
355.99561
354.6973
353.43192
352.19955
351.00022
349.83398
348.70085
347.60083
346.53391
345.50007
344.49928
343.5315
342.59668
341.69477
340.82571
339.98945
339.18592
338.41505
337.67678
336.97104
336.29777
335.65689
335.04836
334.47211
333.92808
333.41622
332.93648
332.48882
332.07321
331.68961
331.33799
331.01833
330.73062
330.47486
330.25104
330.05917
329.89927
329.77135
329.67544
329.61159
329.57948
369.26291
367.67167
366.11157
364.58293
363.08607
361.62126
360.18874
358.78874
357.42141
356.0869
354.78535
353.51683
352.28143
351.07919
349.91014
348.77431
347.67169
346.60228
345.56604
344.56295
343.59297
342.65605
341.75212
340.88115
340.04305
339.23778
338.46525
337.7254
337.01817
336.34349
335.70129
335.0915
334.51407
333.96894
333.45606
332.97537
332.52684
332.11041
331.72607
331.37378
331.05352
330.76528
330.50905
330.28482
330.09261
329.93243
329.8043
329.70825
329.6443
329.61215
369.37906
367.78379
366.21979
364.68736
363.18682
361.71846
360.2825
358.87916
357.50861
356.171
354.86644
353.59503
352.35683
351.1519
349.98026
348.84193
347.73692
346.66519
345.62674
344.62153
343.64952
342.71064
341.80486
340.93211
340.09232
339.28543
338.51137
337.77007
337.06146
336.38547
335.74204
335.1311
334.55258
334.00644
333.4926
333.01104
332.56169
332.14452
331.75949
331.40658
331.08576
330.79703
330.54036
330.31577
330.12324
329.96281
329.83448
329.73829
329.67427
329.64208
369.48588
367.8869
366.31929
364.78337
363.27946
361.80782
360.36869
358.96228
357.58876
356.24828
354.94095
353.66687
352.4261
351.21868
350.04466
348.90403
347.7968
346.72295
345.68246
344.67529
343.7014
342.76073
341.85323
340.97884
340.13749
339.32911
338.55363
337.81099
337.10111
336.42392
335.77935
335.16734
334.58782
334.04074
333.52603
333.04365
332.59355
332.17569
331.79003
331.43655
331.11522
330.82603
330.56896
330.34402
330.15122
329.99055
329.86204
329.76573
329.70163
329.66942
369.58388
367.98147
366.41056
364.87144
363.36441
361.88976
360.44772
359.03848
357.66224
356.31912
355.00925
353.73271
352.48957
351.27987
350.10365
348.9609
347.85164
346.77583
345.73346
344.72449
343.74887
342.80655
341.89747
341.02157
340.17878
339.36903
338.59225
337.84837
337.13732
336.45902
335.81341
335.20041
334.61997
334.07202
333.55651
333.07338
332.62259
332.2041
331.81786
331.46385
331.14205
330.85244
330.595
330.36975
330.17668
330.0158
329.88713
329.7907
329.72654
329.6943
369.67353
368.06799
366.49404
364.95198
363.44211
361.9647
360.51998
359.10816
357.72941
356.38387
355.07167
353.79287
352.54756
351.33577
350.15753
349.01284
347.90171
346.82411
345.78002
344.76939
343.79219
342.84835
341.93782
341.06053
340.21642
339.40541
338.62744
337.88242
337.17029
336.49097
335.8444
335.2305
334.64921
334.10047
333.58421
333.1004
332.64897
332.22989
331.84312
331.48863
331.16639
330.8764
330.61863
330.39308
330.19977
330.0387
329.90988
329.81335
329.74914
329.71687
369.75531
368.1469
366.57018
365.02543
363.51296
362.03303
360.58586
359.17167
357.79063
356.44289
355.12854
353.84769
352.60039
351.38669
350.2066
349.06014
347.9473
346.86806
345.82238
344.81024
343.83158
342.88636
341.9745
341.09594
340.25061
339.43845
338.65938
337.91332
337.2002
336.51995
335.8725
335.25777
334.6757
334.12623
333.6093
333.12486
332.67285
332.25323
331.86597
331.51104
331.1884
330.89805
330.63997
330.41417
330.22063
330.05938
329.93043
329.83381
329.76955
329.73726
369.82966
368.21863
366.63939
365.09221
363.57736
362.09513
360.64573
359.22938
357.84625
356.49649
355.1802
353.89747
352.64836
351.43291
350.25114
349.10306
347.98866
346.90791
345.8608
344.84728
343.86729
342.92079
342.00772
341.128
340.28157
339.46835
338.68827
337.94126
337.22724
336.54614
335.89788
335.28239
334.69961
334.14948
333.63193
333.14691
332.69437
332.27426
331.88655
331.53121
331.20821
330.91754
330.65918
330.43313
330.2394
330.07799
329.94892
329.85222
329.78791
329.7556
369.897
368.2836
366.70208
365.15269
363.6357
362.15137
360.69994
359.28163
357.8966
356.54501
355.22695
353.94251
352.69176
351.47472
350.29142
349.14186
348.02604
346.94393
345.89551
344.88072
343.89953
342.95188
342.03769
341.15692
340.30948
339.4953
338.71431
337.96643
337.25159
336.5697
335.92071
335.30453
334.72111
334.17036
333.65225
333.1667
332.71367
332.29312
331.905
331.54929
331.22597
330.935
330.67638
330.45011
330.2562
330.09464
329.96546
329.86869
329.80434
329.77202
369.95775
368.34221
366.75864
365.20726
363.68832
362.2021
360.74884
359.32874
357.942
356.58874
355.26908
353.9831
352.73086
351.51238
350.3277
349.1768
348.05969
346.97635
345.92673
344.9108
343.92851
342.97981
342.06462
341.18288
340.33453
339.51948
338.73765
337.98899
337.2734
336.59081
335.94115
335.32434
334.74032
334.18903
333.6704
333.18437
332.7309
332.30995
331.92146
331.56541
331.24178
330.95055
330.6917
330.46523
330.27115
330.10946
329.98019
329.88335
329.81897
329.78664
370.01224
368.39484
366.80945
365.25627
363.73559
362.24766
360.79274
359.37104
357.98273
356.62798
355.30688
354.01951
352.76592
351.54615
350.36021
349.20811
348.08984
347.00538
345.95468
344.93772
343.95444
343.00479
342.08869
341.20608
340.3569
339.54106
338.75848
338.0091
337.29283
336.6096
335.95934
335.34196
334.75741
334.20562
333.68652
333.20006
332.74619
332.32487
331.93604
331.57969
331.25579
330.96431
330.70525
330.47861
330.28438
330.12257
329.99321
329.89631
329.83191
329.79956
370.06079
368.44189
366.85485
365.30008
363.77783
362.28837
360.83195
359.4088
358.01911
356.66301
355.34061
354.05199
352.7972
351.57627
350.38921
349.23602
348.11671
347.03123
345.97957
344.96168
343.97751
343.027
342.11008
341.22669
340.37676
339.5602
338.77695
338.02693
337.31005
336.62624
335.97543
335.35754
334.77251
334.22026
333.70074
333.2139
332.75966
332.33801
331.94888
331.59226
331.26811
330.97641
330.71716
330.49035
330.29599
330.13408
330.00463
329.90768
329.84326
329.81091
368.48366
366.8952
365.33902
363.81537
362.32453
360.86678
359.44234
358.05139
356.69409
355.37053
354.0808
352.82494
351.60297
350.4149
349.26075
348.1405
347.05413
346.0016
344.98287
343.9979
343.04662
342.12897
341.24487
340.39427
339.57708
338.79322
338.04261
337.32519
336.64086
335.98956
335.37121
334.78574
334.23309
333.7132
333.226
332.77144
332.34948
331.96009
331.60321
331.27884
330.98695
330.72753
330.50057
330.30609
330.14408
330.01457
329.91757
329.85313
329.82077
368.52054
366.93082
365.37339
363.8485
362.35645
360.8975
359.4719
358.07984
356.72147
355.3969
354.10618
352.84936
351.62647
350.43752
349.2825
348.16142
347.07424
346.02094
345.00147
344.01578
343.06382
342.14551
341.26079
340.40959
339.59183
338.80742
338.0563
337.33839
336.6536
336.00186
335.3831
334.79724
334.24423
333.72399
333.23648
332.78163
332.35941
331.96977
331.61267
331.2881
330.99603
330.73646
330.50938
330.31478
330.15269
330.02312
329.92608
329.86162
329.82926
368.55267
366.96205
365.4035
363.87752
362.38438
360.92438
359.49775
358.10471
356.7454
355.41993
354.12835
352.87069
351.64699
350.45725
349.30147
348.17965
347.09177
346.03778
345.01765
344.03133
343.07876
342.15987
341.2746
340.42286
339.60459
338.81971
338.06813
337.34978
336.66458
336.01245
335.39332
334.80712
334.25379
333.73325
333.24546
332.79035
332.36789
331.97803
331.62074
331.29599
331.00377
330.74406
330.51686
330.32217
330.16
330.03037
329.9333
329.86883
329.83647
366.98915
365.42963
363.9027
362.40861
360.94767
359.52014
358.12623
356.7661
355.43985
354.14752
352.88913
351.66472
350.47429
349.31785
348.19538
347.10687
346.05229
345.03158
344.0447
343.0916
342.1722
341.28643
340.43423
339.61551
338.8302
338.07822
337.35948
336.67392
336.02145
335.402
334.81549
334.26187
333.74107
333.25303
332.7977
332.37502
331.98497
331.62751
331.30261
331.01024
330.75041
330.52311
330.32834
330.1661
330.03642
329.93932
329.87484
329.84248
367.01245
365.45206
363.92429
362.42937
360.96761
359.53929
358.14462
356.78379
355.45687
354.16389
352.90488
351.67985
350.48883
349.33181
348.20878
347.11973
346.06462
345.04341
344.05604
343.10247