/*--------------------------------*- C++ -*----------------------------------*\
| =========                 |                                                 |
| \\      /  F ield         | OpenFOAM: The Open Source CFD Toolbox           |
|  \\    /   O peration     | Version:  2312                                  |
|   \\  /    A nd           | Website:  www.openfoam.com                      |
|    \\/     M anipulation  |                                                 |
\*---------------------------------------------------------------------------*/
FoamFile
{
    version     2.0;
    format      ascii;
    arch        "LSB;label=32;scalar=64";
    class       volVectorField;
    location    "0.08";
    object      U;
}
// * * * * * * * * * * * * * * * * * * * * * * * * * * * * * * * * * * * * * //

dimensions      [0 1 -1 0 0 0 0];

internalField   nonuniform List<vector> 
3257
(
(0.34620026 -0.69664394 0)
(0.33966293 -0.68494578 0)
(0.33334884 -0.67333213 0)
(0.32725807 -0.66179914 0)
(0.32137758 -0.65035182 0)
(0.31570488 -0.63899814 0)
(0.31024069 -0.62774517 0)
(0.30498513 -0.61659905 0)
(0.2999378 -0.60556515 0)
(0.29509796 -0.59464833 0)
(0.29046456 -0.58385313 0)
(0.28603642 -0.57318391 0)
(0.28181219 -0.562645 0)
(0.27779048 -0.55224069 0)
(0.27396983 -0.54197533 0)
(0.27034874 -0.53185326 0)
(0.26692568 -0.5218789 0)
(0.26369912 -0.51205668 0)
(0.2606675 -0.50239107 0)
(0.25782926 -0.49288662 0)
(0.25518282 -0.48354787 0)
(0.25272662 -0.47437946 0)
(0.25045909 -0.46538608 0)
(0.2483787 -0.45657249 0)
(0.2464839 -0.44794356 0)
(0.24477321 -0.43950424 0)
(0.24324516 -0.43125964 0)
(0.24189836 -0.42321496 0)
(0.24073147 -0.4153756 0)
(0.23974321 -0.40774711 0)
(0.23893244 -0.40033525 0)
(0.23829811 -0.393146 0)
(0.2378393 -0.38618561 0)
(0.23755528 -0.37946061 0)
(0.23744547 -0.37297787 0)
(0.23750955 -0.36674464 0)
(0.23774746 -0.36076863 0)
(0.23815944 -0.35505807 0)
(0.23874613 -0.34962182 0)
(0.2395086 -0.34446951 0)
(0.24044847 -0.33961164 0)
(0.24156805 -0.33505984 0)
(0.24287048 -0.3308271 0)
(0.24436017 -0.32692811 0)
(0.24604308 -0.32337954 0)
(0.24792523 -0.3202008 0)
(0.25000736 -0.31741816 0)
(0.25229668 -0.31507505 0)
(0.25489012 -0.31322366 0)
(0.2580489 -0.31182854 0)
(0.26123039 -0.31071313 0)
(0.34679629 -0.66819507 0)
(0.34022092 -0.6570125 0)
(0.3338696 -0.64590095 0)
(0.32774048 -0.6348668 0)
(0.32182154 -0.62391625 0)
(0.31611009 -0.6130556 0)
(0.31060723 -0.60229076 0)
(0.30531365 -0.59162717 0)
(0.30022946 -0.58106984 0)
(0.29535422 -0.57062348 0)
(0.29068704 -0.56029257 0)
(0.28622672 -0.55008151 0)
(0.28197183 -0.53999463 0)
(0.27792083 -0.53003629 0)
(0.2740721 -0.52021085 0)
(0.27042401 -0.51052274 0)
(0.26697488 -0.50097642 0)
(0.26372306 -0.49157642 0)
(0.2606669 -0.48232729 0)
(0.25780473 -0.47323367 0)
(0.2551349 -0.46430024 0)
(0.25265578 -0.45553178 0)
(0.25036571 -0.44693313 0)
(0.24826307 -0.43850923 0)
(0.24634624 -0.43026516 0)
(0.24461363 -0.42220608 0)
(0.24306368 -0.41433734 0)
(0.24169488 -0.40666442 0)
(0.24050575 -0.39919301 0)
(0.23949489 -0.39192899 0)
(0.23866096 -0.38487849 0)
(0.23800273 -0.3780479 0)
(0.23751904 -0.3714439 0)
(0.23720887 -0.36507354 0)
(0.23707133 -0.35894423 0)
(0.23710565 -0.35306388 0)
(0.23731124 -0.34744091 0)
(0.23768767 -0.34208438 0)
(0.23823468 -0.3370041 0)
(0.23895219 -0.33221077 0)
(0.23984029 -0.32771619 0)
(0.24089917 -0.32353343 0)
(0.24212911 -0.31967714 0)
(0.24353053 -0.31616386 0)
(0.24510392 -0.31301241 0)
(0.24684743 -0.31024438 0)
(0.24874976 -0.3078844 0)
(0.25079637 -0.30595925 0)
(0.25304783 -0.30449475 0)
(0.25572362 -0.30351572 0)
(0.25843753 -0.30306178 0)
(0.34839566 -0.64814298 0)
(0.34173136 -0.63730153 0)
(0.33529411 -0.62653045 0)
(0.3290817 -0.6158353 0)
(0.32308145 -0.60522188 0)
(0.31729046 -0.59469589 0)
(0.31171003 -0.58426275 0)
(0.30634118 -0.57392757 0)
(0.30118425 -0.56369513 0)
(0.29623892 -0.55357002 0)
(0.29150429 -0.54355669 0)
(0.28697907 -0.53365948 0)
(0.28266168 -0.52388276 0)
(0.2785504 -0.51423086 0)
(0.27464342 -0.50470819 0)
(0.27093894 -0.49531918 0)
(0.26743511 -0.4860683 0)
(0.26413012 -0.47696012 0)
(0.26102219 -0.46799923 0)
(0.25810951 -0.4591903 0)
(0.25539031 -0.45053808 0)
(0.25286282 -0.4420474 0)
(0.25052525 -0.43372318 0)
(0.24837584 -0.42557047 0)
(0.24641283 -0.41759442 0)
(0.24463446 -0.40980032 0)
(0.24303899 -0.40219365 0)
(0.24162472 -0.39478003 0)
(0.24038995 -0.38756529 0)
(0.23933304 -0.38055548 0)
(0.23845237 -0.37375691 0)
(0.23774639 -0.36717616 0)
(0.23721356 -0.36082011 0)
(0.23685244 -0.35469601 0)
(0.23666161 -0.3488115 0)
(0.2366397 -0.3431747 0)
(0.23678535 -0.33779424 0)
(0.2370972 -0.33267937 0)
(0.23757387 -0.32784001 0)
(0.23821382 -0.32328694 0)
(0.23901534 -0.31903181 0)
(0.23997635 -0.31508733 0)
(0.24109424 -0.31146736 0)
(0.2423658 -0.30818695 0)
(0.2437869 -0.30526236 0)
(0.24535054 -0.30271089 0)
(0.24704113 -0.3005499 0)
(0.24884056 -0.29879427 0)
(0.25079335 -0.29745464 0)
(0.25307405 -0.29654852 0)
(0.25533956 -0.29611762 0)
(0.35075938 -0.62875099 0)
(0.34396892 -0.61824166 0)
(0.33741018 -0.60780053 0)
(0.33107979 -0.59743302 0)
(0.32496461 -0.5871448 0)
(0.31906181 -0.57694129 0)
(0.31337285 -0.56682764 0)
(0.3078989 -0.55680871 0)
(0.30264036 -0.54688914 0)
(0.29759689 -0.53707344 0)
(0.29276753 -0.52736598 0)
(0.28815083 -0.51777111 0)
(0.28374503 -0.50829317 0)
(0.27954822 -0.49893652 0)
(0.2755584 -0.48970553 0)
(0.27177354 -0.48060467 0)
(0.26819165 -0.47163841 0)
(0.26481071 -0.46281132 0)
(0.26162878 -0.45412802 0)
(0.25864388 -0.44559321 0)
(0.25585407 -0.43721167 0)
(0.25325741 -0.42898827 0)
(0.25085195 -0.420928 0)
(0.24863572 -0.41303595 0)
(0.24660676 -0.40531735 0)
(0.2447631 -0.39777758 0)
(0.24310278 -0.39042218 0)
(0.24162383 -0.38325688 0)
(0.24032426 -0.37628761 0)
(0.23920213 -0.36952052 0)
(0.23825545 -0.362962 0)
(0.23748228 -0.35661874 0)
(0.23688065 -0.35049772 0)
(0.23644857 -0.34460624 0)
(0.23618404 -0.33895203 0)
(0.23608498 -0.33354319 0)
(0.23614923 -0.32838833 0)
(0.23637447 -0.32349656 0)
(0.23675816 -0.3188776 0)
(0.23729744 -0.31454181 0)
(0.23798899 -0.3105002 0)
(0.23882888 -0.30676453 0)
(0.23981239 -0.30334722 0)
(0.24093392 -0.30026127 0)
(0.24218681 -0.29752008 0)
(0.24356193 -0.29513707 0)
(0.24504352 -0.29312479 0)
(0.24661496 -0.29149321 0)
(0.24831483 -0.29024988 0)
(0.25029398 -0.28941033 0)
(0.25225673 -0.28900934 0)
(0.35374664 -0.60980693 0)
(0.34679863 -0.59961836 0)
(0.34008783 -0.58949605 0)
(0.33360978 -0.57944524 0)
(0.327351 -0.56947136 0)
(0.32130878 -0.55957958 0)
(0.31548464 -0.54977482 0)
(0.30987978 -0.54006175 0)
(0.30449458 -0.5304449 0)
(0.29932863 -0.52092868 0)
(0.29438081 -0.51151742 0)
(0.2896495 -0.50221542 0)
(0.28513276 -0.49302699 0)
(0.28082846 -0.48395648 0)
(0.27673438 -0.47500826 0)
(0.27284829 -0.46618675 0)
(0.26916799 -0.45749643 0)
(0.26569127 -0.44894187 0)
(0.26241599 -0.44052769 0)
(0.25933997 -0.43225858 0)
(0.25646109 -0.42413935 0)
(0.25377718 -0.41617488 0)
(0.25128608 -0.40837019 0)
(0.24898561 -0.4007304 0)
(0.24687356 -0.39326078 0)
(0.24494772 -0.38596676 0)
(0.24320584 -0.37885392 0)
(0.24164565 -0.37192802 0)
(0.24026485 -0.36519504 0)
(0.23906111 -0.35866117 0)
(0.23803209 -0.35233283 0)
(0.23717539 -0.3462167 0)
(0.23648856 -0.34031976 0)
(0.23596907 -0.33464929 0)
(0.23561431 -0.32921291 0)
(0.23542151 -0.3240186 0)
(0.23538774 -0.31907473 0)
(0.23550979 -0.31439013 0)
(0.23578414 -0.30997404 0)
(0.23620682 -0.30583619 0)
(0.23677328 -0.30198677 0)
(0.23747829 -0.2984364 0)
(0.23831576 -0.29519601 0)
(0.23927872 -0.29227675 0)
(0.24035936 -0.28968973 0)
(0.24154799 -0.28744569 0)
(0.2428298 -0.28555436 0)
(0.24418984 -0.28402341 0)
(0.2456612 -0.28285933 0)
(0.24737557 -0.28207679 0)
(0.24908085 -0.28170625 0)
(0.35723492 -0.59143322 0)
(0.35010253 -0.58155224 0)
(0.3432136 -0.57173578 0)
(0.33656263 -0.56198885 0)
(0.33013586 -0.55231667 0)
(0.32393064 -0.54272415 0)
(0.31794851 -0.53321602 0)
(0.31219061 -0.5237968 0)
(0.30665726 -0.51447089 0)
(0.30134789 -0.5052426 0)
(0.29626122 -0.49611621 0)
(0.29139545 -0.48709595 0)
(0.2867484 -0.4781861 0)
(0.28231772 -0.46939095 0)
(0.27810099 -0.46071485 0)
(0.27409575 -0.45216219 0)
(0.27029957 -0.44373743 0)
(0.26671004 -0.4354451 0)
(0.2633248 -0.4272898 0)
(0.26014146 -0.41927621 0)
(0.25715766 -0.41140914 0)
(0.25437102 -0.40369346 0)
(0.25177913 -0.39613419 0)
(0.24937956 -0.38873647 0)
(0.24716985 -0.38150555 0)
(0.24514748 -0.37444688 0)
(0.24330992 -0.36756604 0)
(0.24165456 -0.3608688 0)
(0.24017877 -0.35436111 0)
(0.23887985 -0.34804915 0)
(0.23775503 -0.3419393 0)
(0.23680149 -0.33603819 0)
(0.23601628 -0.33035269 0)
(0.23539636 -0.32488995 0)
(0.23493853 -0.31965742 0)
(0.23463941 -0.31466282 0)
(0.23449537 -0.30991422 0)
(0.23450246 -0.30541999 0)
(0.23465636 -0.30118886 0)
(0.23495224 -0.29722983 0)
(0.23538469 -0.29355222 0)
(0.23594759 -0.29016557 0)
(0.23663401 -0.28707953 0)
(0.23743628 -0.28430372 0)
(0.23834608 -0.28184757 0)
(0.23935374 -0.27972002 0)
(0.24044557 -0.27792906 0)
(0.24160793 -0.27648102 0)
(0.24286838 -0.27538137 0)
(0.24434064 -0.2746434 0)
(0.24581106 -0.27429474 0)
(0.36111287 -0.57359989 0)
(0.35377356 -0.56401453 0)
(0.34668459 -0.55449203 0)
(0.33983944 -0.54503726 0)
(0.33322411 -0.53565518 0)
(0.32683598 -0.52635052 0)
(0.32067656 -0.51712779 0)
(0.31474689 -0.50799139 0)
(0.30904716 -0.49894557 0)
(0.30357663 -0.48999457 0)
(0.29833384 -0.48114255 0)
(0.29331675 -0.4723937 0)
(0.28852299 -0.46375223 0)
(0.28394995 -0.45522238 0)
(0.27959499 -0.44680845 0)
(0.27545543 -0.43851476 0)
(0.27152861 -0.43034575 0)
(0.26781189 -0.4223059 0)
(0.26430267 -0.41439977 0)
(0.26099834 -0.40663203 0)
(0.2578963 -0.39900743 0)
(0.25499392 -0.39153085 0)
(0.25228853 -0.38420726 0)
(0.24977744 -0.37704179 0)
(0.2474579 -0.37003968 0)
(0.24532711 -0.36320634 0)
(0.2433822 -0.35654732 0)
(0.24162025 -0.35006834 0)
(0.24003827 -0.34377533 0)
(0.23863319 -0.33767437 0)
(0.23740184 -0.33177177 0)
(0.23634096 -0.32607403 0)
(0.23544715 -0.32058789 0)
(0.23471689 -0.31532029 0)
(0.23414645 -0.31027844 0)
(0.23373189 -0.30546978 0)
(0.23346902 -0.30090196 0)
(0.23335327 -0.29658293 0)
(0.23337969 -0.2925208 0)
(0.23354284 -0.28872392 0)
(0.23383668 -0.2852008 0)
(0.2342545 -0.28196002 0)
(0.23478892 -0.27901017 0)
(0.23543186 -0.27635969 0)
(0.2361748 -0.27401675 0)
(0.23700826 -0.27198906 0)
(0.23791961 -0.27028349 0)
(0.23889627 -0.26890543 0)
(0.23996064 -0.26785959 0)
(0.24120973 -0.2671579 0)
(0.24246387 -0.26682613 0)
(0.36528094 -0.55626516 0)
(0.35771603 -0.54696472 0)
(0.35040881 -0.53772561 0)
(0.34335179 -0.52855252 0)
(0.33653076 -0.5194502 0)
(0.32994313 -0.51042318 0)
(0.32359031 -0.5014758 0)
(0.31747323 -0.4926123 0)
(0.31159189 -0.48383682 0)
(0.30594539 -0.47515346 0)
(0.30053204 -0.46656632 0)
(0.29534958 -0.45807949 0)
(0.2903954 -0.44969711 0)
(0.28566667 -0.44142335 0)
(0.28116051 -0.43326243 0)
(0.27687399 -0.42521864 0)
(0.27280424 -0.41729634 0)
(0.26894837 -0.40949995 0)
(0.26530354 -0.40183401 0)
(0.26186691 -0.39430312 0)
(0.25863561 -0.38691199 0)
(0.25560676 -0.37966546 0)
(0.25277744 -0.37256847 0)
(0.25014466 -0.36562608 0)
(0.24770538 -0.35884351 0)
(0.24545651 -0.35222611 0)
(0.24339487 -0.34577936 0)
(0.24151721 -0.33950894 0)
(0.23982018 -0.33342066 0)
(0.23830034 -0.32752053 0)
(0.23695415 -0.32181471 0)
(0.23577794 -0.31630957 0)
(0.2347679 -0.31101165 0)
(0.23392005 -0.30592767 0)
(0.23323022 -0.30106456 0)
(0.23269399 -0.29642943 0)
(0.23230668 -0.29202955 0)
(0.23206325 -0.28787239 0)
(0.23195826 -0.28396553 0)
(0.2319858 -0.2803167 0)
(0.2321394 -0.27693366 0)
(0.23241199 -0.27382423 0)
(0.23279588 -0.27099611 0)
(0.23328281 -0.26845684 0)
(0.23386416 -0.26621365 0)
(0.23453066 -0.26427335 0)
(0.23527062 -0.26264204 0)
(0.23607238 -0.26132448 0)
(0.23695363 -0.26032482 0)
(0.23799571 -0.25965393 0)
(0.23904909 -0.25933627 0)
(0.36965096 -0.53939754 0)
(0.3618452 -0.53037239 0)
(0.35430483 -0.52140713 0)
(0.34702146 -0.51250626 0)
(0.33998069 -0.50367436 0)
(0.33317994 -0.49491574 0)
(0.32662052 -0.48623458 0)
(0.32030318 -0.47763496 0)
(0.31422776 -0.46912089 0)
(0.30839313 -0.46069636 0)
(0.30279738 -0.45236537 0)
(0.29743803 -0.44413191 0)
(0.29231221 -0.43600004 0)
(0.28741688 -0.42797384 0)
(0.2827489 -0.42005746 0)
(0.27830513 -0.41225512 0)
(0.27408242 -0.40457111 0)
(0.27007767 -0.39700979 0)
(0.26628779 -0.38957563 0)
(0.26270969 -0.38227317 0)
(0.25934023 -0.37510708 0)
(0.25617629 -0.36808212 0)
(0.25321465 -0.36120319 0)
(0.25045206 -0.35447529 0)
(0.2478852 -0.34790356 0)
(0.24551066 -0.34149328 0)
(0.24332495 -0.33524988 0)
(0.2413245 -0.32917892 0)
(0.23950563 -0.32328611 0)
(0.23786455 -0.31757734 0)
(0.23639736 -0.31205863 0)
(0.23510002 -0.30673615 0)
(0.23396832 -0.30161625 0)
(0.23299791 -0.29670542 0)
(0.23218421 -0.2920103 0)
(0.23152241 -0.28753765 0)
(0.23100741 -0.28329439 0)
(0.23063379 -0.27928752 0)
(0.23039574 -0.27552414 0)
(0.23028701 -0.2720114 0)
(0.23030081 -0.26875649 0)
(0.23042984 -0.26576652 0)
(0.23066621 -0.2630485 0)
(0.23100156 -0.26060927 0)
(0.23142724 -0.25845534 0)
(0.23193418 -0.25659285 0)
(0.23251145 -0.25502733 0)
(0.23314827 -0.25376313 0)
(0.23385798 -0.25280398 0)
(0.23470718 -0.25215993 0)
(0.23557298 -0.25185444 0)
(0.37414532 -0.52296932 0)
(0.36608651 -0.51421076 0)
(0.35830107 -0.50551069 0)
(0.35077974 -0.49687348 0)
(0.34350798 -0.4883035 0)
(0.33648321 -0.47980487 0)
(0.32970659 -0.47138161 0)
(0.32317872 -0.46303762 0)
(0.31689921 -0.45477679 0)
(0.31086672 -0.44660299 0)
(0.3050791 -0.4385201 0)
(0.29953363 -0.43053202 0)
(0.29422723 -0.42264271 0)
(0.28915659 -0.41485616 0)
(0.28431834 -0.40717645 0)
(0.2797091 -0.3996077 0)
(0.2753255 -0.39215413 0)
(0.27116417 -0.38482004 0)
(0.26722177 -0.37760981 0)
(0.26349497 -0.37052792 0)
(0.25998039 -0.36357897 0)
(0.25667461 -0.35676766 0)
(0.25357416 -0.35009881 0)
(0.25067552 -0.34357734 0)
(0.24797506 -0.33720833 0)
(0.24546908 -0.33099698 0)
(0.24315381 -0.3249486 0)
(0.24102534 -0.31906866 0)
(0.23907969 -0.31336275 0)
(0.23731274 -0.30783662 0)
(0.23572024 -0.30249611 0)
(0.23429783 -0.29734725 0)
(0.23304094 -0.29239613 0)
(0.23194488 -0.28764903 0)
(0.23100471 -0.28311228 0)
(0.23021529 -0.27879235 0)
(0.22957119 -0.27469578 0)
(0.22906667 -0.27082918 0)
(0.22869563 -0.2671992 0)
(0.22845154 -0.26381251 0)
(0.22832743 -0.26067575 0)
(0.22831578 -0.25779549 0)
(0.22840862 -0.25517818 0)
(0.2285975 -0.25283007 0)
(0.22887377 -0.25075711 0)
(0.22922849 -0.24896496 0)
(0.22965143 -0.24745871 0)
(0.23013252 -0.24624242 0)
(0.23068125 -0.24531953 0)
(0.23135016 -0.24469937 0)
(0.23203992 -0.24440461 0)
(0.37869623 -0.50695555 0)
(0.37037492 -0.49845566 0)
(0.36233514 -0.49001295 0)
(0.35456682 -0.4816316 0)
(0.34705533 -0.4733158 0)
(0.33979807 -0.46506948 0)
(0.33279605 -0.45689648 0)
(0.32604966 -0.44880055 0)
(0.3195583 -0.44078544 0)
(0.3133204 -0.43285489 0)
(0.30733358 -0.42501267 0)
(0.30159488 -0.41726258 0)
(0.29610096 -0.40960846 0)
(0.2908483 -0.40205423 0)
(0.28583328 -0.39460386 0)
(0.28105228 -0.38726139 0)
(0.27650168 -0.38003096 0)
(0.27217789 -0.37291679 0)
(0.26807732 -0.36592317 0)
(0.26419637 -0.35905452 0)
(0.26053141 -0.35231536 0)
(0.25707877 -0.3457103 0)
(0.2538347 -0.33924409 0)
(0.2507954 -0.33292158 0)
(0.24795698 -0.32674774 0)
(0.24531545 -0.32072769 0)
(0.24286673 -0.31486663 0)
(0.24060663 -0.30916993 0)
(0.23853087 -0.30364303 0)
(0.236635 -0.29829154 0)
(0.2349145 -0.29312115 0)
(0.23336465 -0.28813767 0)
(0.23198061 -0.28334703 0)
(0.23075736 -0.27875521 0)
(0.22968966 -0.27436833 0)
(0.22877207 -0.27019252 0)
(0.2279989 -0.26623401 0)
(0.22736413 -0.26249904 0)
(0.22686143 -0.25899387 0)
(0.22648409 -0.25572473 0)
(0.22622493 -0.25269782 0)
(0.22607634 -0.24991925 0)
(0.22603023 -0.24739499 0)
(0.22607814 -0.24513082 0)
(0.22621139 -0.24313227 0)
(0.22642114 -0.24140457 0)
(0.22669771 -0.2399525 0)
(0.22703172 -0.23877991 0)
(0.22742915 -0.23789003 0)
(0.22792921 -0.23729156 0)
(0.22845323 -0.23700643 0)
(0.38324504 -0.49133389 0)
(0.37465421 -0.48308548 0)
(0.36635319 -0.47489295 0)
(0.35833117 -0.46676034 0)
(0.35057345 -0.45869163 0)
(0.34307742 -0.45069057 0)
(0.3358439 -0.44276081 0)
(0.32887308 -0.43490597 0)
(0.32216413 -0.42712964 0)
(0.31571525 -0.41943544 0)
(0.30952382 -0.41182701 0)
(0.30358662 -0.40430804 0)
(0.29790011 -0.39688229 0)
(0.2924605 -0.38955355 0)
(0.28726395 -0.38232571 0)
(0.2823066 -0.37520272 0)
(0.2775846 -0.36818863 0)
(0.2730941 -0.36128757 0)
(0.26883129 -0.35450375 0)
(0.2647923 -0.34784152 0)
(0.26097327 -0.34130529 0)
(0.25737025 -0.33489961 0)
(0.25397924 -0.32862914 0)
(0.25079617 -0.32249863 0)
(0.24781688 -0.31651299 0)
(0.2450371 -0.31067719 0)
(0.24245248 -0.30499637 0)
(0.24005855 -0.29947574 0)
(0.23785072 -0.29412064 0)
(0.23582429 -0.28893651 0)
(0.23397441 -0.28392888 0)
(0.23229612 -0.27910339 0)
(0.23078427 -0.27446574 0)
(0.22943356 -0.27002171 0)
(0.22823851 -0.26577715 0)
(0.2271934 -0.26173793 0)
(0.22629229 -0.25790997 0)
(0.22552898 -0.25429918 0)
(0.22489692 -0.25091148 0)
(0.22438924 -0.24775272 0)
(0.22399862 -0.24482873 0)
(0.22371736 -0.24214521 0)
(0.22353731 -0.23970773 0)
(0.22344996 -0.2375217 0)
(0.2234466 -0.23559226 0)
(0.22351844 -0.23392435 0)
(0.22365626 -0.23252246 0)
(0.22385132 -0.23139031 0)
(0.22410641 -0.23053095 0)
(0.22444814 -0.22995247 0)
(0.22481575 -0.22967614 0)
(0.38774145 -0.47608431 0)
(0.37887626 -0.46808081 0)
(0.37030923 -0.4601319 0)
(0.36202884 -0.45224148 0)
(0.3540204 -0.44441334 0)
(0.34628126 -0.43665104 0)
(0.33881206 -0.42895806 0)
(0.33161275 -0.42133786 0)
(0.32468228 -0.41379388 0)
(0.31801859 -0.40632962 0)
(0.31161884 -0.3989486 0)
(0.30547958 -0.3916544 0)
(0.29959701 -0.38445065 0)
(0.29396712 -0.37734106 0)
(0.28858584 -0.37032941 0)
(0.28344907 -0.36341958 0)
(0.27855274 -0.3566155 0)
(0.27389276 -0.34992122 0)
(0.26946506 -0.34334087 0)
(0.26526556 -0.3368787 0)
(0.26129011 -0.33053904 0)
(0.25753455 -0.32432637 0)
(0.2539946 -0.31824524 0)
(0.25066595 -0.31230032 0)
(0.24754415 -0.3064964 0)
(0.2446247 -0.30083839 0)
(0.24190295 -0.29533128 0)
(0.23937418 -0.28998017 0)
(0.23703354 -0.28479028 0)
(0.23487604 -0.27976689 0)
(0.23289659 -0.27491537 0)
(0.23108994 -0.2702412 0)
(0.22945071 -0.26574987 0)
(0.22797333 -0.26144696 0)
(0.22665209 -0.25733807 0)
(0.22548104 -0.25342883 0)
(0.22445404 -0.24972488 0)
(0.22356468 -0.24623186 0)
(0.22280627 -0.24295535 0)
(0.22217178 -0.2399009 0)
(0.2216538 -0.23707399 0)
(0.22124452 -0.23447999 0)
(0.22093575 -0.23212414 0)
(0.22071893 -0.2300115 0)
(0.22058531 -0.22814693 0)
(0.22052613 -0.22653506 0)
(0.2205325 -0.22518019 0)
(0.22059625 -0.22408591 0)
(0.2207174 -0.22325513 0)
(0.22091053 -0.22269534 0)
(0.22113032 -0.22242714 0)
(0.39214282 -0.46118884 0)
(0.38300038 -0.45342419 0)
(0.37416443 -0.44571287 0)
(0.36562287 -0.43805862 0)
(0.357361 -0.43046503 0)
(0.34937615 -0.42293549 0)
(0.34166875 -0.41547329 0)
(0.33423853 -0.40808175 0)
(0.3270842 -0.40076417 0)
(0.32020346 -0.39352391 0)
(0.31359321 -0.38636436 0)
(0.30724978 -0.37928899 0)
(0.30116914 -0.37230134 0)
(0.29534706 -0.365405 0)
(0.28977923 -0.35860366 0)
(0.28446133 -0.35190109 0)
(0.27938905 -0.34530113 0)
(0.27455808 -0.33880774 0)
(0.26996412 -0.33242497 0)
(0.26560284 -0.32615696 0)
(0.26146986 -0.32000799 0)
(0.25756077 -0.31398241 0)
(0.25387104 -0.30808469 0)
(0.25039611 -0.30231943 0)
(0.24713129 -0.2966913 0)
(0.24407181 -0.2912051 0)
(0.24121278 -0.28586572 0)
(0.23854922 -0.28067816 0)
(0.23607602 -0.27564747 0)
(0.23378796 -0.27077881 0)
(0.23167968 -0.26607742 0)
(0.22974571 -0.26154856 0)
(0.2279804 -0.25719759 0)
(0.22637799 -0.25302986 0)
(0.22493253 -0.24905077 0)
(0.22363787 -0.24526571 0)
(0.22248769 -0.2416801 0)
(0.2214754 -0.23829928 0)
(0.22059418 -0.23512858 0)
(0.21983686 -0.23217328 0)
(0.21919594 -0.22943854 0)
(0.21866354 -0.22692945 0)
(0.2182314 -0.22465094 0)
(0.21789093 -0.2226078 0)
(0.21763332 -0.22080462 0)
(0.21744978 -0.21924578 0)
(0.21733169 -0.2179354 0)
(0.2172714 -0.21687696 0)
(0.21726647 -0.21607324 0)
(0.21732014 -0.21553112 0)
(0.21740003 -0.21527053 0)
(0.39641354 -0.44663132 0)
(0.38699265 -0.43909996 0)
(0.37788656 -0.43162065 0)
(0.36908262 -0.42419698 0)
(0.36056619 -0.41683237 0)
(0.35233455 -0.40953001 0)
(0.34438794 -0.40229304 0)
(0.33672584 -0.3951246 0)
(0.32934672 -0.38802787 0)
(0.32224804 -0.38100607 0)
(0.31542647 -0.37406247 0)
(0.30887809 -0.36720043 0)
(0.30259865 -0.36042337 0)
(0.2965837 -0.35373479 0)
(0.29082871 -0.34713826 0)
(0.28532914 -0.34063746 0)
(0.28008046 -0.33423614 0)
(0.27507814 -0.32793817 0)
(0.27031764 -0.3217475 0)
(0.2657944 -0.3156682 0)
(0.26150381 -0.30970443 0)
(0.25744122 -0.30386046 0)
(0.25360188 -0.2981407 0)
(0.24998097 -0.29254961 0)
(0.24657356 -0.28709179 0)
(0.24337463 -0.28177194 0)
(0.24037908 -0.27659482 0)
(0.23758165 -0.27156533 0)
(0.23497703 -0.26668839 0)
(0.23255973 -0.26196903 0)
(0.23032418 -0.25741234 0)
(0.22826467 -0.25302342 0)
(0.22637535 -0.24880746 0)
(0.22465022 -0.24476964 0)
(0.22308314 -0.24091515 0)
(0.2216678 -0.2372492 0)
(0.22039768 -0.23377694 0)
(0.21926605 -0.23050351 0)
(0.21826595 -0.227434 0)
(0.2173901 -0.22457342 0)
(0.21663091 -0.22192668 0)
(0.21598043 -0.21949861 0)
(0.21543034 -0.21729388 0)
(0.214972 -0.21531702 0)
(0.21459654 -0.21357238 0)
(0.2142951 -0.21206413 0)
(0.21405925 -0.2107962 0)
(0.21388182 -0.20977197 0)
(0.21375825 -0.20899411 0)
(0.21368103 -0.20846888 0)
(0.21362844 -0.20821548 0)
(0.40052431 -0.43239724 0)
(0.39082528 -0.42509401 0)
(0.38144929 -0.41784154 0)
(0.3723832 -0.41064327 0)
(0.36361247 -0.40350245 0)
(0.35513433 -0.39642208 0)
(0.34694879 -0.38940514 0)
(0.33905512 -0.38245463 0)
(0.33145153 -0.37557357 0)
(0.32413523 -0.36876507 0)
(0.31710266 -0.36203227 0)
(0.31034969 -0.35537841 0)
(0.30387184 -0.3488068 0)
(0.29766443 -0.34232084 0)
(0.29172274 -0.33592401 0)
(0.28604201 -0.32961987 0)
(0.28061748 -0.3234121 0)
(0.27544441 -0.31730445 0)
(0.27051804 -0.3113008 0)
(0.2658336 -0.30540511 0)
(0.26138625 -0.29962148 0)
(0.2571711 -0.29395407 0)
(0.25318317 -0.28840719 0)
(0.2494174 -0.28298524 0)
(0.24586866 -0.2776927 0)
(0.24253169 -0.27253416 0)
(0.23940113 -0.2675143 0)
(0.23647153 -0.26263789 0)
(0.23373732 -0.25790974 0)
(0.23119281 -0.25333475 0)
(0.22883221 -0.24891786 0)
(0.22664958 -0.24466405 0)
(0.22463888 -0.24057833 0)
(0.22279392 -0.23666572 0)
(0.22110836 -0.23293124 0)
(0.21957571 -0.22937988 0)
(0.21818931 -0.22601663 0)
(0.21694228 -0.22284641 0)
(0.21582752 -0.21987407 0)
(0.21483766 -0.21710441 0)
(0.21396502 -0.21454213 0)
(0.21320158 -0.21219178 0)
(0.21253897 -0.21005783 0)
(0.21196847 -0.20814457 0)
(0.21148115 -0.20645612 0)
(0.21106807 -0.20499644 0)
(0.21072091 -0.2037693 0)
(0.21043292 -0.20277798 0)
(0.21019775 -0.20202501 0)
(0.20999777 -0.20151605 0)
(0.20981966 -0.20126949 0)
(0.40445155 -0.41847356 0)
(0.39447603 -0.41139366 0)
(0.38483165 -0.4043632 0)
(0.37550489 -0.39738551 0)
(0.36648133 -0.39046362 0)
(0.35775814 -0.38360039 0)
(0.34933512 -0.37679864 0)
(0.34121129 -0.3700612 0)
(0.33338461 -0.36339097 0)
(0.32585208 -0.35679093 0)
(0.31860988 -0.3502641 0)
(0.31165367 -0.34381361 0)
(0.30497875 -0.33744266 0)
(0.29858026 -0.33115453 0)
(0.29245324 -0.32495261 0)
(0.28659273 -0.31884037 0)
(0.28099378 -0.31282138 0)
(0.27565143 -0.30689932 0)
(0.27056071 -0.30107795 0)
(0.26571663 -0.29536117 0)
(0.26111413 -0.28975297 0)
(0.25674811 -0.28425743 0)
(0.25261336 -0.27887878 0)
(0.24870461 -0.2736213 0)
(0.24501649 -0.26848939 0)
(0.24154353 -0.26348756 0)
(0.23828015 -0.25862038 0)
(0.23522068 -0.25389249 0)
(0.23235934 -0.24930861 0)
(0.22969023 -0.24487352 0)
(0.22720734 -0.24059202 0)
(0.22490454 -0.23646896 0)
(0.22277559 -0.2325092 0)
(0.22081412 -0.2287176 0)
(0.21901361 -0.22509903 0)
(0.2173674 -0.22165831 0)
(0.21586868 -0.21840024 0)
(0.21451044 -0.21532955 0)
(0.21328546 -0.2124509 0)
(0.21218627 -0.20976889 0)
(0.2112051 -0.20728799 0)
(0.21033385 -0.20501256 0)
(0.2095641 -0.20294685 0)
(0.20888708 -0.20109492 0)
(0.20829376 -0.1994607 0)
(0.20777509 -0.19804793 0)
(0.20732282 -0.19686022 0)
(0.20693055 -0.19590075 0)
(0.20659048 -0.19517191 0)
(0.20627545 -0.19467871 0)
(0.20597839 -0.19443871 0)
(0.40817683 -0.4048486 0)
(0.39792759 -0.39798753 0)
(0.38801748 -0.39117457 0)
(0.37843262 -0.3844129 0)
(0.36915875 -0.3777054 0)
(0.36019299 -0.37105475 0)
(0.35153491 -0.36446361 0)
(0.34318329 -0.35793469 0)
(0.33513586 -0.35147075 0)
(0.32738937 -0.34507463 0)
(0.31993979 -0.33874925 0)
(0.31278255 -0.33249761 0)
(0.30591276 -0.32632281 0)
(0.29932535 -0.32022803 0)
(0.29301517 -0.31421656 0)
(0.28697706 -0.30829177 0)
(0.28120587 -0.30245713 0)
(0.27569643 -0.29671622 0)
(0.27044358 -0.29107274 0)
(0.26544211 -0.28553048 0)
(0.26068676 -0.28009334 0)
(0.2561722 -0.27476533 0)
(0.25189303 -0.26955057 0)
(0.24784377 -0.26445327 0)
(0.24401882 -0.25947775 0)
(0.2404125 -0.25462838 0)
(0.23701904 -0.24990967 0)
(0.23383254 -0.24532615 0)
(0.23084702 -0.24088242 0)
(0.22805637 -0.23658316 0)
(0.22545441 -0.23243304 0)
(0.2230348 -0.2284368 0)
(0.22079112 -0.22459915 0)
(0.21871681 -0.22092481 0)
(0.21680519 -0.21741851 0)
(0.21504945 -0.2140849 0)
(0.21344262 -0.21092862 0)
(0.21197757 -0.20795423 0)
(0.21064695 -0.20516623 0)
(0.20944319 -0.202569 0)
(0.20835845 -0.20016684 0)
(0.20738455 -0.19796391 0)
(0.206513 -0.19596426 0)
(0.20573497 -0.19417175 0)
(0.20504134 -0.1925901 0)
(0.20442295 -0.19122285 0)
(0.20387152 -0.19007344 0)
(0.203381 -0.18914494 0)
(0.2029424 -0.1884396 0)
(0.20251968 -0.18796177 0)
(0.2021099 -0.18772809 0)
(0.41168628 -0.39151184 0)
(0.40116711 -0.38486537 0)
(0.39099487 -0.37826566 0)
(0.38115544 -0.37171574 0)
(0.37163469 -0.36521832 0)
(0.36242971 -0.35877594 0)
(0.35353985 -0.35239112 0)
(0.34496365 -0.34606641 0)
(0.33669859 -0.33980447 0)
(0.3287412 -0.33360799 0)
(0.32108723 -0.32747979 0)
(0.31373192 -0.32142277 0)
(0.30667017 -0.31543989 0)
(0.29989672 -0.30953426 0)
(0.29340622 -0.30370904 0)
(0.28719334 -0.29796752 0)
(0.28125272 -0.29231308 0)
(0.27557901 -0.28674921 0)
(0.27016684 -0.28127951 0)
(0.26501081 -0.27590769 0)
(0.26010546 -0.27063756 0)
(0.25544527 -0.26547305 0)
(0.25102462 -0.26041818 0)
(0.24683781 -0.25547709 0)
(0.24287907 -0.250654 0)
(0.23914251 -0.24595321 0)
(0.23562214 -0.24137911 0)
(0.23231187 -0.23693614 0)
(0.22920553 -0.23262881 0)
(0.22629683 -0.22846168 0)
(0.22357936 -0.22443932 0)
(0.22104664 -0.22056633 0)
(0.21869204 -0.21684731 0)
(0.21650885 -0.21328687 0)
(0.21449022 -0.20988956 0)
(0.21262918 -0.20665992 0)
(0.21091862 -0.20360242 0)
(0.20935128 -0.20072148 0)
(0.2079197 -0.19802142 0)
(0.2066162 -0.19550646 0)
(0.20543285 -0.19318073 0)
(0.20436142 -0.19104821 0)
(0.20339333 -0.18911274 0)
(0.20251969 -0.187378 0)
(0.20173131 -0.18584751 0)
(0.20101887 -0.18452461 0)
(0.20037403 -0.18341255 0)
(0.19979103 -0.18251428 0)
(0.19925998 -0.18183193 0)
(0.19873658 -0.18136915 0)
(0.19822001 -0.18114159 0)
(0.41497011 -0.37845383 0)
(0.40418563 -0.37201798 0)
(0.39375572 -0.36562748 0)
(0.38366603 -0.35928524 0)
(0.37390263 -0.35299383 0)
(0.36446254 -0.34675564 0)
(0.35534491 -0.34057305 0)
(0.34654802 -0.33444849 0)
(0.33806914 -0.32838447 0)
(0.32990457 -0.3223836 0)
(0.32204986 -0.31644856 0)
(0.31450005 -0.31058214 0)
(0.30724985 -0.30478721 0)
(0.30029381 -0.29906676 0)
(0.29362642 -0.29342386 0)
(0.28724214 -0.2878617 0)
(0.28113545 -0.28238357 0)
(0.2753008 -0.27699287 0)
(0.26973264 -0.27169311 0)
(0.26442538 -0.26648792 0)
(0.25937337 -0.26138102 0)
(0.25457088 -0.25637626 0)
(0.25001212 -0.25147759 0)
(0.24569118 -0.24668903 0)
(0.24160209 -0.24201474 0)
(0.23773878 -0.23745893 0)
(0.23409505 -0.23302589 0)
(0.23066464 -0.22871998 0)
(0.22744118 -0.22454561 0)
(0.22441819 -0.22050723 0)
(0.22158909 -0.21660931 0)
(0.21894721 -0.21285634 0)
(0.21648576 -0.20925282 0)
(0.21419785 -0.20580321 0)
(0.21207648 -0.20251196 0)
(0.21011453 -0.19938346 0)
(0.20830474 -0.19642205 0)
(0.20663972 -0.19363201 0)
(0.20511191 -0.1910175 0)
(0.20371351 -0.18858261 0)
(0.20243652 -0.18633127 0)
(0.2012726 -0.18426731 0)
(0.20021315 -0.18239438 0)
(0.19924919 -0.18071598 0)
(0.19837143 -0.17923542 0)
(0.19757042 -0.17795585 0)
(0.19683772 -0.17688034 0)
(0.19616778 -0.17601169 0)
(0.19555009 -0.17535189 0)
(0.19493274 -0.17490389 0)
(0.19431501 -0.17468227 0)
(0.4180221 -0.36566607 0)
(0.40697767 -0.35943702 0)
(0.39629525 -0.35325189 0)
(0.38596031 -0.34711347 0)
(0.37595914 -0.34102418 0)
(0.36628869 -0.33498629 0)
(0.35694789 -0.32900204 0)
(0.34793481 -0.32307375 0)
(0.33924648 -0.31720381 0)
(0.33087901 -0.31139471 0)
(0.32282775 -0.30564902 0)
(0.31508753 -0.29996941 0)
(0.30765291 -0.29435866 0)
(0.30051824 -0.28881964 0)
(0.29367784 -0.28335535 0)
(0.28712601 -0.27796886 0)
(0.28085705 -0.27266339 0)
(0.27486523 -0.26744223 0)
(0.26914483 -0.26230883 0)
(0.26369007 -0.25726671 0)
(0.25849512 -0.25231952 0)
(0.25355406 -0.24747103 0)
(0.24886091 -0.24272509 0)
(0.24440959 -0.23808566 0)
(0.24019393 -0.23355681 0)
(0.23620767 -0.22914265 0)
(0.23244444 -0.22484741 0)
(0.22889779 -0.22067534 0)
(0.22556116 -0.21663077 0)
(0.22242789 -0.21271804 0)
(0.21949125 -0.20894154 0)
(0.21674437 -0.20530566 0)
(0.2141803 -0.20181476 0)
(0.211792 -0.19847322 0)
(0.2095723 -0.19528536 0)
(0.20751393 -0.19225546 0)
(0.2056095 -0.18938772 0)
(0.20385148 -0.18668629 0)
(0.20223217 -0.1841552 0)
(0.20074371 -0.18179837 0)
(0.19937798 -0.17961961 0)
(0.19812659 -0.17762257 0)
(0.19698083 -0.17581073 0)
(0.19593169 -0.1741874 0)
(0.1949698 -0.17275571 0)
(0.19408552 -0.1715186 0)
(0.19327029 -0.17047893 0)
(0.19251873 -0.16963936 0)
(0.19181997 -0.16900174 0)
(0.1911151 -0.16856832 0)
(0.19040161 -0.16835248 0)
(0.42083915 -0.35314081 0)
(0.40954076 -0.34711493 0)
(0.39861159 -0.3411315 0)
(0.38803699 -0.3351932 0)
(0.37780347 -0.32930233 0)
(0.36790794 -0.32346102 0)
(0.35834909 -0.3176714 0)
(0.34912481 -0.31193568 0)
(0.3402319 -0.30625614 0)
(0.33166626 -0.30063516 0)
(0.32342307 -0.29507518 0)
(0.31549698 -0.28957879 0)
(0.30788236 -0.28414864 0)
(0.30057342 -0.27878753 0)
(0.29356431 -0.27349833 0)