/*--------------------------------*- C++ -*----------------------------------*\
| =========                 |                                                 |
| \\      /  F ield         | OpenFOAM: The Open Source CFD Toolbox           |
|  \\    /   O peration     | Version:  2312                                  |
|   \\  /    A nd           | Website:  www.openfoam.com                      |
|    \\/     M anipulation  |                                                 |
\*---------------------------------------------------------------------------*/
FoamFile
{
    version     2.0;
    format      ascii;
    arch        "LSB;label=32;scalar=64";
    class       volScalarField;
    location    "0.08";
    object      f_Bilger;
}
// * * * * * * * * * * * * * * * * * * * * * * * * * * * * * * * * * * * * * //

dimensions      [0 0 0 0 0 0 0];

internalField   nonuniform List<scalar> 
3224
(
0.012990218
0.012581757
0.012187324
0.011806637
0.011439433
0.011085452
0.010744436
0.010416126
0.01010027
0.0097966162
0.009504923
0.0092249528
0.0089564752
0.0086992666
0.0084531112
0.0082178004
0.0079931336
0.007778918
0.007574969
0.00738111
0.0071971726
0.0070229968
0.0068584308
0.006703331
0.0065575622
0.0064209977
0.0062935189
0.0061750157
0.0060653859
0.0059645362
0.0058723812
0.0057888439
0.0057138555
0.0056473556
0.0055892923
0.0055396219
0.0054983095
0.0054653292
0.0054406656
0.0054243076
0.0054161915
0.01299005
0.012581696
0.012187358
0.01180674
0.011439589
0.011085652
0.010744672
0.010416395
0.010100566
0.0097969386
0.0095052687
0.0092253199
0.0089568618
0.0086996714
0.0084535326
0.0082182372
0.0079935847
0.0077793823
0.0075754455
0.0073815978
0.0071976709
0.0070235048
0.0068589476
0.006703856
0.0065580948
0.0064215372
0.0062940646
0.006175567
0.0060659424
0.0059650972
0.0058729463
0.0057894125
0.0057144271
0.0056479299
0.0055898687
0.0055401999
0.0054988886
0.0054659084
0.0054412413
0.0054248717
0.005416762
0.012989293
0.012581091
0.012186868
0.011806341
0.011439266
0.011085396
0.010744476
0.010416252
0.010100474
0.009796892
0.009505265
0.009225356
0.0089569351
0.0086997794
0.0084536732
0.0082184082
0.007993784
0.0077796082
0.0075756962
0.0073818716
0.0071979662
0.0070238201
0.0068592815
0.0067042071
0.0065584617
0.0064219187
0.0062944595
0.0061759741
0.0060663605
0.0059655253
0.0058733833
0.0057898573
0.0057148788
0.0056483874
0.005590331
0.0055406661
0.0054993576
0.0054663786
0.0054417088
0.0054253259
0.0054172178
0.012987949
0.012579928
0.012185836
0.01180542
0.011438444
0.011084662
0.010743825
0.010415678
0.01009997
0.0097964549
0.0095048901
0.0092250396
0.0089566736
0.0086995694
0.0084535116
0.008218292
0.0079937105
0.0077795747
0.0075757001
0.0073819104
0.0071980377
0.007023922
0.0068594117
0.0067043635
0.0065586425
0.0064221218
0.0062946832
0.0061762166
0.0060666201
0.0059658003
0.005873672
0.0057901583
0.0057151905
0.0056487082
0.0055906594
0.0055410005
0.0054996965
0.0054667202
0.0054420486
0.005425651
0.0054175391
0.013408093
0.012986063
0.012578192
0.012184241
0.011803955
0.011437099
0.01108343
0.010742698
0.010414649
0.010099033
0.0097956052
0.0095041222
0.0092243488
0.0089560554
0.0086990196
0.0084530261
0.008217867
0.0079933424
0.00777926
0.0075754354
0.0073816927
0.0071978638
0.007023789
0.0068593168
0.006704304
0.0065586157
0.0064221252
0.0062947144
0.0061762732
0.0060666999
0.005965901
0.0058737914
0.0057902943
0.005715341
0.0056488712
0.0055908328
0.0055411823
0.0054998845
0.0054669122
0.0054422404
0.0054258286
0.0054177107
0.013405728
0.012983726
0.012575999
0.012182193
0.011802048
0.011435327
0.011081785
0.010741172
0.010413237
0.010097729
0.0097944014
0.0095030139
0.0092233306
0.0089551224
0.0086981669
0.008452249
0.0082171613
0.0079927038
0.0077786843
0.007574919
0.0073812317
0.0071974547
0.0070234284
0.0068590013
0.0067040304
0.006558381
0.0064219264
0.0062945486
0.0061761376
0.0060665918
0.0059658179
0.0058737307
0.0057902534
0.0057153174
0.0056488625
0.0055908366
0.0055411961
0.0054999058
0.0054669387
0.0054422682
0.0054258449
0.0054177213
0.013402868
0.012981009
0.012573434
0.012179779
0.011799784
0.011433209
0.011079806
0.010739325
0.010411515
0.010096126
0.0097929109
0.0095016298
0.0092220471
0.0089539339
0.0086970682
0.0084512351
0.0082162273
0.0079918449
0.0077778962
0.0075741973
0.0073805723
0.0071968536
0.0070228818
0.0068585055
0.0067035818
0.0065579761
0.0064215621
0.0062942215
0.0061758446
0.0060663298
0.0059655839
0.0058735219
0.005790067
0.0057151507
0.0056487126
0.0055907008
0.0055410717
0.0054997901
0.0054668288
0.0054421605
0.0054257298
0.005417599
0.013399336
0.012977689
0.012570285
0.012176802
0.01179698
0.011430572
0.011077331
0.010737005
0.010409342
0.010094092
0.0097910102
0.0094998547
0.009220391
0.0089523903
0.008695631
0.0084498983
0.0082149851
0.007990692
0.0077768273
0.0075732073
0.0073796563
0.0071960069
0.0070220998
0.0068577839
0.0067029165
0.0065573629
0.0064209969
0.0062937007
0.0061753644
0.0060658866
0.0059651743
0.0058731423
0.0057897142
0.0057148212
0.0056484034
0.0055904085
0.0055407931
0.0054995219
0.0054665675
0.0054419023
0.0054254671
0.0054173298
0.013831136
0.013395158
0.012973715
0.012566504
0.012173216
0.01179359
0.011427376
0.011074321
0.010734173
0.010406681
0.010091593
0.0097886653
0.009497656
0.0092183309
0.0089504614
0.0086938262
0.0084482107
0.0082134082
0.0079892194
0.0077754529
0.0075719251
0.0073784607
0.0071948924
0.0070210612
0.006856816
0.0067020143
0.0065565218
0.0064202123
0.006292968
0.0061746793
0.006065245
0.0059645719
0.0058725753
0.0057891785
0.0057143131
0.005647919
0.0055899441
0.0055403449
0.005499086
0.0054661401
0.0054414788
0.0054250415
0.0054168989
0.013826089
0.01339026
0.012969032
0.012562037
0.012168971
0.011789569
0.011423574
0.011070732
0.01073079
0.010403492
0.010088591
0.0097858405
0.0094949997
0.0092158342
0.008948116
0.0086916238
0.0084461437
0.0082114689
0.0079874005
0.0077737473
0.0075703262
0.0073769619
0.0071934874
0.0070197438
0.0068555804
0.0067008549
0.006555433
0.0064191888
0.0062920046
0.0061737711
0.0060643871
0.0059637596
0.0058718039
0.0057884435
0.0057136101
0.0056472435
0.0055892919
0.0055397115
0.0054984671
0.0054655311
0.005440875
0.0054244376
0.0054162908
0.014270995
0.013820175
0.013384567
0.012963578
0.012556829
0.012164016
0.011784867
0.011419121
0.011066521
0.010726811
0.010399736
0.010085048
0.0097824988
0.0094918499
0.0092128667
0.0089453212
0.0086889926
0.008443667
0.0082091382
0.0079852075
0.0077716841
0.0075683849
0.0073751351
0.0071917679
0.0070181247
0.0068540551
0.0066994167
0.0065540757
0.0064179064
0.0062907912
0.0061726209
0.0060632945
0.0059627193
0.0058708105
0.0057874919
0.0057126952
0.0056463604
0.0055884355
0.0055388769
0.0054976493
0.005464725
0.0054400753
0.0054236396
0.0054154899
0.014263806
0.013813336
0.013378002
0.012957288
0.01255082
0.012158294
0.011779432
0.011413968
0.011061641
0.010722193
0.01039537
0.010080921
0.0097786007
0.0094881692
0.0092093923
0.0089420425
0.0086858992
0.0084407489
0.0082063857
0.0079826112
0.0077692349
0.0075660742
0.0073729544
0.007189709
0.0070161798
0.0068522165
0.0066976772
0.0065524282
0.0064163439
0.0062893071
0.0061712087
0.0060619478
0.005961432
0.0058695767
0.0057863057
0.0057115508
0.0056452521
0.0055873577
0.0055378241
0.0054966159
0.0054637052
0.0054390633
0.0054226311
0.0054144795
0.014721167
0.014255567
0.013805495
0.013370489
0.012950094
0.01254395
0.012151749
0.01177321
0.011408062
0.011056041
0.010716888
0.010390347
0.010076168
0.0097741048
0.0094839178
0.0092053731
0.0089382435
0.0086823088
0.0084373559
0.0082031792
0.0079795806
0.0077663701
0.0075633654
0.0073703921
0.0071872842
0.0070138835
0.0068500402
0.0066956126
0.0065504673
0.0064144789
0.0062875306
0.0061695133
0.0060603265
0.0059598778
0.0058680828
0.0057848655
0.0057101579
0.0056439001
0.0055860405
0.0055365352
0.0054953491
0.0054624543
0.0054378219
0.0054213946
0.0054132421
0.014711272
0.014246202
0.013796572
0.013361949
0.012941925
0.012536151
0.012144319
0.011766142
0.011401348
0.011049669
0.010710846
0.01038462
0.010070743
0.0097689671
0.0094790536
0.0092007687
0.0089338856
0.0086781844
0.0084334525
0.0081994846
0.0079760831
0.0077630584
0.0075602284
0.0073674193
0.0071844654
0.0070112087
0.0068475
0.0066931977
0.0065481686
0.0064122879
0.0062854387
0.0061675125
0.0060584088
0.0059580354
0.0058663082
0.0057831513
0.0057084969
0.0056422851
0.0055844645
0.0055349913
0.0054938304
0.0054609537
0.0054363326
0.0054199117
0.0054117594
0.015180382
0.014700113
0.01423562
0.013786484
0.013352306
0.012932708
0.012527355
0.012135937
0.011758167
0.011393767
0.01104247
0.010704013
0.010378139
0.010064597
0.0097631415
0.0094735323
0.0091955367
0.0089289281
0.008673487
0.0084290012
0.008195266
0.0079720842
0.0077592664
0.0075566313
0.0073640053
0.007181223
0.007008127
0.0068445683
0.0066904057
0.0065455064
0.0064097458
0.0062830073
0.0061651827
0.0060561717
0.0059558825
0.005864231
0.0057811416
0.0057065466
0.0056403864
0.0055826095
0.0055331724
0.0054920399
0.005459184
0.0054345761
0.0054181632
0.0054100119
0.015167162
0.014687598
0.014223729
0.013775146
0.013341477
0.012922367
0.01251749
0.012126537
0.01174922
0.011385259
0.011034385
0.010696335
0.01037085
0.01005768
0.009756579
0.0094673074
0.0091896324
0.0089233281
0.0086681754
0.0084239627
0.0081904855
0.0079675474
0.0077549593
0.0075525404
0.0073601175
0.0071775258
0.0070046082
0.006841216
0.0066872086
0.0065424534
0.0064068262
0.0062802107
0.006162499
0.0060535911
0.0059533953
0.0058618281
0.0057788137
0.0057042849
0.0056381821
0.005580454
0.0055310573
0.0054899567
0.0054571244
0.0054325319
0.0054161286
0.0054079793
0.015647248
0.015152423
0.014673622
0.014210433
0.01376247
0.013329379
0.012910822
0.01250648
0.012116047
0.011739233
0.011375759
0.011025353
0.010687752
0.010362698
0.010049938
0.0097492285
0.0094603295
0.0091830087
0.0089170405
0.0086622065
0.0084182954
0.0081851034
0.0079624345
0.0077501003
0.0075479203
0.007355722
0.0071733409
0.0070006205
0.0068374125
0.0066835767
0.0065389809
0.0064035013
0.0062770219
0.0061594351
0.0060506413
0.0059505491
0.005859075
0.0057761439
0.0057016884
0.0056356494
0.0055779755
0.0055286238
0.0054875589
0.0054547531
0.0054301784
0.0054137862
0.0054056399
0.015629959
0.015136042
0.014658075
0.014195638
0.013748367
0.013315926
0.012897991
0.012494246
0.012104391
0.011728134
0.011365198
0.011015309
0.010678203
0.010353622
0.010041315
0.009741036
0.0094525471
0.0091756162
0.008910018
0.0086555347
0.0084119556
0.0081790776
0.0079567052
0.0077446505
0.0075427337
0.0073507828
0.0071686337
0.0069961306
0.0068331256
0.0066794789
0.0065350588
0.0063997418
0.0062734124
0.0061559634
0.0060472954
0.0059473174
0.0058559463
0.005773107
0.0056987326
0.005632764
0.0055751502
0.0055258483
0.0054848232
0.0054520473
0.0054274928
0.0054111135
0.0054029711
0.015610785
0.015117903
0.014640851
0.014179243
0.013732743
0.013301029
0.012883786
0.012480706
0.012091491
0.01171585
0.011353505
0.011004184
0.010667622
0.010343561
0.010031751
0.0097319449
0.0094439062
0.009167403
0.0089022108
0.0086481124
0.0084048977
0.0081723643
0.0079503173
0.0077385695
0.0075369416
0.0073452623
0.007163368
0.0069911035
0.0068283214
0.0066748824
0.0065306553
0.006395517
0.0062693525
0.0061520549
0.0060435253
0.0059436729
0.005852415
0.0057696768
0.0056953915
0.0056295006
0.0055719531
0.0055227063
0.0054817254
0.0054489828
0.0054244511
0.0054080866
0.005399949
0.01558965
0.015097903
0.014621845
0.014161149
0.013715502
0.013284595
0.01286812
0.012465776
0.012077265
0.011702302
0.011340607
0.010991909
0.010655943
0.010332452
0.010021184
0.0097218963
0.0094343501
0.0091583149
0.008893567
0.0086398898
0.0083970739
0.0081649176
0.0079432267
0.0077318147
0.0075305031
0.0073391211
0.0071575058
0.0069855026
0.0068229645
0.006669753
0.0065257373
0.0063907947
0.0062648109
0.0061476792
0.0060393012
0.0059395866
0.0058484528
0.0057658255
0.0056916382
0.0056258326
0.005568358
0.005519172
0.0054782399
0.0054455344
0.0054210284
0.0054046805
0.0053965489
0.016072949
0.015566509
0.015075938
0.014600952
0.014141253
0.013696545
0.013266527
0.012850899
0.012449364
0.01206163
0.01168741
0.011326427
0.01097841
0.010643095
0.010320226
0.010009551
0.0097108285
0.0094238198
0.0091482955
0.0088840324
0.0086308148
0.0083884341
0.0081566894
0.0079353872
0.0077243419
0.0075233755
0.0073323181
0.0071510074
0.0069792894
0.006817018
0.0066640549
0.0065202701
0.0063855414
0.006259755
0.0061428046
0.0060345924
0.0059350283
0.0058440303
0.0057615243
0.0056874444
0.0056217322
0.0055643376
0.0055152184
0.0054743401
0.0054416756
0.0054171984
0.0054008691
0.0053927447
0.016046379
0.015541231
0.015051892
0.01457806
0.014119448
0.013675767
0.013246726
0.012832028
0.012431381
0.012044496
0.011671088
0.011310883
0.010963609
0.010629005
0.010306813
0.009996785
0.0096986773
0.009412254
0.0091372858
0.0088735505
0.0086208333
0.0083789265
0.0081476298
0.0079267509
0.0077161048
0.0075155144
0.0073248104
0.0071438315
0.0069724243
0.0068104432
0.0066577508
0.0065142176
0.006379722
0.0062541507
0.006137398
0.0060293666
0.0059299667
0.0058391168
0.0057567433
0.0056827805
0.0056171705
0.0055598634
0.0055108174
0.0054699982
0.005437379
0.0054129338
0.0053966253
0.0053885091
0.017073798
0.016537303
0.01601744
0.015513669
0.015025641
0.014553052
0.014095621
0.013653062
0.013225088
0.012811408
0.012411731
0.012025772
0.011653251
0.011293892
0.010947428
0.010613596
0.010292141
0.0099828155
0.0096853764
0.0093995889
0.0091252249
0.0088620629
0.0086098892
0.008368497
0.0081376872
0.007917268
0.0077070556
0.0075068736
0.0073165537
0.0071359353
0.0069648657
0.0068032002
0.006650802
0.0065075423
0.0063733002
0.0062479628
0.0061314251
0.0060235902
0.0059243691
0.0058336805
0.0057514512
0.005677616
0.0056121174
0.0055549058
0.0055059398
0.0054651854
0.0054326159
0.0054082062
0.0053919209
0.0053838142
0.017590438
0.017039045
0.016504286
0.015985969
0.015483672
0.014997051
0.014525807
0.014069658
0.01362832
0.013201508
0.012788935
0.012390315
0.012005365
0.011633808
0.011275369
0.010929784
0.01059679
0.010276135
0.0099675711
0.009670857
0.0093857588
0.0091120496
0.0088495091
0.0085979245
0.0083570901
0.0081268078
0.007906887
0.0076971446
0.0074974054
0.0073075018
0.0071272743
0.0069565708
0.0067952475
0.0066431685
0.0065002054
0.0063662382
0.0062411546
0.0061248503
0.0060172288
0.0059182017
0.0058276882
0.0057456156
0.0056719191
0.0056065417
0.0055494342
0.0055005553
0.0054598717
0.0054273569
0.0054029862
0.0053867265
0.0053786306
0.017550829
0.017001361
0.016468429
0.015951793
0.015451088
0.014965987
0.014496198
0.014041438
0.013601425
0.013175875
0.012764506
0.012367033
0.011983179
0.011612667
0.011255226
0.010910593
0.010578507
0.010258718
0.009950978
0.0096550482
0.0093706958
0.0090976949
0.0088358266
0.0085848791
0.0083446481
0.0081149364
0.0078955546
0.0076863208
0.0074870605
0.0072976074
0.0071178027
0.0069474954
0.0067865425
0.0066348088
0.0064921668
0.0063584973
0.0062336885
0.0061176369
0.0060102465
0.0059114296
0.0058211059
0.0057392032
0.0056656572
0.0056004113
0.0055434168
0.0054946328
0.0054540263
0.0054215712
0.0053972434
0.0053810119
0.0053729282
0.017507939
0.016960543
0.016429564
0.015914748
0.015415767
0.014932313
0.014464098
0.014010841
0.013572261
0.013148078
0.012738012
0.012341783
0.011959114
0.011589733
0.011233372
0.010889768
0.010558664
0.01023981
0.0099329602
0.0096378775
0.0093543303
0.0090820941
0.0088209514
0.0085706918
0.008331112
0.0081020164
0.0078832165
0.0076745316
0.0074757885
0.0072868218
0.0071074736
0.0069375942
0.0067770412
0.0066256805
0.0064833854
0.0063500374
0.0062255256
0.0061097471
0.0060026066
0.0059040169
0.0058138985
0.0057321797
0.0056587966
0.0055936932
0.0055368212
0.0054881402
0.0054476176
0.0054152276
0.0053909468
0.0053747463
0.0053666762
0.017461584
0.01691641
0.016387524
0.015874677
0.015377563
0.014895889
0.014429374
0.01397774
0.013540709
0.013118003
0.012709345
0.012314458
0.011933071
0.011564911
0.011209715
0.010867222
0.010537176
0.01021933
0.0099134404
0.0096192706
0.0093365911
0.009065179
0.0088048181
0.0085552996
0.0083164216
0.0080879897
0.0078698168
0.0076617234
0.0074635375
0.0072750949
0.0070962389
0.0069268205
0.0067666988
0.0066157401
0.0064738191
0.0063408178
0.0062166263
0.0061011423
0.0059942714
0.005895927
0.0058060303
0.00572451
0.0056513029
0.0055863536
0.0055296141
0.0054810446
0.005440613
0.0054082938
0.0053840644
0.0053678977
0.0053598428
0.017411594
0.016868793
0.016342152
0.015831429
0.01533633
0.014856577
0.014391895
0.01394201
0.013506647
0.013085533
0.012678393
0.012284954
0.011904946
0.011538103
0.011184162
0.010842864
0.010513958
0.010197197
0.0098923398
0.0095991521
0.009317406
0.0090468802
0.0087873602
0.0085386387
0.0083005154
0.0080727973
0.0078552987
0.0076478415
0.007450255
0.0072623762
0.0070840495
0.0069151273
0.0067554694
0.0066049435
0.0064634249
0.0063307968
0.0062069501
0.0060917833
0.0059852027
0.0058871226
0.0057974646
0.0057161583
0.0056431411
0.0055783579
0.0055217616
0.0054733127
0.0054329795
0.0054007372
0.0053765637
0.0053604338
0.0053523957
0.0173578
0.016817533
0.016293296
0.015784854
0.015291925
0.014814239
0.014351528
0.013903524
0.013469955
0.013050552
0.012645044
0.012253162
0.011874638
0.01150921
0.011156617
0.010816605
0.010488923
0.010173327
0.0098695789
0.0095774459
0.0092967019
0.0090271276
0.0087685104
0.0085206445
0.0082833314
0.0080563795
0.0078396049
0.0076328307
0.0074358877
0.0072486142
0.007070856
0.0069024665
0.0067433068
0.0065932456
0.0064521595
0.0063199324
0.0061964561
0.0060816302
0.0059753617
0.0058775657
0.0057881645
0.0057070885
0.0056342756
0.0055696715
0.0055132294
0.0054649106
0.0054246837
0.0053925245
0.0053684118
0.005352322
0.0053443023
0.017300039
0.016762472
0.016240804
0.015734805
0.015244203
0.014768735
0.01430814
0.013862154
0.013430511
0.013012944
0.012609187
0.012218975
0.011842043
0.011478133
0.011126987
0.010788353
0.010461984
0.010147637
0.0098450781
0.0095540755
0.0092744056
0.0090058511
0.0087482012
0.0085012522
0.0082648072
0.0080386765
0.0078226776
0.0076166354
0.0074203821
0.0072337574
0.0070566084
0.00688879
0.0067301644
0.0065806016
0.0064399791
0.006308182
0.0061851032
0.006070643
0.0059647094
0.0058672183
0.0057780929
0.0056972642
0.0056246708
0.0055602591
0.005503983
0.0054558041
0.005415692
0.0053836226
0.0053595755
0.0053435292
0.0053355297
0.017238147
0.016703453
0.016184525
0.015681138
0.015193025
0.014719931
0.014261601
0.013817775
0.013388193
0.012972593
0.012570711
0.012182287
0.01180706
0.011444775
0.011095177
0.010758019
0.010433054
0.010120045
0.0098187581
0.0095289648
0.0092504439
0.0089829803
0.0087263653
0.0084803971
0.0082448808
0.0080196285
0.0078044595
0.0075992003
0.0074036848
0.0072177542
0.0070412572
0.0068740499
0.006715996
0.0065669665
0.0064268403
0.0062955036
0.0061728502
0.0060587817
0.0059532069
0.0058560425
0.0057672126
0.005686649
0.005614291
0.0055500858
0.0054939878
0.0054459595
0.0054059706
0.005373998
0.0053500219
0.0053340226
0.0053260452
0.017171963
0.016640323
0.016124312
0.015623709
0.015138253
0.014667693
0.014211782
0.013770264
0.013342884
0.012929384
0.012529506
0.012142993
0.011769588
0.011409039
0.011061096
0.010725513
0.01040205
0.010090469
0.0097905404
0.0095020387
0.0092247449
0.0089584462
0.0087029362
0.0084580153
0.0082234907
0.0079991763
0.0077848935
0.0075804706
0.0073857431
0.0072005539
0.0070247532
0.0068581987
0.0067007554
0.0065522958
0.0064126999
0.0062818552
0.0061596567
0.0060460068
0.0059408156
0.0058440006
0.0057554868
0.0056752069
0.005603101
0.0055391169
0.0054832099
0.0054353429
0.0053954865
0.0053636179
0.0053397183
0.0053237696
0.0053158162
0.017101331
0.016572934
0.016060022
0.01556238
0.015079752
0.014611893
0.014158559
0.013719501
0.013294469
0.012883209
0.012485467
0.012100991
0.011729529
0.011370831
0.011024653
0.010690751
0.010368887
0.010058829
0.0097603489
0.0094732241
0.0091972383
0.0089321813
0.0086778491
0.0084340446
0.0082005769
0.0079772624
0.0077639243
0.0075603928
0.0073665054
0.0071821066
0.0070070483
0.0068411899
0.0066843978
0.0065365459
0.0063975157
0.0062671959
0.0061454826
0.0060322796
0.0059274978
0.0058310558
0.0057428797
0.0056629028
0.0055910663
0.0055273186
0.0054716158
0.0054239215
0.005384207
0.00535245
0.0053286327
0.0053127385
0.005304811
0.0170261
0.01650114
0.015991517
0.015497019
0.015017396
0.014552406
0.014101813
0.013665372
0.013242837
0.01283396
0.012438492
0.012056184
0.011686789
0.011330063
0.010985761
0.010653648
0.010333487
0.010025049
0.0097281103
0.0094424505
0.0091678564
0.0089041205
0.0086510416
0.0084084248
0.0081760818
0.0079538312
0.0077414983
0.0075389154
0.0073459219
0.0071623643
0.0069880962
0.0068229787
0.0066668798
0.006519675
0.0063812471
0.0062514862
0.0061302898
0.0060175627
0.0059132171
0.0058171727
0.0057293564
0.0056497027
0.0055781535
0.0055146581
0.0054591733
0.0054116636
0.0053721007
0.0053404633
0.0053167341
0.0053008984
0.0052929989
0.01694613
0.016424809
0.015918669
0.015427502
0.014951064
0.014489119
0.014041434
0.01360777
0.013187886
0.01278154
0.012388486
0.012008481
0.011641281
0.011286647
0.010944341
0.010614126
0.010295774
0.0099890574
0.0096937552
0.0094096513
0.0091365353
0.0088742025
0.0086224545
0.0083810992
0.0081499507
0.0079288299
0.0077175647
0.0075159893
0.0073239454
0.0071412814
0.0069678529
0.0068035226
0.0066481603
0.0065016431
0.0063638554
0.0062346886
0.0061140417
0.0060018207
0.005897939
0.0058023174
0.0057148841
0.0056355743
0.0055643309
0.0055011042
0.0054458518
0.0053985388
0.0053591378
0.0053276281
0.0053039932
0.0052882201
0.0052803508
0.016861293
0.016343816
0.015841358
0.015353715
0.014880647
0.014421925
0.013977319
0.013546597
0.013129522
0.012725856
0.012335361
0.011957796
0.011592924
0.011240509
0.010900316
0.010572115
0.010255679
0.009950787
0.0096572198
0.0093747651
0.0091032159
0.0088423704
0.0085920333
0.0083520151
0.0081221328
0.0079022099
0.0076920765
0.0074915694
0.0073005324
0.0071188159
0.0069462776
0.0067827821
0.0066282011
0.0064824133
0.0063453047
0.0062167683
0.0060967044
0.0059850205
0.0058816313
0.0057864587
0.005699432
0.0056204875
0.0055495692
0.0054866281
0.0054316228
0.0053845192
0.0053452906
0.005313917
0.0052903828
0.0052746766
0.0052668396
0.016771476
0.016258054
0.015759481
0.015275558
0.014806049
0.014350731
0.013909379
0.013481766
0.013067661
0.01266683
0.01227904
0.011904056
0.011541646
0.011191577
0.01085362
0.010527549
0.010213141
0.0099101788
0.009618447
0.0093377372
0.0090678454
0.0088085734
0.0085597289
0.0083211255
0.0080925829
0.0078739274
0.0076649916
0.0074656149
0.0072756433
0.0070949297
0.0069233336
0.0067607218
0.0066069678
0.0064619522
0.0063255626
0.0061976938
0.0060782474
0.0059671325
0.005864265
0.0057695682
0.0056829725
0.0056044154
0.0055338418
0.0054712038
0.0054164608
0.0053695795
0.005330534
0.0052993051
0.0052758783
0.0052602433
0.0052524409
0.016676584
0.016167432
0.015672951
0.015192947
0.01472719
0.014275461
0.01383754
0.013413206
0.013002233
0.012604393
0.012219458
0.011847198
0.011487386
0.011139793
0.010804197
0.010480374
0.010168108
0.0098671823
0.0095773883
0.0092985205
0.0090303787
0.0087727681
0.0085254996
0.0082883899
0.008061262
0.0078439448
0.0076362738
0.0074380909
0.0072492446
0.0070695901
0.0068989893
0.006737311
0.0065844308
0.0064402311
0.0063046013
0.006177438
0.0060586444
0.005948131
0.0058458152
0.0057516216
0.0056654818
0.0055873345
0.0055171258
0.0054548086
0.0054003434
0.0053536977
0.0053148465
0.0052837712
0.0052604583
0.005244899
0.0052371336
0.016576547
0.016071883
0.015581703
0.01510582
0.014644009
0.014196054
0.013761744
0.013340861
0.012933185
0.012538494
0.012156565
0.011787173
0.011430097
0.011085113
0.010752003
0.010430548
0.010120537
0.0098217579
0.0095340054
0.0092570783
0.0089907802
0.00873492
0.008489312
0.0082537764
0.0080281391
0.0078122322
0.007605894
0.0074089693
0.007221309
0.007042771
0.0068732194
0.0067125252
0.0065605662
0.0064172268
0.0062823984
0.0061559791
0.0060378741
0.0059279952
0.0058262616
0.005732599
0.0056469405
0.005569226
0.0054994026
0.0054374244
0.0053832528
0.0053368563
0.0052982106
0.005267298
0.0052441058
0.0052286268
0.0052209006
0.01647132
0.015971364
0.015485697
0.015014137
0.014556466
0.014112475
0.013681955
0.013264696
0.012860483
0.012469099
0.012090328
0.01172395
0.011369748
0.011027506
0.010697008
0.010378043
0.010070402
0.0097738789
0.0094882724
0.0092133854
0.0089490256
0.0086950055
0.0084511434
0.0082172627
0.0079931927
0.0077787688
0.0075738323
0.0073782306
0.0071918178
0.007014454
0.0068460059
0.006686347
0.0065353572
0.006392923
0.0062589378
0.0061333017
0.0060159214
0.0059067106
0.0058055899
0.0057124866
0.005627335
0.0055500764
0.0054806591
0.0054190382
0.0053651762
0.0053190426
0.0052806138
0.005249873
0.0052268086
0.0052114145
0.0052037298
0.016360892
0.015865863
0.01538492
0.014917888
0.014464553
0.014024712
0.013598163
0.0131847
0.012784115
0.012396197
0.012020735
0.011657516
0.011306328
0.01096696
0.010639202
0.010322847
0.010017691
0.0097235339
0.009440178
0.0091674307
0.0089051038
0.008653014
0.0084109832
0.0081788386
0.0079564129
0.0077435448
0.0075400788
0.0073458655
0.0071607615
0.00698463
0.0068173402
0.0066587679
0.0065087954
0.0063673115
0.0062342116
0.0061093977
0.0059927785
0.0058842695
0.0057837926
0.0056912769
0.0056066581
0.0055298788
0.0054608884
0.0053996434
0.0053461071
0.0053002501
0.0052620498
0.0052314901
0.0052085603
0.0051932557
0.005185615
0.016245289
0.015755405
0.015279398
0.014817095
0.01436829
0.013932786
0.013510385
0.01310089
0.012704097
0.012319802
0.0119478
0.011587884
0.011239847
0.010903485
0.010578592
0.010264967
0.0099624117
0.0096707295
0.0093897281
0.0091192195
0.0088590198
0.0086089498
0.0083688354
0.0081385075
0.0079178027
0.007706563
0.0075046362
0.0073118761
0.0071281424
0.0069533009
0.0067872237
0.0066297892
0.0064808821
0.0063403934
0.0062082208
0.0060842683
0.0059684465
0.0058606727
0.0057608706
0.0056689708
0.0055849106
0.0055086338
0.0054400912
0.0053792404
0.005326046
0.0052804795
0.005242519
0.0052121496
0.0051893614
0.0051741511
0.0051665568
0.016124578
0.015640056
0.015169192
0.014711819
0.014267735
0.01383675
0.013418674
0.013013314
0.012620475
0.012239958
0.011871564
0.011515093
0.011170343
0.010837115
0.010515211
0.010204435
0.0099045926
0.0096154929
0.0093369486
0.0090687763
0.0088107966
0.0085628347
0.0083247206
0.0080962892
0.0078773808
0.007667841
0.0074675213
0.0072762785
0.0070939755
0.0069204812
0.0067556705
0.0065994243
0.00645163
0.006312181
0.0061809771
0.0060579246
0.0059429361
0.0058359307
0.005736834
0.0056455782
0.005562102
0.0054863507
0.0054182766
0.0053578385
0.0053050019
0.0052597395
0.0052220304
0.0051918604
0.0051692207
0.0051541092
0.0051465636
0.015998877
0.015519931
0.015054415
0.014602166
0.014162989
0.013736702
0.013323121
0.012922061
0.012533332
0.012156743
0.011792101
0.011439211
0.01109788
0.010767914
0.01044912
0.010141307
0.0098442876
0.0095578754
0.0092818882
0.0090161474
0.0087604784
0.0085147108
0.0082786788
0.0080522217
0.0078351835
0.0076274138
0.0074287673
0.0072391045
0.0070582915
0.0068862002
0.0067227085
0.0065677001
0.006421065
0.0062826991
0.0061525046
0.00603039
0.00591627
0.0058100655
0.0057117041
0.0056211196
0.0055382525
0.0054630495
0.0053954641
0.0053354565
0.0052829934
0.0052380485
0.0052006019
0.0051706404
0.005148156
0.0051331479
0.0051256532
0.015868361
0.015395197
0.01493523
0.014488293
0.014054203
0.013632783
0.013223861
0.012827256
0.012442788
0.012070271
0.01170952
0.011360345
0.01102256
0.010695977
0.010380408
0.01007567
0.0097815792
0.0094979554
0.0092246216
0.0089614042
0.0087081332
0.008464643
0.0082307723
0.0080063645
0.0077912678
0.0075853355
0.0073884262
0.0072004039
0.007021138
0.0068505037
0.0066883818
0.006534659
0.006389228
0.0062519873
0.0061228414
0.0060017013
0.0058884836
0.0057831116
0.0056855145
0.005595628
0.0055133941
0.0054387612
0.0053716842
0.0053121246
0.0052600502
0.0052154358
0.0051782626
0.0051485182
0.0051261957
0.0051112953
0.0051038539
0.015733278
0.015266094
0.014811865
0.014370417
0.013941579
0.013525189
0.013121079
0.012729078
0.012349013
0.011980705
0.011623974
0.01127864
0.010944521
0.010621435
0.010309202
0.010007644
0.009716582
0.0094358425
0.0091652535
0.0089046464
0.0086538565
0.0084127226
0.0081810882
0.007958801
0.0077457134
0.0075416827
0.0073465714
0.0071602471
0.0069825827
0.0068134566
0.0066527529
0.0065003612
0.0063561769
0.0062201014
0.0060920416
0.0059719108
0.005859628
0.0057551183
0.0056583132
0.00556915
0.0054875725
0.0054135306
0.0053469807
0.0052878856
0.0052362145
0.0051919431
0.0051550537
0.0051255347
0.0051033804
0.005088592
0.0050812059
0.015593978
0.015132951
0.014684623
0.014248819
0.013825387
0.013414172
0.013015016
0.012627756
0.012252225
0.011888251
0.011535663
0.011194286
0.010863944
0.010544463
0.010235668
0.0099373863
0.009649447
0.0093716809
0.0091039216
0.008846006
0.0085977742
0.0083590702
0.0081297419
0.0079096417
0.0076986262
0.007496557
0.0073033003
0.0071187276
0.0069427153
0.0067751453
0.0066159049
0.0064648867
0.0063219891
0.006187116
0.0060601773
0.0059410883
0.0058297706
0.0057261514
0.0056301641
0.0055417479
0.0054608484
0.0053874171
0.0053214119
0.0052627969
0.0052115425
0.0051676258
0.0051310299
0.0051017443
0.005079764
0.0050650916
0.0050577629
0.015918165
0.015450878
0.014996169
0.014553875
0.014123851
0.013705958
0.013300049
0.012905974
0.012523578
0.012152699
0.011793175
0.011444839
0.011107523
0.010781059
0.010465279
0.010160014
0.0098650982
0.0095803658
0.0093056537
0.0090408012
0.0087856504
0.0085400467
0.0083038391
0.0080768804
0.0078590274
0.0076501412
0.0074500877
0.0072587371
0.0070759647
0.0069016506
0.0067356802
0.006577944
0.0064283379
0.0062867631
0.0061531266
0.0060273406
0.0059093232
0.0057989982
0.005696295
0.005601149
0.0055135014
0.0054332996
0.0053604968
0.0052950523
0.0052369316
0.0051861066
0.0051425552
0.0051062617
0.0050772166
0.0050554158
0.0050408629
0.0050335934
0.016238162
0.015765114
0.015304517
0.014856214
0.014420065
0.013995937
0.013583697
0.013183208
0.012794325
0.012416899
0.012050776
0.011695799
0.01135181
0.011018647
0.010696149