/*--------------------------------*- C++ -*----------------------------------*\
| =========                 |                                                 |
| \\      /  F ield         | OpenFOAM: The Open Source CFD Toolbox           |
|  \\    /   O peration     | Version:  2312                                  |
|   \\  /    A nd           | Website:  www.openfoam.com                      |
|    \\/     M anipulation  |                                                 |
\*---------------------------------------------------------------------------*/
FoamFile
{
    version     2.0;
    format      ascii;
    arch        "LSB;label=32;scalar=64";
    class       volScalarField;
    location    "0.08";
    object      H2O;
}
// * * * * * * * * * * * * * * * * * * * * * * * * * * * * * * * * * * * * * //

dimensions      [0 0 0 0 0 0 0];

internalField   nonuniform List<scalar> 
3224
(
0.0061986334
0.0060437609
0.0058930888
0.0057466087
0.0056043113
0.0054661847
0.0053322143
0.0052023834
0.0050766736
0.0049550651
0.0048375373
0.0047240684
0.0046146364
0.0045092187
0.0044077927
0.0043103355
0.0042168245
0.0041272373
0.004041552
0.0039597469
0.0038818011
0.0038076944
0.0037374072
0.003670921
0.0036082181
0.0035492816
0.0034940961
0.0034426469
0.0033949206
0.0033509052
0.0033105897
0.0032739646
0.0032410217
0.0032117541
0.0031861566
0.0031642253
0.0031459581
0.0031313547
0.0031204174
0.0031131501
0.0031095345
0.0061985027
0.0060436532
0.0058930034
0.0057465423
0.0056042616
0.0054661502
0.0053321939
0.0052023763
0.0050766791
0.0049550826
0.0048375661
0.0047241081
0.0046146865
0.0045092787
0.0044078621
0.0043104139
0.0042169115
0.0041273324
0.0040416548
0.0039598571
0.0038819183
0.0038078181
0.0037375372
0.0036710568
0.0036083593
0.003549428
0.0034942472
0.0034428024
0.0033950802
0.0033510684
0.0033107563
0.0032741343
0.003241194
0.0032119288
0.0031863333
0.0031644037
0.0031461378
0.0031315351
0.003120597
0.0031133259
0.0031097154
0.0061980596
0.0060432473
0.0058926303
0.0057461985
0.0056039447
0.0054658586
0.0053319262
0.0052021313
0.0050764557
0.0049548798
0.004837383
0.0047239438
0.0046145401
0.0045091495
0.0044077492
0.0043103166
0.0042168289
0.004127264
0.0040415997
0.0039598146
0.0038818877
0.0038077988
0.0037375285
0.0036710581
0.0036083699
0.0035494473
0.0034942745
0.0034428372
0.0033951218
0.0033511164
0.0033108099
0.0032741929
0.0032412572
0.0032119959
0.0031864038
0.003164477
0.0031462132
0.0031316117
0.0031206729
0.0031133968
0.0031097892
0.0061973061
0.0060425434
0.0058919685
0.005745576
0.0056033594
0.0054653084
0.0053314095
0.0052016466
0.0050760016
0.0049544549
0.0048369861
0.0047235735
0.0046141953
0.004508829
0.0044074518
0.0043100412
0.0042165746
0.0041270295
0.0040413841
0.0039596169
0.0038817069
0.0038076339
0.0037373785
0.0036709221
0.0036082471
0.0035493366
0.0034941752
0.0034427483
0.0033950426
0.0033510459
0.0033107474
0.0032741376
0.0032412082
0.0032119524
0.0031863649
0.0031644419
0.0031461811
0.0031315815
0.0031206424
0.0031133605
0.0031097532
0.0063551378
0.0061962497
0.0060415399
0.0058910162
0.0057446728
0.0056025032
0.0054644972
0.0053306413
0.0052009196
0.0050753139
0.0049538049
0.0048363721
0.004722994
0.0046136487
0.0045083137
0.0044069664
0.0043095842
0.0042161446
0.0041266252
0.0040410042
0.0039592599
0.0038813716
0.0038073191
0.003737083
0.0036706447
0.0036079864
0.0035490917
0.0034939449
0.0034425314
0.0033948381
0.0033508526
0.0033105643
0.0032739636
0.0032410423
0.0032117935
0.003186212
0.0031642939
0.0031460368
0.0031314398
0.003120501
0.0031132135
0.0031096054
0.006353811
0.0061949622
0.0060403101
0.0058898434
0.0057435554
0.0056014394
0.0054634848
0.0053296784
0.005200004
0.0050744437
0.0049529781
0.0048355868
0.0047222484
0.0046129409
0.0045076421
0.0044063292
0.0043089798
0.0042155714
0.0041260815
0.0040404885
0.0039587707
0.0038809074
0.0038068785
0.0037366645
0.0036702469
0.003607608
0.0035487313
0.0034936012
0.0034422032
0.003394524
0.0033505515
0.0033102749
0.0032736846
0.0032407725
0.0032115318
0.0031859572
0.0031640446
0.0031457919
0.0031311979
0.0031202601
0.003112968
0.0031093588
0.006352276
0.0061934882
0.0060388991
0.0058884944
0.0057422671
0.0056002098
0.005462312
0.00532856
0.0051989378
0.0050734276
0.00495201
0.0048346645
0.0047213699
0.0046121043
0.0045068454
0.0044055706
0.0043082574
0.0042148834
0.0041254262
0.004039864
0.0039581755
0.0038803398
0.0038063369
0.0037361473
0.0036697526
0.0036071351
0.0035482783
0.0034931667
0.0034417857
0.0033941221
0.0033501638
0.0033099001
0.0032733214
0.0032404195
0.0032111876
0.0031856205
0.0031637142
0.0031454662
0.0031308756
0.0031199391
0.0031126443
0.003109033
0.0063504194
0.0061917107
0.0060371951
0.0058868624
0.0057407058
0.0055987171
0.0054608855
0.0053271973
0.0051976363
0.0050721847
0.0049508233
0.0048335317
0.0047202885
0.004611072
0.0045058599
0.0044046297
0.004307359
0.0042140252
0.0041246063
0.0040390803
0.0039574261
0.0038796228
0.0038056503
0.0037354893
0.0036691214
0.0036065289
0.0035476954
0.0034926054
0.0034412443
0.003393599
0.0033496574
0.0033094087
0.0032728435
0.0032399535
0.0032107321
0.0031851738
0.0031632747
0.0031450324
0.0031304456
0.0031195111
0.0031122148
0.0031086016
0.0065110387
0.0063482281
0.0061896067
0.0060351755
0.005884926
0.0057388509
0.0055969414
0.0054591863
0.0053255717
0.0051960815
0.0050706979
0.0049494016
0.0048321722
0.0047189885
0.0046098288
0.0045046709
0.0044034923
0.0043062706
0.0042129835
0.0041236089
0.0040381249
0.0039565103
0.0038787443
0.003804807
0.0037346791
0.0036683422
0.0036057787
0.0035469721
0.003491907
0.003440569
0.0033929448
0.0033490225
0.0033087912
0.0032722416
0.0032393654
0.003210156
0.0031846079
0.0031627171
0.0031444814
0.0031298993
0.0031189672
0.0031116706
0.0031080558
0.0065083975
0.0063456749
0.0061871513
0.0060328167
0.0058826624
0.0057366805
0.0055948616
0.0054571941
0.0053236639
0.0051942548
0.0050689489
0.0049477271
0.004830569
0.0047174535
0.0046083589
0.004503263
0.0044021436
0.0043049782
0.0042117445
0.0041224205
0.0040369845
0.0039554153
0.0038776922
0.0038037952
0.0037337052
0.0036674037
0.0036048734
0.0035460976
0.0034910611
0.0034397494
0.0033921494
0.0033482491
0.0033080377
0.003271506
0.0032386456
0.0032094499
0.0031839135
0.0031620324
0.0031438042
0.0031292274
0.0031182984
0.0031110025
0.0031073865
0.0066721919
0.006505344
0.0063427307
0.0061843184
0.0060300938
0.0058800478
0.0057341718
0.0055924558
0.0054548877
0.0053214532
0.0051921361
0.0050669186
0.0049457814
0.0048287043
0.0047156662
0.0046066456
0.0045016202
0.0044005679
0.0043034664
0.0042102935
0.0041210271
0.0040356456
0.0039541279
0.0038764534
0.0038026022
0.0037325552
0.003666294
0.0036038012
0.0035450604
0.0034900563
0.0034387745
0.0033912019
0.0033473266
0.0033071379
0.0032706264
0.003237784
0.0032086039
0.0031830807
0.0031612106
0.0031429911
0.0031284206
0.0031174953
0.0031102009
0.0031065843
0.0066685603
0.0065018506
0.0063393658
0.0061810802
0.0060269804
0.0058770569
0.0057313005
0.0055897005
0.0054522445
0.0053189181
0.0051897048
0.0050645869
0.0049435452
0.0048265594
0.0047136087
0.0046046714
0.0044997256
0.004398749
0.0043017196
0.004208615
0.0041194136
0.0040340936
0.003952634
0.0038750143
0.0038012147
0.0037312162
0.0036650003
0.0036025499
0.0035438486
0.003488881
0.0034376329
0.0033900913
0.0033462442
0.003306081
0.0032695923
0.0032367701
0.0032076076
0.0031820995
0.0031602418
0.003142032
0.0031274687
0.0031165479
0.0031092559
0.0031056391
0.0068352163
0.0066644378
0.0064978865
0.0063355494
0.0061774076
0.0060234489
0.0058736633
0.0057280412
0.0055865714
0.0054492411
0.0053160357
0.0051869389
0.0050619326
0.0049409979
0.0048241146
0.0047112617
0.0046024179
0.0044975612
0.0043966696
0.0042997209
0.0042066931
0.0041175644
0.0040323133
0.0039509188
0.0038733606
0.0037996189
0.0037296746
0.0036635096
0.0036011067
0.0035424496
0.0034875229
0.0034363126
0.0033888056
0.0033449901
0.0033048555
0.0032683924
0.0032355928
0.0032064501
0.0031809589
0.0031591152
0.0031409165
0.0031263614
0.0031154458
0.003108157
0.0031045405
0.0068303808
0.0066597924
0.0064934189
0.0063312495
0.0061732703
0.0060194701
0.0058698391
0.0057243671
0.0055830426
0.0054458526
0.0053127823
0.0051838152
0.0050589335
0.0049381181
0.004821349
0.0047086053
0.0045998657
0.0044951085
0.0043943115
0.0042974529
0.0042045106
0.004115463
0.0040302888
0.0039489669
0.0038714772
0.0037977999
0.0037279162
0.003661808
0.003599458
0.0035408501
0.0034859691
0.0034348009
0.0033873325
0.0033435522
0.0033034495
0.0032670149
0.0032342407
0.00320512
0.0031796476
0.0031578196
0.0031396335
0.0031250876
0.0031141782
0.0031068933
0.0031032775
0.0069995454
0.0068249652
0.0066545885
0.0064884138
0.0063264333
0.0061686365
0.0060150137
0.005865555
0.00572025
0.0055790871
0.0054420529
0.0053091325
0.0051803095
0.0050555661
0.0049348832
0.0048182409
0.0047056184
0.0045969946
0.0044923476
0.0043916558
0.0042948971
0.0042020498
0.0041130922
0.0040280032
0.003946762
0.0038693483
0.0037957426
0.003725926
0.0036598807
0.0035975895
0.0035390363
0.003484206
0.0034330845
0.003385659
0.0033419178
0.0033018504
0.0032654476
0.0032327014
0.0032036053
0.0031781539
0.0031563434
0.0031381712
0.0031236358
0.0031127336
0.0031054532
0.0031018386
0.0069932666
0.0068189319
0.0066487889
0.0064828353
0.0063210661
0.0061634731
0.0060100477
0.0058607804
0.0057156605
0.0055746764
0.0054378146
0.0053050602
0.0051763965
0.005051806
0.0049312696
0.0048147674
0.004702279
0.004593783
0.0044892581
0.0043886824
0.0042920342
0.0041992919
0.0041104339
0.0040254391
0.0039442869
0.0038669573
0.0037934307
0.0037236884
0.0036577127
0.0035954864
0.0035369936
0.0034822193
0.0034311495
0.0033837714
0.0033400734
0.0033000452
0.0032636774
0.0032309624
0.0032018934
0.0031764653
0.0031546741
0.0031365175
0.0031219939
0.0031110998
0.0031038249
0.0031002118
0.0071645409
0.0069863044
0.0068122405
0.0066423549
0.0064766465
0.0063151121
0.0061577455
0.0060045389
0.0058554831
0.0057105678
0.005569781
0.0054331092
0.0053005376
0.0051720496
0.0050476275
0.0049272524
0.0048109047
0.0046985638
0.0045902088
0.0044858182
0.0043853705
0.0042888441
0.0041962173
0.0041074689
0.004022578
0.003941524
0.0038642869
0.0037908474
0.003721187
0.0036552878
0.0035931331
0.0035347069
0.0034799942
0.0034289813
0.0033816555
0.0033380052
0.00329802
0.0032616909
0.0032290101
0.0031999711
0.0031745687
0.0031527991
0.0031346598
0.0031201493
0.0031092644
0.0031019956
0.0030983846
0.0071565417
0.0069786148
0.0068048487
0.0066352464
0.0064698087
0.006308534
0.0061514176
0.0059984524
0.0058496298
0.0057049395
0.0055643697
0.0054279068
0.005295536
0.0051672409
0.0050430037
0.0049228059
0.0048066277
0.0046944489
0.0045862486
0.0044820055
0.0043816983
0.0042853055
0.0041928056
0.0041041777
0.0040194007
0.0039384544
0.0038613189
0.0037879751
0.0037184045
0.0036525895
0.0035905133
0.0035321601
0.0034775152
0.0034265648
0.0033792964
0.0033356983
0.0032957605
0.003259474
0.0032268309
0.0031978248
0.0031724507
0.0031507048
0.0031325847
0.0031180889
0.0031072143
0.0030999524
0.0030963439
0.0071477357
0.0069701523
0.0067967128
0.0066274216
0.0064622817
0.006301293
0.0061444518
0.0059917521
0.0058431855
0.0056987422
0.0055584102
0.0054221762
0.0052900254
0.0051619414
0.0050379068
0.0049179029
0.0048019104
0.004689909
0.004581878
0.0044777964
0.004377643
0.0042813965
0.0041890356
0.0041005394
0.0040158872
0.0039350588
0.0038580345
0.0037847954
0.0037153231
0.0036496002
0.00358761
0.0035293369
0.0034747661
0.0034238842
0.0033766785
0.0033331378
0.0032932519
0.0032570119
0.0032244101
0.0031954402
0.0031700972
0.0031483773
0.0031302783
0.0031157988
0.0031049358
0.0030976816
0.003094076
0.0071380785
0.0069608717
0.0067877884
0.0066188374
0.0064540238
0.0062933486
0.0061368092
0.0059844003
0.0058361141
0.0056919408
0.0055518688
0.0054158849
0.0052839744
0.0051561211
0.0050323076
0.0049125156
0.0047967257
0.0046849179
0.0045770718
0.0044731666
0.004373181
0.0042770942
0.0041848849
0.0040965325
0.0040120165
0.0039313169
0.003854414
0.0037812892
0.0037119243
0.0036463019
0.0035844056
0.0035262199
0.0034717301
0.0034209229
0.0033737858
0.0033303077
0.0032904785
0.0032542893
0.0032217327
0.0031928024
0.0031674934
0.0031458022
0.0031277264
0.0031132648
0.0031024146
0.0030951691
0.0030915669
0.0073084125
0.0071275269
0.0069507253
0.0067780289
0.0066094489
0.0064449916
0.006284659
0.0061284495
0.0059763582
0.0058283779
0.0056844992
0.0055447107
0.0054089994
0.0052773507
0.0051497486
0.005026176
0.0049066146
0.0047910454
0.0046794486
0.0045718038
0.0044680905
0.0043682877
0.0042723747
0.0041803307
0.0040921349
0.0040077672
0.0039272077
0.0038504371
0.0037774368
0.0037081888
0.0036426759
0.0035808819
0.0035227913
0.0034683897
0.0034176639
0.0033706016
0.0033271917
0.0032874242
0.0032512906
0.0032187832
0.0031898961
0.0031646243
0.0031429643
0.003124914
0.0031104721
0.0030996362
0.0030924002
0.003088802
0.0072964647
0.0071160285
0.0069396635
0.0067673866
0.0065992099
0.0064351404
0.006275181
0.0061193307
0.0059675854
0.0058199381
0.0056763799
0.0055368997
0.0054014847
0.0052701206
0.0051427915
0.0050194807
0.0049001699
0.0047848405
0.0046734727
0.0045660467
0.0044625419
0.0043629377
0.0042672136
0.004175349
0.0040873234
0.0040031168
0.0039227096
0.0038460827
0.0037732176
0.0037040966
0.0036387027
0.0035770198
0.0035190326
0.0034647269
0.0034140896
0.0033671085
0.0033237728
0.0032840725
0.0032479992
0.0032155455
0.0031867054
0.0031614741
0.0031398482
0.0031218257
0.0031074055
0.0030965853
0.0030893598
0.003085766
0.0076554748
0.0074674612
0.0072834768
0.0071035282
0.0069276343
0.0067558117
0.0065880724
0.006424424
0.00626487
0.0061094099
0.0059580402
0.0058107545
0.0056675442
0.0055283985
0.0053933049
0.0052622494
0.0051352165
0.0050121894
0.0048931503
0.0047780808
0.0046669614
0.0045597724
0.0044564937
0.0043571048
0.0042615854
0.0041699152
0.0040820741
0.0039980421
0.0039178
0.0038413289
0.0037686105
0.0036996272
0.0036343623
0.0035727998
0.0035149248
0.0034607231
0.0034101818
0.0033632888
0.0033200335
0.0032804062
0.0032443984
0.0032120029
0.0031832139
0.0031580266
0.0031364379
0.0031184458
0.0031040491
0.0030932462
0.0030860323
0.0030824435
0.0078316766
0.0076402738
0.0074528316
0.0072693912
0.0070899693
0.0069145845
0.0067432531
0.0065759872
0.0064127949
0.0062536801
0.0060986428
0.00594768
0.005800786
0.0056579523
0.0055191688
0.0053844231
0.0052537016
0.005126989
0.0050042689
0.0048855238
0.0047707354
0.0046598847
0.0045529521
0.0044499179
0.0043507619
0.004255464
0.0041640042
0.0040763626
0.0039925196
0.0039124561
0.0038361534
0.0037635936
0.0036947594
0.0036296341
0.003568202
0.0035104483
0.0034563591
0.0034059217
0.0033591242
0.003315956
0.0032764076
0.0032404708
0.0032081384
0.0031794048
0.0031542653
0.003132717
0.0031147578
0.003100387
0.0030896029
0.0030824017
0.0030788185
0.0078145958
0.0076238278
0.0074369993
0.0072541478
0.0070752947
0.0069004594
0.0067296583
0.0065629039
0.0064002044
0.0062415642
0.006086984
0.0059364611
0.0057899902
0.0056475636
0.0055091713
0.0053748014
0.0052444406
0.0051180739
0.0049956853
0.0048772575
0.0047627727
0.004652212
0.0045455563
0.004442786
0.0043438814
0.0042488226
0.0041575899
0.0040701637
0.0039865247
0.003906654
0.0038305333
0.0037581449
0.0036894715
0.0036244969
0.0035632056
0.003505583
0.0034516154
0.0034012902
0.0033545958
0.0033115218
0.0032720588
0.0032361987
0.0032039346
0.0031752609
0.0031501732
0.0031286685
0.0031107452
0.0030964025
0.0030856389
0.0030784516
0.0030748745
0.0077961553
0.0076060711
0.0074199023
0.0072376862
0.0070594464
0.0068852034
0.0067149739
0.0065487708
0.0063866028
0.0062284745
0.0060743871
0.0059243386
0.0057783242
0.0056363364
0.0054983658
0.0053644011
0.005234429
0.0051084352
0.0049864037
0.004868318
0.0047541602
0.004643912
0.0045375546
0.0044350688
0.0043364351
0.0042416339
0.004150646
0.0040634519
0.0039800327
0.0039003698
0.0038244452
0.0037522414
0.0036837414
0.0036189294
0.0035577898
0.0035003085
0.003446472
0.0033962679
0.0033496847
0.0033067122
0.0032673413
0.003231564
0.0031993736
0.0031707646
0.0031457329
0.0031242756
0.003106391
0.0030920787
0.0030813376
0.0030741653
0.0030705951
0.0077762877
0.0075869379
0.007401478
0.0072199456
0.0070423658
0.00686876
0.0066991456
0.0065335357
0.0063719395
0.0062143621
0.0060608052
0.0059112673
0.005765744
0.0056242285
0.0054867118
0.0053531829
0.005223629
0.0050980362
0.004976389
0.004858671
0.004744865
0.004634953
0.0045289165
0.0044267365
0.0043283941
0.0042338701
0.0041431454
0.004056201
0.0039730183
0.003893579
0.0038178653
0.0037458601
0.0036775468
0.0036129095
0.0035519333
0.0034946041
0.0034409087
0.0033908348
0.0033443713
0.0033015082
0.0032622365
0.0032265484
0.0031944374
0.0031658983
0.0031409269
0.0031195207
0.0031016781
0.0030873988
0.0030766819
0.0030695259
0.0030659632
0.007754925
0.0075663627
0.0073816631
0.0072008648
0.0070239938
0.0068510724
0.0066821184
0.0065171456
0.0063561636
0.0061991779
0.0060461908
0.0058972013
0.0057522056
0.0056111973
0.005474168
0.005341107
0.0052120023
0.00508684
0.0049656054
0.0048482823
0.004734854
0.0046253029
0.0045196108
0.0044177593
0.0043197297
0.0042255032
0.0041350611
0.0040483848
0.003965456
0.0038862568
0.0038107696
0.0037389777
0.0036708648
0.0036064153
0.0035456146
0.0034884488
0.0034349049
0.003384971
0.0033386362
0.0032958906
0.0032567256
0.0032211334
0.0031891079
0.0031606439
0.0031357376
0.0031143863
0.003096589
0.0030823453
0.0030716548
0.0030645164
0.0030609619
0.0077319995
0.0075442798
0.0073603945
0.0071803828
0.0070042715
0.0068320835
0.0066638374
0.0064995475
0.0063392237
0.0061828723
0.0060304961
0.0058820945
0.0057376644
0.0055971999
0.005460693
0.0053281337
0.0051995103
0.0050748095
0.004954017
0.0048371172
0.0047240937
0.0046149293
0.0045096064
0.0044081069
0.0043104125
0.0042165049
0.0041263658
0.0040399769
0.0039573202
0.0038783783
0.003803134
0.0037315708
0.0036636728
0.0035994247
0.0035388121
0.0034818215
0.0034284402
0.0033786565
0.0033324597
0.0032898403
0.0032507897
0.0032153006
0.0031833669
0.0031549836
0.0031301471
0.0031088551
0.0030911064
0.0030769012
0.003066239
0.0030591198
0.0030555742
0.0077074436
0.0075206243
0.0073376092
0.0071584386
0.0069831398
0.0068117365
0.0066442477
0.0064806883
0.0063210689
0.0061653962
0.0060136736
0.0058659012
0.0057220762
0.0055821935
0.0054462456
0.0053142231
0.0051861146
0.0050619077
0.0049415882
0.0048251412
0.0047125507
0.0046038001
0.0044988721
0.0043977492
0.0043004136
0.0042068472
0.0041170322
0.0040309508
0.0039485854
0.0038699189
0.0037949345
0.0037236161
0.003655948
0.0035919155
0.0035315043
0.0034747013
0.0034214941
0.0033718712
0.0033258223
0.003283338
0.0032444101
0.0032090314
0.0031771961
0.0031488994
0.0031241379
0.0031029094
0.0030852131
0.0030710492
0.0030604177
0.003053319
0.0030497831
0.0076811908
0.0074953316
0.007313245
0.0071349721
0.0069605408
0.0067899752
0.0066232951
0.0064605159
0.0063016486
0.0061467008
0.0059956762
0.0058485757
0.0057053972
0.0055661359
0.0054307851
0.0052993358
0.0051717774
0.0050480978
0.0049282836
0.0048123202
0.0047001922
0.0045918835
0.0044873773
0.0043866567
0.0042897041
0.0041965022
0.0041070335
0.0040212805
0.0039392263
0.003860854
0.0037861473
0.0037150904
0.0036476681
0.0035838659
0.00352367
0.0034670676
0.0034140464
0.0033645955
0.0033187047
0.003276365
0.0032375683
0.0032023077
0.0031705777
0.0031423737
0.0031176925
0.0030965322
0.0030788921
0.0030647725
0.003054174
0.0030470973
0.0030435719
0.0076531755
0.0074683387
0.0072872411
0.0071099246
0.0069364176
0.0067667448
0.0066009266
0.0064389789
0.0062809134
0.0061267383
0.005976458
0.0058300739
0.0056875845
0.0055489858
0.0054142715
0.0052834334
0.0051564614
0.0050333441
0.0049140685
0.0047986206
0.0046869858
0.0045791482
0.0044750919
0.0043748001
0.004278256
0.0041854427
0.0040963432
0.0040109406
0.0039292181
0.0038511596
0.0037767491
0.0037059712
0.0036388111
0.0035752547
0.0035152885
0.0034589
0.0034060775
0.0033568101
0.0033110881
0.0032689027
0.0032302461
0.0031951117
0.0031634942
0.0031353893
0.003110794
0.0030897066
0.0030721267
0.0030580547
0.0030474915
0.0030404385
0.0030369245
0.0076233349
0.0074395847
0.0072595386
0.0070832391
0.0069107152
0.0067419922
0.0065770909
0.0064160278
0.0062588156
0.0061054627
0.0059559744
0.0058103526
0.0056685966
0.005530703
0.0053966662
0.0052664786
0.0051401307
0.0050176117
0.0048989094
0.0047840103
0.0046729003
0.0045655642
0.0044619866
0.0043621513
0.0042660421
0.0041736425
0.004084936
0.0039999063
0.0039185371
0.0038408127
0.0037667176
0.0036962367
0.0036293559
0.0035660612
0.0035063396
0.0034501791
0.0033975682
0.0033484964
0.0033029543
0.0032609333
0.0032224262
0.0031874264
0.0031559289
0.0031279298
0.0031034262
0.0030824166
0.0030649009
0.0030508798
0.0030403544
0.0030333268
0.003029825
0.0075916087
0.0074090117
0.0072300815
0.0070548615
0.0068833814
0.0067156668
0.0065517392
0.0063916157
0.0062353096
0.0060828301
0.0059341829
0.005789371
0.0056483941
0.0055112495
0.0053779324
0.0052484358
0.005122751
0.0050008677
0.0048827744
0.0047684584
0.0046579059
0.0045511027
0.0044480337
0.0043486835
0.0042530363
0.0041610763
0.0040727876
0.0039881542
0.0039071605
0.0038297912
0.0037560313
0.0036858663
0.0036192822
0.0035562658
0.0034968045
0.0034408864
0.0033885005
0.0033396368
0.003294286
0.0032524401
0.003214092
0.0031792355
0.0031478658
0.0031199793
0.0030955734
0.0030746468
0.0030571997
0.0030432329
0.003032748
0.0030257475
0.0030222588
0.007557941
0.0073765655
0.0071988176
0.0070247416
0.0068543675
0.0066877216
0.0065248261
0.0063656987
0.0062103531
0.0060587995
0.0059110443
0.0057670909
0.0056269401
0.0054905898
0.0053580359
0.0052292721
0.0051042904
0.0049830813
0.0048656339
0.0047519361
0.004641975
0.0045357369
0.0044332074
0.0043343717
0.0042392147
0.004147721
0.0040598753
0.0039756624
0.0038950671
0.0038180746
0.0037446704
0.0036748405
0.0036085715
0.0035458505
0.0034866653
0.0034310046
0.0033788576
0.0033302148
0.0032850674
0.0032434074
0.0032052281
0.0031705239
0.0031392901
0.0031115233
0.0030872213
0.0030663831
0.003049009
0.0030351001
0.0030246583
0.0030176866
0.003014212
0.007522281
0.0073421972
0.0071656996
0.0069928334
0.0068236293
0.006658114
0.0064963103
0.0063382367
0.0061839076
0.0060333337
0.0058865224
0.0057434778
0.0056042012
0.0054686916
0.0053369454
0.0052089572
0.0050847198
0.0049642243
0.0048474606
0.0047344174
0.0046250824
0.0045194425
0.0044174842
0.0043191932
0.0042245551
0.0041335552
0.0040461787
0.0039624111
0.0038822377
0.0038056442
0.0037326168
0.003663142
0.0035972067
0.0035347986
0.0034759061
0.003420518
0.0033686244
0.0033202158
0.0032752837
0.0032338209
0.0031958208
0.0031612781
0.0031301885
0.0031025488
0.0030783571
0.0030576128
0.0030403161
0.0030264688
0.0030160729
0.003009132
0.0030056723
0.0074845845
0.007305864
0.0071306862
0.0069590972
0.0067911282
0.0066268067
0.0064661559
0.0063091952
0.0061559395
0.0060064004
0.005860586
0.0057185012
0.0055801482
0.0054455266
0.0053146338
0.005187465
0.0050640139
0.0049442724
0.004828231
0.0047158794
0.0046072059
0.0045021982
0.0044008435
0.0043031281
0.0042090384
0.0041185604
0.0040316799
0.0039483829
0.0038686555
0.0037924839
0.0037198549
0.0036507554
0.003585173
0.0035230959
0.0034645128
0.0034094133
0.0033577875
0.0033096267
0.0032649227
0.0032236685
0.0031858581
0.0031514864
0.0031205494
0.0030930444
0.0030689696
0.0030483247
0.0030311103
0.0030173283
0.0030069812
0.0030000729
0.0029966291
0.0074448152
0.0072675308
0.0070937434
0.0069235
0.0067568325
0.0065937689
0.0064343333
0.0062785453
0.0061264211
0.0059779728
0.0058332093
0.0056921364
0.005554757
0.0054210717
0.0052910785
0.0051647738
0.0050421517
0.0049232052
0.0048079257
0.0046963033
0.0045883275
0.0044839865
0.0043832683
0.0042861602
0.004192649
0.0041027214
0.0040163641
0.0039335637
0.0038543067
0.0037785803
0.0037063716
0.0036376683
0.0035724584
0.0035107306
0.0034524742
0.0033976792
0.0033463363
0.0032984371
0.003253974
0.0032129402
0.0031753302
0.0031411391
0.0031103635
0.0030830008
0.0030590497
0.00303851
0.0030213827
0.0030076699
0.0029973744
0.0029905007
0.0029870739
0.0074029461
0.0072271717
0.0070548461
0.0068860177
0.0067207188
0.0065589782
0.0064008204
0.0062462661
0.006095332
0.0059480311
0.0058043731
0.0056643647
0.0055280097
0.0053953095
0.005266263
0.0051408673
0.0050191177
0.0049010079
0.00478653
0.0046756752
0.0045684336
0.0044647944
0.0043647463
0.0042682772
0.004175375
0.004086027
0.0040002205
0.0039179428
0.0038391813
0.0037639237
0.0036921576
0.0036238715
0.0035590539
0.0034976941
0.0034397819
0.0033853078
0.003334263
0.0032866395
0.0032424302
0.0032016288
0.00316423
0.0031302296
0.0030996242
0.0030724117
0.003048591
0.0030281624
0.0030111271
0.0029974874
0.0029872465
0.0029804093
0.0029770004
0.0073589617
0.0071847715
0.0070139799
0.0068466361
0.0066827735
0.0065224212
0.0063656046
0.0062123451
0.0060626602
0.0059165637
0.0057740663
0.0056351754
0.0054998959
0.0053682299
0.0052401774
0.0051157363
0.0049949028
0.0048776715
0.0047640355
0.0046539868
0.0045475163
0.0044446142
0.0043452699
0.0042494722
0.0041572096
0.0040684704
0.0039832426
0.0039015143
0.0038232734
0.0037485083
0.0036772075
0.0036093598
0.0035449546
0.0034839816
0.0034264312
0.0033722945
0.0033215631
0.0032742296
0.0032302873
0.0031897304
0.0031525539
0.003118754
0.0030883277
0.0030612734
0.0030375902
0.0030172785
0.0030003401
0.0029867775
0.0029765942
0.0029697956
0.0029664056
0.0073128598
0.007140328
0.0069711424
0.0068053532
0.0066429944
0.0064840959
0.0063286838
0.0061767803
0.0060284037
0.0058835687
0.0057422869
0.0056045666
0.0054704137
0.0053398311
0.0052128199
0.005089379
0.0049695054
0.0048531946
0.0047404407
0.0046312367
0.0045255743
0.0044234446
0.0043248379
0.0042297439
0.0041381519
0.0040500508
0.0039654297
0.0038842771
0.0038065821
0.0037323334
0.0036615204
0.0035941326
0.0035301598
0.0034695925
0.0034124217
0.0033586389
0.0033082365
0.0032612073
0.0032175452
0.0031772448
0.0031403017
0.0031067123
0.0030764743
0.003049586
0.0030260472
0.0030058586
0.002989022
0.0029755405
0.0029654178
0.0029586597
0.0029552897
0.0072646535
0.007093854
0.0069263461
0.0067621808
0.0066013931
0.0064440134
0.0062900687
0.0061395819
0.0059925722
0.0058490554
0.0057090439
0.005572547
0.0054395713
0.0053101212
0.0051841983
0.0050618027
0.0049429325
0.004827584
0.0047157523
0.0046074313
0.0045026138
0.0044012917
0.0043034563
0.004209098
0.0041182072
0.0040307735
0.0039467868
0.0038662366
0.0037891124
0.003715404
0.0036451013
0.0035781946
0.0035146743
0.0034545316
0.003397758
0.0033443457
0.0032942875
0.0032475768
0.0032042081
0.0031641764
0.0031274777
0.003094109
0.0030640681
0.0030373539
0.0030139664
0.0029939068
0.0029771771
0.0029637806
0.0029537215
0.002947006
0.002943657
0.0072143736
0.0070453792
0.0068796196
0.0067171468
0.0065579963
0.0064021995
0.006249784
0.0061007739
0.005955189
0.0058130462
0.0056743588
0.0055391371
0.0054073889
0.0052791192
0.0051543312
0.0050330255
0.0049152014
0.0048008563
0.0046899863
0.0045825862
0.0044786499
0.0043781701
0.004281139
0.0041875482
0.0040973888
0.0040106514
0.0039273266
0.0038474047
0.0037708763
0.0036977316
0.0036279615
0.0035615568
0.0034985088
0.0034388093
0.0033824503
0.0033294248
0.003279726
0.0032333481
0.0031902858
0.0031505348
0.0031140914
0.0030809532
0.0030511183
0.0030245861
0.0030013569
0.0029814321
0.0029648142
0.0029515068
0.0029415142
0.0029348433
0.0029315163
0.0071620714
0.0069949532
0.006831011
0.0066702975
0.0065128488
0.0063586973
0.0062078715
0.0060603963
0.0059162927
0.0057755783
0.0056382674
0.0055043716
0.0053738996
0.0052468575
0.0051232494
0.0050030771
0.004886341
0.0047730395
0.0046631696
0.0045567274
0.0044537075
0.0043541039
0.0042579097
0.0041651173
0.0040757188
0.0039897058
0.0039070697
0.0038278017
0.0037518931
0.0036793352
0.0036101193
0.0035442373
0.0034816809
0.0034224427
0.0033665155
0.0033138927
0.0032645683
0.0032185369
0.0031757937
0.0031363351
0.0031001578
0.0030672598
0.0030376397
0.0030112971
0.0029882329
0.0029684488
0.0029519475
0.002938733
0.00292881
0.0029221855
0.0029188815
0.0071078218
0.0069426478
0.0067805901
0.0066217003
0.0064660157
0.0063135696
0.0061643916
0.0060185075
0.0058759393
0.0057367057
0.005600822
0.0054683009
0.005339152
0.0052133827
0.0050909981
0.0049720012
0.0048563933
0.004744174
0.0046353415
0.0045298927
0.0044278234
0.0043291286
0.0042338025
0.0041418383
0.0040532293
0.0039679678
0.0038860463
0.0038074568
0.0037321915
0.0036602424
0.0035916018
0.0035262621
0.0034642161
0.0034054569
0.0033499779
0.0032977733
0.0032488375
0.0032031659
0.0031607544
0.0031215994
0.0030856986
0.0030530501
0.0030236532
0.0029975079
0.0029746152
0.0029549774
0.0029385974
0.0029254796
0.0029156289
0.0029090528
0.0029057727
0.0070517273
0.0068885611
0.0067284516
0.0065714466
0.0064175849
0.0062669012
0.006119426
0.0059751863
0.005834205
0.0056965018
0.0055620933
0.005430993
0.0053032119
0.0051787583
0.0050576386
0.0049398568
0.0048254153
0.0047143149
0.004606555
0.0045021334
0.0044010471
0.0043032922
0.0042088637
0.0041177562
0.0040299636
0.0039454795
0.0038642971
0.0037864095
0.0037118096
0.0036404904
0.003572445
0.0035076666
0.0034461487
0.0033878851
0.0033328701
0.0032810983
0.003232565
0.0031872659
0.0031451976
0.0031063572
0.0030707427
0.0030383528
0.0030091871
0.0029832461
0.0029605312
0.002941045
0.0029247909
0.0029117732
0.0029019976
0.0028954717
0.0028922165
0.006993924
0.0068328232
0.0066747187
0.0065196544
0.0063676702
0.0062188017
0.0060730805
0.0059305346
0.005791188
0.0056550614
0.0055221726
0.0053925362
0.0052661643
0.0051430664
0.0050232499
0.0049067202
0.0047934808
0.0046835335
0.0045768788
0.0044735159
0.0043734427
0.0042766565
0.0041831533
0.0040929287
0.0040059778
0.0039222951
0.0038418747
0.0037647108
0.0036907971
0.0036201274
0.0035526958
0.0034884963
0.003427523
0.0033697707
0.0033152342
0.003263909
0.0032157908
0.0031708762
0.0031291621
0.0030906464
0.0030553274
0.0030232044
0.0029942774
0.0029685474
0.0029460162
0.0029266867
0.0029105625
0.0028976485
0.0028879504
0.0028814763
0.0028782468
0.0070964114
0.0069345641
0.0067755902
0.0066195439
0.0064664714
0.006316414
0.0061694084
0.0060254875
0.0058846802
0.0057470115