/*--------------------------------*- C++ -*----------------------------------*\
| =========                 |                                                 |
| \\      /  F ield         | OpenFOAM: The Open Source CFD Toolbox           |
|  \\    /   O peration     | Version:  2312                                  |
|   \\  /    A nd           | Website:  www.openfoam.com                      |
|    \\/     M anipulation  |                                                 |
\*---------------------------------------------------------------------------*/
FoamFile
{
    version     2.0;
    format      ascii;
    arch        "LSB;label=32;scalar=64";
    class       volScalarField;
    location    "0.08";
    object      k;
}
// * * * * * * * * * * * * * * * * * * * * * * * * * * * * * * * * * * * * * //

dimensions      [0 2 -2 0 0 0 0];

internalField   nonuniform List<scalar> 
3224
(
9.0463546
9.0307749
9.015896
9.0016958
8.9881501
8.9752354
8.9629296
8.9512113
8.9400602
8.9294565
8.9193814
8.9098163
8.9007434
8.8921455
8.8840057
8.876308
8.8690367
8.8621766
8.8557131
8.8496323
8.8439205
8.8385649
8.833553
8.8288729
8.8245134
8.8204638
8.816714
8.8132545
8.8100763
8.8071712
8.8045315
8.8021503
8.8000211
8.798138
8.7964957
8.7950893
8.7939147
8.792968
8.7922455
8.791746
8.7914826
9.0462446
9.0306581
9.0157707
9.0015646
8.9880153
8.9750981
8.9627906
8.951071
8.9399188
8.9293143
8.9192384
8.9096727
8.9005992
8.8920007
8.8838604
8.8761622
8.8688904
8.8620298
8.8555658
8.8494845
8.8437723
8.8384161
8.8334038
8.8287233
8.8243633
8.8203133
8.8165631
8.8131032
8.8099246
8.8070192
8.8043793
8.8019978
8.7998683
8.797985
8.7963425
8.794936
8.7937613
8.7928148
8.7920936
8.7915972
8.7913273
9.0460726
9.0304792
9.0155873
9.0013792
8.9878293
8.9749126
8.9626058
8.9508872
8.9397362
8.9291329
8.9190583
8.9094937
8.9004214
8.891824
8.8836847
8.8759875
8.8687165
8.8618567
8.8553936
8.8493129
8.8436013
8.8382457
8.8332339
8.8285538
8.8241943
8.8201447
8.8163948
8.8129351
8.8097568
8.8068516
8.8042119
8.8018306
8.7997013
8.7978182
8.796176
8.7947697
8.7935953
8.7926494
8.79193
8.7914381
8.791163
9.0458351
9.0302368
9.0153455
9.0011395
8.9875924
8.9746788
8.9623754
8.9506603
8.9395127
8.9289128
8.9188413
8.9092799
8.9002105
8.8916158
8.8834792
8.8757844
8.8685158
8.8616582
8.855197
8.8491182
8.8434084
8.8380545
8.8330441
8.8283654
8.8240072
8.8199587
8.8162098
8.8127512
8.8095738
8.8066694
8.8040304
8.8016498
8.7995212
8.7976387
8.795997
8.7945913
8.7934176
8.7924726
8.7917554
8.7912693
8.7909913
9.0618666
9.045525
9.0299326
9.0150476
9.0008478
8.9873068
8.9743994
8.962102
8.9503928
8.9392509
8.9286565
8.9185902
8.9090337
8.8999691
8.8913789
8.8832466
8.8755558
8.8682909
8.8614368
8.854979
8.8489033
8.8431963
8.8378451
8.8328372
8.8281608
8.8238047
8.8197582
8.8160112
8.8125542
8.8093784
8.8064754
8.8038378
8.8014583
8.7993308
8.7974493
8.7958086
8.7944039
8.7932311
8.7922874
8.7915725
8.7910925
8.7908134
9.0614767
9.0451707
9.0295901
9.0147158
9.0005257
8.9869938
8.9740949
8.9618058
8.9501044
8.9389701
8.9283828
8.9183234
8.9087734
8.8997149
8.8911306
8.8830038
8.8753182
8.8680583
8.8612088
8.8547553
8.8486837
8.8429806
8.8376329
8.8326283
8.827955
8.8236018
8.8195579
8.8158134
8.8123586
8.8091849
8.8062838
8.8036479
8.80127
8.799144
8.7972638
8.7956244
8.7942209
8.7930494
8.792107
8.7913943
8.79092
8.7906408
9.061068
9.0447837
9.0292181
9.0143577
9.0001799
8.9866592
8.9737708
8.9614916
8.9497997
8.9386744
8.9280957
8.9180444
8.9085022
8.899451
8.8908737
8.8827534
8.875074
8.8678199
8.8609759
8.8545276
8.8484608
8.8427622
8.8374187
8.8324181
8.8277485
8.8233987
8.819358
8.8156164
8.8121644
8.8089931
8.8060943
8.8034604
8.8010845
8.7989602
8.7970817
8.7954437
8.7940417
8.7928716
8.7919308
8.7912202
8.7907501
8.7904725
9.0606015
9.0443351
9.0287891
9.0139466
8.9997846
8.9862782
8.9734031
8.9611363
8.9494562
8.9383421
8.9277739
8.9177328
8.9082
8.8991579
8.8905891
8.882477
8.8748052
8.8675583
8.8607212
8.8542792
8.8482185
8.8425255
8.8371873
8.8321916
8.8275265
8.823181
8.8191442
8.8154063
8.8119576
8.8087894
8.8058935
8.8032622
8.8008887
8.7987666
8.79689
8.7952539
8.7938537
8.7926854
8.7917463
8.791038
8.7905714
8.7902958
9.0770521
9.0600622
9.0438214
9.0283
9.0134795
8.9993369
8.985848
8.972989
8.9607374
8.9490716
8.9379709
8.9274156
8.9173865
8.9078653
8.8988341
8.8902756
8.8821732
8.8745107
8.8672725
8.8604436
8.8540093
8.8479558
8.8422696
8.8369377
8.831948
8.8272885
8.8229481
8.8189161
8.8151825
8.811738
8.8085735
8.8056811
8.803053
8.8006824
8.7985628
8.7966887
8.7950549
8.7936567
8.7924904
8.7915534
8.7908475
8.7903838
8.7901105
9.0763854
9.0594471
9.0432394
9.0277475
9.012953
8.9988334
8.9853654
8.9725257
8.960292
8.9486431
8.9375585
8.9270183
8.9170036
8.907496
8.8984777
8.8899314
8.8818405
8.8741889
8.866961
8.8601418
8.8537167
8.8476717
8.8419935
8.8366692
8.8316865
8.8270336
8.8226993
8.818673
8.8149447
8.811505
8.808345
8.8054567
8.8028323
8.8004651
8.7983488
8.7964775
8.7948462
8.7934506
8.7922866
8.7913519
8.7906486
8.7901874
8.7899163
9.0932415
9.0756454
9.0587548
9.0425857
9.0271281
9.0123636
8.9982709
8.9848272
8.97201
8.9597974
8.9481683
8.9371023
8.9265798
8.9165818
8.90709
8.8980867
8.8895547
8.8814772
8.8738383
8.8666224
8.8598145
8.8534
8.847365
8.8416962
8.8363807
8.8314062
8.826761
8.8224338
8.8184142
8.814692
8.811258
8.8081033
8.8052197
8.8025998
8.8002366
8.7981239
8.7962559
8.7946277
8.7932349
8.7920736
8.7911415
8.7904408
8.7899819
8.789713
9.0923734
9.0748248
9.0579829
9.0418573
9.0264381
9.0117078
8.9976458
8.9842301
8.9714389
8.9592505
8.9476441
8.9365996
8.9260974
8.9161187
8.9066452
8.8976591
8.8891434
8.8810815
8.8734572
8.8662551
8.8594601
8.8530579
8.8470345
8.8413765
8.8360711
8.8311061
8.8264697
8.8221508
8.8181388
8.8144238
8.8109963
8.8078476
8.8049697
8.8023548
8.7999963
8.7978878
8.7960237
8.7943989
8.7930092
8.7918509
8.7909217
8.7902238
8.789767
8.7895003
9.1096327
9.0914199
9.0739191
9.0571286
9.0410504
9.0256737
9.0109817
8.9969544
8.9835705
8.9708088
8.958648
8.9470675
8.9360475
8.9255685
8.9156117
8.906159
8.8971927
8.8886956
8.8806513
8.8730437
8.8658573
8.8590772
8.852689
8.8466787
8.8410331
8.8357393
8.8307851
8.8261588
8.8218493
8.8178461
8.8141392
8.8107192
8.8075775
8.8047058
8.8020968
8.7997436
8.7976399
8.7957801
8.7941593
8.7927732
8.7916183
8.7906922
8.7899972
8.7895424
8.7892777
9.1085366
9.090373
9.0729242
9.0561882
9.0401611
9.0248311
9.0101815
8.9961929
8.9828448
8.9701162
8.9579866
8.9464355
8.9354431
8.9249903
8.9150583
8.9056291
8.896685
8.888209
8.8801846
8.8725958
8.8654273
8.858664
8.8522915
8.8462962
8.8406645
8.8353838
8.8304419
8.8258271
8.8215283
8.817535
8.8138373
8.8104258
8.8072919
8.8044275
8.8018251
8.7994779
8.7973796
8.7955248
8.7939084
8.7925263
8.791375
8.7904523
8.7897603
8.7893075
8.7890449
9.1261805
9.107339
9.0892276
9.0718357
9.0551576
9.0391854
9.023906
9.009303
8.9953573
8.982049
8.9693576
8.9572628
8.9457446
8.9347833
8.9243598
8.9144557
8.9050528
8.8961336
8.8876813
8.8796793
8.8721117
8.8649631
8.8582186
8.851864
8.8458853
8.8402694
8.8350034
8.8300753
8.8254734
8.8211866
8.8172044
8.8135171
8.8101152
8.8069902
8.8041339
8.8015389
8.7991984
8.7971062
8.7952569
8.7936455
8.7922679
8.7911206
8.7902016
8.7895127
8.7890619
8.7888012
9.1248142
9.1060317
9.0879789
9.0706486
9.0540321
9.0381186
9.0228941
9.0083419
8.9944435
8.9811793
8.9685292
8.9564731
8.9449915
8.9340647
8.923674
8.9138008
8.9044273
8.895536
8.88711
8.879133
8.871589
8.8644627
8.8577393
8.8514045
8.8454445
8.8398461
8.8345966
8.8296839
8.8250964
8.820823
8.8168533
8.8131776
8.8097864
8.8066712
8.803824
8.8012373
8.7989044
8.7968191
8.7949759
8.79337
8.7919973
8.7908544
8.7899392
8.7892537
8.788805
8.7885462
9.1428003
9.1233294
9.1046095
9.0866215
9.0693576
9.0528067
9.036956
9.0217907
9.007294
8.9934473
8.9802315
8.9676269
8.9556137
8.9441726
8.9332841
8.9229297
8.9130909
8.9037499
8.8948895
8.8864928
8.8785434
8.8710256
8.8639241
8.857224
8.8509113
8.844972
8.8393931
8.8341619
8.8292662
8.8246947
8.8204362
8.8164805
8.8128176
8.8094383
8.8063341
8.803497
8.8009195
8.7985949
8.7965172
8.7946808
8.793081
8.7917137
8.7905756
8.7896647
8.7889827
8.7885359
8.7882791
9.1411215
9.1217197
9.1030673
9.0851497
9.067957
9.0514761
9.0356927
9.0205912
9.0061544
8.9923642
8.9792014
8.9666468
8.9546808
8.9432842
8.9324379
8.9221235
8.9123226
8.9030176
8.8941913
8.8858268
8.877908
8.8704191
8.8633449
8.8566707
8.8503822
8.8444659
8.8389085
8.8336975
8.8288208
8.8242669
8.8200249
8.8160845
8.8124358
8.8090698
8.8059777
8.8031517
8.8005844
8.7982691
8.7961998
8.7943709
8.7927778
8.7914164
8.7902835
8.7893771
8.7886987
8.7882542
8.7879992
9.1393091
9.1199783
9.1013986
9.0835572
9.0664408
9.0500348
9.0343234
9.0192905
9.0049186
8.9911896
8.9780847
8.9655846
8.9536703
8.9423225
8.9315226
8.921252
8.9114928
8.9022273
8.8934384
8.8851095
8.8772243
8.8697672
8.862723
8.8560772
8.8498155
8.8439243
8.8383906
8.8332018
8.8283459
8.8238115
8.8195877
8.8156641
8.8120312
8.8086796
8.8056009
8.8027871
8.8002311
8.797926
8.7958658
8.7940452
8.7924594
8.7911045
8.7899772
8.7890756
8.7884011
8.7879588
8.7877057
9.137351
9.1180956
9.0995963
9.0818373
9.0648029
9.0484769
9.0328427
9.0178835
9.0035816
8.989919
8.9768768
8.9644362
8.9525781
8.9412837
8.9305344
8.9203118
8.9105982
8.9013759
8.892628
8.8843379
8.8764895
8.8690672
8.862056
8.8554412
8.8492088
8.8433452
8.8378374
8.832673
8.8278399
8.8233268
8.8191229
8.8152179
8.8116021
8.8082664
8.8052024
8.8024021
8.7998583
8.7975644
8.7955143
8.7937027
8.7921249
8.790777
8.7896558
8.7887593
8.7880889
8.787649
8.7873979
9.1551922
9.1352333
9.1160634
9.0976529
9.0799832
9.0630368
9.0467964
9.0312449
9.0163648
9.0021383
8.9885473
8.9755731
8.963197
8.9514001
8.9401637
8.9294695
8.9192993
8.9096353
8.9004601
8.8917569
8.8835091
8.8757009
8.8683166
8.8613413
8.8547604
8.84856
8.8427265
8.8372471
8.8321092
8.8273011
8.8228113
8.8186292
8.8147444
8.8111473
8.807829
8.804781
8.8019954
8.799465
8.7971832
8.7951441
8.7933424
8.7917733
8.790433
8.7893183
8.7884274
8.7877613
8.7873239
8.7870747
9.1527982
9.1329456
9.1138737
9.0955608
9.0779877
9.0611358
9.0449872
9.0295242
9.014729
9.0005836
8.9870698
8.974169
8.9618626
8.9501319
8.9389585
8.9283241
8.9182107
8.9086006
8.8994767
8.890822
8.8826203
8.8748557
8.8675127
8.8605765
8.8540325
8.8478669
8.8420662
8.8366176
8.8315087
8.8267276
8.8222632
8.8181047
8.814242
8.8106654
8.807366
8.8043353
8.8015657
8.7990499
8.7967814
8.7947542
8.7929631
8.7914035
8.7900714
8.7889638
8.7880787
8.7874172
8.7869825
8.7867353
9.1920822
9.1707566
9.1502216
9.1304819
9.1115188
9.0933126
9.0758436
9.0590932
9.0430429
9.0276747
9.0129704
8.998912
8.9854812
8.9726595
8.9604284
8.9487693
8.937664
8.9270942
8.9170423
8.9074906
8.8984222
8.8898202
8.8816684
8.8739511
8.8666529
8.859759
8.853255
8.8471272
8.841362
8.8359468
8.8308693
8.8261177
8.8216808
8.817548
8.8137091
8.8101547
8.8068758
8.8038641
8.8011118
8.7986118
8.7963577
8.7943434
8.7925639
8.7910144
8.7896912
8.7885912
8.7877124
8.7870557
8.7866238
8.7863787
9.2110797
9.1890527
9.1678563
9.1474519
9.1278355
9.1089913
9.0909005
9.0735437
9.0569021
9.040957
9.0256902
9.0110834
8.9971182
8.9837765
8.9710398
8.9588896
8.9473077
8.9362758
8.9257759
8.9157903
8.9063017
8.8972932
8.8887481
8.8806503
8.8729841
8.8657344
8.8588862
8.8524255
8.8463385
8.8406118
8.8352328
8.8301892
8.8254694
8.8210623
8.8169572
8.8131442
8.8096138
8.8063571
8.8033658
8.8006323
8.7981494
8.7959108
8.7939105
8.7921434
8.7906049
8.7892913
8.7881993
8.7873273
8.7866757
8.7862469
8.7860039
9.2076944
9.185807
9.1647487
9.1444825
9.1249992
9.1062835
9.0883169
9.0710806
9.0545555
9.038723
9.0235646
9.0090619
8.9951967
8.9819504
8.9693049
8.9572417
8.9457426
8.9347896
8.9243649
8.9144508
8.9050302
8.8960862
8.8876024
8.8795628
8.8719518
8.8647542
8.8579555
8.8515415
8.8454984
8.8398132
8.8344732
8.8294663
8.8247808
8.8204058
8.8163307
8.8125456
8.809041
8.8058083
8.802839
8.8001257
8.7976613
8.7954394
8.7934542
8.7917005
8.7901738
8.7888704
8.7877872
8.7869222
8.7862761
8.7858505
8.7856097
9.2040707
9.1823342
9.1614246
9.1413056
9.1219651
9.1033874
9.0855542
9.0684469
9.0520465
9.0363342
9.0212917
9.0069003
8.9931417
8.9799977
8.9674498
8.9554798
8.9440696
8.9332013
8.9228572
8.9130199
8.9036724
8.8947978
8.88638
8.8784029
8.8708512
8.8637098
8.8569642
8.8506003
8.8446046
8.838964
8.833666
8.8286985
8.82405
8.8197095
8.8156667
8.8119115
8.8084348
8.8052278
8.8022823
8.7995908
8.7971462
8.7949423
8.7929732
8.7912339
8.7897199
8.7884275
8.7873535
8.7864962
8.7858558
8.7854336
8.7851951
9.2001987
9.1786248
9.157875
9.1379131
9.1187252
9.100295
9.0826046
9.0656351
9.0493678
9.033784
9.018865
9.0045924
8.9909478
8.9779129
8.9654693
8.953599
8.942284
8.9315064
8.9212488
8.9114938
8.9022245
8.8934244
8.8850773
8.8771673
8.8696792
8.8625981
8.8559095
8.8495995
8.8436546
8.8380619
8.832809
8.8278838
8.8232749
8.8189716
8.8149633
8.8112404
8.8077936
8.8046142
8.8016942
8.799026
8.7966027
8.7944181
8.7924663
8.7907424
8.789242
8.7879612
8.7868971
8.7860479
8.7854136
8.784995
8.7847589
9.1960683
9.1746689
9.1540903
9.134296
9.1152708
9.0969983
9.0794602
9.0626379
9.0465126
9.0310656
9.0162784
9.0021324
8.9886092
8.9756907
8.9633585
8.9515947
8.9403813
8.9297007
8.9195354
8.9098685
8.900683
8.8919625
8.8836911
8.8758529
8.8684329
8.8614163
8.8547888
8.8485364
8.842646
8.8371046
8.8318999
8.82702
8.8224537
8.81819
8.8142189
8.8105304
8.8071156
8.8039659
8.8010731
8.7984299
8.7960294
8.7938654
8.7919321
8.7902247
8.7887388
8.7874705
8.7864169
8.7855762
8.7849483
8.7845336
8.7843
9.1916684
9.1704563
9.1500608
9.1304452
9.1115936
9.093489
9.0761133
9.0594478
9.0434737
9.0281724
9.0135254
8.9995142
8.9861204
8.9733258
8.9611123
8.9494619
8.9383569
8.9277797
8.9177131
8.9081401
8.8990441
8.8904087
8.882218
8.8744566
8.8671094
8.8601617
8.8535993
8.8474087
8.8415764
8.8360898
8.8309367
8.8261052
8.8215842
8.817363
8.8134315
8.8097799
8.8063993
8.8032812
8.8004175
8.797801
8.7954248
8.7932828
8.7913694
8.7896795
8.7882089
8.7869539
8.7859115
8.7850798
8.7844588
8.7840481
8.7838172
9.1869878
9.1659764
9.1457766
9.1263515
9.1076847
9.089759
9.0725561
9.0560574
9.0402442
9.0250979
9.0106
8.9967321
8.9834758
8.970813
8.9587257
8.9471961
8.9362064
8.9257394
8.9157778
8.9063049
8.8973041
8.8887594
8.8806549
8.8729752
8.8657056
8.8588314
8.8523386
8.8462136
8.8404434
8.8350152
8.829917
8.8251372
8.8206646
8.8164887
8.8125994
8.8089872
8.805643
8.8025586
8.7997259
8.7971378
8.7947876
8.792669
8.7907766
8.7891054
8.7876512
8.7864103
8.7853797
8.7845576
8.7839437
8.7835374
8.7833092
9.1820154
9.1612189
9.141228
9.1220058
9.1035356
9.0858001
9.0687809
9.0524595
9.0368172
9.0218355
9.007496
8.9937802
8.9806699
8.9681471
8.9561939
8.9447925
8.9339254
8.9235754
8.9137256
8.9043591
8.8954597
8.8870113
8.8789985
8.8714059
8.8642187
8.8574227
8.8510039
8.8449489
8.8392446
8.8338786
8.828839
8.8241141
8.819693
8.8155653
8.8117209
8.8081504
8.8048451
8.8017965
8.7989969
8.796439
8.7941163
8.7920226
8.7901526
8.7885012
8.7870644
8.7858384
8.7848203
8.7840083
8.7834019
8.7830003
8.7827748
9.1767409
9.1561737
9.1364055
9.1173992
9.099138
9.0816045
9.0647804
9.0486471
9.0331862
9.018379
9.0042074
8.9906529
8.9776975
8.9653231
8.9535121
8.9422468
8.9315098
8.921284
8.9115526
8.9022991
8.8935072
8.8851613
8.8772457
8.8697455
8.862646
8.855933
8.8495928
8.843612
8.8379778
8.8326779
8.8277004
8.8230338
8.8186674
8.8145908
8.8107942
8.8072681
8.804004
8.8009934
8.7982288
8.795703
8.7934095
8.7913423
8.7894959
8.7878656
8.7864471
8.7852369
8.7842321
8.7834307
8.7828322
8.7824354
8.7822129
9.1711539
9.1508313
9.1312999
9.1125231
9.0944838
9.0771646
9.0605473
9.0446134
9.0293446
9.0147224
9.0007286
8.9873449
8.9745534
8.9623363
8.9506758
8.9395546
8.9289553
8.9188611
8.9092552
8.9001214
8.8914436
8.8832061
8.8753937
8.8679914
8.8609848
8.8543598
8.8481029
8.8422008
8.8366409
8.831411
8.8264993
8.8218946
8.8175862
8.8135637
8.8098176
8.8063386
8.8031181
8.8001478
8.7974203
8.7949285
8.7926659
8.7906266
8.7888053
8.7871972
8.7857982
8.7846046
8.7836137
8.7828235
8.7822334
8.7818417
8.7816223
9.1652449
9.1451824
9.1259026
9.1073693
9.0895652
9.072473
9.0560748
9.040352
9.0252865
9.0108599
8.9970541
8.9838511
8.971233
8.9591821
8.9476808
8.9367119
8.9262583
8.9163032
8.9068302
8.8978229
8.8892657
8.881143
8.8734396
8.8661409
8.8592326
8.8527007
8.8465319
8.8407131
8.8352318
8.8300759
8.8252339
8.8206946
8.8164474
8.8124824
8.8087897
8.8053605
8.802186
8.7992584
8.7965701
8.7941142
8.7918842
8.7898745
8.7880796
8.7864949
8.7851164
8.7839404
8.7829641
8.7821857
8.7816042
8.781218
8.7810018
9.159005
9.1392185
9.1202056
9.1019302
9.0843751
9.0675232
9.0513565
9.0358569
9.0210062
9.0067862
8.9931791
8.9801668
8.9677318
8.9558563
8.9445231
8.933715
8.9234152
8.9136071
8.9042742
8.8954006
8.8869707
8.8789692
8.871381
8.8641917
8.8573871
8.8509536
8.8448778
8.8391469
8.8337486
8.8286709
8.8239024
8.8194322
8.8152498
8.8113452
8.807709
8.8043322
8.8012064
8.7983238
8.7956768
8.7932587
8.7910632
8.7890846
8.7873176
8.7857576
8.7844005
8.783243
8.7822821
8.781516
8.7809437
8.7805632
8.7803503
9.152426
9.132932
9.1142015
9.0961988
9.078907
9.0623089
9.0463867
9.0311227
9.0164986
9.0024966
8.9890989
8.9762878
8.9640457
8.9523552
8.9411992
8.9305607
8.920423
8.9107696
8.9015845
8.8928519
8.8845562
8.8766824
8.8692156
8.8621416
8.8554464
8.8491165
8.8431388
8.8375006
8.8321897
8.8271944
8.8225034
8.8181059
8.8139917
8.8101509
8.8065741
8.8032526
8.8001781
8.7973427
8.7947393
8.792361
8.7902018
8.7882558
8.7865181
8.784984
8.7836496
8.7825114
8.7815667
8.7808134
8.7802507
8.7798762
8.7796668
9.145501
9.126316
9.1078838
9.0901692
9.0731551
9.0568247
9.0411604
9.0261445
9.0117593
8.9979869
8.9848098
8.9722104
8.9601714
8.9486757
8.9377061
8.927246
8.9172788
8.9077884
8.8987589
8.8901745
8.88202
8.8742805
8.8669415
8.8599889
8.8534087
8.8471879
8.8413133
8.8357725
8.8305536
8.825645
8.8210355
8.8167146
8.812672
8.8088982
8.8053839
8.8021205
8.7990999
8.7963142
8.7937565
8.7914201
8.7892989
8.7873873
8.7856803
8.7841734
8.7828627
8.7817447
8.7808169
8.7800771
8.7795243
8.7791561
8.7789503
9.1382238
9.1193649
9.1012473
9.0838363
9.0671148
9.0510662
9.0356734
9.0209187
9.0067846
8.9932537
8.9803084
8.9679317
8.9561062
8.944815
8.9340413
8.9237687
8.9139807
8.9046615
8.8957952
8.8873666
8.8793604
8.8717621
8.8645573
8.857732
8.8512728
8.8451663
8.8394001
8.8339617
8.8288394
8.8240217
8.8194978
8.8152571
8.8112898
8.8075863
8.8041376
8.8009351
8.7979709
8.7952374
8.7927276
8.790435
8.7883537
8.786478
8.7848032
8.7833247
8.7820388
8.7809421
8.7800318
8.7793061
8.7787636
8.778402
8.7782
9.13059
9.1120743
9.0942879
9.0771962
9.0607824
9.0450301
9.0299225
9.0154421
9.0015718
8.9882944
8.9755926
8.9634494
8.9518479
8.9407713
8.9302032
8.9201271
8.9105271
8.9013874
8.8926924
8.884427
8.8765764
8.869126
8.8620619
8.8553701
8.8490375
8.8430511
8.8373984
8.8320672
8.8270461
8.8223237
8.8178894
8.8137329
8.8098443
8.8062144
8.8028343
8.7996957
8.7967906
8.7941116
8.791652
8.7894052
8.7873655
8.7855274
8.7838862
8.7824374
8.7811774
8.7801027
8.7792108
8.7784997
8.7779681
8.7776133
8.7774152
9.1225965
9.1044416
9.087003
9.0702466
9.0541557
9.0387144
9.0239058
9.0097132
8.9961194
8.9831077
8.9706609
8.9587624
8.9473956
8.9365438
8.9261908
8.9163206
8.9069173
8.8979654
8.8894497
8.8813552
8.8736673
8.8663718
8.8594548
8.8529028
8.8467027
8.8408418
8.8353077
8.8300888
8.8251734
8.8205507
8.81621
8.8121414
8.8083352
8.8047822
8.8014738
8.7984018
8.7955584
8.7929364
8.7905291
8.7883302
8.7863339
8.784535
8.7829288
8.781511
8.7802779
8.7792262
8.7783534
8.7776574
8.777137
8.7767894
8.7765953
9.1142424
9.0964658
9.0793917
9.0629867
9.0472341
9.0321183
9.017623
9.0037315
8.9904271
8.9776933
8.9655133
8.9538707
8.9427492
8.9321323
8.9220043
8.9123492
8.9031515
8.8943959
8.8860674
8.8781514
8.8706335
8.8634997
8.8567363
8.8503302
8.8442684
8.8385385
8.8331284
8.8280264
8.8232215
8.8187027
8.8144598
8.8104829
8.8067625
8.8032898
8.8000561
8.7970535
8.7942744
8.7917117
8.7893589
8.7872098
8.7852587
8.7835006
8.7819308
8.7805451
8.77934
8.7783122
8.7774591
8.7767789
8.7762701
8.77593
8.7757401
9.105529
9.0881482
9.0714554
9.0554177
9.0400188
9.0252433
9.0110752
8.9974983
8.9844962
8.9720526
8.9601511
8.9487756
8.93791
8.9275383
8.9176448
8.9082141
8.8992307
8.8906798
8.8825466
8.8748166
8.8674759
8.8605106
8.8539074
8.8476532
8.8417356
8.8361421
8.8308611
8.825881
8.821191
8.8167804
8.8126393
8.8087578
8.8051267
8.8017374
8.7985814
8.795651
8.7929388
8.7904378
8.7881415
8.7860441
8.78414
8.7824242
8.7808922
8.7795399
8.7783637
8.7773606
8.7765281
8.7758641
8.7753673
8.7750349
8.7748494
9.0964602
9.0794926
9.0631977
9.0475432
9.0325133
9.0180926
9.0042658
8.9910168
8.9783297
8.9661884
8.9545771
8.9434797
8.9328807
8.9227643
8.913115
8.9039178
8.8951575
8.8868196
8.8788895
8.8713531
8.8641966
8.8574065
8.8509698
8.8448737
8.8391058
8.8336542
8.8285073
8.8236539
8.8190833
8.8147851
8.8107496
8.8069671
8.8034288
8.8001261
8.7970508
8.7941952
8.7915523
8.7891152
8.7868776
8.7848338
8.7829783
8.7813063
8.7798133
8.7784955
8.7773493
8.7763717
8.7755603
8.7749132
8.7744288
8.7741044
8.7739233
9.0870428
9.0705057
9.0546249
9.0393694
9.0247233
9.010672
8.9972001
8.9842922
8.9719326
8.9601058
8.948796
8.9379878
8.9276658
8.9178145
8.908419
8.8994642
8.8909356
8.8828188
8.8750995
8.867764
8.8607987
8.8541905
8.8479265
8.8419943
8.8363818
8.8310773
8.8260694
8.8213472
8.8169004
8.8127187
8.8087925
8.8051127
8.8016704
8.7984573
8.7954654
8.7926874
8.7901161
8.7877451
8.7855681
8.7835796
8.7817744
8.7801476
8.778695
8.7774127
8.7762974
8.7753461
8.7745565
8.7739267
8.7734551
8.7731389
8.7729624
9.0772867
9.0611976
9.0457467
9.0309052
9.0166577
9.0029896
8.9898862
8.9773322
8.9653125
8.9538118
8.9428149
8.9323064
8.9222715
8.9126951
8.9035625
8.894859
8.8865704
8.8786825
8.8711816
8.864054
8.8572867
8.8508667
8.8447815
8.8390189
8.8335671
8.8284147
8.8235506
8.8189642
8.8146452
8.8105839
8.8067708
8.8031969
8.7998538
8.7967332
8.7938275
8.7911293
8.788632
8.7863291
8.7842146
8.7822832
8.7805296
8.7789493
8.7775382
8.7762925
8.775209
8.7742848
8.7735175
8.7729054
8.7724469
8.7721392
8.7719675
9.0672043
9.0515818
9.0365759
9.0221632
9.0083284
8.9950572
8.9823352
8.9701476
8.9584796
8.9473163
8.9366429
8.9264445
8.9167065
8.9074142
8.8985533
8.8901095
8.8820689
8.8744176
8.8671422
8.8602294
8.8536665
8.8474408
8.8415401
8.8359525
8.8306665
8.825671
8.8209552
8.8165087
8.8123216
8.8083844
8.8046877
8.8012231
8.797982
8.7949566
8.7921395
8.7895236
8.7871023
8.7848694
8.7828192
8.7809463
8.7792458
8.7777133
8.7763448
8.7751366
8.7740856
8.7731891
8.7724447
8.7718508
8.7714057
8.7711067
8.7709398
9.0568095
9.0416744
9.0271296
9.0131599
8.9997513
8.9868899
8.9745616
8.9627521
8.951447
8.9406319
8.9302922
8.9204136
8.9109818
8.9019825
8.8934017
8.8852255
8.8774403
8.8700328
8.8629896
8.8562981
8.8499456
8.8439199
8.8382091
8.8328016
8.8276862
8.8228521
8.8182888
8.8139862
8.8099346
8.8061248
8.8025478
8.7991952
8.796059
8.7931314
8.7904052
8.7878736
8.7855302
8.7833691
8.7813846
8.7795716
8.7779255
8.7764418
8.7751168
8.7739469
8.7729292
8.7720609
8.7713399
8.7707645
8.7703331
8.770043
8.7698811
9.0613784
9.0461447
9.0315014
9.0174302
9.0039163
8.9909463
8.9785067
8.9665836
8.9551632
8.9442316
8.9337746
8.9237782
8.9142284
8.9051113
8.8964131
8.8881201
8.880219
8.8726962
8.865539
8.8587344
8.85227
8.8461335
8.840313
8.8347971
8.8295743
8.8246339
8.8199652
8.8155582
8.811403
8.8074903
8.803811
8.8003566
8.7971187
8.7940897
8.791262
8.7886288
8.7861834
8.7839196
8.7818317
8.7799143
8.7781625
8.7765717
8.7751378
8.7738571
8.7727263
8.7717424
8.7709028
8.7702056
8.7696489
8.7692314
8.7689504
8.7687936
9.0652229
9.049932
9.0352269
9.0210892
9.007504
8.994458
8.9819382
8.9699313
8.958424
8.9474027
8.9368539
8.9267641
8.9171196
8.9079068
8.8991122
8.8907225
8.8827243
8.8751047
8.8678507
8.8609497
8.8543892
8.8481571
8.8422416
8.8366311
8.8313143
8.8262804
8.8215188
8.8170192
8.8127719
8.8087672
8.8049963
8.8014502
8.7981207
8.7949998
8.7920801
8.7893543
8.7868157
8.784458
8.7822753
8.7802619
8.7784127
8.776723
8.7751885
8.7738051
8.7725693
8.771478
8.7705283
8.7697179
8.7690447
8.7685071
8.7681036
8.7678318
8.7676801
9.0682916
9.0529806
9.038256
9.0240908
9.0104709
8.9973836
8.9848166
8.9727572
8.9611927
8.9501103
8.9394969
8.9293393
8.9196245
8.9103393
8.9014706
8.8930053
8.8849304
8.8772331
8.8699007
8.8629208
8.8562811
8.8499695
8.8439743
8.8382839
8.8328873
8.8277735
8.8229319
8.8183523
8.8140248
8.8099399
8.8060884
8.8024616
8.7990509
8.7958484
8.7928464
8.7900376
8.7874152
8.7849726
8.7827038
8.7806031
8.7786652
8.776885
8.7752582
8.7737805
8.7724481
8.7712577
8.7702063
8.7692912
8.7685101
8.767861
8.7673426
8.7669533
8.7666908
8.7665442
9.0552601
9.0405471
9.0263955
9.0127801
8.9996884
8.9871089
8.97503
8.9634397
8.9523258
8.9416759
8.9314775
8.921718
8.9123847
8.9034649
8.8949461
8.8868154
8.8790605
8.871669
8.8646284
8.8579269
8.8515525
8.8454936
8.8397388
8.834277
8.8290973
8.8241893
8.8195428
8.8151477
8.8109946
8.8070743
8.8033779
8.799897
8.7966234
8.7935493
8.7906675
8.7879709
8.7854529
8.7831072
8.7809282
8.7789102
8.7770483
8.7753376
8.773774
8.7723535
8.7710724
8.7699276
8.7689162
8.7680357
8.767284
8.7666592
8.7661599
8.7657848
8.7655316
8.7653902
9.0420875
9.0279779
9.0144061
9.0013483
8.9887925
8.9767281
8.9651441
8.9540293
8.9433719
8.9331602
8.9233822
8.9140258
8.9050787
8.8965289
8.8883641
8.8805721
8.8731409
8.8660585
8.859313
8.8528929
8.8467867
8.8409831
8.8354712
8.8302402
8.8252797
8.8205795
8.8161297
8.8119208
8.8079436
8.8041893
8.8006492
8.7973153
8.7941797
8.7912349
8.788474
8.7858901
8.783477
8.7812288
8.7791398
8.7772048
8.775419
8.773778
8.7722777
8.7709143
8.7696845
8.7685851
8.7676137
8.7667677
8.7660453
8.7654447
8.7649645
8.7646035
8.7643596
8.7642233
9.028845
9.015342
9.0023542
8.9898583
8.9778428
8.9662977
8.9552128
8.9445772
8.93438
8.9246099
8.9152554
8.9063049
8.8977468
8.8895694
8.881761
8.8743098
8.8672043
8.8604328
8.8539842
8.847847
8.8420104
8.8364634
8.8311955
8.8261964
8.8214559
8.8169643
8.812712
8.80869
8.8048892
8.8013012
8.7979178
8.7947312
8.7917337
8.7889184
8.7862784
8.7838073
8.7814991
8.779348
8.7773488
8.7754966
8.7737868
8.7722151
8.7707776
8.769471
8.768292
8.7672378
8.7663059
8.7654941
8.7648007
8.7642239
8.7637626
8.7634155
8.7631808
8.7630496
9.0156151
9.0027195
8.9903164
8.9783832
8.9669089
8.9558842
8.9452991
8.9351436
8.9254072
8.9160792
8.9071487
8.8986046
8.8904358
8.882631
8.875179
8.8680686
8.8612887
8.8548282
8.8486761
8.8428217
8.8372544
8.8319637
8.8269395
8.8221718
8.8176509
8.8133674
8.8093121
8.8054763
8.8018514
8.7984292
8.7952018
8.7921617
8.7893018
8.7866151
8.7840953
8.7817362
8.779532
8.7774774
8.7755672
8.7737969
8.7721621
8.7706589
8.7692836
8.768033
8.766904
8.7658942
8.7650012
8.764223
8.7635579
8.7630045
8.7625616
8.7622283
8.7620025
8.7618763
9.002494
8.9902029
8.9783811
8.9670074
8.9560715
8.9455641
8.9354761
8.925798
8.9165197
8.9076312
8.899122
8.8909817
8.8831995
8.8757649
8.8686669
8.8618949
8.8554382
8.8492862
8.8434284
8.8378545
8.8325542
8.8275176
8.8227349
8.8181965
8.8138932
8.8098158
8.8059555
8.802304
8.7988531
8.7955948
8.7925217
8.7896265
8.7869023
8.7843427
8.7819414
8.7796926
8.7775909
8.7756312
8.7738085
8.7721187
8.7705576
8.7691214
8.7678069
8.766611
8.7655309
8.7645644
8.7637092
8.7629636
8.7623261
8.7617954
8.7613704
8.7610502
8.7608332
8.7607119
8.9895911
8.9778985
8.9666502
8.9558283
8.9454231
8.9354258
8.9258279
8.9166203
8.9077936
8.8993381
8.8912441
8.8835016
8.8761003
8.86903
8.8622806
8.8558416
8.849703
8.8438546
8.8382862
8.8329881
8.8279504
8.8231636
8.8186182
8.8143051
8.8102153
8.8063403
8.8026715
8.7992008
8.7959205
8.7928229
8.7899009
8.7871475
8.7845563
8.7821209
8.7798355
8.7776946
8.7756929
8.7738256
8.7720883
8.7704767
8.7689871
8.7676161
8.7663605
8.7652175
8.7641846
8.7632598
8.762441
8.7617268
8.7611157
8.7606067
8.7601988
8.7598913
8.7596826
8.7595659
8.9770278
8.9659272
8.9552404
8.9449573
8.9350699
8.9255704
8.9164506
8.907702
8.8993157
8.8912827
8.8835935
8.8762387
8.8692086
8.8624935
8.8560836
8.8499691
8.8441403
8.8385874
8.8333009
8.8282711
8.8234889
8.818945
8.8146303
8.8105363
8.8066541
8.8029757
8.7994928
8.7961977
8.793083
8.7901413
8.7873658
8.78475
8.7822874
8.7799723
8.777799
8.7757623
8.7738571
8.7720791
8.7704239
8.7688876
8.7674668
8.7661582
8.764959
8.7638666
8.7628787
8.7619935
8.7612094
8.7605248
8.7599387
8.7594502
8.7590585
8.7587628
8.758562
8.7584497
8.9759273
8.9649733
8.9544331
8.9442856
8.9345212
8.9251326
8.9161126
8.9074534
8.8991469
8.8911848
8.8835585
8.8762591
8.8692776
8.8626047
8.8562314
8.8501481
8.8443456
8.8388147
8.8335459
8.8285301
8.8237582
8.8192214
8.8149108
8.8108177
8.8069338
8.8032509
8.799761
8.7964564
8.7933296
8.7903735
8.7875811
8.7849459
8.7824616
8.7801222
8.777922
8.7758557
8.7739183
8.7721052
8.7704121
8.768835
8.7673702
8.7660145
8.764765
8.763619
8.7625741
8.7616286
8.7607805
8.7600286
8.7593717
8.7588088
8.7583392
8.7579624
8.7576777
8.7574841
8.7573757
8.9639781
8.9535792
8.943571
8.933935
8.9246627
8.9157474
8.9071821
8.8989596
8.8910723
8.8835122
8.8762713
8.8693412
8.8627132
8.8563787
8.8503289
8.8445548
8.8390477
8.8337985
8.8287984
8.8240387
8.8195107
8.8152058
8.8111156
8.8072318
8.8035464
8.8000516
8.7967397
8.7936032
8.7906352
8.7878286
8.785177
8.7826739
8.7803134
8.7780898
8.7759976
8.7740319
8.7721878
8.770461
8.7688474
8.7673433
8.7659452
8.7646502
8.7634556
8.7623589
8.7613581
8.7604514
8.7596375
8.7589151
8.7582833
8.7577414
8.7572889
8.7569255
8.7566506
8.7564634
8.7563586
8.9529142
8.943031
8.9335177
8.9243576
8.915543
8.9070674
8.8989246
8.8911077
8.8836095
8.8764227
8.8695395
8.862952
8.856652
8.8506313
8.8448815
8.839394
8.8341605
8.8291724
8.8244213
8.8198987
8.8155964
8.8115062
8.8076199
8.8039298
8.800428
8.797107
8.7939596
8.7909785
8.7881571
8.7854886
8.7829668
8.7805856
8.7783393
8.7762223
8.7742297
8.7723564
8.7705981
8.7689505
8.7674098
8.7659726
8.7646355
8.7633958
8.7622511
8.7611991
8.760238
8.7593663
8.7585829
8.7578867
8.7572771
8.7567537
8.7563162