/*--------------------------------*- C++ -*----------------------------------*\
| =========                 |                                                 |
| \\      /  F ield         | OpenFOAM: The Open Source CFD Toolbox           |
|  \\    /   O peration     | Version:  2312                                  |
|   \\  /    A nd           | Website:  www.openfoam.com                      |
|    \\/     M anipulation  |                                                 |
\*---------------------------------------------------------------------------*/
FoamFile
{
    version     2.0;
    format      ascii;
    arch        "LSB;label=32;scalar=64";
    class       volScalarField;
    location    "0.08";
    object      N2;
}
// * * * * * * * * * * * * * * * * * * * * * * * * * * * * * * * * * * * * * //

dimensions      [0 0 0 0 0 0 0];

internalField   nonuniform List<scalar> 
3224
(
0.7600183
0.76033283
0.76063655
0.76092969
0.76121244
0.76148502
0.76174761
0.76200041
0.76224363
0.76247745
0.76270207
0.76291765
0.76312439
0.76332245
0.76351201
0.76369321
0.76386621
0.76403117
0.76418822
0.7643375
0.76447914
0.76461327
0.76473999
0.76485943
0.76497168
0.76507684
0.765175
0.76526625
0.76535066
0.76542832
0.76549928
0.7655636
0.76562133
0.76567253
0.76571723
0.76575547
0.76578727
0.76581265
0.76583163
0.76584421
0.76585045
0.76001843
0.76033287
0.76063651
0.76092959
0.7612123
0.76148484
0.7617474
0.76200019
0.76224338
0.76247718
0.76270178
0.76291735
0.76312407
0.76332212
0.76351166
0.76369284
0.76386584
0.76403079
0.76418783
0.7643371
0.76447874
0.76461285
0.76473957
0.764859
0.76497124
0.7650764
0.76517455
0.7652658
0.76535021
0.76542786
0.76549882
0.76556313
0.76562087
0.76567206
0.76571676
0.765755
0.7657868
0.76581218
0.76583116
0.76584375
0.76584999
0.76001898
0.7603333
0.76063685
0.76092986
0.76121251
0.761485
0.76174751
0.76200025
0.76224341
0.76247717
0.76270174
0.76291728
0.76312397
0.76332199
0.7635115
0.76369267
0.76386564
0.76403057
0.76418759
0.76433685
0.76447846
0.76461257
0.76473927
0.76485868
0.76497091
0.76507606
0.76517421
0.76526544
0.76534985
0.76542749
0.76549844
0.76556275
0.76562048
0.76567167
0.76571636
0.7657546
0.76578639
0.76581178
0.76583076
0.76584336
0.7658496
0.76001997
0.76033414
0.76063759
0.76093051
0.76121308
0.7614855
0.76174795
0.76200063
0.76224373
0.76247745
0.76270196
0.76291746
0.76312411
0.76332209
0.76351156
0.76369269
0.76386563
0.76403053
0.76418753
0.76433675
0.76447835
0.76461243
0.76473911
0.7648585
0.76497071
0.76507584
0.76517397
0.7652652
0.76534959
0.76542722
0.76549815
0.76556246
0.76562018
0.76567136
0.76571605
0.76575428
0.76578607
0.76581145
0.76583044
0.76584305
0.76584929
0.75969639
0.76002135
0.7603354
0.76063874
0.76093156
0.76121404
0.76148637
0.76174874
0.76200135
0.76224438
0.76247803
0.76270248
0.76291791
0.76312451
0.76332244
0.76351186
0.76369295
0.76386584
0.7640307
0.76418765
0.76433685
0.76447841
0.76461245
0.76473911
0.76485847
0.76497066
0.76507576
0.76517388
0.76526508
0.76534945
0.76542707
0.76549799
0.76556228
0.76561999
0.76567116
0.76571585
0.76575407
0.76578586
0.76581123
0.76583022
0.76584285
0.76584909
0.75969813
0.76002307
0.76033701
0.76064024
0.76093295
0.76121533
0.76148756
0.76174983
0.76200235
0.7622453
0.76247887
0.76270325
0.76291861
0.76312514
0.76332301
0.76351238
0.76369341
0.76386625
0.76403106
0.76418797
0.76433712
0.76447864
0.76461265
0.76473927
0.7648586
0.76497076
0.76507584
0.76517392
0.7652651
0.76534945
0.76542705
0.76549796
0.76556223
0.76561993
0.76567109
0.76571576
0.76575398
0.76578576
0.76581114
0.76583012
0.76584276
0.765849
0.75970024
0.76002507
0.7603389
0.76064201
0.7609346
0.76121687
0.76148899
0.76175117
0.76200359
0.76224644
0.76247993
0.76270422
0.76291951
0.76312597
0.76332377
0.76351307
0.76369404
0.76386682
0.76403158
0.76418844
0.76433754
0.76447901
0.76461298
0.76473956
0.76485886
0.76497099
0.76507603
0.76517409
0.76526524
0.76534957
0.76542715
0.76549803
0.76556229
0.76561997
0.76567112
0.76571579
0.76575399
0.76578577
0.76581114
0.76583012
0.76584276
0.76584902
0.75970286
0.76002753
0.76034122
0.7606442
0.76093666
0.7612188
0.76149079
0.76175285
0.76200516
0.76224791
0.76248129
0.76270549
0.76292069
0.76312706
0.76332477
0.763514
0.76369489
0.76386761
0.7640323
0.7641891
0.76433815
0.76447957
0.76461349
0.76474002
0.76485928
0.76497136
0.76507637
0.7651744
0.76526552
0.76534982
0.76542737
0.76549823
0.76556247
0.76562013
0.76567127
0.76571592
0.76575411
0.76578588
0.76581125
0.76583023
0.76584287
0.76584913
0.75937023
0.75970596
0.76003047
0.76034401
0.76064684
0.76093916
0.76122114
0.761493
0.76175492
0.76200709
0.76224972
0.76248298
0.76270707
0.76292216
0.76312843
0.76332605
0.76351519
0.763696
0.76386864
0.76403325
0.76418998
0.76433896
0.76448032
0.76461418
0.76474066
0.76485987
0.7649719
0.76507687
0.76517485
0.76526594
0.76535021
0.76542773
0.76549856
0.76556278
0.76562042
0.76567154
0.76571617
0.76575435
0.76578611
0.76581147
0.76583045
0.7658431
0.76584936
0.75937399
0.7597096
0.76003394
0.76034732
0.76064998
0.76094212
0.76122394
0.76149564
0.7617574
0.76200942
0.76225191
0.76248503
0.76270899
0.76292396
0.76313011
0.76332762
0.76351666
0.76369737
0.76386992
0.76403444
0.76419109
0.76433999
0.76448128
0.76461507
0.76474149
0.76486064
0.76497262
0.76507754
0.76517548
0.76526652
0.76535075
0.76542823
0.76549904
0.76556323
0.76562084
0.76567194
0.76571656
0.76575473
0.76578647
0.76581182
0.7658308
0.76584345
0.76584971
0.75903119
0.75937839
0.75971383
0.76003799
0.76035119
0.76065366
0.7609456
0.76122723
0.76149874
0.76176032
0.76201218
0.7622545
0.76248747
0.76271128
0.76292611
0.76313213
0.76332952
0.76351843
0.76369903
0.76387147
0.7640359
0.76419245
0.76434127
0.76448247
0.76461619
0.76474253
0.76486162
0.76497354
0.7650784
0.76517628
0.76526728
0.76535146
0.76542891
0.76549968
0.76556383
0.76562142
0.76567249
0.76571709
0.76575524
0.76578698
0.76581232
0.76583129
0.76584394
0.7658502
0.75903657
0.75938349
0.75971871
0.76004267
0.76035566
0.76065791
0.76094963
0.76123105
0.76150235
0.76176373
0.76201539
0.76225753
0.76249032
0.76271397
0.76292864
0.76313451
0.76333175
0.76352053
0.763701
0.76387332
0.76403764
0.76419409
0.7643428
0.76448391
0.76461754
0.76474381
0.76486281
0.76497466
0.76507946
0.76517728
0.76526822
0.76535236
0.76542976
0.76550049
0.7655646
0.76562216
0.76567321
0.76571778
0.76575591
0.76578764
0.76581297
0.76583193
0.76584457
0.76585084
0.75868411
0.75904273
0.75938934
0.75972432
0.76004803
0.76036077
0.76066277
0.76095426
0.76123543
0.76150649
0.76176765
0.76201909
0.76226102
0.76249362
0.76271708
0.76293157
0.76313727
0.76333435
0.76352298
0.76370331
0.7638755
0.76403969
0.76419601
0.76434462
0.76448562
0.76461916
0.76474533
0.76486425
0.76497602
0.76508074
0.7651785
0.76526938
0.76535345
0.7654308
0.76550148
0.76556556
0.76562308
0.7656741
0.76571864
0.76575676
0.76578846
0.76581378
0.76583274
0.76584538
0.76585165
0.75869154
0.75904973
0.759396
0.75973069
0.76005413
0.76036659
0.76066831
0.76095951
0.76124041
0.76151122
0.76177212
0.76202332
0.76226502
0.7624974
0.76272065
0.76293494
0.76314045
0.76333736
0.76352581
0.76370598
0.76387802
0.76404206
0.76419826
0.76434674
0.76448762
0.76462105
0.76474711
0.76486594
0.76497762
0.76508226
0.76517994
0.76527075
0.76535476
0.76543205
0.76550269
0.76556672
0.7656242
0.76567518
0.76571969
0.76575778
0.76578947
0.76581477
0.76583372
0.76584636
0.76585263
0.75832997
0.75869991
0.75905766
0.75940355
0.7597379
0.76006102
0.76037316
0.76067456
0.76096546
0.76124605
0.76151656
0.76177719
0.76202812
0.76226956
0.76250169
0.76272471
0.76293878
0.76314408
0.76334078
0.76352905
0.76370905
0.76388091
0.7640448
0.76420084
0.76434918
0.76448994
0.76462323
0.76474919
0.7648679
0.76497949
0.76508403
0.76518163
0.76527236
0.76535631
0.76543353
0.76550411
0.76556808
0.76562552
0.76567646
0.76572094
0.765759
0.76579067
0.76581596
0.7658349
0.76584753
0.7658538
0.75833993
0.75870932
0.75906658
0.75941205
0.75974601
0.76006875
0.76038053
0.76068158
0.76097213
0.76125239
0.76152258
0.76178289
0.76203352
0.76227468
0.76250654
0.76272929
0.76294312
0.76314819
0.76334467
0.76353273
0.76371253
0.7638842
0.76404791
0.76420379
0.76435197
0.76449258
0.76462575
0.76475157
0.76487017
0.76498164
0.76508609
0.76518359
0.76527423
0.7653581
0.76543525
0.76550576
0.76556968
0.76562707
0.76567797
0.76572241
0.76576044
0.76579208
0.76581735
0.76583628
0.7658489
0.76585517
0.75796984
0.75835103
0.75871983
0.75907656
0.75942156
0.75975508
0.7600774
0.76038877
0.76068942
0.76097959
0.76125948
0.76152931
0.76178927
0.76203958
0.76228042
0.76251198
0.76273445
0.762948
0.76315281
0.76334905
0.76353688
0.76371645
0.76388793
0.76405144
0.76420714
0.76435514
0.76449559
0.7646286
0.76475429
0.76487276
0.76498411
0.76508844
0.76518583
0.76527638
0.76536016
0.76543724
0.76550767
0.76557153
0.76562886
0.76567971
0.76572412
0.76576211
0.76579372
0.76581897
0.76583789
0.7658505
0.76585677
0.7579829
0.75836338
0.75873153
0.75908769
0.75943215
0.75976518
0.76008702
0.76039794
0.76069815
0.76098789
0.76126737
0.7615368
0.76179638
0.76204633
0.76228682
0.76251805
0.7627402
0.76295346
0.76315798
0.76335395
0.76354153
0.76372086
0.76389211
0.76405541
0.7642109
0.76435872
0.76449899
0.76463183
0.76475736
0.76487568
0.7649869
0.76509111
0.76518839
0.76527883
0.76536251
0.7654395
0.76550986
0.76557365
0.76563092
0.76568171
0.76572607
0.76576403
0.76579561
0.76582084
0.76583974
0.76585234
0.76585861
0.75799739
0.75837706
0.7587445
0.75910003
0.7594439
0.75977637
0.76009769
0.76040809
0.76070782
0.76099708
0.76127611
0.7615451
0.76180427
0.76205382
0.76229393
0.7625248
0.7627466
0.76295953
0.76316375
0.76335942
0.76354671
0.76372578
0.76389678
0.76405984
0.76421512
0.76436273
0.7645028
0.76463546
0.76476082
0.76487898
0.76499005
0.76509412
0.76519128
0.7652816
0.76536518
0.76544207
0.76551234
0.76557605
0.76563325
0.76568399
0.7657283
0.76576621
0.76579776
0.76582297
0.76584185
0.76585444
0.7658607
0.75801338
0.75839216
0.75875884
0.75911366
0.75945688
0.75978873
0.76010946
0.7604193
0.76071849
0.76100723
0.76128576
0.76155428
0.76181299
0.7620621
0.76230179
0.76253227
0.76275369
0.76296626
0.76317014
0.76336549
0.76355247
0.76373125
0.76390198
0.76406478
0.76421981
0.7643672
0.76450706
0.76463952
0.76476469
0.76488268
0.76499358
0.7650975
0.76519452
0.76528472
0.76536818
0.76544497
0.76551514
0.76557877
0.76563589
0.76568656
0.76573082
0.76576868
0.7658002
0.76582537
0.76584423
0.76585682
0.76586307
0.75764076
0.75803089
0.75840876
0.75877461
0.75912866
0.75947116
0.75980233
0.76012242
0.76043164
0.76073023
0.7610184
0.76129639
0.76156438
0.7618226
0.76207123
0.76231047
0.7625405
0.76276152
0.76297369
0.7631772
0.76337219
0.76355885
0.76373731
0.76390774
0.76407026
0.76422502
0.76437216
0.76451179
0.76464403
0.76476899
0.76488679
0.76499752
0.76510127
0.76519814
0.7652882
0.76537154
0.76544821
0.76551828
0.76558181
0.76563886
0.76568945
0.76573365
0.76577146
0.76580293
0.76582808
0.76584692
0.76585949
0.76586574
0.7576609
0.75805002
0.75842694
0.7587919
0.75914512
0.75948683
0.75981726
0.76013662
0.76044517
0.7607431
0.76103066
0.76130804
0.76157547
0.76183314
0.76208125
0.76231999
0.76254956
0.76277012
0.76298187
0.76318497
0.76337958
0.76356587
0.76374399
0.76391409
0.76407631
0.76423079
0.76437765
0.76451702
0.76464902
0.76477377
0.76489136
0.76500189
0.76510547
0.76520217
0.76529208
0.76537527
0.76545182
0.76552178
0.76558521
0.76564216
0.76569268
0.76573681
0.76577457
0.765806
0.76583111
0.76584992
0.76586248
0.76586872
0.75686899
0.75728234
0.75768284
0.7580709
0.75844681
0.75881081
0.75916312
0.75950397
0.75983358
0.76015216
0.76045996
0.76075719
0.76104406
0.7613208
0.76158761
0.76184468
0.76209223
0.76233043
0.76255948
0.76277956
0.76299084
0.7631935
0.7633877
0.76357359
0.76375134
0.76392108
0.76408297
0.76423713
0.7643837
0.7645228
0.76465454
0.76477904
0.7648964
0.76500673
0.76511011
0.76520663
0.76529638
0.76537942
0.76545583
0.76552567
0.76558899
0.76564584
0.76569628
0.76574033
0.76577803
0.76580941
0.76583448
0.76585327
0.7658658
0.76587204
0.75647053
0.7568954
0.75730741
0.7577067
0.75809363
0.75846845
0.75883142
0.75918275
0.75952266
0.75985138
0.76016911
0.7604761
0.76077255
0.76105869
0.76133472
0.76160085
0.76185728
0.76210421
0.76234183
0.76257033
0.76278988
0.76300066
0.76320284
0.76339658
0.76358205
0.76375939
0.76392875
0.76409028
0.7642441
0.76439035
0.76452914
0.7646606
0.76478484
0.76490196
0.76501206
0.76511523
0.76521156
0.76530112
0.765384
0.76546026
0.76552996
0.76559317
0.76564992
0.76570026
0.76574423
0.76578186
0.76581319
0.76583822
0.76585698
0.76586949
0.76587572
0.75650068
0.75692405
0.75733464
0.75773264
0.75811833
0.75849199
0.75885384
0.75920411
0.759543
0.75987074
0.76018756
0.76049366
0.76078927
0.76107461
0.76134987
0.76161527
0.761871
0.76211727
0.76235426
0.76258215
0.76280113
0.76301136
0.76321303
0.76340628
0.76359128
0.76376819
0.76393713
0.76409827
0.76425172
0.76439762
0.7645361
0.76466725
0.76479121
0.76490806
0.76501791
0.76512085
0.76521697
0.76530634
0.76538905
0.76546514
0.7655347
0.76559777
0.76565441
0.76570465
0.76574853
0.7657861
0.76581736
0.76584235
0.76586107
0.76587357
0.76587979
0.75653333
0.7569551
0.75736417
0.75776076
0.75814514
0.75851753
0.75887817
0.75922727
0.75956507
0.75989176
0.76020757
0.76051272
0.76080742
0.76109189
0.76136632
0.76163093
0.76188591
0.76213146
0.76236776
0.762595
0.76281336
0.76302301
0.76322412
0.76341684
0.76360135
0.76377777
0.76394628
0.76410699
0.76426005
0.76440557
0.76454369
0.76467452
0.76479817
0.76491474
0.76502432
0.76512702
0.76522291
0.76531207
0.76539458
0.7654705
0.7655399
0.76560283
0.76565934
0.76570948
0.76575327
0.76579075
0.76582195
0.76584689
0.76586558
0.76587805
0.76588426
0.75656864
0.75698868
0.75739614
0.75779121
0.75817415
0.75854517
0.7589045
0.75925236
0.75958896
0.75991451
0.76022925
0.76053336
0.76082708
0.76111061
0.76138415
0.7616479
0.76190207
0.76214684
0.76238241
0.76260895
0.76282664
0.76303565
0.76323616
0.76342832
0.76361228
0.7637882
0.76395622
0.76411648
0.76426911
0.76441423
0.76455197
0.76468245
0.76480576
0.76492202
0.76503132
0.76513375
0.76522939
0.76531833
0.76540063
0.76547637
0.7655456
0.76560838
0.76566475
0.76571477
0.76575846
0.76579585
0.76582698
0.76585187
0.76587052
0.76588297
0.76588917
0.75660673
0.75702494
0.75743066
0.7578241
0.75820548
0.75857502
0.75893294
0.75927945
0.75961477
0.7599391
0.76025266
0.76055567
0.76084833
0.76113084
0.76140342
0.76166625
0.76191955
0.76216348
0.76239826
0.76262404
0.76284102
0.76304935
0.76324921
0.76344075
0.76362414
0.76379951
0.76396701
0.76412678
0.76427894
0.76442364
0.76456097
0.76469107
0.76481403
0.76492995
0.76503894
0.76514108
0.76523646
0.76532516
0.76540724
0.76548277
0.76555181
0.76561443
0.76567066
0.76572054
0.76576413
0.76580143
0.76583249
0.76585731
0.76587592
0.76588834
0.76589453
0.75664775
0.75706399
0.75746786
0.75785953
0.75823924
0.75860719
0.75896359
0.75930866
0.75964259
0.75996561
0.76027792
0.76057972
0.76087124
0.76115267
0.7614242
0.76168605
0.7619384
0.76218145
0.76241537
0.76264034
0.76285655
0.76306415
0.76326331
0.7634542
0.76363696
0.76381174
0.76397869
0.76413793
0.7642896
0.76443383
0.76457073
0.76470041
0.76482299
0.76493856
0.76504722
0.76514905
0.76524414
0.76533258
0.76541442
0.76548973
0.76555858
0.76562102
0.76567709
0.76572684
0.7657703
0.76580751
0.76583848
0.76586324
0.76588181
0.7658942
0.76590037
0.75669181
0.75710597
0.75750785
0.75789763
0.75827555
0.75864179
0.75899656
0.75934007
0.75967252
0.75999413
0.76030509
0.76060561
0.7608959
0.76117616
0.76144659
0.76170737
0.76195872
0.7622008
0.7624338
0.76265791
0.76287329
0.76308011
0.76327853
0.76346871
0.7636508
0.76382495
0.7639913
0.76414998
0.76430112
0.76444485
0.76458128
0.76471053
0.76483269
0.76494788
0.76505618
0.76515768
0.76525247
0.76534062
0.76542221
0.76549729
0.76556593
0.76562817
0.76568408
0.76573368
0.76577702
0.76581412
0.765845
0.76586969
0.76588821
0.76590056
0.76590672
0.75673904
0.75715098
0.75755074
0.75793851
0.75831451
0.75867892
0.75903194
0.75937379
0.75970465
0.76002474
0.76033426
0.76063341
0.76092239
0.7612014
0.76147063
0.76173028
0.76198055
0.7622216
0.76245363
0.7626768
0.7628913
0.76309728
0.7632949
0.76348433
0.76366571
0.76383918
0.76400489
0.76416297
0.76431355
0.76445674
0.76459267
0.76472145
0.76484317
0.76495795
0.76506587
0.76516702
0.76526148
0.76534933
0.76543064
0.76550547
0.76557388
0.76563592
0.76569165
0.76574109
0.76578429
0.76582127
0.76585207
0.76587668
0.76589514
0.76590746
0.7659136
0.75678957
0.75719915
0.75759666
0.75798228
0.75835623
0.75871868
0.75906984
0.75940991
0.75973908
0.76005755
0.76036552
0.7606632
0.76095078
0.76122845
0.76149641
0.76175485
0.76200396
0.76224392
0.7624749
0.76269708
0.76291063
0.76311571
0.76331249
0.76350111
0.76368173
0.76385448
0.76401951
0.76417695
0.76432692
0.76446954
0.76460493
0.76473321
0.76485446
0.7649688
0.76507631
0.76517709
0.7652712
0.76535873
0.76543974
0.7655143
0.76558247
0.7656443
0.76569983
0.7657491
0.76579215
0.76582901
0.7658597
0.76588424
0.76590264
0.76591492
0.76592105
0.75684352
0.7572506
0.75764571
0.75802905
0.75840081
0.75876118
0.75911036
0.75944853
0.75977589
0.76009263
0.76039896
0.76069507
0.76098115
0.7612574
0.761524
0.76178115
0.76202903
0.76226781
0.76249768
0.7627188
0.76293134
0.76313547
0.76333134
0.76351911
0.76369891
0.76387089
0.76403519
0.76419194
0.76434127
0.76448328
0.76461811
0.76474585
0.7648666
0.76498047
0.76508755
0.76518792
0.76528166
0.76536884
0.76544954
0.76552382
0.76559172
0.76565332
0.76570864
0.76575773
0.76580063
0.76583736
0.76586794
0.76589239
0.76591073
0.76592297
0.76592907
0.75690101
0.75730543
0.757698
0.75807891
0.75844835
0.75880651
0.75915357
0.75948973
0.75981516
0.76013007
0.76043465
0.76072909
0.76101358
0.76128831
0.76155347
0.76180924
0.7620558
0.76229334
0.76252202
0.76274202
0.76295349
0.7631566
0.76335151
0.76353836
0.76371729
0.76388846
0.76405199
0.76420801
0.76435664
0.76449801
0.76463223
0.7647594
0.76487962
0.76499299
0.76509961
0.76519955
0.76529289
0.76537971
0.76546007
0.76553404
0.76560167
0.76566302
0.76571812
0.76576702
0.76580975
0.76584634
0.7658768
0.76590116
0.76591944
0.76593163
0.76593771
0.75696214
0.75736375
0.75775363
0.75813197
0.75849896
0.75885477
0.75919958
0.7595336
0.75985699
0.76016995
0.76047266
0.76076533
0.76104813
0.76132125
0.76158487
0.76183918
0.76208435
0.76232056
0.76254798
0.76276678
0.76297712
0.76317915
0.76337303
0.76355891
0.76373693
0.76390722
0.76406993
0.76422518
0.76437308
0.76451376
0.76464733
0.7647739
0.76489355
0.7650064
0.76511252
0.765212
0.76530492
0.76539135
0.76547136
0.765545
0.76561234
0.76567342
0.76572829
0.76577698
0.76581953
0.76585597
0.76588631
0.76591057
0.76592877
0.76594092
0.76594698
0.75702701
0.75742565
0.7578127
0.75818832
0.7585527
0.75890602
0.75924847
0.75958021
0.75990144
0.76021233
0.76051307
0.76080386
0.76108486
0.76135627
0.76161827
0.76187103
0.76211472
0.76234953
0.76257562
0.76279315
0.76300228
0.76320316
0.76339596
0.76358081
0.76375785
0.76392723
0.76408906
0.76424349
0.76439062
0.76453057
0.76466345
0.76478937
0.76490843
0.76502071
0.76512631
0.76522531
0.76531778
0.7654038
0.76548342
0.76555672
0.76562375
0.76568455
0.76573917
0.76578764
0.76583
0.76586628
0.76589649
0.76592065
0.76593877
0.76595086
0.7659569
0.75709572
0.75749123
0.75787528
0.75824802
0.75860966
0.75896036
0.75930029
0.75962963
0.75994857
0.76025728
0.76055594
0.76084473
0.76112384
0.76139345
0.76165372
0.76190484
0.76214697
0.76238029
0.76260497
0.76282115
0.763029
0.76322868
0.76342033
0.76360409
0.7637801
0.7639485
0.76410941
0.76426297
0.76440928
0.76454846
0.76468062
0.76480586
0.76492428
0.76503596
0.76514101
0.76523949
0.76533149
0.76541707
0.7654963
0.76556923
0.76563592
0.76569643
0.76575078
0.76579902
0.76584118
0.76587729
0.76590736
0.7659314
0.76594944
0.76596148
0.76596749
0.75716834
0.75756055
0.75794144
0.75831116
0.7586699
0.75901783
0.75935511
0.75968193
0.75999845
0.76030485
0.76060131
0.76088801
0.76116511
0.76143281
0.76169126
0.76194065
0.76218114
0.76241289
0.76263607
0.76285083
0.76305734
0.76325574
0.76344617
0.76362878
0.7638037
0.76397107
0.76413101
0.76428365
0.76442909
0.76456746
0.76469885
0.76482337
0.76494112
0.76505218
0.76515664
0.76525458
0.76534608
0.76543119
0.76550999
0.76558254
0.76564888
0.76570907
0.76576315
0.76581114
0.76585309
0.76588901
0.76591893
0.76594286
0.76596082
0.7659728
0.76597878
0.75724492
0.75763366
0.75801123
0.75837777
0.75873347
0.75907848
0.75941298
0.75973714
0.76005112
0.76035509
0.76064923
0.76093372
0.76120872
0.7614744
0.76173094
0.7619785
0.76221725
0.76244735
0.76266896
0.76288223
0.76308731
0.76328436
0.76347352
0.76365491
0.76382869
0.76399497
0.76415389
0.76430555
0.76445008
0.76458759
0.76471818
0.76484194
0.76495898
0.76506938
0.76517322
0.76527059
0.76536155
0.76544618
0.76552454
0.76559667
0.76566265
0.7657225
0.76577628
0.76582401
0.76586573
0.76590147
0.76593123
0.76595504
0.7659729
0.76598482
0.76599077
0.75732549
0.75771061
0.75808469
0.7584479
0.7588004
0.75914235
0.75947393
0.75979529
0.7601066
0.76040802
0.76069973
0.76098189
0.76125467
0.76151824
0.76177277
0.76201841
0.76225533
0.76248369
0.76270365
0.76291535
0.76311894
0.76331457
0.76350238
0.76368251
0.76385507
0.76402022
0.76417805
0.7643287
0.76447227
0.76460887
0.76473861
0.76486157
0.76497786
0.76508757
0.76519076
0.76528753
0.76537793
0.76546205
0.76553993
0.76561164
0.76567722
0.76573673
0.76579019
0.76583765
0.76587913
0.76591466
0.76594426
0.76596794
0.7659857
0.76599755
0.76600347
0.75741008
0.75779139
0.75816183
0.75852154
0.75887069
0.75920945
0.75953796
0.75985639
0.7601649
0.76046365
0.76075281
0.76103253
0.76130299
0.76156435
0.76181676
0.76206039
0.7622954
0.76252194
0.76274016
0.76295021
0.76315224
0.76334638
0.76353278
0.76371157
0.76388287
0.76404681
0.76420351
0.76435309
0.76449565
0.76463131
0.76476015
0.76488228
0.76499779
0.76510676
0.76520927
0.76530541
0.76539523
0.7654788
0.76555619
0.76562744
0.76569262
0.76575175
0.76580489
0.76585206
0.76589329
0.76592861
0.76595803
0.76598157
0.76599923
0.76601102
0.7660169
0.75749866
0.757876
0.75824263
0.75859869
0.75894435
0.75927975
0.75960507
0.75992043
0.76022602
0.76052197
0.76080846
0.76108564
0.76135367
0.76161271
0.76186291
0.76210444
0.76233745
0.76256208
0.76277848
0.76298681
0.7631872
0.76337979
0.76356471
0.7637421
0.76391207
0.76407476
0.76423028
0.76437873
0.76452024
0.7646549
0.76478281
0.76490407
0.76501875
0.76512696
0.76522876
0.76532423
0.76541343
0.76549644
0.76557331
0.76564409
0.76570884
0.76576758
0.76582038
0.76586724
0.76590821
0.76594331
0.76597255
0.76599593
0.76601349
0.7660252
0.76603105
0.75759119
0.75796438
0.75832704
0.7586793
0.75902131
0.75935323
0.7596752
0.75998738
0.76028992
0.76058296
0.76086666
0.76114119
0.76140668
0.7616633
0.7619112
0.76215054
0.76238145
0.76260409
0.7628186
0.76302513
0.76322381
0.76341477
0.76359815
0.76377408
0.76394267
0.76410405
0.76425833
0.76440562
0.76454602
0.76467964
0.76480658
0.76492692
0.76504075
0.76514815
0.7652492
0.76534398
0.76543255
0.76551496
0.76559129
0.76566157
0.76572587
0.76578421
0.76583664
0.76588319
0.76592389
0.76595875
0.76598779
0.76601103
0.76602847
0.76604011
0.76604592
0.75768756
0.75805646
0.75841498
0.75876328
0.75910151
0.7594298
0.75974831
0.76005717
0.76035653
0.76064655
0.76092736
0.76119912
0.76146198
0.76171608
0.76196159
0.76219864
0.76242737
0.76264794
0.76286048
0.76306514
0.76326203
0.76345131
0.76363308
0.76380749
0.76397464
0.76413465
0.76428764
0.76443371
0.76457297
0.76470551
0.76483143
0.76495082
0.76506375
0.76517032
0.7652706
0.76536465
0.76545255
0.76553435
0.76561011
0.76567988
0.7657437
0.76580163
0.76585368
0.7658999
0.76594031
0.76597493
0.76600377
0.76602684
0.76604416
0.76605572
0.76606149
0.75778766
0.75815208
0.75850633
0.75885053
0.75918483
0.75950936
0.75982428
0.7601297
0.76042578
0.76071265
0.76099046
0.76125935
0.76151948
0.76177098
0.762014
0.76224867
0.76247515
0.76269357
0.76290407
0.76310678
0.76330182
0.76348934
0.76366945
0.76384228
0.76400793
0.76416653
0.76431818
0.76446299
0.76460106
0.76473247
0.76485734
0.76497573
0.76508774
0.76519345
0.76529291
0.76538622
0.76547342
0.76555458
0.76562975
0.76569898
0.76576232
0.7658198
0.76587147
0.76591734
0.76595745
0.76599181
0.76602044
0.76604335
0.76606055
0.76607202
0.76607776
0.75789128
0.75825109
0.7586009
0.75894086
0.75927111
0.75959177
0.75990297
0.76020484
0.76049752
0.76078114
0.76105585
0.76132179
0.76157909
0.76182789
0.76206833
0.76230056
0.7625247
0.7627409
0.76294928
0.76314997
0.76334311
0.76352881
0.7637072
0.76387839
0.7640425
0.76419963
0.7643499
0.7644934
0.76463023
0.76476048
0.76488425
0.76500162
0.76511267
0.76521748
0.76531611
0.76540863
0.76549512
0.76557561
0.76565017
0.76571885
0.76578168
0.76583871
0.76588997
0.76593548
0.76597528
0.76600938
0.76603779
0.76606053
0.76607759
0.76608899
0.76609467
0.75799817
0.75835322
0.75869847
0.75903408
0.75936015
0.75967682
0.75998419
0.76028241
0.76057159
0.76085188
0.76112339
0.76138627
0.76164066
0.76188668
0.76212447
0.76235417
0.76257591
0.76278981
0.76299601
0.76319463
0.7633858
0.76356963
0.76374624
0.76391574
0.76407825
0.76423387
0.76438271
0.76452486
0.76466042
0.76478947
0.76491212
0.76502843
0.76513848
0.76524236
0.76534013
0.76543185
0.76551759
0.7655974
0.76567133
0.76573943
0.76580174
0.7658583
0.76590914
0.76595429
0.76599376
0.76602759
0.76605578
0.76607833
0.76609526
0.76610657
0.76611221
0.7577481
0.75810798
0.75845815
0.75879875
0.7591299
0.7594517
0.75976427
0.76006773
0.76036219
0.76064779
0.76092464
0.76119288
0.76145263
0.76170402
0.76194719
0.76218226
0.76240936
0.76262863
0.76284018
0.76304414
0.76324062
0.76342976
0.76361167
0.76378645
0.76395422
0.76411509
0.76426916
0.76441653
0.76455729
0.76469154
0.76481936
0.76494084
0.76505607
0.76516511
0.76526803
0.76536491
0.76545581
0.76554078
0.76561988
0.76569317
0.76576067
0.76582245
0.76587852
0.76592893
0.7659737
0.76601284
0.76604639
0.76607434
0.76609671
0.76611351
0.76612472
0.76613032
0.75750127
0.7578656
0.75822031
0.75856554
0.7589014
0.759228
0.75954544
0.75985384
0.76015329
0.76044392
0.76072585
0.76099919
0.76126407
0.76152062
0.76176896
0.76200921
0.76224149
0.76246594
0.76268268
0.76289182
0.76309348
0.76328779
0.76347485
0.76365479
0.7638277
0.7639937
0.76415289
0.76430537
0.76445123
0.76459057
0.76472348
0.76485004
0.76497034
0.76508445
0.76519244
0.76529439
0.76539036
0.76548041
0.7655646
0.76564298
0.7657156
0.7657825
0.76584372
0.7658993
0.76594927
0.76599364
0.76603245
0.76606571
0.76609342
0.76611561
0.76613226
0.76614337
0.76614893
0.75725804
0.75762639
0.75798527
0.75833476
0.75867497
0.75900602
0.759328
0.75964101
0.75994515
0.76024053
0.76052726
0.76080545
0.76107523
0.7613367
0.76158998
0.76183521
0.76207248
0.76230194
0.76252368
0.76273784
0.76294452
0.76314385
0.76333594
0.76352089
0.76369882
0.76386983
0.76403402
0.7641915
0.76434235
0.76448668
0.76462458
0.76475612
0.7648814
0.76500048
0.76511345
0.76522038
0.76532134
0.76541638
0.76550557
0.76558896
0.7656666
0.76573854
0.76580482
0.76586548
0.76592056
0.76597007
0.76601405
0.76605251
0.76608547
0.76611294
0.76613493
0.76615144
0.76616246
0.76616796
0.75739067
0.75775326
0.75810663
0.75845083
0.75878597
0.75911214
0.75942944
0.75973796
0.76003779
0.76032905
0.76061183
0.76088624
0.76115239
0.76141041
0.76166039
0.76190246
0.76213672
0.7623633
0.76258231
0.76279385
0.76299805
0.76319501
0.76338485
0.76356766
0.76374355
0.76391263
0.76407499
0.76423073
0.76437994
0.76452271
0.76465914
0.7647893
0.76491327
0.76503113
0.76514294
0.76524879
0.76534874
0.76544284
0.76553115
0.76561373
0.76569063
0.76576188
0.76582753
0.76588762
0.76594218
0.76599123
0.7660348
0.76607292
0.76610558
0.7661328
0.76615459
0.76617095
0.76618187
0.76618733
0.75752447
0.75788126
0.75822906
0.75856793
0.75889795
0.7592192
0.75953178
0.75983577
0.76013127
0.76041836
0.76069716
0.76096776
0.76123028
0.76148481
0.76173146
0.76197034
0.76220157
0.76242525
0.7626415
0.76285041
0.7630521
0.76324668
0.76343424
0.76361489
0.76378873
0.76395586
0.76411637
0.76427036
0.76441792
0.76455912
0.76469407
0.76482283
0.76494548
0.7650621
0.76517276
0.76527752
0.76537644
0.76546959
0.76555702
0.76563878
0.76571492
0.76578548
0.7658505
0.76591001
0.76596405
0.76601264
0.7660558
0.76609356
0.76612592
0.76615289
0.76617448
0.76619069
0.76620151
0.76620692
0.75765863
0.75800961
0.75835183
0.75868535
0.75901022
0.75932655
0.7596344
0.75993385
0.760225
0.76050793
0.76078274
0.76104953
0.76130839
0.76155943
0.76180274
0.76203844
0.76226663
0.76248741
0.76270088
0.76290716
0.76310634
0.76329852
0.7634838
0.76366229
0.76383408
0.76399925
0.76415791
0.76431015
0.76445604
0.76459568
0.76472913
0.76485649
0.76497783
0.7650932
0.76520269
0.76530636
0.76540427
0.76549646
0.76558301
0.76566395
0.76573933
0.76580919
0.76587357
0.7659325
0.76598602
0.76603415
0.7660769
0.7661143
0.76614635
0.76617308
0.76619447
0.76621053
0.76622125
0.76622661
0.75779221
0.7581374
0.75847407
0.75880225
0.75912201
0.75943343
0.75973656
0.7600315
0.76031833
0.76059711
0.76086796
0.76113094
0.76138617
0.76163374
0.76187373
0.76210626
0.76233142
0.76254932
0.76276004
0.76296369
0.76316036
0.76335016
0.76353318
0.76370952
0.76387926
0.76404249
0.76419931
0.7643498
0.76449403
0.76463211
0.76476409
0.76489005
0.76501007
0.76512421
0.76523254
0.76533512
0.76543201
0.76552325
0.76560892
0.76568904
0.76576366
0.76583283
0.76589658
0.76595494
0.76600794
0.7660556
0.76609794
0.76613499
0.76616674
0.76619321
0.7662144
0.76623031
0.76624093
0.76624624
0.75792413
0.75826361
0.75859479
0.7589177
0.75923241
0.75953897
0.75983746
0.76012794
0.76041049
0.76068519
0.76095211
0.76121135
0.76146299
0.76170713
0.76194385
0.76217325
0.76239543
0.76261047
0.76281847
0.76301953
0.76321374
0.76340119
0.76358197
0.76375618
0.7639239
0.76408521
0.76424021
0.76438897
0.76453158
0.76466811
0.76479863
0.76492321
0.76504194
0.76515486
0.76526204
0.76536355
0.76545943
0.76554974
0.76563453
0.76571384
0.76578772
0.76585621
0.76591933
0.76597712
0.7660296
0.76607681
0.76611875
0.76615544
0.76618689
0.76621312
0.76623411