/*--------------------------------*- C++ -*----------------------------------*\
| =========                 |                                                 |
| \\      /  F ield         | OpenFOAM: The Open Source CFD Toolbox           |
|  \\    /   O peration     | Version:  2312                                  |
|   \\  /    A nd           | Website:  www.openfoam.com                      |
|    \\/     M anipulation  |                                                 |
\*---------------------------------------------------------------------------*/
FoamFile
{
    version     2.0;
    format      ascii;
    arch        "LSB;label=32;scalar=64";
    class       volScalarField;
    location    "0.08";
    object      nut;
}
// * * * * * * * * * * * * * * * * * * * * * * * * * * * * * * * * * * * * * //

dimensions      [0 2 -1 0 0 0 0];

internalField   nonuniform List<scalar> 
3224
(
0.051921832
0.052246895
0.052567044
0.052882021
0.053191564
0.053495414
0.053793326
0.054085067
0.054370414
0.054649153
0.05492108
0.055186001
0.055443729
0.055694089
0.055936912
0.056172037
0.056399313
0.056618595
0.056829745
0.057032633
0.057227137
0.057413141
0.057590533
0.057759212
0.057919078
0.058070039
0.05821201
0.058344909
0.05846866
0.058583192
0.058688438
0.058784336
0.058870829
0.058947863
0.059015386
0.059073352
0.059121717
0.059160439
0.059189476
0.059208795
0.059218539
0.051921626
0.052246704
0.05256683
0.052881784
0.053191307
0.053495142
0.053793041
0.05408477
0.054370106
0.054648835
0.054920752
0.055185664
0.055443384
0.055693737
0.055936552
0.056171671
0.05639894
0.056618216
0.05682936
0.057032244
0.057226744
0.057412743
0.057590132
0.057758806
0.057918669
0.058069628
0.058211597
0.058344494
0.058468243
0.058582773
0.058688017
0.058783915
0.058870406
0.058947439
0.059014962
0.059072928
0.059121293
0.059160018
0.059189064
0.0592084
0.059218054
0.051921379
0.052246454
0.052566555
0.052881487
0.053190991
0.053494809
0.053792693
0.054084408
0.054369731
0.054648448
0.054920354
0.055185256
0.055442967
0.05569331
0.055936118
0.056171229
0.056398491
0.05661776
0.056828899
0.057031777
0.057226272
0.057412267
0.057589652
0.057758324
0.057918184
0.05806914
0.058211106
0.058344002
0.058467749
0.058582278
0.058687522
0.058783418
0.05886991
0.058946942
0.059014466
0.059072432
0.059120799
0.059159527
0.059188586
0.059207952
0.059217519
0.051921069
0.052246125
0.052566204
0.052881114
0.053190599
0.053494399
0.053792266
0.054083965
0.054369274
0.054647977
0.054919871
0.055184761
0.055442461
0.055692794
0.055935592
0.056170695
0.05639795
0.056617212
0.056828345
0.057031217
0.057225707
0.057411698
0.057589079
0.057757747
0.057917604
0.058068558
0.058210523
0.058343417
0.058467163
0.058581692
0.058686935
0.058782832
0.058869323
0.058946357
0.059013881
0.059071849
0.059120218
0.059158951
0.059188023
0.05920743
0.059216931
0.051591082
0.051920712
0.052245726
0.052565784
0.052880674
0.053190138
0.053493918
0.053791767
0.054083449
0.054368742
0.05464743
0.05491931
0.055184187
0.055441875
0.055692197
0.055934985
0.056170079
0.056397326
0.05661658
0.056827706
0.057030573
0.057225058
0.057411044
0.057588422
0.057757087
0.057916941
0.058067894
0.058209857
0.05834275
0.058466496
0.058581024
0.058686267
0.058782165
0.058868657
0.058945692
0.059013218
0.059071188
0.05911956
0.059158298
0.059187384
0.059206833
0.059216292
0.051590697
0.05192032
0.052245296
0.052565334
0.052880204
0.053189649
0.05349341
0.05379124
0.054082905
0.054368181
0.054646853
0.054918719
0.055183583
0.055441259
0.05569157
0.055934348
0.056169433
0.056396671
0.056615919
0.056827038
0.0570299
0.05722438
0.057410362
0.057587736
0.057756398
0.057916251
0.058067202
0.058209164
0.058342057
0.058465803
0.058580331
0.058685576
0.058781474
0.058867968
0.058945005
0.059012533
0.059070506
0.059118882
0.059157624
0.059186722
0.05920621
0.059215645
0.05159028
0.051919898
0.052244842
0.052564861
0.052879713
0.053189139
0.05349288
0.053790692
0.054082339
0.054367598
0.054646256
0.054918107
0.055182957
0.055440621
0.055690921
0.055933689
0.056168765
0.056395995
0.056615235
0.056826349
0.057029205
0.05722368
0.057409659
0.05758703
0.05775569
0.057915541
0.058066491
0.058208453
0.058341345
0.058465092
0.058579621
0.058684867
0.058780767
0.058867263
0.058944302
0.059011833
0.05906981
0.05911819
0.059156937
0.059186044
0.059205559
0.059214989
0.051589813
0.051919418
0.052244336
0.052564338
0.052879171
0.053188576
0.053492297
0.053790088
0.054081717
0.054366958
0.054645598
0.054917433
0.055182269
0.05543992
0.055690208
0.055932965
0.056168031
0.056395253
0.056614486
0.056825593
0.057028443
0.057222914
0.057408889
0.057586257
0.057754915
0.057914765
0.058065714
0.058207676
0.058340569
0.058464317
0.058578848
0.058684095
0.058779998
0.058866497
0.058943538
0.059011073
0.059069054
0.059117438
0.059156191
0.059185307
0.059204841
0.059214275
0.051255349
0.05158931
0.051918883
0.052243779
0.052563763
0.052878576
0.053187959
0.053491658
0.053789428
0.054081035
0.054366256
0.054644878
0.054916697
0.055181517
0.055439153
0.055689428
0.055932174
0.056167229
0.056394442
0.056613667
0.056824768
0.057027612
0.057222079
0.05740805
0.057585416
0.057754072
0.057913921
0.05806487
0.058206832
0.058339726
0.058463475
0.058578008
0.058683259
0.058779164
0.058865666
0.058942711
0.05901025
0.059068236
0.059116626
0.059155386
0.05918451
0.059204058
0.059213498
0.051254785
0.051588748
0.051918293
0.05224317
0.052563135
0.052877926
0.053187286
0.053490961
0.053788707
0.054080292
0.054365492
0.054644094
0.054915894
0.055180697
0.055438318
0.055688579
0.055931312
0.056166357
0.05639356
0.056612777
0.05682387
0.057026709
0.057221171
0.057407139
0.057584502
0.057753157
0.057913005
0.058063954
0.058205917
0.058338813
0.058462564
0.0585771
0.058682354
0.058778262
0.058864769
0.058941818
0.059009362
0.059067353
0.059115749
0.059154516
0.05918365
0.059203207
0.059212656
0.050916086
0.05125419
0.051588129
0.051917649
0.052242508
0.052562452
0.05287722
0.053186554
0.053490203
0.053787923
0.054079483
0.05436466
0.054643241
0.054915021
0.055179805
0.05543741
0.055687656
0.055930376
0.056165409
0.056392601
0.05661181
0.056822896
0.057025729
0.057220186
0.057406151
0.057583512
0.057752165
0.057912013
0.058062963
0.058204928
0.058337825
0.05846158
0.058576119
0.058681376
0.058777289
0.0588638
0.058940855
0.059008404
0.059066401
0.059114804
0.059153579
0.059182721
0.059202285
0.059211743
0.050915437
0.051253542
0.051587455
0.051916954
0.052241792
0.052561712
0.052876454
0.05318576
0.053489381
0.053787074
0.054078607
0.054363759
0.054642316
0.054914074
0.055178839
0.055436425
0.055686655
0.055929361
0.056164381
0.056391563
0.056610762
0.05682184
0.057024668
0.05721912
0.057405081
0.05758244
0.057751093
0.057910941
0.058061892
0.058203858
0.058336759
0.058460517
0.05857506
0.058680322
0.05877624
0.058862756
0.058939817
0.059007372
0.059065376
0.059113786
0.059152569
0.05918172
0.059201288
0.059210755
0.050572779
0.050914776
0.051252844
0.05158673
0.051916207
0.052241021
0.052560915
0.052875627
0.053184903
0.053488492
0.053786155
0.054077659
0.054362783
0.054641315
0.054913049
0.055177793
0.055435359
0.055685572
0.055928262
0.056163269
0.056390439
0.056609629
0.056820699
0.05702352
0.057217968
0.057403926
0.057581283
0.057749935
0.057909783
0.058060736
0.058202705
0.058335609
0.05845937
0.058573919
0.058679186
0.05877511
0.058861632
0.058938699
0.059006261
0.059064272
0.05911269
0.059151482
0.059180642
0.059200213
0.059209688
0.050572115
0.050914076
0.051252101
0.051585958
0.051915408
0.052240194
0.052560057
0.052874736
0.053183978
0.053487533
0.053785163
0.054076636
0.05436173
0.054640234
0.054911943
0.055176663
0.055434208
0.055684402
0.055927076
0.056162068
0.056389226
0.056608405
0.056819467
0.057022281
0.057216724
0.057402678
0.057580033
0.057748685
0.057908534
0.058059489
0.058201461
0.058334369
0.058458136
0.058572689
0.058677963
0.058773893
0.058860423
0.058937497
0.059005067
0.059063085
0.059111512
0.059150312
0.05917948
0.059199054
0.059208537
0.050225939
0.050571447
0.050913338
0.051251316
0.051585139
0.051914557
0.05223931
0.052559137
0.05287378
0.053182984
0.053486502
0.053784095
0.054075534
0.054360596
0.054639069
0.05491075
0.055175445
0.055432967
0.055683141
0.055925796
0.056160772
0.056387917
0.056607085
0.056818138
0.057020945
0.057215383
0.057401334
0.057578687
0.057747338
0.057907189
0.058058146
0.058200122
0.058333034
0.058456806
0.058571366
0.058676646
0.058772584
0.058859121
0.058936204
0.059003782
0.059061809
0.059110244
0.059149053
0.05917823
0.059197805
0.059207296
0.050225291
0.050570746
0.050912565
0.051250492
0.051584275
0.051913654
0.052238368
0.052558154
0.052872755
0.053181917
0.053485395
0.053782948
0.054074349
0.054359375
0.054637815
0.054909466
0.055174133
0.055431631
0.055681782
0.055924418
0.056159377
0.056386508
0.056605664
0.056816707
0.057019506
0.057213939
0.057399886
0.057577238
0.057745889
0.057905741
0.058056701
0.05819868
0.058331598
0.058455376
0.058569943
0.058675231
0.058771177
0.058857723
0.058934814
0.0590024
0.059060437
0.059108881
0.0591477
0.059176884
0.059196461
0.059205959
0.049876057
0.05022465
0.050570015
0.050911761
0.051249632
0.051583365
0.051912699
0.052237366
0.052557106
0.052871661
0.053180776
0.053484208
0.053781719
0.054073078
0.054358066
0.05463647
0.054908087
0.055172724
0.055430195
0.055680322
0.055922936
0.056157877
0.056384992
0.056604135
0.056815167
0.057017959
0.057212385
0.057398329
0.057575679
0.05774433
0.057904184
0.058055147
0.058197131
0.058330054
0.058453839
0.058568413
0.05867371
0.058769664
0.058856219
0.05893332
0.059000916
0.059058962
0.059107416
0.059146244
0.059175437
0.059195014
0.059204519
0.049875501
0.050223998
0.050569262
0.050910929
0.051248735
0.051582412
0.051911691
0.052236305
0.052555992
0.052870494
0.053179558
0.053482941
0.053780403
0.054071717
0.054356662
0.054635027
0.054906609
0.055171213
0.055428654
0.055678754
0.055921346
0.056156267
0.056383364
0.056602493
0.056813514
0.057016297
0.057210716
0.057396656
0.057574004
0.057742655
0.057902511
0.058053477
0.058195466
0.058328396
0.058452188
0.05856677
0.058672076
0.05876804
0.058854605
0.058931716
0.058999322
0.059057378
0.059105842
0.05914468
0.05917388
0.059193459
0.05920297
0.049874902
0.050223329
0.050568488
0.050910071
0.051247804
0.051581415
0.051910631
0.052235184
0.052554811
0.052869254
0.053178261
0.053481588
0.053778998
0.054070263
0.054355162
0.054633484
0.054905026
0.055169594
0.055427002
0.055677074
0.05591964
0.056154539
0.056381618
0.056600731
0.05681174
0.057014513
0.057208926
0.05739486
0.057572206
0.057740857
0.057900715
0.058051685
0.058193679
0.058326615
0.058450415
0.058565007
0.058670321
0.058766296
0.058852872
0.058929993
0.058997611
0.059055678
0.059104152
0.059142999
0.059172208
0.059191787
0.059201304
0.04987429
0.050222644
0.050567698
0.050909188
0.05124684
0.051580374
0.051909518
0.052234001
0.052553561
0.052867938
0.053176883
0.053480149
0.053777502
0.054068712
0.05435356
0.054631835
0.054903334
0.055167863
0.055425236
0.055675276
0.055917815
0.05615269
0.056379748
0.056598844
0.056809839
0.057012601
0.057207006
0.057392935
0.057570278
0.057738929
0.057898788
0.058049762
0.058191762
0.058324705
0.058448514
0.058563114
0.058668439
0.058764425
0.058851012
0.058928145
0.058995774
0.059053852
0.059102337
0.059141195
0.059170411
0.05918999
0.059199513
0.04952259
0.049873743
0.050221956
0.050566894
0.050908283
0.051245842
0.051579291
0.051908353
0.052232758
0.052552242
0.052866546
0.053175421
0.05347862
0.05377591
0.054067061
0.054351853
0.054630077
0.054901529
0.055166015
0.055423349
0.055673355
0.055915863
0.056150712
0.056377748
0.056596825
0.056807804
0.057010554
0.05720495
0.057390874
0.057568214
0.057736864
0.057896725
0.058047702
0.058189708
0.058322658
0.058446475
0.058561086
0.058666422
0.058762419
0.058849017
0.058926163
0.058993804
0.059051893
0.059100389
0.059139257
0.059168481
0.059188061
0.05919759
0.049522189
0.049873204
0.050221267
0.050566081
0.050907358
0.051244814
0.051578166
0.051907136
0.052231453
0.052550853
0.052865077
0.053173874
0.053477
0.05377422
0.054065306
0.054350038
0.054628206
0.054899606
0.055164045
0.055421337
0.055671306
0.05591378
0.0561486
0.056375611
0.056594667
0.056805629
0.057008366
0.057202751
0.057388668
0.057566004
0.057734653
0.057894516
0.058045497
0.058187508
0.058320465
0.058444292
0.058558912
0.05866426
0.058760269
0.05884688
0.058924038
0.058991691
0.059049793
0.059098301
0.059137179
0.05916641
0.059185991
0.059195525
0.048812992
0.049168452
0.049521848
0.049872676
0.050220582
0.05056526
0.050906414
0.051243756
0.051576999
0.051905867
0.052230087
0.052549393
0.052863529
0.053172241
0.053475287
0.053772431
0.054063446
0.054348111
0.054626217
0.054897561
0.055161949
0.055419195
0.055669122
0.05591156
0.056146347
0.056373331
0.056592364
0.056803307
0.057006028
0.057200403
0.057386312
0.057563643
0.05773229
0.057892153
0.058043138
0.058185154
0.05831812
0.058441955
0.058556586
0.058661945
0.058757966
0.05884459
0.058921761
0.058989428
0.059047542
0.059096062
0.05913495
0.059164189
0.05918377
0.05919331
0.048455723
0.048812935
0.049168326
0.049521524
0.049872163
0.050219905
0.050564436
0.050905455
0.05124267
0.051575794
0.051904549
0.05222866
0.052547864
0.052861901
0.05317052
0.053473478
0.053770539
0.054061476
0.05434607
0.054624109
0.054895391
0.055159723
0.055416918
0.055666799
0.055909197
0.056143949
0.056370902
0.056589909
0.056800831
0.057003536
0.057197897
0.057383797
0.057561122
0.057729766
0.05788963
0.058040617
0.058182639
0.058315612
0.058439456
0.058554098
0.058659469
0.058755503
0.05884214
0.058919325
0.058987005
0.059045132
0.059093663
0.059132562
0.059161809
0.05918139
0.059190935
0.048455944
0.048812962
0.049168205
0.049521214
0.049871667
0.050219237
0.05056361
0.050904482
0.051241558
0.051574551
0.051903181
0.052227174
0.052546265
0.052860195
0.053168712
0.053471573
0.053768544
0.054059396
0.05434391
0.054621876
0.054893091
0.055157361
0.055414501
0.055664332
0.055906686
0.056141399
0.056368319
0.056587297
0.056798195
0.05700088
0.057195227
0.057381115
0.057558434
0.057727074
0.057886937
0.058037927
0.058179953
0.058312933
0.058436787
0.05855144
0.058656822
0.058752869
0.05883952
0.058916719
0.058984412
0.059042552
0.059091096
0.059130006
0.059159261
0.059178842
0.059188392
0.048456207
0.048813044
0.049168109
0.049520929
0.049871193
0.050218583
0.050562787
0.050903499
0.051240424
0.051573273
0.051901766
0.05222563
0.052544597
0.052858409
0.053166814
0.053469571
0.053766442
0.054057201
0.054341629
0.054619516
0.054890657
0.055154861
0.05541194
0.055661716
0.055904021
0.056138692
0.056365574
0.056584521
0.056795392
0.056998056
0.057192385
0.057378261
0.05755557
0.057724206
0.057884067
0.058035058
0.058177089
0.058310076
0.058433938
0.058548602
0.058653996
0.058750056
0.058836721
0.058913933
0.058981641
0.059039794
0.05908835
0.059127271
0.059156533
0.059176115
0.05918567
0.048456543
0.048813187
0.049168059
0.049520681
0.049870748
0.050217948
0.05056197
0.050902509
0.05123927
0.051571963
0.051900307
0.052224028
0.05254286
0.052856544
0.053164828
0.05346747
0.053764234
0.054054892
0.054339226
0.054617025
0.054888087
0.055152217
0.05540923
0.055658947
0.055901198
0.056135822
0.056362663
0.056581574
0.056792416
0.056995055
0.057189364
0.057375225
0.057552524
0.057721153
0.057881011
0.058032003
0.058174038
0.05830703
0.058430901
0.058545575
0.058650981
0.058747055
0.058833733
0.05891096
0.058978681
0.059036848
0.059085416
0.059124348
0.059153618
0.0591732
0.059182759
0.048456974
0.048813406
0.049168066
0.049520479
0.049870338
0.050217336
0.050561164
0.050901517
0.0512381
0.051570623
0.051898805
0.052222372
0.052541057
0.052854601
0.053162754
0.053465271
0.053761918
0.054052466
0.054336698
0.054614403
0.054885377
0.055149428
0.055406368
0.055656019
0.055898212
0.056132783
0.056359579
0.056578451
0.056789259
0.056991871
0.057186158
0.057372001
0.057549287
0.057717908
0.057877762
0.058028753
0.05817079
0.058303788
0.058427667
0.058542351
0.058647769
0.058743855
0.058830547
0.058907788
0.058975523
0.059033704
0.059082284
0.059121227
0.059150504
0.059170087
0.05917965
0.048457513
0.048813712
0.049168144
0.049520333
0.049869971
0.050216754
0.050560374
0.050900527
0.051236917
0.051569257
0.051897263
0.052220663
0.052539189
0.052852582
0.053160592
0.053462974
0.053759493
0.054049923
0.054334044
0.054611646
0.054882525
0.055146488
0.055403349
0.055652929
0.055895057
0.056129572
0.056356317
0.056575146
0.056785917
0.056988497
0.057182759
0.057368582
0.057545853
0.057714464
0.057874311
0.0580253
0.058167338
0.058300341
0.058424226
0.05853892
0.058644349
0.058740447
0.058827153
0.058904408
0.058972157
0.059030351
0.059078944
0.059117897
0.059147182
0.059166765
0.059176333
0.048458171
0.048814118
0.049168305
0.049520253
0.049869656
0.050216209
0.050559605
0.050899543
0.051235727
0.051567869
0.051895686
0.052218905
0.052537258
0.052850488
0.053158343
0.053460578
0.05375696
0.054047261
0.054331262
0.054608752
0.054879528
0.055143397
0.055400171
0.055649673
0.055891731
0.056126183
0.056352873
0.056571653
0.056782383
0.056984928
0.057179161
0.057364961
0.057542214
0.057710812
0.057870651
0.058021636
0.058163674
0.05829668
0.058420571
0.058535273
0.058640712
0.058736823
0.058823542
0.05890081
0.058968573
0.05902678
0.059075386
0.059114349
0.059143641
0.059163225
0.059172797
0.048458958
0.048814634
0.049168557
0.049520248
0.049869399
0.050215707
0.050558865
0.050898572
0.051234535
0.051566463
0.051894076
0.0522171
0.052535268
0.052848321
0.053156008
0.053458086
0.053754319
0.054044481
0.054328351
0.05460572
0.054876385
0.055140151
0.055396831
0.055646247
0.055888229
0.056122612
0.056349241
0.056567968
0.056778652
0.056981157
0.057175358
0.057361131
0.057538364
0.057706946
0.057866775
0.058017753
0.058159789
0.058292796
0.058416692
0.058531401
0.058636851
0.058732972
0.058819704
0.058896985
0.058964762
0.059022982
0.059071599
0.059110573
0.059139871
0.059159456
0.059169032
0.048459885
0.048815271
0.049168912
0.049520328
0.04986921
0.050215255
0.050558159
0.05089762
0.051233345
0.051565045
0.051892439
0.052215253
0.052533221
0.052846084
0.053153591
0.053455498
0.053751571
0.054041582
0.054325312
0.05460255
0.054873094
0.055136748
0.055393327
0.05564265
0.055884547
0.056118855
0.056345417
0.056564085
0.056774718
0.056977179
0.057171343
0.057357086
0.057534294
0.057702858
0.057862673
0.058013643
0.058155675
0.058288682
0.058412582
0.058527297
0.058632754
0.058728887
0.05881563
0.058892924
0.058960713
0.059018946
0.059067575
0.059106559
0.059135863
0.059155448
0.059165028
0.048460961
0.048816039
0.049169379
0.049520502
0.049869098
0.050214863
0.050557495
0.050896693
0.051232164
0.051563619
0.051890778
0.052213367
0.052531121
0.05284378
0.053151093
0.053452817
0.053748717
0.054038566
0.054322145
0.054599242
0.054869654
0.055133188
0.055389655
0.055638878
0.055880683
0.056114909
0.056341398
0.056560001
0.056770577
0.05697299
0.057167112
0.05735282
0.05753
0.057698542
0.057858341
0.0580093
0.058151326
0.05828433
0.058408231
0.058522951
0.058628416
0.058724557
0.058811311
0.058888617
0.058956419
0.059014664
0.059063304
0.059102296
0.059131607
0.059151192
0.059160776
0.048462199
0.048816949
0.049169968
0.049520779
0.04986907
0.050214538
0.050556881
0.050895798
0.051230997
0.051562191
0.051889099
0.052211448
0.052528972
0.052841412
0.053148517
0.053450045
0.053745759
0.054035434
0.054318849
0.054595794
0.054866065
0.055129469
0.055385816
0.055634929
0.055876635
0.056110771
0.056337179
0.056555711
0.056766225
0.056968583
0.057162659
0.057348329
0.057525477
0.057693993
0.057853772
0.058004717
0.058146733
0.058279733
0.058403634
0.058518356
0.058623826
0.058719976
0.05880674
0.058884056
0.058951869
0.059010125
0.059058776
0.059097777
0.059127094
0.059146679
0.059156266
0.048463608
0.048818011
0.04917069
0.04952117
0.049869137
0.050214288
0.050556323
0.050894942
0.051229852
0.051560767
0.051887407
0.0522095
0.052526778
0.052838984
0.053145867
0.053447184
0.053742699
0.054032187
0.054315427
0.054592208
0.054862328
0.05512559
0.055381808
0.055630802
0.055872401
0.056106439
0.05633276
0.056551214
0.056761658
0.056963957
0.05715798
0.057343606
0.057520718
0.057689204
0.05784896
0.057999888
0.058141892
0.058274884
0.058398782
0.058513505
0.058618979
0.058715135
0.058801907
0.058879233
0.058947056
0.059005323
0.059053983
0.059092993
0.059122315
0.059141899
0.05915149
0.048465198
0.048819234
0.049171554
0.049521682
0.049869306
0.050214122
0.05055583
0.050894131
0.051228735
0.051559354
0.051885709
0.052207527
0.052524544
0.0528365
0.053143146
0.053444238
0.053739541
0.054028828
0.05431188
0.054588486
0.054858442
0.055121553
0.055377632
0.055626498
0.055867979
0.056101912
0.056328137
0.056546506
0.056756874
0.056959107
0.057153073
0.057338649
0.057515719
0.057684171
0.057843901
0.057994807
0.058136796
0.058269778
0.05839367
0.058508391
0.058613867
0.058710027
0.058796806
0.058874141
0.058941973
0.059000249
0.059048918
0.059087935
0.059117262
0.059136846
0.05914644
0.04846698
0.048820629
0.049172569
0.049522325
0.049869586
0.050214047
0.050555409
0.050893374
0.051227652
0.051557957
0.051884009
0.052205537
0.052522275
0.052833965
0.053140358
0.05344121
0.053736286
0.05402536
0.054308211
0.054584629
0.05485441
0.055117359
0.055373288
0.055622016
0.055863371
0.056097189
0.05632331
0.056541586
0.056751872
0.056954031
0.057147934
0.057333455
0.057510479
0.057678892
0.057838589
0.05798947
0.05813144
0.058264409
0.058388292
0.058503009
0.058608485
0.058704647
0.058791431
0.058868772
0.058936612
0.058994896
0.059043573
0.059082597
0.059111927
0.059131511
0.059141108
0.048468963
0.048822203
0.049173743
0.049523108
0.049869984
0.050214071
0.050555067
0.050892677
0.051226611
0.051556582
0.051882314
0.052203533
0.052519976
0.052831385
0.053137508
0.053438105
0.05373294
0.054021786
0.054304423
0.054580641
0.054850235
0.055113009
0.055368777
0.055617357
0.055858576
0.05609227
0.05631828
0.056536454
0.05674665
0.056948729
0.057142561
0.057328022
0.057504993
0.057673363
0.057833024
0.057983875
0.058125822
0.058258774
0.058382645
0.058497355
0.058602827
0.05869899
0.058785776
0.058863122
0.058930969
0.05898926
0.059037944
0.059076973
0.059106306
0.059125888
0.059135489
0.048471153
0.048823965
0.049175084
0.049524037
0.049870509
0.050214201
0.050554811
0.050892047
0.051225617
0.051555237
0.051880629
0.052201523
0.052517653
0.052828763
0.053134602
0.053434928
0.053729507
0.05401811
0.05430052
0.054576523
0.054845918
0.055108507
0.055364102
0.055612523
0.055853597
0.056087157
0.056313046
0.056531111
0.056741209
0.056943201
0.057136956
0.057322349
0.057499262
0.057667582
0.057827202
0.057978019
0.058119939
0.05825287
0.058376726
0.058491425
0.058596891
0.058693052
0.058779839
0.058857188
0.058925038
0.058983335
0.059032024
0.059071058
0.059100394
0.059119974
0.059129578
0.048473558
0.048825922
0.049176599
0.049525118
0.049871167
0.050214443
0.050554649
0.05089149
0.051224677
0.051553927
0.051878962
0.052199511
0.052515312
0.052826105
0.053131644
0.053431683
0.05372599
0.054014337
0.054296505
0.054572282
0.054841464
0.055103856
0.055359267
0.055607519
0.055848436
0.056081854
0.056307612
0.056525559
0.05673555
0.056937447
0.057131118
0.057316438
0.057493287
0.057661551
0.057821124
0.057971902
0.05811379
0.058246696
0.058370533
0.058485218
0.058590675
0.05868683
0.058773615
0.058850965
0.058918818
0.058977118
0.059025811
0.059064849
0.059094186
0.059113765
0.05912337
0.048476182
0.048828077
0.049178292
0.049526359
0.049871963
0.050214804
0.050554584
0.050891011
0.051223797
0.051552657
0.051877316
0.052197504
0.052512957
0.052823418
0.053128639
0.053428377
0.053722397
0.054010473
0.054292385
0.054567922
0.054836879
0.05509906
0.055354276
0.055602347
0.055843098
0.056076362
0.056301981
0.056519801
0.056729678
0.056931472
0.057125051
0.05731029
0.057487068
0.057655271
0.057814791
0.057965525
0.058107377
0.058240253
0.058364066
0.058478734
0.058584178
0.058680325
0.058767106
0.058844453
0.058912307
0.058970609
0.059019304
0.059058344
0.059087682
0.059107258
0.059116866
0.048479027
0.048830433
0.049180167
0.049527761
0.049872901
0.050215287
0.050554623
0.050890617
0.051222981
0.051551434
0.051875699
0.052195507
0.052510595
0.052820707
0.053125594
0.053425014
0.053718732
0.054006522
0.054288165
0.054563448
0.054832167
0.055094126
0.055349135
0.055597014
0.055837587
0.056070688
0.056296157
0.056513842
0.056723595
0.056925278
0.057118759
0.057303909
0.057480609
0.057648745
0.057808207
0.057958892
0.058100701
0.058233543
0.058357329
0.058471975
0.058577403
0.058673539
0.058760311
0.058837655
0.058905506
0.058963808
0.059012504
0.059051545
0.059080882
0.059100455
0.059110066
0.048482093
0.048832992
0.049182225
0.049529328
0.049873984
0.050215896
0.050554768
0.05089031
0.051222234
0.051550261
0.051874114
0.052193524
0.052508231
0.052817977
0.053122514
0.053421601
0.053715002
0.054002492
0.054283851
0.054558867
0.054827335
0.055089059
0.05534385
0.055591525
0.055831911
0.056064839
0.056290149
0.056507688
0.05671731
0.056918874
0.057112247
0.057297302
0.057473918
0.057641979
0.057801377
0.057952006
0.058093769
0.058226572
0.058350325
0.058464946
0.058570354
0.058666474
0.058753236
0.058830572
0.058898419
0.058956719
0.059005414
0.059044454
0.05907379
0.059093359
0.059102971
0.048485373
0.048835752
0.049184467
0.049531059
0.049875214
0.050216633
0.050555023
0.050890094
0.05122156
0.051549142
0.051872565
0.052191562
0.05250587
0.052815234
0.053119406
0.053418144
0.053711214
0.053998389
0.054279451
0.054554187
0.054822392
0.055083869
0.05533843
0.055585891
0.055826078
0.056058822
0.056283964
0.056501349
0.05671083
0.056912266
0.057105525
0.057290477
0.057467001
0.057634982
0.057794309
0.057944877
0.058086587
0.058219346
0.058343062
0.058457653
0.058563037
0.058659138
0.058745886
0.058823212
0.058891052
0.058949347
0.058998039
0.059037077
0.05906641
0.059085976
0.059095589
0.048488857
0.048838709
0.04918689
0.049532955
0.04987659
0.050217498
0.050555387
0.050889969
0.05122096
0.05154808
0.051871057
0.052189623
0.052503517
0.052812484
0.053116275
0.05341465
0.053707374
0.053994222
0.054274973
0.054549416
0.054817346
0.055078565
0.055332884
0.05558012
0.055820098
0.056052649
0.056277612
0.056494834
0.056704165
0.056905466
0.057098602
0.057283444
0.05745987
0.057627763
0.057787013
0.057937514
0.058079167
0.058211875
0.05833555
0.058450106
0.058555462
0.058651541
0.058738271
0.058815583
0.058883414
0.058941702
0.058990389
0.059029423
0.059058752
0.059078313
0.059087928
0.04849251
0.048841858
0.049189492
0.049535013
0.04987811
0.050218489
0.05055586
0.050889936
0.051220435
0.051547078
0.051869592
0.052187712
0.052501177
0.052809731
0.053113128
0.053411126
0.053703492
0.053989998
0.054270427
0.054544565
0.054812207
0.055073157
0.055327223
0.055574224
0.055813983
0.056046331
0.056271107
0.056488157
0.056697331
0.056898488
0.057091493
0.057276217
0.057452538
0.057620337
0.057779503
0.057929931
0.05807152
0.058204174
0.058327802
0.058442319
0.058547642
0.058643694
0.058730403
0.058807699
0.058875517
0.058933795
0.058982476
0.059021504
0.059050828
0.059070384
0.059079999
0.048496286
0.048845188
0.04919227
0.049537228
0.049879769
0.050219602
0.050556438
0.050889992
0.051219983
0.051546133
0.051868172
0.052185831
0.052498852
0.052806981
0.05310997
0.053407579
0.053699573
0.053985727
0.054265821
0.054539643
0.054806988
0.055067657
0.055321461
0.055568217
0.055807747
0.056039884
0.056264464
0.056481332
0.056690341
0.056891346
0.057084214
0.057268813
0.057445021
0.057612719
0.057771797
0.057922146
0.058063665
0.058196259
0.058319835
0.058434308
0.058539594
0.058635616
0.0587223
0.058799576
0.058867378
0.058925644
0.058974315
0.059013336
0.059042654
0.059062204
0.05907182
0.04815069
0.048500452
0.048848744
0.049195225
0.049539595
0.04988156
0.050220829
0.050557115
0.050890133
0.051219603
0.051545247
0.051866795
0.052183982
0.052496547
0.052804238
0.053106808
0.053404016
0.053695628
0.053981419
0.054261168
0.054534664
0.054801701
0.055062081
0.055315613
0.055562114
0.055801408
0.056033324
0.0562577
0.05647438
0.056683214
0.056884061
0.057076784
0.057261251
0.05743734
0.057604932
0.057763913
0.057914177
0.058055622
0.05818815
0.05831167
0.058426093
0.058531338
0.058627326
0.058713981
0.058791234
0.058859017
0.058917269
0.058965928
0.059004941
0.059034251
0.059053793
0.05906341
0.047805483
0.048155704
0.048504825
0.048852474
0.049198331
0.049542094
0.049883467
0.050222159
0.050557882
0.050890352
0.051219287
0.051544414
0.051865461
0.052182164
0.052494264
0.052801508
0.053103648
0.053400445
0.053691666
0.053977084
0.054256479
0.05452964
0.05479636
0.055056442
0.055309695
0.055555934
0.055794983
0.056026671
0.056250836
0.05646732
0.056675974
0.056876655
0.057069226
0.057253556
0.057429519
0.057596998
0.057755878
0.057906051
0.058047416
0.058179873
0.058303331
0.058417702
0.058522901
0.058618849
0.058705472
0.058782698
0.05885046
0.058908695
0.058957341
0.058996342
0.059025643
0.059045179
0.059054795
0.047460976
0.047811244
0.048160848
0.048509321
0.048856325
0.049201551
0.049544698
0.04988547
0.050223575
0.050558725
0.050890637
0.05121903
0.05154363
0.051864168
0.052180379
0.052492005
0.052798792
0.053100496
0.053396875
0.053687696
0.053972734
0.054251768
0.054524587
0.054790984
0.055050761
0.055303727
0.055549698
0.055788495
0.056019949
0.056243895
0.056460178
0.056668646
0.056869155
0.057061569
0.057245754
0.057421587
0.057588947
0.05774772
0.057897798
0.058039077
0.058171459
0.05829485
0.058409163
0.058514312
0.058610218
0.058696805
0.058774001
0.058841738
0.058899952
0.058948582
0.058987571
0.059016862
0.059036389
0.059046006
0.047467403
0.047817077
0.048166052
0.048513885
0.048860251
0.049204848
0.049547377
0.049887543
0.050225055
0.050559627
0.050890974
0.05121882
0.051542888
0.051862911
0.052178624
0.05248977
0.052796097
0.053097357
0.053393313
0.05368373
0.053968382
0.05424705
0.054519521
0.05478559
0.055045057
0.055297731
0.055543428
0.055781969
0.056013183
0.056236907
0.056452983
0.056661259
0.056861591
0.057053842
0.057237879
0.057413576
0.057580812
0.057739474
0.057889451
0.05803064
0.058162941
0.058286262