/*--------------------------------*- C++ -*----------------------------------*\
| =========                 |                                                 |
| \\      /  F ield         | OpenFOAM: The Open Source CFD Toolbox           |
|  \\    /   O peration     | Version:  2312                                  |
|   \\  /    A nd           | Website:  www.openfoam.com                      |
|    \\/     M anipulation  |                                                 |
\*---------------------------------------------------------------------------*/
FoamFile
{
    version     2.0;
    format      ascii;
    arch        "LSB;label=32;scalar=64";
    class       volScalarField;
    location    "0.08";
    object      O2;
}
// * * * * * * * * * * * * * * * * * * * * * * * * * * * * * * * * * * * * * //

dimensions      [0 0 0 0 0 0 0];

internalField   nonuniform List<scalar> 
3224
(
0.2159856
0.21635462
0.21671295
0.21706068
0.21739788
0.21772463
0.21804102
0.21834713
0.21864306
0.21892889
0.21920473
0.21947066
0.21972677
0.21997317
0.22020993
0.22043714
0.2206549
0.22086329
0.22106238
0.22125226
0.22143301
0.22160469
0.22176738
0.22192114
0.22206603
0.22220212
0.22232946
0.2224481
0.22255808
0.22265946
0.22275227
0.22283654
0.2229123
0.22297959
0.22303841
0.2230888
0.22313076
0.22316429
0.2231894
0.22320608
0.22321438
0.21598587
0.21635483
0.21671311
0.21706079
0.21739795
0.21772467
0.21804102
0.2183471
0.218643
0.21892881
0.21920462
0.21947052
0.21972661
0.21997299
0.22020973
0.22043692
0.22065466
0.22086303
0.22106211
0.22125198
0.22143271
0.22160437
0.22176705
0.2219208
0.22206568
0.22220176
0.22232909
0.22244771
0.22255769
0.22265906
0.22275186
0.22283612
0.22291188
0.22297916
0.22303799
0.22308837
0.22313032
0.22316386
0.22318897
0.22320566
0.22321394
0.21598685
0.21635572
0.21671391
0.21706153
0.21739862
0.21772528
0.21804157
0.2183476
0.21864345
0.21892921
0.21920498
0.21947084
0.21972689
0.21997323
0.22020993
0.22043709
0.2206548
0.22086314
0.22106219
0.22125202
0.22143273
0.22160437
0.22176702
0.22192075
0.22206561
0.22220167
0.22232898
0.22244759
0.22255756
0.22265891
0.2227517
0.22283595
0.2229117
0.22297897
0.22303779
0.22308817
0.22313012
0.22316365
0.22318876
0.22320546
0.22321374
0.21598854
0.21635728
0.21671537
0.21706289
0.2173999
0.21772647
0.21804269
0.21834865
0.21864442
0.21893012
0.21920582
0.21947162
0.21972762
0.21997389
0.22021055
0.22043766
0.22065532
0.22086361
0.22106262
0.22125242
0.22143308
0.22160469
0.22176731
0.221921
0.22206584
0.22220187
0.22232915
0.22244774
0.22255768
0.22265902
0.22275179
0.22283603
0.22291176
0.22297902
0.22303783
0.2230882
0.22313014
0.22316367
0.22318878
0.2232055
0.22321377
0.21561162
0.2159909
0.21635952
0.21671749
0.21706489
0.21740179
0.21772826
0.21804438
0.21835024
0.21864592
0.21893153
0.21920715
0.21947287
0.21972879
0.219975
0.22021158
0.22043863
0.22065623
0.22086446
0.22106341
0.22125316
0.22143378
0.22160534
0.22176791
0.22192157
0.22206636
0.22220236
0.22232961
0.22244817
0.22255809
0.2226594
0.22275215
0.22283636
0.22291208
0.22297933
0.22303812
0.22308848
0.22313041
0.22316393
0.22318905
0.22320577
0.22321406
0.21561459
0.21599379
0.21636227
0.21672011
0.21706738
0.21740415
0.2177305
0.21804651
0.21835225
0.21864784
0.21893334
0.21920887
0.2194745
0.21973033
0.21997645
0.22021296
0.22043993
0.22065746
0.22086563
0.22106451
0.2212542
0.22143476
0.22160627
0.2217688
0.2219224
0.22206716
0.22220311
0.22233033
0.22244885
0.22255874
0.22266002
0.22275274
0.22283693
0.22291263
0.22297986
0.22303863
0.22308898
0.22313091
0.22316442
0.22318953
0.22320627
0.22321455
0.21561804
0.21599711
0.21636544
0.21672313
0.21707026
0.2174069
0.21773311
0.21804899
0.21835462
0.21865008
0.21893548
0.21921089
0.21947642
0.21973216
0.21997819
0.22021461
0.2204415
0.22065895
0.22086704
0.22106586
0.22125548
0.22143598
0.22160743
0.2217699
0.22192345
0.22206816
0.22220407
0.22233124
0.22244973
0.22255958
0.22266083
0.22275352
0.22283769
0.22291336
0.22298057
0.22303933
0.22308966
0.22313158
0.22316508
0.22319019
0.22320693
0.22321523
0.21562223
0.21600111
0.21636927
0.2167268
0.21707376
0.21741023
0.21773629
0.21805202
0.21835751
0.21865284
0.2189381
0.21921339
0.21947881
0.21973443
0.21998035
0.22021667
0.22044346
0.22066082
0.22086882
0.22106756
0.2212571
0.22143752
0.2216089
0.22177131
0.2219248
0.22206945
0.22220531
0.22233244
0.22245088
0.22256068
0.2226619
0.22275455
0.22283869
0.22291434
0.22298152
0.22304027
0.22309058
0.22313248
0.22316598
0.22319109
0.22320783
0.22321613
0.21523774
0.21562718
0.21600586
0.21637382
0.21673115
0.21707793
0.21741421
0.2177401
0.21805565
0.21836097
0.21865614
0.21894126
0.2192164
0.21948168
0.21973717
0.21998297
0.22021916
0.22044584
0.22066309
0.220871
0.22106964
0.22125909
0.22143943
0.22161073
0.22177306
0.22192648
0.22207106
0.22220686
0.22233393
0.22245232
0.22256208
0.22266325
0.22275587
0.22283997
0.22291559
0.22298274
0.22304146
0.22309176
0.22313365
0.22316713
0.22319223
0.22320898
0.22321728
0.21524369
0.21563295
0.2160114
0.21637914
0.21673625
0.21708281
0.21741888
0.21774456
0.21805992
0.21836505
0.21866004
0.21894498
0.21921996
0.21948508
0.21974042
0.21998607
0.22022213
0.22044868
0.22066581
0.2208736
0.22107213
0.22126147
0.22144171
0.22161292
0.22177517
0.22192851
0.22207302
0.22220874
0.22233575
0.22245408
0.22256378
0.2226649
0.22275747
0.22284154
0.22291712
0.22298424
0.22304294
0.22309321
0.22313508
0.22316856
0.22319365
0.2232104
0.2232187
0.2148506
0.2152506
0.21563961
0.21601781
0.21638529
0.21674215
0.21708846
0.21742429
0.21774974
0.21806487
0.21836979
0.21866457
0.21894931
0.21922411
0.21948904
0.21974421
0.2199897
0.22022561
0.22045201
0.220669
0.22087665
0.22107506
0.22126429
0.22144442
0.22161552
0.22177766
0.22193092
0.22207534
0.22221099
0.22233792
0.22245618
0.22256582
0.22266688
0.2227594
0.22284342
0.22291896
0.22298605
0.22304471
0.22309496
0.22313682
0.22317028
0.22319536
0.2232121
0.22322041
0.21485884
0.21525851
0.21564723
0.21602514
0.21639233
0.2167489
0.21709493
0.2174305
0.21775568
0.21807056
0.21837523
0.21866978
0.2189543
0.21922888
0.21949362
0.21974859
0.2199939
0.22022963
0.22045586
0.22067269
0.2208802
0.22107846
0.22126756
0.22144756
0.22161855
0.22178058
0.22193373
0.22207805
0.22221361
0.22234046
0.22245864
0.22256821
0.22266921
0.22276168
0.22284564
0.22292114
0.22298819
0.22304682
0.22309704
0.22313887
0.22317231
0.22319739
0.22321412
0.22322243
0.21445786
0.2148682
0.21526751
0.21565588
0.21603346
0.21640032
0.21675657
0.21710229
0.21743755
0.21776243
0.21807703
0.21838143
0.21867572
0.21895999
0.21923433
0.21949884
0.2197536
0.2199987
0.22023423
0.22046028
0.22067693
0.22088427
0.22108237
0.22127132
0.22145118
0.22162203
0.22178394
0.22193698
0.22208119
0.22221665
0.2223434
0.2224615
0.22257099
0.22267192
0.22276432
0.22284823
0.22292367
0.22299068
0.22304927
0.22309946
0.22314126
0.22317469
0.22319975
0.22321648
0.22322478
0.21446888
0.21487877
0.21527766
0.21566564
0.21604284
0.21640934
0.21676523
0.21711059
0.2174455
0.21777006
0.21808434
0.21838844
0.21868244
0.21896643
0.21924051
0.21950476
0.21975927
0.22000414
0.22023945
0.2204653
0.22068175
0.2208889
0.22108683
0.22127561
0.22145531
0.22162602
0.22178779
0.22194069
0.22208478
0.22222013
0.22234678
0.22246478
0.22257418
0.22267503
0.22276736
0.2228512
0.22292659
0.22299354
0.22305209
0.22310224
0.22314402
0.22317743
0.22320247
0.2232192
0.2232275
0.2140608
0.21448124
0.21489063
0.21528904
0.21567659
0.21605336
0.21641944
0.21677492
0.21711989
0.21745443
0.21777862
0.21809255
0.21839631
0.21868999
0.21897367
0.21924745
0.21951142
0.21976566
0.22001028
0.22024535
0.22047096
0.22068719
0.22089413
0.22109186
0.22128046
0.22145999
0.22163053
0.22179214
0.2219449
0.22208886
0.22222408
0.22235061
0.22246851
0.22257782
0.22267857
0.22277082
0.22285459
0.22292991
0.22299681
0.22305531
0.22310543
0.22314717
0.22318055
0.22320559
0.2232223
0.2232306
0.21407517
0.21449502
0.21490385
0.21530175
0.2156888
0.21606509
0.21643071
0.21678574
0.21713028
0.21746439
0.21778818
0.21810172
0.2184051
0.21869842
0.21898176
0.21925521
0.21951887
0.21977282
0.22001715
0.22025195
0.2204773
0.22069329
0.22090001
0.22109752
0.2212859
0.22146524
0.2216356
0.22179705
0.22194964
0.22209345
0.22222854
0.22235494
0.22247272
0.22258192
0.22268258
0.22277473
0.22285842
0.22293367
0.22300051
0.22305896
0.22310903
0.22315074
0.22318409
0.22320911
0.22322581
0.22323411
0.21366087
0.21409112
0.21451032
0.21491854
0.21531586
0.21570235
0.21607811
0.21644321
0.21679775
0.2171418
0.21747546
0.2177988
0.21811191
0.21841488
0.2187078
0.21899076
0.21926386
0.21952717
0.21978079
0.22002481
0.22025931
0.22048438
0.2207001
0.22090656
0.22110383
0.22129199
0.22147112
0.22164127
0.22180253
0.22195495
0.2220986
0.22223353
0.22235979
0.22247744
0.22258652
0.22268707
0.22277913
0.22286273
0.2229379
0.22300467
0.22306306
0.22311308
0.22315475
0.22318808
0.22321307
0.22322976
0.22323805
0.21367925
0.21410876
0.21452724
0.21493479
0.21533146
0.21571734
0.2160925
0.21645704
0.21681103
0.21715455
0.21748769
0.21781054
0.21812318
0.2184257
0.21871819
0.21900074
0.21927343
0.21953636
0.21978962
0.2200333
0.22026747
0.22049224
0.22070767
0.22091384
0.22111085
0.22129877
0.22147765
0.22164759
0.22180864
0.22196087
0.22210434
0.2222391
0.22236521
0.22248271
0.22259166
0.22269209
0.22278404
0.22286754
0.22294263
0.22300933
0.22306765
0.22311762
0.22315924
0.22319254
0.22321751
0.22323418
0.22324246
0.21369952
0.21412819
0.21454589
0.21495268
0.21534865
0.21573385
0.21610836
0.21647227
0.21682565
0.21716859
0.21750118
0.21782348
0.21813561
0.21843763
0.21872964
0.21901174
0.219284
0.21954652
0.21979938
0.22004268
0.2202765
0.22050092
0.22071603
0.2209219
0.22111862
0.22130626
0.22148489
0.22165459
0.22181541
0.22196743
0.2221107
0.22224528
0.22237121
0.22248856
0.22259737
0.22269766
0.2227895
0.22287289
0.22294789
0.2230145
0.22307275
0.22312266
0.22316424
0.2231975
0.22322244
0.22323909
0.22324737
0.21372176
0.21414951
0.21456635
0.21497233
0.21536752
0.21575197
0.21612577
0.21648899
0.21684171
0.21718402
0.21751598
0.2178377
0.21814926
0.21845074
0.21874224
0.21902383
0.21929562
0.21955769
0.21981012
0.22005301
0.22028643
0.22051048
0.22072524
0.22093078
0.22112719
0.22131453
0.22149288
0.22166231
0.22182289
0.22197467
0.22211773
0.2222521
0.22237786
0.22249503
0.22260368
0.22270383
0.22279554
0.22287882
0.22295371
0.22302023
0.2230784
0.22312825
0.22316977
0.22320299
0.2232279
0.22324454
0.22325281
0.21330844
0.21374608
0.21417284
0.21458874
0.21499384
0.21538817
0.21577181
0.21614483
0.21650729
0.21685929
0.2172009
0.21753219
0.21785327
0.21816421
0.2184651
0.21875603
0.21903709
0.21930836
0.21956993
0.2198219
0.22006434
0.22029734
0.22052098
0.22073535
0.22094053
0.22113659
0.22132361
0.22150166
0.2216708
0.22183111
0.22198264
0.22212546
0.22225962
0.22238517
0.22250216
0.22261063
0.22271063
0.22280219
0.22288535
0.22296012
0.22302655
0.22308464
0.22313441
0.22317588
0.22320905
0.22323393
0.22325054
0.22325881
0.21333603
0.21377258
0.21419828
0.21461318
0.2150173
0.21541071
0.21579346
0.21616562
0.21652727
0.21687847
0.21721932
0.21754989
0.21787027
0.21818054
0.21848079
0.2187711
0.21905157
0.21932228
0.21958332
0.21983477
0.22007672
0.22030926
0.22053247
0.22074642
0.22095121
0.22114689
0.22133356
0.22151127
0.22168011
0.22184012
0.22199138
0.22213394
0.22226786
0.22239319
0.22250998
0.22261827
0.2227181
0.2228095
0.22289252
0.22296717
0.22303349
0.22309149
0.22314118
0.22318259
0.22321571
0.22324055
0.22325714
0.2232654
0.21246269
0.21291983
0.21336603
0.2138014
0.21422597
0.21463977
0.21504284
0.21543524
0.21581702
0.21618826
0.21654901
0.21689936
0.21723938
0.21756916
0.21788878
0.21819832
0.21849787
0.21878752
0.21906735
0.21933745
0.21959791
0.21984881
0.22009023
0.22032227
0.220545
0.2207585
0.22096286
0.22115814
0.22134443
0.22152178
0.22169027
0.22184997
0.22200093
0.22214322
0.22227688
0.22240197
0.22251853
0.22262662
0.22272626
0.2228175
0.22290037
0.22297489
0.22304109
0.22309899
0.2231486
0.22318993
0.223223
0.22324781
0.22326437
0.22327261
0.2120314
0.21249795
0.21295369
0.21339858
0.21383267
0.21425601
0.21466863
0.21507057
0.21546187
0.21584261
0.21621283
0.21657262
0.21692204
0.21726117
0.21759009
0.21790889
0.21821764
0.21851644
0.21880537
0.21908451
0.21935395
0.21961377
0.21986407
0.22010493
0.22033642
0.22055864
0.22077165
0.22097554
0.22117039
0.22135626
0.22153322
0.22170135
0.2218607
0.22201134
0.22215333
0.22228671
0.22241154
0.22252787
0.22263573
0.22273518
0.22282624
0.22290894
0.22298332
0.22304939
0.22310718
0.2231567
0.22319796
0.22323096
0.22325573
0.22327226
0.22328049
0.21207113
0.21253613
0.21299036
0.21343382
0.21386654
0.21428855
0.21469989
0.2151006
0.21549072
0.21587032
0.21623945
0.21659819
0.21694661
0.21728477
0.21761277
0.21793068
0.21823858
0.21853656
0.21882471
0.2191031
0.21937183
0.21963098
0.21988063
0.22012087
0.22035178
0.22057344
0.22078593
0.22098932
0.22118369
0.22136911
0.22154565
0.22171338
0.22187237
0.22202266
0.22216432
0.2222974
0.22242195
0.22253802
0.22264565
0.22274488
0.22283574
0.22291827
0.22299249
0.22305842
0.22311609
0.22316551
0.22320669
0.22323963
0.22326435
0.22328085
0.22328907
0.21211405
0.21257736
0.21302998
0.2134719
0.21390313
0.21432371
0.21473367
0.21513305
0.2155219
0.21590027
0.21626823
0.21662584
0.21697317
0.21731029
0.21763729
0.21795424
0.21826122
0.21855833
0.21884563
0.21912323
0.21939119
0.2196496
0.21989856
0.22013813
0.22036841
0.22058947
0.22080138
0.22100424
0.2211981
0.22138304
0.22155913
0.22172643
0.22188501
0.22203493
0.22217624
0.22230899
0.22243324
0.22254903
0.22265641
0.2227554
0.22284606
0.22292839
0.22300245
0.22306823
0.22312577
0.22317508
0.22321617
0.22324905
0.22327371
0.22329018
0.22329838
0.21216031
0.21262182
0.2130727
0.21351295
0.21394258
0.21436162
0.21477009
0.21516805
0.21555553
0.21593258
0.21629927
0.21665566
0.21700182
0.21733782
0.21766374
0.21797966
0.21828566
0.21858182
0.21886822
0.21914495
0.21941208
0.21966971
0.21991791
0.22015677
0.22038637
0.22060678
0.22081809
0.22102036
0.22121367
0.22139809
0.2215737
0.22174054
0.22189869
0.2220482
0.22218913
0.22232154
0.22244546
0.22256096
0.22266806
0.2227668
0.22285722
0.22293936
0.22301323
0.22307885
0.22313626
0.22318545
0.22322644
0.22325924
0.22328385
0.22330028
0.22330847
0.21221007
0.21266964
0.21311866
0.21355712
0.21398503
0.21440241
0.21480929
0.21520571
0.21559171
0.21596735
0.21633268
0.21668776
0.21703266
0.21736746
0.21769222
0.21800704
0.21831197
0.21860712
0.21889255
0.21916834
0.21943459
0.21969138
0.21993877
0.22017687
0.22040573
0.22062545
0.2208361
0.22103775
0.22123047
0.22141434
0.22158941
0.22175576
0.22191345
0.22206253
0.22220306
0.22233508
0.22245866
0.22257383
0.22268063
0.22277911
0.22286929
0.2229512
0.22302487
0.22309033
0.22314758
0.22319665
0.22323754
0.22327025
0.22329481
0.2233112
0.22331936
0.21226349
0.21272098
0.21316802
0.21360456
0.21403062
0.21444622
0.21485139
0.21524617
0.21563059
0.2160047
0.21636856
0.21672224
0.2170658
0.2173993
0.21772283
0.21803645
0.21834025
0.21863431
0.2189187
0.2191935
0.2194588
0.21971467
0.21996121
0.22019848
0.22042656
0.22064554
0.22085548
0.22105646
0.22124855
0.22143182
0.22160633
0.22177215
0.22192934
0.22207795
0.22221805
0.22234967
0.22247287
0.2225877
0.22269418
0.22279237
0.22288228
0.22296396
0.22303742
0.22310269
0.22315979
0.22320872
0.2232495
0.22328213
0.22330661
0.22332296
0.2233311
0.21232072
0.212776
0.21322091
0.21365539
0.21407948
0.21449318
0.21489652
0.21528953
0.21567226
0.21604474
0.21640704
0.21675922
0.21710133
0.21743345
0.21775565
0.21806801
0.21837059
0.21866348
0.21894675
0.21922049
0.21948477
0.21973968
0.21998528
0.22022167
0.22044892
0.2206671
0.22087628
0.22107655
0.22126796
0.22145059
0.2216245
0.22178976
0.22194642
0.22209453
0.22223416
0.22236535
0.22248815
0.22260261
0.22270875
0.22280662
0.22289626
0.22297768
0.22305092
0.22311599
0.22317291
0.2232217
0.22326236
0.22329489
0.22331931
0.22333561
0.22334373
0.21238192
0.21283485
0.21327748
0.21370977
0.21413175
0.21454342
0.2149448
0.21533593
0.21571685
0.21608759
0.21644822
0.21679879
0.21713936
0.21747001
0.21779079
0.21810178
0.21840306
0.21869471
0.21897679
0.21924939
0.21951258
0.21976645
0.22001107
0.22024652
0.22047287
0.2206902
0.22089858
0.22109808
0.22128877
0.22147072
0.22164399
0.22180864
0.22196473
0.22211231
0.22225144
0.22238217
0.22250454
0.2226186
0.22272438
0.22282192
0.22291125
0.22299241
0.2230654
0.22313026
0.223187
0.22323563
0.22327616
0.22330859
0.22333293
0.22334918
0.22335728
0.21244725
0.21289767
0.21333787
0.21376783
0.21418756
0.21459706
0.21499636
0.21538548
0.21576447
0.21613336
0.2164922
0.21684106
0.21717999
0.21750906
0.21782833
0.21813787
0.21843777
0.21872808
0.21900889
0.21928028
0.21954232
0.21979508
0.22003865
0.22027309
0.22049849
0.22071491
0.22092243
0.22112112
0.22131103
0.22149225
0.22166483
0.22182884
0.22198432
0.22213133
0.22226993
0.22240017
0.22252208
0.22263572
0.22274111
0.2228383
0.22292731
0.22300817
0.22308091
0.22314554
0.22320208
0.22325054
0.22329093
0.22332326
0.22334752
0.22336371
0.22337178
0.21251685
0.21296459
0.21340222
0.2138297
0.21424704
0.21465423
0.21505131
0.2154383
0.21581523
0.21618215
0.2165391
0.21688613
0.21722331
0.2175507
0.21786836
0.21817636
0.21847478
0.21876368
0.21904314
0.21931323
0.21957403
0.21982562
0.22006807
0.22030144
0.22052582
0.22074128
0.22094788
0.2211457
0.2213348
0.22151524
0.22168709
0.22185041
0.22200524
0.22215165
0.22228969
0.2224194
0.22254082
0.22265401
0.22275898
0.22285579
0.22294446
0.22302501
0.22309747
0.22316186
0.22321819
0.22326647
0.22330672
0.22333893
0.2233631
0.22337924
0.22338728
0.21259086
0.21303577
0.21347067
0.21389551
0.2143103
0.21471505
0.21510978
0.21549449
0.21586924
0.21623406
0.21658899
0.21693409
0.21726941
0.21759501
0.21791096
0.21821733
0.21851417
0.21880157
0.21907959
0.21934832
0.21960781
0.21985814
0.2200994
0.22033164
0.22055494
0.22076937
0.220975
0.22117189
0.22136012
0.22153974
0.22171081
0.22187339
0.22202754
0.22217331
0.22231074
0.22243989
0.2225608
0.2226735
0.22277804
0.22287444
0.22296274
0.22304297
0.22311513
0.22317926
0.22323537
0.22328346
0.22332355
0.22335563
0.22337972
0.22339579
0.22340381
0.21266941
0.21311132
0.21354332
0.21396537
0.21437747
0.21477963
0.21517185
0.21555416
0.2159266
0.21628919
0.21664198
0.21698503
0.21731838
0.21764209
0.21795622
0.21826085
0.21855603
0.21884183
0.21911833
0.2193856
0.2196437
0.21989271
0.22013269
0.22036373
0.22058589
0.22079923
0.22100383
0.22119974
0.22138704
0.22156578
0.22173603
0.22189784
0.22205125
0.22219634
0.22233313
0.22246169
0.22258204
0.22269424
0.22279831
0.22289429
0.2229822
0.22306207
0.22313393
0.22319778
0.22325365
0.22330154
0.22334146
0.22337341
0.22339739
0.2234134
0.22342139
0.21275262
0.21319136
0.2136203
0.2140394
0.21444865
0.21484806
0.21523764
0.2156174
0.21598739
0.21634763
0.21669816
0.21703902
0.21737029
0.21769199
0.21800421
0.21830699
0.21860041
0.21888453
0.21915942
0.21942514
0.21968177
0.21992937
0.22016802
0.22039778
0.22061872
0.22083091
0.22103441
0.22122929
0.22141561
0.22159343
0.2217628
0.22192378
0.22207642
0.22222078
0.2223569
0.22248483
0.2226046
0.22271626
0.22281983
0.22291535
0.22300285
0.22308235
0.22315388
0.22321744
0.22327305
0.22332073
0.22336047
0.22339228
0.22341616
0.2234321
0.22344005
0.2128406
0.21327599
0.2137017
0.21411768
0.21452392
0.21492043
0.21530721
0.21568429
0.21605169
0.21640944
0.21675758
0.21709615
0.21742521
0.2177448
0.21805498
0.21835582
0.21864738
0.21892971
0.21920289
0.21946699
0.21972206
0.21996818
0.22020541
0.22043382
0.22065348
0.22086445
0.2210668
0.22126058
0.22144586
0.2216227
0.22179114
0.22195126
0.22210308
0.22224668
0.22238208
0.22250934
0.22262849
0.22273958
0.22284263
0.22293767
0.22302473
0.22310384
0.22317501
0.22323827
0.22329361
0.22334106
0.22338061
0.22341227
0.22343604
0.2234519
0.22345982
0.21293342
0.21336529
0.21378759
0.21420028
0.21460336
0.21499681
0.21538065
0.2157549
0.21611957
0.2164747
0.21682031
0.21715646
0.21748319
0.21780055
0.2181086
0.21840739
0.21869698
0.21897743
0.21924881
0.21951119
0.21976462
0.22000917
0.22024491
0.2204719
0.22069021
0.22089989
0.22110102
0.22129364
0.22147783
0.22165363
0.2218211
0.22198029
0.22213126
0.22227405
0.22240869
0.22253525
0.22265375
0.22276423
0.22286672
0.22296126
0.22304786
0.22312655
0.22319735
0.22326028
0.22331534
0.22336255
0.2234019
0.2234334
0.22345705
0.22347284
0.22348071
0.21303116
0.21345932
0.21387804
0.21428728
0.21468702
0.21507726
0.21545801
0.21582927
0.21619107
0.21654344
0.2168864
0.21722
0.21754429
0.2178593
0.21816509
0.21846172
0.21874924
0.21902772
0.21929721
0.21955777
0.21980948
0.22005238
0.22028655
0.22051204
0.22072892
0.22093725
0.22113709
0.2213285
0.22151153
0.22168625
0.22185269
0.22201092
0.22216097
0.22230291
0.22243676
0.22256257
0.22268038
0.22279023
0.22289214
0.22298614
0.22307225
0.22315051
0.22322092
0.2232835
0.22333826
0.22338521
0.22342435
0.22345569
0.22347921
0.22349491
0.22350274
0.21313384
0.21355811
0.21397308
0.21437869
0.21477494
0.2151618
0.2155393
0.21590744
0.21626623
0.2166157
0.21695588
0.2172868
0.21760851
0.21792106
0.21822449
0.21851885
0.2188042
0.2190806
0.2193481
0.21960676
0.21985665
0.22009782
0.22033034
0.22055426
0.22076964
0.22097655
0.22117504
0.22136517
0.22154699
0.22172056
0.22188592
0.22204313
0.22219223
0.22233327
0.22246629
0.22259132
0.22270841
0.22281758
0.22291888
0.22301231
0.22309792
0.22317571
0.22324571
0.22330793
0.22336237
0.22340906
0.22344798
0.22347913
0.22350252
0.22351814
0.22352592
0.21324148
0.21366168
0.21407271
0.21447453
0.21486711
0.21525045
0.21562454
0.2159894
0.21634504
0.21669147
0.21702873
0.21735686
0.21767588
0.21798584
0.21828679
0.21857878
0.21886185
0.21913607
0.21940149
0.21965816
0.21990614
0.2201455
0.22037629
0.22059856
0.22081237
0.22101779
0.22121487
0.22140365
0.2215842
0.22175657
0.2219208
0.22207694
0.22222504
0.22236514
0.22249728
0.22262149
0.22273782
0.2228463
0.22294694
0.22303979
0.22312485
0.22320216
0.22327173
0.22333356
0.22338768
0.22343408
0.22347277
0.22350374
0.22352699
0.22354251
0.22355025
0.21335404
0.21376998
0.21417691
0.21457476
0.21496352
0.21534317
0.21571371
0.21607514
0.21642748
0.21677075
0.21710496
0.21743015
0.21774636
0.21805362
0.21835198
0.21864148
0.21892218
0.21919412
0.21945736
0.21971195
0.21995795
0.2201954
0.22042438
0.22064493
0.2208571
0.22106096
0.22125655
0.22144394
0.22162316
0.22179427
0.22195731
0.22211234
0.22225939
0.22239851
0.22252973
0.22265309
0.22276862
0.22287636
0.22297633
0.22306855
0.22315306
0.22322986
0.22329897
0.22336041
0.22341417
0.22346028
0.22349872
0.22352949
0.2235526
0.22356802
0.22357572
0.21347145
0.21388296
0.21428561
0.21467933
0.2150641
0.21543991
0.21580674
0.2161646
0.21651351
0.21685347
0.2171845
0.21750664
0.21781991
0.21812436
0.21842002
0.21870693
0.21898515
0.21925472
0.21951568
0.2197681
0.22001202
0.2202475
0.22047458
0.22069333
0.2209038
0.22110603
0.22130008
0.221486
0.22166383
0.22183363
0.22199544
0.2221493
0.22229525
0.22243334
0.22256361
0.22268607
0.22280077
0.22290774
0.22300701
0.22309859
0.2231825
0.22325877
0.22332741
0.22338843
0.22344183
0.22348763
0.22352581
0.22355638
0.22357933
0.22359466
0.2236023
0.21359359
0.2140005
0.2143987
0.21478812
0.21516875
0.21554056
0.21590354
0.21625769
0.21660302
0.21693955
0.21726728
0.21758624
0.21789646
0.21819798
0.21849083
0.21877505
0.21905069
0.21931779
0.21957639
0.21982655
0.22006831
0.22030173
0.22052685
0.22074373
0.22095241
0.22115295
0.22134539
0.22152979
0.22170618
0.22187461
0.22203513
0.22218778
0.2223326
0.22246962
0.22259888
0.22272042
0.22283425
0.22294042
0.22303895
0.22312986
0.22321316
0.22328888
0.22335702
0.2234176
0.22347063
0.2235161
0.22355401
0.22358437
0.22360717
0.22362238
0.22362997
0.21372029
0.21412243
0.21451601
0.21490098
0.21527731
0.21564498
0.21600397
0.21635428
0.21669591
0.21702886
0.21735317
0.21766884
0.2179759
0.21827438
0.21856432
0.21884575
0.21911871
0.21938325
0.2196394
0.21988721
0.22012674
0.22035802
0.2205811
0.22079604
0.22100287
0.22120166
0.22139243
0.22157524
0.22175014
0.22191715
0.22207634
0.22222773
0.22237136
0.22250727
0.2226355
0.22275607
0.22286901
0.22297435
0.22307211
0.22316231
0.22324498
0.22332012
0.22338776
0.22344788
0.22350051
0.22354565
0.22358328
0.22361342
0.22363605
0.22365115
0.22365869
0.2138513
0.21424851
0.21463733
0.2150177
0.21538959
0.21575297
0.21610784
0.21645417
0.21679197
0.21712125
0.21744202
0.21775428
0.21805807
0.21835342
0.21864034
0.21891889
0.21918908
0.21945097
0.21970459
0.21994998
0.22018719
0.22041626
0.22063723
0.22085016
0.22105509
0.22125205
0.2214411
0.22162228
0.22179562
0.22196117
0.22211897
0.22226906
0.22241147
0.22254623
0.22267339
0.22279295
0.22290496
0.22300944
0.22310641
0.2231959
0.2232779
0.22335245
0.22341955
0.22347921
0.22353143
0.22357621
0.22361356
0.22364347
0.22366592
0.22368091
0.22368839
0.21398631
0.21437845
0.21476236
0.21513799
0.21550531
0.21586429
0.2162149
0.21655714
0.216891
0.21721649
0.2175336
0.21784236
0.21814279
0.2184349
0.21871872
0.21899429
0.21926163
0.21952079
0.2197718
0.22001469
0.22024951
0.22047631
0.22069511
0.22090597
0.22110892
0.22130401
0.22149128
0.22167077
0.22184252
0.22200656
0.22216294
0.22231168
0.22245283
0.22258641
0.22271245
0.22283099
0.22294204
0.22304563
0.22314178
0.22323052
0.22331184
0.22338577
0.22345232
0.2235115
0.2235633
0.22360772
0.22364477
0.22367444
0.22369672
0.22371159
0.22371901
0.21373007
0.21412496
0.21451188
0.21489075
0.21526152
0.21562415
0.2159786
0.21632486
0.2166629
0.21699271
0.2173143
0.21762767
0.21793284
0.2182298
0.21851859
0.21879923
0.21907174
0.21933616
0.21959251
0.21984084
0.22008117
0.22031354
0.22053799
0.22075457
0.2209633
0.22116423
0.22135739
0.22154284
0.22172059
0.2218907
0.22205319
0.2222081
0.22235546
0.22249531
0.22262767
0.22275258
0.22287005
0.22298012
0.2230828
0.22317811
0.22326607
0.2233467
0.22342
0.22348598
0.22354466
0.22359602
0.22364008
0.22367682
0.22370624
0.22372834
0.22374308
0.22375044
0.21348022
0.21387734
0.21426674
0.21464833
0.21502206
0.21538787
0.2157457
0.21609553
0.21643733
0.21677107
0.21709675
0.21741436
0.2177239
0.21802538
0.21831881
0.21860421
0.21888159
0.21915098
0.2194124
0.21966589
0.21991147
0.22014917
0.22037904
0.2206011
0.22081539
0.22102195
0.2212208
0.221412
0.22159557
0.22177156
0.22193998
0.22210088
0.22225429
0.22240024
0.22253876
0.22266988
0.22279362
0.22291001
0.22301906
0.22312081
0.22321526
0.22330244
0.22338235
0.223455
0.2235204
0.22357857
0.22362948
0.22367316
0.22370959
0.22373876
0.22376067
0.22377529
0.22378258
0.21323715
0.21363593
0.21402728
0.21441109
0.21478728
0.21515578
0.21551653
0.21586948
0.21621461
0.21655186
0.21688124
0.2172027
0.21751626
0.2178219
0.21811964
0.21840946
0.2186914
0.21896546
0.21923167
0.21949005
0.21974061
0.2199834
0.22021843
0.22044574
0.22066537
0.22087733
0.22108167
0.22127842
0.22146762
0.22164928
0.22182346
0.22199017
0.22214945
0.22230133
0.22244585
0.22258301
0.22271286
0.22283541
0.22295069
0.22305872
0.22315951
0.22325309
0.22333946
0.22341864
0.22349063
0.22355544
0.22361308
0.22366355
0.22370684
0.22374294
0.22377186
0.22379357
0.22380806
0.2238153
0.21340098
0.21379372
0.21417922
0.21455737
0.21492807
0.21529127
0.2156469
0.21599492
0.21633527
0.21666793
0.21699287
0.21731007
0.21761952
0.21792122
0.21821515
0.21850133
0.21877976
0.21905046
0.21931345
0.21956873
0.21981634
0.22005629
0.22028862
0.22051334
0.22073049
0.2209401
0.2211422
0.22133681
0.22152397
0.2217037
0.22187605
0.22204102
0.22219867
0.222349
0.22249205
0.22262784
0.2227564
0.22287775
0.22299191
0.22309889
0.22319872
0.2232914
0.22337696
0.22345539
0.22352672
0.22359093
0.22364804
0.22369804
0.22374094
0.22377672
0.22380537
0.22382689
0.22384125
0.22384842
0.21356611
0.21395275
0.21433235
0.21470479
0.21506997
0.21542783
0.2157783
0.21612133
0.21645688
0.21678491
0.21710538
0.21741828
0.21772359
0.2180213
0.21831141
0.21859391
0.21886881
0.21913613
0.21939586
0.21964803
0.21989265
0.22012975
0.22035935
0.22058146
0.22079612
0.22100336
0.22120319
0.22139564
0.22158075
0.22175854
0.22192903
0.22209226
0.22224825
0.22239702
0.2225386
0.22267301
0.22280027
0.2229204
0.22303342
0.22313935
0.22323821
0.22332999
0.22341473
0.22349241
0.22356306
0.22362667
0.22368324
0.22373278
0.22377528
0.22381073
0.22383912
0.22386044
0.22387467
0.22388178
0.21373154
0.21411207
0.21448575
0.21485246
0.2152121
0.21556461
0.21590991
0.21624796
0.21657869
0.21690207
0.21721807
0.21752666
0.21782783
0.21812155
0.21840782
0.21868664
0.218958
0.21922192
0.21947839
0.21972744
0.21996908
0.22020331
0.22043017
0.22064968
0.22086184
0.22106669
0.22126426
0.22145455
0.22163761
0.22181344
0.22198209
0.22214356
0.22229789
0.22244509
0.22258519
0.22271822
0.22284417
0.22296309
0.22307498
0.22317985
0.22327773
0.22336861
0.22345252
0.22352946
0.22359942
0.22366243
0.22371846
0.22376754
0.22380963
0.22384475
0.22387288
0.223894
0.2239081
0.22391514
0.21389612
0.21427055
0.21463834
0.21499935
0.21535348
0.21570066
0.21604082
0.21637389
0.21669983
0.2170186
0.21733014
0.21763445
0.21793149
0.21822124
0.21850369
0.21877884
0.21904668
0.21930722
0.21956046
0.2198064
0.22004506
0.22027646
0.22050059
0.22071749
0.22092718
0.22112966
0.22132496
0.22151311
0.22169412
0.22186802
0.22203482
0.22219455
0.22234722
0.22249287
0.2226315
0.22276314
0.22288781
0.22300551
0.22311627
0.22322009
0.22331699
0.22340698
0.22349007
0.22356626
0.22363555
0.22369795
0.22375345
0.22380206
0.22384376
0.22387855
0.22390641
0.22392734
0.22394131
0.22394828
0.21405852
0.21442694
0.21478891
0.21514428
0.21549297
0.21583489
0.21616996
0.21649813
0.21681934
0.21713354
0.2174407
0.21774077
0.21803373
0.21831956
0.21859825
0.21886978
0.21913415
0.21939135
0.21964139
0.21988427
0.22011999
0.22034858
0.22057003
0.22078436
0.22099159
0.22119174
0.22138481
0.22157084
0.22174983
0.22192181
0.22208679
0.2222448
0.22239585
0.22253996
0.22267714
0.22280742
0.2229308
0.22304731
0.22315695
0.22325974
0.22335568
0.22344478
0.22352706
0.22360251
0.22367113
0.22373293
0.22378791
0.22383606
0.22387736
0.22391183
0.22393943
0.22396017