/*--------------------------------*- C++ -*----------------------------------*\
| =========                 |                                                 |
| \\      /  F ield         | OpenFOAM: The Open Source CFD Toolbox           |
|  \\    /   O peration     | Version:  2312                                  |
|   \\  /    A nd           | Website:  www.openfoam.com                      |
|    \\/     M anipulation  |                                                 |
\*---------------------------------------------------------------------------*/
FoamFile
{
    version     2.0;
    format      ascii;
    arch        "LSB;label=32;scalar=64";
    class       surfaceScalarField;
    location    "0.08";
    object      phi;
}
// * * * * * * * * * * * * * * * * * * * * * * * * * * * * * * * * * * * * * //

dimensions      [1 0 -1 0 0 0 0];

oriented        oriented;

internalField   nonuniform List<scalar> 
6327
(
2.210463e-08
1.0193728e-09
2.1338281e-08
1.0007956e-09
2.0596407e-08
9.8395463e-10
1.9879223e-08
9.6756785e-10
1.9186916e-08
9.5109701e-10
1.851948e-08
9.3451683e-10
1.7876794e-08
9.1791186e-10
1.7258686e-08
9.0136357e-10
1.666496e-08
8.8492811e-10
1.6095404e-08
8.6864063e-10
1.5549787e-08
8.5252347e-10
1.5027851e-08
8.3659455e-10
1.4529306e-08
8.2087155e-10
1.405382e-08
8.0537475e-10
1.3601024e-08
7.9012711e-10
1.3170503e-08
7.7515438e-10
1.2761802e-08
7.604844e-10
1.237442e-08
7.4614665e-10
1.2007815e-08
7.321713e-10
1.1661402e-08
7.1858951e-10
1.1334552e-08
7.0543242e-10
1.1026593e-08
6.9273147e-10
1.073681e-08
6.8051741e-10
1.0464444e-08
6.6882116e-10
1.0208691e-08
6.5767256e-10
9.9686969e-09
6.4710084e-10
9.7435583e-09
6.371341e-10
9.532315e-09
6.2780001e-10
9.3339465e-09
6.1912548e-10
9.1473721e-09
6.111376e-10
8.9714614e-09
6.0386344e-10
8.8050664e-09
5.973309e-10
8.6470856e-09
5.9156662e-10
8.4965626e-09
5.8659245e-10
8.3527946e-09
5.8241495e-10
8.2153728e-09
5.7900691e-10
8.0839951e-09
5.7628802e-10
7.957901e-09
5.7407024e-10
7.8348185e-09
5.7235271e-10
7.7110477e-09
5.7140236e-10
5.7595743e-10
2.210931e-08
1.9568688e-09
2.1343356e-08
1.9234569e-09
2.0601737e-08
1.8917654e-09
1.9884717e-08
1.8603232e-09
1.9192554e-08
1.8287564e-09
1.8525264e-08
1.7970771e-09
1.7882729e-08
1.7653866e-09
1.7264773e-08
1.7337816e-09
1.6671194e-08
1.7023351e-09
1.6101779e-08
1.6711017e-09
1.5556295e-08
1.6401261e-09
1.5034485e-08
1.6094508e-09
1.4536055e-08
1.5791197e-09
1.4060678e-08
1.5491804e-09
1.3607982e-08
1.5196839e-09
1.3177553e-08
1.4906853e-09
1.2768936e-08
1.4622419e-09
1.2381631e-08
1.4344136e-09
1.2015096e-08
1.4072612e-09
1.1668746e-08
1.3808471e-09
1.1341951e-08
1.3552336e-09
1.1034041e-08
1.3304837e-09
1.0744301e-08
1.3066589e-09
1.0471972e-08
1.2838211e-09
1.0216249e-08
1.2620303e-09
9.9762812e-09
1.2413454e-09
9.7511644e-09
1.2218233e-09
9.5399392e-09
1.2035199e-09
9.3415864e-09
1.1864898e-09
9.1550265e-09
1.1707876e-09
8.9791307e-09
1.1564681e-09
8.8127529e-09
1.1435869e-09
8.654793e-09
1.1321968e-09
8.5042948e-09
1.1223402e-09
8.3605532e-09
1.1140296e-09
8.2231528e-09
1.1072128e-09
8.0917854e-09
1.1017442e-09
7.9657174e-09
1.0972503e-09
7.8428382e-09
1.0934069e-09
7.7200821e-09
1.0899525e-09
1.0987451e-09
2.2118629e-08
2.8966808e-09
2.1353324e-08
2.849451e-09
2.0612147e-08
2.8033116e-09
1.9895474e-08
2.7570954e-09
1.920363e-08
2.7106831e-09
1.8536654e-08
2.6641512e-09
1.7894432e-08
2.6176226e-09
1.7276781e-08
2.5712085e-09
1.6683497e-08
2.5249964e-09
1.6114363e-08
2.4790591e-09
1.5569145e-08
2.433463e-09
1.5047584e-08
2.3882747e-09
1.454939e-08
2.3435639e-09
1.4074231e-08
2.2994052e-09
1.3621737e-08
2.2558776e-09
1.3191496e-08
2.2130656e-09
1.2783051e-08
2.1710552e-09
1.2395903e-08
2.1299364e-09
1.202951e-08
2.0898007e-09
1.1683287e-08
2.0507413e-09
1.1356605e-08
2.0128514e-09
1.1048795e-08
1.976225e-09
1.0759142e-08
1.9409547e-09
1.0486887e-08
1.9071327e-09
1.0231228e-08
1.8748488e-09
9.9913131e-09
1.8441914e-09
9.7662404e-09
1.8152463e-09
9.5550522e-09
1.7880973e-09
9.3567313e-09
1.7628269e-09
9.1702013e-09
1.739517e-09
8.9943369e-09
1.7182501e-09
8.8279959e-09
1.6991093e-09
8.6700817e-09
1.6821731e-09
8.5196395e-09
1.6675032e-09
8.3759591e-09
1.6551158e-09
8.2386096e-09
1.6449336e-09
8.1072564e-09
1.6367488e-09
7.9811664e-09
1.6300283e-09
7.8585032e-09
1.6241748e-09
7.7375386e-09
1.617944e-09
1.6268513e-09
2.2132787e-08
3.8361559e-09
2.136826e-08
3.7761297e-09
2.0627673e-08
3.71571e-09
1.9911523e-08
3.6548112e-09
1.9220175e-08
3.593628e-09
1.8553685e-08
3.532317e-09
1.7911936e-08
3.4710256e-09
1.7294743e-08
3.4098771e-09
1.6701898e-08
3.3489734e-09
1.6133182e-08
3.2884053e-09
1.5588361e-08
3.2282603e-09
1.5067174e-08
3.1686293e-09
1.456933e-08
3.1096077e-09
1.4094498e-08
3.0512973e-09
1.3642308e-08
2.9938052e-09
1.3212348e-08
2.937244e-09
1.280416e-08
2.8817296e-09
1.2417247e-08
2.8273818e-09
1.2051067e-08
2.7743223e-09
1.1705034e-08
2.7226749e-09
1.1378522e-08
2.6725637e-09
1.1070861e-08
2.624113e-09
1.0781337e-08
2.5774476e-09
1.0509193e-08
2.5326884e-09
1.0253628e-08
2.4899557e-09
1.0013793e-08
2.4493669e-09
9.7887859e-09
2.4110362e-09
9.5776538e-09
2.3750752e-09
9.3793829e-09
2.3415937e-09
9.1929018e-09
2.3107004e-09
9.0170914e-09
2.282505e-09
8.8508159e-09
2.2571174e-09
8.692984e-09
2.2346415e-09
8.5426403e-09
2.2151593e-09
8.3990635e-09
2.1986948e-09
8.261794e-09
2.1851543e-09
8.1304504e-09
2.174284e-09
8.0042734e-09
2.1654263e-09
7.8816619e-09
2.1577951e-09
7.7623196e-09
2.1489025e-09
2.1558885e-09
2.2940705e-08
4.8495738e-09
2.2151965e-08
4.7756249e-09
2.138814e-08
4.702258e-09
2.064824e-08
4.6273725e-09
1.993278e-08
4.5517281e-09
1.9242116e-08
4.4757431e-09
1.8576289e-08
4.3996364e-09
1.7935177e-08
4.3235688e-09
1.7318595e-08
4.2476724e-09
1.6726332e-08
4.1720617e-09
1.615817e-08
4.0968458e-09
1.5613872e-08
4.0221347e-09
1.5093179e-08
3.948044e-09
1.4595799e-08
3.8746954e-09
1.4121401e-08
3.8022181e-09
1.3669615e-08
3.730747e-09
1.3240027e-08
3.6604231e-09
1.2832182e-08
3.5913918e-09
1.2445581e-08
3.5238026e-09
1.2079683e-08
3.4578074e-09
1.1733904e-08
3.3935605e-09
1.1407618e-08
3.3312167e-09
1.1100155e-08
3.2709315e-09
1.0810803e-08
3.2128588e-09
1.0538808e-08
3.1571509e-09
1.028337e-08
3.103957e-09
1.0043641e-08
3.0534233e-09
9.8187277e-09
3.0056918e-09
9.6076786e-09
2.9609009e-09
9.4094876e-09
2.9191866e-09
9.2230916e-09
2.8806834e-09
9.0473808e-09
2.8455275e-09
8.8812274e-09
2.813856e-09
8.7235424e-09
2.7858017e-09
8.5733607e-09
2.761474e-09
8.4299314e-09
2.7409174e-09
8.2927419e-09
2.7240378e-09
8.1613503e-09
2.7105436e-09
8.0349499e-09
2.6996878e-09
7.9121538e-09
2.6905556e-09
7.7937369e-09
2.6796234e-09
2.6833662e-09
2.033213e-08
5.6934829e-09
1.9634541e-08
5.6074234e-09
1.895885e-08
5.5212769e-09
1.8304402e-08
5.433325e-09
1.7671635e-08
5.3445164e-09
1.7060821e-08
5.2553666e-09
1.6471978e-08
5.1661165e-09
1.5904989e-08
5.0769273e-09
1.5359686e-08
4.9879334e-09
1.4835885e-08
4.8992594e-09
1.4333391e-08
4.8110313e-09
1.3851996e-08
4.7233798e-09
1.3391471e-08
4.6364436e-09
1.2951556e-08
4.5503683e-09
1.2531959e-08
4.4653074e-09
1.213235e-08
4.3814207e-09
1.1752366e-08
4.2988745e-09
1.13916e-08
4.2178401e-09
1.1049613e-08
4.1384931e-09
1.0725926e-08
4.0610121e-09
1.0420022e-08
3.9855783e-09
1.0131348e-08
3.9123736e-09
9.8593124e-09
3.8415804e-09
9.6032862e-09
3.7733791e-09
9.3626031e-09
3.7079487e-09
9.1365575e-09
3.6454639e-09
8.9244033e-09
3.5860956e-09
8.7253516e-09
3.5300096e-09
8.5385675e-09
3.4773672e-09
8.3631671e-09
3.4283263e-09
8.198218e-09
3.3830436e-09
8.0427466e-09
3.3416786e-09
7.8957609e-09
3.3043947e-09
7.7562958e-09
3.2713546e-09
7.6234813e-09
3.2427022e-09
7.49662e-09
3.2185091e-09
7.3751933e-09
3.1987064e-09
7.2587851e-09
3.1829284e-09
7.1465153e-09
3.17052e-09
7.0378517e-09
3.1598213e-09
6.9316334e-09
3.1499063e-09
3.1450582e-09
2.091871e-08
6.5607229e-09
2.0202926e-08
6.4614393e-09
1.9509312e-08
6.3616914e-09
1.8837582e-08
6.2601148e-09
1.818817e-08
6.1576886e-09
1.7561313e-08
6.0549591e-09
1.6957008e-08
5.9521631e-09
1.6375128e-08
5.8494525e-09
1.5815497e-08
5.7469614e-09
1.5277925e-08
5.644825e-09
1.4762212e-08
5.5431873e-09
1.4268143e-08
5.4422011e-09
1.3795482e-08
5.3420292e-09
1.3343962e-08
5.2428419e-09
1.2913283e-08
5.1448179e-09
1.2503105e-08
5.0481426e-09
1.2113053e-08
4.9530081e-09
1.1742713e-08
4.8596121e-09
1.1391631e-08
4.7681571e-09
1.1059316e-08
4.6788489e-09
1.0745238e-08
4.5918962e-09
1.044883e-08
4.5075087e-09
1.0169484e-08
4.425896e-09
9.9065571e-09
4.347266e-09
9.6593653e-09
4.2718244e-09
9.4271858e-09
4.1997722e-09
9.2092548e-09
4.1313052e-09
9.0047649e-09
4.0666132e-09
8.8128625e-09
4.0058805e-09
8.6326449e-09
3.9492871e-09
8.4631612e-09
3.8970116e-09
8.3034192e-09
3.8492367e-09
8.152408e-09
3.8061523e-09
8.0091413e-09
3.7679528e-09
7.8727222e-09
3.7348193e-09
7.7424157e-09
3.7068575e-09
7.6176525e-09
3.6840315e-09
7.4979456e-09
3.6659192e-09
7.3823618e-09
3.6519554e-09
7.2703223e-09
3.6398782e-09
7.1615997e-09
3.6310418e-09
3.6189607e-09
2.1528291e-08
7.4502136e-09
2.0794072e-08
7.3378193e-09
2.0082326e-08
7.2239428e-09
1.9393079e-08
7.1082845e-09
1.8726773e-08
6.9918359e-09
1.8083624e-08
6.8751306e-09
1.7463617e-08
6.7583926e-09
1.6866617e-08
6.6417647e-09
1.6292439e-08
6.5253823e-09
1.5740884e-08
6.4093924e-09
1.5211745e-08
6.2939578e-09
1.47048e-08
6.179254e-09
1.4219805e-08
6.0654682e-09
1.3756485e-08
5.952796e-09
1.3314531e-08
5.8414417e-09
1.2893594e-08
5.731617e-09
1.2493289e-08
5.6235403e-09
1.2113189e-08
5.5174363e-09
1.1752831e-08
5.413535e-09
1.1411709e-08
5.3120701e-09
1.1089281e-08
5.2132782e-09
1.0784964e-08
5.1173971e-09
1.0498136e-08
5.0246647e-09
1.0228136e-08
4.9353168e-09
9.9742657e-09
4.8495861e-09
9.7357832e-09
4.7677004e-09
9.5119061e-09
4.6898812e-09
9.3018079e-09
4.616343e-09
9.1046146e-09
4.5472933e-09
8.9194031e-09
4.4829346e-09
8.7452016e-09
4.4234681e-09
8.5809982e-09
4.3690992e-09
8.4257637e-09
4.3200433e-09
8.2784946e-09
4.2765239e-09
8.1382773e-09
4.2387564e-09
8.0043542e-09
4.2068794e-09
7.8761236e-09
4.1808899e-09
7.7530288e-09
4.1603388e-09
7.6340859e-09
4.1447406e-09
7.518578e-09
4.1314403e-09
7.4073388e-09
4.1233561e-09
4.1062316e-09
2.2938986e-08
8.4906385e-09
2.2161898e-08
8.363249e-09
2.1408838e-08
8.2371157e-09
2.0678689e-08
8.1086512e-09
1.9971677e-08
7.978512e-09
1.9288238e-08
7.8476607e-09
1.8628568e-08
7.7165991e-09
1.7992639e-08
7.5855371e-09
1.7380303e-08
7.4546107e-09
1.6791368e-08
7.3239587e-09
1.6225625e-08
7.1937411e-09
1.5682859e-08
7.0641397e-09
1.5162841e-08
6.935353e-09
1.4665318e-08
6.8075928e-09
1.4190008e-08
6.6810806e-09
1.3736592e-08
6.5560468e-09
1.3304712e-08
6.4327295e-09
1.2893973e-08
6.3113744e-09
1.2503936e-08
6.1922337e-09
1.2134126e-08
6.0755651e-09
1.1784024e-08
5.9616308e-09
1.1453073e-08
5.850696e-09
1.1140677e-08
5.743027e-09
1.0846198e-08
5.6388904e-09
1.0568961e-08
5.5385502e-09
1.0308246e-08
5.442267e-09
1.0063297e-08
5.3502957e-09
9.8333118e-09
5.262884e-09
9.6174441e-09
5.1802716e-09
9.4147996e-09
5.1026903e-09
9.2244342e-09
5.0303657e-09
9.045355e-09
4.9635217e-09
8.87653e-09
4.9023868e-09
8.7169113e-09
4.8472006e-09
8.5654791e-09
4.7982135e-09
8.4213039e-09
4.75567e-09
8.2836078e-09
4.7197371e-09
8.1517596e-09
4.690441e-09
8.0251395e-09
4.6673265e-09
7.9027216e-09
4.6499723e-09
7.783665e-09
4.6355098e-09
7.66959e-09
4.627847e-09
4.6074678e-09
2.3616822e-08
9.4401185e-09
2.2820374e-08
9.3007806e-09
2.204809e-08
9.1599419e-09
2.1299263e-08
9.0164864e-09
2.0574246e-08
8.8714933e-09
1.9873453e-08
8.7258759e-09
1.919705e-08
8.5800933e-09
1.8544989e-08
8.434341e-09
1.7917114e-08
8.2887512e-09
1.731322e-08
8.1434681e-09
1.6733091e-08
7.9986654e-09
1.6176505e-08
7.8545442e-09
1.5643225e-08
7.7113266e-09
1.5132989e-08
7.5692489e-09
1.4645506e-08
7.428559e-09
1.4180449e-08
7.2895136e-09
1.3737451e-08
7.1523781e-09
1.3316104e-08
7.0174256e-09
1.2915959e-08
6.8849364e-09
1.2536526e-08
6.7551965e-09
1.2177276e-08
6.6284969e-09
1.1837638e-08
6.5051315e-09
1.1516998e-08
6.3853961e-09
1.1214706e-08
6.2695859e-09
1.0930068e-08
6.1579939e-09
1.066235e-08
6.0509087e-09
1.0410776e-08
5.9486128e-09
1.0174526e-08
5.8513808e-09
9.9527328e-09
5.7594781e-09
9.7444833e-09
5.6731612e-09
9.548812e-09
5.5926797e-09
9.3647057e-09
5.5182809e-09
9.1911126e-09
5.4502164e-09
9.0269668e-09
5.3887494e-09
8.8712323e-09
5.3341545e-09
8.7229634e-09
5.2867006e-09
8.5813604e-09
5.2465783e-09
8.4457612e-09
5.2138349e-09
8.3154853e-09
5.1880239e-09
8.1894719e-09
5.1687644e-09
8.0667687e-09
5.1531311e-09
7.9496048e-09
5.1455343e-09
5.1233147e-09
2.516352e-08
1.0575057e-08
2.4320834e-08
1.0416775e-08
2.3504505e-08
1.026323e-08
2.2712646e-08
1.0106941e-08
2.19449e-08
9.9481087e-09
2.1201667e-08
9.787913e-09
2.0483317e-08
9.6271838e-09
1.9789979e-08
9.4663316e-09
1.9121591e-08
9.3055385e-09
1.847798e-08
9.1449356e-09
1.7858936e-08
8.9846746e-09
1.7264234e-08
8.8249441e-09
1.6693644e-08
8.6659653e-09
1.6146921e-08
8.5079836e-09
1.5623796e-08
8.3512608e-09
1.5123969e-08
8.1960708e-09
1.4647101e-08
8.0426975e-09
1.4192816e-08
7.8914338e-09
1.3760696e-08
7.7425806e-09
1.3350279e-08
7.5964465e-09
1.2961063e-08
7.4533464e-09
1.2592505e-08
7.3136003e-09
1.2244019e-08
7.1775316e-09
1.191498e-08
7.0454652e-09
1.1604718e-08
6.9177258e-09
1.1312525e-08
6.7946353e-09
1.103765e-08
6.676511e-09
1.0779298e-08
6.5636634e-09
1.0536631e-08
6.456394e-09
1.0308764e-08
6.3549947e-09
1.0094762e-08
6.2597474e-09
9.8936399e-09
6.1709262e-09
9.7043649e-09
6.0888022e-09
9.5258669e-09
6.0136501e-09
9.3570635e-09
5.9457562e-09
9.1969037e-09
5.8854166e-09
9.0444261e-09
5.8329203e-09
8.8988082e-09
5.788476e-09
8.7593531e-09
5.7521449e-09
8.6253181e-09
5.723498e-09
8.4956043e-09
5.7021718e-09
8.3691623e-09
5.68531e-09
8.2486628e-09
5.6774432e-09
5.6543978e-09
2.591436e-08
1.1590504e-08
2.5051635e-08
1.1420121e-08
2.4215057e-08
1.1250937e-08
2.3403363e-08
1.1078708e-08
2.2616493e-08
1.0904161e-08
2.185485e-08
1.0728436e-08
2.1118754e-08
1.0552265e-08
2.0408296e-08
1.0376008e-08
1.9723393e-08
1.0199836e-08
1.9063864e-08
1.0023882e-08
1.842949e-08
9.8483083e-09
1.7820039e-08
9.6733189e-09
1.7235274e-08
9.4991564e-09
1.667494e-08
9.3260898e-09
1.6138761e-08
9.1544065e-09
1.5626426e-08
8.9844069e-09
1.5137588e-08
8.8164022e-09
1.4671859e-08
8.6507129e-09
1.422881e-08
8.4876683e-09
1.3807967e-08
8.3276057e-09
1.3408816e-08
8.1708689e-09
1.3030798e-08
8.0178076e-09
1.2673315e-08
7.8687745e-09
1.2335726e-08
7.7241243e-09
1.2017346e-08
7.5842111e-09
1.1717451e-08
7.4493862e-09
1.1435272e-08
7.3199958e-09
1.1169997e-08
7.1963785e-09
1.092077e-08
7.0788635e-09
1.0686686e-08
6.9677694e-09
1.0466791e-08
6.8634038e-09
1.0260081e-08
6.7660661e-09
1.0065503e-08
6.6760511e-09
9.8819718e-09
6.5936572e-09
9.7083891e-09
6.5191919e-09
9.5436912e-09
6.4529712e-09
9.3869017e-09
6.3952997e-09
9.2371751e-09
6.3463988e-09
9.0937774e-09
6.3063366e-09
8.9559029e-09
6.2747066e-09
8.8224089e-09
6.2511426e-09
8.6921677e-09
6.232949e-09
8.5681367e-09
6.2245129e-09
6.2012999e-09
2.7603541e-08
1.2822133e-08
2.6693391e-08
1.2634516e-08
2.5810025e-08
1.2449963e-08
2.4952847e-08
1.2264348e-08
2.4121113e-08
1.2075823e-08
2.3314942e-08
1.1885264e-08
2.2534717e-08
1.1693702e-08
2.17807e-08
1.1501769e-08
2.1052949e-08
1.1309782e-08
2.035136e-08
1.1117901e-08
1.9675744e-08
1.0926266e-08
1.9025874e-08
1.0735051e-08
1.8401511e-08
1.054448e-08
1.7802411e-08
1.0354816e-08
1.722831e-08
1.0166352e-08
1.6678924e-08
9.9794021e-09
1.6153932e-08
9.7942925e-09
1.5652976e-08
9.611362e-09
1.5175658e-08
9.4309593e-09
1.4721535e-08
9.2534421e-09
1.4290123e-08
9.0791767e-09
1.3880894e-08
8.9085363e-09
1.3493276e-08
8.7419e-09
1.3126655e-08
8.5796504e-09
1.2780377e-08
8.4221721e-09
1.245374e-08
8.2698488e-09
1.2146004e-08
8.1230615e-09
1.1856384e-08
7.9821853e-09
1.158405e-08
7.8475873e-09
1.1328127e-08
7.7196245e-09
1.1087692e-08
7.5986427e-09
1.0861772e-08
7.4849757e-09
1.0649344e-08
7.3789481e-09
1.0449339e-08
7.2808793e-09
1.0260654e-08
7.1910904e-09
1.0082179e-08
7.1099097e-09
9.9128397e-09
7.0376699e-09
9.7516449e-09
6.9746874e-09
9.5977266e-09
6.921191e-09
9.4503122e-09
6.8772497e-09
9.3085338e-09
6.8424804e-09
9.1711991e-09
6.8164999e-09
9.0371209e-09
6.796834e-09
8.9094306e-09
6.7875513e-09
6.7645414e-09
2.8432569e-08
1.3907152e-08
2.7501208e-08
1.3706661e-08
2.6596754e-08
1.3506397e-08
2.571872e-08
1.3303952e-08
2.4866782e-08
1.3098863e-08
2.4041159e-08
1.2892017e-08
2.3242194e-08
1.2684319e-08
2.2470099e-08
1.2476311e-08
2.1724897e-08
1.2268271e-08
2.1006467e-08
1.2060355e-08
2.031461e-08
1.1852712e-08
1.9649092e-08
1.1645534e-08
1.900967e-08
1.1439062e-08
1.839609e-08
1.1233584e-08
1.7808082e-08
1.1029416e-08
1.724535e-08
1.0826898e-08
1.6707564e-08
1.0626384e-08
1.6194356e-08
1.042824e-08
1.5705315e-08
1.0232842e-08
1.5239988e-08
1.0040577e-08
1.4797876e-08
9.851841e-09
1.4378438e-08
9.667036e-09
1.398109e-08
9.4865711e-09
1.3605203e-08
9.3108588e-09
1.3250106e-08
9.1403138e-09
1.2915085e-08
8.9753497e-09
1.2599381e-08
8.8163768e-09
1.2302192e-08
8.6637997e-09
1.2022672e-08
8.5180142e-09
1.1759928e-08
8.3794053e-09
1.1513018e-08
8.2483461e-09
1.1280951e-08
8.1251969e-09
1.1062686e-08
8.010308e-09
1.0857138e-08
7.9040231e-09
1.066319e-08
7.8066857e-09
1.0479721e-08
7.7186434e-09
1.0305646e-08
7.6402437e-09
1.0139962e-08
7.5718104e-09
9.9817779e-09
7.5135751e-09
9.8302816e-09
7.465602e-09
9.6845444e-09
7.4275303e-09
9.5433209e-09
7.3989502e-09
9.4053815e-09
7.377644e-09
9.2739488e-09
7.3672541e-09
7.3446029e-09
3.0272853e-08
1.5239924e-08
2.9291674e-08
1.5022144e-08
2.8338551e-08
1.4806763e-08
2.7412613e-08
1.4589817e-08
2.6513532e-08
1.4370289e-08
2.5641257e-08
1.4148402e-08
2.4796049e-08
1.3925003e-08
2.3978208e-08
1.3700872e-08
2.3187894e-08
1.3476474e-08
2.2425101e-08
1.3252057e-08
2.1689691e-08
1.302778e-08
2.0981455e-08
1.2803804e-08
2.0300157e-08
1.2580339e-08
1.9645545e-08
1.235765e-08
1.9017357e-08
1.2136046e-08
1.8415316e-08
1.191587e-08
1.7839115e-08
1.1697486e-08
1.7288415e-08
1.1481275e-08
1.6762834e-08
1.1267631e-08
1.6261952e-08
1.105696e-08
1.5785302e-08
1.0849676e-08
1.5332374e-08
1.0646205e-08
1.4902611e-08
1.0446977e-08
1.4495417e-08
1.0252434e-08
1.4110148e-08
1.0063016e-08
1.3746117e-08
9.8791688e-09
1.3402595e-08
9.7013358e-09
1.3078807e-08
9.5299572e-09
1.2773935e-08
9.3654666e-09
1.2487115e-08
9.2082888e-09
1.2217436e-08
9.058837e-09
1.1963939e-08
8.9175117e-09
1.1725614e-08
8.7847001e-09
1.1501405e-08
8.6607781e-09
1.129021e-08
8.5461137e-09
1.1090902e-08
8.4410723e-09
1.0902348e-08
8.3460194e-09
1.0723455e-08
8.2613148e-09
1.0553208e-08
8.1872864e-09
1.0390693e-08
8.1241641e-09
1.0235059e-08
8.0720031e-09
1.0085316e-08
8.0304613e-09
9.9401649e-09
7.9990987e-09
9.7983478e-09
7.9759678e-09
9.6631214e-09
7.9642254e-09
7.9419383e-09
3.1184777e-08
1.6398276e-08
3.0181363e-08
1.6166703e-08
2.9206102e-08
1.5934926e-08
2.82584e-08
1.5700742e-08
2.7338135e-08
1.5463923e-08
2.6445415e-08
1.522501e-08
2.558051e-08
1.4984787e-08
2.4743673e-08
1.474392e-08
2.3935021e-08
1.4502811e-08
2.3154515e-08
1.426169e-08
2.2402004e-08
1.402072e-08
2.1677273e-08
1.3780082e-08
2.0980079e-08
1.3540007e-08
2.0310163e-08
1.3300782e-08
1.9667259e-08
1.3062741e-08
1.9051077e-08
1.2826251e-08
1.8461301e-08
1.2591702e-08
1.7897582e-08
1.2359503e-08
1.7359527e-08
1.2130076e-08
1.6846702e-08
1.1903853e-08
1.6358628e-08
1.168128e-08
1.5894781e-08
1.1462809e-08
1.5454593e-08
1.1248904e-08
1.5037452e-08
1.1040032e-08
1.4642699e-08
1.0836667e-08
1.4269633e-08
1.0639284e-08
1.3917509e-08
1.0448355e-08
1.3585536e-08
1.0264351e-08
1.327288e-08
1.0087735e-08
1.2978659e-08
9.9189605e-09
1.2701945e-08
9.758469e-09
1.2441762e-08
9.6066887e-09
1.2197084e-08
9.4640335e-09
1.1966837e-08
9.330905e-09
1.1749907e-08
9.2076953e-09
1.1545154e-08
9.094791e-09
1.1351438e-08
8.9925745e-09
1.1167657e-08
8.9014152e-09
1.0992785e-08
8.8216426e-09
1.0825885e-08
8.7534811e-09
1.0666065e-08
8.6969735e-09
1.0512279e-08
8.6517932e-09
1.0363168e-08
8.6174695e-09
1.0217463e-08
8.5923237e-09
1.0078413e-08
8.5790025e-09
8.5569913e-09
3.3184196e-08
1.7837169e-08
3.2128472e-08
1.7588112e-08
3.1102301e-08
1.7340701e-08
3.0104568e-08
1.7091561e-08
2.9134913e-08
1.6839756e-08
2.8193365e-08
1.6585438e-08
2.7280115e-08
1.6329256e-08
2.6395421e-08
1.6071921e-08
2.5539491e-08
1.5814002e-08
2.4712399e-08
1.5555852e-08
2.391408e-08
1.529769e-08
2.314437e-08
1.5039692e-08
2.2403047e-08
1.4782059e-08
2.1689861e-08
1.4525046e-08
2.100455e-08
1.4268963e-08
2.0346838e-08
1.401417e-08
1.9716428e-08
1.3761058e-08
1.9112992e-08
1.3510045e-08
1.8536169e-08
1.3261565e-08
1.7985554e-08
1.3016068e-08
1.7460702e-08
1.2774016e-08
1.6961121e-08
1.2535881e-08
1.6486273e-08
1.2302148e-08
1.6035576e-08
1.2073308e-08
1.5608403e-08
1.1849859e-08
1.5204083e-08
1.1632305e-08
1.4821897e-08
1.142115e-08
1.4461086e-08
1.1216899e-08
1.4120844e-08
1.102005e-08
1.3800318e-08
1.0831095e-08
1.3498611e-08
1.0650519e-08
1.3214779e-08
1.047879e-08
1.2947828e-08
1.0316363e-08
1.2696715e-08
1.0163681e-08
1.2460353e-08
1.0021171e-08
1.2237614e-08
9.8892466e-09
1.2027348e-08
9.7683167e-09
1.1828408e-08
9.6587786e-09
1.1639684e-08
9.56101e-09
1.1460138e-08
9.4753392e-09
1.1288812e-08
9.4019826e-09
1.1124769e-08
9.3409692e-09
1.0966909e-08
9.2919834e-09
1.0813817e-08
9.2545283e-09
1.066422e-08
9.2271808e-09
1.0521332e-08
9.2120774e-09
9.1902037e-09
3.4183256e-08
1.9074531e-08
3.3104293e-08
1.8809079e-08
3.2055066e-08
1.8544263e-08
3.1034652e-08
1.8277193e-08
3.0042931e-08
1.8007469e-08
2.9080034e-08
1.7735421e-08
2.8146191e-08
1.7461703e-08
2.7241639e-08
1.7186947e-08
2.636654e-08
1.6911643e-08
2.552093e-08
1.663611e-08
2.4704721e-08
1.6360563e-08
2.3917735e-08
1.6085193e-08
2.3159745e-08
1.5810225e-08
2.2430496e-08
1.5535939e-08
2.172972e-08
1.5262673e-08
2.1057132e-08
1.4990808e-08
2.0412426e-08
1.4720764e-08
1.9795265e-08
1.4452983e-08
1.9205273e-08
1.4187926e-08
1.8642036e-08
1.3926072e-08
1.8105094e-08
1.3667909e-08
1.7593942e-08
1.3413941e-08
1.7108029e-08
1.3164679e-08
1.6646759e-08
1.2920646e-08
1.620949e-08
1.268237e-08
1.5795537e-08
1.2450384e-08
1.5404166e-08
1.2225223e-08
1.5034602e-08
1.200742e-08
1.4686023e-08
1.1797504e-08
1.4357561e-08
1.1595997e-08
1.4048303e-08
1.1403412e-08
1.3757287e-08
1.1220245e-08
1.3483503e-08
1.104698e-08
1.3225894e-08
1.0884085e-08
1.2983357e-08
1.0732013e-08
1.2754754e-08
1.0591202e-08
1.2538925e-08
1.0462079e-08
1.2334715e-08
1.0345057e-08
1.2141009e-08
1.024052e-08
1.1956756e-08
1.0148793e-08
1.1780973e-08
1.0070082e-08
1.1612683e-08
1.0004404e-08
1.145073e-08
9.9514497e-09
1.1293644e-08
9.9107037e-09
1.1140158e-08
9.8809777e-09
1.0993431e-08
9.8639165e-09
9.8420252e-09
3.5215077e-08
2.0343327e-08
3.4112743e-08
2.0060676e-08
3.3040249e-08
1.9777764e-08
3.1997044e-08
1.9492402e-08
3.0983199e-08
1.9204496e-08
2.9998919e-08
1.891446e-08
2.9044445e-08
1.8622908e-08
2.8119988e-08
1.83304e-08
2.7225669e-08
1.8037363e-08
2.6361488e-08
1.774409e-08
2.5527335e-08
1.74508e-08
2.4723022e-08
1.7157706e-08
2.3948315e-08
1.6865057e-08
2.3202955e-08
1.6573159e-08
2.2486668e-08
1.6282377e-08
2.1799161e-08
1.5993118e-08
2.1140118e-08
1.5705825e-08
2.0509189e-08
1.5420969e-08
1.9905988e-08
1.5139037e-08
1.9330087e-08
1.4860534e-08
1.8781014e-08
1.4585979e-08
1.8258249e-08
1.4315901e-08
1.7761229e-08
1.4050844e-08
1.7289343e-08
1.3791358e-08
1.6841936e-08
1.3538003e-08
1.6418305e-08
1.329134e-08
1.6017705e-08
1.3051934e-08
1.5639343e-08
1.2820349e-08
1.5282382e-08
1.2597144e-08
1.4945938e-08
1.238287e-08
1.4629082e-08
1.2178066e-08
1.4330837e-08
1.1983259e-08
1.4050177e-08
1.1798961e-08
1.378603e-08
1.1625664e-08
1.353728e-08
1.1463848e-08
1.3302777e-08
1.1313973e-08
1.3081354e-08
1.1176486e-08
1.2871851e-08
1.1051813e-08
1.2673142e-08
1.0940342e-08
1.2484165e-08
1.0842396e-08
1.2303912e-08
1.0758172e-08
1.2131364e-08
1.0687671e-08
1.1965309e-08
1.0630591e-08
1.1804229e-08
1.0586407e-08
1.1646866e-08
1.0554141e-08
1.1496314e-08
1.0534975e-08
1.0512916e-08
3.6280135e-08
2.1642196e-08
3.5154317e-08
2.1342893e-08
3.4058448e-08
2.1041704e-08
3.2992408e-08
2.0737801e-08
3.1956424e-08
2.0431455e-08
3.0950753e-08
2.0123142e-08
2.9975637e-08
1.9813429e-08
2.9031256e-08
1.9502813e-08
2.8117691e-08
1.9191675e-08
2.7234911e-08
1.8880293e-08
2.6382788e-08
1.8568894e-08
2.5561123e-08
1.8257713e-08
2.4769677e-08
1.7947028e-08
2.4008186e-08
1.7637173e-08
2.327637e-08
1.7328537e-08
2.2573926e-08
1.7021555e-08
2.1900527e-08
1.6716696e-08
2.1255815e-08
1.6414453e-08
2.0639389e-08
1.6115343e-08
2.0050809e-08
1.5819898e-08
1.9489588e-08
1.5528663e-08
1.8955194e-08
1.5242199e-08
1.844705e-08
1.4961076e-08
1.796453e-08
1.4685876e-08
1.7506964e-08
1.4417187e-08
1.7073636e-08
1.41556e-08
1.6663785e-08
1.3901711e-08
1.6276603e-08
1.3656113e-08
1.5911237e-08
1.3419394e-08
1.5566789e-08
1.3192133e-08
1.5242314e-08
1.2974901e-08
1.4936818e-08
1.276825e-08
1.4649261e-08
1.257272e-08
1.4378556e-08
1.238883e-08
1.4123577e-08
1.2217084e-08
1.3883163e-08
1.2057965e-08
1.3656139e-08
1.1911938e-08
1.3441338e-08
1.1779441e-08
1.3237627e-08
1.1660869e-08
1.3043929e-08
1.155654e-08
1.285921e-08
1.146664e-08
1.2682407e-08
1.139116e-08
1.2512259e-08
1.1329806e-08
1.2347196e-08
1.1282048e-08
1.2185983e-08
1.1247096e-08
1.2031631e-08
1.1225711e-08
1.1203349e-08
3.8560336e-08
2.3289415e-08
3.7379309e-08
2.2973427e-08
3.6229597e-08
2.2656608e-08
3.5110252e-08
2.2336743e-08
3.4021364e-08
2.2014034e-08
3.2963258e-08
2.1688963e-08
3.1936219e-08
2.1362049e-08
3.0940478e-08
2.103382e-08
2.9976181e-08
2.070472e-08
2.9043375e-08
2.0375098e-08
2.8141999e-08
2.0045223e-08
2.727191e-08
1.9715337e-08
2.6432898e-08
1.93857e-08
2.562472e-08
1.9056617e-08
2.4847106e-08
1.8728453e-08
2.4099769e-08
1.8401621e-08
2.3382399e-08
1.8076582e-08
2.2694658e-08
1.7753831e-08
2.2036174e-08
1.7433888e-08
2.1406535e-08
1.7117294e-08
2.0805286e-08
1.6804609e-08
2.0231929e-08
1.6496407e-08
1.9685916e-08
1.6193276e-08
1.9166656e-08
1.5895816e-08
1.867351e-08
1.5604637e-08
1.8205793e-08
1.5320358e-08
1.7762774e-08
1.50436e-08
1.7343676e-08
1.4774987e-08
1.6947679e-08
1.4515142e-08
1.6573913e-08
1.4264682e-08
1.6221464e-08
1.4024217e-08
1.5889372e-08
1.3794342e-08
1.5576629e-08
1.357564e-08
1.528218e-08
1.3368678e-08
1.5004926e-08
1.3174001e-08
1.4743728e-08
1.2992136e-08
1.4497416e-08
1.2823589e-08
1.4264807e-08
1.2668843e-08
1.4044728e-08
1.2528347e-08
1.3836038e-08
1.2402502e-08
1.3637644e-08
1.2291621e-08
1.3448483e-08
1.2195884e-08
1.326745e-08
1.2115273e-08
1.3093232e-08
1.20495e-08
1.2924217e-08
1.1998048e-08
1.2759191e-08
1.1960282e-08
1.2601083e-08
1.1936588e-08
1.1913813e-08
3.9718231e-08
2.467075e-08
3.8512924e-08
2.4338021e-08
3.7339081e-08
2.4002568e-08
3.6196183e-08
2.36636e-08
3.5084469e-08
2.3321758e-08
3.4004293e-08
2.2977635e-08
3.2955941e-08
2.2631766e-08
3.1939622e-08
2.228464e-08
3.095545e-08
2.1936662e-08
3.0003437e-08
2.1588156e-08
2.9083501e-08
2.1239393e-08
2.819548e-08
2.0890633e-08
2.7339159e-08
2.0542161e-08
2.6514288e-08
2.0194314e-08
2.5720592e-08
1.9847481e-08
2.4957776e-08
1.9502105e-08
2.4225522e-08
1.9158672e-08
2.352348e-08
1.8817701e-08
2.2851266e-08
1.8479738e-08
2.2208456e-08
1.8145351e-08
2.1594581e-08
1.7815126e-08
2.1009127e-08
1.7489665e-08
2.0451535e-08
1.7169585e-08
1.9921198e-08
1.6855514e-08
1.9417463e-08
1.6548092e-08
1.8939631e-08
1.6247966e-08
1.8486955e-08
1.5955786e-08
1.8058646e-08
1.5672208e-08
1.7653865e-08
1.5397881e-08
1.7271731e-08
1.5133453e-08
1.6911313e-08
1.487956e-08
1.6571637e-08
1.4636829e-08
1.6251679e-08
1.4405868e-08
1.5950373e-08
1.4187271e-08
1.5666605e-08
1.3981609e-08
1.5399225e-08
1.3789434e-08
1.5147056e-08
1.3611272e-08
1.4908908e-08
1.3447624e-08
1.4683598e-08
1.3298951e-08
1.4469978e-08
1.3165657e-08
1.4266936e-08
1.3048057e-08
1.4073381e-08
1.2946321e-08
1.3888163e-08
1.2860429e-08
1.370992e-08
1.2790101e-08
1.3537003e-08
1.2734842e-08
1.3368221e-08
1.2694152e-08
1.3206418e-08
1.2668084e-08
1.264481e-08
4.3470718e-08
2.6789289e-08
4.2174373e-08
2.643844e-08
4.0911242e-08
2.6087819e-08
3.9681217e-08
2.5736503e-08
3.848311e-08
2.538149e-08
3.7316675e-08
2.5022962e-08
3.6182207e-08
2.4661621e-08
3.5080049e-08
2.4298085e-08
3.4010473e-08
2.393288e-08
3.2973657e-08
2.3566455e-08
3.1969684e-08
2.3199187e-08
3.0998537e-08
2.2831386e-08
3.0060109e-08
2.2463329e-08
2.9154228e-08
2.2095298e-08
2.828067e-08
2.1727607e-08
2.7439179e-08
2.1360619e-08
2.6629475e-08
2.0994755e-08
2.5851257e-08
2.0630483e-08
2.5104194e-08
2.0268313e-08
2.4387927e-08
1.990879e-08
2.370206e-08
1.9552486e-08
2.3046152e-08
1.9199994e-08
2.2419724e-08
1.8851926e-08
2.1822247e-08
1.8508913e-08
2.1253148e-08
1.8171599e-08
2.0711804e-08
1.7840642e-08
2.0197549e-08
1.7516709e-08
1.9709669e-08
1.7200476e-08
1.9247404e-08
1.6892625e-08
1.8809948e-08
1.6593836e-08
1.839645e-08
1.6304792e-08
1.8006011e-08
1.6026166e-08
1.7637688e-08
1.5758624e-08
1.729049e-08
1.550282e-08
1.6963383e-08
1.525939e-08
1.6655284e-08
1.5028954e-08
1.6365069e-08
1.4812108e-08
1.6091578e-08
1.4609428e-08
1.5833624e-08
1.4421462e-08
1.559001e-08
1.4248726e-08
1.5359547e-08
1.4091694e-08
1.5141073e-08
1.3950776e-08
1.493346e-08
1.3826284e-08
1.4735583e-08
1.371839e-08
1.454625e-08
1.3627069e-08
1.4364051e-08
1.3552058e-08
1.4187303e-08
1.3492888e-08
1.4014845e-08
1.3449176e-08
1.384943e-08
1.3420692e-08
1.3396852e-08
4.6101724e-08
2.864484e-08
4.4748486e-08
2.827861e-08
4.3427059e-08
2.7909915e-08
4.2139108e-08
2.7540663e-08
4.0884287e-08
2.7169202e-08
3.9661943e-08
2.679402e-08
3.8472073e-08
2.6415489e-08
3.7314974e-08
2.6034264e-08
3.6190966e-08
2.5650929e-08
3.5100291e-08
2.5265981e-08
3.4043097e-08
2.4879838e-08
3.3019435e-08
2.4492854e-08
3.2029261e-08
2.4105335e-08
3.107245e-08
2.3717571e-08
3.0148817e-08
2.3329866e-08
2.9258132e-08
2.2942563e-08
2.8400133e-08
2.2556056e-08
2.7574534e-08
2.2170792e-08
2.6781025e-08
2.1787266e-08
2.6019267e-08
2.1406013e-08
2.5288887e-08
2.1027603e-08
2.4589476e-08
2.0652631e-08
2.3920583e-08
2.0281719e-08
2.3281711e-08
1.9915503e-08
2.2672319e-08
1.9554643e-08
2.2091818e-08
1.9199809e-08
2.1539573e-08
1.8851687e-08
2.1014903e-08
1.8510975e-08
2.0517078e-08
1.8178376e-08
2.0045325e-08
1.78546e-08
1.9598822e-08
1.7540357e-08
1.9176705e-08
1.7236357e-08
1.877806e-08
1.6943304e-08
1.8401929e-08
1.6661889e-08
1.804731e-08
1.6392794e-08
1.7713151e-08
1.6136684e-08
1.7398359e-08