/*--------------------------------*- C++ -*----------------------------------*\
| =========                 |                                                 |
| \\      /  F ield         | OpenFOAM: The Open Source CFD Toolbox           |
|  \\    /   O peration     | Version:  2312                                  |
|   \\  /    A nd           | Website:  www.openfoam.com                      |
|    \\/     M anipulation  |                                                 |
\*---------------------------------------------------------------------------*/
FoamFile
{
    version     2.0;
    format      ascii;
    arch        "LSB;label=32;scalar=64";
    class       volScalarField;
    location    "0.08";
    object      Qdot;
}
// * * * * * * * * * * * * * * * * * * * * * * * * * * * * * * * * * * * * * //

dimensions      [1 -1 -3 0 0 0 0];

internalField   nonuniform List<scalar> 
3224
(
0.77900384
0.65438397
0.55110306
0.46535744
0.39403908
0.33460855
0.28498596
0.24346753
0.20865657
0.17940832
0.15477767
0.13399088
0.11640708
0.10150104
0.088835324
0.078044917
0.06883756
0.060959899
0.054206171
0.048402556
0.043407214
0.039098665
0.035375824
0.032154804
0.029362572
0.026940436
0.024839248
0.023015876
0.021432851
0.020061591
0.018874924
0.017851343
0.016976515
0.01622944
0.015602345
0.015079806
0.014658936
0.014331161
0.014088688
0.013930324
0.01385266
0.77893554
0.65435523
0.55109831
0.46536852
0.39405836
0.33463228
0.28501206
0.24349602
0.20868662
0.17943599
0.15480666
0.13401896
0.11643303
0.10152517
0.08885708
0.078067482
0.068857188
0.060979026
0.05422292
0.048418116
0.043422897
0.039112251
0.035390067
0.032167857
0.029374436
0.026953238
0.024851112
0.023026146
0.021442993
0.020070416
0.018884281
0.017861767
0.016984029
0.016237609
0.01560867
0.015087975
0.014667638
0.014338142
0.014096323
0.013937838
0.013859518
0.77859327
0.65410812
0.55091399
0.46522716
0.39395393
0.33455396
0.28495509
0.24345276
0.20865617
0.17941424
0.15479123
0.13400829
0.11642737
0.1015228
0.088856676
0.078069051
0.068861288
0.060982843
0.054229648
0.048424716
0.043428033
0.039120169
0.03539614
0.032173397
0.029382354
0.026958778
0.024855592
0.023030498
0.021448533
0.020075956
0.018889417
0.017865714
0.016987571
0.016243805
0.015614209
0.015093393
0.014671334
0.014341837
0.014099485
0.013942189
0.013863335
0.77798675
0.65364058
0.55054612
0.46493735
0.39372211
0.3343704
0.28480953
0.24333938
0.20856479
0.17934224
0.15473507
0.1339628
0.11639296
0.10149629
0.08883492
0.078054024
0.068847831
0.060974141
0.054221075
0.048419305
0.043426464
0.039116602
0.035394418
0.032173397
0.029381698
0.026958907
0.024857969
0.023034316
0.021450256
0.020078463
0.018891261
0.017868747
0.016991138
0.016245122
0.015617776
0.015096426
0.014674366
0.014345655
0.014103181
0.013944162
0.013865843
0.92712085
0.77713524
0.65295573
0.54999707
0.46449592
0.39336769
0.33408535
0.28457933
0.24315187
0.20841422
0.17922081
0.15463499
0.13388251
0.11632729
0.1014425
0.088793124
0.07801737
0.068819346
0.060950412
0.054201164
0.048404811
0.043412351
0.039107116
0.035385312
0.03216654
0.029375625
0.026955616
0.024854678
0.023031153
0.021446688
0.020074896
0.018889417
0.017867436
0.016990354
0.016244993
0.015616587
0.015094048
0.0146749
0.014346059
0.014103181
0.0139451
0.013866247
0.92588382
0.77608859
0.6521016
0.54930721
0.4639366
0.39291598
0.33371854
0.2842787
0.24290821
0.20821473
0.17905982
0.15450077
0.13377333
0.11623739
0.10136853
0.088730897
0.077966468
0.068777429
0.060914292
0.054174272
0.048378171
0.043391784
0.039089711
0.035371474
0.032153082
0.029364545
0.026946509
0.024846638
0.023024957
0.021441553
0.020071734
0.018884533
0.017863085
0.016987976
0.01624196
0.01561302
0.015094048
0.014671204
0.014342492
0.014100803
0.013942189
0.013863214
0.92440494
0.77488136
0.65111849
0.54850848
0.46328868
0.39238753
0.33328738
0.28392666
0.24261973
0.20797739
0.17886295
0.15434149
0.13364082
0.11612476
0.10127478
0.088654551
0.077902924
0.068723492
0.060868403
0.054135364
0.048347462
0.043363832
0.039065578
0.03535144
0.032135427
0.029350707
0.026934516
0.024835429
0.023013627
0.02143404
0.020063032
0.018878741
0.017856883
0.016982307
0.016235764
0.015608418
0.015087724
0.014668043
0.014339331
0.014096452
0.013937838
0.013859518
0.9226057
0.77341807
0.64992685
0.54753671
0.46249678
0.39174118
0.33275892
0.28349312
0.24226293
0.20768587
0.17862036
0.15414134
0.1334731
0.11598831
0.10115968
0.088558825
0.077820785
0.068654941
0.060811838
0.054084339
0.048305391
0.043328239
0.03903499
0.035324267
0.032113671
0.029330141
0.026915518
0.02481881
0.022999507
0.021422175
0.020052889
0.018867661
0.017848309
0.0169732
0.016228907
0.015601156
0.015080994
0.01466078
0.014332601
0.014090249
0.013932169
0.013854382
1.1004749
0.92047997
0.77168656
0.6485102
0.54638012
0.46155218
0.39096587
0.33212365
0.28297574
0.24183627
0.20733105
0.17832843
0.15389727
0.13327295
0.11581993
0.10101766
0.088439372
0.077721898
0.068570952
0.060738929
0.054022896
0.048253429
0.043283661
0.038995304
0.035289458
0.032083213
0.029304567
0.026892855
0.024798898
0.022980662
0.021404367
0.020037458
0.018855264
0.01783579
0.01696174
0.016217172
0.015591265
0.015072697
0.014651423
0.014324303
0.014081425
0.013923063
0.01384462
1.0974863
0.91800484
0.7696587
0.64685258
0.54502651
0.4604433
0.39005927
0.33138002
0.28236182
0.24133154
0.20691227
0.17798181
0.15360969
0.13303126
0.11561846
0.10085075
0.088297758
0.077599663
0.068466905
0.060651098
0.053949988
0.048189099
0.043227629
0.038949286
0.035248453
0.032046681
0.029272387
0.026863305
0.024773325
0.022959562
0.021384455
0.020018735
0.018838392
0.017820229
0.016947376
0.016204118
0.015579401
0.015060299
0.014641402
0.014312035
0.014072189
0.013913575
0.013833945
1.3108393
1.0940115
0.91514418
0.76732041
0.64493859
0.5434593
0.45916144
0.38900868
0.33051611
0.28164824
0.24074135
0.20642601
0.17757806
0.15327309
0.13275081
0.1153835
0.10065298
0.088130037
0.077459238
0.068346918
0.060550109
0.053861776
0.048114346
0.043162363
0.038892066
0.035198746
0.032003704
0.029233227
0.026830218
0.024744056
0.02293161
0.021357944
0.019996446
0.018817825
0.017802041
0.016928782
0.016187369
0.015563841
0.015045401
0.014626505
0.014298448
0.014057696
0.013899334
0.013820762
1.3059447
1.0900214
0.91187846
0.76464514
0.64275275
0.54167114
0.45769471
0.38780301
0.32952406
0.28083154
0.24006546
0.20586709
0.1771129
0.15288346
0.13242686
0.11510898
0.10042237
0.087934237
0.077293362
0.068206897
0.06043
0.053758538
0.048023757
0.043084698
0.038823888
0.035140209
0.031952551
0.029187338
0.026789213
0.024706336
0.022898646
0.021329864
0.019969151
0.018792907
0.017778691
0.016907682
0.016167335
0.015544592
0.015026808
0.014608445
0.014281043
0.014040542
0.013883651
0.013805331
1.5612212
1.3003803
1.0854907
0.90817418
0.76161544
0.64027737
0.53963982
0.4560297
0.38643438
0.32839671
0.27990147
0.23929759
0.20522748
0.17658099
0.15244071
0.13205357
0.11479808
0.10015892
0.087711019
0.077103101
0.068046439
0.060291548
0.053638024
0.047921303
0.042995427
0.038746757
0.035072306
0.031891513
0.029134873
0.026742006
0.024664547
0.022860553
0.021294933
0.019937504
0.01876389
0.0177518
0.016883298
0.016142669
0.015521647
0.015004648
0.014587345
0.01426101
0.014021165
0.01386268
0.013784893
1.5534891
1.294112
1.0803864
0.90401006
0.75821261
0.63748921
0.53735746
0.45415527
0.38489408
0.32712618
0.27885218
0.23842736
0.20450519
0.17597923
0.15193729
0.13163126
0.11444128
0.099859356
0.087457991
0.076889112
0.067860125
0.060132935
0.053502202
0.04780329
0.042894971
0.038655917
0.034993177
0.031822146
0.029074079
0.026686631
0.024614963
0.022816508
0.021254988
0.019900067
0.018729743
0.017720154
0.016853624
0.016116311
0.015496196
0.014980919
0.014563211
0.014238066
0.013999158
0.013840924
0.013761415
1.858044
1.5448451
1.2870948
1.0746777
0.89935329
0.75440866
0.63437487
0.53480613
0.45205934
0.38316866
0.32570534
0.27767526
0.23745271
0.20369391
0.17530283
0.15137362
0.1311583
0.11404336
0.099520876
0.087171884
0.076644511
0.067652865
0.059955193
0.053348877
0.047670127
0.042778275
0.038554523
0.03490537
0.031744481
0.02900434
0.02662493
0.024558931
0.022766268
0.021209754
0.019858933
0.018690454
0.01768456
0.016818282
0.016084382
0.015465083
0.014950995
0.01453632
0.014211303
0.013972396
0.013814818
0.013736902
1.8461758
1.5352387
1.2793008
1.0683362
0.89417835
0.750182
0.63091851
0.53197077
0.44973058
0.3812526
0.32412234
0.27636598
0.2363665
0.20279085
0.17454771
0.15074114
0.13062746
0.11359716
0.099144447
0.086850403
0.076373051
0.067418688
0.059752793
0.053174954
0.047519277
0.042646553
0.038439801
0.034804387
0.031653236
0.028924297
0.026554124
0.024496042
0.022708919
0.021155696
0.019809882
0.01864522
0.017641833
0.016779906
0.016046944
0.015430929
0.014919218
0.014503484
0.014179779
0.013941534
0.013785953
0.013706573
2.2082203
1.8330612
1.5246195
1.2706827
1.061325
0.88846573
0.74551127
0.62709266
0.52883401
0.44715391
0.37912925
0.32237081
0.27491508
0.23516321
0.20178812
0.17371229
0.15004111
0.13003915
0.11310154
0.098722647
0.086494015
0.076067
0.067157621
0.059529697
0.052982849
0.0473529
0.042500458
0.038313238
0.034691914
0.031554753
0.028835301
0.026474615
0.02442564
0.022643652
0.021097815
0.01975648
0.018594858
0.017596349
0.016737333
0.016008721
0.015392302
0.014881376
0.01446802
0.014146159
0.013908036
0.01375074
0.013674264
2.1903963
1.8186487
1.5129451
1.2612054
1.0536167
0.88218138
0.74037376
0.62289078
0.52538554
0.44431804
0.3767936
0.32044129
0.27331862
0.23383521
0.20068253
0.17278747
0.14926768
0.12938739
0.11255092
0.098258547
0.086100441
0.075729335
0.066869259
0.059280243
0.05276661
0.047166052
0.042337623
0.03816978
0.03456692
0.031443597
0.02873601
0.026386403
0.024344942
0.022570468
0.021030169
0.019695692
0.018540543
0.017543731
0.01668947
0.015961111
0.015347602
0.014840898
0.014428075
0.014105154
0.013868349
0.013713424
0.013637359
2.1708461
1.8028683
1.5001691
1.2508336
1.0451771
0.87529897
0.73475529
0.61828786
0.52160877
0.44121134
0.37423145
0.31832427
0.27156471
0.23237611
0.19946897
0.17177128
0.14841486
0.12867184
0.11194571
0.097746021
0.085662951
0.075357112
0.066550842
0.059004934
0.052529799
0.046959171
0.04215672
0.038012477
0.034425436
0.031319388
0.028626043
0.026286327
0.024255541
0.022490829
0.020958578
0.019628323
0.018477249
0.017486382
0.01663475
0.01590943
0.01529974
0.014793692
0.014382842
0.014062832
0.013827086
0.013671102
0.013594099
2.1495527
1.7856885
1.48625
1.2395297
1.0359765
0.86779682
0.72862415
0.61326347
0.51748628
0.43781877
0.37143646
0.31601104
0.26964865
0.2307836
0.1981395
0.17066215
0.14748372
0.12788626
0.11128237
0.097182349
0.085183421
0.074947855
0.066200778
0.058702603
0.052267291
0.046730284
0.041958291
0.037836183
0.034272362
0.031183719
0.028505401
0.026178205
0.024158095
0.022401178
0.020874847
0.019553698
0.01840882
0.017420711
0.016573835
0.015852332
0.015244364
0.014741478
0.014331946
0.014012996
0.013779758
0.013624557
0.013547426
2.5636434
2.126529
1.7670594
1.4711506
1.2272651
1.0259902
0.85965102
0.72196405
0.60780979
0.51300619
0.43413509
0.36839305
0.31349502
0.26756168
0.2290471
0.19669255
0.16945016
0.14646555
0.12702908
0.11055811
0.096569244
0.084660219
0.074502319
0.065814442
0.058372169
0.05198065
0.046481486
0.041740734
0.037645671
0.03410279
0.03103287
0.028370516
0.026059285
0.024049194
0.02230242
0.020785318
0.019471683
0.018331939
0.017351497
0.016506846
0.015789039
0.015184888
0.014683724
0.01427763
0.013960782
0.01372701
0.013572343
0.013495213
2.5329529
2.1016832
1.7469387
1.4548267
1.2140031
1.015195
0.85084039
0.71475753
0.6019044
0.50815509
0.43013944
0.36509647
0.31076834
0.26529672
0.22716347
0.19512022
0.16813455
0.14536077
0.12609835
0.10977055
0.095900078
0.084089817
0.074014741
0.065395417
0.058011559
0.051667621
0.046209338
0.041502207
0.03743588
0.033918983
0.030868594
0.028223766
0.025927433
0.023929207
0.022194297
0.020686964
0.019379654
0.018247424
0.017272643
0.016434599
0.01572167
0.015118966
0.014620964
0.014217095
0.013900651
0.013668068
0.01351565
0.013438647
3.6470684
3.0170281
2.499955
2.0749613
1.7252823
1.4372492
1.199709
1.0035503
0.8413346
0.70698298
0.59553067
0.50291978
0.42582708
0.36153806
0.30781828
0.26285219
0.22512714
0.19341853
0.16671067
0.14416143
0.12508848
0.10891536
0.095174103
0.083471051
0.073482966
0.064940926
0.057617985
0.051327045
0.045911739
0.041242862
0.037208052
0.033716073
0.030690602
0.028065153
0.025782382
0.023799862
0.022077472
0.020580031
0.019281018
0.018156455
0.017186938
0.016353901
0.01564639
0.015047374
0.014552535
0.014149854
0.013836445
0.013605712
0.01345289
0.013377199
4.3476626
3.5928123
2.9733243
2.464577
2.046305
1.702052
1.4183843
1.1843656
0.99104913
0.83112636
0.69862882
0.58867856
0.49728836
0.42118721
0.35770194
0.30464433
0.26021329
0.22293023
0.19158342
0.16517104
0.14286915
0.12399832
0.10799292
0.094388927
0.082801884
0.072910058
0.064448189
0.057193952
0.050958388
0.045592012
0.040962012
0.036960822
0.033497984
0.030495457
0.027891108
0.025626678
0.023658249
0.021949446
0.020463739
0.019173429
0.018056508
0.017092403
0.016266878
0.015563185
0.014967866
0.014476188
0.014077074
0.013764982
0.01353569
0.01338459
0.013308769
4.2758382
3.5348972
2.9265919
2.4267792
2.0156874
1.6772111
1.3982088
1.1679495
0.97766482
0.82019396
0.6896811
0.58133755
0.49124819
0.41620871
0.35358972
0.301237
0.25738243
0.22057192
0.1896113
0.16351932
0.14147917
0.12282393
0.10699889
0.093545213
0.082081191
0.072293792
0.063917223
0.056734174
0.050560057
0.045244045
0.040656366
0.036693431
0.033260523
0.03028501
0.027701631
0.025458296
0.023505959
0.021810209
0.020335179
0.019057138
0.017947852
0.016991138
0.016171153
0.015472596
0.014882032
0.014395895
0.013998753
0.013687851
0.013460403
0.013310491
0.013234678
4.1994222
3.4732753
2.8768309
2.3865189
1.9830671
1.6507452
1.376699
1.1504347
0.96338205
0.80852187
0.68012258
0.57349157
0.4847935
0.41088769
0.34919007
0.29758919
0.25434929
0.21804432
0.18749796
0.16174473
0.13998673
0.12156448
0.10593008
0.092636491
0.081305502
0.071628199
0.063345381
0.056239463
0.050130081
0.044869321
0.040329248
0.036403879
0.033004462
0.030057967
0.027498317
0.02527436
0.023340616
0.021659642
0.02019832
0.01892911
0.01783156
0.016883549
0.016069356
0.015373709
0.014790003
0.01430571
0.013913576
0.013605964
0.013378517
0.013228605
0.013155169
4.1184425
3.407933
2.8240344
2.3437932
1.9484356
1.6226321
1.3538434
1.1318228
0.94819056
0.796099
0.6699449
0.56513741
0.47791873
0.40521383
0.34449587
0.2936961
0.25111205
0.21534294
0.18523842
0.15984961
0.13839225
0.12021522
0.10478614
0.091664217
0.080474438
0.070916459
0.062731211
0.055706248
0.049668733
0.044468888
0.039976151
0.036094949
0.032730875
0.029812711
0.027280761
0.025077774
0.023163409
0.021496929
0.020049849
0.018792252
0.017705127
0.016765284
0.015957292
0.015270067
0.014690583
0.014209985
0.013820891
0.013515246
0.013289521
0.013142238
0.013069457
4.0329313
3.3388894
2.7682126
2.2985961
1.9117889
1.5928705
1.3296354
1.1120958
0.93208665
0.78292937
0.65914672
0.55626456
0.47061466
0.39918317
0.33950791
0.28955621
0.24766784
0.21247013
0.18283225
0.15782872
0.13668898
0.11877631
0.10356692
0.09062561
0.079586937
0.070153168
0.06207432
0.055138629
0.049175867
0.044035345
0.039599044
0.035760568
0.032436309
0.029550988
0.027045267
0.024866139
0.02297196
0.021323135
0.019890176
0.018645625
0.017566926
0.016637257
0.015837434
0.015156808
0.014583526
0.01410728
0.013720282
0.01341927
0.013196173
0.013048891
0.012976773
3.9429583
3.2661919
2.7094034
2.2509518
1.8731364
1.561463
1.3040729
1.0912563
0.91506824
0.7689997
0.64772174
0.54687534
0.4628773
0.39279572
0.33421695
0.28516395
0.24401102
0.20941564
0.18027814
0.15568164
0.13487958
0.11724578
0.10226684
0.089518046
0.078640892
0.069341885
0.061374573
0.054534227
0.048649786
0.043576909
0.039195578
0.035406283
0.032119995
0.029270009
0.026793564
0.024640162
0.022765079
0.021136319
0.019718637
0.018489114
0.017422303
0.016501839
0.015708745
0.01503551
0.014468546
0.013996781
0.013613882
0.013314438
0.013093591
0.012947755
0.012877352
3.8486125
3.1899104
2.6476557
2.2008973
1.8325066
1.528434
1.2771766
1.0693169
0.89713816
0.75431794
0.63567388
0.53696717
0.45470983
0.38604516
0.32862535
0.2805217
0.24014327
0.20618473
0.17756936
0.15340519
0.13295967
0.11562282
0.10088991
0.088343648
0.077635783
0.068479174
0.060630807
0.053889727
0.048089275
0.04308642
0.038766539
0.035026951
0.031784174
0.028970315
0.026526173
0.024398473
0.022547523
0.020936951
0.019536417
0.01831942
0.017264603
0.016355089
0.015573076
0.014904572
0.014344215
0.013876922
0.013498375
0.013202498
0.012984942
0.012841759
0.012769764
3.7500342
3.1101479
2.5830407
2.1484907
1.7899416
1.4938065
1.2489645
1.0462894
0.87830863
0.73889124
0.62300735
0.52654451
0.44611439
0.37894017
0.32273631
0.27562628
0.23606349
0.20277582
0.17471067
0.15100378
0.13093204
0.1139061
0.099432284
0.087101199
0.076572136
0.067565058
0.059840754
0.053206479
0.047493453
0.042567852
0.038307827
0.034622951
0.031426848
0.028651616
0.026239121
0.024141223
0.022314407
0.020724402
0.019341682
0.018141023
0.017097942
0.016198578
0.015425923
0.014767181
0.014212615
0.013750084
0.013377732
0.013084485
0.012868651
0.012725193
0.012655979
3.647393
3.0270343
2.5156702
2.0938122
1.7454976
1.4576312
1.2194705
1.0222005
0.85859804
0.72272929
0.60973724
0.51561661
0.43709598
0.3714789
0.31654901
0.27048169
0.23177409
0.1991909
0.17170485
0.14847142
0.12879326
0.11209603
0.097891581
0.085786755
0.075446641
0.066597111
0.059005589
0.052484063
0.046864636
0.042017233
0.037825508
0.034195077
0.031048179
0.028313295
0.025937453
0.023868291
0.022067459
0.020499332
0.019134924
0.017949574
0.01692152
0.016033236
0.015270471
0.014620309
0.014071001
0.013616389
0.013247198
0.012957647
0.012743253
0.01260561
0.012534803
3.5409081
2.9407442
2.445668
2.0369525
1.6992531
1.4199663
1.1887392
0.99708956
0.83803382
0.70586276
0.59587137
0.50419319
0.42766325
0.36367168
0.31006978
0.26509024
0.2272766
0.19542399
0.16854356
0.14581222
0.12654849
0.11019261
0.096273368
0.084405476
0.074263007
0.065578948
0.058129444
0.051720619
0.046200636
0.041435095
0.037314453
0.033744153
0.030648127
0.027957563
0.025615066
0.023580584
0.021805203
0.020260021
0.018916713
0.017747045
0.01673417
0.015859062
0.01510685
0.014464858
0.013923595
0.013474646
0.013109806
0.012824606
0.012613123
0.012474671
0.012405587
3.4308318
2.8514765
2.3731947
1.9780467
1.6513074
1.3808837
1.1568333
0.9709944
0.8166574
0.68831428
0.58143196
0.4922909
0.41782971
0.35552637
0.30330656
0.25945989
0.22257501
0.1914886
0.16523787
0.14302817
0.1241965
0.10819782
0.094575363
0.082955363
0.07302043
0.064510036
0.057202784
0.050918443
0.045502078
0.040823561
0.036775569
0.033268692
0.030225938
0.027580333
0.025278056
0.023275098
0.021528575
0.020008716
0.01868413
0.017532651
0.016535459
0.015672748
0.014932927
0.01430017
0.013765766
0.013322889
0.012963187
0.012681552
0.012474672
0.012337813
0.012270573
3.3174732
2.7594703
2.298441
1.9172343
1.6017729
1.3404768
1.1238214
0.9439763
0.7945073
0.67011657
0.56645383
0.47993477
0.40761089
0.34705802
0.29627039
0.25359802
0.21767802
0.1873859
0.16179021
0.14012162
0.12173771
0.10611126
0.092800767
0.081437605
0.071720915
0.063389144
0.056234457
0.050078676
0.044769117
0.040182498
0.036210707
0.032771095
0.029782002
0.027184098
0.024923108
0.022954555
0.021237301
0.019742771
0.018441784
0.01730877
0.016327794
0.015476947
0.014748869
0.014125469
0.013600172
0.013163338
0.012810768
0.012531236
0.012328456
0.012193693
0.012124737
3.2011763
2.6649984
2.2216187
1.854691
1.5507872
1.2988492
1.0897848
0.91609905
0.77163173
0.65130944
0.55096276
0.46714641
0.39703215
0.33828247
0.28897396
0.24751408
0.21259222
0.18312377
0.15820726
0.13709718
0.11917966
0.10394005
0.090949566
0.079856174
0.070361367
0.062220285
0.055222893
0.049198156
0.044000941
0.039507799
0.035621081
0.032247771
0.029317087
0.026770362
0.024550885
0.022617141
0.020932067
0.019464954
0.018184535
0.01707262
0.016107076
0.015272444
0.014555568
0.013943378
0.013425594
0.012996022
0.012649121
0.012374596
0.01217366
0.012041937
0.011974293
3.0823361
2.5683782
2.1429778
1.790609
1.4984993
1.2561294
1.0548231
0.88744255
0.7480969
0.63194851
0.53499915
0.4539575
0.38611083
0.3292171
0.28143149
0.24122235
0.20732948
0.17870779
0.15449181
0.1339628
0.11652507
0.10168379
0.08902637
0.078210664
0.068948562
0.061001315
0.054169388
0.048282576
0.043201119
0.038808862
0.035003351
0.031702036
0.028831079
0.026336034
0.024162195
0.0222647
0.020613651
0.019172773
0.017917143
0.016825011
0.015877784
0.01505805
0.014352383
0.013750739
0.013244036
0.012820788
0.012479427
0.012209253
0.012012668
0.01188173
0.011815807
2.961383
2.4699431
2.0627889
1.7252071
1.4450923
1.2124506
1.0190495
0.85808987
0.72397715
0.61208603
0.51861256
0.4404081
0.37488017
0.31988936
0.27366433
0.2347368
0.20189927
0.17414938
0.15065609
0.13072253
0.11378032
0.099349208
0.087035932
0.076506869
0.067484489
0.059738826
0.053075411
0.047330335
0.042372181
0.038080251
0.034362013
0.031133228
0.02832622
0.025884584
0.023755817
0.021899077
0.020280992
0.018868066
0.017637611
0.01656645
0.015636499
0.01483298
0.014141557
0.013551121
0.013051931
0.012638041
0.012300498
0.01203693
0.011842974
0.011714414
0.011650336
2.8387923
2.370084
1.9813562
1.6587291
1.3907497
1.167973
0.98258291
0.82814543
0.69934347
0.59178369
0.50184834
0.42653327
0.36337423
0.31032452
0.2656907
0.22807483
0.19632073
0.16946124
0.14670249
0.12738219
0.11094773
0.096941064
0.084979824
0.074746385
0.065970298
0.058431774
0.051942931
0.046347385
0.041510658
0.037324999
0.033695758
0.030543449
0.027802241
0.025413596
0.023334163
0.021518151
0.019934342
0.018551218
0.017346085
0.016299058
0.015387418
0.014598675
0.013920434
0.013341079
0.012852435
0.012446591
0.012117095
0.011857468
0.011667741
0.011540902
0.011477608
2.7150714
2.2691954
1.8990103
1.5914354
1.3356906
1.1228534
0.94556091
0.79771655
0.6742897
0.57111823
0.48476583
0.41238686
0.35163014
0.3005519
0.25753907
0.2212594
0.19060335
0.16465694
0.142652
0.12395481
0.1080384
0.094465274
0.082865178
0.072932096
0.064409684
0.05708477
0.050774985
0.045330411
0.040622495
0.036544837
0.033007625
0.029933758
0.027257946
0.02492931
0.022895613
0.021123388
0.019575172
0.018223039
0.017045729
0.016019398
0.015128073
0.014357673
0.013691797
0.013125367
0.01264621
0.01224788
0.011924456
0.011669714
0.011483804
0.011361439
0.011300272
2.5907572
2.167722
1.8160892
1.5236053
1.2801315
1.0772908
0.90813412
0.76692275
0.64890919
0.55016322
0.46742857
0.39801075
0.33968671
0.29060604
0.24923631
0.21431025
0.18477285
0.15974953
0.13850932
0.12045059
0.10506461
0.091930946
0.080697663
0.071073632
0.062811253
0.055701768
0.049575135
0.044283764
0.039707166
0.035740534
0.032298392
0.029305222
0.026698244
0.024426553
0.022445474
0.020716105
0.01920442
0.017884308
0.016733637
0.01573169
0.014860276
0.014106092
0.013455396
0.012901081
0.012432349
0.012041937
0.01172509
0.011478668
0.011294328
0.011174219
0.01111383
2.4664153
2.0661058
1.7329679
1.4555316
1.2243187
1.0314608
0.87044756
0.73589003
0.62330849
0.52900173
0.44990225
0.38346929
0.32759266
0.28052408
0.24081254
0.2072551
0.17884899
0.1547592
0.13429349
0.11688029
0.10202753
0.089342934
0.078484786
0.069174036
0.061173233
0.054285809
0.048346525
0.043213388
0.03877089
0.034916579
0.031570314
0.028658345
0.026123896
0.023912054
0.021982281
0.02029483
0.018822832
0.017535029
0.016413094
0.01543384
0.014583649
0.013845809
0.013211734
0.012670221
0.012210038
0.011829921
0.011520991
0.011278112
0.011099183
0.010980262
0.01092251
2.3426184
1.9648227
1.6500253
1.3875309
1.1684977
0.98558017
0.8326785
0.70474994
0.5975894
0.50772474
0.43226279
0.36881708
0.31539555
0.27034878
0.23230255
0.20011926
0.1728488
0.14970213
0.1300179
0.11325343
0.098945621
0.086711572
0.076232877
0.067239104
0.059505839
0.052843209
0.047092617
0.042119282
0.037811798
0.034074435
0.030825333
0.027998696
0.025534772
0.023385721
0.021505631
0.019864069
0.018430576
0.017176797
0.016082286
0.015128073
0.014298326
0.013579073
0.012961213
0.012431816
0.011984183
0.011612364
0.011310415
0.011073359
0.010898124
0.010782084
0.010724735
2.2199568
1.8643495
1.5676461
1.3199123
1.1129312
0.93984986
0.7949962
0.67364335
0.57187057
0.48642294
0.41458746
0.35411899
0.30314755
0.26011888
0.22373823
0.1929312
0.16679942
0.14459933
0.12570199
0.10958938
0.095827176
0.084049088
0.07395157
0.065276747
0.057813252
0.051377284
0.045816929
0.041007368
0.036836614
0.033217538
0.030067858
0.027325057
0.024933128
0.022846182
0.021020683
0.019425138
0.018031461
0.016810113
0.015745932
0.014816514
0.014007456
0.013306925
0.012703841
0.012188153
0.01175279
0.011389269
0.011094581
0.010862249
0.010690711
0.01057877
0.010523144
2.099024
1.7651715
1.4862307
1.2530089
1.0578761
0.89449375
0.75757496
0.64271795
0.54627331
0.46519447
0.39695383
0.33943749
0.29089979
0.2498779
0.21515674
0.18572377
0.16073132
0.13947132
0.12135997
0.1059024
0.092686069
0.081364041
0.07164917
0.063296986
0.056102072
0.04989474
0.044527427
0.039881082
0.03585063
0.032346787
0.029299278
0.026641679
0.024322781
0.022298725
0.020527817
0.018978817
0.017622585
0.016437357
0.015401789
0.014498348
0.013712113
0.013029642
0.012441051
0.011939483
0.011515451
0.011161288
0.010873863
0.010648389
0.010481606
0.010371761
0.010315325
1.980395
1.6677755
1.4061761
1.1871329
1.0036033
0.84972437
0.72059041
0.61211715
0.52091309
0.44414374
0.37944172
0.324847
0.27871558
0.23968099
0.20660243
0.17852808
0.15466348
0.1343457
0.1170128
0.10220592
0.089535451
0.078668317
0.069335156
0.061304704
0.054381282
0.048401245
0.043228818
0.038744784
0.034851846
0.03146892
0.028520427
0.025949568
0.023704922
0.021743098
0.020027438
0.0185263
0.017209883
0.01605868
0.015054103
0.014176365
0.013410034
0.012748008
0.012176822
0.011687118
0.011274821
0.010930427
0.010650766
0.010429644
0.010267212
0.010161467
0.010106875
1.8646453
1.5726412
1.3278733
1.1226084
0.9503772
0.80575455
0.68422003
0.58199128
0.49591735
0.42336672
0.36214246
0.31041154
0.26664744
0.22957004
0.19810904
0.17138009
0.14863044
0.12923945
0.11268105
0.098520521
0.08638721
0.075974971
0.067021419
0.059310572
0.052655455
0.046905518
0.041924671
0.037603729
0.033852147
0.030584049
0.027739474
0.025253922
0.0230839
0.021185088
0.019524026
0.018068244
0.016793897
0.015677098
0.014701914
0.013849497
0.013105584
0.012463996
0.011907181
0.01143278
0.011030099
0.010695595
0.010423724
0.010210114
0.01005044
0.0099458844
0.0098943264
2.0768895
1.7524818
1.4802396
1.2516973
1.0597523
0.89845301
0.7628042
0.64864812
0.55248434
0.47140312
0.40296496
0.34513563
0.29620472
0.25475435
0.21959332
0.18972245
0.16431189
0.14265792
0.12418
0.10838583
0.09486163
0.083260597
0.073296272
0.064718485
0.057322238
0.050937165
0.04541111
0.040620902
0.036463606
0.03284901
0.029701426
0.026954427
0.024556302
0.022459716
0.02062473
0.019017977
0.017608464
0.016373279
0.015293011
0.014346844
0.013521319
0.012800221
0.012175099
0.011636627
0.011173686
0.010783929
0.010458913
0.010193494
0.0099858285
0.0098327548
0.0097321455
0.0096794054
2.3044382
1.9456991
1.6442918
1.3909767
1.1779971
0.99884872
0.84806751
0.72107667
0.61403665
0.52373925
0.44749041
0.3830405
0.32850195
0.28229458
0.24309728
0.20980248
0.1814834
0.15735799
0.13677757
0.11919509
0.10414455
0.091246754
0.080169204
0.07064406
0.062437841
0.055354211
0.049230207
0.043928031
0.039326394
0.035330089
0.031851415
0.028820808
0.026173854
0.023860778
0.021837101
0.02006566
0.018511525
0.017149623
0.01595676
0.014909861
0.01399268
0.013191822
0.012492076
0.011887674
0.011365539
0.010916185
0.010537637
0.010221978
0.0099644774
0.0097627328
0.0096133546
0.0095145893
0.0094656676
2.5469659
2.1521325
1.8200015
1.5405067
1.3052301
1.107106
0.94017817
0.79946364
0.68076073
0.58055541
0.49589363
0.42429629
0.36368908
0.31232604
0.26874994
0.23173215
0.20024716
0.17343225
0.15055799
0.13101997
0.1143064
0.099984877
0.087694926
0.077129208
0.06803417
0.060188561
0.053410982
0.047545918
0.042461427
0.038047819
0.034207879
0.030864365
0.027947672
0.025399887
0.023170923
0.021219646
0.019509654
0.018009706
0.016692884
0.015539051
0.014527084
0.013639988
0.012863644
0.012187497
0.011600751
0.011094581
0.010660124
0.010291596
0.0099850441
0.0097358417
0.0095412295
0.0093952645
0.0092995403
0.0092522108
2.3715302
2.0072652
1.7003068
1.4415444
1.2233556
1.0393131
0.88399408
0.75284883
0.64204549
0.54835579
0.46907487
0.40192914
0.3450006
0.2966881
0.25563803
0.22071641
0.1909732
0.16560893
0.14394231
0.12541284
0.10953994
0.095924211
0.084226417
0.074158984
0.065479405
0.057986108
0.051505189
0.045891958
0.04102161
0.036788751
0.033103601
0.02989222
0.027087468
0.024634623
0.022489519
0.020609299
0.018960879
0.017513273
0.016243149
0.015126228
0.014147881
0.01328952
0.012540343
0.01188583
0.011316739
0.010825345
0.010404192
0.010047933
0.0097515234
0.0095099876
0.0093199782
0.0091782418
0.0090851459
0.0090379396
2.2060095
1.8703938
1.5870513
1.347778
1.1456702
0.97488906
0.83052828
0.70842624
0.60509549
0.51758357
0.44341513
0.38049312
0.32707002
0.2816617
0.24302372
0.210106
0.18203123
0.1580526
0.13754615
0.11998699
0.104923
0.091984729
0.080857465
0.071268649
0.062994252
0.055842475
0.049649233
0.044279009
0.039616197
0.035559761
0.032025864
0.028939324
0.026244789
0.023888074
0.021822075
0.020011878
0.018421873
0.017025291
0.015797741
0.014722229
0.013776847
0.01294697
0.012221522
0.011587447
0.011038017
0.010561115
0.010154082
0.0098086218
0.0095185365
0.0092851692
0.0091017665
0.0089641722
0.0088755081
0.0088298206
2.0509552
1.7419708
1.4806312
1.2595348
1.0724484
0.91408276
0.77998694
0.66637329
0.57006764
0.48836963
0.4190164
0.36008742
0.30997643
0.26731802
0.23096716
0.19995261
0.1734623
0.15080666
0.13140394
0.11476802
0.10047959
0.08819202
0.077608365
0.068479578
0.060592713
0.053766585
0.047851152
0.04271617
0.038253106
0.034365046
0.030976054
0.028014256
0.025427182
0.023157869
0.021170595
0.019425923
0.017895516
0.016548512
0.015366195