/*--------------------------------*- C++ -*----------------------------------*\
| =========                 |                                                 |
| \\      /  F ield         | OpenFOAM: The Open Source CFD Toolbox           |
|  \\    /   O peration     | Version:  2312                                  |
|   \\  /    A nd           | Website:  www.openfoam.com                      |
|    \\/     M anipulation  |                                                 |
\*---------------------------------------------------------------------------*/
FoamFile
{
    version     2.0;
    format      ascii;
    arch        "LSB;label=32;scalar=64";
    class       volScalarField;
    location    "0.08";
    object      T;
}
// * * * * * * * * * * * * * * * * * * * * * * * * * * * * * * * * * * * * * //

dimensions      [0 0 0 1 0 0 0];

internalField   nonuniform List<scalar> 
3224
(
356.83964
355.51096
354.21602
352.95493
351.72779
350.53465
349.37554
348.25047
347.15942
346.10237
345.07928
344.09011
343.13479
342.21327
341.32546
340.4713
339.65072
338.86362
338.10994
337.38958
336.70248
336.04856
335.42774
334.83994
334.28511
333.76318
333.27408
332.81777
332.39419
332.00332
331.6451
331.31952
331.02656
330.7662
330.53844
330.34329
330.18076
330.05087
329.95363
329.88908
329.85739
356.83885
355.51053
354.21584
352.95496
351.72801
350.53504
349.37609
348.25117
347.16027
346.10336
345.08041
344.09137
343.13617
342.21476
341.32707
340.47302
339.65254
338.86554
338.11196
337.3917
336.70468
336.05084
335.4301
334.84238
334.28761
333.76574
333.27671
332.82045
332.39693
332.0061
331.64793
331.32239
331.02947
330.76914
330.54141
330.34629
330.18378
330.0539
329.95666
329.8921
329.86027
356.8352
355.50732
354.21296
352.95238
351.72569
350.53297
349.37426
348.24957
347.15888
346.10218
345.07943
344.09057
343.13556
342.21433
341.32681
340.47292
339.65259
338.86574
338.1123
337.39217
336.70528
336.05156
335.43093
334.84332
334.28865
333.76688
333.27793
332.82176
332.39831
332.00755
331.64944
331.32396
331.03108
330.7708
330.54311
330.34802
330.18554
330.05567
329.95844
329.89388
329.8619
356.82874
355.50137
354.20742
352.9472
351.72086
350.52847
349.37007
348.24568
347.15528
346.09886
345.07637
344.08777
343.13301
342.21201
341.32471
340.47104
339.65091
338.86426
338.11099
337.39104
336.70432
336.05076
335.43028
334.84281
334.28828
333.76662
333.27779
332.82172
332.39837
332.0077
331.64968
331.32427
331.03145
330.77123
330.54359
330.34854
330.18608
330.05624
329.95903
329.89448
329.86236
358.17955
356.81966
355.49271
354.19922
352.93945
351.71353
350.52155
349.36355
348.23953
347.1495
346.09342
345.07126
344.08298
343.12852
342.20782
341.3208
340.46739
339.64752
338.86111
338.10808
337.38835
336.70183
336.04847
335.42817
334.84087
334.2865
333.765
333.27631
332.82037
332.39715
332.00659
331.64866
331.32334
331.03061
330.77045
330.54287
330.34787
330.18545
330.05564
329.95845
329.89391
329.8617
358.16837
356.80851
355.48201
354.18901
352.92973
351.70429
350.51277
349.35521
348.23162
347.14199
346.08631
345.06453
344.07661
343.1225
342.20212
341.31542
340.46232
339.64274
338.8566
338.10383
337.38434
336.69807
336.04492
335.42483
334.83773
334.28354
333.76222
333.27368
332.81789
332.3948
332.00436
331.64655
331.32133
331.02869
330.76861
330.5411
330.34615
330.18378
330.05399
329.95682
329.89231
329.86003
358.1551
356.79567
355.46967
354.17721
352.91846
351.69354
350.50252
349.34544
348.22232
347.13314
346.07789
345.05652
344.069
343.11526
342.19525
341.30889
340.45612
339.63686
338.85102
338.09853
337.37932
336.6933
336.0404
335.42053
334.83365
334.27966
333.75852
333.27016
332.81453
332.39159
332.00128
331.64359
331.31848
331.02594
330.76594
330.5385
330.34361
330.18129
330.05153
329.95438
329.88988
329.85757
358.13889
356.78013
355.45473
354.16288
352.90475
351.68043
350.49
349.33348
348.2109
347.12224
346.06748
345.0466
344.05954
343.10624
342.18666
341.3007
340.44832
339.62942
338.84393
338.09178
337.37288
336.68716
336.03453
335.41494
334.8283
334.27454
333.75362
333.26546
332.81002
332.38725
331.9971
331.63955
331.31457
331.02214
330.76224
330.53488
330.34006
330.17779
330.04807
329.95095
329.88645
329.85412
359.51081
358.11978
356.76168
355.43698
354.14585
352.88842
351.66479
350.47502
349.31915
348.19719
347.10914
346.05496
345.03463
344.0481
343.09531
342.17621
341.29072
340.43878
339.6203
338.83522
338.08345
337.36491
336.67953
336.02723
335.40794
334.82158
334.2681
333.74742
333.2595
332.80427
332.38169
331.99173
331.63434
331.3095
331.0172
330.75742
330.53015
330.33541
330.1732
330.04353
329.94643
329.88194
329.8496
359.48803
358.09746
356.74012
355.41622
354.1259
352.86927
351.64643
350.45742
349.30229
348.18104
347.09367
346.04015
345.02045
344.03453
343.08232
342.16377
341.27882
340.42738
339.60939
338.82476
338.07342
337.3553
336.67031
336.01838
335.39943
334.8134
334.26022
333.73983
333.25217
332.79718
332.37483
331.98507
331.62787
331.3032
331.01104
330.75138
330.52423
330.32957
330.16743
330.03781
329.94075
329.87627
329.84392
360.88487
359.4615
358.07166
356.7152
355.39222
354.10282
352.8471
351.62514
350.437
349.2827
348.16226
347.07566
346.02289
345.0039
344.01867
343.06712
342.1492
341.26484
340.41398
339.59653
338.81242
338.06158
337.34392
336.65937
336.00785
335.3893
334.80364
334.2508
333.73073
333.24337
332.78866
332.36656
331.97703
331.62004
331.29555
331.00356
330.74405
330.51702
330.32246
330.1604
330.03084
329.93381
329.86934
329.83699
360.85334
359.43099
358.04212
356.68669
355.36475
354.07639
352.82169
351.60073
350.41356
349.2602
348.14066
347.05493
346.003
344.98482
344.00035
343.04954
342.13233
341.24865
340.39843
339.58159
338.79807
338.04778
337.33064
336.64659
335.99554
335.37743
334.79218
334.23973
333.72002
333.23299
332.77859
332.35677
331.9675
331.61074
331.28647
330.99467
330.73532
330.50842
330.31398
330.15201
330.02251
329.92552
329.86107
329.82872
362.27184
360.8174
359.39627
358.00857
356.65432
355.33356
354.04636
352.79282
351.57298
350.38689
349.23458
348.11605
347.0313
345.9803
344.96302
343.97941
343.02943
342.11301
341.23008
340.38058
339.56443
338.78155
338.03188
337.31533
336.63183
335.98131
335.36369
334.7789
334.22688
333.70757
333.22092
332.76686
332.34536
331.95638
331.59988
331.27585
330.98425
330.72508
330.49834
330.30403
330.14215
330.01273
329.91579
329.85135
329.81901
362.22975
360.77678
359.35706
357.97073
356.61782
355.29839
354.0125
352.76023
351.54164
350.35676
349.20561
348.08821
347.00454
345.95459
344.93831
343.95566
343.0066
342.09105
341.20897
340.36026
339.54487
338.76273
338.01374
337.29784
336.61496
335.96502
335.34794
334.76367
334.21213
333.69327
333.20703
332.75336
332.33221
331.94355
331.58734
331.26357
330.9722
330.71323
330.48666
330.29249
330.13073
330.00139
329.9045
329.84009
329.80776
363.66677
362.18249
360.73119
359.31308
357.9283
356.57691
355.25897
353.97454
352.72369
351.50648
350.32294
349.17309
348.05694
346.97447
345.92567
344.9105
343.92891
342.98087
342.06629
341.18513
340.33732
339.52277
338.74143
337.9932
337.27803
336.59583
335.94652
335.33005
334.74635
334.19534
333.67698
333.19119
332.73795
332.31719
331.92889
331.573
331.24951
330.9584
330.69966
330.47328
330.27927
330.11763
329.98838
329.89155
329.82717
329.79485
363.61206
362.12972
360.6803
359.26402
357.88099
356.53129
355.21501
353.9322
352.68293
351.46725
350.28518
349.13676
348.02199
346.94085
345.89332
344.87937
343.89896
342.95204
342.03854
341.1584
340.31156
339.49795
338.71749
337.9701
337.25572
336.57427
335.92568
335.30988
334.7268
334.17638
333.65856
333.17328
332.7205
332.30018
331.91227
331.55674
331.23357
330.94274
330.68424
330.45807
330.26423
330.10273
329.97359
329.87683
329.81249
329.78018
365.06415
363.55129
362.07111
360.6238
359.20954
357.82847
356.48067
355.16622
353.8852
352.63767
351.42367
350.24323
349.09638
347.98312
346.90344
345.85732
344.84472
343.86559
342.9199
342.00759
341.12858
340.28282
339.47022
338.69074
337.94427
337.23077
336.55014
335.90233
335.28726
334.70487
334.15509
333.63787
333.15315
332.70089
332.28104
331.89355
331.53842
331.2156
330.92508
330.66685
330.44092
330.24727
330.08593
329.9569
329.86022
329.79591
329.76362
364.99447
363.48406
362.0063
360.56133
359.14932
357.77041
356.4247
355.11229
353.83324
352.58762
351.37547
350.19682
349.0517
347.9401
346.86202
345.81743
344.8063
343.82859
342.88426
341.97323
341.09546
340.25088
339.43941
338.66098
337.91553
337.20299
336.52327
335.87631
335.26204
334.68041
334.13133
333.61477
333.13066
332.67896
332.25962
331.87262
331.51791
331.19547
330.9053
330.64737
330.42168
330.22825
330.06707
329.93818
329.84158
329.77732
329.74505
364.91752
363.40999
361.93492
360.49253
359.08299
357.70647
356.36307
355.05289
353.776
352.53247
351.32235
350.14566
349.00243
347.89265
346.81631
345.77341
344.76389
343.78773
342.84487
341.93527
341.05884
340.21555
339.4053
338.62804
337.8837
337.1722
336.49347
335.84744
335.23406
334.65324
334.10494
333.5891
333.10565
332.65457
332.2358
331.84931
331.49507
331.17305
330.88325
330.62564
330.40024
330.20704
330.04605
329.91729
329.8208
329.75659
329.72434
364.83305
363.3287
361.85659
360.41701
359.01019
357.63629
356.29542
354.98768
353.71317
352.47193
351.26402
350.08947
348.94829
347.8405
346.76607
345.725
344.71724
343.74277
342.80152
341.89346
341.01851
340.17661
339.3677
338.59171
337.84857
337.13821
336.46057
335.81556
335.20313
334.62321
334.07575
333.56069
333.07797
332.62756
332.2094
331.82348
331.46974
331.14819
330.85879
330.60154
330.37644
330.1835
330.02272
329.89412
329.79773
329.73359
329.70136
366.27353
364.74085
363.23981
361.77089
360.33439
358.93054
357.5595
356.22139
354.91633
353.6444
352.40566
351.20016
350.02794
348.889
347.78337
346.71102
345.67194
344.6661
343.69345
342.75396
341.84757
340.97422
340.13385
339.3264
338.55179
337.80996
337.10084
336.42437
335.78047
335.16908
334.59014
334.04359
333.52938
333.04745
332.59777
332.18028
331.79497
331.44179
331.12074
330.83178
330.57492
330.35015
330.15749
329.99693
329.8685
329.77224
329.70816
329.67597
366.16948
364.64035
363.14286
361.67741
360.24426
358.84364
357.47571
356.14062
354.83847
353.56935
352.33333
351.13045
349.96075
348.82426
347.72096
346.65087
345.61395
344.61019
343.63953
342.70195
341.79738
340.92576
340.08705
339.28117
338.50806
337.76766
337.05988
336.38468
335.74198
335.13172
334.55384
334.00828
333.49499
333.01392
332.56503
332.14828
331.76363
331.41106
331.09054
330.80207
330.54563
330.32122
330.12886
329.96855
329.84031
329.74417
329.68018
329.64802
369.20114
367.61285
366.0563
364.53105
363.03741
361.5757
360.14619
358.74907
357.38453
356.05271
354.75372
353.48766
352.25458
351.05455
349.88759
348.75374
347.65298
346.58533
345.55076
344.54924
343.58074
342.64522
341.74262
340.87289
340.03597
339.23179
338.46031
337.72144
337.01512
336.3413
335.6999
335.09086
334.51413
333.96964
333.45735
332.97721
332.52918
332.11321
331.72929
331.37737
331.05744
330.76949
330.5135
330.28949
330.09746
329.93741
329.80938
329.7134
329.64949
329.61737
370.68327
369.06922
367.48575
365.93346
364.41245
362.92298
361.46533
360.03974
358.64642
357.28556
355.95728
354.66172
353.39896
352.16907
350.97212
349.80813
348.67712
347.57912
346.5141
345.48207
344.48298
343.51681
342.58351
341.68304
340.81534
339.98036
339.17803
338.4083
337.67109
336.96635
336.29402
335.65402
335.0463
334.47081
333.92749
333.41628
332.93714
332.49004
332.07493
331.69178
331.34056
331.02127
330.73388
330.47839
330.25481
330.06313
329.90338
329.77558
329.67975
329.61594
329.58387
370.5353
368.92637
367.34795
365.80043
364.28405
362.7991
361.34583
359.92448
358.53527
357.17836
355.85392
354.56206
353.30287
352.07643
350.8828
349.72201
348.59409
347.49905
346.43688
345.40758
344.41111
343.44745
342.51656
341.61838
340.75288
339.91999
339.11965
338.35181
337.6164
336.91336
336.24263
335.60414
334.99785
334.4237
333.88162
333.37158
332.89353
332.44742
332.03323
331.65092
331.30047
330.98187
330.69509
330.44014
330.21701
330.02572
329.86629
329.73873
329.64308
329.57938
329.54735
370.37536
368.77204
367.19903
365.65669
364.14534
362.66526
361.21671
359.79994
358.41515
357.06253
355.74222
354.45435
353.19901
351.97629
350.78623
349.62889
348.50429
347.41244
346.35334
345.32699
344.33334
343.37239
342.44408
341.54838
340.68524
339.8546
339.0564
338.29059
337.55712
336.8559
336.1869
335.55005
334.9453
334.37258
333.83185
333.32307
332.84618
332.40116
331.98796
331.60655
331.25693
330.93906
330.65294
330.39856
330.17594
329.98507
329.82597
329.69868
329.60322
329.53964
329.50767
370.20296
368.60565
367.03846
365.50173
363.9958
362.52097
361.07751
359.66566
358.28564
356.93762
355.62176
354.33818
353.08699
351.86826
350.68206
349.52843
348.4074
347.31898
346.26318
345.23998
344.24938
343.29133
342.36581
341.47276
340.61216
339.78393
338.98804
338.22442
337.49302
336.79377
336.12663
335.49153
334.88843
334.31726
333.77798
333.27055
332.79491
332.35105
331.93891
331.55849
331.20974
330.89267
330.60726
330.35351
330.13142
329.941
329.78228
329.65527
329.56002
329.49657
329.46466
370.01752
368.42667
366.86572
365.33501
363.83491
362.36573
360.92773
359.52118
358.14627
356.8032
355.49211
354.21315
352.9664
351.75197
350.5699
349.42025
348.30305
347.21832
346.16606
345.14626
344.15891
343.20398
342.28144
341.39125
340.53337
339.70774
338.91432
338.15305
337.42387
336.72674
336.06159
335.42837
334.82704
334.25753
333.71981
333.21382
332.73953
332.29691
331.88592
331.50654
331.15875
330.84253
330.55788
330.3048
330.08328
329.89336
329.73503
329.60834
329.51332
329.45
329.41817
369.81848
368.23452
366.68025
365.156
363.66216
362.19903
360.76689
359.36601
357.99659
356.65882
355.35286
354.07883
352.83686
351.62702
350.44939
349.30401
348.19092
347.11013
346.06166
345.0455
344.06164
343.11005
342.19071
341.30358
340.44861
339.62576
338.83498
338.07622
337.34943
336.65456
335.99155
335.36035
334.76091
334.19318
333.65712
333.15269
332.67985
332.23856
331.8288
331.45054
331.10377
330.78847
330.50463
330.25227
330.03137
329.84197
329.68408
329.55772
329.46294
329.39978
329.36802
369.60523
368.02864
366.4815
364.96417
363.47701
362.02036
360.59451
359.19969
357.83614
356.50405
355.20357
353.93483
352.69796
351.49305
350.32015
349.17934
348.07064
346.99407
345.94966
344.93739
343.95726
343.00925
342.09332
341.20946
340.3576
339.53773
338.74978
337.99371
337.26947
336.57702
335.91629
335.28725
334.68984
334.12401
333.58974
333.08697
332.61567
332.17581
331.76736
331.3903
331.04462
330.7303
330.44734
330.19574
329.97552
329.78668
329.62924
329.50325
329.40874
329.34575
329.31406
369.37719
367.80845
366.26893
364.75898
363.27897
361.82925
360.41009
359.02176
357.66448
356.33845
355.04382
353.78074
352.54932
351.34966
350.18183
349.04589
347.94188
346.86982
345.82974
344.82162
343.84548
342.90128
341.989
341.10862
340.2601
339.44339
338.65847
337.90527
337.18376
336.49388
335.8356
335.20885
334.61361
334.04982
333.51745
333.01645
332.5468
332.10846
331.70142
331.32565
330.98113
330.66786
330.38584
330.13506
329.91555
329.72731
329.57038
329.44477
329.35054
329.28773
329.25614
369.1338
367.57341
366.042
364.53991
363.06753
361.62518
360.21317
358.83176
357.48116
356.16159
354.8732
353.61615
352.39054
351.19648
350.03405
348.90331
347.80429
346.73704
345.70157
344.69789
343.72599
342.78585
341.87747
341.0008
340.15583
339.34251
338.5608
337.81066
337.09205
336.40493
335.74925
335.12496
334.53202
333.9704
333.44006
332.94095
332.47306
332.03635
331.63081
331.2564
330.91313
330.60098
330.31996
330.07007
329.85131
329.66372
329.50731
329.38213
329.2882
329.22559
329.19409
368.87449
367.32298
365.8002
364.30648
362.8422
361.40771
360.0033
358.62924
357.28576
355.97307
354.69132
353.44068
352.22126
351.03316
349.87647
348.75126
347.65757
346.59543
345.56487
344.5659
343.59851
342.6627
341.75846
340.88575
340.04455
339.23483
338.45654
337.70966
336.99415
336.30995
335.65703
335.03536
334.44488
333.88557
333.35738
332.86029
332.39427
331.9593
331.55535
331.1824
330.84046
330.5295
330.24955
330.00059
329.78265
329.59575
329.43991
329.31517
329.22157
329.15917
329.12777
368.59873
367.05665
365.54302
364.05818
362.60252
361.17637
359.78004
358.41379
357.07787
355.77248
354.49779
353.25396
352.04111
350.85935
349.70877
348.58943
347.50138
346.44468
345.41934
344.42537
343.46278
342.53157
341.63172
340.76321
339.92602
339.12012
338.34548
337.60206
336.88982
336.20874
335.55876
334.93986
334.35199
333.79513
333.26925
332.7743
332.31027
331.87714
331.47488
331.10349
330.76295
330.45327
330.17445
329.92649
329.70942
329.52325
329.36801
329.24375
329.1505
329.08832
329.05704
368.30603
366.77394
365.27001
363.79458
362.34805
360.93074
359.54297
358.18502
356.85711
355.55947
354.29226
353.05565
351.84977
350.67473
349.53061
348.4175
347.33545
346.28451
345.2647
344.27604
343.31854
342.3922
341.49701
340.63295
339.80002
338.99817
338.22739
337.48764
336.77888
336.1011
335.45424
334.83828
334.25319
333.69893
333.17548
332.68281
332.22089
331.78971
331.38925
331.01951
330.68047
330.37214
330.09452
329.84763
329.63148
329.44609
329.2915
329.16774
329.07487
329.01293
328.98177
367.99593
366.4744
364.98074
363.51527
362.07839
360.67045
359.29174
357.94256
356.62314
355.33369
354.07441
352.84544
351.64694
350.479
349.34174
348.23522
347.15952
346.11467
345.10071
344.11766
343.16555
342.24437
341.35411
340.49477
339.66634
338.86878
338.10209
337.36622
336.66115
335.98686
335.34331
334.73047
334.14831
333.59681
333.07594
332.58567
332.12599
331.69688
331.29833
330.93034
330.59289
330.28599
330.00965
329.76388
329.5487
329.36414
329.21024
329.08702
328.99455
328.93287
328.90184
367.66802
366.15765
364.67483
363.21989
361.79321
360.39515
359.02602
357.6861
356.37564
355.09486
353.84394
352.62305
351.43234
350.27192
349.14189
348.04234
346.97333
345.93492
344.92715
343.95004
343.00362
342.08789
341.20284
340.34849
339.52481
338.73179
337.96941
337.23765
336.53648
335.86588
335.22582
334.61627
334.03721
333.48863
332.97048
332.48276
332.02545
331.59853
331.202
330.83585
330.50008
330.1947
329.91971
329.67514
329.46099
329.27732
329.12413
329.00149
328.90945
328.84804
328.81714
367.32199
365.82338
364.35199
362.90813
361.4922
360.10457
358.74553
357.41538
356.11437
354.84272
353.60063
352.38826
351.20576
350.05326
348.93086
347.83866
346.77672
345.7451
344.74385
343.773
342.83258
341.92259
341.04305
340.19395
339.37528
338.58705
337.82922
337.10179
336.40473
335.73802
335.10164
334.49557
333.91979
333.37428
332.85901
332.37398
331.91916
331.49456
331.10016
330.73596
330.40197
330.09818
329.82463
329.58131
329.36826
329.18551
329.0331
328.91107
328.81947
328.75836
328.72761
366.95758
365.47134
364.01197
362.57977
361.17516
359.79849
358.45008
357.13021
355.83914
354.5771
353.34429
352.14088
350.96703
349.82287
348.7085
347.62403
346.56952
345.54505
344.55067
343.58641
342.6523
341.74836
340.8746
340.03103
339.21765
338.43445
337.68141
336.95854
336.26581
335.6032
334.9707
334.36829
333.79595
333.25368
332.74144
332.25924
331.80706
331.38489
330.99273
330.63059
330.29847
329.99637
329.72432
329.48234
329.27045
329.08868
328.93708
328.81569
328.72457
328.66377
328.63317
366.57463
365.10138
363.65463
362.23469
360.84195
359.4768
358.13953
356.83046
355.54983
354.29789
353.07483
351.88083
350.71606
349.58065
348.47472
347.39836
346.35167
345.3347
344.34753
343.39018
342.4627
341.56512
340.69744
339.85968
339.05184
338.27393
337.52593
336.80784
336.11966
335.46136
334.83293
334.23437
333.66566
333.12678
332.61773
332.1385
331.68909
331.26948
330.87969
330.51971
330.18955
329.88924
329.61877
329.37819
329.16751
328.98678
328.83603
328.71532
328.6247
328.56423
328.53379
366.17311
364.71347
363.27994
361.87283
360.49255
359.13945
357.81387
356.51611
355.24642
354.00505
352.7922
351.60807
350.45281
349.32658
348.22948
347.16163
346.12312
345.11402
344.1344
343.18431
342.26378
341.37285
340.51155
339.67987
338.87785
338.10548
337.36276
336.64969
335.96627
335.31249
334.68834
334.09381
333.52889
332.99358
332.48788
332.01177
331.56525
331.14834
330.76102
330.40331
330.07522
329.77677
329.50797
329.26886
329.05946
328.87981
328.72997
328.60997
328.51988
328.45975
328.42949
365.75311
364.30769
362.88798
361.49429
360.12702
358.78654
357.47317
356.18723
354.92898
353.69866
352.4965
351.32268
350.17737
349.06072
347.97286
346.91391
345.88395
344.88308
343.91136
342.96884
342.05558
341.17162
340.31697
339.49167
338.69572
337.92915
337.19195
336.48413
335.80569
335.15663
334.53695
333.94664
333.3857
332.85412
332.35191
331.87907
331.43559
331.02149
330.63676
330.28143
329.95551
329.65901
329.39195
329.15438
328.94632
328.76782
328.61892
328.49967
328.41013
328.35037
328.32029
365.31486
363.88429
362.479
361.09931
359.74561
358.41828
357.11765
355.84403
354.59771
353.37892
352.18789
351.02482
349.88988
348.78324
347.70501
346.65534
345.63431
344.64201
343.67853
342.74392
341.83824
340.96154
340.11384
339.29518
338.50557
337.74505
337.01361
336.31127
335.63803
334.9939
334.37888
333.79297
333.23617
332.7085
332.20994
331.7405
331.3002
330.88903
330.50701
330.15416
329.8305
329.53604
329.27081
329.03485
328.82819
328.65088
328.50296
328.3845
328.29555
328.23617
328.20628
364.85879
363.44367
362.0534
360.68826
359.34868
358.03503
356.74765
355.48686
354.25294
353.04614
351.86669
350.7148
349.59066
348.49441
347.42621
346.38618
345.37444
344.39107
343.43615
342.50977
341.61198
340.74283
339.90236
339.09061
338.3076
337.55337
336.82792
336.13128
335.46345
334.82445
334.21429
333.63296
333.08048
332.55686
332.0621
331.59622
331.15921
330.75111
330.37191
330.02164
329.70033
329.408
329.14467
328.91039
328.7052
328.52913
328.38224
328.26459
328.17625
328.11727
328.08759
364.38552
362.98646
361.61177
360.26174
358.9368
357.63734
356.3637
355.11621
353.89515
352.70079
351.53335
350.39307
349.28011
348.19466
347.13685
346.10683
345.10472
344.1306
343.18458
342.26673
341.37712
340.51581
339.68284
338.87826
338.1021
337.35439
336.63517
335.94444
335.28223
334.64855
334.04342
333.46685
332.91886
332.39944
331.90863
331.44643
331.01285
330.60792
330.23166
329.88408
329.56521
329.27509
329.01374
328.7812
328.57753
328.40275
328.25694
328.14014
328.05243
327.99387
327.96439
363.89587
362.5135
361.15493
359.82053
358.51074
357.22594
355.96651
354.73276
353.52501
352.34351
351.1885
350.06021
348.95883
347.88453
346.83748
345.81781
344.82565
343.86111
342.92429
342.01526
341.13412
340.28091
339.4557
338.65853
337.88946
337.1485
336.43571
335.7511
335.0947
334.46653
333.86661
333.29497
332.75161
332.23655
331.74982
331.29144
330.86141
330.45977
330.08654
329.74174
329.42541
329.13757
328.87827
328.64754
328.44544
328.27201
328.12731
328.01139
327.92434
327.86622
327.83695
363.39092
362.02595
360.68399
359.36567
358.07147
356.80179
355.557
354.33742
353.14338
351.97513
350.83293
349.717
348.62755
347.56476
346.52879
345.5198
344.5379
343.58323
342.65589
341.75596
340.88354
340.03869
339.22148
338.43196
337.67018
336.9362
336.23003
335.55173
334.90133
334.27884
333.6843
333.11773
332.57915
332.06859
331.58607
331.13162
330.70526
330.30701
329.93691
329.59498
329.28126
328.99579
328.7386
328.50974
328.30927
328.13722
327.99367
327.87867
327.7923
327.73462
327.70559
364.24256
362.87293
361.52528
360.20028
358.89845
357.62025
356.36608
355.13632
353.9313
352.75134
351.59671
350.46766
349.36443
348.28723
347.23626
346.21167
345.21364
344.24229
343.29776
342.38016
341.48958
340.62612
339.78985
338.98086
338.19919
337.44492
336.71809
336.01874
335.34692
334.70267
334.08602
333.497
332.93565
332.40199
331.89605
331.41786
330.96745
330.54486
330.1501
329.78322
329.44424
329.13321
328.85017
328.59516
328.36822
328.16942
327.9988
327.85643
327.74237
327.6567
327.59949
327.57069
365.06738
363.6946
362.34299
361.01309
359.70541
358.42043
357.15859
355.92029
354.70591
353.51578
352.35022
351.20951
350.09392
349.00369
347.93903
346.90015
345.88721
344.90039
343.93984
343.00568
342.09804
341.21702
340.36273
339.53526
338.73467
337.96104
337.21445
336.49494
335.80257
335.13738
334.49943
333.88876
333.30539
332.74938
332.22075
331.71954
331.24579
330.79952
330.38078
329.98959
329.62601
329.29006
328.98178
328.70123
328.44845
328.22348
328.02639
327.85724
327.71608
327.60299
327.51804
327.46131
327.43274
365.86426
364.48996
363.13614
361.8031
360.49133
359.20131
357.93349
356.68831
355.46618
354.26745
353.09249
351.94161
350.8151
349.71322
348.63623
347.58434
346.55778
345.55671
344.58132
343.63176
342.70817
341.81068
340.93941
340.09447
339.27594
338.48392
337.71849
336.97971
336.26766
335.5824
334.92397
334.29244
333.68786
333.11025
332.55968
332.03618
331.5398
331.07056
330.62852
330.2137
329.82616
329.46594
329.13307
328.82761
328.54959
328.29908
328.07613
327.88079
327.71313
327.57321
327.46111
327.37689
327.32064
327.29232
365.25838
363.90412
362.56977
361.25568
359.96234
358.69024
357.43984
356.21157
355.00583
353.82299
352.66342
351.52742
350.41529
349.32732
348.26376
347.22483
346.21075
345.22172
344.25792
343.3195
342.40663
341.51944
340.65805
339.82258
339.01313
338.22979
337.47267
336.74182
336.03734
335.35928
334.70772
334.0827
333.48428
332.91253
332.36747
331.84918
331.35768
330.89303
330.45526
330.04444
329.6606
329.30378
328.97404
328.67143
328.39599
328.14779
327.92688
327.73332
327.56717
327.42851
327.31741
327.23395
327.17819
327.15012
364.64705
363.31313
361.99852
360.70361
359.42891
358.17493
356.94211
355.7309
354.5417
353.3749
352.23084
351.10986
350.01225
348.93831
347.88828
346.86242
345.86094
344.88405
343.93193
343.00477
342.1027
341.22589
340.37447
339.54855
338.74826
337.97369
337.22493
336.50209
335.80524
335.13445
334.4898
333.87135
333.27916
332.7133
332.17381
331.66076
331.1742
330.71417
330.28073
329.87392
329.49381
329.14044
328.81386
328.51412
328.24129
327.99542
327.77656
327.5848
327.42018
327.2828
327.17271
327.09
327.03474
327.00692
364.03416
362.72066
361.42589
360.15026
358.8943
357.6585
356.44334
355.24925
354.07665
352.92592
351.79743
350.6915
349.60845
348.54857
347.51213
346.49937
345.51052
344.5458
343.6054
342.68951
341.79828
340.93188
340.09045
339.27411
338.48299
337.7172
336.97685
336.26202
335.57282
334.90931
334.27159
333.65973
333.07378
332.51383
331.97992
331.47213
330.99051
330.53512
330.10601
329.70324
329.32687
328.97695
328.65353
328.35668
328.08646
327.84293
327.62614
327.43618
327.2731
327.13699
327.02792
326.94596
326.89121
326.86365
363.42402
362.13088
360.85591
359.59952
358.36224
357.14458
355.94702
354.76999
353.61393
352.47923
351.36624
350.27531
349.20676
348.16089
347.13797
346.13826
345.16199
344.20938
343.28065
342.37598
341.49554
340.6395
339.80801
339.00121
338.21923
337.46218
336.73018
336.02334
335.34175
334.6855
334.05468
333.44936
332.86963
332.31556
331.78721
331.28466
330.80796
330.35718
329.93239
329.53364
329.16099
328.8145
328.49424
328.20026
327.93264
327.69143
327.47671
327.28854
327.12699
326.99215
326.88409
326.8029
326.74865
326.72133
362.82152
361.54853
360.29317
359.05581
357.83702
356.6373
355.45714
354.29699
353.15728
352.03841
350.94075
349.86465
348.81043
347.77839
346.76883
345.78201
344.81816
343.87753
342.96032
342.06673
341.19695
340.35115
339.52948
338.73209
337.95913
337.21071
336.48697
335.78801
335.11393
334.46484
333.84083
333.24199
332.66839
332.12013
331.59726
331.09988
330.62804
330.18182
329.76129
329.3665
328.99753
328.65443
328.33729
328.04615
327.7811
327.54219
327.3295
327.1431
326.98307
326.84948
326.74243
326.66198
326.60823
326.58116
362.23212
360.97896
359.74282
358.52413
357.32346
356.14132
354.97821
353.83459
352.7109
351.60754
350.52488
349.46329
348.4231
347.40462
346.40813
345.43392
344.48224
343.55332
342.64739
341.76465
340.90529
340.06949
339.25743
338.46926
337.70512
336.96514
336.24947
335.55822
334.89149
334.24941
333.63206
333.03954
332.47195
331.92936
331.41186
330.91953
330.45245
330.01069
329.59431
329.2034
328.83803
328.49826
328.18416
327.8958
327.63325
327.39659
327.1859
327.00123
326.84268
326.71033
326.60425
326.52453
326.47127
326.44445
361.66188
360.4282
359.2107
358.01009
356.82697
355.66186
354.51527
353.38767
352.27949
351.19115
350.12303
349.07549
348.04888
347.04351
346.05969
345.09769
344.15778
343.24019
342.34517
341.47292
340.62365
339.79754
338.99477
338.2155
337.4599
336.72809
336.02022
335.33642
334.67681
334.04149
333.43059
332.84419
332.28239
331.74529
331.23298
330.74554
330.28306
329.8456
329.43325
329.0461
328.6842
328.34763
328.03648
327.75081
327.49069
327.25621
327.04743
326.86445
326.70733
326.57616
326.47103
326.39203
326.33923
326.31265
362.34972
361.11868
359.90305
358.70327
357.51991
356.35356
355.20473
354.07393
352.96163
351.86828
350.79429
349.74006
348.70595
347.69231
346.69947
345.72774
344.7774
343.84872
342.94195
342.05734
341.19511
340.35546
339.5386
338.74469
337.97393
337.22646
336.50244
335.80202
335.12533
334.4725
333.84364
333.23887
332.65831
332.10204
331.57018
331.06282
330.58004
330.12193
329.68858
329.28008
328.89649
328.53791
328.20441
327.89606
327.61295
327.35515
327.12274
326.91581
326.73442
326.57867
326.44864
326.34441
326.26608
326.21373
326.18738
361.82271
360.6092
359.41068
358.22757
357.06044
355.90985
354.77632
353.66036
352.56245
351.48303
350.42253
349.38134
348.35984
347.35839
346.37731
345.41693
344.47753
343.5594
342.66279
341.78795
340.93512
340.1045
339.2963
338.51071
337.74792
337.00808
336.29137
335.59793
334.9279
334.28143
333.65862
333.05961
332.48451
331.93343
331.40648
330.90375
330.42534
329.97134
329.54184
329.13693
328.7567
328.40122
328.07059
327.76487
327.48416
327.22853
326.99807
326.79285
326.61296
326.45849
326.32952
326.22614
326.14845
326.09652
326.07038
361.33904
360.14179
358.95909
357.79135
356.63916
355.50307
354.38363
353.28132
352.19664
351.13003
350.08193
349.05273
348.04282
347.05257
346.0823
345.13234
344.20299
343.29454
342.40726
341.54139
340.69718
339.87484
339.0746
338.29664
337.54116
336.80833
336.09832
335.41128
334.74736
334.10671
333.48945
332.89572
332.32564
331.77931
331.25685
330.75836
330.28395
329.83372
329.40775
329.00614
328.62897
328.27634
327.94834
327.64503
327.36652
327.11288
326.8842
326.68056