/*--------------------------------*- C++ -*----------------------------------*\
| =========                 |                                                 |
| \\      /  F ield         | OpenFOAM: The Open Source CFD Toolbox           |
|  \\    /   O peration     | Version:  2312                                  |
|   \\  /    A nd           | Website:  www.openfoam.com                      |
|    \\/     M anipulation  |                                                 |
\*---------------------------------------------------------------------------*/
FoamFile
{
    version     2.0;
    format      ascii;
    arch        "LSB;label=32;scalar=64";
    class       volScalarField;
    location    "0.06";
    object      CH4;
}
// * * * * * * * * * * * * * * * * * * * * * * * * * * * * * * * * * * * * * //

dimensions      [0 0 0 0 0 0 0];

internalField   nonuniform List<scalar> 
3221
(
0.00010228263
0.00031426579
0.00052970935
0.00074529441
0.00095787172
0.0011646533
0.001363282
0.001551836
0.001728808
0.001893078
0.0020438761
0.0021807315
0.0023034372
0.0024120742
0.0025070844
0.0025892684
0.0026595855
0.0027188354
0.0027675052
0.0028059971
0.0028352108
0.0028572663
0.0028758778
0.0028955651
0.0029198964
0.0029515877
0.002996817
0.0030660561
0.0031733703
0.0033210811
0.0034986712
0.0036977026
0.0039122379
0.0041391203
0.0043743804
0.0046146684
0.0048586856
0.0051055909
0.0053546437
0.0056055024
0.005857807
0.006111092
0.0063649439
0.0066189113
0.0068724616
0.0071250242
0.0073759583
0.0076245217
0.0078698798
0.0081111323
0.0083474058
0.0085780348
0.00011337387
0.00034887611
0.00058962694
0.00083272294
0.0010753847
0.001315132
0.001549853
0.0017778166
0.0019976627
0.0022083859
0.0024093115
0.0026000596
0.0027805157
0.0029508384
0.0031114955
0.0032632511
0.0034070266
0.0035436875
0.0036739359
0.0037984281
0.0039180895
0.0040344695
0.0041498478
0.004266775
0.0043872246
0.0045126582
0.0046459097
0.0047916115
0.0049555041
0.0051388347
0.0053378242
0.0055489358
0.0057696105
0.0059982446
0.0062328676
0.0064717132
0.0067138785
0.0069586792
0.0072054803
0.0074538424
0.0077033184
0.0079534021
0.0082036054
0.0084534125
0.0087022531
0.0089495207
0.0091945482
0.0094365732
0.0096747117
0.0099079379
0.010135242
0.010356897
0.0001311647
0.00040436298
0.00068554877
0.0009724008
0.0012626617
0.0015542714
0.0018454278
0.0021346061
0.0024205628
0.0027023324
0.0029792184
0.0032507736
0.0035167792
0.0037772377
0.0040323772
0.0042826283
0.0045285419
0.0047706713
0.0050095048
0.0052455014
0.0054792
0.0057113438
0.0059428835
0.0061747779
0.0064077223
0.0066421929
0.006879015
0.0071195326
0.007365323
0.0076168093
0.0078730892
0.0081331853
0.0083963569
0.0086620498
0.0089295759
0.009198233
0.0094675364
0.0097370485
0.01000632
0.010274948
0.010542509
0.010808539
0.011072563
0.011334084
0.011592564
0.011847441
0.012098106
0.012343893
0.012584052
0.012817741
0.013044137
0.013263362
0.00015160238
0.00046807456
0.00079550496
0.0011320863
0.0014760226
0.0018256181
0.0021793205
0.0025357419
0.0028936702
0.0032520771
0.0036101211
0.0039671424
0.0043226527
0.0046763266
0.0050279945
0.0053776222
0.005725267
0.0060710192
0.0064149646
0.0067571892
0.007097803
0.0074369728
0.0077749118
0.0081118155
0.0084477861
0.0087828511
0.0091171035
0.0094507593
0.0097840692
0.010117052
0.010449446
0.010780938
0.011111254
0.011440121
0.011767209
0.012092151
0.012414598
0.012734183
0.013050513
0.013363191
0.013671792
0.013975864
0.014274942
0.014568541
0.014856158
0.015137273
0.015411349
0.015677821
0.015936093
0.016185529
0.016425507
0.016655864
0.00017266568
0.00053368969
0.00090850689
0.0012956558
0.0016936526
0.0021010443
0.0025164351
0.002938502
0.0033660096
0.0037978238
0.0042329242
0.00467041
0.0051095006
0.0055495342
0.0059899619
0.0064303369
0.0068702934
0.0073095208
0.0077477436
0.0081847161
0.0086202255
0.0090540945
0.0094861729
0.0099163165
0.010344365
0.010770141
0.01119348
0.011614244
0.012032289
0.012447425
0.012859403
0.013267949
0.013672776
0.014073577
0.01447001
0.014861704
0.015248267
0.015629284
0.016004318
0.016372913
0.016734599
0.017088888
0.017435284
0.017773283
0.018102377
0.018422057
0.018731815
0.019031145
0.019319547
0.019596521
0.019861584
0.02011433
0.00019399598
0.00060008697
0.0010226154
0.0014602976
0.0019118117
0.0023758279
0.0028510202
0.0033360762
0.0038297107
0.0043306818
0.0048378082
0.0053499828
0.0058661818
0.0063854699
0.0069070007
0.0074300137
0.0079538269
0.008477825
0.0090014487
0.00952419
0.010045589
0.01056523
0.011082734
0.011597745
0.012109925
0.012618943
0.013124476
0.013626207
0.014123818
0.014616974
0.01510532
0.015588485
0.016066083
0.016537705
0.017002922
0.017461282
0.017912313
0.018355528
0.018790423
0.019216483
0.019633182
0.020039991
0.020436376
0.020821808
0.02119576
0.021557719
0.021907183
0.022243669
0.022566718
0.022875902
0.023170807
0.023450897
0.00021595665
0.00066841315
0.0011398535
0.0016290432
0.0021347043
0.0026555338
0.0031902053
0.0037373721
0.0042956788
0.0048637768
0.0054403442
0.0060241027
0.006613832
0.0072083793
0.0078066653
0.008407686
0.0090105126
0.0096142863
0.01021821
0.01082155
0.011423629
0.012023821
0.012621547
0.013216261
0.013807449
0.014394619
0.014977293
0.015555002
0.016127283
0.01669367
0.017253691
0.017806866
0.018352704
0.018890706
0.019420357
0.019941134
0.0204525
0.020953914
0.021444824
0.021924677
0.022392919
0.022848997
0.023292363
0.023722478
0.024138816
0.024540866
0.024928137
0.025300163
0.025656512
0.025996788
0.026320614
0.026627434
0.00023901717
0.00074015273
0.001262838
0.0018057981
0.0023677146
0.002947238
0.0035429831
0.0041535278
0.0047774202
0.0054131941
0.0060593884
0.0067145654
0.007377328
0.0080463314
0.0087202921
0.0093979929
0.010078288
0.010760096
0.0114424
0.012124248
0.01280475
0.013483071
0.014158429
0.014830084
0.015497336
0.016159516
0.016815982
0.017466111
0.018109296
0.018744941
0.019372459
0.019991264
0.020600777
0.021200418
0.021789608
0.02236777
0.022934326
0.023488704
0.024030334
0.024558652
0.025073102
0.025573137
0.026058224
0.026527842
0.026981488
0.027418679
0.027838955
0.028241881
0.028627056
0.028994117
0.029342719
0.029672361
0.00026353948
0.00081645407
0.0013935958
0.0019935866
0.0026150052
0.0032563986
0.0039162729
0.0045930884
0.0052852642
0.0059911921
0.0067092549
0.0074378458
0.0081753854
0.0089203357
0.0096712099
0.010426581
0.011185086
0.01194542
0.012706343
0.013466682
0.014225326
0.014981224
0.015733379
0.01648085
0.01722274
0.017958196
0.018686405
0.019406587
0.02011799
0.020819891
0.021511591
0.022192411
0.022861688
0.023518782
0.024163063
0.02479392
0.025410757
0.026012993
0.026600062
0.027171415
0.027726522
0.028264868
0.028785961
0.029289324
0.029774504
0.030241071
0.030688618
0.031116763
0.031525156
0.031913479
0.032281435
0.032628616
0.00028977367
0.00089811366
0.0015335319
0.0021944985
0.0028794399
0.0035867499
0.0043147796
0.0050618289
0.0058261494
0.0066059569
0.0073994489
0.0082048238
0.0090202985
0.0098441223
0.010674589
0.011510048
0.0123489
0.013189604
0.014030687
0.01487074
0.015708418
0.016542441
0.017371594
0.018194719
0.019010719
0.019818554
0.020617235
0.021405825
0.022183433
0.022949214
0.023702366
0.024442125
0.025167766
0.025878596
0.026573958
0.027253226
0.027915803
0.028561125
0.029188652
0.029797876
0.030388313
0.030959509
0.031511031
0.032042476
0.032553463
0.033043637
0.033512665
0.033960244
0.034386093
0.034789962
0.03517162
0.035530764
0.00031791033
0.00098573979
0.001683715
0.0024101115
0.0031631578
0.0039410482
0.0047419322
0.0055639041
0.0064050046
0.007263232
0.0081365602
0.009022957
0.0099204022
0.010826902
0.011740506
0.012659307
0.013581447
0.014505132
0.015428631
0.016350283
0.017268496
0.018181747
0.019088588
0.019987643
0.02087761
0.021757258
0.022625428
0.023481029
0.024323042
0.025150511
0.025962545
0.026758314
0.027537045
0.028298018
0.029040568
0.029764077
0.030467974
0.031151732
0.031814866
0.032456931
0.033077516
0.033676247
0.034252782
0.034806808
0.03533804
0.035846218
0.036331109
0.036792501
0.037230208
0.037644066
0.038033929
0.038399604
0.0003481253
0.0010798941
0.0018451266
0.0026418613
0.0034680827
0.004321738
0.0052007258
0.0061028855
0.0070259979
0.0079677962
0.0089259842
0.009898255
0.010882309
0.011875874
0.012876713
0.013882626
0.014891471
0.015901169
0.016909709
0.017915155
0.018915647
0.019909409
0.020894752
0.021870075
0.022833869
0.023784719
0.024721301
0.025642386
0.026546839
0.027433614
0.028301754
0.029150384
0.02997871
0.030786013
0.031571646
0.032335029
0.033075645
0.033793035
0.034486795
0.03515657
0.035802051
0.03642297
0.037019096
0.037590231
0.038136206
0.038656879
0.039152132
0.039621867
0.040066006
0.040484491
0.040877277
0.041244281
0.00038060466
0.0011811711
0.0020188023
0.0028912541
0.0037962182
0.0047313423
0.0056942203
0.0066823815
0.0076932912
0.0087243625
0.0097729748
0.010836494
0.011912293
0.012997771
0.014090352
0.01518751
0.016286777
0.017385758
0.01848213
0.019573658
0.020658196
0.021733701
0.022798235
0.023849971
0.024887199
0.025908327
0.026911884
0.027896523
0.028861017
0.029804259
0.030725254
0.031623116
0.032497064
0.033346413
0.034170571
0.03496903
0.035741363
0.036487211
0.037206285
0.037898351
0.038563228
0.039200783
0.03981092
0.04039358
0.040948731
0.041476367
0.041976501
0.042449167
0.04289441
0.043312292
0.04370288
0.044066205
0.00041555542
0.0012902328
0.0022058945
0.0031599634
0.0041497835
0.0051726447
0.0062257754
0.0073063321
0.0084114008
0.0095380101
0.010683152
0.011843803
0.013016952
0.0141996
0.015388785
0.016581606
0.017775226
0.018966888
0.020153929
0.021333785
0.022504009
0.023662276
0.024806397
0.025934322
0.027044151
0.028134137
0.029202685
0.030248359
0.031269877
0.032266108
0.033236058
0.034178874
0.035093829
0.035980317
0.036837843
0.037666014
0.038464531
0.039233175
0.039971807
0.040680347
0.041358775
0.042007118
0.042625443
0.04321385
0.043772465
0.044301434
0.044800921
0.045271101
0.045712155
0.046124277
0.046507657
0.046862437
0.00045320873
0.0014078202
0.0024076941
0.0034498636
0.0045312626
0.0056487571
0.00679914
0.0079791222
0.0091853362
0.010414351
0.011662697
0.012926894
0.014203459
0.015488934
0.016779912
0.018073055
0.019365103
0.020652898
0.021933393
0.023203675
0.024460973
0.025702677
0.026926348
0.028129727
0.029310745
0.030467527
0.031598394
0.032701864
0.033776645
0.03482163
0.035835881
0.036818625
0.037769245
0.038687265
0.039572337
0.04042423
0.041242818
0.042028067
0.042780022
0.043498796
0.044184559
0.044837526
0.045457952
0.046046117
0.046602323
0.047126886
0.04762013
0.048082383
0.048513975
0.048915235
0.049286483
0.049627974
0.00049382036
0.0015347553
0.0026256357
0.00376304
0.0049434205
0.0061631421
0.0074184811
0.0087056182
0.010020645
0.011359584
0.01271842
0.014093114
0.015479631
0.016873981
0.018272235
0.019670549
0.021065181
0.022452522
0.023829109
0.025191649
0.026537039
0.027862382
0.029165002
0.030442456
0.031692541
0.032913297
0.034103012
0.035260214
0.036383665
0.037472337
0.038525413
0.039542266
0.040522447
0.04146567
0.042371791
0.043240793
0.044072774
0.044867924
0.045626515
0.046348887
0.04703543
0.047686576
0.048302787
0.048884546
0.049432344
0.049946679
0.050428046
0.050876935
0.051293828
0.051679195
0.052033488
0.052357077
0.00053767084
0.001671943
0.0028613018
0.0041017957
0.0053893123
0.0067196257
0.0080884
0.0094911857
0.010923431
0.012380514
0.013857754
0.015350449
0.016853926
0.018363563
0.019874822
0.021383276
0.022884641
0.024374803
0.025849847
0.027306083
0.028740072
0.030148641
0.031528906
0.032878279
0.034194472
0.035475507
0.036719704
0.037925674
0.0390923
0.040218715
0.041304293
0.042348627
0.043351509
0.044312904
0.045232935
0.046111854
0.046950031
0.047747927
0.048506079
0.049225085
0.049905586
0.050548254
0.051153777
0.051722855
0.052256183
0.052754448
0.053218325
0.053648468
0.054045511
0.054410069
0.054742724
0.055043955
0.00058506626
0.0018203742
0.0031164292
0.0044686623
0.0058722987
0.0073224159
0.0088139525
0.010341711
0.011900381
0.013484554
0.015088757
0.016707522
0.018335411
0.019967063
0.021597231
0.023220824
0.024832944
0.026428928
0.028004378
0.0295552
0.031077625
0.032568239
0.034023992
0.035442212
0.036820603
0.038157245
0.039450577
0.040699382
0.041902749
0.043060062
0.044170972
0.045235373
0.046253372
0.047225257
0.048151477
0.049032614
0.049869355
0.050662475
0.051412812
0.052121254
0.052788715
0.053416126
0.05400442
0.05455452
0.055067335
0.055543747
0.05598461
0.056390745
0.056762936
0.057101937
0.057408458
0.057683085
0.00063633985
0.0019811323
0.0033929215
0.0048664182
0.00639607
0.0079761316
0.0096006822
0.011263642
0.012958778
0.014679742
0.016420143
0.018173589
0.019933744
0.02169438
0.023449437
0.025193068
0.026919697
0.028624067
0.030301282
0.031946849
0.033556706
0.035127245
0.036655324
0.038138271
0.039573878
0.040960387
0.042296464
0.043581159
0.044813874
0.045994343
0.047122592
0.048198901
0.04922377
0.050197883
0.051122079
0.051997317
0.052824653
0.053605211
0.054340165
0.055030712
0.055678062
0.056283417
0.056847965
0.057372861
0.057859227
0.058308143
0.058720636
0.059097691
0.059440239
0.059749167
0.060025304
0.060269335
0.00069185443
0.0021554022
0.0036928657
0.0052981137
0.0069646793
0.0086858446
0.010454675
0.012264019
0.014106542
0.0159748
0.017861293
0.019758539
0.021659144
0.023555879
0.025441747
0.02731006
0.029154503
0.030969195
0.032748745
0.034488295
0.036183545
0.03783078
0.039426864
0.040969242
0.042455916
0.043885415
0.045256749
0.046569354
0.047823071
0.049018092
0.050154914
0.051234296
0.052257209
0.053224804
0.054138364
0.054999281
0.055809015
0.056569075
0.057280989
0.057946288
0.058566488
0.059143071
0.05967748
0.060171106
0.060625281
0.061041271
0.061420281
0.061763446
0.062071837
0.06234646
0.062588254
0.062797993
0.00075200568
0.0023444823
0.0040185543
0.0057671044
0.0075825878
0.0094571389
0.011382595
0.013350527
0.015352304
0.017379162
0.019422283
0.021472897
0.023522376
0.025562332
0.027584715
0.029581909
0.031546812
0.033472916
0.035354366
0.037186002
0.038963385
0.040682807
0.042341279
0.043936505
0.045466848
0.046931267
0.048329249
0.049660768
0.050926223
0.052126381
0.053262315
0.054335347
0.055347001
0.056298953
0.057192988
0.058030968
0.058814794
0.059546379
0.060227627
0.06086041
0.061446555
0.061987826
0.06248592
0.062942453
0.063358962
0.063736894
0.064077615
0.064382401
0.064652445
0.064888864
0.065092691
0.065264777
0.00081722615
0.0025497989
0.0043725124
0.0062770926
0.0082547234
0.010296154
0.012391756
0.014531589
0.016705462
0.018903032
0.021113918
0.023327835
0.02553472
0.027724864
0.029889045
0.032018648
0.034105765
0.036143287
0.038124963
0.040045443
0.041900286
0.043685954
0.045399775
0.047039894
0.048605204
0.050095253
0.051510177
0.05285063
0.054117707
0.055312863
0.056437846
0.057494629
0.058485356
0.059412284
0.060277746
0.061084103
0.06183372
0.062528931
0.063172021
0.063765208
0.064310625
0.064810311
0.065266207
0.065680147
0.066053858
0.066388955
0.066686945
0.066949229
0.067177109
0.067371795
0.0675344
0.067665837
0.00088799001
0.0027729238
0.004757532
0.0068321807
0.0089865242
0.011209659
0.013490218
0.015816436
0.018176251
0.020557436
0.022947761
0.025335164
0.027707931
0.03005487
0.032365478
0.034630094
0.036840023
0.038987627
0.041066383
0.043070911
0.044996959
0.046841362
0.048601979
0.050277604
0.051867848
0.053373039
0.054794139
0.056132638
0.057390456
0.058569852
0.05967334
0.060703621
0.061663517
0.062555913
0.063383717
0.064149816
0.064857047
0.065508169
0.066105849
0.066652641
0.067150971
0.067603145
0.068011333
0.06837757
0.06870375
0.068991637
0.06924286
0.069458927
0.069641231
0.069791052
0.069909576
0.069997751
0.00096481851
0.0030155962
0.005176715
0.0074369104
0.0097840127
0.012205155
0.014686868
0.017215192
0.019775818
0.022354277
0.024936154
0.027507325
0.030054194
0.032563926
0.035024659
0.037425685
0.039757589
0.042012337
0.044183322
0.046265355
0.048254616
0.05014857
0.051945855
0.053646136
0.055249963
0.056758662
0.058174197
0.059499044
0.060736076
0.06188846
0.06295956
0.063952867
0.064871925
0.06572028
0.066501434
0.067218805
0.067875706
0.068475313
0.06902066
0.069514619
0.069959902
0.070359058
0.070714461
0.07102832
0.071302679
0.071539423
0.071740285
0.071906856
0.072040601
0.072142838
0.072214839
0.072257522
0.0010482871
0.0032797529
0.0056335024
0.0080963285
0.010653897
0.013290964
0.015991525
0.018738974
0.021516308
0.02430639
0.02709224
0.029857359
0.032586041
0.035263673
0.037876995
0.04041431
0.042865622
0.045222714
0.047479152
0.049630227
0.051672855
0.05360543
0.055427639
0.057140276
0.058745089
0.060244603
0.061641962
0.062940775
0.064144985
0.065258754
0.066286367
0.067232148
0.068100395
0.06889533
0.069621051
0.070281507
0.070880468
0.071421509
0.071908013
0.072343149
0.07272989
0.073070991
0.073369005
0.073626292
0.073845017
0.074027159
0.074174528
0.074288777
0.074371438
0.074423766
0.074447267
0.074442543
0.0011390401
0.0035675416
0.0061317257
0.008816083
0.011603662
0.014476344
0.017415055
0.020399998
0.023410942
0.026427586
0.029429962
0.032398867
0.035316268
0.038165682
0.040932482
0.043604119
0.04617025
0.048622772
0.050955763
0.053165359
0.05524957
0.057208046
0.05904183
0.060753148
0.062345188
0.063821885
0.065187728
0.066447589
0.067606581
0.068669936
0.069642903
0.07053067
0.071338302
0.072070691
0.072732524
0.073328257
0.073862089
0.074337977
0.07475962
0.075130453
0.075453662
0.075732186
0.075968723
0.076165752
0.076325531
0.076450097
0.07654132
0.076600877
0.076630445
0.076630801
0.076604647
0.076550691
0.0012377805
0.0038813579
0.0066756903
0.0096025044
0.01264168
0.015771611
0.0189695
0.022211697
0.025474107
0.028732699
0.031964057
0.035145939
0.038257811
0.041281297
0.044200522
0.047002333
0.049676378
0.052215068
0.054613425
0.056868859
0.058980874
0.060950744
0.062781225
0.064476271
0.066040754
0.067480209
0.068800622
0.07000824
0.071109425
0.072110524
0.07301778
0.073837251
0.074574758
0.075235847
0.075825766
0.076349435
0.076811465
0.077216154
0.077567468
0.077869062
0.078124302
0.078336279
0.078507785
0.078641393
0.078739438
0.07880394
0.078836849
0.078839737
0.078815008
0.078761733
0.078684718
0.078581189
0.0013452956
0.0042238944
0.0072702377
0.010462712
0.013777348
0.017188292
0.020668225
0.02418884
0.027721439
0.03123762
0.034710024
0.038113071
0.041423611
0.044621454
0.047689726
0.050615043
0.053387507
0.056000554
0.058450669
0.060737026
0.062861064
0.064826107
0.066636985
0.068299668
0.069820937
0.071208105
0.072468777
0.073610664
0.074641423
0.075568546
0.076399267
0.077140498
0.07779879
0.078380304
0.078890795
0.079335626
0.07971977
0.080047799
0.080323907
0.080551916
0.080735326
0.080877368
0.080980834
0.081048387
0.081082453
0.081084855
0.081057827
0.081002873
0.080922763
0.080815312
0.080684651
0.080530775
0.0014624683
0.0045981857
0.0079208315
0.011404738
0.015021241
0.018739297
0.022526081
0.026347677
0.030169912
0.03395931
0.037684079
0.041315046
0.044826445
0.048196489
0.051407705
0.054447008
0.057305556
0.059978433
0.062464186
0.064764289
0.066882632
0.068825027
0.070598725
0.072211982
0.073673694
0.074993096
0.076179509
0.077242157
0.078190019
0.079031721
0.079775466
0.080428982
0.080999496
0.081493722
0.081917891
0.08227775
0.082578548
0.082825089
0.083021752
0.083172447
0.083280742
0.083350085
0.083383041
0.083382385
0.083350874
0.083290294
0.083202231
0.083087519
0.082950391
0.0827885
0.082604465
0.082398531
0.0015902901
0.0050076632
0.0086336643
0.012437683
0.016385298
0.020439113
0.024559594
0.028706074
0.032837916
0.036915814
0.040903081
0.044766801
0.048478741
0.052015921
0.055360856
0.058501461
0.061430702
0.064146038
0.066648738
0.068943201
0.071036309
0.072936784
0.074654625
0.076200619
0.077585949
0.078821878
0.079919499
0.080889568
0.08174237
0.082487634
0.083134481
0.083691388
0.084166181
0.084566084
0.084897723
0.085167145
0.085379816
0.085540701
0.085654357
0.085724647
0.085755054
0.085749678
0.085710145
0.085640388
0.085542217
0.085416509
0.085265828
0.085090639
0.084898531
0.084680846
0.084443749
0.084188277
0.0017298787
0.0054562239
0.0094157845
0.013571893
0.017883047
0.02230404
0.026787172
0.031283673
0.035745334
0.040126244
0.044384432
0.048483255
0.052392367
0.056088226
0.059554141
0.06277992
0.065761228
0.068498712
0.070997126
0.073264468
0.075311129
0.077149148
0.078791567
0.080251909
0.08154377
0.082680499
0.083674981
0.084539476
0.085285527
0.085923906
0.086464569
0.086916655
0.087288521
0.087587806
0.087821419
0.087995674
0.088116144
0.088187858
0.088215681
0.088203175
0.088153298
0.088072905
0.087959209
0.087816929
0.087652754
0.087461517
0.087248531
0.08701473
0.08676266
0.086490779
0.086201192
0.08589524
0.001882499
0.0059483144
0.010275252
0.014819184
0.019529859
0.024352459
0.029229341
0.034102057
0.038913612
0.043610741
0.048145954
0.052479116
0.056578399
0.060420601
0.063990875
0.06728201
0.07029337
0.07302974
0.075500198
0.077716988
0.079694518
0.081448506
0.082995287
0.084351273
0.085532542
0.086554545
0.087431919
0.088178364
0.088806601
0.089328343
0.089754276
0.09009414
0.090356671
0.090549823
0.090680664
0.090755803
0.090780748
0.090760318
0.090700703
0.090603929
0.090471482
0.090314435
0.090126394
0.089913553
0.089678754
0.089422015
0.089148304
0.088855311
0.08854532
0.088218885
0.087876951
0.087519362
0.002049589
0.0064890335
0.011221327
0.016193109
0.021343273
0.026605148
0.031909007
0.037184917
0.042365811
0.04739042
0.052205728
0.05676866
0.061046872
0.065018719
0.06867251
0.072005261
0.075021209
0.077730336
0.080146866
0.082287927
0.084172401
0.085819999
0.087250536
0.088483399
0.089537157
0.090429319
0.091176188
0.091792793
0.092292911
0.092689061
0.092992588
0.093213723
0.093361336
0.093443699
0.093467743
0.093440659
0.093368196
0.09325318
0.093104822
0.092921257
0.092707543
0.092469457
0.092209002
0.091925076
0.091620856
0.091296975
0.090965013
0.090612625
0.090245731
0.089865352
0.08947225
0.089067807
0.002232792
0.0070842593
0.012264707
0.017709284
0.023343365
0.02908565
0.034851759
0.040558236
0.046126649
0.051487275
0.056581905
0.06136548
0.065806514
0.069886481
0.073598393
0.076944957
0.079936625
0.082589627
0.084924153
0.086962804
0.088729335
0.090247683
0.091541254
0.092632421
0.093542191
0.094290021
0.094893745
0.095369556
0.095732116
0.095994662
0.096169028
0.09626591
0.096293851
0.096261748
0.096176264
0.096045033
0.095872566
0.095662331
0.095420808
0.095152425
0.094855926
0.09453726
0.094206268
0.093850807
0.093478207
0.093091639
0.092694517
0.092283483
0.091863927
0.091430474
0.090986792
0.090534684
0.0024339942
0.0077408072
0.013417818
0.019385795
0.025553215
0.031820709
0.0380862
0.04425047
0.050222523
0.055924061
0.061292486
0.066282219
0.070864468
0.075025731
0.078765561
0.08209405
0.085029238
0.087594666
0.089817259
0.091725612
0.093348657
0.094714699
0.095850754
0.096782114
0.09753209
0.098121922
0.098570792
0.098895805
0.099112381
0.099234343
0.099273686
0.099241991
0.099147013
0.09899836
0.098800246
0.098560719
0.098287859
0.097982255
0.097646988
0.097295943
0.096915193
0.096521707
0.096112753
0.095687319
0.095248835
0.094799478
0.094340654
0.09386989
0.093402274
0.092915106
0.092421661
0.09192076
0.0026553737
0.0084666284
0.01469518
0.021243697
0.027999462
0.034840779
0.041644323
0.048292739
0.054681511
0.060724141
0.066355065
0.071530268
0.076225973
0.080436003
0.084168605
0.087443059
0.090286389
0.09273047
0.094809659
0.09655895
0.098012649
0.099203455
0.10016191
0.10091607
0.10149135
0.10191053
0.10219392
0.10235922
0.1024225
0.102398
0.10229799
0.1021356
0.10191392
0.10164316
0.10133304
0.10098358
0.10061186
0.10021113
0.099786624
0.09934387
0.09888052
0.098416132
0.097931643
0.09743635
0.096932738
0.0964217
0.095904106
0.095380088
0.094854191
0.094319655
0.093779594
0.093235521
0.002899459
0.0092710613
0.016113872
0.023307643
0.030712977
0.038180627
0.04556193
0.052719023
0.059533348
0.065911297
0.071786548
0.077119435
0.081894051
0.086114302
0.089799505
0.092979984
0.095693127
0.097980088
0.099883216
0.10144419
0.10270272
0.10369582
0.10445735
0.1050179
0.10540469
0.10564171
0.10575027
0.10574815
0.10565254
0.10547807
0.10523363
0.10493501
0.10458753
0.10419233
0.10377218
0.10331667
0.10283509
0.10234363
0.10183178
0.10130075
0.10075978
0.10021452
0.099659391
0.09909731
0.098530188
0.09795901
0.09738447
0.096807058
0.096228319
0.095646322
0.095060777
0.094473089
0.0031692046
0.010165153
0.017694126
0.025606671
0.033729701
0.041880042
0.049879109
0.057566358
0.064809387
0.071509517
0.077602845
0.083057577
0.087869217
0.092054892
0.095647486
0.098690253
0.10123224
0.10332469
0.10501833
0.10636163
0.10739962
0.10817332
0.10871965
0.10907142
0.10925724
0.10930182
0.10922779
0.10905368
0.10879378
0.10846102
0.10807128
0.10763655
0.10716486
0.10664818
0.10610463
0.10555157
0.10496803
0.10437743
0.10377543
0.10316278
0.10254428
0.10192321
0.10129832
0.10067082
0.10004191
0.099412357
0.09878266
0.098153197
0.097524588
0.003468085
0.011162076
0.019460085
0.028175193
0.037091659
0.045984674
0.054640772
0.062875061
0.070542543
0.077542758
0.083818469
0.089350252
0.094149199
0.098249065
0.1016989
0.1045567
0.10688432
0.10874369
0.11019412
0.11129072
0.11208362
0.11261738
0.11293153
0.1130608
0.11303468
0.11287949
0.11261689
0.11226102
0.11183577
0.11134172
0.11081474
0.11023303
0.10963319
0.10900023
0.10834259
0.10767749
0.1069981
0.1063133
0.10562355
0.10492995
0.10423526
0.10354152
0.10284879
0.10215771
0.10146896
0.100783
0.10010008
0.099420359
0.098743892
0.003800215
0.012277666
0.02144079
0.031054264
0.040848227
0.050547048
0.059897286
0.06868897
0.076767238
0.084034633
0.090446182
0.096000387
0.10072863
0.10468493
0.1079371
0.11055954
0.11262784
0.11421491
0.11538858
0.11621029
0.11673478
0.11700949
0.11707603
0.11697137
0.11672592
0.11636056
0.11590311
0.11536189
0.11477411
0.11412021
0.11344348
0.11272962
0.11199236
0.11123904
0.11047267
0.10970173
0.10892611
0.10815012
0.10737518
0.10660243
0.10583357
0.10506986
0.10431161
0.10355912
0.1028127
0.10207247
0.10133844
0.10061048
0.099888335
0.0041705053
0.013531143
0.023671482
0.0342932
0.045057692
0.055627777
0.065705225
0.075055769
0.08351935
0.091008146
0.097496669
0.1030079
0.10759872
0.11134722
0.11434239
0.11667644
0.11843926
0.11971477
0.12057887
0.1210987
0.12133318
0.12133148
0.12113875
0.12079062
0.12031136
0.1197335
0.11908098
0.11835725
0.11759396
0.1167922
0.11595649
0.11510485
0.11424088
0.11336977
0.11249515
0.11162203
0.11075202
0.10988766
0.10903027
0.10818079
0.1073402
0.10650921
0.10568797
0.1048765
0.10407476
0.10328256
0.10249964
0.10172563
0.10096
0.0045848628
0.014946068
0.026195313
0.03795167
0.049789217
0.061297064
0.07212832
0.082027417
0.090836206
0.098485465
0.10497815
0.11036929
0.11474697
0.11821707
0.12089195
0.12288258
0.12429325
0.12521848
0.12574152
0.12593412
0.12585922
0.12556916
0.12510142
0.12450012
0.1237826
0.12300151
0.12213574
0.12123816
0.12029557
0.11933128
0.11835135
0.11736493
0.11637658
0.11539044
0.1144097
0.11343765
0.11247597
0.11152624
0.11058939
0.10966598
0.10875643
0.10786096
0.10697944
0.10611159
0.10525702
0.10441527
0.1035858
0.10276799
0.10196109
0.0050504564
0.016551645
0.029065654
0.042102421
0.055125334
0.0676366
0.079238719
0.089660761
0.098756723
0.10648772
0.11289598
0.11807721
0.12215674
0.12527186
0.12755985
0.12915074
0.13016282
0.13070032
0.13085275
0.13069622
0.1302973
0.12969858
0.12894746
0.12809206
0.12713962
0.12613496
0.12507621
0.12398105
0.12286873
0.12174824
0.12062574
0.11950764
0.11839801
0.11730006
0.11621624
0.11514867
0.11409854
0.11306673
0.11205364
0.11105936
0.11008384
0.10912684
0.10818788
0.10726636
0.10636158
0.1054728
0.10459918
0.10373989
0.10289395
0.0055760686
0.018384528
0.032349226
0.046834864
0.061165146
0.074742056
0.087118758
0.098018547
0.10732176
0.11503483
0.12125218
0.12611991
0.12980698
0.13248507
0.13431703
0.13545152
0.13601961
0.13613391
0.13589161
0.13536641
0.13461861
0.13370756
0.13267966
0.13154975
0.13036788
0.12913307
0.12786906
0.12659204
0.12531298
0.12403977
0.1227778
0.12153166
0.12030446
0.11909843
0.11791515
0.11675575
0.11562077
0.11451041
0.1134245
0.11236265
0.11132433
0.11030885
0.10931539
0.10834302
0.10739073
0.10645747
0.10554216
0.10464374
0.10376101
0.0061725743
0.020491355
0.036130411
0.05225986
0.068028572
0.082726507
0.095861854
0.10716761
0.11657074
0.12414203
0.130043
0.13448019
0.13767174
0.13982607
0.14113144
0.14175351
0.14183416
0.1414965
0.14083493
0.13991347
0.13881085
0.13759888
0.13625977
0.13487977
0.13344033
0.13198484
0.13052347
0.12906749
0.1276255
0.12620374
0.12480636
0.12343644
0.12209593
0.12078601
0.11950733
0.11826011
0.11704415
0.11585898
0.11470385
0.11357788
0.11248004
0.11140924
0.1103643
0.10934395
0.1083469
0.10737178
0.10641725
0.10548205
0.10456478
0.0068536012
0.022932415
0.040517285
0.05851623
0.075862165
0.091721482
0.10556894
0.11717345
0.12653631
0.13381546
0.13925562
0.14313316
0.14571936
0.14726007
0.14796809
0.1480236
0.14758181
0.14675729
0.14565254
0.14432338
0.14287509
0.1413276
0.13970697
0.13803879
0.1363614
0.1346904
0.13303539
0.13140465
0.12980441
0.12823899
0.12671104
0.12522216
0.12377306
0.12236386
0.12099419
0.11966341
0.11837056
0.11711449
0.11589388
0.11470734
0.11355337
0.11243047
0.11133711
0.1102717
0.10923266
0.10821829
0.10722704
0.10625739
0.10530781
0.0076364705
0.02578703
0.045650205
0.065779865
0.084842407
0.10187399
0.11634397
0.12809605
0.13724096
0.14404957
0.14886605
0.15204459
0.15391145
0.15474809
0.15478935
0.15423457
0.15322508
0.15188305
0.15033027
0.14859899
0.14678141
0.14489735
0.14296732
0.14103793
0.13912651
0.13724528
0.13540182
0.13360171
0.13184876
0.13014526
0.1284922
0.12688967
0.12533712
0.12383353
0.12237757
0.12096771
0.11960222
0.1182793
0.11699706
0.11575356
0.11454689
0.11337515
0.11223645
0.11112892
0.11005067
0.10899968
0.10797415
0.1069724
0.10599268
0.0085435823
0.02916171
0.051714287
0.074272343
0.095176211
0.11334395
0.12828953
0.1399853
0.14869338
0.15482467
0.15883784
0.16117036
0.1622025
0.16224682
0.16156423
0.16034083
0.15872997
0.15687934
0.15484384
0.15270683
0.15050585
0.14827554
0.14605699
0.14387113
0.14173139
0.13964635
0.13762087
0.13565779
0.13375846
0.13192308