/*--------------------------------*- C++ -*----------------------------------*\
| =========                 |                                                 |
| \\      /  F ield         | OpenFOAM: The Open Source CFD Toolbox           |
|  \\    /   O peration     | Version:  2312                                  |
|   \\  /    A nd           | Website:  www.openfoam.com                      |
|    \\/     M anipulation  |                                                 |
\*---------------------------------------------------------------------------*/
FoamFile
{
    version     2.0;
    format      ascii;
    arch        "LSB;label=32;scalar=64";
    class       volScalarField;
    location    "0.06";
    object      f_Bilger;
}
// * * * * * * * * * * * * * * * * * * * * * * * * * * * * * * * * * * * * * //

dimensions      [0 0 0 0 0 0 0];

internalField   nonuniform List<scalar> 
3221
(
0.00011546022
0.00035475891
0.00059797841
0.0008413829
0.001081428
0.0013149766
0.0015393778
0.0017524708
0.001952562
0.0021383937
0.0023091017
0.0024641584
0.002603332
0.002726715
0.0028348056
0.0029285051
0.0030088919
0.0030768621
0.0031329581
0.0031776267
0.0032118804
0.003238116
0.0032605401
0.0032842748
0.0033133718
0.0033509373
0.0034040072
0.0034845075
0.0036084302
0.0037784648
0.0039827432
0.0042117299
0.0044587228
0.004720162
0.0049915587
0.0052691256
0.0055514043
0.0058374546
0.0061264499
0.0064180187
0.0067117704
0.0070071946
0.0073038399
0.0076012122
0.0078987252
0.0081957487
0.008491572
0.0087853675
0.0090762005
0.0093630543
0.0096449232
0.0099209962
0.00012794483
0.00039372051
0.00066543643
0.00093982748
0.0012137692
0.001484475
0.001749574
0.0020071244
0.0022556026
0.0024938848
0.0027212189
0.0029371848
0.0031416611
0.0033348335
0.0035172366
0.0036897383
0.0038533831
0.0040091513
0.0041578374
0.0043001854
0.004437245
0.0045707758
0.0047033669
0.004837915
0.0049766661
0.0051212974
0.005275051
0.0054432278
0.0056323724
0.0058439215
0.0060736175
0.0063174735
0.0065726143
0.0068372416
0.0071091368
0.0073863145
0.0076677685
0.0079527398
0.0082405246
0.0085306408
0.0088225978
0.0091158379
0.0094098232
0.0097039848
0.0099976912
0.010290271
0.010580984
0.010868988
0.011153309
0.011432829
0.011706429
0.011974179
0.00014796208
0.00045615424
0.00077337822
0.0010970306
0.0014245808
0.0017537218
0.0020824377
0.0024090258
0.0027321005
0.0030505897
0.0033637242
0.0036710156
0.0039722325
0.0042673931
0.0045567697
0.0048408628
0.005120308
0.0053957431
0.0056677314
0.0059368036
0.0062035804
0.0064689155
0.0067338982
0.0069996275
0.0072669035
0.0075362818
0.0078087165
0.0080857572
0.0083692159
0.0086595901
0.0089558754
0.009256982
0.0095620899
0.0098705891
0.010181716
0.010494691
0.010808983
0.011124112
0.011439583
0.011754957
0.012069767
0.012383499
0.012695631
0.013005608
0.013312837
0.013616687
0.013916485
0.014211489
0.014500871
0.014783707
0.015059087
0.01532697
0.00017092894
0.00052775423
0.00089696211
0.0012765348
0.0016644685
0.0020588733
0.0024580218
0.0028603724
0.0032645823
0.0036695156
0.0040742474
0.004478057
0.0048804168
0.0052809825
0.005679585
0.0060762077
0.0064709362
0.0068638929
0.0072551937
0.0076449545
0.0080333178
0.0084204896
0.0088067291
0.0091922741
0.0095772569
0.0099617251
0.010345801
0.010729746
0.011113864
0.011498192
0.011882448
0.012266295
0.012649436
0.01303158
0.013412365
0.013791393
0.014168282
0.014542628
0.014914004
0.015281969
0.015646054
0.01600576
0.016360567
0.016709936
0.017053305
0.017390092
0.017719694
0.018041481
0.018354783
0.018658893
0.018953117
0.019237184
0.0001945574
0.00060136519
0.0010237495
0.001460089
0.0019087383
0.002368088
0.002836594
0.0033127949
0.0037953285
0.0042829472
0.0047745309
0.0052690945
0.0057657878
0.0062638937
0.0067628218
0.0072620957
0.0077613298
0.0082601992
0.0087584177
0.0092557317
0.0097519237
0.010246815
0.010740257
0.011232108
0.011722204
0.012210365
0.012696422
0.013180235
0.01366166
0.014140498
0.014616481
0.015089315
0.015558688
0.016024269
0.016485684
0.016942524
0.017394359
0.017840732
0.018281157
0.018715131
0.019142129
0.019561608
0.019973014
0.020375783
0.020769343
0.021153123
0.021526549
0.021889048
0.022240052
0.022578996
0.022905328
0.023218576
0.00021843788
0.00067570632
0.0011515257
0.001644482
0.0021531192
0.0026759736
0.003211587
0.0037585171
0.0043153525
0.004880731
0.0054533585
0.0060320238
0.0066156092
0.0072030954
0.0077935624
0.0083861858
0.0089802281
0.0095750262
0.010169978
0.010764538
0.011358213
0.01195056
0.012541173
0.013129676
0.013715705
0.014298908
0.014878939
0.015455459
0.016028124
0.016596571
0.017160417
0.017719256
0.018272664
0.018820193
0.019361369
0.019895694
0.020422645
0.020941681
0.021452241
0.021953752
0.022445628
0.022927275
0.023398096
0.023857496
0.024304884
0.024739678
0.025161312
0.025569234
0.025962922
0.026341879
0.026705628
0.027053587
0.00024297654
0.00075205938
0.0012825527
0.001833105
0.0024023174
0.0029887638
0.0035909929
0.0042075315
0.0048368964
0.0054776125
0.0061282343
0.0067873648
0.007453671
0.0081258949
0.0088028597
0.0094834717
0.01016672
0.010851672
0.011537461
0.012223289
0.012908424
0.013592186
0.014273946
0.014953114
0.015629133
0.016301466
0.016969594
0.017633008
0.0182912
0.01894366
0.019589869
0.020229299
0.02086141
0.021485647
0.022101443
0.022708214
0.023305366
0.023892294
0.024468385
0.02503302
0.025585578
0.026125442
0.026651997
0.027164636
0.027662768
0.028145815
0.028613221
0.029064456
0.029499024
0.029916465
0.030316343
0.030698062
0.000268699
0.00083208648
0.0014197611
0.0020303338
0.0026623684
0.0033143949
0.0039849042
0.004672346
0.0053751367
0.0060916767
0.006820371
0.0075596505
0.0083079897
0.0090639206
0.0098260422
0.010593026
0.011363621
0.012136647
0.012910993
0.013685621
0.014459558
0.015231892
0.016001767
0.016768374
0.017530945
0.018288747
0.019041074
0.019787241
0.020526579
0.021258431
0.021982144
0.022697074
0.023402574
0.024098001
0.024782711
0.02545606
0.026117406
0.026766109
0.02740153
0.028023041
0.028630017
0.029221848
0.029797933
0.030357688
0.030900548
0.031425966
0.031933423
0.032422424
0.03289251
0.03334326
0.033774276
0.03418502
0.00029600871
0.00091706793
0.0015654115
0.0022395433
0.0029379212
0.0036589678
0.004401061
0.0051625275
0.0059416474
0.0067366697
0.0075458323
0.008367383
0.0091995987
0.0100408
0.010889363
0.011743728
0.012602404
0.013463963
0.014327046
0.015190367
0.016052707
0.01691291
0.017769881
0.018622582
0.019470023
0.020311264
0.021145404
0.021971577
0.022788951
0.023596722
0.024394112
0.025180362
0.025954737
0.026716518
0.027465004
0.028199511
0.028919371
0.029623933
0.030312564
0.03098465
0.031639595
0.032276822
0.032895778
0.033495928
0.034076764
0.034637799
0.035178575
0.035698659
0.036197651
0.036675186
0.037130922
0.037564416
0.00032518209
0.0010078843
0.0017210583
0.002463048
0.0032321503
0.0040266269
0.0048446917
0.0056845013
0.0065441578
0.0074217215
0.0083152309
0.0092227233
0.010142254
0.011071911
0.012009829
0.012954203
0.01390328
0.014855369
0.015808851
0.016762176
0.017713864
0.018662501
0.019606743
0.02054531
0.021476984
0.02240061
0.023315087
0.024219372
0.025112469
0.025993436
0.026861373
0.027715426
0.02855478
0.029378659
0.030186324
0.030977072
0.031750234
0.032505173
0.033241284
0.033957996
0.034654766
0.035331081
0.035986458
0.036620444
0.037232609
0.037822556
0.038389911
0.038934328
0.039455491
0.039953114
0.04042693
0.040876611
0.00035642754
0.0011052012
0.0018878721
0.0027025776
0.0035474048
0.0044204033
0.0053195728
0.0062428508
0.0071881135
0.0081531878
0.0091358706
0.010133949
0.01114522
0.012167507
0.013198674
0.014236633
0.015279344
0.016324835
0.0173712
0.018416604
0.019459288
0.020497566
0.021529831
0.022554552
0.023570279
0.024575638
0.025569333
0.026550143
0.027516923
0.0284686
0.029404171
0.030322702
0.03122332
0.032105213
0.032967629
0.033809871
0.034631293
0.035431301
0.036209346
0.036964926
0.037697579
0.038406883
0.039092452
0.039753937
0.040391016
0.041003401
0.041590827
0.042153058
0.042689884
0.043201119
0.043686594
0.044146105
0.00038993607
0.0012096292
0.0020669207
0.002959696
0.0038857824
0.0048429666
0.0058289804
0.0068414887
0.0078780885
0.0089363214
0.010013692
0.011107689
0.012215804
0.013335554
0.01446449
0.015600198
0.016740323
0.017882574
0.019024732
0.020164653
0.021300276
0.022429627
0.023550823
0.02466208
0.025761708
0.026848121
0.027919832
0.028975459
0.03001372
0.031033435
0.032033521
0.033012985
0.033970927
0.034906528
0.035819055
0.036707845
0.037572311
0.03841193
0.039226243
0.040014847
0.04077739
0.041513569
0.042223125
0.042905833
0.043561507
0.044189988
0.044791144
0.045364868
0.045911074
0.046429697
0.046920687
0.047383961
0.0004259094
0.0013218132
0.0022593284
0.0032360398
0.0042494628
0.0052970646
0.0063762514
0.0074843558
0.0086186354
0.0097762861
0.010954461
0.012150292
0.013360913
0.01458348
0.01581517
0.017053206
0.018294872
0.019537522
0.020778587
0.022015585
0.023246133
0.02446795
0.025678872
0.02687685
0.028059966
0.029226426
0.030374572
0.031502878
0.032609955
0.033694543
0.034755511
0.035791845
0.036802653
0.037787149
0.038744653
0.039674582
0.04057644
0.041449818
0.042294377
0.04310985
0.04389603
0.04465276
0.045379933
0.046077482
0.046745373
0.047383602
0.047992186
0.048571168
0.049120602
0.04964056
0.050131124
0.050592337
0.00046457183
0.0014424711
0.0024663457
0.0035334265
0.0046408586
0.0057857273
0.0069650479
0.0081757527
0.0094146908
0.010678643
0.01196434
0.013268491
0.014587808
0.015919009
0.017258844
0.018604119
0.019951706
0.021298555
0.02264171
0.023978321
0.025305657
0.026621119
0.027922251
0.029206749
0.03047247
0.031717437
0.032939843
0.034138055
0.035310609
0.03645621
0.037573718
0.03866215
0.039720663
0.040748555
0.041745248
0.04271028
0.043643297
0.044544041
0.045412338
0.046248093
0.047051275
0.047821909
0.048560068
0.049265865
0.049939444
0.050580974
0.051190643
0.051768652
0.052315215
0.052830552
0.053314886
0.053768391
0.00050617367
0.0015724058
0.0026893727
0.0038538912
0.0050626697
0.0063123411
0.0075994545
0.0089204638
0.010271729
0.011649534
0.013050107
0.014469657
0.015904382
0.017350489
0.018804238
0.020261947
0.021720015
0.023174939
0.024623334
0.026061947
0.02748768
0.028897606
0.030288977
0.031659244
0.033006064
0.034327304
0.035621051
0.036885605
0.038119486
0.03932141
0.040490289
0.041625222
0.04272548
0.043790497
0.044819854
0.045813265
0.046770565
0.047691697
0.048576695
0.049425674
0.050238815
0.051016356
0.051758579
0.052465802
0.053138365
0.05377663
0.054380969
0.054951758
0.055489378
0.055994206
0.056466615
0.056906911
0.00055099166
0.0017125076
0.0029299643
0.0041996961
0.0055178989
0.0068806713
0.0082840091
0.0097237966
0.011195811
0.012695741
0.014219225
0.01576186
0.017319233
0.018886969
0.020460742
0.02203631
0.023609531
0.025176391
0.026733032
0.02827577
0.029801122
0.031305828
0.032786864
0.034241457
0.035667101
0.037061554
0.03842285
0.039749289
0.041039431
0.042292075
0.043506252
0.044681215
0.045816415
0.046911489
0.047966239
0.048980614
0.049954693
0.050888668
0.051782825
0.05263753
0.053453211
0.05423035
0.054969462
0.055671091
0.056335795
0.056964142
0.057556698
0.058114025
0.058636677
0.059125195
0.059580102
0.060001839
0.00059932886
0.0018637547
0.0031898331
0.0045733365
0.0060098607
0.0074948741
0.0090237175
0.010591598
0.012193597
0.013824707
0.015479838
0.017153862
0.018841664
0.020538168
0.022238373
0.023937382
0.025630442
0.027312971
0.028980591
0.030629166
0.03225482
0.033853969
0.035423338
0.036959975
0.038461263
0.039924918
0.041348995
0.042731869
0.044072222
0.045369016
0.046621486
0.047829116
0.048991618
0.050108903
0.051181062
0.052208341
0.05319112
0.054129889
0.05502523
0.055877798
0.056688303
0.057457493
0.058186142
0.058875038
0.059524971
0.060136724
0.060711069
0.061248756
0.061750515
0.062217053
0.062649041
0.063047053
0.00065151529
0.0020272168
0.0034708558
0.0049775511
0.0065421954
0.0081595145
0.009824073
0.011530274
0.01327238
0.015044528
0.016840767
0.018655124
0.020481643
0.022314427
0.024147685
0.025975776
0.027793253
0.029594907
0.031375811
0.033131354
0.03485728
0.036549708
0.03820516
0.039820568
0.04139328
0.042921062
0.044402079
0.045834879
0.047218357
0.048551739
0.049834559
0.051066624
0.052247987
0.053378912
0.054459851
0.055491409
0.056474321
0.057409426
0.058297642
0.059139947
0.059937358
0.060690917
0.061401673
0.062070671
0.062698942
0.063287493
0.0638373
0.064349306
0.064824414
0.065263493
0.065667362
0.066036722
0.00070790942
0.0022040608
0.003775085
0.0054153399
0.0071188935
0.0088795953
0.010691091
0.012546834
0.014440091
0.016363978
0.018311539
0.020275788
0.022249775
0.024226643
0.026199689
0.028162422
0.030108626
0.032032415
0.033928283
0.035791153
0.037616414
0.039399947
0.041138141
0.042827905
0.044466659
0.046052323
0.047583293
0.049058395
0.050476856
0.051838277
0.053142593
0.054390033
0.055581079
0.05671643
0.057796965
0.058823713
0.059797814
0.060720499
0.061593059
0.062416824
0.063193142
0.063923363
0.064608824
0.065250835
0.065850671
0.066409566
0.066928697
0.067409195
0.067852135
0.068258537
0.068629364
0.068965433
0.00076890066
0.0023955601
0.0041047668
0.0058899906
0.0077443304
0.009660601
0.011631363
0.013648919
0.015705344
0.017792561
0.019902401
0.022026681
0.024157279
0.026286222
0.028405758
0.030508446
0.032587227
0.034635497
0.036647173
0.038616739
0.040539289
0.04241055
0.04422689
0.045985313
0.047683445
0.0493195
0.05089223
0.052400873
0.053845121
0.055225072
0.056541174
0.057794176
0.05898508
0.060115097
0.061185604
0.062198103
0.06315419
0.064055525
0.064903799
0.065700717
0.066447973
0.067147235
0.067800134
0.068408247
0.068973091
0.069496116
0.069978704
0.070422161
0.070827724
0.071196557
0.071529748
0.071828221
0.00083491265
0.002603107
0.0044623631
0.0064051124
0.0084233133
0.01050856
0.012652101
0.014844861
0.017077515
0.019340548
0.021624351
0.023919318
0.026215961
0.028505012
0.030777535
0.033025036
0.035239555
0.037413758
0.039541008
0.041615419
0.043631889
0.045586115
0.047474588
0.049294568
0.051044047
0.052721689
0.054326753
0.055859047
0.057318871
0.058706945
0.060024343
0.061272438
0.062452838
0.063567337
0.064617868
0.06560646
0.066535201
0.067406205
0.068221588
0.06898344
0.06969381
0.070354687
0.070967994
0.071535565
0.072059156
0.072540427
0.072980949
0.073382193
0.07374554
0.074072283
0.07436362
0.074620572
0.00090640739
0.0028282278
0.0048505803
0.0069646804
0.0091611431
0.01143009
0.0137612
0.016143776
0.018566799
0.021019037
0.023489167
0.02596591
0.028438183
0.030895241
0.033326825
0.0357233
0.038075773
0.040376201
0.042617464
0.044793415
0.046898904
0.048929771
0.050882815
0.052755745
0.054547108
0.056256191
0.057882944
0.059427913
0.060892149
0.062277126
0.063584661
0.06481684
0.065975959
0.06706446
0.068084883
0.06903982
0.069931878
0.070763648
0.071537676
0.072256445
0.072922357
0.073537715
0.074104721
0.074625465
0.075101923
0.075535953
0.075929291
0.07628356
0.07660027
0.076880822
0.077126507
0.077338418
0.00098389008
0.0030726003
0.0052724045
0.0075730911
0.0099636591
0.012432473
0.014967355
0.017555641
0.020184287
0.022840006
0.025509442
0.028179355
0.030836823
0.033469432
0.036065473
0.038614109
0.041105524
0.043531033
0.045883159
0.048155664
0.05034355
0.05244302
0.054451414
0.056367116
0.058189432
0.059918482
0.061555107
0.063100759
0.064557391
0.065927357
0.067213319
0.068418169
0.069544955
0.070596821
0.071576952
0.072488528
0.073334693
0.074118519
0.074842985
0.075510961
0.076125184
0.076688267
0.077202676
0.077670738
0.078094627
0.078476374
0.078817866
0.079120856
0.079386961
0.079617679
0.07981436
0.079978129
0.0010679148
0.0033380775
0.0057311471
0.0082352021
0.010837316
0.01352377
0.016280135
0.019091386
0.021942043
0.024816369
0.027698607
0.030573232
0.03342522
0.036240306
0.039005227
0.04170793
0.044337738
0.046885461
0.049343456
0.051705631
0.053967402
0.056125609
0.058178403
0.060125087
0.061965969
0.06370224
0.06533583
0.066869267
0.068305548
0.069648025
0.070900302
0.072066148
0.073149419
0.074153997
0.075083736
0.075942419
0.076733726
0.077461206
0.07812826
0.078738124
0.079293864
0.079798377
0.080254372
0.080664379
0.081030752
0.08135567
0.081641145
0.081889037
0.082101054
0.082278777
0.082423591
0.082536476
0.0011590916
0.0036267185
0.0062304737
0.0089564015
0.011789294
0.014712908
0.017710102
0.020762999
0.023853197
0.026962042
0.030070953
0.033161766
0.036217093
0.039220654
0.042157574
0.045014633
0.047780432
0.050445493
0.05300228
0.055445155
0.057770273
0.059975438
0.062059904
0.064024177
0.06586985
0.067599418
0.069216092
0.07072364
0.072126238
0.07342834
0.074634571
0.07574963
0.076778221
0.077724982
0.078594446
0.079390996
0.080118838
0.080781976
0.081384214
0.081929135
0.08242011
0.082860278
0.083252564
0.083599674
0.083904115
0.084168184
0.084393986
0.084583474
0.084738397
0.084860474
0.084951179
0.085010373
0.0012581027
0.0039408017
0.0067744582
0.0097427094
0.01282759
0.016009802
0.019268924
0.022583635
0.025932028
0.029291985
0.032641629
0.035959785
0.039226445
0.042423195
0.045533564
0.048543297
0.051440509
0.054215746
0.056861943
0.059374304
0.061750111
0.063988487
0.066090125
0.068057069
0.069892469
0.07160035
0.073185398
0.074652769
0.076007932
0.077256529
0.078404262
0.079456799
0.080419706
0.081298384
0.082098032
0.082823617
0.083479837
0.084071138
0.084601695
0.085075401
0.085495883
0.085866499
0.086190351
0.086470279
0.086708931
0.086908687
0.087071683
0.087199992
0.087295248
0.087359471
0.087393078
0.087398364
0.0013656898
0.0042828632
0.0073676705
0.010600862
0.013961136
0.017425491
0.020969519
0.024567745
0.028194058
0.031822255
0.035426639
0.038982647
0.042467436
0.04586041
0.049143612
0.052301999
0.055323552
0.058199264
0.060923002
0.063491273
0.065902924
0.068158794
0.070261411
0.072214683
0.074023589
0.075693902
0.077231952
0.078644416
0.079938147
0.081120035
0.082196894
0.083175373
0.084061897
0.084862613
0.085583362
0.086229647
0.086806647
0.087319204
0.087771813
0.08816863
0.088513505
0.088809966
0.089061266
0.089270291
0.089439873
0.089572437
0.08966998
0.089734977
0.089768266
0.089772563
0.089749032
0.089698407
0.0014826819
0.0046557482
0.0080152402
0.011538424
0.015199944
0.018972289
0.022826209
0.026731202
0.030656146
0.034570036
0.038442809
0.04224615
0.045954238
0.04954435
0.052997286
0.0562976
0.059433628
0.062397352
0.065184125
0.067792289
0.070222733
0.072478485
0.074564303
0.076486281
0.078251481
0.079867627
0.081342838
0.082685412
0.08390365
0.085005724
0.085999567
0.0868928
0.08769268
0.08840606
0.089039374
0.089598638
0.090089459
0.090517003
0.090886046
0.091200945
0.091465751
0.09168408
0.091859372
0.091994272
0.092092094
0.092155274
0.092184975
0.092184494
0.092155732
0.092098772
0.092015931
0.09190837
0.001610007
0.0050626573
0.0087229468
0.012563915
0.016555263
0.020663971
0.024854888
0.029091452
0.033336573
0.037553667
0.041707735
0.045766412
0.049700857
0.053486428
0.057103088
0.060535538
0.063773104
0.066809426
0.069641986
0.072271543
0.074701592
0.076937832
0.07898764
0.080859598
0.082563089
0.084107952
0.085504212
0.086761853
0.087890658
0.088900082
0.08979916
0.090596446
0.091299976
0.091917252
0.092455261
0.092920472
0.093318836
0.093655787
0.093936348
0.094164963
0.09434593
0.094482744
0.094579403
0.094637226
0.094661188
0.09465293
0.094614319
0.094546982
0.094454388
0.094335599
0.094192857
0.094026914
0.0017487052
0.0055072031
0.0094973297
0.013686974
0.018039782
0.022515977
0.027073225
0.03166766
0.036255138
0.040792645
0.045239713
0.049559724
0.053720938
0.057697195
0.061468224
0.065019613
0.068342475
0.071432886
0.07429117
0.076921186
0.079329629
0.081525338
0.083518677
0.085320997
0.086944196
0.088400363
0.089701497
0.090859302
0.091885037
0.09278941
0.093582511
0.094273759
0.094871897
0.095385021
0.095820601
0.096185453
0.096485832
0.09672732
0.096915252
0.097053828
0.097148003
0.097200233
0.097215272
0.097195522
0.097144519
0.097063218
0.09695433
0.096818948
0.096663619
0.096481964
0.096279327
0.096057012
0.0018999459
0.0059934814
0.010345821
0.014918547
0.019667852
0.024545663
0.029500885
0.034480882
0.039433233
0.044307616
0.049057634
0.053642375
0.058027544
0.062186099
0.066098377
0.069751794
0.073140199
0.07626298
0.079124135
0.081731356
0.084095115
0.086227844
0.08814323
0.089855631
0.091379615
0.092729599
0.093919586
0.094962984
0.095872487
0.096659998
0.09733658
0.097912424
0.098396919
0.09879864
0.099125449
0.099384414
0.099582094
0.099723911
0.099816013
0.099861129
0.099865266
0.099832916
0.099764773
0.09966437
0.099538161
0.099383026
0.099203822
0.099001799
0.098779516
0.098536251
0.098274113
0.0979946
0.0020650507
0.0065261579
0.011276907
0.016271117
0.021455768
0.026772576
0.032159772
0.037554237
0.042893921
0.048120341
0.053180854
0.058030452
0.062632912
0.066961238
0.070997476
0.074732024
0.078162539
0.081292742
0.084131223
0.086690224
0.088984555
0.091030658
0.092845832
0.094447626
0.095853372
0.097079845
0.098143028
0.09905797
0.099838727
0.10049829
0.1010486
0.10150053
0.10186401
0.1021479
0.10236046
0.10250877
0.10260002
0.1026383
0.10263162
0.10258259
0.10249427
0.1023756
0.10222357
0.10204337
0.1018382
0.10160897
0.10136069
0.10109151
0.1008039
0.10049878
0.10017729
0.099839533
0.0022455189
0.0071105743
0.012300326
0.017758982
0.023422101
0.029218794
0.035074317
0.040913089
0.046661999
0.052253636
0.057629031
0.062739608
0.067548193
0.072029103
0.076167476
0.07995801
0.083403438
0.086512965
0.089300672
0.091784059
0.093982798
0.0959177
0.097609902
0.09908026
0.1003489
0.10143493
0.10235622
0.10312936
0.10376965
0.10429102
0.10470624
0.1050267
0.10526271
0.10542319
0.10551701
0.10555048
0.10553199
0.10546507
0.10535833
0.10521227
0.10503187
0.10482285
0.10458841
0.10432777
0.10404441
0.10373953
0.10342452
0.10308803
0.102736
0.10236966
0.10199001
0.10159861
0.0024430607
0.0077528796
0.013427309
0.019398602
0.025588088
0.031909316
0.038271794
0.044585246
0.050764045
0.056731281
0.062421933
0.067784805
0.072783179
0.07739432
0.081608091
0.085425059
0.088854477
0.091912184
0.094618659
0.096997325
0.099073171
0.10087166
0.10241792
0.10373615
0.10484923
0.1057785
0.1065436
0.10716244
0.10765149
0.10802539
0.10829776
0.10848012
0.10858334
0.10861552
0.1085865
0.10850358
0.10837314
0.10819922
0.10798843
0.10774637
0.10747247
0.10717298
0.10685797
0.10651642
0.10615574
0.10577946
0.1053912
0.10498812
0.10457584
0.10414918
0.10371201
0.10326631
0.002659636
0.0084601939
0.014670891
0.021209021
0.027978122
0.034872513
0.041782671
0.048601156
0.055228448
0.061577906
0.067579212
0.073180033
0.078346008
0.08305935
0.087316588
0.091125985
0.094504802
0.097476682
0.10006936
0.10231279
0.10423762
0.10587418
0.10725163
0.10839746
0.10933717
0.11009423
0.1106898
0.11114283
0.11147097
0.11168913
0.11181207
0.11185063
0.11181629
0.11171834
0.11156355
0.11135979
0.11111632
0.11083482
0.1105189
0.11018278
0.1098139
0.1094293
0.10902667
0.10860567
0.10817007
0.10772236
0.10726424
0.10679358
0.10632573
0.10583819
0.10534442
0.10484341
0.0028975042
0.009240813
0.016046285
0.023212386
0.030620334
0.038140679
0.045641016
0.052994117
0.060085424
0.066818837
0.073120144
0.078938007
0.084242837
0.089024209
0.093287628
0.097050989
0.10034109
0.10319051
0.10563505
0.10771164
0.10945689
0.11090602
0.1120922
0.11304606
0.1137955
0.11436596
0.11477986
0.11505657
0.11521558
0.11527054
0.115238
0.1151308
0.11495527
0.11472134
0.11444042
0.11411355
0.11375819
0.11336925
0.11295228
0.11251334
0.11205096
0.11158513
0.11109719
0.11059693
0.11008722
0.10956928
0.10904427
0.1085126
0.10797908
0.10743713
0.10689004
0.10633947
0.0031592843
0.010104469
0.017571371
0.025434612
0.033547307
0.041750659
0.049884946
0.057800496
0.065367003
0.072479912
0.079063347
0.085069821
0.090477504
0.095286255
0.09951309
0.10318756
0.10634752
0.10903556
0.11129618
0.11317367
0.11471068
0.11594725
0.11692046
0.11766378
0.11820713
0.11857788
0.11879945
0.11889019
0.11887246
0.11876084
0.11856783
0.1183089
0.11799188
0.11761891
0.11721348
0.11676695
0.11628889
0.11579667
0.11528047
0.11474196
0.11419114
0.11363414
0.11306578
0.11248942
0.11190734
0.11132083
0.11073086
0.11013818
0.10954457
0.10894827
0.10834915
0.10774873
0.0034480324
0.011062664
0.019267305
0.027906194
0.036796948
0.045744605
0.054557141
0.063059953
0.071107003
0.078587279
0.085426458
0.091584563
0.097051227
0.10183993
0.1059819
0.10952039
0.11250577
0.11499159
0.11703153
0.11867742
0.11997785
0.12097747
0.12171708
0.12223261
0.12255525
0.12271454
0.12273309
0.12263345
0.12243344
0.12214646
0.12179076
0.12137912
0.12092193
0.12041236
0.11986918
0.11931125
0.11871811
0.11811422
0.11749592
0.11686452
0.11622543
0.1155824
0.11493461
0.11428365
0.11363107
0.11297791
0.11232493
0.11167275
0.11102219
0.0037673373
0.012129095
0.02115932
0.030663257
0.040413566
0.050170876
0.059705426
0.068815694
0.077341002
0.085167156
0.092225738
0.098488949
0.1039623
0.10867652
0.11267986
0.11603131
0.11879508
0.12103637
0.12281837
0.12420037
0.12523667
0.12597596
0.12646275
0.12673495
0.12682339
0.12676131
0.12657156
0.12627127
0.12588643
0.12541988
0.1249088
0.12433356
0.12373205
0.12309075
0.12241887
0.12173492
0.12103278
0.12032219
0.11960429
0.11888074
0.11815484
0.11742909
0.11670395
0.1159804
0.11525944
0.11454179
0.11382794
0.11311825
0.11241295
0.0041214446
0.013320222
0.023277746
0.033748872
0.044449201
0.055085105
0.065383461
0.075114766
0.084106306
0.092245532
0.099475692
0.10578697
0.11120572
0.11578386
0.11958951
0.12269926
0.12519224
0.1271458
0.12863262
0.12971916
0.13046503
0.13092189
0.13113837
0.13115203
0.13099888
0.13070517
0.13029915
0.12979289
0.12922528
0.12857985
0.12790097
0.1271764
0.12642105
0.12564377
0.12484851
0.12404479
0.12323331
0.12241914
0.12160433
0.12079058
0.11998007
0.11917449
0.11837451
0.11758077
0.11679383
0.11601406
0.11524167
0.11447673
0.11371909
0.0045154144
0.014656002
0.025659363
0.037214758
0.048965275
0.060551508
0.071651567
0.082008427
0.09144193
0.099847906
0.10718874
0.11347948
0.11877287
0.12314613
0.12668997
0.12950024
0.13167174
0.13329405
0.13444904
0.13520978
0.13564082
0.13579444
0.13572546
0.13547172
0.13506178
0.13453182
0.13390793
0.13319763
0.13243418
0.13162142
0.13076506
0.12988518
0.12898667
0.12807603
0.12715787
0.12623817
0.12531931
0.12440454
0.12349577
0.12259445
0.12170201
0.12081954
0.11994752
0.11908626
0.11823595
0.11739662
0.11656817
0.11575039
0.11494287
0.0049553278
0.016160884
0.028349193
0.041123472
0.054034671
0.066644491
0.078577772
0.089552662
0.099388636
0.10799907
0.11537479
0.12156369
0.12665103
0.13074348
0.13395682
0.13640735
0.13820582
0.13945377
0.14024154
0.14064776
0.14073913
0.14057749
0.14020713
0.13967388
0.13900033
0.13824212
0.13738205
0.13647573
0.13551208
0.13451682
0.13349767
0.13246548
0.13142614
0.13038499
0.12934621
0.12831396
0.12729066
0.12627853
0.12527905
0.12429323
0.1233219
0.12236563
0.12142456
0.12049867
0.11958778
0.11869159
0.1178097
0.11694162
0.1160867
0.0054485561
0.017865157
0.031402892
0.045551267
0.059744366
0.073450698
0.086239209
0.097808886
0.10798912
0.11672288
0.12404074
0.13003264
0.13482297
0.13855183
0.14136202
0.14339084
0.14476471
0.14559633
0.14598344
0.14600731
0.14574472
0.14524642
0.14456335
0.14374766
0.14281249
0.14180558
0.14072876
0.13960209
0.1384475
0.13727609
0.13609574
0.13491441
0.13373747
0.13256923
0.13141309
0.13027197
0.12914774
0.12804184
0.12695517
0.12588825
0.12484136
0.12381454
0.1228076
0.12182011
0.12085156
0.11990133
0.11896871
0.11805294
0.11715313
0.006004122
0.019806814
0.034890017
0.050591856
0.066198842
0.081071702
0.094724075
0.1068451
0.11728842
0.12604207
0.13318998
0.13887455
0.14326635
0.1465425
0.14887378
0.15041821
0.15131682
0.15169209
0.15164775
0.15127019
0.15062761
0.14978488
0.14879365
0.14767482
0.14648263
0.14521968
0.14391305
0.14258172
0.1412391
0.13989509
0.13855673
0.1372301
0.13591951
0.13462822
0.13335866
0.13211269
0.13089147
0.1296957
0.12852564
0.12738127
0.12626233
0.12516841
0.12409887
0.12305295
0.12202978
0.12102839
0.12004781
0.119087
0.11814485
0.0066331862
0.02203418
0.038898519
0.056361438
0.073524598
0.08962772
0.10413265
0.11673397
0.12733025
0.13597437
0.14281946
0.14807137
0.1519532
0.15468197
0.15645661
0.1574544
0.15782899
0.15771162
0.15721213
0.15640326
0.15537061
0.15419263
0.15285868
0.15145989
0.14998171
0.14847166
0.1469431
0.14540999
0.14388322
0.14237096
0.14087894
0.13941157
0.13797194
0.13656216
0.13518363
0.13383724
0.13252332
0.13124182
0.12999238
0.1287744
0.12758712
0.12642962
0.12530088
0.12419977
0.12312507
0.12207549
0.12104974
0.12004656
0.11906461
0.0073497218
0.024609697
0.043541022
0.063005554
0.081876358
0.099258777
0.11457353
0.12754695
0.13815104
0.14652748
0.15291595
0.15759624
0.16084873
0.1629316
0.16407136
0.16446207
0.16426899
0.1636255
0.16264294
0.16138748
0.15997152
0.15842337
0.15677528
0.15505725
0.15331255
0.1515605
0.14981377
0.14808323
0.14637727
0.14470199
0.14306151
0.14145866
0.13989516
0.13837194
0.13688934
0.13544725
0.13404517
0.13268233
0.1313577
0.1300701
0.12881826
0.12760082
0.12641634
0.12526334
0.12414026
0.12304545
0.12197736
0.12093447
0.11991525
0.0081714722
0.027615502
0.048963787
0.070708676
0.091440577
0.11012155
0.12615871
0.13934966
0.14977611
0.15769599
0.16345341
0.16741135
0.16991009
0.17124752
0.1716754
0.17140525
0.17060104
0.16939569
0.16792091
0.16622217
0.16439877
0.16247826
0.16048683
0.15847658
0.15646923
0.15448057
0.15252113
0.1505989
0.1487197
0.14688746
0.14510449
0.14337199
0.14169028
0.14005908
0.13847762
0.13694483
0.13545937
0.13401972
0.13262421
0.13127109
0.12995858
0.12868487
0.12744814
0.12624657
0.12507828
0.12394122
0.12283358
0.12175365
0.12069965
0.0091213623
0.031161855
0.055359726
0.079703254
0.10243597
0.1223867
0.13899893
0.15219664
0.16221517
0.16945818
0.17439119
0.17746711
0.17908579
0.17958046
0.17922747
0.17824032
0.17678488
0.17502118
0.17301895
0.17087183
0.16862557
0.16632175
0.16400801
0.16171032
0.15944625
0.15722777
0.1550625
0.15295551
0.15090999
0.14892758
0.1470087
0.1451529
0.14335906
0.14162565
0.13995082
0.13833254
0.13676862
0.13525682
0.13379482
0.13238034
0.13101107
0.12968479
0.12839931
0.12715249
0.12594216
0.12476581
0.1236214
0.12250703
0.12142072