/*--------------------------------*- C++ -*----------------------------------*\
| =========                 |                                                 |
| \\      /  F ield         | OpenFOAM: The Open Source CFD Toolbox           |
|  \\    /   O peration     | Version:  2312                                  |
|   \\  /    A nd           | Website:  www.openfoam.com                      |
|    \\/     M anipulation  |                                                 |
\*---------------------------------------------------------------------------*/
FoamFile
{
    version     2.0;
    format      ascii;
    arch        "LSB;label=32;scalar=64";
    class       volScalarField;
    location    "0.06";
    object      H2O;
}
// * * * * * * * * * * * * * * * * * * * * * * * * * * * * * * * * * * * * * //

dimensions      [0 0 0 0 0 0 0];

internalField   nonuniform List<scalar> 
3221
(
2.9587726e-05
9.0919266e-05
0.00015328397
0.00021574525
0.00027741557
0.00033751123
0.00039537195
0.00045046157
0.00050236145
0.0005507622
0.00059545236
0.00063630369
0.00067326092
0.00070634917
0.00073569501
0.00076152529
0.00078410862
0.0008036632
0.00082031374
0.0008341613
0.00084545821
0.00085482498
0.00086336703
0.00087243737
0.00088311895
0.00089628111
0.00091385134
0.00093909869
0.00097637328
0.0010265046
0.001086438
0.0011537058
0.0012265869
0.0013041794
0.0013853157
0.0014690126
0.0015549135
0.0016427986
0.0017324772
0.0018238839
0.0019169506
0.0020115762
0.0021076755
0.0022051511
0.00230388
0.0024037255
0.0025045264
0.0026060862
0.0027081737
0.0028105234
0.0029128436
0.0030148366
3.271984e-05
0.00010069951
0.00017023172
0.00024050457
0.00031074339
0.00038026032
0.00044847354
0.00051491031
0.00057920363
0.00064108712
0.00070038765
0.0007570148
0.00081095271
0.00086226269
0.0009110942
0.00095768084
0.0010022994
0.0010452081
0.001086616
0.0011267199
0.0011657992
0.0012043252
0.0012429919
0.0012825769
0.0013236927
0.0013668199
0.0014128718
0.0014633401
0.0015200362
0.0015833949
0.0016523402
0.0017258614
0.0018032467
0.0018840604
0.0019677458
0.0020538091
0.0021420194
0.0022322092
0.0023242248
0.0024179717
0.002513353
0.0026102528
0.00270856
0.0028081537
0.0029088959
0.0030106368
0.0031132091
0.0032164209
0.0033200556
0.0034238726
0.0035276086
0.0036309565
3.7719879e-05
0.00011630103
0.000197227
0.00027986426
0.00036359985
0.00044787897
0.00053222182
0.00061622875
0.00069958082
0.00078203853
0.00086343878
0.00094368898
0.001022761
0.0011006896
0.0011775739
0.0012535706
0.0013288702
0.0014036619
0.001478115
0.00155239
0.0016266716
0.0017012075
0.0017763091
0.0018522909
0.00192939
0.0020077837
0.0020877612
0.0021697808
0.0022543696
0.0023416972
0.0024315346
0.0025236295
0.0026178033
0.0027139304
0.0028118414
0.0029113631
0.0030123881
0.0031148221
0.0032185656
0.0033235323
0.0034296276
0.0035367433
0.0036447666
0.0037535752
0.0038630345
0.0039730002
0.004083315
0.0041938062
0.0043042847
0.0044145464
0.0045243753
0.0046335228
4.339892e-05
0.0001340142
0.00022782793
0.00032436755
0.00042316644
0.00052378864
0.00062584099
0.00072897848
0.00083290717
0.00093738596
0.0010422269
0.0011472936
0.0012524976
0.0013577965
0.0014631912
0.0015687208
0.0016744491
0.0017804475
0.0018867845
0.0019935269
0.0021007478
0.002208536
0.0023169942
0.0024262184
0.0025362761
0.0026472127
0.0027590935
0.0028720233
0.0029861169
0.0031014171
0.003217881
0.0033354505
0.003454079
0.0035737199
0.0036943078
0.0038157663
0.0039380233
0.0040610006
0.0041846115
0.0043087653
0.0044333618
0.0045582908
0.0046834355
0.004808671
0.0049338649
0.0050588776
0.0051835621
0.0053077629
0.0054313161
0.0055540507
0.0056757935
0.0057963589
4.9158875e-05
0.00015196868
0.00025878316
0.00036924316
0.00048298613
0.00059966073
0.00071893388
0.00084049487
0.00096405892
0.0010893707
0.0012162069
0.001344378
0.0014737275
0.0016041312
0.0017354958
0.0018677551
0.002000864
0.002134791
0.0022695119
0.0024050091
0.0025412718
0.0026782978
0.0028160907
0.0029546539
0.0030939836
0.0032340699
0.0033749042
0.0035164851
0.0036588081
0.0038018536
0.0039455821
0.0040899457
0.0042348922
0.0043803621
0.0045262842
0.0046725773
0.0048191535
0.0049659161
0.0051127603
0.0052595747
0.0054062404
0.0055526319
0.0056986183
0.0058440642
0.0059888298
0.0061327719
0.0062757445
0.0064175985
0.0065581823
0.0066973436
0.0068349336
0.0069708076
5.4885649e-05
0.00016980766
0.00028947592
0.00041359719
0.0005418706
0.00067399561
0.00080967495
0.00094861686
0.0010905383
0.0012351688
0.0013822551
0.0015315636
0.0016828831
0.0018360252
0.0019908247
0.0021471379
0.0023048405
0.0024638243
0.0026239938
0.0027852648
0.0029475639
0.0031108271
0.0032749982
0.0034400249
0.0036058566
0.0037724425
0.0039397317
0.0041076726
0.0042762102
0.0044452832
0.0046148224
0.0047847516
0.0049549882
0.0051254421
0.0052960147
0.0054665995
0.005637083
0.0058073446
0.0059772575
0.0061466893
0.0063155031
0.0064835578
0.0066507092
0.0068168112
0.0069817162
0.007145276
0.0073073426
0.0074677684
0.0076264071
0.0077831149
0.0079377541
0.0080901997
6.0675247e-05
0.0001878342
0.00032044248
0.00045823713
0.00060094652
0.00074829457
0.00090000072
0.0010557803
0.001215347
0.0013784165
0.0015447113
0.0017139645
0.0018859234
0.0020603518
0.0022370305
0.0024157584
0.0025963516
0.002778642
0.0029624748
0.003147709
0.0033342157
0.0035218765
0.003710582
0.0039002295
0.0040907211
0.0042819612
0.0044738557
0.0046663102
0.0048592282
0.0050525099
0.0052460515
0.0054397443
0.0056334744
0.0058271231
0.0060205658
0.0062136729
0.0064063101
0.0065983389
0.0067896169
0.0069799991
0.0071693381
0.0073574849
0.00754429
0.0077296039
0.0079132778
0.0080951644
0.0082751184
0.0084529971
0.0086286604
0.0088019726
0.0089728039
0.0091410396
6.6653552e-05
0.00020644662
0.00035238676
0.00050421778
0.00066167513
0.00082448829
0.00099237872
0.0011650587
0.0013422328
0.0015236009
0.0017088629
0.001897723
0.0020898935
0.0022850976
0.0024830711
0.0026835639
0.0028863407
0.0030911792
0.0032978694
0.0035062152
0.0037160318
0.0039271455
0.0041393917
0.0043526137
0.0045666612
0.0047813886
0.0049966535
0.0052123157
0.0054282357
0.0056442741
0.0058602906
0.0060761438
0.0062916904
0.0065067857
0.0067212831
0.0069350345
0.0071478909
0.0073597021
0.0075703179
0.0077795882
0.0079873636
0.008193496
0.0083978391
0.0086002489
0.008800584
0.008998706
0.0091944801
0.0093877749
0.0095784629
0.0097664209
0.0099515313
0.01013369
7.2913681e-05
0.00022594085
0.00038583325
0.00055232627
0.0007251476
0.00090401863
0.0010886512
0.0012787451
0.0014739885
0.0016740607
0.0018786361
0.0020873883
0.0022999944
0.0025161373
0.0027355087
0.0029578106
0.0031827563
0.003410068
0.00363948
0.0038707381
0.0041035985
0.0043378281
0.0045732029
0.0048095077
0.0050465353
0.0052840849
0.0055219621
0.0057599774
0.005997946
0.0062356868
0.0064730224
0.0067097786
0.0069457839
0.0071808699
0.0074148708
0.0076476241
0.0078789701
0.0081087527
0.0083368195
0.0085630217
0.0087872149
0.0090092589
0.0092290181
0.0094463613
0.0096611622
0.009873299
0.010082654
0.010289116
0.010492575
0.010692927
0.010890074
0.011083927
7.9514654e-05
0.00024650561
0.00042111719
0.00060306612
0.00079206158
0.00098780636
0.0011899927
0.001398299
0.001612389
0.0018319141
0.0020565171
0.0022858359
0.0025195072
0.0027571699
0.0029984672
0.0032430498
0.0034905737
0.0037407026
0.0039931101
0.0042474792
0.0045035023
0.0047608818
0.0050193296
0.0052785676
0.0055383272
0.0057983492
0.0060583836
0.0063181895
0.0065775348
0.0068361962
0.0070939591
0.0073506172
0.0076059725
0.0078598351
0.0081120234
0.0083623637
0.0086106904
0.0088568461
0.0091006813
0.0093420544
0.0095808319
0.0098168875
0.010050103
0.010280366
0.010507571
0.010731621
0.010952421
0.011169884
0.011383927
0.011594472
0.011801442
0.012004774
8.6496574e-05
0.0002682698
0.00045846742
0.00065677951
0.00086288813
0.0010764685
0.0012971842
0.0015246829
0.0017585953
0.0019985365
0.0022441094
0.002494908
0.0027505215
0.003010537
0.0032745431
0.0035421303
0.003812891
0.0040864242
0.0043623361
0.0046402403
0.0049197594
0.0052005254
0.0054821814
0.0057643815
0.0060467924
0.006329093
0.0066109759
0.0068921474
0.0071723277
0.007451252
0.0077286699
0.0080043451
0.008278056
0.0085495947
0.0088187678
0.0090853952
0.0093493106
0.0096103606
0.0098684045
0.010123314
0.010374972
0.010623272
0.01086812
0.011109428
0.011347119
0.011581123
0.011811377
0.012037822
0.012260407
0.012479084
0.012693807
0.012904538
9.3893524e-05
0.00029134329
0.000498078
0.00071375408
0.00093801864
0.0011705108
0.0014108563
0.0016586631
0.0019135188
0.0021749926
0.0024426374
0.0027159939
0.0029945936
0.0032779632
0.0035656259
0.0038571017
0.004151912
0.004449582
0.0047496416
0.0050516275
0.005355085
0.00565957
0.0059646508
0.0062699096
0.0065749448
0.0068793716
0.0071828241
0.0074849557
0.0077854408
0.0080839751
0.0083802754
0.0086740796
0.0089651468
0.009253257
0.0095382104
0.0098198271
0.010097946
0.010372426
0.01064314
0.010909981
0.011172856
0.011431684
0.011686401
0.011936951
0.012183289
0.012425381
0.012663197
0.012896716
0.01312592
0.013350797
0.013571335
0.013787532
0.00010174059
0.0003158392
0.00054014794
0.0007742828
0.0010178481
0.0012704383
0.001531632
0.0018009869
0.0020780373
0.0023622949
0.0026532515
0.0029503822
0.00325315
0.0035610085
0.0038734018
0.0041897695
0.0045095508
0.0048321857
0.0051571179
0.0054837979
0.0058116858
0.006140254
0.0064689907
0.0067974024
0.0071250162
0.0074513829
0.0077760782
0.0080987052
0.0084188953
0.0087363092
0.0090506363
0.0093615947
0.0096689314
0.0099724214
0.010271867
0.010567096
0.010857962
0.011144342
0.011426135
0.011703259
0.011975655
0.012243275
0.012506091
0.012764086
0.013017254
0.0132656
0.013509136
0.013747879
0.013981853
0.014211083
0.014435598
0.014655429
0.00011007659
0.00034188287
0.00058489757
0.00083868926
0.0011028114
0.0013768045
0.0016601898
0.0019524637
0.0022530949
0.0025615248
0.0028771705
0.0031994282
0.0035276779
0.0038612832
0.0041995959
0.0045419622
0.0048877244
0.0052362245
0.0055868082
0.0059388292
0.0062916532
0.0066446622
0.0069972589
0.0073488702
0.0076989513
0.0080469884
0.008392502
0.0087350485
0.0090742224
0.0094096561
0.0097410192
0.010068019
0.0103904
0.010707942
0.011020458
0.011327797
0.011629834
0.011926477
0.012217658
0.012503332
0.01278348
0.013058096
0.013327196
0.013590807
0.01384897
0.014101735
0.014349157
0.014591301
0.014828233
0.015060021
0.015286734
0.015508445
0.00011894464
0.00036961383
0.00063257244
0.00090733425
0.0011933932
0.0014902257
0.0017972842
0.0021139913
0.0024397359
0.0027738744
0.0031157331
0.0034646138
0.0038197931
0.0041805277
0.0045460619
0.0049156301
0.0052884616
0.0056637851
0.006040835
0.0064188563
0.0067971109
0.0071748832
0.0075514855
0.0079262634
0.0082986
0.0086679204
0.0090336943
0.0093954389
0.0097527204
0.010105152
0.010452395
0.010794156
0.01113019
0.011460293
0.011784304
0.012102101
0.012413597
0.012718738
0.013017502
0.013309891
0.013595933
0.013875675
0.014149184
0.014416537
0.014677828
0.014933157
0.01518263
0.015426359
0.015664458
0.01589704
0.016124218
0.016346108
0.0001283918
0.00039918501
0.00068344242
0.00098061513
0.0012901279
0.0016113819
0.001943748
0.0022865599
0.002639111
0.0030006546
0.0033704092
0.003747558
0.0041312539
0.004520629
0.0049147975
0.0053128619
0.0057139194
0.0061170685
0.0065214169
0.0069260887
0.0073302323
0.007733028
0.0081336946
0.0085314962
0.0089257471
0.0093158166
0.0097011323
0.010081183
0.010455517
0.010823741
0.011185522
0.011540583
0.0118887
0.012229704
0.012563471
0.012889924
0.013209024
0.013520773
0.013825201
0.014122369
0.014412364
0.014695292
0.014971278
0.015240458
0.015502982
0.015759005
0.016008689
0.016252197
0.016489692
0.016721337
0.016947288
0.017167704
0.00013846865
0.00043076155
0.00073779996
0.0010589636
0.0013935975
0.0017410147
0.0021004896
0.0024712499
0.0028524742
0.0032432938
0.0036427924
0.0040500103
0.0044639558
0.0048836095
0.0053079309
0.0057358673
0.006166362
0.0065983641
0.0070308385
0.0074627757
0.0078932022
0.0083211891
0.008745861
0.0091664034
0.0095820683
0.009992179
0.010396133
0.010793405
0.011183539
0.011566154
0.011940938
0.012307647
0.012666098
0.013016171
0.013357797
0.013690959
0.014015681
0.014332029
0.014640103
0.014940032
0.015231968
0.015516086
0.015792575
0.016061638
0.016323485
0.016578331
0.016826396
0.017067897
0.017303049
0.017532062
0.017755141
0.017972489
0.00014922892
0.00046451994
0.00079595887
0.0011428446
0.0015044301
0.0018799258
0.0022684917
0.00266923
0.0030811832
0.0035033309
0.0039345939
0.0043738459
0.0048199187
0.0052716114
0.0057277003
0.0061869504
0.0066481272
0.0071100098
0.0075714038
0.0080311547
0.0084881595
0.0089413787
0.0093898454
0.0098326735
0.010269064
0.010698308
0.01111979
0.011532986
0.011937459
0.012332856
0.012718909
0.013095426
0.013462286
0.013819435
0.014166878
0.01450467
0.014832917
0.015151761
0.015461382
0.015761986
0.016053802
0.01633708
0.01661208
0.016879075
0.01713834
0.017390155
0.017634797
0.01787254
0.018103653
0.018328394
0.018547016
0.018759764
0.00016072933
0.00050064775
0.00085825417
0.0012327559
0.0016233002
0.0020289773
0.0024488127
0.0028817602
0.0033266945
0.0037824123
0.0042476437
0.0047210583
0.0052012764
0.0056868808
0.0061764318
0.0066684816
0.007161592
0.0076543508
0.0081453888
0.0086333964
0.0091171383
0.0095954661
0.010067329
0.010531782
0.010987991
0.011435236
0.011872908
0.012300508
0.012717636
0.013123997
0.013519387
0.01390369
0.014276867
0.014638951
0.014990036
0.015330271
0.015659852
0.015979014
0.016288025
0.016587179
0.016876789
0.017157186
0.017428707
0.017691697
0.017946502
0.018193466
0.018432928
0.018665218
0.018890658
0.019109555
0.019322207
0.019528903
0.00017302957
0.0005393439
0.00092504293
0.0013292303
0.0017509314
0.0021890961
0.0026425922
0.0031101915
0.003590567
0.0040823002
0.0045838882
0.0050937555
0.0056102688
0.0061317548
0.0066565198
0.007182871
0.0077091388
0.008233699
0.0087549945
0.0092715548
0.0097820131
0.010285121
0.010779757
0.011264936
0.011739812
0.012203678
0.012655958
0.013096201
0.013524078
0.013939374
0.014341978
0.014731873
0.015109124
0.01547387
0.015826315
0.016166714
0.016495369
0.016812619
0.01711883
0.017414392
0.017699709
0.017975196
0.018241273
0.01849836
0.018746874
0.018987226
0.019219814
0.019445028
0.019663238
0.019874802
0.020080058
0.020279337
0.00018619246
0.00058081938
0.00099670586
0.0014328381
0.0018881007
0.0023612805
0.0028510529
0.003355972
0.0038744727
0.0044048743
0.0049453929
0.0054941582
0.0060492351
0.0066086481
0.0071704082
0.0077325424
0.0082931229
0.0088502951
0.0094023045
0.0099475196
0.01048445
0.011011763
0.011528288
0.012033026
0.012525149
0.01300399
0.013469037
0.013919921
0.014356416
0.014778416
0.01518593
0.015579065
0.015958012
0.016323039
0.016674472
0.017012691
0.017338116
0.017651198
0.017952412
0.018242248
0.018521206
0.018789791
0.019048507
0.019297849
0.019538308
0.019770359
0.019994464
0.020211065
0.020420585
0.020623421
0.02081995
0.021010541
0.00020028411
0.00062529829
0.0010736497
0.0015441914
0.0020356459
0.002546603
0.0030755089
0.0036206606
0.0041802032
0.004752139
0.0053343454
0.0059245995
0.006520608
0.0071200413
0.0077205708
0.0083199079
0.008915841
0.0095062715
0.010089245
0.010662975
0.011225866
0.011776524
0.01231376
0.012836595
0.013344254
0.013836144
0.014311855
0.01477114
0.015213904
0.015640185
0.01605014
0.016444023
0.016822177
0.017185013
0.017533002
0.017866656
0.018186526
0.018493183
0.018787217
0.019069224
0.019339804
0.019599551
0.019849053
0.020088886
0.020319608
0.020541762
0.020755869
0.020962423
0.021161894
0.021354721
0.0215413
0.021722028
0.00021537422
0.00067301927
0.0011563106
0.0016639504
0.0021944676
0.0027462187
0.0033173799
0.0039059353
0.0045096792
0.0051262306
0.0057530601
0.0063875237
0.0070269059
0.0076684665
0.0083094909
0.0089473402
0.0095794987
0.010203617
0.010817545
0.011419362
0.012007392
0.012580214
0.013136661
0.013675816
0.014196993
0.014699721
0.015183732
0.015648941
0.016095421
0.016523385
0.016933165
0.01732519
0.017699972
0.018058086
0.018400157
0.018726846
0.01903884
0.019336838
0.019621548
0.019893677
0.020153921
0.02040297
0.020641493
0.020870143
0.021089548
0.021300311
0.02150301
0.021698192
0.021886373
0.022068037
0.022243561
0.022413331
0.00023153642
0.00072423745
0.0012451589
0.0017928252
0.0023655381
0.0029613808
0.0035782014
0.0042136052
0.0048649612
0.005529426
0.0062039812
0.0068854839
0.0075707244
0.0082564915
0.008939638
0.0096171447
0.010286178
0.010944141
0.011588706
0.012217846
0.012829844
0.013423298
0.013997111
0.014550474
0.01508284
0.01559391
0.016083606
0.016552042
0.016999497
0.017426392
0.017833259
0.018220727
0.018589495
0.018940317
0.019273986
0.019591317
0.019893142
0.020180292
0.020453595
0.020713866
0.020961903
0.021198485
0.021424365
0.021640265
0.021846879
0.02204487
0.022234866
0.02241747
0.02259323
0.022762743
0.022926265
0.023083924
0.00024884875
0.00077922774
0.0013406993
0.0019315822
0.0025499148
0.0031934493
0.0038596371
0.0045456232
0.0052482613
0.0059641496
0.006689686
0.0074211383
0.0081547249
0.008886701
0.0096134433
0.01033153
0.011037806
0.011729443
0.012403967
0.013059289
0.013693702
0.014305881
0.014894851
0.015459967
0.016000884
0.016517526
0.017010051
0.017478815
0.017924338
0.018347279
0.0187484
0.019128545
0.019488621
0.019829571
0.020152364
0.02045798
0.020747394
0.021021571
0.021281461
0.021527987
0.021762047
0.021984503
0.022196187
0.022397881
0.022590351
0.022774315
0.02295043
0.023119372
0.023281637
0.023438264
0.023589188
0.023732735
0.00026739585
0.00083828363
0.0014434761
0.002081057
0.0027487491
0.0034439051
0.004163494
0.0049041011
0.0056619551
0.0064329821
0.0072128855
0.007997244
0.0087816208
0.0095616757
0.010333273
0.011092576
0.011836122
0.01256088
0.01326428
0.013944227
0.014599093
0.01522769
0.015829233
0.016403311
0.01694984
0.017469023
0.017961301
0.018427313
0.018867858
0.019283858
0.019676328
0.020046349
0.020395043
0.020723555
0.021033037
0.021324633
0.021599464
0.021858631
0.022103202
0.022334206
0.022552633
0.02275942
0.022955482
0.023141628
0.023318727
0.023487559
0.023648717
0.023803091
0.023950588
0.024094005
0.024228214
0.02436126
0.00028726488
0.00090172054
0.001554083
0.0022421613
0.002963299
0.0037143645
0.0044917387
0.005291325
0.0061085942
0.0069386665
0.0077764247
0.0086166485
0.0094541603
0.010283969
0.0111014
0.011902206
0.012682646
0.013439539
0.014170283
0.014872854
0.015545775
0.016188073
0.016799234
0.017379152
0.017928068
0.018446519
0.018935278
0.019395308
0.019827714
0.020233712
0.020614586
0.020971668
0.021306307
0.021619857
0.021913652
0.022188998
0.022447168
0.022689392
0.022916852
0.023130675
0.023331948
0.023521648
0.02370082
0.023870157
0.024030785
0.024183605
0.02432873
0.024468185
0.024598455
0.024727733
0.024847844
0.024966655
0.00030854973
0.00096988117
0.0016731677
0.002415893
0.0031949438
0.0040065977
0.0048465166
0.0057097723
0.0065909191
0.0074841151
0.0083832801
0.0092822785
0.010175109
0.011056081
0.011919975
0.012762155
0.013578655
0.014366214
0.015122287
0.015845006
0.016533134
0.017186007
0.017803466
0.018385785
0.018933598
0.019447829
0.019929629
0.020380319
0.020801345
0.021194232
0.021560553
0.021901898
0.022219853
0.022515977
0.022791788
0.023048755
0.0232883
0.023511765
0.023720448
0.023915556
0.024098323
0.024269618
0.024430891
0.024582107
0.024725259
0.02486172
0.024989089
0.025111393
0.025226686
0.02534006
0.025447451
0.025551461
0.0003313515
0.0010431384
0.0018014389
0.0026033491
0.0034452007
0.0043225483
0.0052301723
0.0061621308
0.0071118729
0.0080724143
0.009036556
0.0099971272
0.010947226
0.011880434
0.012790997
0.013673942
0.014525152
0.015341387
0.016120254
0.016860148
0.017560181
0.018220098
0.018840185
0.019421173
0.019964151
0.020470486
0.020941747
0.021379649
0.021785999
0.022162652
0.022511479
0.022834335
0.023133042
0.023409361
0.023664998
0.023901574
0.024120657
0.024323671
0.024512059
0.024687022
0.024850197
0.02500169
0.025144723
0.025276021
0.025400567
0.025518036
0.025629064
0.025735427
0.025835416
0.025932195
0.026024924
0.026114735
0.00035577883
0.0011218994
0.0019396762
0.0028057405
0.0037157458
0.0046643574
0.0056452741
0.0066513192
0.0076746145
0.0087068291
0.0097394784
0.010764238
0.011773245
0.012759344
0.013716287
0.014638843
0.01552285
0.016365204
0.017163786
0.017917378
0.018625563
0.019288602
0.019907315
0.020482967
0.021017167
0.021511771
0.021968808
0.022390412
0.022778771
0.023136081
0.023464519
0.023766202
0.024043187
0.024297433
0.024530838
0.024745128
0.024942074
0.025123062
0.02528984
0.025443166
0.025586345
0.025715681
0.025838205
0.025950477
0.026056372
0.026156066
0.026249893
0.026339258
0.026421826
0.026502723
0.026580106
0.026654564
0.00038194879
0.0012066104
0.0020887413
0.0030244104
0.0040084378
0.0050343915
0.0060946412
0.0071805099
0.0082825331
0.0093908074
0.010495388
0.011586691
0.012655848
0.013694994
0.014697459
0.015657867
0.016572145
0.01743746
0.018252113
0.019015423
0.019727566
0.020389429
0.021002459
0.021568529
0.022089826
0.022568744
0.0230078
0.023409567
0.023776632
0.024111535
0.024416761
0.024694676
0.024947594
0.02517762
0.025386896
0.025577107
0.025750478
0.025907885
0.02605221
0.026181586
0.026302855
0.026410718
0.026512985
0.026606996
0.026692226
0.026773268
0.026849101
0.026920436
0.026987304
0.027051548
0.027113183
0.027172556
0.00040998807
0.0012977634
0.0022495918
0.0032608564
0.0043253474
0.0054352747
0.0065813752
0.0077531542
0.0089392639
0.010127982
0.011307732
0.012467579
0.013597643
0.014689407
0.015735897
0.016731734
0.017673092
0.018557581
0.019384098
0.020152644
0.020864123
0.021520159
0.022122916
0.022674948
0.023179073
0.023638264
0.024055544
0.024433941
0.024776454
0.025085956
0.025365254
0.025616921
0.025843592
0.026047351
0.026230855
0.026395159
0.026544028
0.026675856
0.026794708
0.026901901
0.027000947
0.027087114
0.027167936
0.027241215
0.027307717
0.027369451
0.027426531
0.027479994
0.027530218
0.027578066
0.027623982
0.027668507
0.00044003442
0.0013959041
0.0024232981
0.0035167573
0.0046687921
0.0058699277
0.0071088965
0.0083730107
0.0096487036
0.010922175
0.012180054
0.013409995
0.014601139
0.015744424
0.016832724
0.01786084
0.018825387
0.019724624
0.020558226
0.021327034
0.022032817
0.022678047
0.023265695
0.023799059
0.024281635
0.02471701
0.025108724
0.025460251
0.025775042
0.026056234
0.026307055
0.026530086
0.026728595
0.026904002
0.027060676
0.027196631
0.027317828
0.02742581
0.027519245
0.02760342
0.027678215
0.027743456
0.027801838
0.027854104
0.027900912
0.02794355
0.027981574
0.028017242
0.028050609
0.028082117
0.028112313
0.028141604
0.00047223831
0.0015016411
0.0026110644
0.0037940064
0.0050413789
0.0063416141
0.0076809868
0.0090441771
0.010415028
0.011777399
0.013115985
0.014417011
0.015668723
0.01686167
0.017988774
0.019045236
0.020028356
0.020937263
0.021772599
0.022536216
0.023230884
0.023860031
0.024427524
0.024937454
0.025394035
0.025801511
0.026163914
0.026485127
0.026769161
0.027019217
0.027239296
0.027431243
0.027600277
0.027744622
0.027871405
0.027979865
0.028074227
0.02815574
0.028224736
0.028283805
0.028334518
0.028377548
0.028413415
0.028444616
0.028471346
0.028494409
0.028514279
0.02853212
0.028548429
0.028563666
0.028578285
0.02859267
0.00050676504
0.0016156583
0.0028142552
0.0040947524
0.0054460567
0.0068539953
0.0083018384
0.0097711272
0.011242715
0.012697863
0.014119233
0.015491658
0.016802633
0.018042526
0.019204555
0.020284607
0.021280932
0.022193764
0.023024922
0.023777435
0.024455206
0.025062734
0.025604859
0.026086501
0.026512607
0.02688816
0.027217615
0.02750509
0.027755623
0.027971652
0.02815936
0.028317112
0.028453285
0.028567121
0.028664389
0.028744672
0.028810657
0.028864749
0.028908155
0.028941639
0.028968265
0.028988173
0.029002339
0.029012271
0.029018704
0.029022372
0.029023905
0.02902411
0.029023569
0.029022724
0.029021989
0.029021728
0.00054379733
0.0017387302
0.0030344286
0.0044214517
0.0058861797
0.0074111968
0.008976112
0.010558753
0.012136563
0.013687976
0.015193576
0.016636908
0.018004925
0.019288086
0.02048023
0.021578245
0.022581625
0.023491968
0.024312482
0.025047543
0.025702313
0.026282457
0.026793895
0.027242361
0.027633492
0.02797324
0.028266322
0.028516502
0.028731476
0.028909887
0.029061394
0.029185318
0.029288938
0.029371633
0.029437156
0.029487866
0.029524586
0.02955101
0.029567911
0.029576443
0.02957858
0.029575308
0.029567498
0.029556306
0.029542584
0.029527048
0.029510348
0.02949315
0.029476011
0.029459374
0.029443573
0.029428951
0.00058353848
0.001871741
0.0032733781
0.0047769323
0.0063655867
0.0080178886
0.0097090064
0.011412414
0.013101724
0.01475236
0.016342852
0.017855647
0.019277436
0.020599131
0.021815567
0.022924997
0.023928479
0.024829247
0.025632123
0.026342987
0.026968369
0.027515179
0.027990575
0.028401018
0.028752621
0.029052925
0.029306709
0.029515257
0.029690126
0.02983127
0.029946737
0.030035831
0.030104225
0.030154129
0.030187132
0.030207276
0.030215139
0.030213407
0.0302036
0.030186771
0.030164605
0.03013818
0.030108431
0.03007633
0.030042695
0.030008224
0.029973543
0.029939241
0.029905841
0.02987378
0.029843248
0.029814614
0.00062621633
0.0020157096
0.003533187
0.0051644758
0.0068886989
0.0086793828
0.010506342
0.012338002
0.014143741
0.015895857
0.017570951
0.01915064
0.020621744
0.021976071
0.023209889
0.024323213
0.025319018
0.026202467
0.02698021
0.027659789
0.02824917
0.02875653
0.029190605
0.029558372
0.029865637
0.030123233
0.030331136
0.030498352
0.030632851
0.030735632
0.030812049
0.03086389
0.030896422
0.030912362
0.030913144
0.030902183
0.030880578
0.030850698
0.03081406
0.030771912
0.030725622
0.030676276
0.030624805
0.030572082
0.030518865
0.030465812
0.030413505
0.030362474
0.030313203
0.00067208822
0.0021718216
0.0038162985
0.0055879222
0.0074606425
0.009401754
0.011374661
0.013342012
0.015268592
0.017123554
0.01888179
0.02052449
0.02203911
0.023418875
0.024661984
0.025770662
0.026750178
0.027607922
0.028352594
0.02899353
0.029540165
0.030001752
0.030389458
0.030710436
0.030967712
0.0311768
0.031340396
0.031465191
0.031555935
0.031617663
0.031653332
0.031667846
0.031664066
0.031645303
0.031613289
0.031570911
0.031519793
0.031461843
0.031398577
0.03133127
0.031261136
0.031189207
0.031116368
0.031043413
0.030971035
0.030899835
0.03083034
0.03076302
0.030698281
0.00072144715
0.002341471
0.0041256057
0.0060518028
0.008087403
0.010191989
0.01232136
0.014431644
0.016482751
0.018440784
0.020279289
0.021979589
0.023530394
0.024926962
0.026169998
0.027264431
0.028218221
0.02904128
0.029744564
0.030339337
0.030836517
0.031245595
0.031582324
0.031848037
0.032055323
0.032216196
0.032331679
0.032410192
0.032455447
0.032474464
0.0324696
0.032445502
0.032404856
0.032351007
0.032286082
0.03221244
0.032131867
0.032046072
0.031956495
0.031864367
0.031770794
0.031676727
0.031582986
0.031490287
0.031399251
0.031310415
0.031224244
0.031141141
0.031061449
0.00077462964
0.0025263158
0.0044645723
0.0065615131
0.008776021
0.011058178
0.013354853
0.01561493
0.017793268
0.01985315
0.021767341
0.023518018
0.025095912
0.026499051
0.027731294
0.028800806
0.029718644
0.030497517
0.031150816
0.031691855
0.0321333
0.032482111
0.032760025
0.032971984
0.033127647
0.033235195
0.033299496
0.033329625
0.033329224
0.033304493
0.0332581
0.03319465
0.033117054
0.033028219
0.032930414
0.032825765
0.032716028
0.032602771
0.032487336
0.03237087
0.032254379
0.032138724
0.032024644
0.031912775
0.031803663
0.031697771
0.031595497
0.031497178
0.0314031
0.00083202558
0.0027283517
0.0048373905
0.0071235392
0.0095348463
0.012009762
0.014484793
0.016900908
0.019207852
0.021366536
0.023349726
0.025141395
0.026735248
0.028132963
0.029342274
0.030375138
0.031246086
0.031970864
0.03256542
0.033045162
0.033418577
0.033706952
0.033925646
0.034078472
0.034177201
0.034228549
0.034241345
0.034221686
0.034174365
0.034104791
0.034016676
0.033913844
0.033799296
0.033675718
0.033545332
0.033410098
0.033271672
0.033131491
0.032990781
0.032850588
0.032711809
0.03257521
0.032441442
0.032311056
0.032184514
0.032062205
0.031944457
0.031831539
0.031723679
0.00089409095
0.0029500124
0.0052491956
0.0077457546
0.01037387
0.013057863
0.015722376
0.01829984
0.020734996
0.022987087
0.025029965
0.026850629
0.028446978
0.02982537
0.030998183
0.031981699
0.032794254
0.033454785
0.033981849
0.034386974
0.034693133
0.034918653
0.035071488
0.035160628
0.035199411
0.035194343
0.035153727
0.03508294
0.034987981
0.034873601
0.03474364
0.034601603
0.034450394
0.034292516
0.034130065
0.033964843
0.03379837
0.033631946
0.033466669
0.033303469
0.033143131
0.03298632
0.032833589
0.032685402
0.032542137
0.032404103
0.032271552
0.032144689
0.032023682
0.0009613642
0.0031943093
0.0057063582
0.0084378206
0.011305168
0.014215738
0.01708076
0.019823525
0.022384089
0.024721115
0.026811049
0.028645566
0.030228314
0.031571495
0.032692892
0.033613563
0.034355868
0.034941981
0.035386541
0.035718134
0.035954416
0.036107835
0.036190184
0.036215038
0.036191854
0.036128613
0.036032878
0.035910903
0.035768111
0.035609056
0.035437496
0.035256691
0.035069371
0.034877844
0.03468404
0.034489592
0.034295864
0.034104008
0.033914985
0.033729597
0.033548516
0.033372296
0.033201394
0.033036181
0.032876947
0.03272392
0.032577275
0.03243715
0.032303655
0.0010344878
0.0034650272
0.0062168888
0.0092117302
0.012343518
0.015499424
0.018575374
0.021485063
0.024164738
0.026574202
0.028694596
0.030524365
0.032074648
0.033364788
0.034418706
0.035262516
0.035922662
0.036417396
0.036781385
0.03703424
0.037191362
0.0372677
0.037279277
0.037237049
0.037150007
0.037027461
0.036876542
0.036703293
0.036512868
0.036309579
0.036096991
0.035878118
0.035655472
0.035431146
0.035206881
0.034984121
0.034764065
0.034547703
0.034335853
0.034129185
0.033928248
0.033733487
0.033545258
0.033363839
0.033189433
0.033022178
0.032862175
0.032709494
0.032564187
0.0011142371
0.0037670074
0.0067910093
0.01008257
0.013507274
0.016928005
0.020223377
0.023297831
0.026085497
0.028549897
0.030679686
0.032482567
0.033978978
0.035196609
0.036166222
0.036919046
0.037477617
0.03788418
0.038158595
0.038324113
0.038396701
0.038395196
0.038333508
0.038221534
0.03807034
0.037888279
0.037682276
0.037458116
0.037220643