/*--------------------------------*- C++ -*----------------------------------*\
| =========                 |                                                 |
| \\      /  F ield         | OpenFOAM: The Open Source CFD Toolbox           |
|  \\    /   O peration     | Version:  2312                                  |
|   \\  /    A nd           | Website:  www.openfoam.com                      |
|    \\/     M anipulation  |                                                 |
\*---------------------------------------------------------------------------*/
FoamFile
{
    version     2.0;
    format      ascii;
    arch        "LSB;label=32;scalar=64";
    class       volScalarField;
    location    "0.06";
    object      k;
}
// * * * * * * * * * * * * * * * * * * * * * * * * * * * * * * * * * * * * * //

dimensions      [0 2 -2 0 0 0 0];

internalField   nonuniform List<scalar> 
3221
(
10.985371
10.941918
10.901825
10.867976
10.83905
10.813731
10.791498
10.772357
10.756462
10.743885
10.734553
10.72827
10.724742
10.72362
10.724585
10.727446
10.732096
10.73845
10.74635
10.755548
10.765721
10.776552
10.787875
10.799668
10.811604
10.822578
10.83179
10.838594
10.844253
10.849126
10.852415
10.855107
10.857984
10.86205
10.867211
10.873296
10.880629
10.889179
10.898751
10.909334
10.920841
10.933131
10.946142
10.959803
10.974029
10.988765
11.003956
11.019537
11.035442
11.051597
11.067902
11.084254
10.970595
10.91807
10.873187
10.835125
10.802194
10.773343
10.748249
10.726964
10.709584
10.696084
10.686292
10.679922
10.676619
10.676004
10.677716
10.681525
10.687259
10.694797
10.703992
10.714662
10.726578
10.739492
10.753209
10.767627
10.782549
10.797493
10.811899
10.82522
10.837538
10.849016
10.859633
10.869847
10.880086
10.890838
10.902217
10.914228
10.927017
10.940584
10.954846
10.969778
10.985306
11.001332
11.01779
11.034612
11.051723
11.069068
11.086599
11.104265
11.122017
11.139801
11.157548
11.175181
10.957944
10.885361
10.823958
10.772106
10.727906
10.690026
10.657757
10.630746
10.608739
10.591437
10.578476
10.569445
10.563925
10.561516
10.56186
10.564672
10.569774
10.576998
10.586199
10.597228
10.609928
10.624143
10.639722
10.656548
10.674499
10.693378
10.712929
10.732852
10.752948
10.773104
10.793241
10.813401
10.833663
10.854141
10.874883
10.895891
10.917181
10.938733
10.960496
10.982431
11.004487
11.026604
11.048734
11.070823
11.092812
11.114646
11.13628
11.157673
11.178791
11.199597
11.220052
11.240109
10.948449
10.858351
10.780698
10.71407
10.656864
10.607815
10.566064
10.531005
10.502128
10.478931
10.460907
10.447553
10.438396
10.433011
10.431034
10.432149
10.436116
10.442766
10.451909
10.463387
10.477043
10.492736
10.510339
10.529736
10.550804
10.573404
10.59738
10.622551
10.648738
10.675783
10.703533
10.731861
10.760661
10.789851
10.819359
10.849114
10.879034
10.909041
10.93905
10.968983
10.998761
11.028304
11.057538
11.086394
11.114806
11.142713
11.170061
11.1968
11.222888
11.248289
11.272972
11.296904
10.941938
10.839096
10.748931
10.670268
10.601854
10.542653
10.491866
10.448835
10.412952
10.383625
10.360272
10.342341
10.329328
10.320786
10.316331
10.315639
10.318401
10.324448
10.333556
10.345531
10.360201
10.377406
10.396994
10.418818
10.442728
10.468574
10.496198
10.525434
10.55611
10.588057
10.621105
10.655084
10.689834
10.725201
10.761041
10.797221
10.833609
10.870082
10.906519
10.942805
10.978832
11.014495
11.049698
11.084346
11.118357
11.151656
11.18417
11.215838
11.246606
11.276426
11.30526
11.33307
10.93775
10.826539
10.727924
10.640853
10.564311
10.497483
10.439709
10.39039
10.34893
10.314724
10.287174
10.265715
10.249825
10.239043
10.232966
10.231246
10.233542
10.23964
10.249314
10.262321
10.278455
10.297524
10.31934
10.343717
10.370473
10.399422
10.430378
10.463155
10.497563
10.533412
10.57051
10.608667
10.6477
10.687426
10.727678
10.768292
10.809112
10.84999
10.890783
10.931357
10.971585
11.011351
11.050543
11.089061
11.126809
11.163699
11.199653
11.2346
11.268477
11.301228
11.332809
11.363176
10.935204
10.81889
10.715052
10.622669
10.540866
10.468994
10.406535
10.352991
10.307826
10.270471
10.240347
10.21689
10.19958
10.187943
10.18156
10.18006
10.183058
10.190341
10.201629
10.216642
10.23514
10.256891
10.281665
10.309241
10.339395
10.371904
10.406547
10.443104
10.481353
10.521075
10.562053
10.604073
10.64693
10.690424
10.734364
10.778565
10.822853
10.867064
10.911044
10.954646
10.997737
11.040191
11.081894
11.122741
11.162635
11.20149
11.239227
11.275777
11.311079
11.345079
11.377733
11.409003
10.933788
10.814668
10.707938
10.612571
10.527769
10.452998
10.387865
10.331975
10.284872
10.246042
10.214941
10.191025
10.173777
10.16272
10.157419
10.157479
10.162468
10.172213
10.186324
10.204507
10.226482
10.251973
10.280709
10.312425
10.346856
10.383741
10.422816
10.463823
10.506503
10.550604
10.595876
10.642078
10.688978
10.73635
10.783981
10.831669
10.87922
10.926458
10.973217
11.019341
11.064693
11.109143
11.152576
11.194888
11.235987
11.275792
11.314231
11.351243
11.386775
11.420785
11.453235
11.4841
10.933184
10.812921
10.705015
10.608419
10.522376
10.446438
10.380308
10.323686
10.2762
10.237394
10.206768
10.183802
10.167992
10.158857
10.15595
10.158805
10.167092
10.180495
10.198618
10.22113
10.247706
10.278027
10.311779
10.348648
10.38832
10.430484
10.474834
10.521067
10.568886
10.618
10.668128
10.718996
10.770341
10.821913
10.873476
10.924806
10.975697
11.025956
11.075408
11.123891
11.171264
11.217395
11.262172
11.305495
11.347277
11.387447
11.425943
11.462716
11.497725
11.530943
11.562346
11.591926
10.93322
10.813132
10.705422
10.609018
10.523191
10.447553
10.381884
10.325967
10.279502
10.242093
10.213281
10.192576
10.179485
10.17353
10.17424
10.18113
10.193945
10.212196
10.235494
10.263462
10.295728
10.33192
10.371673
10.414621
10.460403
10.508661
10.559038
10.611189
10.664771
10.719454
10.774919
10.83086
10.886984
10.943015
10.998696
11.053785
11.108061
11.161321
11.213381
11.264079
11.313269
11.360824
11.406635
11.45061
11.492673
11.532761
11.570828
11.606839
11.64077
11.672609
11.702352
11.730006
10.933814
10.815056
10.708747
10.613797
10.529493
10.455491
10.391638
10.337785
10.293694
10.259028
10.233364
10.216238
10.207169
10.205676
10.211204
10.223451
10.241925
10.266166
10.295744
10.330231
10.369201
10.412231
10.458897
10.508779
10.561459
10.616525
10.67357
10.732199
10.792025
10.852678
10.9138
10.975054
11.03612
11.096698
11.156511
11.215305
11.272847
11.328928
11.383363
11.435989
11.486664
11.535269
11.581704
11.625888
11.667759
11.70727
11.744391
11.779105
11.811408
11.841306
11.868817
11.893968
10.934933
10.818595
10.714834
10.622542
10.541018
10.469956
10.409253
10.358816
10.318464
10.287901
10.26674
10.254538
10.250818
10.255029
10.266766
10.285585
10.310946
10.342366
10.379364
10.421455
10.468154
10.518975
10.573433
10.631045
10.691333
10.753827
10.818067
10.883606
10.950013
11.016877
11.083807
11.150433
11.216414
11.281431
11.345192
11.407435
11.467923
11.526448
11.582828
11.636906
11.688552
11.737659
11.784143
11.827941
11.869008
11.907318
11.942862
11.975645
12.005684
12.03301
12.057662
12.079689
10.936567
10.82372
10.723634
10.635186
10.557687
10.490859
10.434643
10.388996
10.353779
10.328735
10.313502
10.307648
10.310648
10.322021
10.341372
10.368092
10.40165
10.44151
10.487127
10.537951
10.593429
10.653003
10.716118
10.782224
10.850776
10.921243
10.993109
11.065877
11.139072
11.212244
11.284972
11.356861
11.427552
11.496714
11.564049
11.629294
11.692216
11.752614
11.810318
11.865188
11.917112
11.966002
12.011796
12.054455
12.093958
12.130307
12.163515
12.193615
12.22065
12.244676
12.265756
12.283966
10.938715
10.830436
10.735156
10.651746
10.579527
10.518249
10.46789
10.428449
10.399825
10.381788
10.373992
10.375976
10.387212
10.407363
10.435763
10.471841
10.515008
10.564657
10.620169
10.680915
10.746261
10.815569
10.888205
10.963543
11.040969
11.119887
11.199723
11.279933
11.359999
11.439439
11.517806
11.59469
11.66972
11.742563
11.812924
11.880548
11.945216
12.006746
12.064989
12.11983
12.171181
12.218985
12.263209
12.303843
12.340899
12.374408
12.404414
12.43098
12.454179
12.474093
12.490817
12.504449
10.941383
10.838759
10.749435
10.672275
10.606615
10.552235
10.509147
10.477386
10.456882
10.447424
10.448652
10.460042
10.481322
10.511795
10.550856
10.597864
10.652153
10.713031
10.779788
10.851701
10.92804
11.008075
11.091085
11.176359
11.263211
11.350979
11.439034
11.526784
11.613676
11.699204
11.782903
11.864356
11.943193
12.01909
12.091766
12.160988
12.22656
12.288331
12.346184
12.400035
12.449837
12.495566
12.537227
12.574849
12.608479
12.638184
12.664044
12.686155
12.704621
12.719559
12.731089
12.73934
10.944578
10.848718
10.766517
10.696847
10.63906
10.592966
10.558616
10.536075
10.525299
10.526075
10.537937
10.560703
10.593672
10.636221
10.687668
10.747287
10.81431
10.887939
10.967352
11.051715
11.140186
11.231932
11.326132
11.421989
11.518739
11.615655
11.712055
11.807309
11.900838
11.992118
12.080682
12.166117
12.248068
12.326233
12.40036
12.470248
12.535743
12.596731
12.65314
12.704933
12.752104
12.794677
12.832702
12.86625
12.895411
12.920292
12.941014
12.957708
12.970516
12.979583
12.985065
12.987113
10.948312
10.860344
10.786464
10.725553
10.676992
10.640626
10.616543
10.604841
10.605483
10.618131
10.642723
10.678597
10.725137
10.781634
10.84731
10.92132
11.002773
11.090737
11.184257
11.282364
11.384092
11.488488
11.594626
11.701617
11.808619
11.914845
12.01957
12.122131
12.221938
12.318463
12.41125
12.499909
12.584115
12.663603
12.738166
12.807652
12.871958
12.931025
12.984835
13.033405
13.076787
13.115055
13.148312
13.176678
13.200292
13.219303
13.233876
13.24418
13.250394
13.252697
13.251286
13.246353
10.952596
10.873677
10.809344
10.758502
10.720567
10.69543
10.683217
10.68405
10.697769
10.724474
10.763598
10.814571
10.876688
10.949129
11.030981
11.121253
11.218897
11.322819
11.431903
11.545027
11.661082
11.778984
11.897696
12.016236
12.133689
12.249217
12.36206
12.471543
12.577074
12.678144
12.774327
12.865273
12.950704
13.030413
13.104254
13.17214
13.234032
13.289939
13.339909
13.384025
13.4224
13.455171
13.482497
13.504553
13.521527
13.53362
13.541034
13.543988
13.542696
13.537403
13.528243
13.515495
10.957442
10.888759
10.835234
10.795814
10.769963
10.757624
10.758959
10.773993
10.80302
10.845635
10.901374
10.969574
11.049406
11.139901
11.239975
11.348452
11.46409
11.585601
11.711681
11.841031
11.972384
12.104518
12.236282
12.366606
12.494512
12.619122
12.739662
12.855461
12.96595
13.070659
13.169213
13.261323
13.346783
13.425461
13.497289
13.562258
13.620413
13.671841
13.716667
13.755047
13.787164
13.813223
13.833445
13.848062
13.857313
13.861461
13.860729
13.855457
13.84575
13.831958
13.814302
13.79303
10.962866
10.905637
10.864221
10.837624
10.825378
10.827468
10.844012
10.875484
10.921705
10.982384
11.056968
11.144663
11.244478
11.355249
11.475676
11.604352
11.739799
11.880501
12.024937
12.171613
12.319088
12.466001
12.611091
12.753209
12.891332
13.024562
13.152134
13.273405
13.387856
13.49508
13.59478
13.686754
13.770886
13.847139
13.915542
13.976183
14.0292
14.074769
14.113101
14.144436
14.169033
14.187165
14.19912
14.205196
14.205658
14.20093
14.191112
14.176619
14.15771
14.134678
14.107794
14.077329
10.968882
10.92436
10.896396
10.88408
10.886999
10.905158
10.93911
10.988916
11.054527
11.13558
11.231393
11.341002
11.463197
11.596568
11.739541
11.890431
12.04748
12.208904
12.372939
12.537877
12.702101
12.864112
13.02255
13.176208
13.324039
13.465157
13.598829
13.724475
13.841654
13.950055
14.049484
14.139849
14.221149
14.293463
14.356934
14.411758
14.458178
14.496472
14.526945
14.549923
14.565745
14.574757
14.577313
14.573816
14.564541
14.549847
14.530089
14.505608
14.476723
14.443748
14.406984
14.366721
10.975507
10.944978
10.931854
10.935297
10.954973
10.991325
11.044561
11.114906
11.202268
11.306173
11.425767
11.559855
11.70695
11.865328
12.033082
12.208188
12.388561
12.572116
12.75682
12.940743
13.122091
13.299242
13.470757
13.6354
13.792133
13.940112
14.078678
14.207345
14.325787
14.433819
14.531379
14.618513
14.695356
14.762119
14.819075
14.866543
14.904881
14.934474
14.955725
14.969053
14.974884
14.973623
14.965792
14.951608
14.931602
14.906151
14.875636
14.840428
14.800881
14.757335
14.710115
14.65953
10.982755
10.967543
10.97065
10.991356
11.029821
11.086184
11.160877
11.254131
11.365781
11.495198
11.641296
11.802578
11.977202
12.163055
12.357827
12.559093
12.764395
12.971311
13.177527
13.380886
13.579433
13.771443
13.955436
14.130182
14.29469
14.448203
14.590177
14.720263
14.838284
14.944215
15.038155
15.12031
15.190973
15.250506
15.299321
15.337874
15.366642
15.386123
15.396821
15.399246
15.393984
15.381377
15.361977
15.336255
15.304678
15.267682
15.225687
15.179093
15.128283
15.073621
15.015451
14.954099
10.990647
10.992079
11.012783
11.052695
11.111656
11.190123
11.288606
11.407322
11.545994
11.703776
11.879273
12.0706
12.275472
12.491296
12.715282
12.944542
13.176198
13.407469
13.63575
13.858673
14.074145
14.280378
14.475892
14.659509
14.830341
14.987763
15.131395
15.261066
15.376789
15.478726
15.567169
15.642507
15.705206
15.755792
15.794832
15.822918
15.840658
15.848662
15.847528
15.837994
15.820368
15.795384
15.763575
15.725462
15.681548
15.63231
15.578203
15.519655
15.457071
15.390835
15.321308
15.248828
10.999206
11.018484
11.05865
11.119319
11.200746
11.303556
11.428337
11.575267
11.7439
11.933097
12.141058
12.365405
12.6033
12.851576
13.106877
13.365793
13.624988
13.881305
14.131861
14.3741
14.605837
14.825269
15.030972
15.221881
15.397264
15.556689
15.699986
15.827208
15.93859
16.034521
16.115502
16.182128
16.235053
16.274977
16.302625
16.318735
16.324042
16.319323
16.305224
16.282381
16.251509
16.213253
16.168214
16.116964
16.060043
15.997965
15.931212
15.860237
15.785462
15.707285
15.626082
15.542197
11.00833
11.047142
11.10816
11.191383
11.297361
11.426911
11.580691
11.7588
11.960552
12.184414
12.428061
12.688495
12.962206
13.245345
13.533907
13.823901
14.111509
14.393203
14.665844
14.926737
15.173661
15.404865
15.619047
15.815324
15.993188
16.152455
16.293216
16.415788
16.52067
16.608496
16.680007
16.736011
16.777364
16.804946
16.819638
16.822335
16.814011
16.795242
16.766956
16.729937
16.684913
16.632583
16.5736
16.508576
16.438086
16.362672
16.282842
16.199066
16.111775
16.021382
15.928267
15.83278
11.018135
11.077892
11.161362
11.269028
11.40177
11.560628
11.746316
11.958799
12.197051
12.459018
12.741708
13.041354
13.353638
13.673916
13.997455
14.31964
14.63616
14.94314
15.237234
15.515672
15.776273
16.017414
16.238
16.437405
16.615412
16.772143
16.908001
17.023608
17.119753
17.197343
17.257369
17.300868
17.328902
17.342532
17.342785
17.330924
17.307449
17.273579
17.230187
17.178118
17.118165
17.051075
16.977546
16.898229
16.813717
16.724577
16.631338
16.534487
16.434451
16.331652
16.226476
16.119275
11.028622
11.110713
11.218303
11.352383
11.514239
11.705158
11.925886
12.176172
12.454527
12.758218
13.083408
13.425396
13.778908
14.138394
14.49832
14.853425
15.198918
15.530624
15.845061
16.139472
16.411802
16.660656
16.885234
17.085246
17.260835
17.412488
17.540963
17.647221
17.732367
17.797599
17.844169
17.873348
17.8864
17.884581
17.86925
17.841167
17.80164
17.751718
17.692369
17.624504
17.54897
17.466559
17.378005
17.283987
17.185112
17.081966
16.975087
16.864976
16.752056
16.636753
16.519451
16.400501
11.039766
11.145615
11.279014
11.44156
11.635021
11.860952
12.120087
12.411848
12.734121
13.083298
13.454499
13.8419
14.239115
14.639586
15.036929
15.425231
15.799266
16.154631
16.487808
16.796151
17.077846
17.331831
17.557694
17.755564
17.926008
18.069929
18.188482
18.282996
18.354909
18.40572
18.436946
18.450089
18.446665
18.42817
18.395597
18.350444
18.293907
18.227108
18.151091
18.06682
17.975188
17.877021
17.773081
17.66407
17.550603
17.433273
17.312624
17.189158
17.063307
16.935484
16.806068
16.675405
11.051552
11.18258
11.343499
11.536645
11.764353
12.028457
12.329607
12.666751
13.036945
13.435476
13.856186
14.291928
14.735059
15.177919
15.613248
16.034512
16.436124
16.813557
17.16337
17.48316
17.771478
18.027704
18.251907
18.444716
18.607182
18.740672
18.846767
18.927183
18.983704
19.018135
19.032252
19.02786
19.006662
18.969866
18.919202
18.856054
18.781709
18.69736
18.604106
18.502959
18.394847
18.280618
18.161052
18.036865
17.908681
17.777093
17.642641
17.505822
17.367068
17.226785
17.085339
16.943065
11.063959
11.221562
11.411729
11.637694
11.902449
12.208102
12.555115
12.94177
13.36404
13.815831
14.289456
14.776238
15.267138
15.753331
16.22669
16.680125
17.107794
17.505176
17.869049
18.1974
18.489273
18.744602
18.964034
19.148763
19.300383
19.420759
19.511921
19.575983
19.615079
19.631313
19.626803
19.603549
19.562953
19.507028
19.437374
19.355471
19.262684
19.160263
19.049355
18.931001
18.806155
18.675682
18.540371
18.400938
18.258015
18.112187
17.963987
17.813898
17.66235
17.509738
17.356411
17.202691
11.076958
11.262489
11.483638
11.744723
12.049486
12.400285
12.797242
13.237721
13.71631
14.225224
14.754977
15.295163
15.835232
16.365171
16.876028
17.360262
17.811912
18.226621
18.601556
18.935241
19.227347
19.478474
19.689929
19.863539
20.001479
20.10614
20.180015
20.225615
20.245414
20.241903
20.217467
20.173678
20.112897
20.036973
19.947609
19.846365
19.734667
19.613811
19.484974
19.349221
19.207519
19.06074
18.909675
18.755034
18.597446
18.437485
18.275671
18.112473
17.948307
17.78356
17.618563
17.453618
11.09051
11.305259
11.559116
11.857702
12.205598
12.605352
13.056536
13.555284
14.094439
14.664188
15.252974
15.848485
16.438587
17.012091
17.559312
18.072393
18.545423
18.974395
19.357038
19.692572
19.981423
20.224959
20.425224
20.584727
20.706259
20.792749
20.847154
20.872376
20.871264
20.846812
20.800667
20.735626
20.653827
20.55723
20.447621
20.326624
20.19571
20.056208
19.909312
19.756101
19.597543
19.434509
19.267785
19.098071
18.925981
18.752075
18.576857
18.400777
18.224231
18.047604
17.871199
17.695306
11.104567
11.349735
11.638007
11.976547
12.370861
12.823571
13.333418
13.894921
14.498774
15.132786
15.783076
16.435289
17.075679
17.691947
18.273799
18.813229
19.304579
19.744389
20.131128
20.464861
20.746898
20.979462
21.1654
21.30794
21.410507
21.476571
21.509547
21.512716
21.489636
21.442307
21.373832
21.286745
21.183305
21.065557
20.935353
20.794363
20.644089
20.485878
20.320932
20.150328
19.975031
19.795898
19.613707
19.42914
19.242791
19.055204
18.866861
18.678184
18.489552
18.30135
18.113841
17.927322
11.119064
11.395743
11.720097
12.101112
12.545272
13.055088
13.628101
14.256761
14.929177
15.63044
16.344137
17.053797
17.744088
18.401702
19.015894
19.578717
20.084969
20.531936
20.919007
21.247238
21.518931
21.737247
21.905881
22.028806
22.110083
22.153716
22.163564
22.143648
22.096683
22.025883
21.934334
21.824635
21.699138
21.559957
21.408991
21.247935
21.078308
20.901468
20.718606
20.530792
20.338976
20.143999
19.946622
19.747497
19.547205
19.346264
19.145133
18.944202
18.743832
18.5444
18.346126
18.149336
11.133927
11.443068
11.805118
12.231179
12.728721
13.299868
13.940488
14.640444
15.384825
16.155713
16.934036
17.701197
18.440362
19.137345
19.781138
20.364055
20.88156
21.331882
21.715494
22.034583
22.292541
22.493527
22.642119
22.743045
22.800993
22.820481
22.806122
22.761457
22.689816
22.594933
22.479809
22.347155
22.199397
22.038692
21.866966
21.68593
21.497103
21.301837
21.101316
20.896583
20.688561
20.478079
20.265873
20.05256
19.838701
19.624789
19.411255
19.198466
18.986756
18.776466
18.567822
18.361088
11.149064
11.491453
11.892734
12.36644
12.920957
13.557609
14.270018
15.044909
15.863959
16.706054
17.549435
18.37346
19.159902
19.893854
20.564213
21.163745
21.688781
22.138675
22.515148
22.821635
23.062703
23.243559
23.369681
23.446549
23.479456
23.473613
23.433814
23.363266
23.266538
23.147141
23.00818
22.852444
22.682416
22.500275
22.307955
22.107174
21.899432
21.68606
21.468238
21.246968
21.023147
20.797577
20.57096
20.343891
20.116898
19.890447
19.664939
19.44072
19.218092
18.99736
18.778751
18.562477
11.164372
11.540594
11.982542
12.506484
13.121523
13.827615
14.615454
15.468103
16.36356
17.277479
18.185526
19.065156
19.896878
20.665176
21.358984
21.971675
22.500626
22.94649
23.312383
23.603104
23.82446
23.982741
24.084332
24.135449
24.14202
24.110126
24.043339
23.946748
23.824581
23.68049
23.517656
23.338921
23.146797
22.943479
22.730881
22.510714
22.284462
22.053421
21.81874
21.581398
21.342256
21.10208
20.861536
20.621191
20.381543
20.143023
19.906008
19.670814
19.43772
11.179731
11.590139
12.074062
12.650761
13.329669
14.1086
14.974581
15.906605
16.878946
17.864211
18.835745
19.769289
20.644167
21.444264
22.15859
22.781238
23.310785
23.749354
24.1016
24.373784
24.573018
24.706697
24.782106
24.806161
24.785912
24.726413
24.632559
24.509683
24.361992
24.193265
24.006743
23.805286
23.591409
23.367315
23.134891
22.895822
22.651562
22.403375
22.152368
21.899491
21.645567
21.39132
21.137381
20.884285
20.632496
20.382414
20.134384
19.888698
19.645608
11.195006
11.639692
12.166734
12.798541
13.544211
14.398419
15.343786
16.355116
17.403265
18.458251
19.491479
20.477165
21.393352
22.223157
22.955581
23.585487
24.112805
24.5413
24.877314
25.128671
25.303849
25.411361
25.459387
25.455721
25.407872
25.320174
25.199302
25.050184
24.877142
24.684068
24.474233
24.250502
24.015375
23.771034
23.519351
23.261965
23.000293
22.735561
22.468831
22.201015
21.932898
21.665163
21.398399
21.133109
20.869723
20.608609
20.35008
20.094402
19.841801
11.210046
11.688803
12.259894
12.948831
13.763319
14.693652
15.717472
16.805799
17.926886
19.048907
20.141789
21.178291
22.134773
22.993131
23.7421
24.377329
24.900263
25.316516
25.634285
25.863074
26.012778
26.093044
26.112947
26.08162
26.00494
25.889508
25.741759
25.566705
25.368729
25.151797
24.919201
24.673789
24.418043
24.154112
23.883835
23.608804
23.330393
23.049781
22.767986
22.485877
22.204197
21.923589
21.644601
21.367701
21.093284
20.821685
20.553189
20.288031
20.026412
11.224684
11.736971
12.352753
13.100248
13.984176
14.989016
16.087245
17.247419
18.43666
19.622283
20.773136
21.860351
22.857673
23.744921
24.510129
25.14974
25.666953
26.069502
26.36765
26.57271
26.696056
26.748485
26.740348
26.680763
26.575457
26.432675
26.258482
26.058029
25.835755
25.595629
25.340971
25.074611
24.798995
24.516228
24.228107
23.936175
23.641756
23.345983
23.049824
22.754104
22.459524
22.166685
21.876095
21.588186
21.303318
21.021795
20.743871
20.469753
20.199617
11.238734
11.783635
12.444334
13.250787
14.202458
15.276499
16.440788
17.664233
18.91505
20.160741
21.36915
22.509269
23.550434
24.469026
25.251773
25.896009
26.407079
26.795217
27.073028
27.253787
27.350432
27.374952
27.339381
27.250914
27.117909
26.948342
26.74838
26.523273
26.277495
26.015004
25.739126
25.452663
25.158019
24.857248
24.552101
24.244068
23.934421
23.624243
23.314454
23.005833
22.699038
22.394628
22.093073
21.794767
21.500038
21.209157
20.922349
20.639794
20.361641
11.251984
11.828151
12.533368
13.397444
14.411509
15.544106
16.760295
18.034553
19.339273
20.642358
21.910454
23.109415
24.200956
25.156114
25.959593
26.609988
27.115437
27.489211
27.746614
27.903082
27.973182
27.970468
27.90759
27.7909
27.631047
27.435537
27.210689
26.961845
26.693514
26.409619
26.113471
25.807842
25.495087
25.177209
24.855905
24.532613
24.208552
23.884755
23.562092
23.241298
22.922987
22.607677
22.2958
21.987714
21.683716
21.384045
21.088896
20.798426
20.512755
11.264177
11.869747
12.618089
13.535544
14.601048
15.774041
17.034145
18.356592
19.712748
21.070244
22.394634
23.649847
24.797175
25.797503
26.626973
27.286337
27.787575
28.147732
28.385261
28.517968
28.562092
28.533623
28.443176
28.299752
28.114036
27.893622
27.64496
27.373455
27.083639
26.779402
26.464021
26.140231
25.810339
25.476294
25.13974
24.802061
24.464424
24.127811
23.793044
23.460812
23.13169
22.806155
22.484602
22.167354
21.854676
21.546779
21.243831
20.94596
20.653265
11.274974
11.907443
12.695862
13.657584
14.755074
15.964811
17.266397
18.634272
20.039104
21.448033
22.825612
24.134309
25.334483
26.385753
27.248485
27.920734
28.419927
28.767813
28.986508
29.096446
29.115788
29.062678
28.945541
28.776743
28.566381
28.322294
28.051037
27.758066
27.44793
27.124485
26.790969
26.450075
26.10406
25.754821
25.403947
25.05277
24.702406
24.353787
24.007691
23.664762
23.325533
22.990445
22.659857
22.33406
22.013287
21.697721
21.387504
21.082741
20.783507
11.283854
11.939865
12.762484
13.751197
14.876643
16.120758
17.461111
18.87146
20.32202
21.779407
23.207209
24.566602
25.816782
26.915829
27.820228
28.51005
29.009893
29.347294
29.5486
29.637123
29.633445
29.556536
29.414345
29.221554
28.987942
28.721549
28.429024
28.115871
27.78665
27.445185
27.094672
26.737761
26.376662
26.013217
25.648965
25.285186
24.922948
24.563135
24.20648
23.853588
23.504953
23.160977
22.821987
22.488243
22.159949
21.837262
21.520298
21.20914
20.903839
11.289886
11.964903
12.810898
13.817959
14.970089
16.246138
17.622267
19.071932
20.56515
22.068022
23.543167
24.950513
26.248002
27.392394
28.339968
29.052426
29.55585
29.884839
30.070504
30.139188
30.114752
30.014702
29.849491
29.634236
29.378885
29.091645
28.779257
28.447266
28.100238
27.741972
27.375624
27.003799
26.628661
26.252004
25.875315
25.499828
25.126563
24.75636
24.389911
24.027781
23.670427
23.318218
22.971448
22.630347
22.295093
21.965819
21.642616
21.325545
21.01464
11.291195
11.979026
12.836045
13.862346
15.039848
16.345117
17.753721
19.239351
20.772076
22.317481
23.837158
25.289763
26.631933
27.819058
28.805918
29.547279
30.057169
30.379892
30.55184
30.602539
30.559304
30.437564
30.251195
30.015138
29.73964
29.433072
29.102269
28.752814
28.389281
28.015447
27.63443
27.248796
26.860664
26.471781
26.083589
25.697277
25.313821
24.93402
24.558526
24.187867
23.822467
23.462663
23.108718
22.760836
22.419168
22.083825
21.754877
21.432363
21.116299
11.283723
11.974372
12.843349
13.889259
15.090404
16.421725
17.859159
19.377237
20.946286
22.53131
24.092765
25.587984
26.972273
28.199611
29.223229
29.995594
30.514099
30.832591
30.992819
31.027488
30.967344
30.825715
30.620017
30.364878
30.070863
29.746516
29.398763
29.033227
28.654492
28.266318
27.871791
27.473441
27.073344
26.673208
26.274431
25.878159
25.48533
25.096703
24.712895
24.3344
23.961609
23.59483
23.234299
22.880193
22.532637
22.191728
21.857511
21.530008
21.209215
11.269828
11.957007
12.838479
13.903815
15.126174
16.479793
17.942072
19.488959
21.091159
22.712951
24.313479
25.84871
27.272598
28.537686
29.595848
30.398956
30.927557
31.243689
31.394141
31.414791
31.339568
31.179999
30.956789
30.684296
30.373401
30.03282
29.669573
29.289327
28.896679
28.495376
28.088478
27.678483
27.267432
26.856992
26.448524
26.043137
25.64173
25.245029
24.853616
24.467954
24.088406
23.715252
23.348702
22.98891
11.251429
11.932144
12.827244
13.911171
15.151372
16.522876
18.005717
19.577721
21.209964
22.865747
24.502695
26.07535
27.53632
28.836761
29.927152
30.759173
31.299005
31.614415
31.756949
31.765588
31.676983
31.501506
31.262558
30.974414
30.64825
30.292955
29.915642
29.522029
29.116727
28.703477
28.285319
27.864722
27.443696
27.023874
26.606583
26.192897
25.783682
25.379631
24.981298
24.589116
24.203421
23.824469
23.452447
23.087487
11.230091
11.904988
12.815677
13.916334
15.169846
16.554182
18.053102
19.646561
21.30585
22.992948
24.663687
26.271151
27.766747
29.100129
30.220247
31.078105
31.630302
31.946415
32.082729
32.081335
31.980837
31.791519
31.538533
31.236387
30.896519
30.527984
30.137993
29.732312
29.315576
28.891523
28.463178
28.032986
27.602932
27.174617
26.749339
26.32814
25.911856
25.501154
25.096558
24.698476
24.307221
23.923024
23.546053
23.176421
11.207471
11.881381
12.810038
13.9239
15.184896
16.576497
18.086968
19.698347
21.381843
23.097686
24.799568
26.43925
27.967041
29.330866
30.478199
31.358585
31.923736
32.241663
32.373217
32.363707
32.252648
32.051396
31.786037
31.471474
31.119402
30.739041
30.3377
29.921202
29.494203
29.060446
28.622944
28.184125
27.74595
27.309996
26.877531
26.449573
26.026931
25.610245
25.200015
24.796627
24.40037
24.011458
23.630038
23.256205
11.185782
11.868479
12.816481
13.937665
15.199078
16.592129
18.109778
19.735776
21.440831
23.182925
24.91332
26.582631
28.140079
29.531954
30.70401
31.604256
32.181879
32.502324
32.630389
32.61432
32.494156
32.282637
32.006477
31.680994
31.31814
30.927297
30.515875
30.089749
29.653605
29.211193
28.765518
28.318997
27.873568
27.430789
26.991903
26.557906
26.129582
25.707548
25.292285
24.884156
24.483432
24.090308
23.704914
23.32733
11.168509
11.875103
12.840533
13.96013
15.214028
16.602869
18.123725
19.761394
21.485488
23.251474
25.007789
26.703953
28.288647
29.70619
30.900412
31.818256
32.407311
32.730664
32.856289
32.834965
32.707107
32.486812
32.201306
31.866304
31.494004
31.093948
30.67364
30.239015
29.794787
29.344715
28.891804
28.438458
27.986601
27.537771
27.093193
26.653839
26.220477
25.793702
25.373975
24.961643
24.556958
24.1601
23.771184
23.390276
11.1615
11.911772
12.885694
13.991918
15.230326
16.60999
18.130704
19.777543
21.518354
23.305946
25.085439
26.805745
28.415413
29.856048
31.069966
32.003365
32.602558
32.928964
33.052987
33.027501
32.893242
32.66551
32.371995
32.028772
31.648273
31.24019
30.812122
30.37006
29.918749
29.461961
29.002698
28.543359
28.085855
27.631708
27.182127
26.738067
26.300276
25.869334
25.445684
25.029656
24.621491
24.221351
23.82934
23.445511
11.175161
11.988431
12.951435
14.031294
15.247495
16.614317
18.132468
19.786324
21.541832
23.348697
25.148475
26.890419
28.522712
29.983785
31.215075
32.162084
32.77004
33.099464
33.22253
33.193795
33.054285
32.820315
32.520006
32.169754
31.782211
31.367208
30.932433
30.483932
30.02648
29.563861
29.099083
28.634536
28.172123
27.713353
27.259422
26.811267
26.369624
25.935056
25.507994
25.088753
24.677559
24.274565
23.879862
23.493493
11.231049
12.106815
13.030981
14.074154
15.26421
16.616249
18.130469
19.789738
21.558046
23.38161
25.199079
26.960214
28.612571
30.091484
31.337928
32.296693
32.912049
33.244325
33.36691
33.335676
33.191918
32.952777
32.646771
32.290585
31.897063
31.476166
31.035665