/*--------------------------------*- C++ -*----------------------------------*\
| =========                 |                                                 |
| \\      /  F ield         | OpenFOAM: The Open Source CFD Toolbox           |
|  \\    /   O peration     | Version:  2312                                  |
|   \\  /    A nd           | Website:  www.openfoam.com                      |
|    \\/     M anipulation  |                                                 |
\*---------------------------------------------------------------------------*/
FoamFile
{
    version     2.0;
    format      ascii;
    arch        "LSB;label=32;scalar=64";
    class       volScalarField;
    location    "0.06";
    object      Ma;
}
// * * * * * * * * * * * * * * * * * * * * * * * * * * * * * * * * * * * * * //

dimensions      [0 0 0 0 0 0 0];

internalField   nonuniform List<scalar> 
3221
(
0.0031486212
0.0030911386
0.0029970754
0.0028665746
0.0027141675
0.0025520085
0.0023888065
0.0022302311
0.0020796001
0.0019386287
0.0018080677
0.0016881454
0.0015789187
0.0014804917
0.0013930401
0.0013165575
0.0012506445
0.001194553
0.0011476229
0.0011097436
0.0010815779
0.0010642315
0.0010579463
0.0010607342
0.0010703274
0.0010866525
0.0011121068
0.0011461134
0.0011830722
0.0012161763
0.0012458159
0.0012753311
0.0013067318
0.0013401846
0.0013764903
0.0014156457
0.0014571571
0.0015005823
0.0015455755
0.001591781
0.001638884
0.0016866408
0.0017348491
0.0017833394
0.0018319696
0.0018806256
0.0019292016
0.0019776059
0.0020257688
0.0020736498
0.0021212441
0.0021686015
0.0031617437
0.0030971125
0.002994234
0.0028598882
0.0027099801
0.0025551001
0.0024015438
0.0022529289
0.0021111589
0.0019770855
0.0018509835
0.0017328604
0.0016226471
0.0015203253
0.0014259459
0.0013395187
0.0012608707
0.0011896121
0.001125173
0.0010670718
0.0010147397
0.00096769662
0.00092616924
0.00088949142
0.00085562558
0.00082321461
0.00079260635
0.00076484029
0.000739137
0.00071391001
0.00069045487
0.00067181487
0.00065931858
0.00065249607
0.00065209532
0.00065895649
0.00067209316
0.00069062735
0.00071390506
0.00074137985
0.00077248982
0.00080671447
0.00084360321
0.00088272863
0.00092369829
0.00096616306
0.001009803
0.0010543216
0.0010994502
0.0011449472
0.0011906001
0.0012362546
0.0031610967
0.0031228841
0.0030505468
0.002951614
0.0028379483
0.0027178802
0.0025965626
0.0024770933
0.002361274
0.0022501214
0.0021442134
0.0020439038
0.0019494189
0.0018609081
0.0017784669
0.0017021166
0.001631854
0.0015675639
0.0015084476
0.001454021
0.0014047106
0.0013605427
0.0013202144
0.0012822466
0.0012461063
0.001211674
0.001179358
0.0011498146
0.0011231901
0.0010992314
0.0010787246
0.0010623388
0.001050424
0.0010427057
0.0010371033
0.001033035
0.0010316169
0.0010330372
0.0010372072
0.0010439941
0.0010532154
0.0010647131
0.001078352
0.0010940032
0.0011115346
0.0011308165
0.0011517117
0.0011740685
0.0011977207
0.0012224869
0.0012481703
0.0012745947
0.0031635465
0.0031442942
0.0031003409
0.0030360275
0.0029586142
0.0028735361
0.0027844434
0.0026937986
0.002603294
0.002514132
0.0024271972
0.0023431565
0.0022625339
0.0021857505
0.0021130972
0.0020446934
0.0019803954
0.0019199244
0.0018636343
0.0018116853
0.001763657
0.0017193015
0.0016781261
0.0016395824
0.001603382
0.0015694359
0.0015376346
0.0015083851
0.0014819457
0.0014579128
0.0014361809
0.0014173275
0.0014018651
0.0013902021
0.0013821711
0.0013770147
0.0013744498
0.001374265
0.001376298
0.00138037
0.0013862882
0.0013938687
0.0014029522
0.001413397
0.0014250753
0.0014378736
0.0014516843
0.0014664001
0.0014819102
0.0014980981
0.0015148373
0.0015320088
0.0031651797
0.0031576141
0.0031328758
0.0030931323
0.0030424698
0.0029840201
0.0029200305
0.0028522325
0.0027820453
0.0027106745
0.0026391493
0.0025683382
0.0024989657
0.0024316249
0.0023667668
0.002304694
0.0022455817
0.002189547
0.00213678
0.0020873632
0.0020412248
0.0019982541
0.0019582569
0.0019210149
0.001886358
0.0018542786
0.0018250827
0.0017986265
0.0017747319
0.0017536739
0.0017355562
0.0017205298
0.0017087112
0.0017000994
0.0016945605
0.0016917617
0.0016913966
0.0016931961
0.0016969284
0.0017023793
0.0017093387
0.0017176143
0.0017270328
0.0017374383
0.0017486912
0.0017606669
0.0017732507
0.0017863359
0.0017998178
0.0018135962
0.0018275731
0.0018416522
0.0031661899
0.0031649563
0.0031513748
0.0031267509
0.0030934692
0.0030531854
0.0030070814
0.0029562096
0.0029016233
0.0028443805
0.0027854984
0.0027259104
0.0026664383
0.0026077818
0.0025505135
0.0024950847
0.0024418438
0.0023910694
0.0023429873
0.0022977497
0.0022554377
0.0022160635
0.0021795861
0.0021459444
0.0021151021
0.0020870646
0.0020618996
0.0020396103
0.0020201922
0.002003724
0.0019902515
0.0019797989
0.0019723491
0.0019678075
0.0019660029
0.0019666983
0.0019696302
0.0019745382
0.0019811756
0.0019893121
0.00199873
0.0020092288
0.0020206249
0.0020327526
0.0020454614
0.0020586167
0.0020720957
0.0020857853
0.0020995803
0.0021133848
0.0021271111
0.0021406758
0.0031669302
0.0031691615
0.003161948
0.0031464718
0.0031243628
0.0030964361
0.003063144
0.0030249878
0.0029826506
0.0029369708
0.0028888562
0.0028392054
0.0027888514
0.0027385337
0.0026888863
0.0026404404
0.0025936343
0.0025488273
0.002506311
0.0024663071
0.0024289718
0.0023944009
0.0023626444
0.002333724
0.0023076562
0.0022844631
0.0022641708
0.0022467953
0.0022323445
0.002220823
0.0022122181
0.0022064873
0.0022035484
0.0022032698
0.0022054704
0.0022099295
0.0022164044
0.0022246472
0.0022344158
0.0022454795
0.0022576206
0.0022706372
0.0022843428
0.0022985678
0.0023131578
0.0023279732
0.0023428866
0.0023577826
0.0023725546
0.0023871075
0.0024013591
0.0024152312
0.0031675866
0.0031720943
0.0031689386
0.0031594759
0.00314506
0.0031260536
0.0031024342
0.0030742867
0.0030419703
0.003006094
0.0029674175
0.0029267539
0.0028848961
0.0028425766
0.0028004463
0.002759071
0.0027189342
0.0026804436
0.0026439374
0.0026096862
0.0025778983
0.002548725
0.0025222707
0.0024986038
0.0024777699
0.0024597983
0.0024447049
0.002432492
0.0024231451
0.0024166293
0.0024128878
0.0024118339
0.002413347
0.0024172706
0.002423415
0.0024315649
0.0024414886
0.0024529492
0.002465713
0.0024795555
0.0024942637
0.0025096395
0.0025254991
0.0025416747
0.0025580129
0.0025743745
0.002590633
0.0026066731
0.0026223907
0.0026376928
0.0026524989
0.0026667363
0.0031682351
0.0031746179
0.0031745078
0.0031695072
0.0031608984
0.0031488035
0.0031328962
0.0031129602
0.0030890946
0.003061704
0.0030313997
0.0029988946
0.0029649207
0.0029301793
0.0028953143
0.002860901
0.0028274447
0.0027953811
0.0027650799
0.0027368454
0.0027109214
0.002687494
0.0026666995
0.0026486306
0.0026333459
0.0026208739
0.0026112183
0.0026043593
0.0026002536
0.0025988329
0.0026000041
0.002603646
0.0026096099
0.00261772
0.0026277773
0.002639566
0.0026528596
0.0026674292
0.0026830494
0.0026995036
0.0027165862
0.0027341058
0.002751885
0.0027697618
0.0027875878
0.002805229
0.0028225634
0.002839481
0.0028558824
0.0028716797
0.0028867969
0.0029011659
0.0031689012
0.003177037
0.0031795024
0.0031781317
0.0031742134
0.003167742
0.0031581977
0.0031451532
0.003128511
0.0031085101
0.0030856333
0.0030604997
0.0030337781
0.0030061325
0.0029781891
0.0029505216
0.0029236441
0.0028980084
0.0028740031
0.0028519539
0.002832125
0.0028147213
0.0027998931
0.0027877404
0.00277832
0.0027716493
0.0027677122
0.0027664608
0.0027678204
0.0027716891
0.0027779387
0.0027864172
0.0027969502
0.0028093438
0.0028233883
0.002838864
0.0028555461
0.0028732108
0.0028916397
0.0029106242
0.0029299673
0.0029494862
0.0029690122
0.0029883916
0.0030074846
0.0030261654
0.0030443204
0.0030618477
0.0030786565
0.0030946667
0.0031098093
0.0031240239
0.0031695905
0.0031794294
0.0031841958
0.00318592
0.003185926
0.0031841426
0.0031799295
0.0031727161
0.0031622644
0.0031486893
0.0031323728
0.0031138573
0.0030937578
0.0030727039
0.0030513036
0.0030301243
0.0030096826
0.0029904374
0.0029727867
0.0029570655
0.002943545
0.0029324334
0.0029238789
0.0029179734
0.0029147578
0.002914227
0.0029163355
0.0029210025
0.0029281164
0.0029375383
0.0029491057
0.0029626356
0.0029779282
0.0029947707
0.0030129414
0.0030322146
0.003052365
0.0030731721
0.0030944239
0.0031159195
0.0031374716
0.0031589072
0.0031800682
0.0032008119
0.0032210093
0.0032405457
0.0032593187
0.0032772376
0.0032942225
0.0033102041
0.0033251236
0.0033389302
0.0031703034
0.0031818092
0.0031886751
0.003193094
0.0031964375
0.0031986052
0.0031988853
0.003196616
0.0031914653
0.0031834631
0.0031729205
0.0031603249
0.0031462524
0.0031313067
0.0031160818
0.003101139
0.0030869938
0.0030741057
0.0030628733
0.0030536289
0.0030466372
0.0030420949
0.0030401326
0.0030408184
0.0030441636
0.0030501282
0.0030586283
0.0030695418
0.0030827157
0.0030979715
0.00311511
0.0031339166
0.0031541657
0.0031756252
0.0031980608
0.0032212402
0.0032449368
0.0032689333
0.0032930239
0.0033170167
0.0033407348
0.003364017
0.003386718
0.0034087078
0.0034298711
0.0034501066
0.0034693254
0.0034874504
0.0035044153
0.0035201638
0.0035346494
0.0035478338
0.0031710408
0.0031841851
0.0031929918
0.0031997899
0.003206004
0.0032115279
0.0032156126
0.0032175443
0.0032169361
0.0032137679
0.0032083092
0.0032010158
0.0031924416
0.0031831768
0.0031738077
0.003164892
0.0031569416
0.0031504114
0.003145691
0.0031430985
0.0031428782
0.0031451995
0.0031501595
0.0031577873
0.0031680503
0.0031808615
0.0031960883
0.0032135604
0.0032330781
0.00325442
0.0032773488
0.0033016176
0.0033269754
0.0033531712
0.003379959
0.0034071009
0.0034343699
0.0034615531
0.0034884524
0.0035148864
0.0035406909
0.0035657184
0.0035898386
0.0036129369
0.0036349138
0.0036556837
0.0036751739
0.0036933228
0.0037100792
0.0037254023
0.00373926
0.0037516279
0.0031718053
0.0031865739
0.0031972031
0.0032061366
0.0032148553
0.0032232611
0.0032305925
0.0032361146
0.0032394185
0.0032404652
0.0032395106
0.0032370019
0.003233489
0.0032295612
0.0032258053
0.0032227777
0.0032209855
0.0032208723
0.0032228088
0.0032270863
0.0032339131
0.0032434153
0.0032556402
0.0032705617
0.0032880894
0.0033080772
0.0033303345
0.0033546358
0.0033807306
0.0034083518
0.0034372236
0.0034670676
0.0034976085
0.0035285792
0.0035597239
0.0035908018
0.0036215882
0.0036518768
0.0036814802
0.0037102301
0.0037379772
0.0037645911
0.0037899585
0.0038139829
0.003836583
0.0038576914
0.003877253
0.0038952238
0.0039115701
0.0039262672
0.0039392993
0.0039506574
0.0031726013
0.0031890006
0.0032013761
0.0032122691
0.0032232167
0.0032341384
0.0032442778
0.0032529038
0.0032596138
0.0032643785
0.0032674661
0.0032693379
0.0032705577
0.0032717271
0.0032734406
0.0032762558
0.0032806714
0.0032871123
0.0032959188
0.0033073399
0.0033215318
0.0033385597
0.0033584034
0.0033809663
0.0034060859
0.0034335462
0.0034630901
0.0034944314
0.0035272658
0.0035612802
0.003596161
0.0036316006
0.0036673031
0.0037029889
0.0037383967
0.0037732866
0.0038074403
0.003840662
0.0038727783
0.0039036377
0.0039331092
0.0039610817
0.0039874626
0.0040121755
0.0040351598
0.0040563681
0.0040757651
0.0040933261
0.0041090354
0.0041228865
0.0041348807
0.0041450251
0.0031734341
0.0031914943
0.003205583
0.0032183233
0.0032313069
0.0032444757
0.0032570924
0.0032684505
0.0032781791
0.0032862851
0.0032930742
0.0032990434
0.003304788
0.0033109334
0.0033180884
0.0033268114
0.0033375879
0.0033508132
0.0033667824
0.0033856853
0.0034076069
0.0034325324
0.0034603568
0.0034908969
0.0035239056
0.0035590871
0.0035961117
0.003634629
0.0036742804
0.0037147081
0.003755564
0.0037965159
0.0038372528
0.0038774878
0.0039169602
0.0039554361
0.0039927088
0.004028598
0.0040629485
0.0040956293
0.0041265314
0.0041555665
0.0041826646
0.0042077729
0.0042308529
0.0042518793
0.0042708381
0.0042877249
0.0043025437
0.0043153064
0.004326032
0.0043347448
0.0031743101
0.003194087
0.0032098977
0.0032244319
0.0032393326
0.0032545663
0.003269426
0.003283249
0.0032957198
0.0033069075
0.0033171793
0.0033270891
0.0033372795
0.0033484103
0.0033611075
0.0033759279
0.0033933337
0.0034136765
0.0034371879
0.0034639778
0.0034940389
0.0035272565
0.0035634225
0.0036022527
0.0036434043
0.0036864947
0.0037311178
0.0037768589
0.0038233067
0.0038700634
0.0039167521
0.0039630232
0.0040085573
0.004053068
0.0040963018
0.0041380377
0.0041780865
0.0042162884
0.0042525116
0.0042866496
0.0043186191
0.0043483575
0.0043758207
0.0044009807
0.0044238237
0.0044443477
0.0044625614
0.0044784813
0.0044921317
0.0045035436
0.0045127541
0.004519804
0.0031752367
0.0031968121
0.0032143935
0.0032307221
0.0032474869
0.0032646799
0.0032816343
0.00329775
0.0033127914
0.0033269145
0.0033405727
0.0033543968
0.0033690911
0.0033853567
0.0034038367
0.0034250777
0.0034495049
0.003477406
0.0035089264
0.003544072
0.0035827201
0.003624635
0.0036694889
0.0037168834
0.0037663723
0.0038174822
0.0038697306
0.0039226415
0.0039757567
0.0040286455
0.0040809112
0.0041321954
0.0041821798
0.0042305869
0.0042771785
0.0043217539
0.0043641477
0.0044042267
0.004441887
0.004477051
0.0045096643
0.0045396933
0.0045671216
0.0045919485
0.0046141857
0.0046338563
0.0046509913
0.0046656298
0.004677816
0.0046876002
0.0046950372
0.0047001845
0.0031762217
0.0031997041
0.0032191433
0.0032373161
0.0032559508
0.003275065
0.0032940427
0.0033123666
0.0033299057
0.0033469298
0.0033640028
0.0033818511
0.0034012523
0.0034229518
0.0034476034
0.0034757299
0.0035076973
0.0035437042
0.0035837818
0.0036278048
0.0036755101
0.0037265211
0.0037803748
0.0038365496
0.0038944915
0.0039536368
0.0040134312
0.0040733442
0.00413288
0.0041915859
0.0042490562
0.004304935
0.0043589157
0.0044107393
0.0044601915
0.0045070999
0.0045513293
0.0045927788
0.0046313772
0.0046670797
0.0046998642
0.0047297279
0.0047566847
0.0047807619
0.0048019984
0.004820442
0.0048361477
0.0048491759
0.0048595913
0.0048674626
0.0048728622
0.0048758639
0.0031772741
0.0032027991
0.0032242204
0.0032443324
0.0032648953
0.0032859527
0.0033069524
0.0033274818
0.0033475422
0.0033675461
0.0033881916
0.003410318
0.0034347836
0.003462375
0.0034937433
0.0035293642
0.0035695162
0.0036142757
0.0036635272
0.0037169842
0.0037742184
0.0038346939
0.0038978012
0.0039628908
0.0040293019
0.0040963863
0.0041635266
0.0042301494
0.0042957347
0.004359821
0.0044220076
0.0044819532
0.0045393746
0.0045940414
0.0046457728
0.0046944314
0.0047399197
0.0047821738
0.0048211599
0.0048568691
0.0048893142
0.0049185254
0.0049445479
0.004967438
0.0049872619
0.0050040929
0.0050180091
0.0050290922
0.0050374268
0.0050430992
0.0050461987
0.0050468135
0.0031784033
0.003206135
0.0032296987
0.0032518874
0.0032744847
0.0032975622
0.0033206474
0.0033434585
0.0033661617
0.0033893417
0.0034138551
0.0034406681
0.0034707213
0.0035048307
0.0035436218
0.0035874904
0.003636589
0.0036908327
0.0037499223
0.0038133792
0.0038805873
0.0039508367
0.0040233658
0.0040973984
0.0041721741
0.0042469715
0.0043211243
0.0043940324
0.0044651679
0.0045340769
0.0046003782
0.0046637595
0.0047239721
0.0047808256
0.0048341804
0.0048839429
0.0049300578
0.0049725039
0.0050112877
0.0050464398
0.005078009
0.0051060603
0.0051306704
0.0051519251
0.0051699177
0.0051847466
0.0051965125
0.0052053175
0.0052112647
0.0052144577
0.0052150004
0.0052129957
0.0031796198
0.0032097514
0.003235654
0.003260097
0.0032848791
0.0033101044
0.0033354006
0.0033606504
0.0033862201
0.0034128993
0.0034417261
0.0034738024
0.0035101442
0.0035515746
0.0035986573
0.0036516642
0.0037105742
0.0037750955
0.0038447061
0.0039187061
0.0039962726
0.0040765141
0.0041585181
0.0042413906
0.0043242854
0.0044064254
0.0044871148
0.0045657468
0.0046418049
0.0047148608
0.0047845689
0.0048506594
0.004912931
0.0049712421
0.0050255038
0.0050756715
0.0051217386
0.0051637296
0.0052016949
0.0052357053
0.0052658481
0.0052922226
0.0053149375
0.005334107
0.0053498515
0.0053622935
0.0053715554
0.0053777576
0.005381021
0.005381465
0.0053792069
0.0053743626
0.0031809344
0.0032136904
0.0032421645
0.0032690783
0.0032962369
0.0033237859
0.0033514822
0.003379412
0.0034081836
0.003438826
0.0034725783
0.0035106796
0.003554202
0.0036039389
0.0036603415
0.0037235011
0.0037931662
0.0038687884
0.003949585
0.0040346094
0.0041228209
0.0042131472
0.004304535
0.0043959896
0.0044866003
0.0045755572
0.0046621596
0.0047458171
0.004826046
0.004902462
0.0049747713
0.0050427608
0.0051062874
0.0051652683
0.0052196718
0.0052695085
0.0053148239
0.0053556916
0.0053922071
0.0054244834
0.0054526454
0.0054768276
0.005497169
0.0055138116
0.0055269009
0.0055365833
0.0055430011
0.0055462902
0.0055465886
0.0055440304
0.0055387432
0.0055308573
0.003182359
0.0032179965
0.003249312
0.0032789502
0.0033087163
0.0033388136
0.0033691652
0.0034001101
0.0034325459
0.0034677755
0.0035072535
0.003552345
0.0036041433
0.0036633562
0.0037302559
0.0038046827
0.0038860919
0.0039736277
0.0040662128
0.0041626378
0.0042616435
0.0043619878
0.0044624974
0.0045621019
0.0046598543
0.0047549417
0.0048466858
0.0049345377
0.0050180682
0.0050969564
0.0051709761
0.0052399835
0.0053039042
0.0053627218
0.0054164681
0.0054652129
0.0055090568
0.005548124
0.0055825561
0.0056125078
0.005638142
0.0056596269
0.0056771306
0.0056908195
0.0057008635
0.0057074321
0.0057106858
0.0057107711
0.0057078428
0.0057020494
0.0056935245
0.0056824146
0.0031839064
0.003222718
0.0032571818
0.0032898344
0.0033224782
0.0033553983
0.0033887343
0.0034231374
0.0034598472
0.0035004738
0.0035466908
0.003599961
0.003661342
0.0037313793
0.0038100809
0.0038969557
0.0039910985
0.0040913004
0.0041961651
0.0043042163
0.0044139881
0.0045240933
0.0046332686
0.0047404019
0.0048445453
0.0049449155
0.0050408865
0.0051319769
0.0052178341
0.0052982186
0.0053729866
0.0054420748
0.0055054861
0.0055632772
0.0056155473
0.0056624285
0.005704078
0.0057406706
0.0057723939
0.0057994435
0.0058220192
0.0058403213
0.0058545446
0.0058648752
0.0058715062
0.0058746311
0.0058744266
0.0058710411
0.0058646477
0.0058554063
0.0058434567
0.0058289783
0.0031855909
0.003227907
0.0032658637
0.0033018567
0.0033376872
0.0033737597
0.0034104951
0.003448928
0.0034906978
0.003537748
0.0035919585
0.0036548374
0.0037273223
0.0038096952
0.003901598
0.0040021201
0.0041099324
0.0042234365
0.0043409074
0.0044606139
0.0045809114
0.0047003033
0.0048174773
0.0049313221
0.0050409282
0.0051455774
0.0052447265
0.0053379871
0.0054251046
0.0055059369
0.0055804355
0.0056486271
0.0057105989
0.0057664848
0.0058164541
0.0058607026
0.0058994433
0.0059329017
0.0059613096
0.0059849019
0.0060039127
0.0060185732
0.0060291015
0.0060356971
0.0060385749
0.0060379543
0.0060340289
0.0060269335
0.006016866
0.0060039796
0.0059885002
0.0059704566
0.0031874281
0.003233619
0.0032754528
0.0033151477
0.0033545147
0.0033941323
0.0034347859
0.0034779779
0.0035258056
0.0035805599
0.003644289
0.0037184611
0.0038037775
0.0039001303
0.0040066797
0.0041220079
0.004244308
0.0043715732
0.0045017597
0.0046329127
0.0047632516
0.0048912195
0.0050155061
0.0051350482
0.005249017
0.0053567955
0.0054579533
0.0055522193
0.0056394553
0.0057196314
0.0057928046
0.0058590988
0.0059186898
0.0059717909
0.006018643
0.0060595039
0.0060946423
0.006124332
0.006148846
0.0061684555
0.0061834261
0.0061940191
0.0062004715
0.0062029891
0.0062018058
0.006197168
0.0061892887
0.0061782706
0.0061643672
0.0061476872
0.0061284897
0.0061068196
0.0031894347
0.003239915
0.0032860495
0.0033298432
0.0033731414
0.0034167731
0.0034619935
0.0035108692
0.0035660092
0.0036300433
0.0037051137
0.0037925228
0.0038925823
0.0040046455
0.0041272696
0.0042584503
0.0043958692
0.0045371156
0.0046798609
0.004821977
0.0049616063
0.0050971929
0.0052274856
0.0053515202
0.0054685912
0.0055782186
0.0056801123
0.0057741402
0.0058602966
0.0059386753
0.0060094462
0.0060728351
0.0061291081
0.0061785586
0.0062214969
0.0062582423
0.0062891163
0.0063144367
0.006334514
0.006349653
0.0063601453
0.0063662823
0.0063683129
0.0063664503
0.0063609364
0.006352037
0.0063400053
0.0063249148
0.006306986
0.0062864045
0.0062633645
0.0062379792
0.0031916295
0.003246861
0.0032977602
0.0033460859
0.0033937616
0.0034419722
0.0034925736
0.0035483017
0.0036123177
0.0036875462
0.0037760994
0.0038789376
0.0039957944
0.0041253185
0.0042653487
0.004413236
0.0045661449
0.0047212956
0.0048761334
0.0050284274
0.0051763167
0.0053183162
0.005453295
0.005580439
0.0056992082
0.0058092917
0.0059105652
0.006003053
0.006086895
0.0061623167
0.0062296052
0.00628909
0.0063411268
0.0063860868
0.0064243478
0.0064562875
0.0064822743
0.006502667
0.006517808
0.0065280329
0.0065336511
0.006534984
0.0065322764
0.0065257865
0.0065157153
0.006502376
0.0064859796
0.0064666545
0.0064445984
0.0064200192
0.0063930762
0.006363905
0.003194033
0.0032545283
0.0033106972
0.0033640265
0.0034165891
0.0034700681
0.003527078
0.0035911327
0.003665958
0.0037546753
0.0038591793
0.0039798568
0.0041156424
0.0042643124
0.0044228916
0.004588062
0.0047565025
0.0049251318
0.0050912526
0.0052526209
0.0054074578
0.005554423
0.0056925676
0.0058212781
0.0059402184
0.0060492754
0.0061485108
0.0062381196
0.0063183958
0.0063897012
0.0064524414
0.0065070478
0.0065539624
0.0065936313
0.0066264952
0.0066529844
0.006673509
0.0066884648
0.0066982176
0.0067031348
0.006703525
0.0066997625
0.0066920667
0.006680701
0.0066658816
0.0066479208
0.0066270298
0.0066033624
0.0065771067
0.0065484605
0.0065175668
0.0064845675
0.0031966681
0.0032629948
0.00332498
0.0033838265
0.0034418666
0.0035014682
0.0035661906
0.0036404257
0.0037284278
0.0038333417
0.0039565787
0.004097666
0.0042544994
0.0044238304
0.0046018125
0.0047844804
0.0049681017
0.0051493927
0.0053256227
0.0054946391
0.0056548354
0.005805092
0.0059447024
0.0060732994
0.0061907845
0.0062972665
0.0063930078
0.0064783834
0.0065538462
0.006619895
0.0066770511
0.0067258434
0.0067667958
0.0068004233
0.0068272213
0.0068476694
0.0068622102
0.0068712746
0.0068752367
0.0068745124
0.0068693905
0.0068602493
0.0068473365
0.0068309071
0.0068111968
0.006788498
0.006763018
0.006734923
0.0067044147
0.0066716632
0.0066367993
0.006599953
0.0031995601
0.0032723454
0.003340736
0.0034056627
0.0034698785
0.0035366781
0.0036107748
0.0036975103
0.0038015548
0.0039258024
0.004070828
0.0042349667
0.0044148388
0.0046060582
0.0048039056
0.0050038452
0.0052018502
0.0053945668
0.0055793603
0.0057542813
0.005917989
0.0060696576
0.0062088789
0.0063355719
0.0064499035
0.0065522213
0.0066429983
0.006722793
0.0067922182
0.0068519065
0.0069024876
0.0069445837
0.0069787906
0.0070056847
0.0070258073
0.0070396848
0.0070477763
0.0070505594
0.0070484051
0.0070417138
0.0070308307
0.0070161008
0.0069978069
0.006976178
0.0069514617
0.0069239386
0.0068938042
0.006861235
0.0068264458
0.0067895817
0.0067507607
0.0067100724
0.0032027375
0.003282673
0.0033581024
0.0034297337
0.0035009718
0.0035763422
0.0036619339
0.0037640528
0.0038875584
0.0040346944
0.0042047589
0.0043945388
0.0045991756
0.0048130978
0.0050307834
0.00524726
0.0054583673
0.0056608419
0.0058522849
0.0060310658
0.0061962003
0.0063472241
0.0064840759
0.0066069933
0.0067164288
0.0068129796
0.0068973313
0.0069702252
0.007032431
0.0070847067
0.0071277826
0.0071623655
0.0071891085
0.0072086446
0.0072215459
0.0072283945
0.0072296527
0.0072257917
0.0072172209
0.0072043377
0.0071874908
0.0071670299
0.0071432198
0.0071162971
0.0070864988
0.0070541071
0.0070192652
0.0069822099
0.0069431445
0.0069021852
0.0068594565
0.0068149288
0.0032062322
0.0032940803
0.0033772289
0.0034562714
0.0035355847
0.0036212979
0.003721088
0.0038421372
0.0039891088
0.0041630539
0.0043614805
0.0045792839
0.0048099942
0.0050468969
0.0052838144
0.0055155323
0.0057379563
0.0059480902
0.0061439162
0.0063242362
0.0064885063
0.0066366836
0.0067690927
0.0068863134
0.0069890952
0.0070782881
0.0071547867
0.0072195081
0.0072733706
0.0073172514
0.0073519644
0.007378291
0.0073969235
0.0074085558
0.0074137756
0.0074131732
0.0074072552
0.0073964859
0.0073812816
0.0073620129
0.0073390625
0.0073127658
0.0072833347
0.0072510659
0.0072161567
0.007178858
0.0071393416
0.007097807
0.0070544772
0.0070094591
0.0069628944
0.0069145993
0.0032100804
0.0033066817
0.003398283
0.0034855576
0.0035742889
0.0036726497
0.0037900688
0.0039343523
0.0041093781
0.0043143138
0.0045443302
0.0047921501
0.0050496684
0.0053091756
0.0055640682
0.0058091389
0.0060405847
0.0062558618
0.0064534777
0.0066327726
0.0067937168
0.0069367372
0.0070625726
0.0071721579
0.0072665429
0.0073468258
0.0074140981
0.0074694407
0.0075139124
0.0075484999
0.0075740712
0.0075914866
0.0076014553
0.0076046831
0.0076018191
0.0075934549
0.0075800924
0.0075622059
0.0075402056
0.007514389
0.0074852598
0.0074530292
0.0074179883
0.0073803396
0.0073403176
0.0072981419
0.0072539691
0.0072080085
0.007160421
0.0071114056
0.0070610564
0.0070091205
0.0032143233
0.0033206066
0.0034214575
0.0035179509
0.0036178501
0.0037318667
0.0038712326
0.0040438823
0.0042520737
0.0044922763
0.0047568023
0.0050360438
0.0053203767
0.0056013586
0.0058722693
0.0061281975
0.0063658709
0.0065833843
0.0067799058
0.0069554074
0.0071104344
0.0072459178
0.0073630272
0.007463054
0.0075473422
0.0076172263
0.0076739744
0.0077188168
0.0077529392
0.0077774328
0.007793187
0.0078010891
0.0078019136
0.0077963668
0.0077850911
0.0077687228
0.0077476847
0.0077225359
0.0076936006
0.0076612316
0.0076258606
0.0075876505
0.0075469929
0.0075039866
0.0074588862
0.0074118828
0.0073631199
0.0073127701
0.007261068
0.007208088
0.0071539241
0.0070984202
0.0032190089
0.0033360048
0.0034469836
0.0035539261
0.0036673129
0.0038009091
0.0039675901
0.0041745893
0.0044214461
0.0047010535
0.0050024554
0.0053137326
0.0056240193
0.0059245168
0.00620876
0.0064724468
0.0067130794
0.0069295683
0.0071218633
0.0072906451
0.0074370774
0.0075626153
0.0076688619
0.007757455
0.0078300183
0.0078881004
0.0079331189
0.0079664493
0.0079893763
0.0080030413
0.0080083898
0.0080063204
0.0079975997
0.0079829801
0.0079630205
0.0079384406
0.0079096878
0.0078771265
0.0078412043
0.0078022521
0.0077605957
0.0077165133
0.0076702411
0.0076219295
0.0075718092
0.0075200493
0.0074667846
0.0074121605
0.0073563946
0.0072995403
0.0072416571
0.0071826909
0.0032241935
0.0033530543
0.0034751509
0.0035941351
0.0037241199
0.003882387
0.0040829486
0.0043310786
0.004622263
0.0049449809
0.0052848047
0.0056277465
0.0059621437
0.0062793174
0.0065734703
0.006841234
0.0070811212
0.0072930182
0.0074777571
0.0076367838
0.0077719047
0.0078851026
0.0079784019
0.0080537656
0.008113076
0.0081580577
0.008190279
0.0082111518
0.0082221333
0.0082244187
0.0082188678
0.0082064166
0.0081878274
0.0081638885
0.0081352006
0.0081022166
0.0080656307
0.0080256909
0.0079828071
0.0079372626
0.0078893858
0.007839445
0.0077876331
0.0077341054
0.0076790569
0.0076226392
0.0075649762
0.0075061928
0.0074464641
0.0032299451
0.0033719738
0.0035063395
0.0036394964
0.0037902735
0.0039797559
0.0042220546
0.0045187333
0.0048597459
0.0052285058
0.0056072061
0.005980283
0.0063358797
0.006665982
0.0069658969
0.0072335095
0.0074685603
0.0076720475
0.0078457598
0.0079919405
0.0081130429
0.0082115631
0.0082899178
0.0083503639
0.0083950193
0.0084257348
0.0084441655
0.0084518407
0.0084502346
0.0084406753
0.008423744
0.008400718
0.0083720619
0.0083386404
0.0083010525
0.0082597701
0.0082152974
0.0081679736
0.0081181516
0.0080660923
0.0080120857
0.0079563724
0.0078991253
0.007840491
0.0077806308
0.0077196761
0.0076577366
0.0075949182
0.0075313554
0.0032363468
0.0033930419
0.0035410699
0.0036913266
0.003868555
0.0040975449
0.0043907248
0.004743708
0.005139471
0.0055560577
0.0059727407
0.0063731248
0.0067458819
0.007084253
0.0073850879
0.0076478267
0.0078736251
0.0080646978
0.0082238334
0.0083540777
0.0084585137
0.0085401205
0.0086016543
0.0086456492
0.0086743372
0.008689785
0.008693627
0.0086874701
0.0086727269
0.0086509146
0.008622451
0.0085885035
0.0085497606
0.0085068387
0.0084603177
0.0084107023
0.0083584089
0.0083037711
0.0082470973
0.0081886278
0.0081286096
0.0080672498
0.0080047013
0.0079410944
0.0078765604
0.0078112087
0.0077451315
0.007678415
0.0076111602
0.0032435038
0.0034166273
0.0035800798
0.0037515338
0.0039628106
0.00424161
0.0045959459
0.005012876
0.0054672418
0.0059319163
0.0063841111
0.0068075624
0.00719228
0.0075333661
0.0078296342
0.0080823471
0.0082942244
0.0084687628
0.0086097581
0.008721033
0.0088062617
0.0088688669
0.0089118574
0.0089379681
0.0089496561
0.0089489423
0.0089375042
0.0089169677
0.0088888431
0.0088543681
0.0088143046
0.0087694183
0.0087204631
0.0086680344
0.0086126496
0.0085547704
0.0084947626
0.0084329296
0.0083695371
0.0083047977
0.0082389166
0.0081720655
0.0081043742
0.0080359515
0.0079669008
0.0078973084
0.0078272466
0.0077567819
0.0076859862
0.0032515506
0.0034432351
0.0036244449
0.0038228943
0.0040783155
0.0044193971
0.0048459294
0.0053337349
0.0058489476
0.0063600845
0.0068435429
0.0072843245
0.007674634
0.0080120273
0.0082976644
0.0085348507
0.0087279679
0.0088818152
0.0090011626
0.0090905524
0.0091542189
0.0091958409
0.0092187813
0.0092258223
0.0092195847
0.0092018545
0.009174811
0.0091394489
0.0090977425
0.0090506122
0.0089987333
0.0089428959
0.0088837789
0.0088219235
0.0087577893
0.0086917794
0.0086242102
0.0085553447
0.0084854049
0.0084145695
0.0083430028
0.0082708405
0.0081981858
0.0081251234
0.0080517295
0.0079780666
0.0079041858
0.0078301333
0.0077559567
0.0032606633
0.0034735785
0.0036757645
0.003909446
0.0042222178
0.0046401912
0.0051501163
0.0057142857
0.0062904251
0.0068441726
0.0073526921
0.0078035093
0.00819189
0.0085183933
0.0087868458
0.0090027518
0.0091721923
0.0093012385
0.0093955569
0.0094603383
0.0095001961
0.0095192145
0.0095207752
0.0095076949
0.0094827047
0.0094476412
0.0094043852
0.0093542954
0.0092987924
0.009238906
0.0091752512
0.0091085474
0.0090393907
0.0089682577
0.0088955443
0.0088215886
0.0087466547
0.0086709579
0.0085946753
0.0085179473
0.0084408974
0.008363625
0.0082862045
0.0082086944
0.0081311444
0.0080535925
0.0079760681
0.0078985975
0.0078212053
0.0032710739
0.0035086904
0.0037364505
0.0040170338
0.0044040555
0.0049153333
0.005519144
0.0061629194
0.0067973491
0.0073872997
0.0079125575
0.0083645105
0.0087423337
0.0090500534
0.0092943895
0.0094831207
0.0096239932
0.0097242629
0.0097903686
0.009827983
0.0098422086
0.0098371133
0.0098160477
0.0097822505
0.0097378732
0.0096851928
0.0096256902
0.0095606342
0.0094913478
0.0094187672
0.0093434625
0.0092660554
0.0091870511
0.009106851
0.0090257806
0.0089441099
0.0088620461
0.0087797532