/*--------------------------------*- C++ -*----------------------------------*\
| =========                 |                                                 |
| \\      /  F ield         | OpenFOAM: The Open Source CFD Toolbox           |
|  \\    /   O peration     | Version:  2312                                  |
|   \\  /    A nd           | Website:  www.openfoam.com                      |
|    \\/     M anipulation  |                                                 |
\*---------------------------------------------------------------------------*/
FoamFile
{
    version     2.0;
    format      ascii;
    arch        "LSB;label=32;scalar=64";
    class       volScalarField;
    location    "0.06";
    object      N2;
}
// * * * * * * * * * * * * * * * * * * * * * * * * * * * * * * * * * * * * * //

dimensions      [0 0 0 0 0 0 0];

internalField   nonuniform List<scalar> 
3221
(
0.76991111
0.76972689
0.76953965
0.76935227
0.76916748
0.76898769
0.76881495
0.76865092
0.7684969
0.76835386
0.76822248
0.76810314
0.76799604
0.7679011
0.76781794
0.76774586
0.76768404
0.76763177
0.76758864
0.7675543
0.76752797
0.76750782
0.7674906
0.76747236
0.76745001
0.76742115
0.76738037
0.76731849
0.76722312
0.76709221
0.76693493
0.76675863
0.76656848
0.76636721
0.76615829
0.76594462
0.76572734
0.76550714
0.76528468
0.76506023
0.76483408
0.76460664
0.76437824
0.76414928
0.76392021
0.76369153
0.76346378
0.76323761
0.76301377
0.76279304
0.76257619
0.76236376
0.76990149
0.76969687
0.76948768
0.76927642
0.76906552
0.7688571
0.768653
0.76845472
0.76826342
0.76807996
0.76790494
0.76773867
0.76758124
0.76743251
0.76729208
0.76715927
0.76703328
0.76691335
0.76679886
0.76668925
0.7665837
0.76648087
0.76637875
0.76627513
0.76616826
0.76605687
0.76593847
0.76580899
0.76566339
0.76550053
0.76532371
0.76513598
0.76493957
0.76473586
0.76452656
0.76431319
0.76409653
0.76387717
0.76365564
0.76343231
0.76320757
0.76298183
0.76275551
0.76252905
0.76230295
0.76207772
0.76185394
0.7616323
0.76141356
0.76119867
0.76098853
0.76078276
0.76988608
0.7696488
0.76940456
0.76915538
0.76890319
0.76864978
0.7683967
0.76814525
0.76789651
0.7676513
0.7674102
0.76717361
0.76694169
0.76671444
0.76649164
0.76627291
0.76605776
0.76584569
0.76563628
0.76542912
0.76522372
0.76501943
0.76481541
0.76461082
0.76440503
0.76419762
0.76398785
0.76377455
0.76355631
0.76333274
0.76310463
0.7628728
0.76263789
0.76240037
0.76216083
0.76191987
0.7616779
0.76143528
0.76119241
0.76094961
0.76070725
0.76046573
0.76022543
0.75998679
0.75975028
0.75951637
0.7592856
0.75905854
0.75883588
0.75861836
0.75840672
0.75820075
0.7698684
0.76959367
0.76930942
0.76901718
0.7687185
0.76841484
0.76810753
0.76779776
0.76748655
0.76717478
0.76686317
0.76655227
0.76624249
0.76593409
0.7656272
0.76532183
0.76501793
0.7647154
0.76441413
0.76411406
0.76381507
0.76351699
0.76321963
0.7629228
0.7626264
0.7623304
0.7620347
0.7617391
0.76144336
0.76114747
0.76085162
0.76055609
0.7602611
0.75996687
0.7596737
0.75938187
0.7590917
0.75880348
0.75851755
0.75823425
0.75795394
0.75767701
0.75740385
0.75713487
0.75687052
0.75661124
0.7563575
0.75610979
0.75586863
0.7556346
0.75540824
0.75518965
0.76985021
0.769537
0.7692118
0.76887586
0.76853044
0.76817678
0.76781607
0.76744943
0.76707793
0.7667025
0.76632403
0.76594326
0.76556085
0.76517735
0.76479323
0.76440883
0.76402447
0.76364039
0.76325682
0.76287394
0.76249193
0.76211091
0.76173102
0.76135234
0.76097502
0.76059919
0.76022498
0.75985249
0.75948184
0.75911319
0.75874673
0.75838269
0.75802131
0.75766286
0.75730761
0.75695589
0.75660802
0.75626435
0.75592526
0.75559115
0.7552624
0.75493945
0.75462271
0.75431262
0.75400962
0.75371416
0.75342666
0.75314757
0.75287733
0.75261638
0.75236514
0.75212395
0.76983182
0.76947976
0.76911342
0.76873389
0.76834228
0.76793973
0.76752735
0.76710626
0.76667754
0.76624225
0.76580138
0.76535586
0.76490655
0.76445424
0.76399963
0.76354337
0.76308601
0.76262807
0.76217002
0.76171226
0.76125519
0.76079914
0.76034443
0.75989134
0.75944016
0.75899115
0.75854458
0.75810072
0.75765983
0.75722218
0.75678808
0.75635783
0.75593176
0.75551022
0.75509357
0.75468219
0.75427649
0.75387689
0.75348381
0.7530977
0.75271901
0.7523482
0.75198572
0.75163204
0.7512876
0.75095285
0.75062824
0.75031417
0.75001105
0.74971924
0.7494391
0.74917114
0.76981293
0.76942097
0.76901254
0.76858865
0.76815041
0.76769889
0.76723522
0.76676053
0.76627597
0.76578268
0.76528175
0.76477427
0.76426127
0.76374372
0.76322251
0.7626985
0.76217246
0.7616451
0.76111711
0.76058908
0.76006159
0.75953515
0.75901026
0.75848736
0.75796689
0.75744926
0.75693486
0.7564241
0.75591735
0.75541502
0.75491751
0.75442521
0.75393855
0.75345795
0.75298385
0.7525167
0.75205695
0.75160508
0.75116156
0.75072685
0.75030144
0.74988581
0.74948043
0.74908575
0.74870225
0.74833036
0.74797051
0.74762309
0.74728849
0.74696705
0.74665908
0.74636511
0.76979312
0.76935935
0.76890689
0.76843679
0.76795017
0.76744816
0.76693192
0.76640264
0.76586154
0.76530986
0.76474882
0.76417963
0.76360347
0.76302146
0.76243469
0.76184417
0.76125087
0.7606557
0.76005952
0.75946312
0.75886725
0.75827262
0.75767988
0.75708966
0.75650255
0.75591911
0.75533988
0.7547654
0.75419618
0.75363272
0.75307553
0.7525251
0.75198193
0.75144652
0.75091936
0.75040095
0.74989179
0.74939236
0.74890315
0.74842466
0.74795735
0.74750171
0.74705819
0.74662725
0.74620931
0.7458048
0.74541411
0.74503763
0.74467569
0.74432861
0.74399669
0.74368039
0.76977209
0.76929392
0.76879474
0.7682757
0.767738
0.76718284
0.76661148
0.7660252
0.76542534
0.76481322
0.76419023
0.76355769
0.76291694
0.76226928
0.76161595
0.76095815
0.76029703
0.75963369
0.75896919
0.75830449
0.75764056
0.75697827
0.75631847
0.75566196
0.7550095
0.75436181
0.75371959
0.75308351
0.7524542
0.75183229
0.75121837
0.75061303
0.75001683
0.74943033
0.74885407
0.74828857
0.74773436
0.74719191
0.74666174
0.74614431
0.74564007
0.74514948
0.74467295
0.74421091
0.74376373
0.7433318
0.74291546
0.74251505
0.74213087
0.74176319
0.74141226
0.74107847
0.76974963
0.76922399
0.76867489
0.76810361
0.76751145
0.76689975
0.76626989
0.76562329
0.76496141
0.76428574
0.7635978
0.76289909
0.76219111
0.76147534
0.7607532
0.7600261
0.75929538
0.75856233
0.75782822
0.75709423
0.7563615
0.75563112
0.75490412
0.75418149
0.75346418
0.75275306
0.75204898
0.75135276
0.75066514
0.74998687
0.74931864
0.74866109
0.74801486
0.74738055
0.74675872
0.74614992
0.74555466
0.74497343
0.7444067
0.74385491
0.74331847
0.74279778
0.74229322
0.74180512
0.74133382
0.74087963
0.74044283
0.74002369
0.73962245
0.73923932
0.73887449
0.73852825
0.76972557
0.76914906
0.76854645
0.76791917
0.7672687
0.76659654
0.76590424
0.76519337
0.76446557
0.76372252
0.76296592
0.76219746
0.76141884
0.76063174
0.75983781
0.75903865
0.75823583
0.75743087
0.75662523
0.75582034
0.75501755
0.75421814
0.75342337
0.75263441
0.75185238
0.75107832
0.75031325
0.74955811
0.74881376
0.74808105
0.74736073
0.74665354
0.74596014
0.74528116
0.74461718
0.74396873
0.74333631
0.74272038
0.74212137
0.74153965
0.74097558
0.74042949
0.73990168
0.73939241
0.73890193
0.73843047
0.73797822
0.73754536
0.73713206
0.73673846
0.73636467
0.73601088
0.76969977
0.76906865
0.76840858
0.76772119
0.76700815
0.76627117
0.765512
0.76473242
0.7639343
0.76311952
0.76229
0.76144768
0.7605945
0.75973236
0.75886314
0.75798872
0.75711089
0.75623143
0.75535203
0.75447437
0.75360001
0.75273048
0.75186724
0.75101165
0.75016501
0.74932855
0.74850341
0.74769065
0.74689127
0.74610617
0.74533618
0.74458207
0.74384454
0.7431242
0.74242164
0.74173735
0.74107179
0.74042536
0.73979842
0.73919127
0.73860419
0.73803741
0.73749113
0.73696552
0.73646073
0.73597687
0.73551405
0.73507235
0.73465183
0.73425255
0.73387452
0.73351784
0.76967207
0.76898227
0.76826043
0.76750841
0.76672812
0.76592152
0.7650906
0.76423742
0.76336408
0.76247275
0.76156561
0.76064489
0.75971277
0.75877146
0.75782313
0.75686991
0.7559139
0.75495713
0.75400158
0.75304917
0.75210172
0.751161
0.75022866
0.7493063
0.74839538
0.74749728
0.74661329
0.74574457
0.7448922
0.74405715
0.74324029
0.74244239
0.74166415
0.74090617
0.74016897
0.73945301
0.73875866
0.73808624
0.73743601
0.73680818
0.7362029
0.7356203
0.73506045
0.73452342
0.73400922
0.73351786
0.73304932
0.73260357
0.73218057
0.73178026
0.73140256
0.73104747
0.7696423
0.76888936
0.76810102
0.76727942
0.76642675
0.76554525
0.76463723
0.76370504
0.76275112
0.76177794
0.76078801
0.75978388
0.75876807
0.75774311
0.75671151
0.75567572
0.75463814
0.75360114
0.75256699
0.75153787
0.7505159
0.74950307
0.74850128
0.74751229
0.74653777
0.74557922
0.74463805
0.74371551
0.74281273
0.7419307
0.7410703
0.74023229
0.73941732
0.73862592
0.73785855
0.73711556
0.73639722
0.73570373
0.73503523
0.73439178
0.73377341
0.7331801
0.7326118
0.73206841
0.73154984
0.73105593
0.73058656
0.73014157
0.72972078
0.72932402
0.72895112
0.72860196
0.76961027
0.76878931
0.76792929
0.76703266
0.76610195
0.76513976
0.76414873
0.76313161
0.7620912
0.76103035
0.75995197
0.75885898
0.75775431
0.75664087
0.75552156
0.75439919
0.75327655
0.75215633
0.75104114
0.74993349
0.74883575
0.74775019
0.74667891
0.74562388
0.74458691
0.74356964
0.74257354
0.74159991
0.74064991
0.73972451
0.73882456
0.73795074
0.73710363
0.73628365
0.73549113
0.73472629
0.73398925
0.73328007
0.7325987
0.73194507
0.73131904
0.73072041
0.73014898
0.7296045
0.72908671
0.72859532
0.72813005
0.72769062
0.72727672
0.72688805
0.72652433
0.72618534
0.76957576
0.76868143
0.76774404
0.76676639
0.76575142
0.76470214
0.76362163
0.76251305
0.76137965
0.76022477
0.75905175
0.75786398
0.75666487
0.75545778
0.75424605
0.75303293
0.75182162
0.75061521
0.74941668
0.74822885
0.7470544
0.74589586
0.74475554
0.74363558
0.74253792
0.74146427
0.74041616
0.73939488
0.73840156
0.73743711
0.73650228
0.73559764
0.73472362
0.7338805
0.73306843
0.73228745
0.73153749
0.73081842
0.73013
0.72947196
0.72884397
0.72824566
0.72767663
0.72713645
0.72662471
0.72614096
0.72568477
0.7252557
0.72485332
0.72447722
0.72412697
0.72380227
0.76953854
0.76856497
0.76754394
0.76647869
0.76537261
0.7642292
0.76305205
0.76184483
0.76061135
0.75935546
0.75808107
0.75679214
0.75549259
0.75418635
0.75287727
0.7515691
0.75026552
0.74897004
0.74768605
0.74641673
0.74516505
0.74393378
0.74272545
0.74154232
0.74038641
0.73925948
0.73816302
0.73709829
0.73606631
0.73506786
0.73410355
0.73317376
0.73227872
0.73141849
0.73059302
0.7298021
0.72904545
0.72832268
0.72763336
0.72697696
0.72635296
0.72576077
0.72519979
0.72466943
0.72416906
0.72369809
0.72325592
0.72284198
0.72245569
0.7220965
0.7217639
0.72145746
0.76949835
0.7684391
0.76732755
0.76616744
0.76496271
0.76371743
0.76243577
0.76112205
0.75978069
0.75841619
0.75703315
0.75563616
0.7542298
0.75281863
0.75140709
0.74999953
0.74860014
0.74721294
0.74584172
0.74449003
0.74316115
0.74185805
0.74058344
0.73933965
0.73812875
0.73695244
0.73581214
0.73470897
0.73364377
0.73261715
0.73162947
0.73068087
0.7297713
0.72890058
0.72806834
0.72727413
0.72651738
0.72579743
0.72511359
0.72446511
0.72385118
0.72327103
0.72272383
0.72220879
0.7217251
0.721272
0.72084873
0.72045455
0.72008879
0.71975075
0.7194398
0.71915541
0.76945493
0.76830293
0.76709329
0.76583034
0.76451865
0.76316296
0.76176816
0.76033929
0.75888154
0.75740021
0.75590065
0.75438824
0.75286833
0.75134621
0.74982703
0.7483158
0.74681729
0.74533605
0.74387631
0.74244197
0.7410366
0.73966336
0.73832502
0.73702399
0.73576223
0.73454135
0.73336259
0.73222684
0.73113471
0.7300865
0.72908227
0.72812182
0.72720481
0.72633067
0.72549875
0.72470824
0.72395827
0.72324789
0.72257611
0.7219419
0.72134422
0.72078203
0.72025431
0.71976005
0.71929826
0.71886799
0.71846834
0.71809843
0.71775743
0.71744455
0.71715904
0.71690029
0.76940797
0.76815548
0.76683943
0.76546485
0.76403706
0.76256158
0.76104414
0.75949068
0.75790729
0.75630019
0.75467567
0.75304004
0.75139954
0.74976032
0.74812835
0.74650935
0.74490875
0.74333166
0.74178274
0.74026625
0.73878596
0.73734517
0.73594667
0.73459276
0.73328528
0.7320256
0.73081468
0.72965311
0.72854112
0.72747865
0.72646533
0.72550061
0.7245837
0.72371367
0.72288947
0.72210993
0.72137383
0.7206799
0.72002681
0.71941327
0.71883797
0.71829963
0.71779698
0.71732882
0.71689397
0.71649133
0.71611982
0.71577843
0.71546621
0.71518226
0.71492573
0.71469592
0.76935714
0.76799566
0.76656408
0.7650682
0.76351424
0.76190864
0.76025817
0.75856979
0.75685071
0.75510823
0.75334976
0.75158269
0.74981434
0.74805184
0.74630206
0.74457155
0.74286644
0.74119238
0.73955447
0.73795725
0.73640464
0.73489996
0.73344591
0.73204461
0.73069759
0.72940589
0.72817007
0.72699029
0.7258663
0.72479757
0.72378326
0.72282231
0.72191349
0.72105542
0.72024659
0.71948547
0.71877042
0.71809984
0.71747208
0.71688554
0.71633865
0.71582986
0.7153577
0.71492075
0.71451767
0.71414718
0.71380806
0.71349918
0.71321946
0.71296792
0.71274361
0.71254578
0.76930208
0.76782232
0.76626515
0.76463733
0.7629461
0.76119906
0.75940415
0.75756962
0.75570395
0.75381578
0.75191384
0.7500068
0.74810322
0.74621134
0.74433909
0.74249387
0.74068253
0.73891127
0.73718557
0.73551016
0.73388901
0.73232532
0.73082155
0.72937947
0.7280002
0.72668429
0.72543177
0.72424222
0.72311484
0.7220485
0.72104178
0.72009309
0.71920065
0.71836259
0.71757695
0.71684174
0.71615494
0.71551457
0.71491865
0.71436529
0.71385262
0.71337889
0.71294238
0.71254149
0.7121747
0.71184059
0.7115378
0.71126509
0.71102129
0.71080531
0.71061615
0.710453
0.76924242
0.76763415
0.76594034
0.76416885
0.76232816
0.76042722
0.7584754
0.75648247
0.75445847
0.75241362
0.75035821
0.74830243
0.74625624
0.7442292
0.74223031
0.74026792
0.7383496
0.73648203
0.73467096
0.7329212
0.7312366
0.72962008
0.7280737
0.72659868
0.72519558
0.72386429
0.72260416
0.72141409
0.72029257
0.71923778
0.71824767
0.71732002
0.71645248
0.71564263
0.71488802
0.71418619
0.71353473
0.71293127
0.71237352
0.71185927
0.7113864
0.71095292
0.71055691
0.71019659
0.70987028
0.70957642
0.70931355
0.70908033
0.70887549
0.70869789
0.70854646
0.70842038
0.76917772
0.76742973
0.7655871
0.76365902
0.76165543
0.75958691
0.75746455
0.75529994
0.75310498
0.75089181
0.74867254
0.74645913
0.74426316
0.7420956
0.73996668
0.73788566
0.73586077
0.73389909
0.7320065
0.7301877
0.7284462
0.72678446
0.72520388
0.72370501
0.7222876
0.72095075
0.71969297
0.7185123
0.71740644
0.71637282
0.71540865
0.71451103
0.713677
0.71290356
0.71218774
0.71152664
0.71091742
0.71035735
0.70984381
0.7093743
0.70894647
0.70855808
0.70820705
0.70789143
0.70760941
0.70735931
0.70713958
0.70694878
0.70678559
0.70664879
0.70653731
0.7064504
0.76910752
0.76720748
0.76520262
0.76310369
0.76092241
0.75867126
0.75636347
0.75401279
0.75163338
0.74923962
0.74684581
0.74446594
0.7421134
0.73980071
0.73753935
0.73533947
0.73320987
0.73115784
0.72918918
0.72730823
0.72551796
0.72382005
0.72221509
0.72070267
0.71928157
0.71794988
0.71670512
0.71554439
0.71446447
0.71346193
0.71253321
0.7116747
0.71088277
0.71015384
0.70948444
0.70887118
0.70831083
0.7078003
0.70733667
0.70691717
0.7065392
0.70620036
0.70589839
0.7056312
0.70539687
0.70519362
0.70501984
0.70487401
0.70475478
0.70466083
0.70459101
0.70454544
0.76903128
0.76696563
0.76478375
0.76249823
0.76012291
0.75767265
0.75516317
0.75261088
0.75003267
0.74744555
0.74486638
0.74231145
0.73979618
0.73733474
0.73493981
0.73262237
0.73039158
0.72825471
0.7262172
0.72428275
0.72245345
0.72072997
0.71911178
0.7175973
0.71618412
0.71486912
0.71364871
0.71251891
0.71147551
0.71051417
0.7096305
0.70882013
0.70807877
0.70740227
0.70678663
0.70622801
0.70572281
0.70526759
0.70485915
0.70449448
0.7041708
0.70388551
0.70363623
0.70342078
0.7032371
0.70308337
0.70295795
0.70285923
0.70278595
0.70273655
0.70271069
0.70270663
0.76894843
0.76670224
0.76432697
0.76183745
0.75925007
0.75658256
0.7538537
0.75108311
0.74829089
0.74549723
0.7427219
0.73998383
0.73730059
0.73468806
0.73216005
0.72972815
0.72740161
0.72518737
0.72309016
0.72111265
0.71925575
0.71751879
0.71589985
0.7143959
0.71300311
0.71171704
0.71053281
0.70944529
0.7084492
0.70753922
0.70671012
0.70595677
0.70527423
0.70465776
0.70410286
0.70360531
0.7031611
0.70276652
0.7024181
0.70211264
0.70184717
0.70161898
0.70142557
0.70126471
0.70113422
0.70103223
0.7009572
0.70090723
0.70088167
0.70087841
0.70089655
0.70093555
0.76885835
0.76641512
0.76382834
0.76111552
0.75829618
0.75539151
0.75242404
0.74941723
0.74639507
0.74338142
0.74039943
0.73747091
0.73461573
0.7318514
0.72919269
0.72665151
0.72423682
0.72195481
0.71980906
0.71780083
0.71592945
0.71419259
0.71258658
0.71110672
0.70974759
0.70850322
0.70736738
0.70633368
0.70539571
0.70454719
0.703782
0.70309429
0.70247847
0.70192924
0.70144168
0.70101113
0.70063328
0.70030415
0.70002008
0.69977769
0.69957388
0.69940585
0.69927096
0.69916718
0.69909194
0.69904338
0.69902059
0.69902105
0.69904326
0.69908717
0.69915098
0.69923382
0.76876031
0.76610179
0.7632834
0.76032589
0.75725258
0.75408891
0.75086194
0.74759983
0.74433113
0.74108401
0.73788542
0.73476029
0.73173081
0.72881597
0.7260312
0.72338826
0.72089539
0.71855748
0.71637647
0.71435177
0.71248069
0.71075885
0.70918056
0.70773922
0.7064276
0.70523813
0.70416308
0.70319476
0.70232566
0.70154848
0.70085626
0.70024243
0.69970079
0.69922557
0.69881138
0.69845325
0.6981466
0.69788723
0.69767128
0.69749533
0.69735608
0.69725082
0.69717648
0.69713204
0.69711368
0.69712012
0.69714994
0.69720187
0.69727323
0.69736475
0.69747469
0.69760248
0.76865351
0.76575949
0.76268712
0.75946112
0.75610949
0.75266286
0.74915381
0.74561613
0.74208382
0.73858998
0.73516578
0.73183942
0.72863533
0.72557366
0.72267002
0.7199355
0.71737695
0.71499739
0.71279656
0.71077151
0.70891707
0.70722643
0.70569162
0.7043039
0.7030541
0.70193292
0.70093112
0.70003968
0.69924993
0.69855364
0.69794303
0.69741084
0.69695035
0.69655533
0.69622001
0.69593916
0.69570795
0.69552208
0.69537746
0.69527084
0.69519842
0.69515828
0.69514679
0.69516209
0.69520145
0.69526414
0.69534806
0.69545239
0.69557206
0.69571199
0.69586804
0.69603924
0.76853705
0.76538505
0.76203378
0.75851281
0.75485587
0.75109999
0.7472845
0.74344994
0.73963667
0.73588343
0.73222596
0.72869575
0.72531922
0.72211718
0.71910477
0.71629169
0.71368267
0.71127818
0.70907515
0.70706764
0.7052476
0.70360546
0.70213068
0.70081219
0.69963878
0.69859936
0.69768314
0.69687979
0.69617954
0.69557323
0.69505234
0.69460901
0.69423603
0.69392678
0.69367522
0.6934759
0.69332376
0.69321465
0.69314381
0.69310916
0.69310606
0.69313105
0.69318361
0.69326101
0.69335828
0.69347782
0.69361589
0.69377153
0.69394276
0.69413012
0.69433199
0.69454724
0.76840992
0.76497489
0.76131684
0.75747132
0.75347917
0.74938526
0.74523715
0.74108344
0.73697192
0.73294762
0.72905106
0.72531691
0.72177306
0.7184403
0.71533244
0.71245688
0.70981544
0.70740523
0.70521965
0.70324928
0.7014827
0.69990725
0.69850963
0.69727631
0.69619395
0.69524962
0.69443104
0.6937266
0.69312549
0.69261769
0.69219403
0.69184611
0.69156631
0.69134779
0.6911842
0.69107008
0.6909999
0.6909705
0.69097573
0.69101357
0.69108167
0.69117312
0.69129028
0.69142912
0.69158719
0.69176378
0.69195504
0.69216238
0.69238391
0.69261891
0.69286648
0.69312657
0.76827096
0.76452489
0.7605288
0.75632566
0.75196509
0.74750166
0.74299294
0.73849711
0.73407049
0.72976496
0.72562595
0.72169084
0.71798827
0.71453802
0.71135151
0.70843285
0.70577991
0.70338563
0.70123914
0.69932699
0.69763401
0.69614419
0.69484125
0.69370914
0.69273234
0.69189616
0.69118683
0.69059158
0.69009862
0.68969724
0.68937759
0.68913091
0.68894925
0.68882576
0.6887536
0.68872791
0.68874222
0.68879383
0.6888761
0.68898866
0.68912765
0.68928868
0.68946929
0.68967006
0.68988834
0.69012318
0.69036583
0.690625
0.69089612
0.69117825
0.69147061
0.691772
0.76811885
0.76403031
0.75966102
0.75506315
0.75029727
0.74542995
0.74053087
0.73566954
0.7309119
0.72631716
0.72193539
0.71780602
0.71395731
0.71040677
0.70716221
0.70422319
0.70158259
0.6992282
0.69714426
0.69531274
0.69371439
0.6923296
0.69113904
0.69012406
0.68926705
0.68855157
0.6879625
0.68748606
0.68710956
0.68682172
0.68661207
0.68647172
0.68639232
0.68636761
0.68639003
0.68645396
0.68655447
0.68668848
0.68685086
0.68703734
0.68724833
0.68747902
0.68772166
0.68798474
0.68826256
0.68855238
0.68885142
0.68916185
0.68947937
0.68980793
0.69014458
0.69048778
0.76795209
0.76348568
0.75870346
0.75366912
0.74845693
0.74314828
0.73782748
0.73257728
0.72747429
0.72258524
0.71796427
0.71365167
0.70967391
0.70604468
0.70276665
0.69983345
0.69723181
0.6949435
0.69294719
0.6912198
0.68973772
0.68847763
0.68741704
0.68653481
0.68581129
0.68522841
0.68476988
0.68442111
0.68416851
0.68400059
0.683906
0.68387638
0.68390288
0.68397838
0.68409764
0.68425462
0.68444217
0.684659
0.68490235
0.68516124
0.68544536
0.6857416
0.68605171
0.68637596
0.68671146
0.68705628
0.68740911
0.68777158
0.68813186
0.68850729
0.68888752
0.68927332
0.76776893
0.7628846
0.7576444
0.75212652
0.74642242
0.74063178
0.73485654
0.72919468
0.7237344
0.71854971
0.71369773
0.70921801
0.70513333
0.70145171
0.69816892
0.69527117
0.69273784
0.69054382
0.68866158
0.68706265
0.68571885
0.68460307
0.68368976
0.68295535
0.68237833
0.68193913
0.68162049
0.68140748
0.68128511
0.68124286
0.68126798
0.68135059
0.68148582
0.68166601
0.6818824
0.68213417
0.68240787
0.68270744
0.68302858
0.68336665
0.68372277
0.68408154
0.68445735
0.68484264
0.6852352
0.68563409
0.68603842
0.68644785
0.68685868
0.68727596
0.68769726
0.68812126
0.76756736
0.76221958
0.75647008
0.7504154
0.74416865
0.73785208
0.73158871
0.72549376
0.71966758
0.71419066
0.70912145
0.7044965
0.70033262
0.69662992
0.69337529
0.69054599
0.68811286
0.68604311
0.68430248
0.68285685
0.6816734
0.68072129
0.67997196
0.67939966
0.67898133
0.67869592
0.67852537
0.67845555
0.67846927
0.67855527
0.67870396
0.67890341
0.67914758
0.67943483
0.67974709
0.680091
0.68045918
0.68083827
0.68123582
0.68165056
0.68207478
0.68250376
0.68294148
0.68338536
0.68383365
0.68428534
0.68473968
0.68519608
0.68565314
0.68611217
0.68657358
0.68703602
0.76734502
0.76148177
0.75516421
0.74851228
0.74166641
0.73477674
0.7279911
0.72144396
0.71524776
0.70948798
0.70422184
0.69948013
0.69527083
0.69158356
0.68839428
0.68566969
0.68337098
0.68145694
0.67988622
0.67861893
0.67761765
0.67684799
0.67627854
0.67588163
0.67563325
0.67551064
0.67549642
0.6755732
0.67572727
0.6759483
0.67622225
0.67653928
0.67689139
0.67728383
0.67770216
0.67813183
0.67858863
0.67905371
0.67952988
0.68001614
0.68050832
0.68100354
0.68150242
0.68200375
0.68250633
0.68300933
0.68351219
0.68401439
0.68451526
0.76709916
0.76066061
0.75370735
0.74638933
0.73888161
0.7313685
0.72402691
0.71701203
0.71044757
0.70442145
0.69898638
0.69416373
0.68994929
0.68631937
0.68323683
0.68065625
0.67852818
0.67680243
0.67543033
0.67436623
0.67356833
0.67299912
0.67262433
0.67241479
0.67234674
0.67239459
0.67254075
0.67277203
0.67306842
0.67342772
0.67382132
0.67426432
0.67472755
0.67522142
0.67573884
0.67626556
0.67680628
0.67735352
0.67790638
0.6784636
0.67902262
0.67958154
0.68013999
0.6806972
0.68125243
0.68180509
0.68235481
0.6829013
0.68344436
0.76682649
0.75974344
0.75207616
0.7440134
0.73577416
0.72758453
0.71965481
0.71216173
0.70523827
0.69897109
0.69340389
0.68854424
0.68437183
0.68084669
0.67791638
0.67552191
0.67360234
0.67209814
0.67095333
0.67011674
0.66954246
0.66919072
0.66902407
0.6690136
0.66913157
0.66935778
0.66967047
0.67006034
0.67049747
0.6709945
0.6715173
0.67207529
0.67265697
0.67325555
0.67386797
0.67448691
0.67511182
0.67573882
0.6763663
0.67699297
0.67761715
0.67823753
0.6788536
0.67946486
0.68007089
0.68067139
0.68126619
0.68185523
0.68243861
0.76652313
0.75871489
0.75024231
0.74134466
0.73229678
0.72337539
0.71482836
0.7068536
0.69958982
0.69311725
0.68746483
0.68262099
0.67854511
0.67517773
0.67244901
0.67028513
0.66861311
0.66736397
0.66647466
0.66588893
0.66555707
0.66543882
0.66549198
0.6656874
0.6660031
0.66641123
0.66689167
0.66743866
0.66802657
0.66865245
0.66931191
0.66998948
0.6706814
0.67138267
0.67208972
0.67279796
0.67350556
0.67421002
0.67490985
0.67560395
0.67629121
0.6769708
0.67764234
0.67830559
0.67896041
0.67960677
0.68024474
0.68087447
0.68149628
0.7661844
0.75755613
0.74817114
0.73833495
0.72839333
0.71868378
0.70949517
0.70104452
0.69347084
0.68684084
0.68116156
0.67639613
0.6724789
0.66932775
0.6668535
0.66496663
0.66358184
0.66262096
0.66201441
0.66170165
0.66163134
0.66175584
0.66204106
0.6624517
0.66297038
0.66355426
0.66421656
0.66491448
0.66565655
0.66642296
0.66720776
0.66800262
0.66880297
0.66960473
0.67040466
0.67119956
0.67198758
0.672767
0.67353668
0.67429585
0.67504385
0.67578026
0.67650497
0.67721799
0.67791945
0.6786096
0.67928872
0.67995718
0.6806155
0.76580461
0.75624383
0.74581978
0.73492554
0.72399686
0.71344299
0.70359585
0.69468722
0.68684846
0.68012348
0.67448876
0.66987502
0.6661865
0.6633153
0.66115148
0.65958932
0.65853147
0.65789116
0.65759312
0.65757478
0.65777701
0.65816074
0.65868674
0.65931487
0.66003499
0.66081036
0.66163956
0.66250715
0.66339624
0.66429828
0.66520721
0.6661169
0.66702321
0.66792282
0.66881312
0.66969186
0.67055759
0.67140921
0.67224602
0.67306764
0.67387383
0.67466455
0.67543999
0.67620043
0.67694629
0.67767804
0.67839623
0.67910142
0.67979431
0.76537683
0.75474876
0.74313469
0.73104428
0.7190269
0.70757481
0.69706249
0.68772932
0.67968798
0.67294769
0.66744383
0.66306673
0.65968507
0.65716246
0.65536741
0.65417822
0.65348633
0.6531974
0.65323158
0.65352233
0.65401715
0.65466609
0.65542938
0.65629092
0.65720895
0.65818147
0.65918763
0.6602128
0.66124667
0.66228162
0.66331221
0.66433378
0.665343
0.66633736
0.66731499
0.66827446
0.66921487
0.6701357
0.67103672
0.67191797
0.67277963
0.67362204
0.67444566
0.6752511
0.67603901
0.67681015
0.67756527
0.67830515
0.67903065
0.76489245
0.75303368
0.74004814
0.72660169
0.71338606
0.70098666
0.68981788
0.68011488
0.67195576
0.66529981
0.66002911
0.65598517
0.65299618
0.65089505
0.64952861
0.64876034
0.64847193
0.64856234
0.64894698
0.64956984
0.65036502
0.65127209
0.65229928
0.65337639
0.65451463
0.65567742
0.65685445
0.658035
0.65921067
0.66037516
0.66152408
0.66265401
0.6637626
0.66484819
0.66590973
0.66694652
0.66795832
0.66894515
0.6699073
0.67084522
0.67175951
0.67265086
0.67352007
0.67436799
0.67519558
0.67600382
0.67679372
0.67756623
0.6783224
0.76434071
0.75105053
0.73647341
0.72148572
0.7069552
0.69357074
0.68177839
0.67178887
0.66362374
0.6571739
0.6522548
0.648651
0.6461466
0.64454282
0.64366523
0.64336441
0.64351311
0.64400862
0.64476523
0.64573196
0.64682229
0.6480144
0.64928347
0.65060639
0.65194986
0.65329898
0.65464401
0.65597657
0.65729022
0.65858024
0.65984347
0.66107772
0.66228168
0.66345463
0.6645963
0.66570678
0.66678645
0.66783592
0.66885597
0.66984749
0.67081149
0.671749
0.67266112
0.67354899
0.67441382
0.67525688
0.67607939
0.67688247
0.67766735
0.76370797
0.74873606
0.73229787
0.71555431
0.69959074
0.68520639
0.67285778
0.66270077
0.65467242
0.64857413
0.64414094
0.64109335
0.63916934
0.63813954
0.6378101
0.63801814
0.63863741
0.63956555
0.64070116
0.64200923
0.64341328
0.64489211
0.64642555
0.64797348
0.64951919
0.65105049
0.65255931
0.65403948
0.65548651
0.6568974
0.65827034
0.65960443
0.6608994
0.6621555
0.66337329
0.66455361
0.66569749
0.6668061
0.66788072
0.6689227
0.66993341
0.67091424
0.67186659
0.67279184
0.67369147
0.67456706
0.67542001
0.67625163
0.6770633
0.76297655
0.74600536
0.727373
0.70862847
0.69112427
0.67576222
0.66297081
0.65280858
0.64509433
0.63951723
0.63571884
0.6333504
0.63210403
0.63172316
0.63199498
0.63275511
0.63387582
0.6352339
0.63677565
0.63842896
0.64015862
0.6419326
0.64371421
0.64548347
0.64722685
0.64893512
0.65060243
0.65222486
0.65379997
0.65532648
0.65680407
0.6582331
0.65961441
0.66094921
0.66223889
0.66348504
0.66468933
0.6658535
0.66697931
0.66806855
0.66912296
0.67014426
0.67113414
0.67209422
0.67302618
0.67393202
0.67481329
0.67567144
0.67650801
0.76212314
0.74274181
0.7215012
0.70048545
0.68136143
0.66509956
0.65203855
0.64208384
0.63489772
0.63003482
0.6270322
0.62546963
0.62499665
0.62533101
0.62626108
0.62761073
0.62923053
0.63105816
0.63299695
0.63502008
0.63707863
0.63913015
0.64115577
0.64314096
0.64507601
0.64695494
0.64877446
0.65053303
0.65223026
0.65386667
0.65544343
0.6569622
0.65842493
0.65983377
0.66119098
0.66249884
0.66375967
0.66497575
0.66614934
0.66728261
0.6683777
0.66943664
0.67046137
0.67145374
0.67241555
0.67334943
0.67425693
0.67513962
0.67599924
0.76111598
0.73878111
0.71441904
0.69085075
0.67008291
0.65307874
0.63999565
0.63051744
0.62411042
0.62017552
0.61813788
0.61750769
0.61789306
0.61901318
0.62065082
0.62258794
0.62475662
0.62704046
0.62940575
0.63180022
0.63416924
0.63649218
0.63875531
0.64094933
0.64306874
0.645111
0.64707563
0.64896352
0.65077639
0.65251655
0.65418669
0.65578974
0.65732878
0.65880689
0.66022714
0.66159253
0.66290598
0.66417031
0.66538823
0.66656233
0.6676951
0.66878886
0.66984581
0.67086798
0.67185714
0.67281695
0.67374863
0.67465393
0.67553476
0.75991012
0.73388778
0.70577558
0.67939041
0.6570495
0.63956888
0.62679956
0.61812613
0.61278348
0.61000653
0.6091061
0.60952303
0.61085503
0.61282113
0.61516912
0.6177543
0.62045333
0.62322905
0.626022
0.62876641
0.63143848
0.63402444
0.63651653
0.63891077
0.64120604
0.6434034
0.64550532
0.64751516
0.64943674
0.65127417
0.65303164
0.65471335
0.65632345
0.65786595
0.6593447
0.6607634
0.66212555
0.66343447
0.66469332
0.66590508
0.66707255
0.66819836
0.66928497
0.67033455
0.75843911
0.72771663
0.69510227
0.66570682
0.64201321
0.62446201
0.61244158
0.60495906
0.60099418
0.59961453
0.60001236
0.60159268
0.60394996
0.60675747
0.60990291
0.61310652
0.61637546
0.61965052
0.62284238
0.62592771
0.62889264
0.6317311
0.63444182
0.63702629
0.63948789
0.64183134
0.64406212
0.64618607
0.64820912
0.65013709
0.65197567
0.65373029
0.65540613
0.6570081
0.65854081
0.66000861
0.66141555
0.66276544
0.66406186
0.66530814
0.6665074
0.66766256
0.66877631
0.66985114
0.75659769
0.71974863
0.68177743
0.64934307
0.62473719
0.60769173
0.59695926
0.59110383
0.58884783
0.58909811
0.59095037
0.59381074
0.59718278
0.60091919
0.60485733
0.60870253
0.61256493
0.6162984
0.61987754
0.62329129
0.62653629
0.62961475