/*--------------------------------*- C++ -*----------------------------------*\
| =========                 |                                                 |
| \\      /  F ield         | OpenFOAM: The Open Source CFD Toolbox           |
|  \\    /   O peration     | Version:  2312                                  |
|   \\  /    A nd           | Website:  www.openfoam.com                      |
|    \\/     M anipulation  |                                                 |
\*---------------------------------------------------------------------------*/
FoamFile
{
    version     2.0;
    format      ascii;
    arch        "LSB;label=32;scalar=64";
    class       volScalarField;
    location    "0.06";
    object      omega;
}
// * * * * * * * * * * * * * * * * * * * * * * * * * * * * * * * * * * * * * //

dimensions      [0 0 -1 0 0 0 0];

internalField   nonuniform List<scalar> 
3221
(
447.40073
442.17463
437.1465
432.36886
427.81397
423.45791
419.29498
415.3304
411.57122
408.02132
404.68068
401.54639
398.61372
395.87719
393.33212
390.97607
388.80851
386.82865
385.03378
383.41903
381.97777
380.70278
379.58886
378.63281
377.82557
377.14299
376.56767
376.08157
375.70038
375.41944
375.20949
375.07493
375.01477
375.03546
375.12389
375.26754
375.46491
375.7075
375.98469
376.29045
376.61697
376.95582
377.30081
377.64568
377.98408
378.31086
378.62125
378.91066
379.17502
379.41031
379.61234
379.777
447.14348
441.81648
436.76656
431.97295
427.40172
423.03514
418.87191
414.91827
411.18027
407.66014
404.3561
401.26375
398.3773
395.69055
393.19804
390.89602
388.78234
386.85495
385.11078
383.54543
382.1532
380.92731
379.8611
378.94875
378.18211
377.54756
377.03033
376.6148
376.29494
376.06396
375.91012
375.83027
375.8206
375.87964
375.99991
376.17284
376.39335
376.65384
376.94567
377.26201
377.59551
377.93867
378.28516
378.62882
378.96367
379.28454
379.5867
379.86578
380.11794
380.33959
380.52701
380.67536
446.96283
441.3677
436.10671
431.14857
426.45806
422.01287
417.80411
413.8298
410.08896
406.57867
403.29372
400.22752
397.37307
394.72361
392.27315
390.01686
387.9509
386.07173
384.37525
382.85662
381.51023
380.32974
379.30822
378.43859
377.71308
377.12223
376.65548
376.30126
376.04907
375.88914
375.81162
375.80861
375.87288
375.99811
376.17709
376.40221
376.66649
376.96263
377.28315
377.62115
377.96985
378.32263
378.67342
379.01645
379.34628
379.65796
379.94704
380.20945
380.44163
380.64032
380.80233
380.92327
446.8579
441.07031
435.62789
430.50818
425.68494
421.13888
416.85871
412.83754
409.06939
405.54748
402.26394
399.21042
396.37871
393.76115
391.35084
389.14168
387.12813
385.30481
383.66629
382.20657
380.91911
379.79704
378.83318
378.01994
377.3492
376.81221
376.39978
376.10217
375.90947
375.81182
375.79937
375.86266
375.9926
376.18063
376.41855
376.69829
377.01194
377.35181
377.7105
378.0809
378.45629
378.83024
379.19674
379.55017
379.8853
380.19735
380.48197
380.73528
380.95388
381.13479
381.2752
381.37141
446.81067
440.92601
435.38122
430.16118
425.24857
420.62993
416.29588
412.23881
408.45099
404.92384
401.64812
398.6144
395.81352
393.23689
390.8766
388.72532
386.77614
385.02221
383.45656
382.07201
380.86104
379.81585
378.92828
378.18986
377.59176
377.1249
376.77995
376.54723
376.41689
376.37912
376.42409
376.54209
376.72361
376.95944
377.24069
377.55882
377.90561
378.27317
378.65398
379.04091
379.42727
379.80677
380.17356
380.52223
380.84778
381.14563
381.41166
381.6422
381.83402
381.98435
382.0907
382.15024
446.80235
440.89706
435.32512
430.07475
425.13423
420.49515
416.1513
412.09647
408.32323
404.82282
401.58558
398.60154
395.86091
393.35432
391.07288
389.00811
387.15178
385.49569
384.03155
382.75089
381.64495
380.70471
379.92087
379.28385
378.78384
378.41088
378.15497
378.0059
377.9534
377.98718
378.09711
378.27322
378.5058
378.78545
379.10311
379.45008
379.8181
380.19929
380.58625
380.97201
381.35011
381.71455
382.0598
382.3808
382.67294
382.93204
383.15437
383.33661
383.4759
383.56975
383.61608
383.613
446.81959
440.94759
435.40557
430.18255
425.26971
420.6621
416.35646
412.34865
408.63251
405.19985
402.04118
399.14635
396.5051
394.10735
391.94328
390.00327
388.2778
386.75733
385.43218
384.29246
383.32802
382.52846
381.88312
381.38114
381.01149
380.76303
380.62476
380.58593
380.63548
380.76248
380.95623
381.20633
381.50275
381.83585
382.1964
382.57566
382.9654
383.35786
383.74587
384.12277
384.48246
384.81936
385.12845
385.40517
385.64547
385.84573
386.0028
386.1139
386.17669
386.18919
386.14983
386.05754
446.85458
441.05431
435.58434
430.43327
425.5936
421.06259
416.83931
412.92162
409.30479
405.98155
402.94279
400.17833
397.67751
395.42955
393.42366
391.64905
390.09486
388.75008
387.60351
386.64369
385.85888
385.23712
384.76622
384.43388
384.22766
384.13514
384.14396
384.24241
384.41896
384.66187
384.95975
385.30167
385.6772
386.07643
386.49001
386.90918
387.32578
387.7323
388.12184
388.48815
388.8256
389.12916
389.39437
389.61732
389.79463
389.92335
390.00102
390.02555
389.99526
389.9088
389.76519
389.5641
446.90334
441.20486
435.84038
430.79768
426.06972
421.65509
417.55455
413.7676
410.29081
407.11778
404.23977
401.64654
399.32701
397.26962
395.46251
393.89359
392.55051
391.42065
390.49106
389.7485
389.17946
388.77019
388.50682
388.37536
388.3619
388.4526
388.63386
388.89236
389.2162
389.59293
390.01046
390.45734
390.92277
391.39665
391.86957
392.33285
392.77857
393.19954
393.5893
393.94213
394.25299
394.5175
394.73193
394.89309
394.99835
395.04557
395.03303
394.95944
394.82385
394.62564
394.36453
394.04077
446.96419
441.39388
436.16443
431.26269
426.68162
422.42057
418.48144
414.86491
411.56855
408.58656
405.91042
403.52968
401.43266
399.60683
398.03908
396.71581
395.62295
394.746
394.07004
393.57981
393.25975
393.09416
393.06722
393.16319
393.3665
393.66184
394.03433
394.46959
394.9541
395.47549
396.02097
396.57864
397.13747
397.6873
398.21886
398.72375
399.19443
399.62423
400.00735
400.33873
400.61413
400.82997
400.98335
401.07197
401.09404
401.0483
400.9339
400.75037
400.49759
400.17573
399.78523
399.32695
447.03671
441.61997
436.55401
431.8247
427.4248
423.354
419.61488
416.20889
413.13415
410.38517
407.95332
405.82764
403.99556
402.44332
401.15624
400.11891
399.31519
398.72841
398.34135
398.13646
398.09589
398.20171
398.43604
398.78121
399.21991
399.73535
400.31139
400.93265
401.5846
402.2543
402.92853
403.59519
404.24326
404.86279
405.44487
405.98161
406.46614
406.89257
407.25591
407.55206
407.77771
407.93028
408.00787
408.00915
407.93334
407.78013
407.5496
407.2422
406.85867
406.40001
405.86744
405.26242
447.12113
441.88386
437.01025
432.48526
428.30129
424.45807
420.95851
417.80436
414.99395
412.52162
410.37824
408.55198
407.02896
405.79377
404.82977
404.11928
403.64373
403.38384
403.31979
403.43136
403.69815
404.09981
404.61622
405.22771
405.91521
406.66048
407.44624
408.25628
409.0755
409.8901
410.68677
411.45352
412.17966
412.85573
413.47351
414.02595
414.50711
414.91214
415.23717
415.47924
415.63619
415.70662
415.68975
415.5854
415.39387
415.11588
414.75252
414.30521
413.77557
413.16547
412.4769
411.71201
447.21808
442.18741
437.53625
433.24866
429.31657
425.73957
422.52051
419.66113
417.15948
415.00931
413.20051
411.71984
410.55164
409.67832
409.08074
408.73844
408.62991
408.73285
409.02436
409.48125
410.08032
410.79857
411.61357
412.50358
413.4479
414.42695
415.4225
416.41779
417.39749
418.34698
419.25322
420.10473
420.89152
421.60503
422.23806
422.78475
423.24042
423.60154
423.86561
424.03102
424.09697
424.06339
423.93078
423.70017
423.37305
422.95124
422.4369
421.83239
421.14029
420.36329
419.5042
418.56582
447.32842
442.53316
438.1362
434.12072
430.47808
427.20752
424.31163
421.79169
419.64504
417.86435
416.43797
415.35066
414.58436
414.11865
413.93124
413.9983
414.29481
414.79492
415.47225
416.30029
417.25276
418.30395
419.42902
420.60432
421.80761
423.01827
424.21743
425.38809
426.51505
427.58308
428.57993
429.49509
430.31971
431.04653
431.66981
432.18519
432.58958
432.88107
433.05874
433.12255
433.07323
432.91213
432.64116
432.26265
431.77931
431.19412
430.51029
429.73117
428.86025
427.90105
426.85715
425.73203
447.45312
442.92406
438.81498
435.10818
431.7944
428.87235
426.34407
424.21005
422.46643
421.10422
420.10957
419.46461
419.14808
419.13599
419.40217
419.91873
420.6565
421.58554
422.67556
423.89644
425.21865
426.6137
428.05448
429.51559
430.97359
432.40718
433.7973
435.12709
436.38166
437.54582
438.60869
439.56125
440.39627
441.10823
441.69321
442.14874
442.47361
442.66775
442.73204
442.66818
442.47852
442.16598
441.73389
441.18596
440.52611
439.75849
438.88735
437.917
436.85182
435.69611
434.45417
433.13013
447.5933
443.36336
439.57793
436.21842
433.27487
430.74534
428.63102
426.9312
425.64031
424.74704
424.23466
424.08176
424.26304
424.7501
425.51207
426.51621
427.72856
429.11452
430.63953
432.26962
433.97197
435.7154
437.47077
439.21129
440.91278
442.5538
444.11569
445.5825
446.93829
448.17041
449.26968
450.22903
451.0433
451.70914
452.22483
452.59007
452.8058
452.874
452.79751
452.57985
452.2251
451.73776
451.12265
450.38479
449.52935
448.56159
447.48677
446.31012
445.03682
443.67192
442.22036
440.68687
447.75013
443.8545
440.43068
437.45921
434.92935
432.83832
431.18621
429.97066
429.18376
428.81117
428.83235
429.22141
429.94807
430.97852
432.27627
433.80293
435.51904
437.38493
439.36143
441.41064
443.49654
445.58554
447.64689
449.65296
451.57944
453.40539
455.11311
456.68775
458.11328
459.38045
460.48241
461.41452
462.1742
462.76063
463.17463
463.41833
463.49502
463.40885
463.1647
462.768
462.22457
461.54049
460.72201
459.77547
458.70722
457.52356
456.2307
454.83471
453.34149
451.75676
450.08604
448.33455
447.92483
444.40103
441.37906
438.83855
436.76793
435.16342
434.02366
433.34411
433.11388
433.31465
433.92102
434.90159
436.21995
437.83582
439.70608
441.78588
444.02967
446.39228
448.82981
451.30052
453.76551
456.18925
458.54003
460.7901
462.91581
464.89751
466.71941
468.36572
469.82475
471.09012
472.15792
473.02645
473.69608
474.16891
474.44851
474.53965
474.44804
474.18013
473.74286
473.14354
472.3897
471.48896
470.44896
469.27725
467.98127
466.5683
465.04538
463.41934
461.6967
459.88377
457.98656
456.01071
448.11867
445.00658
442.42892
440.36447
438.80073
437.73273
437.15728
437.06709
437.44735
438.27469
439.51778
441.13838
443.0927
445.33279
447.80793
450.46601
453.2549
456.12369
459.02384
461.91008
464.74119
467.48047
470.09604
472.56098
474.85317
476.95495
478.85244
480.53042
481.98291
483.20684
484.20166
484.9691
485.5128
485.83799
485.9512
485.85991
485.57233
485.09716
484.44338
483.62014
482.63658
481.50179
480.22465
478.81387
477.27784
475.62471
473.86223
471.99788
470.03876
467.99161
465.86286
463.65848
448.33291
445.67472
443.58607
442.04486
441.03765
440.55806
440.60061
441.15447
442.19986
443.70722
445.63782
447.94517
450.57671
453.47558
456.58248
459.83735
463.18115
466.55727
469.91286
473.19975
476.37523
479.4024
482.25032
484.89395
487.31378
489.49533
491.42268
493.08925
494.49279
495.63409
496.51646
497.14533
497.52789
497.67264
497.58912
497.28754
496.77858
496.07311
495.18208
494.11634
492.88655
491.5031
489.97603
488.31502
486.52933
484.6278
482.61886
480.51046
478.31018
476.02512
473.66197
471.22699
448.56879
446.40894
444.85605
443.88726
443.48813
443.65063
444.36638
445.62006
447.38577
449.62625
452.29376
455.33193
458.67794
462.26479
466.02367
469.88612
473.78609
477.66162
481.45619
485.11971
488.60909
491.88846
494.92903
497.70883
500.21198
502.42405
504.33565
505.94588
507.25706
508.27437
509.00535
509.45938
509.64729
509.58092
509.27277
508.73574
507.98282
507.02698
505.88096
504.55718
503.06765
501.42391
499.637
497.71742
495.67517
493.51966
491.25985
488.90408
486.46025
483.93572
481.33741
478.67172
448.82749
447.2125
446.24404
445.89866
446.16089
447.02071
448.46611
450.47621
453.01751
456.04326
459.49489
463.30436
467.39702
471.69456
476.11793
480.59006
485.03815
489.39557
493.60324
497.61038
501.37494
504.86348
508.05071
510.91889
513.45485
515.64684
517.49491
519.00313
520.1788
521.03184
521.57419
521.81931
521.78167
521.47635
520.91875
520.12426
519.10808
517.88506
516.46955
514.87535
513.11566
511.20297
509.14917
506.96545
504.66237
502.24983
499.7371
497.13286
494.4452
491.68167
488.8493
485.95457
449.11012
448.08837
447.75469
448.08527
449.06363
450.6773
452.90983
455.73339
459.10507
462.96661
467.2465
471.86313
476.72845
481.7518
486.84347
491.9179
496.89624
501.70836
506.29398
510.6033
514.59692
518.24536
521.52818
524.43274
526.94545
529.06727
530.80402
532.16539
533.16397
533.81465
534.13383
534.13899
533.84814
533.27949
532.4511
531.38068
530.0854
528.58177
526.88556
525.01177
522.97451
520.78714
518.46218
516.01138
513.4457
510.77535
508.00986
505.15808
502.22823
499.22794
496.16427
493.04372
449.41765
449.03908
449.39191
450.4523
452.20271
454.62783
457.70564
461.39967
465.65544
470.40085
475.54912
481.00306
486.6598
492.41551
498.16978
503.82915
509.30994
514.54004
519.45985
524.02237
528.19266
531.94691
535.27105
538.15109
540.58817
542.59007
544.16907
545.34083
546.12347
546.53682
546.60174
546.33954
545.7716
544.91899
543.80221
542.44104
540.85437
539.06015
537.0753
534.91577
532.5965
530.13148
527.53371
524.81529
521.98745
519.06062
516.04446
512.94789
509.77916
506.54589
503.25514
499.91332
449.7509
450.06665
451.1587
453.00363
455.58294
458.87784
462.85935
467.4803
472.67212
478.34614
484.39785
490.71247
497.17106
503.65626
510.05734
516.27415
522.21984
527.82237
533.02491
537.78533
542.07507
545.87754
549.17904
551.97965
554.28937
556.12338
557.50074
558.4433
558.97471
559.11965
558.90321
558.35032
557.48544
556.33219
554.91327
553.2502
551.36335
549.2718
546.99345
544.54501
541.94205
539.19894
536.32903
533.34463
530.25709
527.07696
523.81392
520.47689
517.07402
513.6129
510.10049
506.54306
450.11048
451.17244
453.05693
455.74167
459.20727
463.43061
468.37407
473.97724
480.15448
486.79758
493.78165
500.9725
508.23418
515.43591
522.45771
529.19448
535.55841
541.47992
546.90734
551.80556
556.15424
559.93911
563.15925
565.82659
567.9594
569.58051
570.71594
571.3937
571.64282
571.49261
570.97206
570.10942
568.93187
567.46531
565.73424
563.76171
561.56915
559.17669
556.60293
553.86514
550.97922
547.95986
544.82057
541.57373
538.23071
534.80203
531.29737
527.72554
524.0945
520.41174
516.68404
512.91756
450.49674
452.35696
455.08716
458.66708
463.07646
468.28685
474.2498
480.88866
488.0973
495.74464
503.68281
511.75658
519.81265
527.70756
535.31379
542.52365
549.25105
555.43157
561.02116
565.99394
570.33385
574.03847
577.12151
579.60441
581.51414
582.88136
583.73897
584.12093
584.06136
583.59384
582.75093
581.56378
580.06194
578.27323
576.22365
573.93734
571.43676
568.74271
565.87429
562.84905
559.68313
556.39133
552.98722
549.48317
545.89038
542.21927
538.47942
534.67957
530.8273
526.92997
522.99421
519.02597
450.9097
453.61979
457.24843
461.77847
467.18883
473.44436
480.4831
488.20854
496.49016
505.17052
514.07628
523.03005
531.8614
540.41574
548.56045
556.18813
563.21746
569.59207
575.27805
580.25585
584.52049
588.08708
590.98027
593.23142
594.87635
595.95345
596.50226
596.56237
596.17256
595.37029
594.19121
592.66901
590.83522
588.71917
586.34799
583.74679
580.93875
577.94502
574.78497
571.47633
568.03527
564.47656
560.81374
557.05909
553.22348
549.31718
545.34957
541.32928
537.26353
533.15945
529.02347
524.86132
451.34903
454.95941
459.53799
465.07216
471.53992
478.89767
487.06661
495.92612
505.3169
515.05163
524.9293
534.74985
544.32686
553.49692
562.12537
570.10854
577.37317
583.87382
589.58504
594.49754
598.62708
602.00126
604.65608
606.63297
607.97649
608.7325
608.94677
608.66406
607.92736
606.77749
605.25279
603.38901
601.21925
598.77398
596.0813
593.16699
590.0545
586.76524
583.31866
579.73248
576.02277
572.20417
568.29003
564.29247
560.22201
556.08867
551.90156
547.66901
543.39813
539.09568
534.76779
530.41996
451.81395
456.37304
461.95116
468.54193
476.12226
484.63777
493.98871
504.02539
514.55505
525.35698
536.20091
546.86447
557.14722
566.88012
575.93016
584.20109
591.63114
598.18545
603.84779
608.63311
612.57145
615.70342
618.07652
619.74213
620.75323
621.16268
621.02201
620.38059
619.2851
617.77922
615.9035
613.69531
611.18889
608.41571
605.40446
602.18118
598.76949
595.19081
591.46453
587.60821
583.63774
579.56746
575.41043
571.17848
566.88192
562.53039
558.13266
553.69668
549.22941
544.73728
540.22609
535.70106
452.30319
457.85644
464.48102
472.17878
480.9251
490.65173
501.23305
512.48459
524.1752
536.04768
547.84168
559.31388
570.25288
580.48786
589.89158
598.37911
605.90153
612.4316
617.98118
622.58151
626.27753
629.12303
631.17689
632.50009
633.15354
633.19655
632.68581
631.67472
630.21308
628.34694
626.11854
623.56642
620.72585
617.62884
614.30428
610.77833
607.07455
603.21423
599.21655
595.09876
590.87644
586.56362
582.173
577.71599
573.20267
568.64228
564.04319
559.41298
554.75836
550.08548
545.39978
540.70619
452.81492
459.40384
467.11831
475.97074
485.93412
496.92241
508.77806
521.27553
534.14036
547.07637
559.79342
572.02981
583.56709
594.23718
603.92295
612.55408
620.08728
626.52742
631.90479
636.26768
639.67616
642.19714
643.90049
644.85626
645.13267
644.79485
643.90398
642.5169
640.68599
638.45911
635.87969
632.98734
629.81786
626.40339
622.77288
618.95236
614.96522
610.83241
606.57277
602.20318
597.73884
593.19337
588.57905
583.90687
579.18656
574.42693
569.63601
564.82098
559.98821
555.14365
550.29234
545.43887
453.34666
461.00772
469.85122
479.90267
491.13126
503.42802
516.5964
530.36294
544.40521
558.3867
571.98904
584.93592
597.00668
608.04084
617.93578
626.62625
634.10318
640.3925
645.54397
649.62331
652.70569
654.87071
656.19871
656.76812
656.65382
655.92602
654.64976
652.8847
650.68525
648.10048
645.17493
641.94876
638.45784
634.73432
630.80697
626.70151
622.44098
618.04593
613.53474
608.92385
604.22796
599.46024
594.63254
589.75542
584.83816
579.88918
574.91611
569.92575
564.92405
559.91689
554.90884
549.90427
453.89529
462.65878
472.66525
483.95612
496.49443
510.14176
524.65427
539.70351
554.91528
569.91268
584.35234
597.94828
610.48295
621.8084
631.82815
640.50943
647.86807
653.95192
658.83066
662.58744
665.31216
667.09659
668.03082
668.20095
667.68771
666.56574
664.90325
662.76215
660.19821
657.26164
653.99757
650.44619
646.64333
642.62086
638.4072
634.02765
629.50476
624.85861
620.10699
615.26581
610.34932
605.37011
600.33965
595.26799
590.16396
585.03561
579.89015
574.73388
569.57247
564.41176
559.2557
554.10875
454.45695
464.34577
475.54319
488.10926
501.99728
517.0312
532.91051
549.2449
565.60588
581.57808
596.79793
610.97572
623.90257
635.43727
645.51104
654.12059
661.30582
667.13703
671.70389
675.10665
677.44943
678.83543
679.36374
679.12735
678.2121
676.69633
674.65081
672.13901
669.21784
665.93832
662.3455
658.47947
654.37577
650.06585
645.57761
640.93578
636.16233
631.2768
626.29637
621.23637
616.11047
610.93079
605.70833
600.45256
595.17197
589.87419
584.56602
579.2533
573.94136
568.63596
563.34037
558.05956
455.02701
466.05552
478.46502
492.33673
507.60888
524.05754
541.31543
558.92424
576.40084
593.29556
609.23095
623.92029
637.16102
648.83197
658.89786
667.38106
674.34617
679.88605
684.1101
687.1352
689.07899
690.05537
690.17162
689.52682
688.21123
686.30619
683.88436
681.01032
677.74201
674.1305
670.22061
666.05208
661.66002
657.07523
652.325
647.43341
642.42177
637.309
632.11174
626.8446
621.52062
616.15155
610.74786
605.31844
599.87142
594.41404
588.95268
583.49286
578.03957
572.59806
567.17161
561.76432
455.60009
467.77291
481.40802
496.60964
513.29323
531.17461
549.80912
568.66631
587.21091
604.96562
621.54679
636.67375
650.15307
661.90015
671.90551
680.21749
686.92539
692.14443
696.00331
698.63494
700.16981
700.73172
700.43538
699.38524
697.67524
695.38912
692.60079
689.37591
685.77265
681.842
677.62828
673.17068
668.50373
663.65749
658.65848
653.53019
648.29311
642.96546
637.56345
632.10091
626.59031
621.0429
615.46858
609.87588
604.27246
598.66514
593.05994
587.46209
581.87628
576.30723
570.75801
565.23225
456.17006
469.48097
484.34684
500.89545
519.00864
538.32725
558.31926
578.38104
597.93152
616.47528
633.63096
649.11666
662.77703
674.55134
684.45529
692.56259
698.98681
703.86512
707.34512
709.57518
710.69797
710.84653
710.14226
708.69428
706.59964
703.9437
700.80165
697.23957
693.31535
689.07991
684.5768
679.84452
674.91688
669.82323
664.58909
659.23733
653.78778
648.25784
642.66308
637.01682
631.33096
625.61612
619.88172
614.13591
608.38588
602.63808
596.89817
591.17108
585.46124
456.73007
471.16099
487.25365
505.1578
524.7066
545.4491
566.75788
587.9601
608.43995
627.69597
645.34384
661.13276
674.93042
686.6979
696.4738
704.35581
710.48116
715.00871
718.10463
719.9324
720.64638
720.38819
719.2853
717.45096
714.98459
711.97297
708.49239
704.60853
700.3788
695.854
691.07691
686.08511
680.91142
675.58461
670.1293
664.56749
658.91835
653.19862
647.42313
641.60473
635.75472
629.88319
623.99904
618.11003
612.22295
606.34386
600.47808
594.63026
588.8045
457.2726
472.79273
490.09835
509.35604
530.33007
552.45924
575.01687
597.27215
618.59124
638.47152
656.54853
672.60032
686.51047
698.25582
707.89371
715.54394
721.36696
725.54348
728.25836
729.69007
730.00434
729.35093
727.86289
725.65702
722.83457
719.48395
715.68165
711.49289
706.97431
702.17649
697.14136
691.90553
686.50086
680.95523
675.29264
669.53418
663.69832
657.80113
651.85677
645.87756
639.87429
633.85651
627.83266
621.81008
615.79521
609.79373
603.81063
597.85028
591.9165
457.78959
474.35469
492.84865
513.44447
535.81071
559.25725
582.96147
606.15635
628.21006
648.63097
667.09313
683.39132
697.41462
709.14568
718.65466
726.08166
731.61077
735.44546
737.79004
738.83823
738.76715
737.7344
735.87821
733.31841
730.1581
726.48677
722.38091
717.90527
713.11538
708.06144
702.78455
697.32028
691.69965
685.94967
680.09359
674.15171
668.14177
662.07921
655.97755
649.8486
643.70264
637.54874
631.3949
625.24806
619.11432
612.99902
606.90684
600.84187
594.80767
458.27252
475.82437
495.47005
517.37061
541.06447
565.71587
590.42088
614.41383
637.08113
657.97983
676.80899
693.37084
707.54123
719.2938
728.70427
735.93222
741.18743
744.69839
746.6904
747.37327
746.93568
745.54318
743.3388
740.44494
736.96688
732.99455
728.60422
723.86022
718.81726
713.52426
708.02191
702.34488
696.52327
690.58321
684.54722
678.43487
672.26319
666.04702
659.7993
653.53131
647.25289
640.97265
634.69816
628.43602
622.19199
615.97109
609.77771
603.61569
597.48835
458.7125
477.17851
497.92535
521.07215
545.98447
571.66992
597.17392
621.78326
644.95352
666.29023
685.50666
702.39625
716.79052
728.63376
737.99931
745.06812
750.08035
753.29363
754.95692
755.29742
754.51603
752.78634
750.25585
747.0499
743.27551
739.02272
734.36764
729.37416
724.09618
718.58141
712.86994
706.99565
700.98778
694.87162
688.66898
682.39874
676.07729
669.71889
663.33594
656.93923
650.53817
644.14097
637.75481
631.38596
625.03984
618.7212
612.43417
606.18233
599.96878
459.1003
478.39314
500.17336
524.47139
550.42952
576.89955
602.92658
627.94082
651.51756
673.29042
692.97
710.31646
725.06624
737.10851
746.50727
753.47181
758.28167
761.23006
762.59346
762.6185
761.51892
759.47677
756.6441
753.14938
749.1008
744.58867
739.68877
734.46467
728.96966
723.25024
717.34577
711.2894
705.10961
698.83093
692.47447
686.0585
679.59881
673.10911
666.60133
660.0858
653.57152
647.06634
640.57708
634.1097
627.66934
621.26047
614.88696
608.55219
602.25904
459.42615
479.44329
502.16604
527.46508
554.20511
581.104
607.52246
632.9354
656.92204
679.12762
699.25849
717.05962
732.27842
744.67342
754.20811
761.13645
765.79237
768.51381
769.61
769.34928
767.9592
765.63098
762.52126
758.76168
754.46144
749.71107
744.58636
739.15042
733.45603
727.54866
721.46689
715.2432
708.90537
702.47725
695.97933
689.4293
682.84241
676.2319
669.60922
662.98431
656.3658
649.76119
643.177
636.61889
630.09174
623.59977
617.14661
610.73544
604.36897
459.67906
480.3019
503.84269
529.90614
557.0305
584.30126
611.09474
636.89872
661.29602
683.93467
704.51425
722.76857
738.44492
751.30039
761.09623
768.06641
772.62214
775.15796
776.02191
775.50687
773.85566
771.26836
767.90737
763.90696
759.3774
754.4099
749.08009
743.45072
737.57413
731.49495
725.25102
718.87421
712.39167
705.82664
699.19908
692.52613
685.82258
679.10122
672.3731
665.64779
658.93359
652.23768
645.56631
638.92489
632.31804
625.74973
619.2234
612.74203
606.30817
459.84502
480.93719
505.11887
531.57005
558.99912
586.60737
613.75722
639.9436
664.75217
687.82751
708.85857
727.56708
743.69417
756.98991
767.18245
774.27754
778.78909
781.18189
781.84949
781.11248
779.22997
776.41095
772.82423
768.60664
763.86996
758.70595
753.19019
747.38521
741.34298
735.10748
728.71588
722.19951
715.58497
708.89498
702.14901
695.36373
688.55353
681.73078
674.9062
668.089
661.2872
654.5077
647.75649
641.03876
634.35891
627.72067
621.12729
614.58158
608.08596
459.90238
481.30695
505.86506
532.5115
560.21415
588.12586
615.60934
642.16886
667.3904
690.9088
712.39761
731.56375
748.13889
761.86807
772.49369
779.79681
784.31883
786.61057
787.11758
786.19059
784.10615
781.08251
777.29502
772.88346
767.96114
762.62047
756.93718
750.97367
744.78162
738.40453
731.87903
725.23596
718.50147
711.69784
704.84408
697.95651
691.04911
684.13393
677.22135
670.32031
663.43855
656.58273
649.75863
642.97121
636.22472
629.5226
622.86793
616.26343
609.71134
459.81112
481.34643
505.99749
532.83474
560.77286
588.94861
616.73975
643.66321
669.30102
693.27117
715.22619
734.85493
751.87712
766.03099
777.05468
784.6613
789.24396
791.47367
791.85423
790.76827
788.51008
785.30818
781.3441
776.7608
771.67333
766.17494
760.34161
754.23574
747.90887
741.40412
734.75771
728.00008
721.15701
714.25039
707.29888
700.31845
693.32277
686.32359
679.33101
672.35372
665.3992
658.47392
651.58345
644.73261
637.92547
631.16514
624.45464
617.79656
611.193
459.48755
480.90828
505.64041
532.64259
560.76678
589.15928
617.22947
644.50838
670.56753
694.9998
717.43055
737.52732
754.99626
769.56769
780.97497
788.9219
793.60243
795.80434
796.09022
794.87431
792.46922
789.11412
784.9963
780.26229
775.02904
769.39074
763.42384
757.19083
750.74321
744.12388
737.36874
730.50795
723.56696
716.56736
709.52752
702.46311
695.38753
688.31227
681.24719
674.20077
667.18028
660.19199
653.2413
646.33289
639.47077
632.65756
625.89635
619.18959
612.53929
458.98895
480.13018
504.91498
532.03698
560.28175
588.83572
617.15468
644.78169
671.26888
696.17448
719.09034
739.65997
757.57482
772.55679
784.33706
792.63
797.43476
799.63834
799.85786
798.53888
796.01196
792.52686
788.27665
783.41154
778.05054
772.28896
766.20381
759.85784
753.30261
746.5809
739.72843
732.77511
725.74618
718.66296
711.5436
704.40351
697.25588
690.11197
682.98145
675.87259
668.79249
661.74724
654.7421
647.7816
458.36495
479.13256
503.94158
531.11694
559.39894
588.05211
616.589
644.55822
671.48122
696.87115
720.28014
741.32549
759.68351
775.06834
787.20868
795.8335
800.78282
803.01252
803.1907
801.79288
799.16683
795.57295
791.20996
786.23181
780.7597
774.89017
768.70095
762.25514
755.60447
748.79171
741.85247
734.81653
727.70893
720.55084
713.36017
706.15217
698.93982
691.73423
684.54486
677.37982
670.24606
663.14953
656.09533
649.08785
457.65859
478.03464
502.84387
529.97758
558.19549
586.88072
615.60541
643.91229
671.27906
697.16298
721.07022
742.59072
761.3872
777.16489
789.64868
798.57554
803.68862
805.9645
806.12263
804.66708
801.96219
798.27858
793.82055
788.74579
783.17772
777.21427
770.93397
764.40039
757.6655
750.77215
743.75593
736.64653
729.46889
722.24403
714.98972
707.72104
700.45083
693.19004
685.94798
678.73263
671.55079
664.40829
657.3101
650.26046
456.9149
476.96863
501.74513
528.70777
556.74468
585.39324
614.27756
642.91844
670.73601
697.1207
721.52672
743.51805
762.74529
778.90237
791.71107
800.90727
806.19521
808.5319
808.68709
807.19176
804.42576
800.66923
796.13198
790.97532
785.32499
779.28034
772.92078
766.31045
759.50164
752.53733
745.45315
738.27878
731.03909
723.75499
716.44414
709.12152
701.79984
694.48989
687.2009
679.94071
672.716
665.5325
658.39507
651.30781
456.19094
476.09402
500.76532
527.3866
555.11562
583.66151
612.68043
641.65186
669.92468
696.81236
721.71236
744.16553
763.81069
780.33207
793.4458
802.88601
808.34532
810.75113
810.91651
809.39622
806.58421
802.76935
798.16678
792.94131
787.22096
781.10656
774.67846
768.00141
761.12807
754.10162
746.95779
739.72628
732.43191
725.09554
717.73477
710.36446
702.99722
695.64377
688.3132
681.01327
673.75057
666.53071
659.35846
652.23783
455.57224
475.59979
500.00859
526.07791
553.37235
581.75758
610.8903
640.1883
668.91557
696.30319
721.68648
744.58488
764.63241
781.50017
794.89636
804.55888
810.17842
812.65682
812.84185
811.3084
808.46294
804.6022
799.94634
794.66354
788.88403
782.71012
776.22314
769.48847
762.55915
755.47865
748.28278
741.00132
733.65908
726.2769
718.87231
711.46012
704.05285
696.66113
689.29398
681.95907
674.66291
667.41102
660.2081
653.05807
455.19923
475.68799
499.54075
524.82376
551.5724
579.75285
608.98414
638.60254
667.77765
695.65467
721.50186
744.82388
765.25564
782.44643
796.10141
805.96568
811.73049
814.28124
814.49213
812.95457
810.0858
806.1896
801.49076
796.16061
790.33153
784.10723
777.57003
770.78594
763.80845
756.68125
749.44034
742.11554
734.73172
727.30969
719.86695
712.41825
704.97606
697.55096
690.15188
682.78642
675.46102
668.18115
660.95141
653.77569
455.3264
476.51146
499.35768
523.63854
549.76549
577.71716
607.0374
636.96685
666.57715
694.92379
721.20583
744.92652
765.71922
783.20559
797.09534
807.14057
813.03396
815.65404
815.89423
814.35909
811.47501
807.55191
802.81881
797.44993
791.57965
785.31306
778.73339
771.90731
764.8887
757.72153
750.44197
743.07993
735.66031
728.20393
720.72828
713.24806
705.77572
698.32175
690.89505
683.50317
676.15248
668.84838
661.59544
654.39746
456.45685
478.03321
499.35773
522.50996
547.99389
575.71625
605.1226
635.35051
665.37481
694.15869
720.84317
744.93253
766.05597
783.80818
797.90798
808.11303
814.11778
816.80213
817.07274
815.54439
812.65106
808.70797
803.94789
798.54767
792.64351
786.34178
779.72659