/*--------------------------------*- C++ -*----------------------------------*\
| =========                 |                                                 |
| \\      /  F ield         | OpenFOAM: The Open Source CFD Toolbox           |
|  \\    /   O peration     | Version:  2312                                  |
|   \\  /    A nd           | Website:  www.openfoam.com                      |
|    \\/     M anipulation  |                                                 |
\*---------------------------------------------------------------------------*/
FoamFile
{
    version     2.0;
    format      ascii;
    arch        "LSB;label=32;scalar=64";
    class       volScalarField;
    location    "0.06";
    object      p;
}
// * * * * * * * * * * * * * * * * * * * * * * * * * * * * * * * * * * * * * //

dimensions      [1 -1 -2 0 0 0 0];

internalField   nonuniform List<scalar> 
3221
(
100005.31
100005.02
100004.88
100004.89
100004.94
100005
100005.06
100005.14
100005.23
100005.35
100005.5
100005.68
100005.91
100006.18
100006.5
100006.88
100007.33
100007.85
100008.46
100009.15
100009.93
100010.8
100011.76
100012.76
100013.79
100014.79
100015.7
100016.37
100016.75
100016.8
100016.59
100016.27
100015.88
100015.47
100015.08
100014.7
100014.37
100014.07
100013.81
100013.59
100013.39
100013.22
100013.06
100012.92
100012.79
100012.66
100012.53
100012.41
100012.3
100012.19
100012.08
100011.98
100005.65
100005.18
100004.69
100004.4
100004.22
100004.11
100004.03
100003.99
100003.96
100003.95
100003.95
100003.95
100003.96
100003.97
100003.98
100004
100004.01
100004.01
100003.99
100003.94
100003.85
100003.73
100003.67
100003.65
100003.66
100003.73
100003.87
100004.05
100004.19
100004.3
100004.42
100004.58
100004.76
100004.99
100005.36
100005.66
100005.91
100006.12
100006.3
100006.45
100006.59
100006.72
100006.82
100006.9
100006.97
100007.02
100007.06
100007.08
100007.1
100007.1
100007.1
100007.09
100006.04
100005.66
100005.29
100005.03
100004.85
100004.73
100004.63
100004.57
100004.52
100004.49
100004.47
100004.44
100004.42
100004.4
100004.38
100004.36
100004.36
100004.39
100004.4
100004.48
100004.66
100004.93
100005.22
100005.56
100005.93
100006.32
100006.68
100006.97
100007.15
100007.22
100007.19
100007.07
100006.9
100006.67
100006.42
100006.32
100006.33
100006.42
100006.54
100006.67
100006.79
100006.9
100007
100007.08
100007.13
100007.18
100007.2
100007.21
100007.21
100007.2
100007.19
100007.17
100006.25
100005.99
100005.73
100005.52
100005.37
100005.25
100005.16
100005.09
100005.03
100004.97
100004.92
100004.87
100004.81
100004.74
100004.65
100004.55
100004.43
100004.29
100004.2
100004.13
100004.1
100004.11
100004.17
100004.26
100004.38
100004.51
100004.62
100004.73
100004.8
100004.83
100004.86
100004.94
100005.05
100005.22
100005.38
100005.56
100005.77
100005.99
100006.22
100006.43
100006.63
100006.81
100006.96
100007.08
100007.18
100007.25
100007.3
100007.34
100007.36
100007.36
100007.36
100007.35
100006.36
100006.18
100006
100005.85
100005.73
100005.63
100005.55
100005.49
100005.44
100005.38
100005.33
100005.27
100005.2
100005.12
100005.02
100004.9
100004.76
100004.62
100004.49
100004.36
100004.26
100004.19
100004.16
100004.16
100004.2
100004.27
100004.36
100004.44
100004.53
100004.63
100004.75
100004.9
100005.07
100005.27
100005.48
100005.71
100005.94
100006.19
100006.43
100006.65
100006.86
100007.04
100007.19
100007.32
100007.42
100007.5
100007.55
100007.59
100007.61
100007.62
100007.62
100007.61
100006.45
100006.32
100006.19
100006.08
100005.99
100005.91
100005.86
100005.81
100005.77
100005.73
100005.68
100005.63
100005.57
100005.49
100005.39
100005.27
100005.14
100004.99
100004.85
100004.7
100004.57
100004.46
100004.38
100004.33
100004.32
100004.34
100004.38
100004.46
100004.55
100004.68
100004.83
100005.01
100005.21
100005.44
100005.68
100005.93
100006.19
100006.45
100006.69
100006.92
100007.13
100007.31
100007.46
100007.59
100007.69
100007.77
100007.82
100007.86
100007.88
100007.89
100007.89
100007.88
100006.52
100006.43
100006.32
100006.24
100006.17
100006.12
100006.08
100006.05
100006.03
100006
100005.97
100005.94
100005.89
100005.82
100005.74
100005.64
100005.52
100005.39
100005.25
100005.1
100004.97
100004.85
100004.75
100004.68
100004.63
100004.63
100004.65
100004.71
100004.81
100004.94
100005.1
100005.29
100005.5
100005.74
100005.99
100006.24
100006.5
100006.75
100006.99
100007.21
100007.4
100007.57
100007.72
100007.84
100007.94
100008.01
100008.06
100008.1
100008.12
100008.13
100008.13
100008.13
100006.59
100006.5
100006.42
100006.35
100006.3
100006.27
100006.24
100006.23
100006.22
100006.21
100006.2
100006.18
100006.15
100006.11
100006.05
100005.97
100005.88
100005.77
100005.65
100005.53
100005.4
100005.29
100005.19
100005.12
100005.07
100005.06
100005.08
100005.13
100005.22
100005.34
100005.5
100005.68
100005.89
100006.11
100006.35
100006.59
100006.83
100007.06
100007.28
100007.48
100007.66
100007.81
100007.94
100008.05
100008.14
100008.21
100008.25
100008.29
100008.31
100008.32
100008.33
100008.33
100006.62
100006.54
100006.47
100006.42
100006.38
100006.36
100006.35
100006.35
100006.36
100006.36
100006.37
100006.37
100006.36
100006.34
100006.31
100006.26
100006.19
100006.11
100006.02
100005.93
100005.83
100005.74
100005.66
100005.6
100005.56
100005.55
100005.56
100005.62
100005.7
100005.81
100005.95
100006.12
100006.31
100006.51
100006.72
100006.94
100007.15
100007.35
100007.54
100007.72
100007.87
100008.01
100008.12
100008.22
100008.3
100008.35
100008.4
100008.43
100008.45
100008.46
100008.47
100008.47
100006.63
100006.56
100006.49
100006.45
100006.42
100006.41
100006.41
100006.42
100006.44
100006.46
100006.48
100006.5
100006.52
100006.52
100006.51
100006.49
100006.46
100006.41
100006.35
100006.29
100006.22
100006.16
100006.1
100006.06
100006.03
100006.03
100006.05
100006.1
100006.18
100006.28
100006.4
100006.55
100006.72
100006.89
100007.08
100007.26
100007.44
100007.61
100007.77
100007.92
100008.05
100008.17
100008.27
100008.35
100008.41
100008.46
100008.5
100008.53
100008.55
100008.57
100008.58
100008.58
100006.61
100006.55
100006.48
100006.44
100006.42
100006.42
100006.43
100006.45
100006.48
100006.51
100006.55
100006.59
100006.62
100006.64
100006.66
100006.67
100006.66
100006.64
100006.62
100006.59
100006.55
100006.51
100006.48
100006.46
100006.45
100006.46
100006.49
100006.54
100006.61
100006.7
100006.81
100006.94
100007.08
100007.23
100007.38
100007.54
100007.69
100007.83
100007.96
100008.09
100008.19
100008.29
100008.37
100008.44
100008.49
100008.54
100008.57
100008.6
100008.62
100008.64
100008.65
100008.66
100006.58
100006.51
100006.45
100006.41
100006.4
100006.4
100006.41
100006.44
100006.48
100006.52
100006.57
100006.62
100006.67
100006.72
100006.75
100006.78
100006.8
100006.81
100006.82
100006.81
100006.81
100006.8
100006.79
100006.79
100006.8
100006.82
100006.86
100006.91
100006.97
100007.06
100007.15
100007.26
100007.38
100007.5
100007.63
100007.76
100007.88
100008
100008.11
100008.21
100008.3
100008.38
100008.44
100008.5
100008.55
100008.59
100008.62
100008.64
100008.67
100008.68
100008.7
100008.71
100006.53
100006.46
100006.4
100006.36
100006.35
100006.35
100006.37
100006.4
100006.45
100006.5
100006.56
100006.62
100006.68
100006.74
100006.8
100006.85
100006.89
100006.93
100006.96
100006.98
100007
100007.01
100007.03
100007.05
100007.07
100007.1
100007.14
100007.2
100007.26
100007.34
100007.42
100007.51
100007.61
100007.72
100007.82
100007.93
100008.03
100008.13
100008.21
100008.3
100008.37
100008.43
100008.49
100008.54
100008.58
100008.61
100008.64
100008.67
100008.69
100008.71
100008.73
100008.75
100006.46
100006.39
100006.32
100006.29
100006.28
100006.28
100006.3
100006.34
100006.39
100006.45
100006.51
100006.59
100006.66
100006.73
100006.81
100006.87
100006.93
100006.99
100007.04
100007.08
100007.12
100007.16
100007.19
100007.23
100007.27
100007.31
100007.36
100007.41
100007.47
100007.54
100007.62
100007.7
100007.78
100007.87
100007.96
100008.05
100008.13
100008.21
100008.28
100008.35
100008.41
100008.46
100008.51
100008.55
100008.59
100008.62
100008.65
100008.68
100008.7
100008.73
100008.75
100008.77
100006.38
100006.3
100006.24
100006.2
100006.19
100006.19
100006.22
100006.26
100006.31
100006.37
100006.45
100006.53
100006.61
100006.69
100006.78
100006.86
100006.94
100007.01
100007.07
100007.14
100007.19
100007.25
100007.3
100007.35
100007.4
100007.45
100007.5
100007.56
100007.62
100007.69
100007.75
100007.83
100007.9
100007.98
100008.05
100008.12
100008.19
100008.26
100008.32
100008.37
100008.43
100008.47
100008.51
100008.55
100008.58
100008.62
100008.64
100008.67
100008.7
100008.73
100008.75
100008.78
100006.29
100006.21
100006.14
100006.1
100006.09
100006.09
100006.12
100006.16
100006.21
100006.28
100006.36
100006.45
100006.54
100006.63
100006.73
100006.82
100006.91
100006.99
100007.07
100007.15
100007.22
100007.29
100007.35
100007.41
100007.47
100007.53
100007.59
100007.65
100007.71
100007.77
100007.84
100007.9
100007.97
100008.04
100008.1
100008.16
100008.22
100008.28
100008.33
100008.38
100008.42
100008.46
100008.5
100008.53
100008.57
100008.6
100008.63
100008.66
100008.69
100008.72
100008.75
100008.78
100006.19
100006.1
100006.03
100005.99
100005.98
100005.98
100006
100006.05
100006.11
100006.18
100006.26
100006.35
100006.45
100006.55
100006.65
100006.76
100006.86
100006.95
100007.05
100007.13
100007.22
100007.3
100007.37
100007.44
100007.51
100007.57
100007.64
100007.7
100007.76
100007.82
100007.88
100007.94
100008
100008.06
100008.12
100008.17
100008.22
100008.27
100008.32
100008.36
100008.4
100008.44
100008.47
100008.5
100008.54
100008.57
100008.6
100008.63
100008.67
100008.7
100008.74
100008.78
100006.07
100005.99
100005.91
100005.87
100005.85
100005.85
100005.88
100005.92
100005.99
100006.06
100006.15
100006.25
100006.35
100006.46
100006.57
100006.68
100006.79
100006.9
100007
100007.1
100007.19
100007.28
100007.36
100007.44
100007.51
100007.58
100007.65
100007.71
100007.78
100007.84
100007.9
100007.95
100008.01
100008.06
100008.11
100008.16
100008.21
100008.25
100008.29
100008.33
100008.37
100008.4
100008.44
100008.47
100008.5
100008.53
100008.57
100008.6
100008.64
100008.68
100008.72
100008.76
100005.95
100005.86
100005.78
100005.73
100005.71
100005.72
100005.75
100005.79
100005.86
100005.94
100006.03
100006.14
100006.25
100006.36
100006.48
100006.6
100006.72
100006.83
100006.94
100007.05
100007.15
100007.24
100007.33
100007.42
100007.5
100007.57
100007.64
100007.71
100007.77
100007.83
100007.89
100007.95
100008
100008.05
100008.09
100008.14
100008.18
100008.22
100008.26
100008.29
100008.33
100008.36
100008.39
100008.43
100008.46
100008.49
100008.53
100008.57
100008.61
100008.65
100008.69
100008.74
100005.82
100005.72
100005.64
100005.59
100005.57
100005.57
100005.6
100005.65
100005.72
100005.81
100005.91
100006.02
100006.14
100006.26
100006.39
100006.51
100006.64
100006.76
100006.88
100006.99
100007.1
100007.2
100007.3
100007.39
100007.47
100007.55
100007.62
100007.69
100007.75
100007.81
100007.87
100007.92
100007.97
100008.02
100008.06
100008.1
100008.14
100008.18
100008.22
100008.25
100008.28
100008.32
100008.35
100008.38
100008.41
100008.45
100008.49
100008.53
100008.57
100008.62
100008.67
100008.72
100005.68
100005.57
100005.48
100005.43
100005.41
100005.41
100005.45
100005.5
100005.58
100005.67
100005.78
100005.9
100006.03
100006.16
100006.29
100006.43
100006.56
100006.69
100006.81
100006.93
100007.05
100007.15
100007.25
100007.35
100007.44
100007.52
100007.59
100007.66
100007.73
100007.79
100007.84
100007.89
100007.94
100007.99
100008.03
100008.07
100008.1
100008.14
100008.17
100008.2
100008.24
100008.27
100008.3
100008.33
100008.37
100008.41
100008.45
100008.49
100008.53
100008.58
100008.64
100008.69
100005.52
100005.4
100005.31
100005.25
100005.23
100005.24
100005.28
100005.35
100005.43
100005.53
100005.65
100005.78
100005.92
100006.06
100006.2
100006.34
100006.48
100006.62
100006.75
100006.88
100007
100007.11
100007.21
100007.31
100007.4
100007.48
100007.56
100007.63
100007.7
100007.75
100007.81
100007.86
100007.91
100007.95
100007.99
100008.03
100008.06
100008.09
100008.13
100008.16
100008.19
100008.22
100008.25
100008.29
100008.32
100008.36
100008.4
100008.45
100008.49
100008.55
100008.6
100008.66
100005.34
100005.22
100005.12
100005.06
100005.05
100005.06
100005.11
100005.18
100005.27
100005.39
100005.52
100005.66
100005.8
100005.96
100006.11
100006.26
100006.41
100006.55
100006.69
100006.82
100006.95
100007.06
100007.17
100007.27
100007.37
100007.45
100007.53
100007.6
100007.67
100007.72
100007.78
100007.83
100007.87
100007.91
100007.95
100007.99
100008.02
100008.05
100008.08
100008.11
100008.14
100008.17
100008.21
100008.24
100008.28
100008.32
100008.36
100008.41
100008.46
100008.51
100008.57
100008.63
100005.15
100005.02
100004.91
100004.86
100004.84
100004.87
100004.92
100005
100005.11
100005.24
100005.38
100005.53
100005.69
100005.86
100006.02
100006.18
100006.34
100006.49
100006.64
100006.78
100006.91
100007.03
100007.14
100007.24
100007.34
100007.42
100007.5
100007.57
100007.64
100007.7
100007.75
100007.8
100007.84
100007.88
100007.92
100007.95
100007.98
100008.01
100008.04
100008.07
100008.1
100008.13
100008.16
100008.2
100008.23
100008.27
100008.32
100008.36
100008.42
100008.47
100008.53
100008.6
100004.94
100004.8
100004.69
100004.63
100004.62
100004.65
100004.72
100004.82
100004.94
100005.08
100005.24
100005.41
100005.59
100005.76
100005.94
100006.11
100006.28
100006.44
100006.59
100006.74
100006.87
100007
100007.11
100007.22
100007.31
100007.4
100007.48
100007.55
100007.62
100007.67
100007.72
100007.77
100007.81
100007.85
100007.89
100007.92
100007.95
100007.97
100008
100008.03
100008.06
100008.09
100008.12
100008.15
100008.19
100008.23
100008.27
100008.32
100008.38
100008.43
100008.5
100008.57
100004.71
100004.55
100004.44
100004.39
100004.38
100004.43
100004.51
100004.62
100004.76
100004.93
100005.1
100005.29
100005.48
100005.67
100005.86
100006.05
100006.22
100006.39
100006.55
100006.7
100006.84
100006.97
100007.09
100007.2
100007.3
100007.38
100007.46
100007.53
100007.6
100007.65
100007.71
100007.75
100007.79
100007.83
100007.86
100007.89
100007.92
100007.94
100007.97
100007.99
100008.02
100008.05
100008.08
100008.11
100008.15
100008.19
100008.24
100008.28
100008.34
100008.4
100008.46
100008.53
100004.45
100004.28
100004.16
100004.12
100004.13
100004.18
100004.28
100004.42
100004.58
100004.76
100004.96
100005.17
100005.38
100005.59
100005.79
100005.99
100006.18
100006.36
100006.52
100006.68
100006.83
100006.96
100007.08
100007.19
100007.29
100007.38
100007.46
100007.53
100007.59
100007.64
100007.69
100007.73
100007.77
100007.81
100007.84
100007.86
100007.89
100007.91
100007.94
100007.96
100007.99
100008.01
100008.04
100008.08
100008.11
100008.15
100008.2
100008.25
100008.3
100008.36
100008.43
100008.5
100004.16
100003.98
100003.86
100003.82
100003.84
100003.92
100004.04
100004.2
100004.39
100004.6
100004.82
100005.05
100005.28
100005.5
100005.72
100005.94
100006.14
100006.33
100006.5
100006.67
100006.82
100006.95
100007.08
100007.19
100007.29
100007.38
100007.45
100007.52
100007.58
100007.64
100007.68
100007.72
100007.76
100007.79
100007.82
100007.84
100007.87
100007.89
100007.91
100007.93
100007.96
100007.98
100008.01
100008.04
100008.08
100008.12
100008.16
100008.21
100008.27
100008.33
100008.39
100008.47
100003.85
100003.65
100003.53
100003.5
100003.54
100003.64
100003.78
100003.97
100004.19
100004.43
100004.67
100004.93
100005.18
100005.43
100005.67
100005.89
100006.11
100006.31
100006.49
100006.66
100006.82
100006.96
100007.08
100007.19
100007.29
100007.38
100007.46
100007.53
100007.59
100007.64
100007.68
100007.72
100007.75
100007.78
100007.81
100007.83
100007.85
100007.87
100007.89
100007.91
100007.93
100007.95
100007.98
100008.01
100008.04
100008.08
100008.13
100008.18
100008.23
100008.29
100008.36
100008.43
100003.49
100003.29
100003.16
100003.14
100003.2
100003.33
100003.51
100003.73
100003.98
100004.25
100004.53
100004.81
100005.09
100005.36
100005.62
100005.86
100006.09
100006.3
100006.49
100006.67
100006.83
100006.97
100007.1
100007.21
100007.31
100007.4
100007.48
100007.54
100007.6
100007.65
100007.69
100007.72
100007.75
100007.78
100007.8
100007.82
100007.84
100007.85
100007.87
100007.89
100007.91
100007.93
100007.95
100007.98
100008.01
100008.05
100008.09
100008.14
100008.2
100008.26
100008.33
100008.4
100003.1
100002.89
100002.76
100002.76
100002.84
100003
100003.22
100003.48
100003.77
100004.07
100004.39
100004.7
100005
100005.3
100005.58
100005.84
100006.08
100006.3
100006.5
100006.68
100006.85
100006.99
100007.12
100007.24
100007.34
100007.42
100007.5
100007.56
100007.61
100007.66
100007.7
100007.73
100007.76
100007.78
100007.8
100007.81
100007.83
100007.84
100007.86
100007.87
100007.89
100007.91
100007.93
100007.95
100007.99
100008.02
100008.06
100008.11
100008.16
100008.23
100008.29
100008.37
100002.67
100002.44
100002.32
100002.34
100002.45
100002.65
100002.91
100003.22
100003.55
100003.89
100004.25
100004.59
100004.93
100005.24
100005.54
100005.82
100006.08
100006.31
100006.52
100006.71
100006.88
100007.03
100007.16
100007.27
100007.37
100007.45
100007.53
100007.59
100007.64
100007.68
100007.72
100007.74
100007.77
100007.78
100007.8
100007.81
100007.82
100007.83
100007.84
100007.86
100007.87
100007.89
100007.91
100007.93
100007.96
100007.99
100008.03
100008.08
100008.13
100008.19
100008.26
100008.33
100002.19
100001.94
100001.83
100001.87
100002.03
100002.28
100002.59
100002.94
100003.32
100003.72
100004.11
100004.49
100004.86
100005.2
100005.52
100005.82
100006.09
100006.33
100006.55
100006.75
100006.92
100007.07
100007.2
100007.31
100007.41
100007.49
100007.56
100007.62
100007.67
100007.71
100007.74
100007.76
100007.78
100007.79
100007.81
100007.81
100007.82
100007.83
100007.84
100007.84
100007.86
100007.87
100007.89
100007.91
100007.93
100007.97
100008.01
100008.05
100008.1
100008.16
100008.23
100008.3
100001.66
100001.39
100001.29
100001.37
100001.58
100001.88
100002.25
100002.66
100003.1
100003.54
100003.98
100004.4
100004.8
100005.17
100005.52
100005.83
100006.12
100006.37
100006.6
100006.8
100006.97
100007.12
100007.25
100007.37
100007.46
100007.54
100007.61
100007.66
100007.7
100007.74
100007.76
100007.78
100007.8
100007.81
100007.82
100007.82
100007.82
100007.83
100007.83
100007.84
100007.84
100007.85
100007.87
100007.89
100007.91
100007.94
100007.98
100008.02
100008.07
100008.13
100008.2
100008.27
100001.06
100000.78
100000.7
100000.82
100001.08
100001.45
100001.89
100002.37
100002.87
100003.36
100003.85
100004.32
100004.75
100005.16
100005.52
100005.86
100006.16
100006.42
100006.65
100006.86
100007.03
100007.19
100007.32
100007.42
100007.52
100007.59
100007.65
100007.7
100007.74
100007.77
100007.79
100007.81
100007.82
100007.83
100007.83
100007.83
100007.83
100007.83
100007.83
100007.83
100007.83
100007.84
100007.85
100007.87
100007.89
100007.92
100007.95
100008
100008.05
100008.1
100008.17
100008.24
100000.4
100000.1
100000.05
100000.22
100000.56
100001
100001.52
100002.07
100002.64
100003.2
100003.74
100004.25
100004.72
100005.16
100005.55
100005.9
100006.21
100006.49
100006.73
100006.93
100007.11
100007.26
100007.39
100007.49
100007.58
100007.65
100007.71
100007.75
100007.79
100007.81
100007.83
100007.84
100007.84
100007.85
100007.84
100007.84
100007.84
100007.83
100007.83
100007.82
100007.83
100007.83
100007.84
100007.85
100007.87
100007.9
100007.93
100007.97
100008.02
100008.07
100008.14
100008.21
99999.658
99999.35
99999.331
99999.574
99999.991
100000.53
100001.13
100001.77
100002.42
100003.04
100003.64
100004.2
100004.71
100005.17
100005.59
100005.96
100006.28
100006.57
100006.81
100007.02
100007.19
100007.34
100007.46
100007.57
100007.65
100007.71
100007.77
100007.81
100007.83
100007.85
100007.87
100007.87
100007.87
100007.87
100007.86
100007.85
100007.85
100007.84
100007.83
100007.82
100007.82
100007.82
100007.82
100007.84
100007.85
100007.87
100007.91
100007.94
100007.99
100008.05
100008.11
100008.18
99998.831
99998.51
99998.541
99998.869
99999.388
100000.03
100000.74
100001.47
100002.2
100002.9
100003.56
100004.17
100004.72
100005.21
100005.65
100006.04
100006.37
100006.66
100006.91
100007.11
100007.29
100007.43
100007.55
100007.65
100007.72
100007.78
100007.83
100007.86
100007.88
100007.9
100007.91
100007.91
100007.9
100007.89
100007.88
100007.87
100007.86
100007.84
100007.83
100007.82
100007.82
100007.81
100007.81
100007.82
100007.83
100007.85
100007.88
100007.92
100007.96
99997.903
99997.573
99997.671
99998.104
99998.746
99999.514
100000.34
100001.18
100002
100002.78
100003.5
100004.16
100004.75
100005.28
100005.74
100006.14
100006.48
100006.77
100007.02
100007.22
100007.39
100007.53
100007.64
100007.73
100007.8
100007.86
100007.89
100007.92
100007.94
100007.95
100007.95
100007.94
100007.93
100007.92
100007.9
100007.89
100007.87
100007.85
100007.84
100007.82
100007.81
100007.81
100007.8
100007.81
100007.82
100007.84
100007.86
100007.89
100007.94
99996.861
99996.526
99996.714
99997.277
99998.067
99998.981
99999.945
100000.91
100001.83
100002.69
100003.48
100004.19
100004.82
100005.37
100005.85
100006.26
100006.61
100006.9
100007.14
100007.34
100007.5
100007.63
100007.74
100007.82
100007.89
100007.93
100007.96
100007.98
100007.99
100007.99
100007.99
100007.98
100007.96
100007.95
100007.93
100007.9
100007.88
100007.86
100007.84
100007.82
100007.81
100007.8
100007.79
100007.79
100007.8
100007.82
100007.84
100007.87
100007.91
99995.686
99995.353
99995.661
99996.386
99997.353
99998.438
99999.556
100000.65
100001.68
100002.63
100003.49
100004.25
100004.91
100005.49
100005.98
100006.4
100006.75
100007.04
100007.28
100007.47
100007.62
100007.75
100007.84
100007.92
100007.97
100008.01
100008.03
100008.05
100008.05
100008.04
100008.03
100008.02
100008
100007.97
100007.95
100007.92
100007.9
100007.87
100007.85
100007.83
100007.81
100007.79
100007.78
100007.78
100007.79
100007.8
100007.82
100007.85
100007.89
99994.359
99994.036
99994.505
99995.43
99996.609
99997.892
99999.185
100000.42
100001.57
100002.61
100003.54
100004.35
100005.05
100005.64
100006.15
100006.57
100006.91
100007.19
100007.42
100007.61
100007.75
100007.86
100007.95
100008.01
100008.06
100008.09
100008.11
100008.11
100008.11
100008.1
100008.08
100008.06
100008.03
100008
100007.97
100007.94
100007.91
100007.88
100007.85
100007.83
100007.81
100007.79
100007.78
100007.77
100007.77
100007.78
100007.8
100007.83
100007.86
99992.855
99992.554
99993.239
99994.408
99995.84
99997.354
99998.844
100000.24
100001.52
100002.65
100003.64
100004.5
100005.22
100005.83
100006.34
100006.75
100007.09
100007.37
100007.58
100007.75
100007.89
100007.99
100008.06
100008.12
100008.15
100008.17
100008.18
100008.18
100008.17
100008.15
100008.12
100008.1
100008.07
100008.03
100008
100007.96
100007.93
100007.89
100007.86
100007.83
100007.8
100007.78
100007.77
100007.76
100007.76
100007.77
100007.78
100007.81
100007.84
99991.148
99990.88
99991.853
99993.322
99995.057
99996.838
99998.55
100000.13
100001.53
100002.76
100003.81
100004.7
100005.44
100006.05
100006.56
100006.96
100007.29
100007.55
100007.75
100007.91
100008.03
100008.11
100008.17
100008.22
100008.24
100008.25
100008.25
100008.24
100008.22
100008.2
100008.17
100008.14
100008.1
100008.06
100008.02
100007.98
100007.94
100007.9
100007.87
100007.83
100007.8
100007.78
100007.76
100007.75
100007.75
100007.75
100007.76
100007.78
100007.82
99989.205
99988.986
99990.344
99992.178
99994.274
99996.361
99998.321
100000.08
100001.62
100002.94
100004.04
100004.96
100005.71
100006.31
100006.81
100007.2
100007.51
100007.75
100007.93
100008.06
100008.17
100008.24
100008.29
100008.32
100008.33
100008.33
100008.32
100008.31
100008.28
100008.25
100008.21
100008.17
100008.13
100008.09
100008.04
100008
100007.96
100007.91
100007.87
100007.84
100007.8
100007.78
100007.75
100007.74
100007.73
100007.73
100007.74
100007.76
100007.8
99986.993
99986.834
99988.708
99990.983
99993.509
99995.944
99998.174
100000.13
100001.81
100003.2
100004.35
100005.28
100006.02
100006.61
100007.08
100007.45
100007.74
100007.95
100008.11
100008.23
100008.32
100008.37
100008.4
100008.42
100008.42
100008.41
100008.39
100008.37
100008.34
100008.3
100008.26
100008.21
100008.17
100008.12
100008.07
100008.02
100007.97
100007.92
100007.88
100007.84
100007.8
100007.77
100007.75
100007.73
100007.72
100007.72
100007.73
100007.74
100007.77
99984.474
99984.382
99986.945
99989.752
99992.782
99995.608
99998.129
100000.29
100002.09
100003.55
100004.73
100005.66
100006.39
100006.95
100007.39
100007.72
100007.98
100008.17
100008.3
100008.39
100008.46
100008.5
100008.51
100008.52
100008.51
100008.49
100008.46
100008.43
100008.39
100008.35
100008.3
100008.25
100008.2
100008.14
100008.09
100008.04
100007.99
100007.94
100007.89
100007.84
100007.8
100007.77
100007.74
100007.72
100007.71
100007.7
100007.71
100007.73
100007.75
99981.61
99981.579
99985.064
99988.503
99992.121
99995.378
99998.205
100000.56
100002.47
100003.99
100005.19
100006.1
100006.8
100007.32
100007.71
100008.01
100008.23
100008.39
100008.49
100008.56
100008.6
100008.62
100008.62
100008.62
100008.6
100008.57
100008.53
100008.49
100008.44
100008.39
100008.34
100008.28
100008.23
100008.17
100008.11
100008.06
100008
100007.95
100007.89
100007.85
100007.8
100007.77
100007.74
100007.71
100007.7
100007.69
100007.69
100007.71
100007.73
99978.366
99978.365
99983.078
99987.26
99991.556
99995.283
99998.424
100000.97
100002.97
100004.53
100005.72
100006.6
100007.25
100007.71
100008.06
100008.31
100008.49
100008.61
100008.68
100008.72
100008.74
100008.75
100008.73
100008.71
100008.68
100008.64
100008.6
100008.55
100008.49
100008.44
100008.38
100008.32
100008.26
100008.19
100008.13
100008.07
100008.01
100007.95
100007.9
100007.85
100007.8
100007.76
100007.73
100007.7
100007.69
100007.68
100007.68
100007.69
100007.71
99974.71
99974.672
99981.011
99986.057
99991.125
99995.353
99998.808
100001.52
100003.59
100005.15
100006.31
100007.15
100007.73
100008.13
100008.42
100008.62
100008.75
100008.83
100008.87
100008.88
100008.88
100008.87
100008.84
100008.8
100008.76
100008.71
100008.66
100008.6
100008.54
100008.48
100008.42
100008.35
100008.28
100008.22
100008.15
100008.09
100008.02
100007.96
100007.91
100007.85
100007.8
100007.76
100007.72
100007.7
100007.67
100007.66
100007.66
100007.67
100007.69
99970.625
99970.416
99978.897
99984.936
99990.874
99995.624
99999.378
100002.23
100004.33
100005.87
100006.98
100007.75
100008.25
100008.57
100008.79
100008.93
100009.01
100009.04
100009.05
100009.04
100009.02
100008.99
100008.94
100008.89
100008.84
100008.78
100008.72
100008.65
100008.59
100008.52
100008.45
100008.38
100008.31
100008.24
100008.17
100008.1
100008.04
100007.97
100007.91
100007.86
100007.8
100007.76
100007.72
100007.69
99966.105
99965.502
99976.786
99983.959
99990.856
99996.132
100000.15
100003.09
100005.19
100006.66
100007.7
100008.38
100008.79
100009.02
100009.16
100009.24
100009.25
100009.25
100009.23
100009.2
100009.15
100009.1
100009.04
100008.98
100008.91
100008.84
100008.77
100008.7
100008.63
100008.56
100008.48
100008.41
100008.34
100008.26
100008.19
100008.12
100008.05
100007.98
100007.92
100007.86
100007.8
100007.75
100007.71
100007.68
99961.125
99959.812
99974.749
99983.205
99991.132
99996.91
100001.14
100004.12
100006.15
100007.52
100008.46
100009.05
100009.34
100009.47
100009.53
100009.54
100009.5
100009.46
100009.41
100009.34
100009.28
100009.2
100009.13
100009.06
100008.98
100008.9
100008.83
100008.75
100008.67
100008.59
100008.51
100008.44
100008.36
100008.28
100008.2
100008.13
100008.06
100007.99
100007.92
100007.86
100007.8
100007.75
100007.71
100007.67
99955.655
99953.244
99972.892
99982.779
99991.77
99997.992
100002.36
100005.3
100007.21
100008.44
100009.26
100009.73
100009.88
100009.92
100009.88
100009.82
100009.74
100009.66
100009.57
100009.48
100009.39
100009.3
100009.22
100009.13
100009.04
100008.96
100008.87
100008.79
100008.71
100008.63
100008.54
100008.46
100008.38
100008.3
100008.22
100008.14
100008.07
100007.99
100007.93
100007.86
100007.8
100007.75
100007.7
100007.66
99949.963
99945.817
99971.357
99982.811
99992.835
99999.397
100003.79
100006.61
100008.33
100009.38
100010.07
100010.42
100010.43
100010.35
100010.22
100010.09
100009.97
100009.85
100009.73
100009.61
100009.5
100009.4
100009.29
100009.2
100009.1
100009.01
100008.92
100008.83
100008.74
100008.65
100008.57
100008.48
100008.4
100008.32
100008.23
100008.15
100008.08
100008
100007.93
100007.86
100007.8
100007.75
100007.7
100007.66
99945.199
99937.684
99970.292
99983.442
99994.382
100001.13
100005.43
100008.03
100009.52
100010.33
100010.87
100011.1
100010.97
100010.75
100010.54
100010.36
100010.18
100010.02
100009.87
100009.73
100009.6
100009.48
100009.37
100009.26
100009.16
100009.06
100008.96
100008.87
100008.77
100008.68
100008.59
100008.5
100008.42
100008.33
100008.25
100008.16
100008.08
100008.01
100007.93
100007.86
100007.8
100007.74
100007.69
100007.65
99940.673
99928.488
99969.806
99984.83
99996.45
100003.18
100007.23
100009.54
100010.74
100011.25
100011.66
100011.79
100011.45
100011.11
100010.85
100010.61
100010.38
100010.18
100010
100009.84
100009.69
100009.56
100009.43
100009.31
100009.2
100009.1
100009
100008.9
100008.8
100008.71
100008.61
100008.52
100008.43
100008.34
100008.26
100008.17
100008.09
100008.01
100007.94
100007.87
100007.8
100007.74
100007.69
100007.65
99920.397
99916.513
99970.261
99987.225
99999.079
100005.5
100009.15
100011.09
100011.94
100012.12
100012.45
100012.46
100011.87
100011.46
100011.14
100010.84
100010.56
100010.33
100010.12
100009.94
100009.77
100009.63
100009.49
100009.36
100009.25
100009.13
100009.03
100008.93
100008.83
100008.73
100008.63
100008.54
100008.45
100008.36
100008.27
100008.18
100008.1
100008.02
100007.94
100007.87
100007.8
100007.74
100007.69
100007.64
99844.524
99903.201
99973.078
99990.99
100002.33
100008.05
100011.14
100012.63
100013.07
100012.96
100013.21
100013.07
100012.25
100011.79
100011.4
100011.04
100010.73
100010.46
100010.23
100010.03
100009.85
100009.69
100009.54
100009.41
100009.28
100009.17
100009.06
100008.95
100008.85
100008.75
100008.65
100008.55
100008.46