/*--------------------------------*- C++ -*----------------------------------*\
| =========                 |                                                 |
| \\      /  F ield         | OpenFOAM: The Open Source CFD Toolbox           |
|  \\    /   O peration     | Version:  2312                                  |
|   \\  /    A nd           | Website:  www.openfoam.com                      |
|    \\/     M anipulation  |                                                 |
\*---------------------------------------------------------------------------*/
FoamFile
{
    version     2.0;
    format      ascii;
    arch        "LSB;label=32;scalar=64";
    class       volScalarField;
    location    "0.06";
    object      Qdot;
}
// * * * * * * * * * * * * * * * * * * * * * * * * * * * * * * * * * * * * * //

dimensions      [1 -1 -3 0 0 0 0];

internalField   nonuniform List<scalar> 
3221
(
5.8531536e-06
1.9835523e-05
3.6910324e-05
5.736487e-05
8.1089257e-05
0.00010821816
0.00013847983
0.00017109791
0.00020588731
0.00024208138
0.00027876914
0.00031565875
0.00035106161
0.00038408785
0.00041514007
0.0004430302
0.00046685424
0.00048881196
0.00050562156
0.00051906769
0.00052836376
0.00053492927
0.00053944443
0.0005447821
0.00055229499
0.00056317297
0.00057998291
0.00060952352
0.00066157308
0.00074305508
0.00085183311
0.00098948844
0.0011575362
0.0013617111
0.0016061587
0.0018937377
0.0022327976
0.0026288109
0.0030910812
0.0036308106
0.0042606719
0.0049927885
0.0058435592
0.0068285064
0.0079661226
0.0092789732
0.010786436
0.012512643
0.014481349
0.016711882
0.019227486
0.022045826
6.5452757e-06
2.2448167e-05
4.2399791e-05
6.6857698e-05
9.661644e-05
0.0001315073
0.00017193613
0.00021864957
0.0002703641
0.00032811721
0.0003906139
0.00045789258
0.00052975484
0.00060504682
0.0006833281
0.00076517668
0.0008490636
0.00093668055
0.0010272691
0.0011200216
0.0012169358
0.0013178728
0.0014251953
0.001541814
0.0016717532
0.0018163915
0.0019821386
0.002178938
0.0024195526
0.0027200469
0.0030814563
0.0035119508
0.0040184645
0.0046139746
0.0053081805
0.0061131384
0.0070448733
0.0081215747
0.0093623
0.010791975
0.012437889
0.014326277
0.016490759
0.018968142
0.021793338
0.025011448
0.0286606
0.032787311
0.037433122
0.042639444
0.048441998
0.054874803
7.6516352e-06
2.6762147e-05
5.1679283e-05
8.3563042e-05
0.00012370977
0.00017370029
0.00023486522
0.00030876597
0.00039743782
0.00050249763
0.00062442407
0.00076668944
0.0009307478
0.0011182388
0.0013324422
0.0015743223
0.0018486332
0.0021597503
0.0025105979
0.0029063601
0.0033524154
0.0038558279
0.0044250924
0.0050724352
0.0058067003
0.0066438377
0.0075998437
0.0086955182
0.0099660706
0.011437131
0.013141203
0.015106722
0.017372873
0.019982738
0.022983824
0.026425814
0.030371499
0.034884932
0.040041418
0.045919916
0.052614064
0.060212039
0.068826075
0.078562976
0.089537271
0.10187364
0.11569162
0.13111692
0.14826219
0.16723585
0.18813075
0.21102555
8.9580303e-06
3.1991545e-05
6.3058092e-05
0.00010442704
0.00015936299
0.00023031188
0.00032188823
0.00043834302
0.00058503552
0.00076754278
0.00099443352
0.001273096
0.0016130782
0.0020271055
0.0025266235
0.0031264235
0.0038450146
0.0047018581
0.0057217278
0.0069329329
0.0083633928
0.010054282
0.012042722
0.014382057
0.017130245
0.020347043
0.024112083
0.028509372
0.033641853
0.039626088
0.046590264
0.05467622
0.06404973
0.074894729
0.087412127
0.10182553
0.11839094
0.13737433
0.15907946
0.18382524
0.21195826
0.24384542
0.27987141
0.32043603
0.36595247
0.41682895
0.47348296
0.53630686
0.60566484
0.68188757
0.76524797
0.85597416
1.0269878e-05
3.7528521e-05
7.5799948e-05
0.00012863633
0.00020109099
0.00029910706
0.0004302357
0.00060302248
0.00083152587
0.0011287239
0.0015124073
0.0020052731
0.0026355398
0.0034318479
0.0044367669
0.0056961016
0.0072646695
0.0092117334
0.011616844
0.014574542
0.018197588
0.022616761
0.027986048
0.034491382
0.04234
0.051779028
0.063097239
0.076619342
0.092731302
0.11186107
0.13451291
0.16124081
0.19268122
0.22954475
0.27262006
0.32278933
0.38100575
0.44832795
0.52588157
0.61488816
0.71663246
0.8324744
0.96381347
1.1120871
1.2787417
1.4652196
1.6729063
1.9031225
2.157068
2.4357894
2.7401558
3.0708222
1.1650578e-05
4.3413269e-05
8.9643909e-05
0.00015593137
0.00024950024
0.00038042568
0.00056133279
0.00080977021
0.001146319
0.0016021357
0.0022115598
0.0030214633
0.0040901325
0.0054915221
0.007317349
0.0096804659
0.012721496
0.016614968
0.021570113
0.027842056
0.035741472
0.045638153
0.057979784
0.07329865
0.092224316
0.11550152
0.14400426
0.1787554
0.2209452
0.27194392
0.33333721
0.40692579
0.49475044
0.59912551
0.72262198
0.86809902
1.0387087
1.23788
1.4693199
1.7370034
2.0451294
2.3980889
2.8004215
3.2567489
3.7716946
4.3498197
4.9955006
5.7128562
6.505608
7.3769809
8.3296326
9.365502
1.3090551e-05
4.9864666e-05
0.00010514994
0.00018713221
0.00030665862
0.00047852822
0.0007242338
0.0010709704
0.001556513
0.002231532
0.0031626721
0.0044376284
0.0061687046
0.0085056625
0.011637938
0.015805659
0.021317749
0.028557362
0.038011036
0.050273417
0.066087245
0.086357812
0.112187
0.14492052
0.18616642
0.2378476
0.30226386
0.38212044
0.48059639
0.60139285
0.7487952
0.92772844
1.1438029
1.4033687
1.7135469
2.0822564
2.51823
3.0309952
3.6308609
4.3288418
5.1365913
6.0662893
7.1304776
8.3419054
9.7133155
11.257203
12.98557
14.909612
17.039472
19.38391
21.950054
24.743111
1.4647921e-05
5.7009562e-05
0.00012291836
0.00022398739
0.00037551842
0.00060045467
0.00093068382
0.001410953
0.0021027818
0.0030907534
0.0044913581
0.0064600399
0.00920832
0.013011049
0.018240566
0.025374718
0.03503816
0.048028892
0.065376038
0.088367756
0.1186384
0.1582082
0.20958546
0.27585216
0.36074929
0.46881299
0.60547946
0.77721199
0.99164878
1.2577422
1.5858757
1.9880356
2.477894
3.0709467
3.7845702
4.6380896
5.6527664
6.8517929
8.2601596
9.9045311
11.813001
14.014827
16.54002
19.418954
22.68183
26.358118
30.475945
35.061427
40.137989
45.725701
51.840623
58.494173
1.6315752e-05
6.4871712e-05
0.00014360526
0.00026779629
0.00046009869
0.00075452721
0.0011986696
0.0018628749
0.002846229
0.0042903453
0.0063886381
0.0094170203
0.013749551
0.019896371
0.028548127
0.04062328
0.057346241
0.080311853
0.11160172
0.15388989
0.21059082
0.28600991
0.38554437
0.51588694
0.68525453
0.90366829
1.183209
1.5383198
1.9861187
2.5466959
3.2433996
4.1031366
5.1565951
6.4384375
7.987437
9.8465237
12.062727
14.687028
17.774065
21.381714
25.570532
30.403061
35.942958
42.254037
49.399136
57.43891
66.430539
76.426349
87.472443
99.607323
112.86059
127.25176
1.8125579e-05
7.3969113e-05
0.00016791615
0.00032099657
0.00056594333
0.00095170682
0.0015525667
0.0024744106
0.0038792902
0.0059944697
0.0091531949
0.013823924
0.020669026
0.030613318
0.044927859
0.065348087
0.094214753
0.13464934
0.19077542
0.26797901
0.37320615
0.51534947
0.70562837
0.95807712
1.2900594
1.7228108
2.2820497
2.9985717
3.908883
5.055774
6.4889123
8.2652834
10.449615
13.114599
16.34102
20.217633
24.840871
30.314275
36.747714
44.256318
52.95914
62.977588
74.433593
87.447574
102.1362
118.61004
136.97107
157.3102
179.70473
204.21597
230.88698
259.74062
2.0140657e-05
8.4501217e-05
0.00019657817
0.00038596569
0.00069911334
0.0012084236
0.0020241332
0.0033151757
0.0053324272
0.0084563445
0.013238876
0.020493413
0.031380837
0.047562158
0.071366751
0.10603321
0.15600638
0.22730956
0.32800235
0.46874499
0.66344194
0.93002659
1.2913265
1.7760314
2.4197715
3.2662404
4.3683721
5.7895056
7.6045365
9.9009394
12.779694
16.35595
20.759463
26.134724
32.640657
40.449989
49.748109
60.731517
73.605775
88.583019
105.87908
125.71015
148.28918
173.82202
202.50326
234.51211
270.00818
309.1273
351.97759
398.63578
449.14382
503.50632
2.2348586e-05
9.646783e-05
0.00023097569
0.00046629762
0.00086923764
0.0015449151
0.0026618362
0.0044812008
0.007407396
0.012059746
0.019373581
0.030739905
0.048210451
0.074760628
0.11464973
0.17390771
0.26092278
0.38723499
0.56846324
0.82547066
1.1857232
1.6848564
2.3684504
3.2939937
4.5329501
6.1729416
8.3198905
11.100099
14.662113
19.1783
24.846012
31.888164
40.553259
51.11464
63.869016
79.134154
97.245769
118.55361
143.41689
172.19892
205.26135
242.95784
285.62753
333.58825
387.12981
446.50734
511.93491
583.57953
661.55582
745.92109
836.67147
933.73928
2.4812619e-05
0.00011001457
0.00027164815
0.00056614567
0.0010875903
0.0019916258
0.0035338442
0.0061223584
0.010409077
0.017414386
0.028718072
0.046725277
0.075055971
0.11906074
0.18654667
0.28871446
0.44139226
0.66657951
0.99437945
1.4653145
2.1330577
3.0675399
4.3584329
6.1188461
8.4892536
11.641296
15.781469
21.154383
28.045405
36.782454
47.736727
61.322219
77.993932
98.244565
122.59989
151.61258
185.85493
225.91027
272.36357
325.79126
386.75069
455.76933
533.33401
619.88061
715.78406
821.34929
936.80292
1062.2861
1197.8485
1343.4437
1498.9258
1664.0489
2.7503679e-05
0.00012610062
0.00032109109
0.00069100586
0.0013706034
0.0025922952
0.0047426111
0.0084666923
0.014818891
0.025494827
0.04317883
0.072059211
0.11855757
0.19235306
0.30777952
0.485712
0.75599115
1.1605215
1.7570874
2.6239159
3.8649933
5.6160381
8.0510006
11.388804
15.900111
21.913636
29.821717
40.084607
53.233126
69.869328
90.664721
116.35609
147.73871
185.65703
230.99294
284.65222
347.54906
420.58964
504.65487
600.58303
709.15263
831.06609
966.93442
1117.2634
1282.4417
1462.7302
1658.2542
1868.997
2094.796
2335.3406
2590.1732
2858.6928
3.0561304e-05
0.00014477612
0.00038181726
0.00084985974
0.0017434213
0.0034071961
0.0064400671
0.011863541
0.021398446
0.037886827
0.065937738
0.11289863
0.19024853
0.31560441
0.51544363
0.82879653
1.3120379
2.0449609
3.1381863
4.7419662
7.0562324
10.341603
14.93095
21.240979
29.782981
41.172117
56.134263
75.509802
100.25354
131.43019
170.20536
217.8319
275.63202
344.97552
427.25499
523.85879
636.14285
765.40224
912.84344
1079.5582
1266.4994
1474.4606
1704.0576
1955.7142
2229.652
2525.8826
2844.2043
3184.2014
3545.2471
3926.5087
4326.9566
4745.3779
3.386989e-05
0.00016668025
0.00045574755
0.0010519164
0.0022382609
0.0045318977
0.0088606709
0.016866677
0.031384251
0.057230888
0.10239897
0.17990697
0.3104842
0.52643614
0.87699671
1.435503
2.3087751
3.6488065
5.6669745
8.6505142
12.980868
19.153126
27.795471
39.687334
55.774616
77.180561
105.21072
141.35093
187.25728
244.73763
315.72535
402.24599
506.37764
630.20719
775.78384
945.07225
1139.9068
1361.9488
1612.6482
1893.2108
2204.5707
2547.3711
2921.9493
3328.3305
3766.2252
4235.0342
4733.8563
5261.5013
5816.506
6397.1538
7001.4956
7627.3805
3.765238e-05
0.00019219261
0.00054738773
0.0013150377
0.0029057657
0.0061040317
0.012370649
0.024361157
0.046816522
0.087983669
0.16190941
0.29191598
0.51582891
0.89345024
1.5170095
2.5251154
4.1207937
6.5938519
10.347362
15.92766
24.056514
35.663515
51.91619
74.245022
104.36039
144.25881
196.21636
262.76809
346.67222
450.86091
578.37965
732.31724
915.73012
1131.5646
1382.5807
1671.281
1999.8471
2370.0862
2783.3892
3240.6997
3742.4968
4288.7877
4879.112
5512.5544
6187.7657
6902.9893
7656.0928
8444.6033
9265.7433
10116.471
10993.518
11893.44
4.1781594e-05
0.00022309622
0.00066176312
0.001658106
0.0038166677
0.0083388031
0.017542542
0.035794066
0.07110963
0.13783242
0.26094127
0.48277486
0.87312578
1.5438333
2.6690537
4.5122688
7.4606863
12.067078
19.098011
29.586421
44.884999
66.716001
97.212094
138.94291
194.9223
268.59269
363.78438
484.6496
635.57209
821.05951
1045.6223
1313.6458
1629.2628
1996.2335
2417.8376
2896.7846
3435.1439
4034.297
4694.9107
5416.9328
6199.6048
7041.4917
7940.525
8894.0551
9898.9109
10951.464
12047.693
13183.249
14353.516
15553.677
16778.772
18023.77
4.6504253e-05
0.00025978299
0.00080713339
0.0021132673
0.0050782793
0.011566095
0.025304033
0.053567744
0.11012261
0.22026324
0.42907182
0.81442831
1.5066866
2.7171296
4.7773184
8.1908728
13.698241
22.353199
35.60781
55.399918
84.235219
125.25427
182.27446
259.7979
362.97854
497.54561
669.68389
885.87338
1152.7005
1476.6528
1863.9065
2320.1228
2850.2625
3458.4294
4147.7491
4920.2869
5777.0045
6717.7549
7741.3114
8845.4246
10026.904
11281.712
12605.079
13991.61
15435.4
16930.153
18469.268
20045.959
21653.328
23284.45
24932.447
26590.573
5.1710674e-05
0.00030418648
0.00099221963
0.0027243974
0.0068559917
0.016306442
0.037171521
0.08175129
0.17406354
0.35942908
0.72043377
1.402334
2.6515867
4.8714327
8.6979148
15.098219
25.49026
41.878645
66.997329
104.44499
158.79578
235.66705
341.72762
484.63435
672.89242
915.64204
1222.3799
1602.633
2065.6148
2619.8794
3273.0009
4031.2951
4899.6013
5881.1307
6977.3853
8188.146
9511.5213
10944.049
12480.839
14115.745
15841.557
17650.196
19532.917
21480.492
23483.387
25531.921
27616.408
29727.268
31855.136
33990.916
36125.877
38251.764
5.7760151e-05
0.00035827777
0.0012313676
0.0035569181
0.0093974523
0.023401152
0.055678168
0.12738231
0.28111993
0.59942798
1.2359652
2.4654907
4.7596325
8.8953659
16.100969
28.240017
48.026688
79.257396
127.03459
197.95187
300.20674
443.61049
639.47299
900.3546
1239.6925
1671.3216
2208.9214
2865.4433
3652.5558
4580.1483
5655.9259
6885.1183
8270.3128
9811.4099
11505.693
13347.994
15330.933
17445.219
19679.972
22023.07
24461.479
26981.579
29569.458
32211.149
34892.897
37601.296
40323.486
43047.195
45760.855
48453.627
51115.441
53737.174
6.4533521e-05
0.00042423408
0.001543864
0.0047086481
0.013096174
0.034226092
0.085146202
0.20287431
0.46432782
1.0223962
2.1674981
4.4265865
8.7125874
16.535388
30.279193
53.539443
91.496664
151.28742
242.31773
376.45761
568.05947
833.75953
1192.0476
1662.6212
2265.5694
3020.4425
3945.3063
5055.8604
6364.6818
7880.6515
9608.5923
11549.129
13698.752
16050.073
18592.206
21311.273
24190.951
27213.057
30358.123
33605.931
36936.006
40328.027
43762.212
47219.591
50682.251
54133.451
57557.751
60941.044
64270.547
67534.759
70723.278
73827.228
7.2461297e-05
0.0005062165
0.0019572213
0.006324965
0.018578918
0.051079435
0.13309655
0.33059524
0.7849852
1.7843824
3.8863066
8.1149283
16.25585
31.263846
57.781072
102.73543
175.95549
290.70747
464.04272
716.8479
1073.5196
1561.2347
2208.8488
3045.5113
4099.112
5394.7267
6953.2215
8790.1175
10914.802
13330.128
16032.395
19011.672
22252.4
25734.195
29432.785
33320.985
37369.675
41548.712
45827.755
50176.984
54567.622
58972.508
63366.35
67726.002
72030.536
76261.331
80402.046
84438.56
88358.78
92152.547
95810.4
99324.743
8.1386478e-05
0.00060876469
0.0025111924
0.0086334907
0.026867024
0.077886303
0.21289654
0.55172368
1.3592104
3.1877345
7.1239011
15.182976
30.888759
60.052141
111.71551
199.16789
340.87225
561.10358
890.09437
1363.5331
2021.3555
2905.8858
4059.4974
5522.0231
7328.2066
9505.4958
12072.353
15037.212
18398.132
22143.092
26250.841
30692.161
35431.401
40428.131
45638.803
51018.316
56521.411
62103.867
67723.471
73340.744
78919.516
84427.293
89835.306
95118.595
100255.96
105229.74
110025.58
114632.36
119041.46
123248.03
127244.14
131019.69
9.1670865e-05
0.0007379073
0.0032654534
0.011989586
0.039653764
0.12149683
0.34887115
0.94377139
2.4116143
5.8295916
13.346077
28.970258
59.704577
117.00336
218.43065
389.26292
663.68064
1085.1645
1705.7871
2584.2623
3782.845
5363.3938
7383.0461
9890.0356
12920.19
16494.429
20617.46
25277.679
30448.168
36088.554
42147.462
48565.281
55277.004
62214.928
69311.085
76499.299
83716.822
90905.535
98012.928
104992.5
111804.13
118413.8
124793.58
130921.07
136779.43
142356.37
147643.39
152636.86
157333.88
161745.85
165866.26
169636.1
0.00010363548
0.00090305987
0.0043080165
0.016963713
0.059821627
0.19413449
0.5862649
1.6558906
4.3858085
10.911386
25.536568
56.310487
117.21011
230.79432
430.95103
765.1296
1295.3406
2097.2966
3257.3714
4867.4952
7018.5518
9793.1317
13258.628
17461.634
22424.246
28142.527
34587.089
41705.489
49425.955
57661.921
66316.856
75288.979
84475.531
93776.416
103097.11
112350.84
121459.8
130356.39
138983.29
147293.28
155248.89
162821.51
169991.02
176743.6
183074.04
188981.44
194466.34
199541.21
204199.04
208507.98
212329.51
215880.98
0.00011756124
0.0011160251
0.0057711063
0.024486402
0.092368032
0.31813401
1.0112689
2.9815688
8.1758256
20.89319
49.856164
111.33522
233.26676
459.87144
855.79241
1508.4457
2527.3201
4039.4618
6181.2163
9087.1996
12878.106
17649.2
23461.252
30335.012
38249.596
47144.566
56924.991
67468.545
78633.611
90267.51
102214.15
114320.58
126442.35
138447.33
150218.41
161654.64
172672.19
183203.88
193198.06
202617.41
211437.93
219646.01
227239.75
234218.77
240602.47
246409.75
251643.21
256366.92
260479.82
264234.69
267405.52
270230.86
0.00013394565
0.0013946302
0.0078651862
0.036113794
0.1461843
0.53531837
1.7920153
5.5112702
15.619246
40.895153
99.184705
223.507
469.57119
923.26326
1705.8262
2974.2392
4915.0158
7731.1723
11623.932
16772.127
23312.788
31326.209
40827.523
51765.34
64026.831
77447.746
91825.448
106933.11
122533.45
138390.93
154281.66
170000.79
185367.49
200227.69
214454.86
227949.85
240639.46
252473.23
263421.79
273472.68
282631.06
290907.9
298338.51
304924.95
310744.18
315854.03
320185.38
323903.38
326978.69
329570.65
331588.38
333147.69
0.00015341107
0.0017651774
0.010916185
0.054506931
0.2374838
0.92599274
3.2644741
10.459238
30.564174
81.731869
200.72627
454.58927
953.67566
1862.3772
3402.803
5847.4088
9499.2
14661.737
21604.244
30528.443
41543.37
54652.084
69751.152
86641.452
105047.16
124639.24
145059.84
165945.02
186943.82
207732.95
228026.72
247582.78
266204.15
283738.59
300076.65
315147.32
328913.07
341363.55
352514.27
362394.68
371064.39
378553.16
384995.52
390297.73
394706.92
398240.53
400957.23
402957.25
404271.64
404994.39
405155.15
404830.39
0.00017630203
0.0022629882
0.015457569
0.084325587
0.39660693
1.6483947
6.1164838
20.376178
61.210342
166.53887
412.38371
934.37715
1948.5598
3763.0555
6772.053
11427.526
18191.042
27474.727
39583.883
54673.404
72725.748
93552.115
116813.73
142056.92
168754.73
196348.67
224285.74
252048.08
279174.16
305271.64
330022.91
353184.25
374583.54
394111.79
411716.98
427392.28
441171.29
453109.63
463302.65
471820.63
478848.63
484326.37
488581.1
491572.1
493541.41
494527.68
494639.42
493977.12
492656.74
490710.74
488239.94
485326.41
0.00020402877
0.0029437374
0.022366773
0.13395688
0.68190682
3.0227209
11.790617
40.730894
125.30744
345.32804
857.99062
1935.3859
3992.9653
7591.8882
13402.806
22131.033
34417.405
50738.058
71326.956
96137.145
124844.4
156887.11
191529.83
227936.59
265241.82
302610.65
339284.38
374609.77
408056.71
439218.67
467808.93
493647.94
516651.21
536811.89
554189.22
568884.37
581050.02
590818.85
598441.68
603929.59
607699.28
609774.33
610433.6
609750.35
607979.94
605192.48
601568.19
597207.02
592224.57
586707.37
580752.89
574453.48
0.00023743352
0.003891688
0.033132643
0.21891244
1.2088249
5.7145246
23.385107
83.476081
261.80815
727.04297
1802.7756
4027.173
8179.2983
15242.483
26294.658
42344.822
64157.305
92110.802
126125.93
165670.67
209832.14
257430.41
307147
357645.05
407669.38
456113.47
502061.58
544804.74
583838.66
618846.21
649673.39
676300.85
698817.86
717387.84
732252.59
743654.06
751952.53
757270.69
760115.59
760657.37
759193.27
756058.77
751396.27
745428.88
738378.27
730416.21
721817.91
712576.17
702851.8
692760.12
682398.32
671827.53
0.00027810753
0.0052361852
0.050350823
0.36873206
2.2125942
11.145441
47.709582
175.20003
557.16442
1550.0803
3813.5847
8390.0309
16691.172
30353.152
50975.813
79816.128
117527.35
164016.37
218444.48
279352.01
344859.8
412893.89
481394.04
548471.47
612516.96
672254.48
726752.26
775404.88
817899.55
854161.27
884315.79
908620.96
927442.68
941176.4
950354.79
955308.34
956708.27
954849.9
950323.66
943364.85
934371.91
923757.07
911888.5
898799.91
884787.05
870039.07
855185.48
839765.15
824139.09
808416.29
792701.16
777105.65
0.00032877882
0.0071852981
0.078668746
0.64144623
4.1873269
22.436033
100.06562
375.97719
1204.863
3336.6319
8094.4896
17439.09
33813.523
59752.271
97356.224
147806.71
211074.48
285891.85
369960.19
460302.46
553661.9
646853.16
737031.04
821852.94
899548.21
968915.16
1029266.8
1080353.7
1122290.1
1155444.6
1180405.9
1197823.9
1208473.7
1212962.7
1212224.9
1206933
1197803.1
1185307.8
1170110.7
1152848.1
1133623.9
1113046.5
1091939.9
1069682.1
1046887.3
1023883
1000951.5
978012.39
955450.19
933003.79
910944.01
889389.18
0.00039150621
0.010074444
0.12667267
1.1548765
8.2040114
46.624095
215.55641
823.33568
2640.134
7227.1781
17176.749
36032.897
67765.853
115907.11
182650.1
268246.55
370878.91
486984.79
611873.63
740420.05
867683.56
989355.17
1102012.3
1203202.3
1291402.6
1365907.4
1426665.9
1474115.8
1509110.4
1532666.5
1546064.6
1550398.3
1546951.6
1536849.6
1521043.4
1500557.5
1476596.3
1449542.3
1419961.5
1389377.8
1356832.6
1324004.2
1290777.8
1257273.4
1223887.9
1190886.8
1158445.2
1126482.7
1096039.7
1065666.3
1036277.4
1007776.5
0.00047081264
0.01446789
0.21078005
2.1566413
16.659779
100.00845
476.24611
1835.3366
5843.2257
15694.656
36303.213
73737.815
133894.52
220872.97
335727.04
476047.98
636427.88
809505.24
987200.64
1161804.3
1326740.2
1476969.6
1609091.5
1721220.7
1812747.1
1884066.2
1936267.9
1970837.4
1989771.9
1994814.3
1988196.6
1971920.4
1947075.9
1915344.3
1878582.8
1837229.4
1793753.5
1747782.5
1700209.5
1651914.2
1602943.7
1555475.7
1507674.8
1460647.2
1414708.2
1369992.8
1326614
1284619.1
1244357
1205329.8
1167784.3
1131776.1
0.00057276675
0.021338505
0.36348628
4.1865342
35.098238
221.31367
1077.1808
4152.507
13015.399
34038.225
76122.909
148905.6
259967.8
412304.43
603159.91
824544.25
1064981.6
1311698.3
1552570
1777457.7
1978866.7
2152045.2
2294723.6
2406636.3
2488986
2544019.5
2574556.4
2583366.5
2574074.5
2549595.1
2512390.4
2465697.1
2411241.4
2349846.2
2285728
2217849.4
2148010.6
2078937.6
2009375.8
1939767.4
1871542.9
1805453
1740912
1678330.1
1617938.3
1559834.3
1504065.4
1450646
1399660.4
1350893.4
1304313.3
1259931.7
0.00070577387
0.032422082
0.6517084
8.4673106
76.769191
504.79641
2488.2957
9503.6682
29062.497
73425.259
157744.66
295677.68
494470.24
752000.84
1056961.9
1391639.7
1735787.4
2070163
2378933.2
2650792
2879041.4
3061008.2
3197211.1
3290391.2
3344594.7
3364710.2
3355770
3322769.6
3270063.5
3201437.2
3121555.4
3033759.7
2940647
2841413.8
2740236.7
2640784.8
2539626.7
2441150.8
2344779.2
2250771.9
2159928.4
2072694.5
1988876.8
1908588.7
1831904.4
1758817.9
1689276.7
1623203.9
1560534.1
0.00088258826
0.050925552
1.2191333
17.882441
174.40009
1185.0305
5853.3533
21917.653
64781.112
156882.18
321799.6
575362.74
918744
1337066.4
1803442.4
2285748.5
2753143.4
3180523.5
3550519.6
3853533.1
4086594.3
4251668.1
4354155.7
4401399.8
4401222.2
4362178.3
4291731.2
4195566.5
4082074.8
3952904.5
3818843.1
3675401.5
3532564.9
3387420.4
3242540.5
3102023.4
2964603.6
2832147.5
2704732.9
2582506.1
2465827.4
2354855.7
2249418.5
2149411.9
2054719.4
1965180.7
1880605.1
1800786.5
1725515.5
0.0011216416
0.083035932
2.3886343
39.522647
411.48804
2857.3485
13972.868
50719.529
143509.59
330616.85
643846.61
1093733.9
1663324.8
2312965
2991824.6
3649992
4246979.5
4755508.6
5161487.3
5461795.7
5661304.9
5769671.6
5799404.2
5764134.5
5676712.9
5547263.8
5388208.7
5204974.3
5012233.5
4805286.3
4599222.6
4390613.1
4184298.2
3982816.7
3787182.3
3599541.3
3419752.2
3248575.2
3086028.7
2932019.5
2786505.7
2649323.6
2520130.4
2398584.6
2284342.5
2177045.7
2076327.2
1981820.3
1893164
0.0014534392
0.1412139
4.9223373
91.598261
1007.8227
7057.4683
33712.305
117229.35
314521.54
684379.02
1258947.1
2025246.3
2927651.9
3886466.6
4820292.3
5662645.5
6369560
6919674.5
7310013.5
7550393.6
7658440.7
7654445.7
7560775.9
7397291.3
7179071.2
6924780.3
6648025.1
6353194.2
6055328.4
5756160.3
5458633.4
5169873
4891206
4624220.9
4369722
4128672
3900926
3686487.3
3484992.9
3295959.1
3118900.9
2953270.1
2798434.1
2653762.6
2518642.5
2392476.6
2274686
2164714.6
2062031.9
0.0019267634
0.25187985
10.717421
223.00915
2559.2439
17795.437
81831.91
269313.41
678824.24
1385955.5
2397899.2
3643546
5000295.9
6334904.7
7536332.4
8531697.9
9287209.2
9800473.4
10090029
10185806
10123464
9937091.8
9654391.4
9307390.2
8911456.1
8499689.6
8064463.5
7635055.7
7206591.3
6790718.8
6390224.9
6008538.8
5646719.5
5305365.8
4984517.6
4684064.3
4403300.9
4141463.4
3897600.4
3670693.7
3459739.4
3263731.8
3081658.5
2912543
2755458.9
2609530.7
2473935.1
2347899.7
2230704.7
0.0026232405
0.47430373
24.77553
571.14599
6724.8423
45618
198831.79
611839.99
1436243.8
2735485.9
4435590
6354431.1
8274147.1
10006717
11427989
12481877
13166713
13516087
13581367
13420237
13089024
12628520
12083334
11495010
10874158
10254055
9635928.2
9032028.6
8453357.4
7903704.7
7384793.3
6897907.1
6442881.8
6018981.6
5625061.7
5259803.5
4921590.1
4608759.9
4319604.1
4052436.4
3805645.9
3577694.6
3367115.6
3172531
2992657.8
2826306.4
2672378.7
2529862.9
2397830.4
0.0036856991
0.95021148
61.122266
1539.8927
18231.882
118301.72
480950.39
1367548.2
2965869.5
5243495.7
7947071.6
10722715
13248292
15307671
16803405
17733718
18157183
18161249
17843372
17284640
16556937
15728773
14851098
13943773
13051332
12174965
11332566
10533841
9783340.5
9082588.7
8431165.9
7827895.8
7270691.6
6757052.6
6284271.8
5849601.1
5450240.3
5083468.1
4746666.6
4437360.6
4153243.9
3892175.4
3652170
3431398.6
3228182.5
3040985.1
2868407.8
2709178.7
2562144.2
0.0053823395
2.043766
161.77349
4370.2466
50795.825
308609.28
1151307.1
2991129.7
5951044.3
9727862
13757159
17478599
20506848
22668293
23958050
24476111
24369477
23799968
22899664
21768322
20517028
19235978
17914981
16643851
15405592
14236816
13141342
12122452
11180370
10313000
9516753.4
8787444.3
8120463.5
7511108.2
6954760.8
6447000.6
5983616
5560664.8
5174485.2
4821705.7
4499245
4204295
3934299.2
3686935.3
3460095
3251866.1
3060527.9
2884532.5
2722487.9
0.0082345657
4.7704752
461.73485
13038.684
144684.32
804388.09
2709090.8
6364313.4
11548148
17406989
22956430
27483977
30665967
32491401
33132165
32835896
31868588
30434726
28724221
26843975
24954000
23083565
21266659
19531790
17913013
16415818
15038392
13777124
12626423
11579320
10628098
9764944.3
8982188.5
8272517.6
7629088.8
7045577.8
6516167.7
6035550.1
5598903.9
5201870.6
4840525.5
4511340.1
4211144.1
3937088.8
3686609.8
3457393.5
3247381.2
3054737.8
2877823.5
0.013350979
12.237849
1427.9035
40779.879
418384.69
2077530
6217724.6
13089667
21568643
29941834
36847107
41640947
44285576
45084291
44464542
42870322
40621510
38003898
35268475
32481627
29795704
27232273
24811811
22579837
20538056
18680777
16997256
15475394
14102398
12865303
11751404
10748663
9845876.5
9032765.3
8299989.9
7639121.6
7042578.7
6503565.8
6016008.7
5574490.3
5174188.2
4810812.9
4480548.4
4179996.8
3906119.1
3656176.2
3427761.6
3218748.2
3027241.9
0.023283053
35.016155
4801.9944
132993.91
1216564
5263961.5
13800230
25851331
38588806
49353515
56783716
60737963
61754490
60585790
57985494
54481340
50517586
46460919
42427798
38573994
34948193
31584689
28516538
25740254
23240882
20998326
18990130
17194068
15588896
14154690
12873026
11727127
10701863
9783693.4
8960565.7
8221786.8
7557886.6
6960491.1
6422203.6
5936496.1
5497610.5
5100467.9
4740587.1
4414008.1
4117209.8
3846999.1
3600623
3375663.1
3169967.5
0.044605557
113.65376
17587.404
448198.33
3513304.9
12934590
29349248
48697776
65837204
77739618
83895924
85250408
83171382
78961348
73478367
67469424
61461722
55591323
50094508
44974739
40295404
36085863
32318752
28962276
25980000
23334414
20989063
18910143
17066923
15431747
13979902
12689460
11541066
10517703
9604443.3
8788216.1
8057578.5
7402516.7
6814267.2
6285159.2
5808476.8
5378337.3
4989584.5
4637694.9
4318673.8
4028828.6
3765081.3
3524728.3
3305357.4
0.096638673
426.32637
69966.149
1539563.9
9923946.3
30430428
59244206
86935685
1.0668386e+08
1.1675765e+08
1.1872893e+08
1.1513996e+08
1.0834697e+08
99785195
90587661
81661060
73115260
65252366
58045361
51537244
45760640
40655004
36154386
32194623
28714179
25655710
22967028
20601624
18518505
16681732
15059898
13625645
12355194
11227909
10225893
9333629.5
8537658.2
7826295
7189389.9
6618117.9
6104799.1
5642744.3
5226123.3
4849855.3
4509512.4
4200808
3920411.2
3665332.5
3432899.9
0.24673099
1882.7818
299511.52
5288277.2
26930983
67616583
1.1245041e+08
1.4620965e+08
1.6364348e+08
1.6695098e+08
1.6089642e+08
1.4987368e+08
1.3646603e+08
1.2243751e+08
1.0900554e+08
96530241
85277894
75127027
66082824
58158676
51240926
45211823
39960678
35387803
31404125
27930820
24898820
22248186
19927179
17891252
16102081
14526727
13136889
11908250
10819908
9853883
8994688.4
8228969.6
7545194.4
6933390.9
6384924.1
5892307.6
5449045.1
5049506.3
0.78652864
9937.8718
1354186.6
17719358
68817414
1.3994129e+08
1.9894379e+08
2.3049754e+08
2.3705711e+08
2.2713039e+08
2.0914896e+08
1.8791241e+08
1.664165e+08
1.4642248e+08
1.2789765e+08
1.1179415e+08
97513936
84937998
74076107
64709048
56637444
49680418
43678941
38496031
34013837
30131234
26761739
23831664
21278345
19048523
17096904
15384945
13879822
12553553
11382252
10345499
9425809.3
8608185.8
7879740.1
7229377.7
6647531.2
6125937.2
5657447.4
5235865.2
3.391078
63056.494
6271640.1
56193134
1.6207865e+08
2.6616872e+08
3.2558975e+08
3.3936708e+08
3.2395833e+08
2.9457343e+08
2.6065268e+08
2.2722815e+08
1.9735507e+08
1.7053375e+08
1.4679811e+08
1.2688138e+08
1.09412e+08
94531905
81863184
71068548
61860222
53992370
47256688
41478668
36511591
32232013
28536065
25336386
22559495
20143523
18036308
16193800
14578741
13159564
11909470
10805669
9828737.6
8962085.5
8191514.7
7504848.2
6891621.4
6342823.4
5850678.2
5408453
21.991468
474731.84
28455702
1.6292775e+08
3.4432908e+08
4.5974227e+08
4.9018334e+08
4.657423e+08
4.1864246e+08
3.6417426e+08
3.1168802e+08
2.6642318e+08
2.2744997e+08
1.9366943e+08
1.6534626e+08
1.4116596e+08
1.2081852e+08
1.0371246e+08
89302103
77132949
66831528
58088908
50649050
44301149
38870549
34212179
30205312
26749343
23760320
21168057
18913761
16948073
15229469
13722933
12398879
11232243
10201749
9289288.2
8479415.7
7758924.9
7116499.4
6542419.7
6028315.6
5566953.7
244.18889
4052537.1
1.1925825e+08
4.161287e+08
6.4680858e+08
7.1464838e+08
6.770254e+08
5.9731395e+08
5.1210628e+08
4.2910545e+08
3.6014672e+08
3.027723e+08
2.5505188e+08
2.1579354e+08
1.8233451e+08
1.5453705e+08
1.3150348e+08
1.1231812e+08
96276546
82816971
71487838
61922095
53819507
46935430
41069031
36054878
31756319
28060221
24872717