/*--------------------------------*- C++ -*----------------------------------*\
| =========                 |                                                 |
| \\      /  F ield         | OpenFOAM: The Open Source CFD Toolbox           |
|  \\    /   O peration     | Version:  2312                                  |
|   \\  /    A nd           | Website:  www.openfoam.com                      |
|    \\/     M anipulation  |                                                 |
\*---------------------------------------------------------------------------*/
FoamFile
{
    version     2.0;
    format      ascii;
    arch        "LSB;label=32;scalar=64";
    class       volVectorField;
    location    "0.06";
    object      U;
}
// * * * * * * * * * * * * * * * * * * * * * * * * * * * * * * * * * * * * * //

dimensions      [0 1 -1 0 0 0 0];

internalField   nonuniform List<vector> 
3221
(
(1.0902617 -0.11230228 0)
(1.0483365 -0.24785899 0)
(0.99467701 -0.32251474 0)
(0.93483875 -0.35863406 0)
(0.87319095 -0.37192711 0)
(0.81188522 -0.37275728 0)
(0.7521084 -0.36753325 0)
(0.69460104 -0.35990617 0)
(0.63981998 -0.35175819 0)
(0.5880167 -0.34394903 0)
(0.53930144 -0.33681308 0)
(0.49369078 -0.33045561 0)
(0.45116009 -0.32492795 0)
(0.41168482 -0.32030968 0)
(0.37524624 -0.31671435 0)
(0.34177063 -0.31422371 0)
(0.3110668 -0.31284706 0)
(0.28282144 -0.3125417 0)
(0.25670026 -0.31331276 0)
(0.2324973 -0.31528928 0)
(0.21029507 -0.31872168 0)
(0.19046274 -0.32390698 0)
(0.17335833 -0.33089874 0)
(0.15869514 -0.33929319 0)
(0.14610474 -0.34861951 0)
(0.13571957 -0.3590191 0)
(0.12996786 -0.3707684 0)
(0.13050264 -0.38343814 0)
(0.13595317 -0.39562812 0)
(0.14121297 -0.4065637 0)
(0.14407256 -0.41712753 0)
(0.14546215 -0.42822291 0)
(0.14710159 -0.43999388 0)
(0.14901986 -0.45249386 0)
(0.1511572 -0.46603667 0)
(0.15387396 -0.4805006 0)
(0.15740468 -0.49563332 0)
(0.16166627 -0.51130265 0)
(0.16650791 -0.52743014 0)
(0.17181595 -0.54392147 0)
(0.17748059 -0.56069453 0)
(0.18337892 -0.57769689 0)
(0.18943275 -0.59487727 0)
(0.19558622 -0.61218931 0)
(0.20177623 -0.62959861 0)
(0.20795061 -0.64707762 0)
(0.2140636 -0.66459924 0)
(0.22006022 -0.68214403 0)
(0.22588793 -0.69969938 0)
(0.23150282 -0.71726007 0)
(0.2368702 -0.73483079 0)
(0.24197745 -0.75242927 0)
(1.0995251 -0.050057994 0)
(1.0722211 -0.12533978 0)
(1.0309331 -0.17090169 0)
(0.98068976 -0.19250108 0)
(0.92721283 -0.19855733 0)
(0.87347983 -0.19587001 0)
(0.82097364 -0.18883536 0)
(0.77050604 -0.17987458 0)
(0.72253033 -0.17010742 0)
(0.67728081 -0.15992723 0)
(0.63486005 -0.14938969 0)
(0.59529621 -0.1384397 0)
(0.55858184 -0.12702566 0)
(0.52470325 -0.1151603 0)
(0.49364735 -0.1029166 0)
(0.46537254 -0.090383821 0)
(0.43977116 -0.07759979 0)
(0.41665746 -0.064530168 0)
(0.39576652 -0.051128244 0)
(0.3768301 -0.037525215 0)
(0.35955305 -0.023894528 0)
(0.34369002 -0.010470825 0)
(0.32928375 0.0024481142 0)
(0.3161165 0.014468487 0)
(0.30353443 0.025380032 0)
(0.29118434 0.03475058 0)
(0.27944547 0.0417448 0)
(0.26911873 0.045018744 0)
(0.26029458 0.043581399 0)
(0.25235286 0.037737591 0)
(0.24538232 0.028541412 0)
(0.24002935 0.017084047 0)
(0.23640426 0.0039298024 0)
(0.23404228 -0.010432514 0)
(0.23302024 -0.025610589 0)
(0.23352428 -0.041550488 0)
(0.23515735 -0.058124287 0)
(0.23761447 -0.075237977 0)
(0.24071154 -0.092813365 0)
(0.24434089 -0.11076317 0)
(0.2483925 -0.12903909 0)
(0.25277523 -0.1475956 0)
(0.25742703 -0.16638386 0)
(0.26228421 -0.18536458 0)
(0.26728532 -0.20450265 0)
(0.27237895 -0.22376016 0)
(0.27751304 -0.24310268 0)
(0.2826333 -0.26249767 0)
(0.28768626 -0.28191366 0)
(0.29261817 -0.30132243 0)
(0.29737634 -0.32069926 0)
(0.30193028 -0.34001958 0)
(1.1001447 -0.029629341 0)
(1.0862407 -0.075015436 0)
(1.0602813 -0.10225705 0)
(1.0259094 -0.11401437 0)
(0.98724823 -0.11564995 0)
(0.94682828 -0.11181684 0)
(0.90612104 -0.10551378 0)
(0.86602668 -0.098303149 0)
(0.82710481 -0.090815987 0)
(0.78969923 -0.083198321 0)
(0.75402085 -0.07540952 0)
(0.72020228 -0.067388477 0)
(0.6883234 -0.059129122 0)
(0.65842863 -0.050702178 0)
(0.63053925 -0.042245286 0)
(0.60465198 -0.033932063 0)
(0.58076176 -0.025934037 0)
(0.55883119 -0.018428075 0)
(0.53858732 -0.011594318 0)
(0.51987895 -0.0054903504 0)
(0.50288334 -0.00025383022 0)
(0.48764034 0.0040208636 0)
(0.4737142 0.0072806226 0)
(0.46060261 0.0094229938 0)
(0.44813185 0.010548207 0)
(0.43626629 0.010835848 0)
(0.42515685 0.01040524 0)
(0.41504706 0.0091491702 0)
(0.40599126 0.0069919061 0)
(0.39788643 0.0040843371 0)
(0.39100125 0.00060980796 0)
(0.38556387 -0.0035410731 0)
(0.38167948 -0.0085179602 0)
(0.37921795 -0.014389294 0)
(0.37739475 -0.020951815 0)
(0.37595251 -0.028343208 0)
(0.37524963 -0.036607285 0)
(0.37530575 -0.045742739 0)
(0.37604388 -0.055700884 0)
(0.37737566 -0.066425697 0)
(0.37919883 -0.077864935 0)
(0.38142727 -0.089959943 0)
(0.38398992 -0.10265516 0)
(0.38682397 -0.11589969 0)
(0.38987258 -0.12964177 0)
(0.39308651 -0.14382996 0)
(0.39641942 -0.15841454 0)
(0.39982472 -0.17334593 0)
(0.40325498 -0.18857455 0)
(0.40666054 -0.20405033 0)
(0.4099901 -0.21972002 0)
(0.41320723 -0.23552435 0)
(1.1013614 -0.018436511 0)
(1.0957287 -0.045224788 0)
(1.0816218 -0.058731065 0)
(1.0608554 -0.061497264 0)
(1.0358023 -0.057908522 0)
(1.0081204 -0.051555995 0)
(0.97893554 -0.044586273 0)
(0.94905068 -0.037960168 0)
(0.91904987 -0.031912036 0)
(0.88936403 -0.026337104 0)
(0.86031582 -0.021039023 0)
(0.83214915 -0.015859529 0)
(0.80505536 -0.010725417 0)
(0.77918865 -0.0056482355 0)
(0.75465886 -0.00070271671 0)
(0.73151762 0.0040019306 0)
(0.70972614 0.0083504908 0)
(0.68919991 0.012217785 0)
(0.67008402 0.015489356 0)
(0.65245299 0.018181657 0)
(0.63617414 0.020216759 0)
(0.6211793 0.021427805 0)
(0.60730984 0.021664329 0)
(0.59437419 0.021006646 0)
(0.58226714 0.019596001 0)
(0.57095266 0.017566221 0)
(0.56038691 0.015010153 0)
(0.55071454 0.012004293 0)
(0.54202903 0.0084673792 0)
(0.53417621 0.0044523527 0)
(0.5271094 -6.5992803e-06 0)
(0.52103087 -0.0050349889 0)
(0.51611419 -0.010735104 0)
(0.51248686 -0.017274311 0)
(0.51005949 -0.024674891 0)
(0.50853961 -0.032637868 0)
(0.50780823 -0.041082539 0)
(0.50777015 -0.050001402 0)
(0.50834815 -0.059388217 0)
(0.50945861 -0.069238442 0)
(0.51101367 -0.079539877 0)
(0.51293059 -0.090272101 0)
(0.51513774 -0.10141056 0)
(0.517572 -0.11292872 0)
(0.52017784 -0.12479793 0)
(0.52290757 -0.13698753 0)
(0.52571774 -0.1494671 0)
(0.52856738 -0.16220494 0)
(0.53141657 -0.17516795 0)
(0.53422582 -0.18832023 0)
(0.5369557 -0.20162039 0)
(0.53957491 -0.2150193 0)
(1.1021378 -0.012266869 0)
(1.1013317 -0.027881692 0)
(1.0947547 -0.03212238 0)
(1.083182 -0.027900309 0)
(1.0678447 -0.019430955 0)
(1.0496861 -0.0099568375 0)
(1.0294408 -0.0012845635 0)
(1.0077189 0.0058999734 0)
(0.98503473 0.011570999 0)
(0.96182339 0.015990539 0)
(0.93845233 0.019473262 0)
(0.9152302 0.022271157 0)
(0.89241612 0.0245373 0)
(0.87022566 0.026328749 0)
(0.84882761 0.027630053 0)
(0.82834022 0.028388034 0)
(0.80883715 0.028547083 0)
(0.79036944 0.028092233 0)
(0.77301276 0.027040414 0)
(0.75680653 0.025297277 0)
(0.74172997 0.022829302 0)
(0.72774478 0.019610214 0)
(0.71477824 0.015628815 0)
(0.7027438 0.010938854 0)
(0.69156964 0.0056288634 0)
(0.68124321 -0.00020716274 0)
(0.67186836 -0.0064848507 0)
(0.66338633 -0.013091213 0)
(0.65572514 -0.020041026 0)
(0.64898169 -0.027279686 0)
(0.64319448 -0.034713423 0)
(0.63842423 -0.04225734 0)
(0.63471452 -0.049946228 0)
(0.63206502 -0.057810289 0)
(0.63041349 -0.06598542 0)
(0.62963054 -0.07448096 0)
(0.6295965 -0.08329667 0)
(0.63020583 -0.092424494 0)
(0.63136621 -0.10186045 0)
(0.63299138 -0.11160005 0)
(0.63499657 -0.12163599 0)
(0.6373047 -0.13195445 0)
(0.63984678 -0.1425376 0)
(0.64256135 -0.15336495 0)
(0.6453942 -0.16441367 0)
(0.64829797 -0.17565966 0)
(0.65122995 -0.18707846 0)
(0.65415133 -0.19864492 0)
(0.65702528 -0.21033296 0)
(0.65981801 -0.22211455 0)
(0.66249868 -0.2339582 0)
(0.66503995 -0.24582755 0)
(1.1026472 -0.0085284023 0)
(1.1044963 -0.016913779 0)
(1.1022434 -0.014651705 0)
(1.0962319 -0.0049377571 0)
(1.087104 0.007974301 0)
(1.0753604 0.020889724 0)
(1.0614383 0.032067881 0)
(1.0457602 0.040891805 0)
(1.0287339 0.047407661 0)
(1.0107453 0.051952799 0)
(0.99215028 0.054919705 0)
(0.97327019 0.05663817 0)
(0.95438862 0.057337057 0)
(0.93575029 0.057148577 0)
(0.91755904 0.056132431 0)
(0.89997779 0.054306853 0)
(0.88313289 0.051676912 0)
(0.86712431 0.04825221 0)
(0.85203107 0.04404819 0)
(0.83790448 0.039063593 0)
(0.82476674 0.033314696 0)
(0.81261225 0.026826872 0)
(0.80141333 0.01964279 0)
(0.79113308 0.011828442 0)
(0.78174371 0.0034706857 0)
(0.77323479 -0.0053320436 0)
(0.76562194 -0.014497842 0)
(0.75889862 -0.024005188 0)
(0.75306042 -0.033740948 0)
(0.7481373 -0.043641372 0)
(0.74414994 -0.053660637 0)
(0.74111332 -0.063766717 0)
(0.73902584 -0.073965683 0)
(0.73785579 -0.084273949 0)
(0.73753927 -0.094728525 0)
(0.73798763 -0.10534751 0)
(0.73910271 -0.11613498 0)
(0.74078762 -0.12708723 0)
(0.7429508 -0.13819638 0)
(0.74550649 -0.14945351 0)
(0.74837395 -0.16084644 0)
(0.75147937 -0.17235968 0)
(0.75475584 -0.18397548 0)
(0.75814358 -0.19567459 0)
(0.76158924 -0.20743658 0)
(0.76504585 -0.2192408 0)
(0.76847113 -0.23106667 0)
(0.77182686 -0.24289374 0)
(0.77507811 -0.25470153 0)
(0.77819403 -0.26646887 0)
(0.78114779 -0.27817354 0)
(0.78391535 -0.2897914 0)
(1.1030484 -0.0057526611 0)
(1.1064474 -0.0088135041 0)
(1.106702 -0.0016367351 0)
(1.1040343 0.012508096 0)
(1.0988374 0.029347366 0)
(1.0913804 0.045655891 0)
(1.0819126 0.05965295 0)
(1.0707136 0.070691368 0)
(1.0580895 0.078808364 0)
(1.0443586 0.084355794 0)
(1.0298365 0.087760455 0)
(1.0148247 0.089399994 0)
(0.99960082 0.08955847 0)
(0.9844131 0.088427391 0)
(0.96947663 0.086126805 0)
(0.95497198 0.082731751 0)
(0.94104684 0.078295195 0)
(0.9278193 0.072863178 0)
(0.91538102 0.066480176 0)
(0.90379639 0.059192292 0)
(0.89310366 0.051051238 0)
(0.88331739 0.0421164 0)
(0.8744343 0.032458034 0)
(0.86644095 0.022158044 0)
(0.85932378 0.011307296 0)
(0.85307458 -2.2445137e-06 0)
(0.84769081 -0.011683356 0)
(0.84317051 -0.023665681 0)
(0.83951352 -0.035868637 0)
(0.83672269 -0.048230877 0)
(0.83479782 -0.060706297 0)
(0.83372977 -0.073264942 0)
(0.83349516 -0.085893896 0)
(0.8340516 -0.098592367 0)
(0.83533724 -0.11136458 0)
(0.83727463 -0.12421281 0)
(0.839778 -0.13713382 0)
(0.8427595 -0.15011965 0)
(0.84613342 -0.16315848 0)
(0.8498185 -0.17623633 0)
(0.85373834 -0.1893367 0)
(0.85782271 -0.20244138 0)
(0.86200748 -0.21553066 0)
(0.86623505 -0.22858425 0)
(0.87045364 -0.24158148 0)
(0.87461716 -0.25450207 0)
(0.87868411 -0.26732633 0)
(0.88261733 -0.28003537 0)
(0.88638292 -0.2926109 0)
(0.88995144 -0.30503511 0)
(0.8932984 -0.31729074 0)
(0.89640096 -0.32936086 0)
(1.1034182 -0.0033547308 0)
(1.1079119 -0.0020295376 0)
(1.1098076 0.0091239423 0)
(1.1093338 0.02693201 0)
(1.1068033 0.047173316 0)
(1.1023806 0.06660123 0)
(1.0962098 0.083373195 0)
(1.0884751 0.096777211 0)
(1.0794019 0.10680401 0)
(1.069245 0.11378417 0)
(1.0582723 0.118147 0)
(1.0467521 0.1202913 0)
(1.0349407 0.12053485 0)
(1.0230746 0.1191106 0)
(1.0113641 0.11618328 0)
(0.99999082 0.11187228 0)
(0.98910688 0.10627139 0)
(0.97883578 0.099462697 0)
(0.96927393 0.091524455 0)
(0.96049131 0.082535439 0)
(0.95253384 0.072577795 0)
(0.94542585 0.061738468 0)
(0.93917516 0.050110187 0)
(0.93377814 0.037790815 0)
(0.92922614 0.024881188 0)
(0.92550912 0.011480707 0)
(0.92261745 -0.0023166736 0)
(0.9205421 -0.016425318 0)
(0.91927328 -0.030767795 0)
(0.91879848 -0.045278681 0)
(0.91910104 -0.05990607 0)
(0.92015586 -0.074611656 0)
(0.92192665 -0.08936952 0)
(0.92436409 -0.1041632 0)
(0.92740637 -0.11898145 0)
(0.93098154 -0.13381436 0)
(0.93501132 -0.14865051 0)
(0.93941531 -0.16347651 0)
(0.94411408 -0.17827647 0)
(0.94903158 -0.19303305 0)
(0.95409606 -0.20772729 0)
(0.95924125 -0.22233933 0)
(0.96440636 -0.23684857 0)
(0.96953647 -0.25123438 0)
(0.97458193 -0.26547631 0)
(0.97949837 -0.27955467 0)
(0.98424578 -0.29345063 0)
(0.98878812 -0.3071465 0)
(0.99309317 -0.32062561 0)
(0.99713277 -0.33387228 0)
(1.0008832 -0.34687217 0)
(1.004323 -0.35961246 0)
(1.103788 -0.0011581667 0)
(1.1092201 0.0040118611 0)
(1.1123788 0.018536192 0)
(1.1135392 0.039431318 0)
(1.1130058 0.062588666 0)
(1.1109056 0.08477065 0)
(1.1073311 0.10408266 0)
(1.1024089 0.1197443 0)
(1.0963083 0.13168782 0)
(1.0892329 0.14020577 0)
(1.0814081 0.14571134 0)
(1.0730678 0.14860624 0)
(1.0644424 0.14922567 0)
(1.0557496 0.14782981 0)
(1.047187 0.14461637 0)
(1.0389282 0.13974002 0)
(1.0311207 0.13332942 0)
(1.0238851 0.12549984 0)
(1.0173161 0.11636101 0)
(1.0114836 0.10602158 0)
(1.0064343 0.094591252 0)
(1.002195 0.08218165 0)
(0.99877601 0.068906347 0)
(0.99617529 0.054879854 0)
(0.99438301 0.040215729 0)
(0.99338437 0.025023758 0)
(0.99316188 0.0094072599 0)
(0.99369607 -0.006539182 0)
(0.99496511 -0.022731891 0)
(0.99694338 -0.039098463 0)
(0.9996005 -0.055579089 0)
(1.0028991 -0.07212621 0)
(1.0067934 -0.088702898 0)
(1.0112286 -0.10528087 0)
(1.0161418 -0.12183744 0)
(1.0214633 -0.13835325 0)
(1.0271195 -0.15480984 0)
(1.0330354 -0.17118893 0)
(1.0391369 -0.18747146 0)
(1.045353 -0.20363807 0)
(1.0516164 -0.21966873 0)
(1.0578651 -0.2355434 0)
(1.0640418 -0.25124195 0)
(1.0700948 -0.26674481 0)
(1.0759771 -0.28203297 0)
(1.0816466 -0.29708845 0)
(1.0870657 -0.31189438 0)
(1.0922003 -0.32643509 0)
(1.0970201 -0.34069611 0)
(1.1014986 -0.3546642 0)
(1.1056136 -0.36832763 0)
(1.1093451 -0.38167634 0)
(1.1041692 0.00088824549 0)
(1.1104931 0.0095397552 0)
(1.1147442 0.027016468 0)
(1.1172509 0.050562847 0)
(1.1183379 0.076219663 0)
(1.1181293 0.10078611 0)
(1.1166987 0.12233338 0)
(1.1141431 0.14002138 0)
(1.1105971 0.15372483 0)
(1.1062287 0.16369334 0)
(1.1012297 0.17031539 0)
(1.0958047 0.17398532 0)
(1.0901593 0.17504536 0)
(1.0844911 0.17377356 0)
(1.0789818 0.17039259 0)
(1.0737923 0.16508617 0)
(1.0690601 0.15801333 0)
(1.0648978 0.14931985 0)
(1.0613935 0.13914506 0)
(1.0586111 0.12762571 0)
(1.0565933 0.11489746 0)
(1.0553627 0.10109538 0)
(1.054926 0.086353334 0)
(1.0552766 0.070802949 0)
(1.0563987 0.054571873 0)
(1.0582692 0.037781702 0)
(1.0608608 0.020546035 0)
(1.0641417 0.0029686005 0)
(1.0680776 -0.014858163 0)
(1.0726301 -0.032853697 0)
(1.0777561 -0.050949576 0)
(1.0834075 -0.069089133 0)
(1.0895301 -0.087225884 0)
(1.096064 -0.10532208 0)
(1.1029441 -0.12334627 0)
(1.1101014 -0.14127173 0)
(1.1174647 -0.1590744 0)
(1.124963 -0.17673214 0)
(1.1325265 -0.19422361 0)
(1.1400884 -0.21152839 0)
(1.1475861 -0.22862651 0)
(1.1549615 -0.2454988 0)
(1.1621611 -0.26212673 0)
(1.1691367 -0.27849281 0)
(1.1758448 -0.29458055 0)
(1.1822462 -0.31037471 0)
(1.1883063 -0.32586126 0)
(1.1939937 -0.3410275 0)
(1.1992811 -0.35586194 0)
(1.2041444 -0.37035432 0)
(1.2085635 -0.38449575 0)
(1.2125207 -0.39827891 0)
(1.1045656 0.0028121642 0)
(1.1117676 0.014688754 0)
(1.1170187 0.034825232 0)
(1.1206985 0.06069933 0)
(1.123164 0.088518557 0)
(1.124555 0.11513856 0)
(1.1249471 0.13861342 0)
(1.1244283 0.15805562 0)
(1.123116 0.17328907 0)
(1.1211566 0.18452219 0)
(1.118719 0.19211671 0)
(1.1159851 0.19645529 0)
(1.11314 0.19788201 0)
(1.1103623 0.19668744 0)
(1.107817 0.19311464 0)
(1.1056503 0.18737241 0)
(1.1039862 0.17964747 0)
(1.1029254 0.1701143 0)
(1.1025447 0.15894048 0)
(1.102898 0.14628985 0)
(1.104018 0.13232328 0)
(1.1059183 0.11719874 0)
(1.1085962 0.10107032 0)
(1.1120359 0.084087061 0)
(1.1162108 0.066391449 0)
(1.1210867 0.048117732 0)
(1.1266234 0.029390436 0)
(1.1327762 0.010322994 0)
(1.1394972 -0.0089829453 0)
(1.1467347 -0.028438511 0)
(1.1544337 -0.047966892 0)
(1.1625358 -0.067503133 0)
(1.1709787 -0.086992694 0)
(1.1796972 -0.10639024 0)
(1.1886232 -0.12565762 0)
(1.1976871 -0.14476257 0)
(1.2068194 -0.16367698 0)
(1.2159513 -0.18237602 0)
(1.2250169 -0.20083715 0)
(1.2339532 -0.21903986 0)
(1.2427018 -0.23696512 0)
(1.2512086 -0.2545955 0)
(1.2594245 -0.27191489 0)
(1.2673051 -0.28890868 0)
(1.274811 -0.30556359 0)
(1.2819068 -0.3218678 0)
(1.2885613 -0.33781083 0)
(1.2947473 -0.35338352 0)
(1.3004407 -0.36857791 0)
(1.3056212 -0.38338717 0)
(1.3102716 -0.39780566 0)
(1.3143776 -0.41182887 0)
(1.1049788 0.0046429912 0)
(1.1130548 0.019572858 0)
(1.1192445 0.042173424 0)
(1.1239757 0.0701447 0)
(1.1276446 0.099865996 0)
(1.1304188 0.12826184 0)
(1.1323904 0.15338332 0)
(1.1336531 0.17430781 0)
(1.1343213 0.19081744 0)
(1.1345322 0.2030847 0)
(1.1344414 0.21144672 0)
(1.1342157 0.21627441 0)
(1.1340238 0.2179123 0)
(1.134028 0.21666165 0)
(1.134377 0.2127839 0)
(1.1352009 0.20651127 0)
(1.136608 0.19805712 0)
(1.1386835 0.18762371 0)
(1.1414891 0.17540639 0)
(1.1450637 0.1615957 0)
(1.1494258 0.14637755 0)
(1.1545745 0.1299327 0)
(1.1604934 0.11243555 0)
(1.167152 0.094052866 0)
(1.1745098 0.074942339 0)
(1.1825176 0.055251244 0)
(1.1911205 0.035115315 0)
(1.200259 0.014657771 0)
(1.2098707 -0.0060110612 0)
(1.2198906 -0.026794252 0)
(1.2302517 -0.047607572 0)
(1.2408853 -0.068379155 0)
(1.2517212 -0.089048124 0)
(1.2626885 -0.10956348 0)
(1.2737158 -0.12988235 0)
(1.2847326 -0.14996879 0)
(1.2956699 -0.16979222 0)
(1.3064611 -0.18932658 0)
(1.3170433 -0.20854926 0)
(1.3273574 -0.22744067 0)
(1.337349 -0.24598361 0)
(1.3469687 -0.26416316 0)
(1.3561719 -0.2819663 0)
(1.3649189 -0.29938187 0)
(1.3731747 -0.31640034 0)
(1.3809087 -0.33301376 0)
(1.3880943 -0.3492156 0)
(1.3947088 -0.3650006 0)
(1.4007326 -0.38036465 0)
(1.4061498 -0.39530462 0)
(1.4109475 -0.40981828 0)
(1.4151157 -0.42390426 0)
(1.1054105 0.0064130093 0)
(1.1143624 0.024297759 0)
(1.1214466 0.049245504 0)
(1.1271377 0.079160096 0)
(1.1318771 0.11059039 0)
(1.1358687 0.14053699 0)
(1.1392321 0.16705912 0)
(1.1420784 0.18921053 0)
(1.1445305 0.20674119 0)
(1.1467264 0.21979485 0)
(1.1488173 0.22868879 0)
(1.1509612 0.23378506 0)
(1.153315 0.23543022 0)
(1.156027 0.23393701 0)
(1.1592302 0.22958552 0)
(1.1630376 0.22263183 0)
(1.1675397 0.21331614 0)
(1.1728029 0.20186876 0)
(1.1788698 0.18851305 0)
(1.1857604 0.17346654 0)
(1.1934736 0.15694033 0)
(1.20199 0.13913816 0)
(1.211274 0.12025488 0)
(1.2212771 0.10047507 0)
(1.2319403 0.079971707 0)
(1.243197 0.058905031 0)
(1.254975 0.037421722 0)
(1.2671986 0.015654299 0)
(1.27979 -0.0062789839 0)
(1.2926705 -0.028274245 0)
(1.305761 -0.050241351 0)
(1.3189828 -0.072103257 0)
(1.3322577 -0.093794709 0)
(1.3455094 -0.11526111 0)
(1.3586631 -0.13645691 0)
(1.3716473 -0.15734442 0)
(1.3843934 -0.17789237 0)
(1.3968371 -0.19807497 0)
(1.4089184 -0.21787081 0)
(1.4205824 -0.23726233 0)
(1.4317794 -0.25623509 0)
(1.4424646 -0.27477742 0)
(1.452599 -0.29288002 0)
(1.4621481 -0.31053567 0)
(1.4710823 -0.32773902 0)
(1.4793766 -0.34448631 0)
(1.4870099 -0.36077519 0)
(1.4939648 -0.37660452 0)
(1.5002272 -0.39197417 0)
(1.5057863 -0.4068848 0)
(1.5106348 -0.42133775 0)
(1.5147674 -0.43533481 0)
(1.1058629 0.0081540309 0)
(1.1156996 0.02895857 0)
(1.1236488 0.056200755 0)
(1.1302323 0.08796674 0)
(1.1359424 0.12096839 0)
(1.1410268 0.15228602 0)
(1.1456413 0.17999586 0)
(1.1499242 0.20313841 0)
(1.1540159 0.22144128 0)
(1.1580642 0.23502768 0)
(1.1622227 0.24420163 0)
(1.1666462 0.24932129 0)
(1.1714836 0.25073916 0)
(1.1768709 0.24878226 0)
(1.1829257 0.24375184 0)
(1.1897427 0.23592973 0)
(1.197392 0.22558452 0)
(1.2059181 0.21297585 0)
(1.2153406 0.19835613 0)
(1.2256557 0.18197055 0)
(1.2368388 0.16405596 0)
(1.2488465 0.14483932 0)
(1.2616202 0.12453598 0)
(1.275089 0.10334822 0)
(1.2891724 0.081463986 0)
(1.3037832 0.059055936 0)
(1.3188301 0.036280949 0)
(1.3342197 0.013279799 0)
(1.3498584 -0.0098226306 0)
(1.3656532 -0.032917189 0)
(1.3815131 -0.055909692 0)
(1.3973495 -0.078720006 0)
(1.4130771 -0.10128068 0)
(1.4286142 -0.12353576 0)
(1.4438837 -0.14543917 0)
(1.458813 -0.16695355 0)
(1.4733348 -0.18804872 0)
(1.4873872 -0.20870078 0)
(1.500914 -0.22889093 0)
(1.513865 -0.2486048 0)
(1.5261956 -0.26783162 0)
(1.5378671 -0.2865638 0)
(1.5488463 -0.3047963 0)
(1.559105 -0.32252639 0)
(1.5686201 -0.33975315 0)
(1.5773728 -0.35647731 0)
(1.5853485 -0.37270086 0)
(1.592536 -0.38842687 0)
(1.5989275 -0.4036592 0)
(1.6045183 -0.41840234 0)
(1.6093071 -0.43266112 0)
(1.6132945 -0.4464406 0)
(1.1063386 0.0098950282 0)
(1.1170778 0.033637446 0)
(1.125877 0.063172833 0)
(1.1333073 0.096747061 0)
(1.1399178 0.1312259 0)
(1.1460071 0.16377072 0)
(1.151775 0.19248195 0)
(1.157395 0.21639638 0)
(1.1630331 0.23522902 0)
(1.1688536 0.24909157 0)
(1.1750186 0.25828256 0)
(1.1816839 0.26316312 0)
(1.1889928 0.26409711 0)
(1.1970703 0.26143078 0)
(1.2060177 0.25549057 0)
(1.2159097 0.24658738 0)
(1.2267931 0.23502089 0)
(1.2386867 0.22108228 0)
(1.2515826 0.20505457 0)
(1.265449 0.18721183 0)
(1.2802324 0.16781725 0)
(1.2958615 0.14712131 0)
(1.3122503 0.12535969 0)
(1.3293015 0.10275195 0)
(1.3469101 0.079500181 0)
(1.3649661 0.05578848 0)
(1.3833572 0.031782543 0)
(1.4019715 0.0076298839 0)
(1.4206988 -0.016539953 0)
(1.4394323 -0.040614599 0)
(1.4580692 -0.064498121 0)
(1.4765121 -0.088109597 0)
(1.494669 -0.11138187 0)
(1.5124544 -0.13425992 0)
(1.5297894 -0.1566995 0)
(1.5466017 -0.17866554 0)
(1.5628261 -0.20013099 0)
(1.5784043 -0.22107539 0)
(1.5932847 -0.24148405 0)
(1.6074229 -0.26134688 0)
(1.6207805 -0.28065784 0)
(1.6333257 -0.29941406 0)
(1.6450321 -0.31761548 0)
(1.6558792 -0.33526413 0)
(1.6658509 -0.35236398 0)
(1.6749358 -0.36892028 0)
(1.6831266 -0.38493957 0)
(1.6904191 -0.40042905 0)
(1.6968126 -0.41539662 0)
(1.7023092 -0.42985041 0)
(1.7069142 -0.44379876 0)
(1.7106348 -0.45724977 0)
(1.1068409 0.011661328 0)
(1.1185095 0.038403509 0)
(1.1281577 0.070271555 0)
(1.1364099 0.1056482 0)
(1.143878 0.14154263 0)
(1.1509184 0.17519695 0)
(1.1577824 0.20474198 0)
(1.1646857 0.22921976 0)
(1.1718269 0.24834266 0)
(1.1793925 0.26222041 0)
(1.1875575 0.27115526 0)
(1.1964816 0.2755191 0)
(1.2063039 0.27569468 0)
(1.2171378 0.27205373 0)
(1.2290671 0.26495341 0)
(1.2421435 0.25473815 0)
(1.2563867 0.24174258 0)
(1.2717852 0.22629214 0)
(1.2882991 0.20870276 0)
(1.3058631 0.18927858 0)
(1.3243905 0.16831003 0)
(1.3437774 0.14607097 0)
(1.3639063 0.12281722 0)
(1.3846503 0.098784457 0)
(1.4058771 0.074187878 0)
(1.4274517 0.049221157 0)
(1.4492401 0.024057148 0)
(1.4711111 -0.0011523449 0)
(1.4929382 -0.026275252 0)
(1.5146011 -0.051198822 0)
(1.5359865 -0.075827698 0)
(1.5569891 -0.10008311 0)
(1.5775121 -0.12390047 0)
(1.5974676 -0.14722849 0)
(1.6167764 -0.17002672 0)
(1.6353682 -0.19226489 0)
(1.6531813 -0.21392059 0)
(1.6701624 -0.23497882 0)
(1.6862663 -0.25543003 0)
(1.7014551 -0.27526992 0)
(1.7156984 -0.29449775 0)
(1.728972 -0.31311642 0)
(1.7412581 -0.331131 0)
(1.7525442 -0.34854903 0)
(1.7628228 -0.3653792 0)
(1.7720906 -0.38163181 0)
(1.7803483 -0.39731754 0)
(1.7875997 -0.41244806 0)
(1.7938518 -0.42703485 0)
(1.799114 -0.44108983 0)
(1.8033988 -0.45462435 0)
(1.8067203 -0.46764974 0)
(1.1073732 0.013474689 0)
(1.1200077 0.043314455 0)
(1.1305179 0.077586175 0)
(1.1395862 0.11478716 0)
(1.1478947 0.15205832 0)
(1.1558648 0.18672156 0)
(1.1638061 0.21694334 0)
(1.1719837 0.24178008 0)
(1.1806343 0.26095139 0)
(1.1899714 0.27457588 0)
(1.2001858 0.28296912 0)
(1.2114426 0.28652371 0)
(1.2238767 0.28564971 0)
(1.2375882 0.2807524 0)
(1.25264 0.27222598 0)
(1.2690571 0.26045443 0)
(1.2868268 0.24581143 0)
(1.3059023 0.2286606 0)
(1.3262059 0.20935272 0)
(1.347634 0.18822391 0)
(1.3700614 0.16559188 0)
(1.393347 0.14175421 0)
(1.4173382 0.11698535 0)
(1.4418756 0.091536274 0)
(1.4667973 0.065632753 0)
(1.4919425 0.039476407 0)
(1.5171545 0.013244023 0)
(1.5422832 -0.012910464 0)
(1.5671866 -0.038856004 0)
(1.591732 -0.064481735 0)
(1.6157974 -0.089696583 0)
(1.6392717 -0.114426 0)
(1.6620553 -0.13861147 0)
(1.6840599 -0.16220715 0)
(1.7052084 -0.18517963 0)
(1.7254343 -0.20750461 0)
(1.7446817 -0.22916709 0)
(1.762904 -0.25015819 0)
(1.7800637 -0.27047573 0)
(1.7961316 -0.29012131 0)
(1.8110862 -0.30910126 0)
(1.8249127 -0.3274239 0)
(1.8376027 -0.34510083 0)
(1.8491532 -0.36214437 0)
(1.8595658 -0.37856906 0)
(1.8688465 -0.39438926 0)
(1.8770047 -0.40962074 0)
(1.8840528 -0.42427851 0)
(1.8900058 -0.43837839 0)
(1.8948813 -0.45193495 0)
(1.8986991 -0.46496322 0)
(1.9014805 -0.47747648 0)
(1.1079394 0.015353961 0)
(1.121586 0.048418511 0)
(1.1329843 0.085189373 0)
(1.1428811 0.12425602 0)
(1.1520373 0.16287951 0)
(1.1609465 0.19845955 0)
(1.1699841 0.22920393 0)
(1.179471 0.2541921 0)
(1.1896871 0.27316228 0)
(1.2008765 0.2862527 0)
(1.2132473 0.29380418 0)
(1.2269699 0.29624057 0)
(1.242173 0.29400978 0)
(1.25894 0.28755917 0)
(1.2773084 0.27732837 0)
(1.2972703 0.2637468 0)
(1.3187751 0.247233 0)
(1.3417341 0.22819184 0)
(1.3660258 0.20701217 0)
(1.391502 0.18406264 0)
(1.4179944 0.15968921 0)
(1.4453204 0.1342116 0)
(1.4732888 0.10792226 0)
(1.5017054 0.081084386 0)
(1.5303777 0.053932663 0)
(1.5591183 0.026672666 0)
(1.5877485 -0.00051713049 0)
(1.6161001 -0.027485118 0)
(1.6440171 -0.054103591 0)
(1.6713569 -0.080268041 0)
(1.697991 -0.10589368 0)
(1.7238053 -0.13091445 0)
(1.7487 -0.15527941 0)
(1.7725894 -0.1789521 0)
(1.7954009 -0.20190696 0)
(1.8170748 -0.22412926 0)
(1.8375626 -0.24561149 0)
(1.8568269 -0.266354 0)
(1.8748399 -0.28636142 0)
(1.8915827 -0.30564393 0)
(1.9070443 -0.32421376 0)
(1.9212207 -0.34208697 0)
(1.9341141 -0.3592801 0)
(1.9457318 -0.37581227 0)
(1.9560858 -0.39170201 0)
(1.965192 -0.40696953 0)
(1.973069 -0.42163367 0)
(1.9797385 -0.43571433 0)
(1.9852239 -0.44922963 0)
(1.9895509 -0.46219833 0)
(1.9927473 -0.47463695 0)
(1.9948416 -0.48656245 0)
(1.1085436 0.017315538 0)
(1.1232583 0.053756794 0)
(1.1355836 0.093140439 0)
(1.146339 0.13412686 0)
(1.1563735 0.17408492 0)
(1.1662616 0.21049065 0)
(1.1764523 0.24159845 0)
(1.1873282 0.26652089 0)
(1.199217 0.28502612 0)
(1.2123952 0.297285 0)
(1.2270889 0.30367636 0)
(1.2434716 0.30466789 0)
(1.2616616 0.30075659 0)
(1.2817205 0.29244248 0)
(1.3036535 0.28021911 0)
(1.3274128 0.26456897 0)
(1.3529019 0.24596051 0)
(1.379983 0.22484425 0)
(1.4084837 0.20164884 0)
(1.4382058 0.1767769 0)
(1.4689322 0.1506016 0)
(1.5004351 0.12346401 0)
(1.5324822 0.095671519 0)
(1.5648432 0.067497315 0)
(1.5972941 0.039180759 0)
(1.629622 0.010928329 0)
(1.6616273 -0.017084609 0)
(1.6931259 -0.044711843 0)
(1.7239505 -0.071833745 0)
(1.7539515 -0.098354955 0)
(1.7829973 -0.12420126 0)
(1.8109744 -0.14931721 0)
(1.8377862 -0.17366334 0)
(1.8633527 -0.19721387 0)
(1.8876092 -0.21995464 0)
(1.910505 -0.2418808 0)
(1.9320023 -0.26299554 0)
(1.9520748 -0.28330788 0)
(1.9707066 -0.30283211 0)
(1.9878909 -0.32158565 0)
(2.0036289 -0.33958923 0)
(2.0179285 -0.35686472 0)
(2.0308036 -0.37343597 0)
(2.0422732 -0.38932662 0)
(2.05236 -0.40456132 0)
(2.0610904 -0.41916367 0)
(2.0684931 -0.43315748 0)
(2.0745989 -0.44656512 0)
(2.0794403 -0.45940883 0)
(2.0830513 -0.47170884 0)
(2.0854672 -0.48348517 0)
(2.0867243 -0.49475556 0)
(1.1091904 0.019374078 0)
(1.1250393 0.059364732 0)
(1.138343 0.10148841 0)
(1.1500042 0.14445529 0)
(1.1609713 0.18573011 0)
(1.1719091 0.22286389 0)
(1.1833482 0.25416388 0)
(1.195739 0.27878648 0)
(1.2094605 0.2965428 0)
(1.2248228 0.30765122 0)
(1.2420679 0.31254271 0)
(1.2613683 0.31174317 0)
(1.2828259 0.3058114 0)
(1.3064722 0.29531188 0)
(1.3322716 0.28080152 0)
(1.3601271 0.26282373 0)
(1.3898875 0.2419024 0)
(1.4213572 0.21853744 0)
(1.4543058 0.19319902 0)
(1.4884783 0.1663239 0)
(1.5236046 0.13831111 0)
(1.5594083 0.10952063 0)
(1.5956145 0.080271423 0)
(1.6319561 0.050842706 0)
(1.668179 0.021473971 0)
(1.7040462 -0.007631918 0)
(1.73934 -0.036307473 0)
(1.7738635 -0.064416197 0)
(1.8074419 -0.091850994 0)
(1.839923 -0.11852924 0)
(1.8711762 -0.14439105 0)
(1.9010925 -0.16939452 0)
(1.9295828 -0.19351447 0)
(1.9565763 -0.21673822 0)
(1.9820196 -0.23906476 0)
(2.0058743 -0.2605011 0)
(2.0281158 -0.28106189 0)
(2.0487315 -0.30076642 0)
(2.0677194 -0.31963853 0)
(2.0850866 -0.33770426 0)
(2.1008478 -0.35499201 0)
(2.1150244 -0.37153068 0)
(2.127643 -0.38735007 0)
(2.1387346 -0.40247948 0)
(2.1483337 -0.41694808 0)
(2.1564774 -0.43078384 0)
(2.1632048 -0.44401398 0)
(2.1685562 -0.45666393 0)
(2.1725731 -0.46875847 0)
(2.1752975 -0.48032017 0)
(2.1767727 -0.49137076 0)
(2.1770417 -0.50192961 0)
(1.1098845 0.021543 0)
(1.1269441 0.065273792 0)
(1.1412903 0.11027428 0)
(1.1539223 0.15528346 0)
(1.1659005 0.19785082 0)
(1.177991 0.23560143 0)
(1.1908145 0.26690291 0)
(1.2048952 0.29096751 0)
(1.2206659 0.30766529 0)
(1.2384694 0.31727783 0)
(1.2585596 0.32030544 0)
(1.2811013 0.31734761 0)
(1.3061709 0.30904008 0)
(1.3337596 0.29602381 0)
(1.3637797 0.27893002 0)
(1.3960737 0.25837038 0)
(1.4304253 0.2349302 0)
(1.4665718 0.20916127 0)
(1.5042168 0.18157677 0)
(1.5430429 0.152646 0)
(1.5827228 0.12279199 0)
(1.6229295 0.092389206 0)
(1.6633448 0.061764351 0)
(1.7036661 0.031196689 0)
(1.7436116 0.00092125057 0)
(1.7829232 -0.028869131 0)
(1.8213691 -0.058018998 0)
(1.8587443 -0.086407632 0)
(1.8948719 -0.11394379 0)
(1.9296016 -0.14056273 0)
(1.9628091 -0.16622119 0)
(1.9943948 -0.19089504 0)
(2.024281 -0.21457477 0)
(2.0524108 -0.23726403 0)
(2.0787452 -0.25897551 0)
(2.1032617 -0.27973046 0)
(2.1259514 -0.29955488 0)
(2.146818 -0.31847997 0)
(2.1658753 -0.33653854 0)
(2.183146 -0.35376631 0)
(2.1986597 -0.37019845 0)
(2.2124523 -0.38587151 0)
(2.2245637 -0.40082017 0)
(2.2350376 -0.41507973 0)
(2.2439207 -0.42868296 0)
(2.2512611 -0.44166227 0)
(2.2571086 -0.45404694 0)
(2.2615127 -0.46586586 0)
(2.2645236 -0.47714509 0)
(2.2661915 -0.48790976 0)
(2.266567 -0.49818169 0)
(2.2656999 -0.50798307 0)
(1.1106315 0.023834866 0)
(1.1289889 0.071512827 0)
(1.1444549 0.1195327 0)
(1.158141 0.16664238 0)
(1.1712349 0.21046516 0)
(1.1846158 0.24870068 0)
(1.1990038 0.27978585 0)
(1.2150024 0.30300402 0)
(1.2330995 0.31830138 0)
(1.2536676 0.32604207 0)
(1.2769657 0.32681449 0)
(1.3031409 0.32131002 0)
(1.3322321 0.31025713 0)
(1.3641767 0.29438731 0)
(1.3988212 0.2744164 0)
(1.4359346 0.2510326 0)
(1.4752234 0.22488689 0)
(1.516348 0.19658553 0)
(1.5589385 0.16668365 0)
(1.6026096 0.13568129 0)
(1.646974 0.1040207 0)
(1.6916533 0.072086365 0)
(1.7362875 0.040205866 0)
(1.7805413 0.0086529848 0)