/*--------------------------------*- C++ -*----------------------------------*\
| =========                 |                                                 |
| \\      /  F ield         | OpenFOAM: The Open Source CFD Toolbox           |
|  \\    /   O peration     | Version:  2312                                  |
|   \\  /    A nd           | Website:  www.openfoam.com                      |
|    \\/     M anipulation  |                                                 |
\*---------------------------------------------------------------------------*/
FoamFile
{
    version     2.0;
    format      ascii;
    arch        "LSB;label=32;scalar=64";
    class       volScalarField;
    location    "0.09";
    object      alphat;
}
// * * * * * * * * * * * * * * * * * * * * * * * * * * * * * * * * * * * * * //

dimensions      [1 -1 -1 0 0 0 0];

internalField   nonuniform List<scalar> 
3257
(
0.04692571
0.047418688
0.04791184
0.048404732
0.048896946
0.049388061
0.049877646
0.050365264
0.050850473
0.051332824
0.051811864
0.052287138
0.052758187
0.053224548
0.05368576
0.054141357
0.05459088
0.055033867
0.055469862
0.055898409
0.056319057
0.056731358
0.057134872
0.057529164
0.057913802
0.058288369
0.05865245
0.059005639
0.059347541
0.05967777
0.05999595
0.060301716
0.060594713
0.060874599
0.061141042
0.061393725
0.061632341
0.061856596
0.062066211
0.062260918
0.062440462
0.062604606
0.062753121
0.062885795
0.063002429
0.063102839
0.063186852
0.063254313
0.063305087
0.063339041
0.063355956
0.046904329
0.0473977
0.047891238
0.048384512
0.048877106
0.049368599
0.04985856
0.050346551
0.050832131
0.05131485
0.051794254
0.052269887
0.05274129
0.053208
0.053669555
0.054125494
0.054575352
0.05501867
0.055454989
0.055883853
0.05630481
0.056717413
0.057121222
0.057515799
0.057900715
0.058275551
0.058639892
0.058993333
0.059335478
0.05966594
0.059984345
0.060290325
0.060583527
0.060863608
0.061130238
0.061383096
0.061621877
0.061846288
0.062056047
0.062250888
0.062430557
0.062594813
0.062743431
0.062876197
0.062992913
0.063093393
0.063177466
0.063244973
0.063295777
0.063329745
0.063346659
0.046862151
0.047356278
0.047850575
0.048344606
0.048837956
0.049330201
0.04982091
0.050309646
0.050795965
0.051279417
0.051759547
0.052235899
0.052708012
0.053175423
0.053637669
0.054094287
0.054544814
0.054988788
0.05542575
0.055855244
0.056276817
0.056690022
0.057094417
0.057489565
0.057875035
0.058250409
0.058615271
0.058969215
0.059311846
0.059642776
0.05996163
0.060268041
0.060561655
0.060842128
0.06110913
0.061362342
0.061601457
0.061826181
0.062036234
0.062231348
0.062411269
0.062575757
0.062724585
0.062857541
0.062974425
0.063075052
0.06315925
0.06322686
0.063277744
0.063311768
0.06332872
0.046802373
0.047297559
0.047792916
0.048288009
0.048782418
0.049275719
0.049767481
0.050257265
0.050744624
0.051229108
0.051710262
0.052187628
0.052660743
0.053129143
0.053592365
0.054049943
0.054501415
0.054946317
0.055384189
0.055814574
0.056237019
0.056651076
0.057056301
0.057452257
0.057838514
0.05821465
0.05858025
0.058934908
0.059278228
0.059609822
0.059929313
0.060236335
0.060530533
0.060811564
0.061079095
0.061332809
0.061572397
0.061797566
0.062008034
0.062203535
0.062383814
0.062548629
0.062697755
0.062830977
0.062948097
0.063048928
0.063133296
0.063201045
0.063252033
0.063286125
0.063303116
0.046727307
0.047223807
0.047720481
0.048216891
0.048712617
0.049207234
0.049700306
0.050191395
0.050680052
0.051165825
0.051648257
0.052126888
0.052601254
0.053070892
0.053535334
0.053994115
0.05444677
0.054892834
0.055331846
0.055763349
0.056186887
0.056602011
0.057008277
0.057405248
0.057792491
0.058169583
0.058536111
0.058891666
0.05923585
0.059568277
0.059888569
0.060196359
0.060491291
0.060773021
0.061041218
0.061295561
0.061535743
0.06176147
0.061972461
0.062168446
0.062349172
0.062514397
0.062663894
0.062797448
0.06291486
0.063015943
0.063100523
0.063168442
0.063219556
0.063253732
0.063270769
0.046639205
0.047137228
0.047635431
0.048133372
0.048630629
0.049126775
0.049621374
0.050113983
0.050604153
0.051091429
0.051575354
0.052055463
0.052531293
0.053002376
0.053468246
0.053928433
0.054382472
0.054829897
0.055270245
0.055703056
0.056127875
0.05654425
0.056951738
0.057349897
0.057738298
0.058116513
0.058484127
0.058840734
0.059185934
0.059519339
0.05984057
0.060149261
0.060445054
0.060727605
0.060996582
0.061251664
0.061492543
0.061718924
0.061930525
0.062127078
0.062308326
0.06247403
0.062623959
0.0627579
0.062875652
0.062977027
0.063061852
0.063129966
0.063181227
0.063215499
0.063232588
0.046540203
0.047039917
0.04753982
0.048039465
0.048538428
0.049036279
0.04953258
0.050026886
0.050518745
0.051007701
0.051493293
0.051975056
0.052452523
0.052925225
0.053392692
0.053854456
0.054310046
0.054758997
0.055200842
0.055635121
0.056061377
0.056479157
0.056888015
0.05728751
0.057677209
0.058056685
0.05842552
0.058783308
0.059129649
0.059464152
0.059786439
0.060096141
0.060392901
0.060676374
0.060946227
0.061202138
0.061443798
0.061670912
0.061883198
0.062080386
0.06226222
0.062428458
0.06257887
0.062713242
0.062831372
0.062933073
0.063018169
0.063086501
0.063137924
0.063172304
0.063189449
0.046432291
0.046933829
0.047435566
0.04793705
0.048437856
0.04893755
0.049435693
0.049931837
0.050425526
0.050916303
0.051403704
0.051887261
0.052366505
0.052840965
0.05331017
0.053773646
0.054230923
0.054681533
0.055125007
0.055560884
0.055988704
0.056408013
0.056818363
0.057219312
0.057610425
0.057991274
0.058361441
0.058720515
0.059068098
0.059403798
0.059727234
0.060038038
0.060335852
0.060620328
0.060891134
0.061147947
0.061390457
0.061618369
0.061831398
0.062029276
0.062211745
0.062378562
0.062529498
0.062664337
0.062782876
0.062884928
0.062970318
0.063038885
0.063090484
0.063124979
0.063142185
0.046317304
0.046820765
0.047324436
0.047827863
0.048330616
0.04883226
0.049332352
0.049830441
0.05032607
0.050818777
0.051308096
0.051793557
0.052274688
0.052751015
0.053222064
0.053687361
0.054146431
0.054598805
0.055044013
0.055481589
0.055911074
0.05633201
0.056743948
0.057146445
0.057539063
0.057921375
0.058292959
0.058653404
0.059002309
0.059339283
0.059663944
0.059975921
0.060274855
0.060560399
0.060832219
0.061089991
0.061333405
0.061562164
0.061775984
0.061974594
0.062157737
0.062325169
0.062476659
0.062611992
0.062730965
0.062833389
0.062919089
0.062987904
0.063039688
0.063074307
0.063091575
0.046196914
0.046702367
0.047208045
0.047713488
0.048218264
0.048721935
0.049224054
0.049724168
0.050221816
0.050716534
0.051207852
0.051695299
0.052178398
0.052656674
0.053129649
0.053596847
0.054057791
0.054512009
0.054959028
0.055398381
0.055829606
0.056252244
0.056665844
0.05706996
0.057464153
0.057847995
0.058221062
0.058582941
0.05893323
0.059271536
0.059597477
0.059910681
0.060210787
0.060497449
0.060770328
0.061029103
0.061273461
0.061503105
0.061717749
0.061917123
0.062100969
0.062269041
0.062421109
0.062556957
0.062676381
0.062779192
0.062865214
0.062934287
0.062986265
0.063021011
0.063038344
0.046072633
0.046580123
0.047087854
0.047595361
0.04810221
0.048607958
0.049112157
0.049614349
0.050114072
0.050610856
0.05110423
0.051593719
0.052078844
0.052559125
0.053034084
0.053503239
0.053966114
0.054422231
0.054871117
0.055312303
0.055745322
0.056169716
0.056585029
0.056990815
0.057386633
0.057772053
0.058146649
0.058510008
0.058861724
0.059201405
0.059528667
0.059843136
0.060144451
0.060432263
0.060706235
0.060966042
0.061211373
0.061441927
0.061657421
0.061857581
0.062042149
0.06221088
0.062363542
0.062499918
0.062619805
0.062723013
0.062809366
0.062878704
0.06293088
0.062965756
0.062983156
0.045945813
0.046455363
0.046965171
0.047474768
0.047983716
0.048491571
0.04899788
0.049502182
0.05000401
0.050502895
0.050998359
0.051489924
0.051977109
0.052459432
0.052936409
0.053407559
0.0538724
0.054330453
0.054781241
0.055224294
0.055659143
0.056085326
0.056502386
0.056909875
0.057307351
0.057694379
0.058070535
0.058435403
0.058788576
0.059129658
0.059458265
0.059774024
0.060076571
0.060365556
0.06064064
0.060901499
0.06114782
0.061379302
0.061595659
0.061796618
0.061981921
0.062151321
0.062304586
0.062441499
0.062561855
0.062665466
0.062752155
0.062821762
0.062874139
0.062909148
0.062926615
0.045817656
0.046329267
0.046841157
0.04735285
0.047863906
0.048373877
0.048882306
0.049388729
0.049892677
0.050393674
0.050891243
0.0513849
0.051874162
0.052358543
0.052837556
0.053310717
0.053777542
0.054237548
0.054690258
0.055135195
0.055571891
0.055999881
0.056418706
0.056827915
0.057227065
0.057615718
0.057993449
0.05835984
0.058714484
0.059056981
0.059386947
0.059704008
0.060007798
0.060297966
0.060574173
0.060836093
0.061083411
0.061315828
0.061533055
0.06173482
0.061920862
0.062090936
0.062244808
0.06238226
0.06250309
0.062607105
0.062694132
0.062764008
0.062816587
0.06285173
0.062869263
0.045689213
0.046202874
0.046716833
0.047230613
0.047743768
0.048255847
0.04876639
0.04927493
0.049780993
0.050284101
0.050783772
0.05127952
0.051770857
0.052257296
0.052738346
0.05321352
0.05368233
0.054144292
0.054598924
0.05504575
0.055484296
0.055914095
0.056334688
0.05674562
0.057146446
0.057536728
0.057916036
0.058283953
0.058640069
0.058983984
0.059315311
0.059633675
0.059938709
0.060230062
0.060507392
0.060770373
0.061018689
0.06125204
0.061470137
0.061672707
0.061859488
0.062030233
0.062184711
0.062322702
0.062444002
0.062548422
0.062635785
0.062705929
0.062758709
0.062793986
0.062811586
0.045561401
0.046077085
0.046593089
0.047108931
0.047624162
0.048138328
0.048650965
0.049161602
0.049669762
0.050174963
0.05067672
0.051174544
0.051667943
0.052156425
0.052639499
0.053116673
0.053587456
0.054051362
0.054507907
0.054956609
0.055396995
0.055828595
0.056250945
0.056663591
0.057066085
0.057457986
0.057838864
0.058208298
0.058565879
0.058911204
0.059243883
0.059563542
0.059869814
0.060162343
0.060440789
0.060704824
0.060954131
0.061188409
0.061407369
0.061610737
0.06179825
0.061969662
0.06212474
0.062263265
0.062385032
0.062489851
0.062577546
0.062647957
0.062700936
0.062736344
0.062754009
0.045435009
0.045952678
0.046470691
0.04698856
0.047505833
0.048022052
0.04853675
0.049049453
0.049559679
0.050066945
0.050570759
0.05107063
0.051566064
0.052056564
0.052541637
0.053020786
0.053493519
0.053959346
0.05441778
0.054868338
0.055310542
0.055743921
0.05616801
0.05658235
0.056986492
0.057379994
0.057762424
0.058133359
0.058492386
0.058839104
0.059173121
0.05949406
0.059801553
0.060095244
0.060374792
0.060639867
0.060890152
0.061125345
0.061345156
0.06154931
0.061737545
0.061909614
0.062065283
0.062204333
0.062326559
0.062431771
0.062519793
0.062590465
0.06264364
0.062679178
0.062696907
0.045310708
0.045830316
0.046350291
0.046870141
0.047389412
0.047907641
0.048424359
0.048939086
0.049451339
0.049960629
0.050466462
0.050968343
0.051465774
0.051958257
0.052445292
0.052926383
0.053401032
0.053868747
0.054329038
0.05478142
0.055225413
0.055660542
0.05608634
0.056502346
0.056908109
0.057303185
0.05768714
0.05805955
0.05842
0.058768087
0.059103419
0.059425614
0.059734307
0.06002914
0.06030977
0.060575865
0.06082711
0.061063201
0.061283847
0.061488772
0.061677715
0.061850427
0.062006674
0.062146238
0.062268913
0.06237451
0.062462852
0.062533779
0.062587145
0.06262281
0.062640601
0.04518906
0.045710552
0.046232436
0.046754216
0.047275433
0.047795622
0.048314308
0.048831011
0.049345241
0.049856507
0.050364312
0.050868157
0.05136754
0.051861961
0.052350916
0.052833904
0.053310428
0.053779991
0.054242099
0.054696266
0.055142009
0.05557885
0.05600632
0.056423957
0.056831307
0.057227924
0.057613371
0.057987224
0.058349066
0.058698492
0.059035109
0.059358534
0.0596684
0.059964349
0.060246035
0.060513129
0.060765311
0.061002277
0.061223738
0.061429416
0.061619048
0.061792387
0.061949199
0.062089263
0.062212376
0.062318346
0.062407
0.062478175
0.062531727
0.062567515
0.062585367
0.045070531
0.045593848
0.046117582
0.046641232
0.047164337
0.047686427
0.048207026
0.048725648
0.0492418
0.049754988
0.050264711
0.050770467
0.051271751
0.051768058
0.052258882
0.05274372
0.053222069
0.053693432
0.054157311
0.054613217
0.055060665
0.055499175
0.055928275
0.056347501
0.056756397
0.057154515
0.057541417
0.057916675
0.058279873
0.058630604
0.058968472
0.059293095
0.059604103
0.059901137
0.060183852
0.060451915
0.060705009
0.060942827
0.061165079
0.061371488
0.06156179
0.061735738
0.061893096
0.062033646
0.062157183
0.062263516
0.06235247
0.062423886
0.062477618
0.062513525
0.062531434
0.044955498
0.045480576
0.046006096
0.046531553
0.047056483
0.047580413
0.048102862
0.048623341
0.049141356
0.049656406
0.050167988
0.050675597
0.051178723
0.05167686
0.052169498
0.05265613
0.053136251
0.05360936
0.054074959
0.054532553
0.054981657
0.055421787
0.055852469
0.056273238
0.056683634
0.057083209
0.057471523
0.057848146
0.058212659
0.058564655
0.058903738
0.059229523
0.059541637
0.059839724
0.060123435
0.060392439
0.060646415
0.060885058
0.061108076
0.061315192
0.061506142
0.061680678
0.061838565
0.061979584
0.062103529
0.062210212
0.062299457
0.062371104
0.062425009
0.062461031
0.062478996
0.04484426
0.045371031
0.04589827
0.046425468
0.046952156
0.04747786
0.048002094
0.048524366
0.049044178
0.049561026
0.050074405
0.050583803
0.051088711
0.051588616
0.052083008
0.052571375
0.05305321
0.053528009
0.05399527
0.054454499
0.054905203
0.055346901
0.055779115
0.056201376
0.056613224
0.057014208
0.057403888
0.05778183
0.058147616
0.058500835
0.058841091
0.059167999
0.059481183
0.059780286
0.06006496
0.060334871
0.060589699
0.060829138
0.061052895
0.061260692
0.061452267
0.061627369
0.061785765
0.061927235
0.062051574
0.062158592
0.062248116
0.062319985
0.062374056
0.062410188
0.062428206
0.044737044
0.045265441
0.04579433
0.046323199
0.046851577
0.047378985
0.047904936
0.048428933
0.048950475
0.049469055
0.049984162
0.050495286
0.05100191
0.05150352
0.051999602
0.052489642
0.05297313
0.053449558
0.053918423
0.054379227
0.054831477
0.055274686
0.055708376
0.056132077
0.056545325
0.056947669
0.057338665
0.057717879
0.058084891
0.05843929
0.058780677
0.059108666
0.05942288
0.059722962
0.060008563
0.060279347
0.060534995
0.060775198
0.060999665
0.061208118
0.061400292
0.061575938
0.061734822
0.061876725
0.062001441
0.062108781
0.062198571
0.062270653
0.062324882
0.06236112
0.062379188
0.04463402
0.04516397
0.045694439
0.046224908
0.046754905
0.047283948
0.047811545
0.048337198
0.0488604
0.049380642
0.049897412
0.050410192
0.050918466
0.051421714
0.051919421
0.05241107
0.052896147
0.053374142
0.05384455
0.054306869
0.054760604
0.055205267
0.055640378
0.056065463
0.056480058
0.056883708
0.05727597
0.057656407
0.058024598
0.05838013
0.058722604
0.059051631
0.059366836
0.059667857
0.059954347
0.060225969
0.060482403
0.06072334
0.060948488
0.061157567
0.061350315
0.061526482
0.061685833
0.061828149
0.061953225
0.062060872
0.062150916
0.0622232
0.062277581
0.062313919
0.062332034
0.044535298
0.045066732
0.045598709
0.046130708
0.046662252
0.047192858
0.047722031
0.048249268
0.04877406
0.049295895
0.049814257
0.050328625
0.050838479
0.051343299
0.051842564
0.052335755
0.052822357
0.053301855
0.053773742
0.054237514
0.054692675
0.055138733
0.055575206
0.056001619
0.056417505
0.056822409
0.057215884
0.057597495
0.057966815
0.058323434
0.058666948
0.05899697
0.059313123
0.059615044
0.059902385
0.060174809
0.060431994
0.060673633
0.060899431
0.06110911
0.061302407
0.06147907
0.061638866
0.061781576
0.061906995
0.062014934
0.06210522
0.062177696
0.06223222
0.062268653
0.062286813
0.044440947
0.044973794
0.045507207
0.046040664
0.046573684
0.047105782
0.047636459
0.048165208
0.04869152
0.049214877
0.04973476
0.050250646
0.050762013
0.051268336
0.051769091
0.052263758
0.052751818
0.053232755
0.053706058
0.054171221
0.054627746
0.055075139
0.055512915
0.055940598
0.05635772
0.056763823
0.05715846
0.057541191
0.057911593
0.058269249
0.058613759
0.058944732
0.059261791
0.059564571
0.059852725
0.060125914
0.060383817
0.060626124
0.060852543
0.061062793
0.061256611
0.061433747
0.061593966
0.06173705
0.061862795
0.061971011
0.062061526
0.062134184
0.062188843
0.062225366
0.062243568
0.044350992
0.044885181
0.045419961
0.045954803
0.046489229
0.047022747
0.047554856
0.048085048
0.048612808
0.049137616
0.049658951
0.050176286
0.050689095
0.051196852
0.051699031
0.052195107
0.052684559
0.053166869
0.053641523
0.054108015
0.054565842
0.05501451
0.055453531
0.055882427
0.056300729
0.056707976
0.057103721
0.057487523
0.057858955
0.058217602
0.058563061
0.05889494
0.059212863
0.059516462
0.05980539
0.060079308
0.060337894
0.060580837
0.060807846
0.061018639
0.061212952
0.061390537
0.061551158
0.061694597
0.06182065
0.061929128
0.06201986
0.062092689
0.062147476
0.062184084
0.062202325
0.044265426
0.044800885
0.045336962
0.045873121
0.046408881
0.046943748
0.04747722
0.048008783
0.048537921
0.049064111
0.049586827
0.050105542
0.050619725
0.051128848
0.051632382
0.052129801
0.052620579
0.053104198
0.053580141
0.054047898
0.054506966
0.054956848
0.055397055
0.055827107
0.056246533
0.056654871
0.05705167
0.057436492
0.057808906
0.058168496
0.058514858
0.0588476
0.059166343
0.059470722
0.059760386
0.060034996
0.06029423
0.060537778
0.060765346
0.060976654
0.061171438
0.061349447
0.061510449
0.061654223
0.061780567
0.061889293
0.061980229
0.062053219
0.062108127
0.062144814
0.062163091
0.044184212
0.044720868
0.045258173
0.045795581
0.046332606
0.046868754
0.047403518
0.047936384
0.048466831
0.048994333
0.049518363
0.050038388
0.050553878
0.0510643
0.051569122
0.052067817
0.052559857
0.05304472
0.053521888
0.05399085
0.054451098
0.054902135
0.05534347
0.05577462
0.056195115
0.056604489
0.057002292
0.057388082
0.057761429
0.058121915
0.058469135
0.058802696
0.059122219
0.059427337
0.059717699
0.059992966
0.060252815
0.060496935
0.060725033
0.060936828
0.061132056
0.061310468
0.061471829
0.06161592
0.061742538
0.061851497
0.061942625
0.062015767
0.062070786
0.062107549
0.062125859
0.044107289
0.044645066
0.045183531
0.045722123
0.046260347
0.046797708
0.047333698
0.047867799
0.048399487
0.048928233
0.049453508
0.049974777
0.050491506
0.051003161
0.051509207
0.052009113
0.052502351
0.052988395
0.053466726
0.05393683
0.054398199
0.054850332
0.055292737
0.055724931
0.05614644
0.056556798
0.056955553
0.057342262
0.057716493
0.058077829
0.058425862
0.0587602
0.059080461
0.05938628
0.059677303
0.059953192
0.060213622
0.060458284
0.060686883
0.060899138
0.061094786
0.061273576
0.061435276
0.061579665
0.061706542
0.061815719
0.061907027
0.061980311
0.062035435
0.062072267
0.062090608
0.044034557
0.044573399
0.045112954
0.045652667
0.046192027
0.046730537
0.047267686
0.047802956
0.048335818
0.048865743
0.049392197
0.049914644
0.050432547
0.050945369
0.051452574
0.051953629
0.052448001
0.052935165
0.053414598
0.053885785
0.054348216
0.054801388
0.055244808
0.05567799
0.056100459
0.05651175
0.056911406
0.057298985
0.057674054
0.058036194
0.058384998
0.05872007
0.05904103
0.059347511
0.059639158
0.059915635
0.060176615
0.060421788
0.060650859
0.060863549
0.061059592
0.061238739
0.061400757
0.061545426
0.061672546
0.061781928
0.061873404
0.06194682
0.062002043
0.06203894
0.062057309
0.044505756
0.045046344
0.04558712
0.046127553
0.046667149
0.047205395
0.047741768
0.048275741
0.04880678
0.049334349
0.049857909
0.050376923
0.050890849
0.05139915
0.051901291
0.052396737
0.05288496
0.053365436
0.053837648
0.054301083
0.054755238
0.055199618
0.055633735
0.056057113
0.056469284
0.056869794
0.057258195
0.057634057
0.057996957
0.058346487
0.058682254
0.059003874
0.05931098
0.059603217
0.059880248
0.060141746
0.0603874
0.060616917
0.060830015
0.06102643
0.061205913
0.06136823
0.061513162
0.061640509
0.061750083
0.061841716
0.061915255
0.061970569
0.062007526
0.062025921
0.04444206
0.044983607
0.045525378
0.046066824
0.046607443
0.047146722
0.047684137
0.048219158
0.048751248
0.049279869
0.049804482
0.050324543
0.050839512
0.051348849
0.051852015
0.052348475
0.052837699
0.05331916
0.05379234
0.054256724
0.054711808
0.055157094
0.055592094
0.056016331
0.056429334
0.056830648
0.057219827
0.057596436
0.057960053
0.05831027
0.058646691
0.058968933
0.059276629
0.059569422
0.059846974
0.06010896
0.060355068
0.060585003
0.060798486
0.06099525
0.061175047
0.061337644
0.061482823
0.061610382
0.061720135
0.061811914
0.061885568
0.061940966
0.06197798
0.061996397
0.044382159
0.04492462
0.045467327
0.046009723
0.046551306
0.047091559
0.047629955
0.048165962
0.048699043
0.049228657
0.04975426
0.05027531
0.050791263
0.051301576
0.051805709
0.052303126
0.052793293
0.053275684
0.053749776
0.054215055
0.054671015
0.055117156
0.055552989
0.055978035
0.056391823
0.056793896
0.057183807
0.05756112
0.057925414
0.058276277
0.058613314
0.058936143
0.059244393
0.059537709
0.059815752
0.060078196
0.06032473
0.060555059
0.060768901
0.060965993
0.061146086
0.061308945
0.061454354
0.061582111
0.061692031
0.061783946
0.061857706
0.061913182
0.061950248
0.061968685
0.04432593
0.044869253
0.045412839
0.04595613
0.046498618
0.047039786
0.047579105
0.048116041
0.048650054
0.049180601
0.049707137
0.050229117
0.050745996
0.051257228
0.051762272
0.05226059
0.052751646
0.053234912
0.053709864
0.054175986
0.054632771
0.055079717
0.055516334
0.055942142
0.056356669
0.056759457
0.057150057
0.057528033
0.057892962
0.058244434
0.058582051
0.05890543
0.059214202
0.05950801
0.059786513
0.060049388
0.060296322
0.060527019
0.0607412
0.060938598
0.061118966
0.061282071
0.061427695
0.061555637
0.061665712
0.061757753
0.061831612
0.061887159
0.061924273
0.061942728
0.04427324
0.044817373
0.045361785
0.045905914
0.046449253
0.04699128
0.047531466
0.048069274
0.048604162
0.049135586
0.049663
0.050185854
0.050703603
0.0512157
0.051721601
0.052220765
0.052712657
0.053196746
0.053672507
0.054139422
0.054596982
0.055044686
0.055482041
0.055908565
0.056323787
0.056727246
0.057118494
0.057497093
0.05786262
0.058214664
0.058552825
0.058876721
0.059185982
0.059480251
0.059759187
0.060022466
0.060269774
0.060500817
0.060715313
0.060912999
0.061093625
0.061256958
0.061402782
0.061530896
0.061641116
0.061733274
0.061807222
0.061862836
0.061899993
0.061918465
0.044223953
0.044768845
0.045314031
0.045858946
0.04640308
0.046945913
0.047486912
0.048025538
0.048561248
0.049093495
0.049621731
0.050145407
0.050663973
0.051176881
0.051683586
0.052183546
0.052676222
0.053161084
0.053637605
0.054105265
0.054563553
0.055011968
0.055450016
0.055877213
0.056293087
0.056697177
0.057089033
0.057468217
0.057834305
0.058186884
0.058525557
0.058849938
0.059159657
0.059454359
0.0597337
0.059997356
0.060245015
0.060476381
0.060691173
0.060889126
0.061069993
0.061233539
0.06137955
0.061507823
0.061618177
0.061710443
0.061784475
0.061840149
0.061877347
0.061895832
0.044177927
0.04472353
0.045269439
0.045815089
0.046359969
0.046903556
0.047445316
0.047984708
0.048521188
0.049054206
0.049583213
0.050107658
0.05062699
0.051140659
0.051648118
0.052148823
0.052642236
0.053127823
0.053605056
0.054073414
0.054532386
0.054981468
0.055420165
0.055847993
0.056264479
0.056669161
0.057061587
0.057441319
0.057807932
0.058161014
0.058500165
0.058825
0.059135149
0.059430255
0.059709975
0.059973985
0.060221972
0.060453639
0.060668707
0.060866911
0.061048001
0.061211746
0.06135793
0.061486352
0.061596829
0.061689195
0.061763303
0.061819032
0.061856267
0.061874764
0.044135021
0.044681287
0.045227872
0.045774209
0.046319786
0.046864078
0.047406549
0.047946658
0.048483857
0.049017597
0.049547326
0.050072491
0.050592539
0.05110692
0.051615085
0.052116489
0.052610591
0.053096857
0.053574756
0.054043769
0.054503381
0.054953088
0.055392393
0.055820813
0.056237871
0.056643106
0.057036066
0.057416312
0.057783417
0.058136969
0.058476568
0.058801828
0.059112379
0.059407863
0.059687937
0.059952277
0.06020057
0.060432519
0.060647844
0.06084628
0.06102758
0.06119151
0.061337854
0.061466413
0.061577005
0.061669462
0.061743641
0.06179942
0.061836688
0.061855195
0.044095092
0.044641977
0.045189193
0.045736171
0.046282398
0.046827348
0.047370483
0.047911261
0.048449133
0.048983547
0.049513949
0.050039787
0.050560505
0.051075552
0.051584377
0.052086434
0.05258118
0.053068081
0.053546604
0.054016229
0.05447644
0.05492673
0.055366605
0.055795577
0.056213172
0.056618925
0.057012384
0.057393109
0.057760674
0.058114666
0.058454683
0.05878034
0.059091266
0.059387103
0.059667509
0.059932156
0.060180734
0.060412946
0.060628511
0.060827164
0.061008658
0.061172759
0.061319253
0.061447939
0.061558636
0.061651178
0.061725421
0.061781245
0.061818544
0.061837059
0.044058001
0.044605462
0.045153266
0.04570084
0.046247673
0.046793236
0.047336991
0.047878392
0.048416891
0.048951933
0.049482965
0.05000943
0.050530774
0.051046442
0.051555883
0.052058549
0.052553897
0.05304139
0.053520497
0.053990693
0.054451463
0.054902299
0.055342706
0.055772194
0.056190289
0.056596526
0.056990451
0.057371625
0.057739619
0.058094021
0.058434429
0.058760457
0.059071733
0.059367899
0.059648613
0.059913548
0.060162392
0.060394848
0.060610636
0.060809491
0.060991165
0.061155425
0.061302057
0.061430861
0.061541655
0.061634275
0.061708576
0.061764441
0.061801768
0.061820288
0.044023608
0.044571606
0.045119955
0.045668085
0.046215481
0.046761615
0.047305946
0.047847928
0.04838701
0.048922638
0.049454255
0.049981305
0.050503231
0.051019478
0.051529493
0.052032728
0.052528637
0.053016683
0.053496333
0.053967062
0.054428353
0.054879699
0.055320601
0.055750572
0.056169134
0.056575821
0.056970181
0.057351773
0.057720168
0.058074952
0.058415725
0.058742098
0.0590537
0.059350174
0.059631175
0.059896377
0.060145469
0.060378152
0.060594147
0.06079319
0.060975031
0.061139439
0.061286199
0.061415111
0.061525995
0.061618686
0.06169304
0.061748942
0.061786294
0.061804819
0.043991778
0.044540274
0.045089131
0.045637776
0.046185696
0.046732359
0.047277225
0.047819747
0.048359371
0.048895543
0.049427705
0.049955299
0.050477767
0.050994552
0.051505102
0.052008865
0.052505297
0.052993858
0.053474014
0.053945239
0.054407016
0.054858837
0.055300201
0.05573062
0.056149616
0.056556724
0.05695149
0.057333471
0.057702239
0.05805738
0.058398491
0.058725186
0.059037092
0.059333851
0.05961512
0.059880571
0.060129892
0.060362787
0.060578975
0.060778191
0.060960188
0.061124732
0.06127161
0.061400623
0.061511589
0.061604345
0.061678747
0.061734682
0.061772057
0.061790585
0.043962379
0.044511337
0.045060664
0.045609787
0.046158192
0.046705346
0.047250708
0.04779373
0.048333858
0.048870535
0.049403203
0.049931302
0.050454273
0.050971558
0.051482604
0.051986859
0.052483776
0.052972816
0.053453442
0.053925129
0.054387358
0.05483962
0.055281413
0.05571225
0.056131651
0.056539151
0.056934293
0.057316636
0.057685751
0.058041223
0.05838265
0.058709644
0.059021833
0.059318858
0.059600375
0.059866057
0.060115592
0.060348684
0.06056505
0.060764428
0.060946568
0.061111239
0.061258226
0.061387331
0.061498373
0.061591188
0.061665634
0.061721599
0.061758994
0.061777523
0.043935282
0.044484668
0.04503443
0.045583995
0.046132848
0.046680456
0.047226278
0.047769764
0.048310358
0.048847502
0.049380638
0.049909205
0.050432642
0.050950392
0.051461898
0.051966609
0.052463977
0.05295346
0.053434524
0.05390664
0.054369288
0.054821959
0.055264152
0.055695377
0.056115154
0.056523017
0.056918509
0.057301189
0.057670627
0.058026407
0.058368127
0.058695399
0.05900785
0.059305121
0.059586869
0.059852766
0.0601025
0.060335773
0.060552306
0.060751833
0.060934106
0.061098894
0.061245982
0.061375172
0.061486283
0.061579152
0.061653637
0.061709628
0.061747042
0.06176557
0.043910362
0.044460144
0.045010308
0.04556028
0.046109547
0.046657575
0.047203821
0.047747735
0.048288759
0.048826337
0.049359906
0.049888906
0.050412775
0.050930954
0.051442886
0.051948019
0.052445804
0.052935699
0.053417168
0.053889681
0.054352719
0.05480577
0.055248333
0.055679918
0.056100044
0.056508243
0.056904061
0.057287053
0.05765679
0.058012856
0.058354848
0.058682378
0.058995072
0.059292572
0.059574534
0.05984063
0.060090548
0.06032399
0.060540676
0.060740341
0.060922737
0.061087633
0.061234814
0.061364082
0.061475257
0.061568176
0.061642696
0.061698711
0.06173614
0.061754668
0.043887499
0.044437646
0.044988181
0.045538528
0.046088175
0.04663659
0.047183227
0.047727535
0.048268958
0.048806935
0.049340904
0.049870303
0.05039457
0.050913146
0.051425472
0.051930995
0.052429166
0.052919442
0.053401285
0.053874166
0.054337564
0.054790967
0.055233873
0.055665791
0.05608624
0.056494752
0.056890871
0.057274153
0.057644167
0.058000498
0.058342742
0.058670511
0.05898343
0.059281143
0.059563303
0.059829583
0.060079671
0.06031327
0.060530098
0.060729891
0.060912401
0.061077397
0.061224663
0.061354003
0.061465237
0.0615582
0.061632752
0.061688787
0.061726231
0.061744755
0.043866578
0.044417061
0.044967936
0.045518627
0.046068624
0.046617393
0.04716439
0.047709062
0.048250851
0.048789195
0.049323532
0.049853299
0.050377934
0.050896875
0.051409564
0.051915448
0.052413975
0.052904602
0.053386791
0.053860012
0.054323743
0.054777471
0.055220695
0.055652921
0.056073669
0.05648247
0.056878867
0.057262416
0.057632687
0.057989263
0.05833174
0.05865973
0.058972859
0.059270767
0.059553112
0.059819562
0.060069808
0.060303551
0.06052051
0.060720422
0.060903037
0.061068125
0.06121547
0.061344877
0.061456163
0.061549167
0.061623748
0.0616798
0.061717257
0.061735777
0.043847488
0.044398279
0.044949466
0.045500471
0.046050787
0.046599882
0.047147209
0.047692215
0.04823434
0.048773022
0.049307697
0.049837802
0.050362774
0.050882051
0.051395075
0.05190129
0.052400145
0.052891096
0.053373604
0.053847138
0.054311176
0.054765205
0.055208721
0.055641232
0.056062256
0.056471323
0.056867978
0.057251775
0.057622283
0.057979085
0.058321778
0.058649973
0.058963294
0.059261384
0.059543898
0.059810506
0.060060897
0.060294774
0.060511855
0.060711876
0.060894588
0.06105976
0.061207179
0.061336646
0.061447981
0.061541022
0.061615628
0.061671695
0.061709164
0.061727679
0.043830123
0.044381195
0.044932666
0.045483958
0.046034565
0.046583957
0.047131586
0.047676898
0.048219331
0.048758322
0.049293308
0.049823723
0.050349004
0.050868589
0.051381919
0.051888438
0.052387595
0.052878844