/*--------------------------------*- C++ -*----------------------------------*\
| =========                 |                                                 |
| \\      /  F ield         | OpenFOAM: The Open Source CFD Toolbox           |
|  \\    /   O peration     | Version:  2312                                  |
|   \\  /    A nd           | Website:  www.openfoam.com                      |
|    \\/     M anipulation  |                                                 |
\*---------------------------------------------------------------------------*/
FoamFile
{
    version     2.0;
    format      ascii;
    arch        "LSB;label=32;scalar=64";
    class       volScalarField;
    location    "0.09";
    object      f_Bilger;
}
// * * * * * * * * * * * * * * * * * * * * * * * * * * * * * * * * * * * * * //

dimensions      [0 0 0 0 0 0 0];

internalField   nonuniform List<scalar> 
3257
(
0.015822519
0.015438607
0.015062905
0.014695286
0.014335737
0.013984255
0.013640837
0.013305475
0.012978155
0.012658863
0.01234758
0.012044283
0.01174895
0.011461555
0.011182071
0.01091047
0.010646723
0.0103908
0.010142672
0.0099023088
0.0096696803
0.0094447575
0.0092275116
0.0090179147
0.0088159397
0.0086215607
0.0084347528
0.0082554926
0.0080837582
0.0079195291
0.0077627865
0.0076135134
0.0074716947
0.007337317
0.0072103691
0.0070908418
0.0069787279
0.0068740227
0.0067767236
0.0066868303
0.0066043451
0.0065292729
0.0064616212
0.0064014
0.0063486224
0.0063033046
0.0062654658
0.0062351287
0.0062123203
0.0061970721
0.0061894227
0.015854405
0.015469296
0.015092409
0.014723635
0.014362967
0.014010406
0.01366595
0.013329589
0.013001312
0.0126811
0.012368934
0.012064792
0.011768649
0.011480478
0.011200251
0.010927939
0.010663513
0.01040694
0.010158192
0.0099172361
0.0096840426
0.0094585811
0.0092408221
0.0090307368
0.0088282972
0.0086334768
0.0084462499
0.0082665925
0.008094482
0.0079298972
0.0077728189
0.0076232295
0.0074811133
0.0073464564
0.0072192472
0.0070994761
0.0069871354
0.0068822202
0.0067847273
0.0066946563
0.0066120092
0.0065367905
0.0064690074
0.0064086698
0.0063557905
0.0063103851
0.0062724723
0.0062420733
0.0062192116
0.0062039094
0.0061961793
0.015914362
0.015526893
0.015147734
0.014776772
0.014413997
0.014059409
0.013713004
0.01337477
0.013044693
0.012722754
0.012408932
0.012103201
0.011805536
0.011515906
0.011234283
0.010960635
0.01069493
0.010437136
0.01018722
0.0099451489
0.0097108914
0.0094844153
0.0092656894
0.0090546834
0.008851368
0.0086557151
0.0084676979
0.0082872911
0.0081144707
0.0079492147
0.0077915026
0.0076413157
0.0074986375
0.0073634533
0.0072357504
0.0071155185
0.0070027493
0.006897437
0.0067995779
0.006709171
0.0066262177
0.006550722
0.0064826908
0.0064221334
0.0063690624
0.006323493
0.0062854437
0.0062549359
0.0062319935
0.0062166396
0.00620888
0.015998988
0.015608184
0.01522582
0.014851772
0.014486029
0.014128586
0.013779436
0.013438565
0.013105956
0.012781586
0.012465431
0.012157464
0.011857654
0.01156597
0.011282379
0.011006847
0.01073934
0.010479822
0.010228259
0.0099846148
0.0097488557
0.0095209473
0.0093008563
0.0090885502
0.0088839978
0.008687169
0.0084980351
0.0083165692
0.0081427456
0.0079765406
0.0078179323
0.0076669007
0.0075234278
0.0073874977
0.0072590965
0.0071382127
0.0070248372
0.0069189631
0.0068205858
0.0067297036
0.0066463171
0.0065704296
0.0065020474
0.0064411793
0.0063878374
0.0063420365
0.0063037947
0.0062731333
0.006250076
0.0062346458
0.0062268462
0.01610494
0.015709974
0.015323604
0.014945702
0.014576251
0.014215242
0.013862664
0.0135185
0.013182727
0.01285532
0.012536251
0.012225488
0.011922997
0.011628743
0.011342691
0.011064803
0.010795041
0.010533367
0.010279742
0.010034129
0.0097964897
0.0095667876
0.0093449867
0.0091310518
0.0089249493
0.0087266468
0.0085361133
0.0083533197
0.0081782382
0.0080108433
0.0078511111
0.0076990199
0.0075545501
0.0074176841
0.0072884068
0.0071667052
0.0070525689
0.0069459897
0.0068469622
0.0067554835
0.0066715534
0.0065951743
0.0065263517
0.0064650939
0.0064114121
0.006365321
0.0063268381
0.0062959844
0.0062727833
0.0062572573
0.0062494081
0.016229065
0.015829237
0.015438188
0.015055782
0.014681997
0.014316821
0.013960236
0.013612221
0.01327275
0.012941791
0.012619312
0.012305278
0.011999651
0.011702391
0.011413459
0.011132812
0.01086041
0.01059621
0.010340171
0.01009225
0.0098524084
0.0096206043
0.0093967992
0.009180955
0.0089730352
0.0087730046
0.0085808296
0.0083964786
0.0082199216
0.0080511306
0.0078900797
0.0077367452
0.0075911054
0.0074531411
0.0073228354
0.0072001739
0.0070851444
0.0069777376
0.0068779468
0.0067857679
0.0067011995
0.0066242434
0.0065549038
0.0064931886
0.0064391081
0.0063926765
0.0063539108
0.0063228315
0.0062994619
0.0062838237
0.0062759167
0.016368412
0.015963143
0.015566855
0.015179404
0.014800765
0.01443092
0.014069846
0.013717516
0.013373899
0.013038959
0.012712659
0.012394957
0.012085812
0.011785181
0.011493017
0.011209275
0.01093391
0.010666876
0.010408126
0.010157616
0.0099152999
0.0096811353
0.0094550791
0.0092370901
0.0090271285
0.0088251562
0.0086311367
0.0084450354
0.0082668198
0.0080964595
0.0079339261
0.0077791936
0.0076322383
0.007493039
0.0073615769
0.0072378356
0.0071218017
0.0070134642
0.0069128149
0.0068198484
0.0067345623
0.0066569571
0.0065870363
0.0065248065
0.0064702778
0.0064234633
0.0063843796
0.0063530468
0.0063294877
0.0063137235
0.0063057519
0.016520247
0.016109065
0.015707081
0.015314147
0.01493023
0.014555306
0.014189349
0.013832325
0.013484197
0.013144925
0.012814465
0.012492771
0.012179797
0.011875494
0.011579811
0.011292698
0.011014106
0.010743984
0.010482281
0.010228948
0.009983936
0.0097471982
0.009518688
0.0092983606
0.0090861726
0.0088820828
0.0086860514
0.008498041
0.0083180162
0.0081459437
0.0079817929
0.0078255351
0.0076771444
0.0075365973
0.0074038732
0.0072789537
0.0071618236
0.0070524703
0.006950884
0.006857058
0.0067709885
0.006692675
0.0066221198
0.0065593287
0.0065043108
0.0064570785
0.0064176479
0.0063860385
0.0063622727
0.0063463713
0.0063383294
0.016682059
0.016264589
0.015856548
0.01545778
0.015068248
0.014687922
0.014316768
0.013954748
0.013601819
0.013257934
0.012923046
0.012597101
0.012280049
0.011971835
0.011672403
0.0113817
0.011099669
0.010826256
0.010561405
0.010305064
0.010057178
0.009817697
0.0095865702
0.0093637491
0.0091491868
0.0089428384
0.0087446611
0.0085546142
0.0083726592
0.0081987601
0.0080328833
0.0078749979
0.0077250755
0.0075830902
0.0074490192
0.0073228424
0.0072045423
0.0070941049
0.0069915186
0.0068967753
0.0068098699
0.0067308004
0.0066595682
0.0065961781
0.0065406382
0.0064929602
0.0064531595
0.0064212551
0.0063972689
0.0063812211
0.0063731045
0.016851556
0.016427514
0.016013139
0.01560827
0.015212865
0.014826887
0.014450296
0.014083049
0.013725095
0.013376384
0.01303686
0.012706466
0.012385144
0.012072834
0.011769478
0.011475013
0.011189381
0.01091252
0.010644372
0.010384878
0.010133981
0.0098916253
0.0096577562
0.0094323213
0.0092152701
0.009006554
0.0088061268
0.0086139445
0.0084299655
0.008254151
0.0080864643
0.007926872
0.007775343
0.0076318494
0.0074963658
0.00736887
0.0072493429
0.0071377683
0.0070341333
0.0069384279
0.0068506457
0.0067707834
0.0066988412
0.0066348229
0.0065787357
0.0065305904
0.0064904017
0.006458188
0.0064339708
0.0064177697
0.0064095749
0.017026668
0.016595846
0.016174937
0.015763775
0.015362309
0.014970499
0.014588297
0.014215654
0.013852514
0.013498819
0.013154508
0.012819519
0.012493788
0.012177249
0.011869838
0.011571488
0.011282134
0.011001712
0.010730156
0.010467405
0.010213395
0.0099680676
0.0097313636
0.0095032266
0.0092836021
0.009072438
0.0088696843
0.0086752938
0.0084892218
0.0083114262
0.0081418677
0.0079805099
0.0078273193
0.0076822654
0.0075453206
0.0074164607
0.0072956644
0.0071829136
0.0070781937
0.0069814932
0.0068928041
0.0068121219
0.0067394456
0.0066747777
0.0066181244
0.006569496
0.0065289062
0.0064963728
0.006471917
0.0064555575
0.0064472822
0.017205538
0.0167678
0.016340225
0.01592264
0.01551499
0.015117228
0.014729299
0.014351148
0.013982713
0.01362393
0.013274733
0.012935051
0.012604817
0.012283959
0.011972406
0.011670088
0.011376932
0.011092871
0.010817834
0.010551753
0.010294563
0.010046198
0.009806597
0.009575698
0.009353443
0.0091397762
0.0089346441
0.008737996
0.0085497839
0.0083699627
0.0081984901
0.0080353271
0.0078804373
0.0077337878
0.0075953489
0.0074650939
0.0073429997
0.0072290462
0.0071232169
0.0070254989
0.0069358826
0.0068543622
0.0067809352
0.0067156032
0.0066583715
0.0066092492
0.0065682495
0.0065353896
0.00651069
0.006494169
0.0064858116
0.017386511
0.016941783
0.01650747
0.016083393
0.015669491
0.01526571
0.014871991
0.014488271
0.014114481
0.013750552
0.013396411
0.013051983
0.012717194
0.012391965
0.012076222
0.011769887
0.011472885
0.01118514
0.010906579
0.010637129
0.010376719
0.01012528
0.0098827452
0.0096490497
0.0094241312
0.0092079302
0.0090003895
0.0088014551
0.0086110757
0.008429203
0.0082557918
0.0080908003
0.0079341895
0.007785924
0.0076459717
0.0075143038
0.0073908949
0.0072757233
0.0071687706
0.0070700222
0.0069794669
0.0068970976
0.0068229107
0.0067569064
0.0066990891
0.006649467
0.0066080525
0.0065748622
0.006549916
0.0065332317
0.0065247914
0.017568127
0.01711639
0.01667532
0.016244733
0.01582456
0.015414742
0.015015214
0.014625906
0.014246744
0.013877652
0.013518551
0.01316936
0.012829998
0.012500384
0.012180434
0.011870068
0.011569204
0.011277762
0.010995663
0.010722829
0.010459186
0.010204659
0.0099591784
0.0097226743
0.0094950806
0.0092763341
0.0090663741
0.0088651431
0.0086725865
0.0084886529
0.0083132943
0.0081464658
0.0079881261
0.0078382372
0.0076967645
0.0075636771
0.0074389477
0.0073225524
0.0072144712
0.0071146877
0.0070231895
0.0069399677
0.0068650176
0.0067983383
0.006739933
0.0066898092
0.0066479785
0.0066144566
0.0065892632
0.0065724152
0.006563892
0.017749109
0.017290392
0.016842592
0.016405519
0.0159791
0.015563268
0.015157953
0.014763078
0.014378563
0.014004326
0.013640282
0.013286344
0.012942426
0.012608439
0.012284297
0.011969912
0.011665198
0.011370069
0.011084443
0.010808236
0.010541368
0.010283763
0.010035344
0.0097960387
0.0095657769
0.0093444915
0.0091321184
0.0089285965
0.0087338681
0.0085478787
0.0083705774
0.0082019165
0.0080418521
0.0078903436
0.0077473544
0.0076128511
0.0074868044
0.0073691886
0.0072599818
0.0071591662
0.0070667275
0.0069826556
0.0069069446
0.0068395923
0.0067806011
0.0067299773
0.0066877318
0.0066538797
0.0066284402
0.0066114294
0.0066028237
0.017928348
0.017462721
0.017008258
0.016564764
0.01613216
0.015710374
0.015299327
0.014898939
0.014509123
0.01412979
0.013760849
0.013402209
0.013053777
0.012715459
0.012387163
0.012068797
0.011760267
0.011461486
0.011172363
0.010892813
0.01062275
0.010362093
0.010110762
0.0098686799
0.0096357733
0.0094119711
0.0091972056
0.0089914126
0.0087945311
0.0086065035
0.0084272762
0.0082567986
0.0080950242
0.0079419102
0.0077974173
0.0076615104
0.0075341578
0.0074153322
0.0073050098
0.007203171
0.0071098003
0.0070248861
0.0069484211
0.0068804022
0.0068208305
0.0067697115
0.0067270554
0.0066928765
0.0066671934
0.0066500218
0.0066413346
0.018104895
0.017632463
0.017171438
0.016721619
0.016282924
0.015855272
0.015438581
0.015032762
0.014637723
0.014253369
0.013879605
0.013516332
0.013163452
0.012820866
0.012488477
0.012166186
0.011853896
0.011551514
0.011258946
0.0109761
0.010702887
0.010439222
0.01018502
0.0099402002
0.0097046859
0.0094784021
0.0092612778
0.0090532454
0.0088542409
0.0086642036
0.008483077
0.0083108081
0.0081473476
0.0079926504
0.007846675
0.0077093841
0.0075807441
0.0074607257
0.0073493035
0.0072464563
0.0071521669
0.0070664226
0.0069892147
0.006920539
0.0068603955
0.0068087889
0.0067657284
0.0067312279
0.0067053053
0.0066879756
0.0066792084
0.018277943
0.017798841
0.017331384
0.016875366
0.016430699
0.015997297
0.015575072
0.015163928
0.014763769
0.014374493
0.013995998
0.013628182
0.013270941
0.012924169
0.012587765
0.012261625
0.011945648
0.011639734
0.011343785
0.011057706
0.010781403
0.010514786
0.010257767
0.010010262
0.009772189
0.0095434703
0.0093240314
0.0091138016
0.0089127136
0.0087207043
0.008537714
0.0083636871
0.0081985722
0.0080423215
0.0078948914
0.0077562425
0.0076263394
0.0075051508
0.0073926496
0.0072888132
0.0071936229
0.0071070645
0.0070291281
0.0069598084
0.0068991045
0.0068470201
0.0068035635
0.0067687481
0.0067425911
0.0067251069
0.0067162616
0.018446819
0.017961206
0.017487471
0.017025402
0.016574906
0.016135892
0.015708264
0.015291923
0.014886764
0.014492683
0.01410957
0.013737318
0.013375817
0.013024959
0.012684634
0.012354735
0.012035156
0.011725792
0.011426542
0.011137305
0.010857983
0.010588483
0.010328712
0.010078583
0.0098380104
0.0096069127
0.0093852124
0.0091728356
0.0089697121
0.0087757759
0.0085909646
0.0084152203
0.0082484889
0.0080907204
0.0079418691
0.0078018936
0.0076707566
0.0075484249
0.00743487
0.0073300675
0.0072339974
0.0071466441
0.0070679967
0.0069980485
0.0069367977
0.0068842471
0.0068404043
0.0068052818
0.0067788965
0.006761262
0.0067523408
0.018610967
0.018119025
0.017639185
0.017171233
0.016715069
0.016270598
0.015837717
0.015416321
0.015006301
0.014607546
0.014219942
0.013843375
0.013477732
0.013122897
0.012778758
0.012445203
0.012122119
0.0118094
0.011506937
0.011214627
0.010932369
0.010660063
0.010397614
0.010144932
0.0099019262
0.0096685133
0.0094446122
0.0092301459
0.0090250414
0.0088292299
0.0086426465
0.0084652307
0.0082969261
0.0081376805
0.0079874463
0.0078461799
0.0077138423
0.0075903985
0.0074758185
0.0073700762
0.0072731504
0.0071850242
0.0071056853
0.0070351261
0.0069733438
0.0069203403
0.0068761224
0.0068407019
0.0068140951
0.006796315
0.0067873202
0.018769941
0.018271866
0.017786112
0.01731246
0.016850804
0.016401045
0.015963074
0.01553678
0.01512205
0.014718765
0.014326808
0.01394606
0.013576401
0.013217713
0.012869877
0.012532777
0.012206297
0.011890324
0.011584747
0.011289457
0.011004351
0.010729325
0.01046428
0.010209121
0.0099637565
0.0097280986
0.0095020632
0.0092855707
0.0090785451
0.0088809149
0.008692613
0.0085135762
0.0083437461
0.0081830683
0.0080314931
0.0078889751
0.0077554734
0.0076309516
0.0075153778
0.0074087247
0.0073109696
0.0072220944
0.0071420856
0.0070709347
0.0070086378
0.0069551958
0.0069106149
0.0068749062
0.0068480854
0.0068301648
0.0068210992
0.018923391
0.018419393
0.017927926
0.017448769
0.016981811
0.016526944
0.016084057
0.015653033
0.015233752
0.014826093
0.014429931
0.014045143
0.013671605
0.013309194
0.012957786
0.01261726
0.012287498
0.011968381
0.011659794
0.011361626
0.011073767
0.010796112
0.010528557
0.010271005
0.010023361
0.0097855329
0.0095574347
0.0093389835
0.0091301009
0.0089307129
0.0087407498
0.0085601463
0.0083888417
0.0082267796
0.0080739084
0.0079301807
0.0077955542
0.0076699906
0.0075534567
0.0074459237
0.0073473676
0.0072577691
0.0071771136
0.0071053915
0.0070425979
0.0069887329
0.006943802
0.0069078155
0.0068807886
0.0068627331
0.0068535993
0.019071051
0.018561349
0.018064383
0.017579925
0.017107861
0.016648077
0.016200457
0.015764877
0.015341215
0.014929341
0.01452913
0.014140451
0.013763177
0.013397179
0.01304233
0.012698505
0.01236558
0.012043434
0.011731948
0.011431006
0.011140495
0.010860306
0.010590334
0.010330476
0.010080634
0.0098407147
0.0096106284
0.0093902897
0.0091796176
0.0089785355
0.0087869715
0.0086048582
0.0084321327
0.0082687366
0.0081146166
0.0079697235
0.0078340132
0.0077074461
0.0075899873
0.0074816069
0.0073822795
0.0072919846
0.0072107065
0.0071384347
0.0070751633
0.0070208916
0.0069756241
0.0069393708
0.0069121462
0.0068939613
0.0068847624
0.019212733
0.018697553
0.018195306
0.01770576
0.017228793
0.016764289
0.016312123
0.01587217
0.015444299
0.015028379
0.014624277
0.014231861
0.013850998
0.013481555
0.0131234
0.012776406
0.012440443
0.012115386
0.011801114
0.011497507
0.011204448
0.010921825
0.010649528
0.010387454
0.010135501
0.0098935722
0.0096615754
0.0094394227
0.0092270308
0.0090243207
0.0088312182
0.0086476539
0.0084735629
0.0083088851
0.008153565
0.0080075522
0.0078708006
0.0077432695
0.0076249224
0.0075157281
0.0074156599
0.0073246964
0.0072428208
0.0071700215
0.0071062917
0.0070516299
0.00700604
0.0069695311
0.0069421173
0.006923809
0.0069145479
0.019348313
0.018827886
0.018320583
0.017826164
0.017344504
0.016875479
0.01641896
0.015974817
0.015542916
0.015123119
0.014715291
0.014319295
0.013934992
0.013562248
0.013200927
0.012850894
0.01251202
0.012184175
0.011867233
0.011561071
0.01126557
0.010980614
0.010706091
0.010441892
0.010187915
0.0099440603
0.0097102322
0.0094863407
0.0092723002
0.0090680295
0.0088734524
0.0086884973
0.0085130975
0.0083471911
0.0081907209
0.0080436349
0.0079058856
0.0077774307
0.0076582326
0.0075482586
0.0074474811
0.0073558774
0.0072734297
0.0072001255
0.0071359571
0.0070809224
0.0070350242
0.0069982712
0.0069706769
0.0069522513
0.006942931
0.019477724
0.018952283
0.018440152
0.017941081
0.017454939
0.016981596
0.016520919
0.016072773
0.01563702
0.015213518
0.014802129
0.01440271
0.014015121
0.013639222
0.013274873
0.012921937
0.01258028
0.012249769
0.011930275
0.011621671
0.011323835
0.011036648
0.010759995
0.010493766
0.010237854
0.0099921567
0.0097565775
0.0095310233
0.0093154063
0.0091096434
0.0089136561
0.0087273711
0.0085507198
0.0083836387
0.0082260689
0.0080779569
0.0079392539
0.007809916
0.0076899045
0.0075791855
0.0074777302
0.0073855149
0.007302521
0.0072287347
0.0071641479
0.0071087573
0.0070625653
0.0070255799
0.0069978139
0.0069792767
0.0069699005
0.019600948
0.019070727
0.018554
0.018050501
0.017560089
0.017082631
0.016617991
0.016166028
0.015726602
0.015299568
0.014884783
0.014482101
0.014091378
0.013712469
0.013345233
0.012989528
0.012645217
0.012312163
0.011990234
0.011679301
0.011379238
0.011089923
0.010811239
0.010543072
0.010285314
0.010037859
0.0098006092
0.0095734687
0.0093563477
0.009149161
0.0089518283
0.0087642745
0.0085864293
0.0084182275
0.0082596089
0.0081105182
0.0079709055
0.0078407255
0.0077199384
0.0076085091
0.0075064077
0.0074136096
0.0073300951
0.0072558498
0.0071908645
0.0071351354
0.0070886639
0.0070514575
0.0070235287
0.0070048861
0.0069954569
0.019718004
0.019183237
0.018662154
0.018154451
0.017659982
0.017178612
0.016710201
0.016254607
0.015811687
0.015381292
0.014963275
0.014557488
0.014163782
0.01378201
0.013412026
0.013053686
0.012706849
0.012371375
0.012047129
0.011733978
0.011431795
0.011140455
0.010859837
0.010589826
0.01033031
0.010081183
0.0098423421
0.0096136913
0.0093951384
0.0091865962
0.0089879826
0.0087992209
0.0086202391
0.0084509705
0.0082913533
0.0081413312
0.0080008526
0.0078698714
0.0077483462
0.0076362411
0.0075335253
0.0074401729
0.0073561636
0.007281482
0.0072161182
0.0071600675
0.0071133309
0.0070759151
0.0070478321
0.0070290902
0.007019611
0.019828931
0.019289873
0.018764676
0.018252996
0.01775468
0.017269596
0.016797604
0.016338563
0.015892324
0.015458737
0.015037651
0.014628915
0.014232377
0.013847885
0.013475292
0.01311445
0.012765213
0.012427441
0.012100994
0.011785738
0.011481541
0.011188277
0.010905822
0.010634059
0.010372873
0.010122156
0.0098818045
0.0096517189
0.0094318055
0.0092219754
0.009022145
0.0088322356
0.0086521739
0.0084818918
0.0083213261
0.0081704192
0.0080291182
0.0078973759
0.00777515
0.0076624033
0.0075591041
0.0074652258
0.007380747
0.0073056516
0.007239929
0.0071835737
0.0071365861
0.0070989722
0.0070707437
0.0070519082
0.0070423822
0.019933717
0.019390776
0.018861671
0.018346232
0.017844271
0.017355666
0.016880281
0.016417971
0.015968586
0.015531974
0.01510798
0.014696449
0.014297226
0.013910157
0.013535091
0.013171876
0.012820366
0.012480415
0.012151882
0.01183463
0.011528524
0.011233435
0.010949239
0.010675814
0.010413045
0.010160822
0.009919037
0.0096875908
0.0094663873
0.0092553359
0.0090543515
0.0088633539
0.0086822683
0.0085110252
0.0083495602
0.0081978143
0.0080557338
0.0079232701
0.00780038
0.0076870254
0.0075831735
0.0074887971
0.0074038737
0.0073283867
0.0072623246
0.0072056813
0.0071584566
0.0071206558
0.0070922902
0.007073367
0.007063797
0.019486019
0.01895329
0.018434285
0.017928868
0.017436929
0.016958331
0.016492928
0.016040567
0.015601092
0.015174346
0.014760171
0.014358408
0.013968902
0.013591496
0.013226037
0.012872376
0.012530363
0.012199857
0.011880716
0.011572804
0.011275989
0.010990144
0.010715148
0.01045088
0.01019723
0.0099540897
0.0097213557
0.0094989311
0.0092867239
0.0090846472
0.0088926195
0.0087105648
0.0085384122
0.0083760961
0.0082235563
0.0080807382
0.007947592
0.0078240735
0.0077101439
0.0076057695
0.007510922
0.0074255786
0.0073497216
0.0072833389
0.0072264239
0.0071789756
0.0071409988
0.0071125043
0.0070934992
0.0070838881
0.019576105
0.019039722
0.018517294
0.018008599
0.017513504
0.017031869
0.016563544
0.016108372
0.015666194
0.015236849
0.014820178
0.014416017
0.014024209
0.013644594
0.013277016
0.012921323
0.012577364
0.012244994
0.011924069
0.011614451
0.011316006
0.011028605
0.010752123
0.01048644
0.010231443
0.0099870207
0.0097530701
0.0095294918
0.0093161925
0.0091130838
0.008920083
0.0087371127
0.0085641008
0.0084009806
0.008247691
0.008104176
0.0079703852
0.0078462735
0.007731801
0.0076269333
0.0075316414
0.0074459016
0.0073696957
0.0073030109
0.00724584
0.0071981812
0.0071600391
0.0071314239
0.0071123422
0.0071026928
0.019660853
0.019121057
0.018595393
0.018083597
0.017585524
0.017101024
0.016629943
0.01617212
0.015727394
0.015295601
0.014876576
0.014470156
0.014076178
0.01369448
0.013324906
0.012967298
0.012621504
0.012287377
0.01196477
0.011653544
0.011353562
0.011064693
0.01078681
0.010519793
0.010263525
0.010017895
0.0097827966
0.0095581303
0.0093438009
0.009139719
0.0089458003
0.0087619664
0.0085881441
0.0084242656
0.0082702689
0.0081260969
0.0079916984
0.0078670273
0.0077520431
0.0076467106
0.007551
0.007464887
0.0073883528
0.0073213837
0.0072639722
0.0072161158
0.0071778186
0.0071490904
0.0071299376
0.0071202527
0.019740402
0.019197431
0.018668725
0.018154009
0.017653131
0.017165934
0.016692259
0.016231942
0.015784819
0.015350721
0.014929482
0.014520936
0.014124916
0.01374126
0.013369806
0.013010397
0.012662877
0.012327096
0.012002907
0.011690167
0.011388738
0.011098488
0.010819287
0.010551014
0.010293549
0.010046781
0.0098106028
0.009584912
0.0093696128
0.0091646144
0.0089698315
0.0087851845
0.0086105992
0.0084460068
0.0082913443
0.0081465539
0.0080115834
0.0078863859
0.0077709203
0.0076651505
0.0075690462
0.0074825823
0.0074057394
0.0073385035
0.0072808661
0.0072328245
0.0071943821
0.0071655485
0.0071463297
0.0071366119
0.019814942
0.019269006
0.018737447
0.01821999
0.017716475
0.017226744
0.016750633
0.016287974
0.015838598
0.015402336
0.014979019
0.014568475
0.014170539
0.013785043
0.013411824
0.013050723
0.012701582
0.012364247
0.012038571
0.011724409
0.011421621
0.011130073
0.010849634
0.010580179
0.010321591
0.010073753
0.0098365596
0.0096099059
0.0093936951
0.0091878352
0.00899224
0.0088068286
0.0086315261
0.0084662627
0.0083109745
0.0081656029
0.0080300948
0.0079044028
0.0077884849
0.0076823045
0.0075858305
0.0074990373
0.0074219049
0.0073544188
0.0072965698
0.0072483549
0.0072097769
0.0071808451
0.0071615653
0.0071518172
0.019884665
0.019335957
0.018801727
0.0182817
0.017775715
0.017283608
0.016805211
0.016340356
0.015888869
0.015450579
0.015025312
0.014612897
0.014213163
0.013825943
0.01345107
0.013088382
0.01273772
0.01239893
0.012071859
0.011756364
0.011452301
0.011159534
0.010877933
0.010607371
0.010347728
0.010098887
0.0098607407
0.0096331834
0.0094161171
0.0092094488
0.0090130912
0.0088269626
0.008650987
0.0084850939
0.0083292186
0.0081833016
0.0080472892
0.0079211334
0.0078047913
0.0076982258
0.0076014052
0.0075143035
0.0074369
0.0073691796
0.0073111329
0.0072627562
0.0072240517
0.0071950286
0.0071756927
0.0071659167
0.019949765
0.019398467
0.01886174
0.018339309
0.017831011
0.01733668
0.016856145
0.016389235
0.015935773
0.015495584
0.015068493
0.014654327
0.014252911
0.013864077
0.013487656
0.013123483
0.012771398
0.012431244
0.012102869
0.011786124
0.011480868
0.011186961
0.010904272
0.010632672
0.010372041
0.010122261
0.0098832213
0.0096548175
0.0094369497
0.0092295239
0.009032452
0.0088456514
0.0086690453
0.0085025623
0.0083461368
0.008199709
0.0080632243
0.007936634
0.0078198947
0.0077129688
0.0076158239
0.0075284336
0.0074507766
0.0073828373
0.007324606
0.0072760783
0.0072372563
0.0072081486
0.0071887611
0.0071789595
0.020010438
0.019456721
0.018917661
0.018392985
0.017882527
0.017386119
0.016903588
0.016434757
0.01597945
0.015537488
0.015108694
0.014692892
0.014289906
0.013899564
0.013521696
0.013156136
0.012802722
0.012461294
0.012131699
0.011813787
0.011507415
0.011212442
0.010928736
0.010656166
0.010394611
0.010143952
0.0099040776
0.009674882
0.0094562645
0.0092481303
0.0090503903
0.008862961
0.008685765
0.0085187302
0.0083617903
0.0082148847
0.0080779583
0.0079509618
0.0078338512
0.0077265883
0.0076291405
0.0075414805
0.0074635869
0.0073954435
0.0073370401
0.007288372
0.0072494408
0.0072202548
0.0072008201
0.0071909952
0.020066879
0.019510906
0.018969671
0.018442902
0.01793043
0.017432085
0.016947692
0.016477072
0.016020045
0.01557643
0.015146048
0.01472872
0.01432427
0.013932522
0.013553306
0.013186452
0.012831798
0.012489182
0.012158449
0.011839449
0.011532035
0.011236068
0.010951412
0.010677937
0.010415519
0.010164039
0.0099233858
0.0096934509
0.0094741334
0.0092653376
0.0090669736
0.0088789573
0.0087012105
0.0085336603
0.00837624
0.0082288883
0.0080915495
0.0079641737
0.0078467166
0.0077391394
0.0076414089
0.0075534976
0.0074753834
0.0074070499
0.0073484864
0.0072996879
0.0072606554
0.0072313973
0.0072119196
0.0072020734
0.020119281
0.019561207
0.019017948
0.01848923
0.017974884
0.017474738
0.016988613
0.016516327
0.016057699
0.015612546
0.015180687
0.01476194
0.014356127
0.013963071
0.013582599
0.013214542
0.012858733
0.012515011
0.012183219
0.011863205
0.011554821
0.011257927
0.010972386
0.010698067
0.010434846
0.010182602
0.0099412217
0.0097105977
0.0094906276
0.009281215
0.0090822693
0.0088937058
0.0087154454
0.0085474148
0.0083895467
0.0082417791
0.0081040559
0.0079763267
0.0078585466
0.0077506765
0.0076526828
0.0075645374
0.007486218
0.0074177079
0.0073589957
0.0073100762
0.0072709502
0.0072416256
0.0072221088
0.0072122435
0.020167836
0.019607808
0.019062668
0.01853214
0.018016054
0.017514235
0.017026501
0.016552669
0.016092555
0.015645974
0.015212742
0.014792677
0.014385598
0.013991328
0.01360969
0.013240514
0.012883633
0.012538883
0.012206106
0.011885149
0.011575864
0.011278108
0.010991745
0.010716641
0.010452672
0.010199716
0.0099576603
0.0097263951
0.0095058177
0.0092958311
0.0090963441
0.0089072712
0.0087285328
0.0085600551
0.0084017701
0.0082536155
0.0081155346
0.0079874765
0.007869396
0.0077612535
0.0076630151
0.0075746522
0.0074961422
0.007427468
0.007368618
0.0073195866
0.0072803742
0.0072509887
0.0072314366
0.007221554
0.020212733
0.01965089
0.019104005
0.018571799
0.018054101
0.017550731
0.017061507
0.016586242
0.016124751
0.015676846
0.015242343
0.014821057
0.014412805
0.014017408
0.01363469
0.013264477
0.012906601
0.012560897
0.012227207
0.011905376
0.011595254
0.011296698
0.011009571
0.010733739
0.010469075
0.010215459
0.0099727754
0.0097409145
0.009519773
0.0093092532
0.0091092631
0.008919717
0.0087405345
0.0085716414
0.0084129691
0.0082644549
0.0081260417
0.0079976782
0.0078793187
0.0077709233
0.0076724576
0.007583893
0.0075052062
0.0074363801
0.0073774026
0.0073282678
0.0072889758
0.0072595345
0.0072399508
0.0072300526
0.020254155
0.019690631
0.019142131
0.018608373
0.018089183
0.017584381
0.017093779
0.016617189
0.016154424
0.015705296
0.015269616
0.0148472
0.014437864
0.014041425
0.013657707
0.013286535
0.012927738
0.012581153
0.012246617
0.011923975
0.011613079
0.011313783
0.011025947
0.01074944
0.010484133
0.010229905
0.0099866388
0.0097542257
0.0095325611
0.0093215468
0.0091210904
0.0089311053
0.008751511
0.0085822326
0.0084232011
0.0082743534
0.0081356321
0.0080069854
0.0078883672
0.0077797374
0.0076810612
0.0075923096
0.0075134593
0.0074444926
0.0073853973
0.0073361672
0.0072968022
0.0072673099
0.0072476979
0.0072377859
0.020292283
0.019727204
0.019177211
0.018642021
0.018121457
0.017615332
0.017123459
0.016645648
0.016181708
0.01573145
0.015294686
0.014871228
0.01446089
0.01406349
0.013678849
0.013306791
0.012947145
0.012599744
0.012264427
0.011941037
0.011629425
0.011329443
0.011040954
0.010763822
0.01049792
0.010243125
0.0099993208
0.0097663967
0.009544248
0.0093327761
0.0091318879
0.0089414965
0.0087615209
0.0085918859
0.008432522
0.0082833656
0.008144359
0.0080154502
0.0078965927
0.007787746
0.007688875
0.0075999507
0.0075209492
0.0074518527
0.0073926489
0.0073433311
0.0073038991
0.0072743604
0.0072547233
0.0072447991
0.020327291
0.019760775
0.019209408
0.018672901
0.018151072
0.017643732
0.017150689
0.016671753
0.016206732
0.015755435
0.015317672
0.014893254
0.014481995
0.014083711
0.01369822
0.013325346
0.012964917
0.012616765
0.012280727
0.011956648
0.011644375
0.011343762
0.011054668
0.01077696
0.010510509
0.010255191
0.010010889
0.0097774933
0.0095548976
0.0093430029
0.0091417159
0.0089509492
0.0087706214
0.0086006569
0.0084409858
0.0082915443
0.0081522742
0.0080231232
0.0079040446
0.0077949976
0.0076959469
0.0076068631
0.0075277223
0.0074585062
0.0073992025
0.0073498042
0.0073103109
0.0072807301
0.0072610709
0.0072511361
0.020359347
0.019791508
0.019238878
0.018701163
0.018178174
0.01766972
0.017175605
0.016695636
0.016229622
0.01577737
0.01533869
0.014913392
0.014501287
0.01410219
0.013715919
0.013342295
0.012981147
0.012632304
0.012295605
0.01197089
0.011658009
0.011356815
0.011067166
0.010788927
0.010521969
0.01026617
0.01002141
0.0097875792
0.0095645715
0.0093522871
0.0091506325
0.0089595199
0.0087788674
0.008608599
0.0084486448
0.0082989403
0.0081594273
0.008030053
0.0079107707
0.0078015391
0.0077023228
0.0076130922
0.007533823
0.0074644971
0.0074051016
0.0073556296
0.0073160804
0.0072864616
0.007266783
0.0072568389
0.020388614
0.019819558
0.019265774
0.018726955
0.018202907
0.017693433
0.017198336
0.016717423
0.016250499
0.015797374
0.015357854
0.01493175
0.01451887