/*--------------------------------*- C++ -*----------------------------------*\
| =========                 |                                                 |
| \\      /  F ield         | OpenFOAM: The Open Source CFD Toolbox           |
|  \\    /   O peration     | Version:  2312                                  |
|   \\  /    A nd           | Website:  www.openfoam.com                      |
|    \\/     M anipulation  |                                                 |
\*---------------------------------------------------------------------------*/
FoamFile
{
    version     2.0;
    format      ascii;
    arch        "LSB;label=32;scalar=64";
    class       volScalarField;
    location    "0.09";
    object      H2O;
}
// * * * * * * * * * * * * * * * * * * * * * * * * * * * * * * * * * * * * * //

dimensions      [0 0 0 0 0 0 0];

internalField   nonuniform List<scalar> 
3257
(
0.0060605958
0.0059451707
0.0058313607
0.0057191736
0.0056086471
0.0054998223
0.0053927397
0.005287439
0.0051839586
0.0050823356
0.0049826062
0.0048848055
0.0047889674
0.0046951248
0.00460331
0.0045135539
0.0044258872
0.0043403391
0.0042569387
0.004175714
0.0040966923
0.0040199005
0.0039453646
0.0038731102
0.0038031623
0.0037355452
0.0036702827
0.0036073982
0.0035469144
0.0034888537
0.0034332377
0.0033800877
0.0033294246
0.0032812687
0.0032356398
0.0031925574
0.0031520403
0.0031141071
0.0030787759
0.0030460644
0.0030159898
0.002988569
0.0029638186
0.0029417548
0.0029223934
0.0029057502
0.0028918406
0.0028806801
0.0028722841
0.0028666688
0.0028638511
0.0060719803
0.0059561957
0.0058420279
0.0057294898
0.0056186212
0.0055094642
0.0054020597
0.0052964474
0.0051926657
0.0050907517
0.0049907414
0.0048926695
0.0047965699
0.0047024753
0.0046104177
0.004520428
0.0044325364
0.0043467722
0.0042631641
0.0041817399
0.004102527
0.0040255517
0.0039508402
0.0038784177
0.0038083091
0.0037405385
0.0036751297
0.0036121058
0.0035514894
0.0034933027
0.0034375673
0.0033843044
0.0033335347
0.0032852784
0.0032395551
0.0031963844
0.0031557849
0.0031177751
0.0030823731
0.0030495965
0.0030194624
0.0029919876
0.0029671888
0.0029450819
0.0029256828
0.0029090071
0.0028950701
0.0028838865
0.0028754707
0.0028698354
0.0028669878
0.0060934085
0.0059769174
0.0058620649
0.0057488625
0.0056373495
0.005527568
0.0054195588
0.0053133614
0.0052090139
0.0051065531
0.0050060146
0.0049074329
0.0048108415
0.0047162728
0.0046237582
0.0045333284
0.0044450133
0.0043588417
0.004274842
0.0041930417
0.0041134677
0.0040361463
0.0039611031
0.003888363
0.0038179508
0.0037498901
0.0036842045
0.0036209169
0.0035600496
0.0035016246
0.0034456632
0.0033921864
0.0033412147
0.003292768
0.003246866
0.0032035278
0.0031627721
0.0031246172
0.0030890809
0.0030561808
0.0030259338
0.0029983568
0.0029734661
0.0029512778
0.0029318075
0.0029150708
0.0029010829
0.0028898587
0.0028814128
0.0028757582
0.0028728997
0.0061236613
0.0060061738
0.0058903558
0.0057762174
0.0056637974
0.0055531373
0.0054442776
0.0053372572
0.0052321139
0.0051288838
0.0050276022
0.004928303
0.0048310192
0.0047357827
0.0046426245
0.0045515747
0.0044626626
0.0043759167
0.0042913648
0.0042090339
0.0041289506
0.0040511406
0.0039756291
0.0039024408
0.0038315997
0.0037631293
0.0036970527
0.0036333925
0.0035721706
0.0035134086
0.0034571277
0.0034033484
0.003352091
0.0033033752
0.0032572204
0.0032136454
0.0031726686
0.0031343083
0.0030985821
0.0030655072
0.0030351006
0.0030073788
0.0029823582
0.0029600547
0.0029404838
0.002923661
0.0029096014
0.00289832
0.0028898313
0.0028841482
0.0028812747
0.00616155
0.0060428198
0.0059257969
0.0058104904
0.0056969385
0.0055851822
0.005475261
0.0053672135
0.0052610767
0.0051568862
0.0050546766
0.0049544813
0.0048563324
0.0047602615
0.0046662987
0.0045744737
0.004484815
0.0043973507
0.0043121079
0.0042291132
0.0041483923
0.0040699707
0.0039938728
0.003920123
0.0038487446
0.0037797609
0.0037131944
0.0036490671
0.0035874007
0.0035282163
0.0034715347
0.0034173761
0.0033657604
0.0033167071
0.003270235
0.0032263628
0.0031851088
0.0031464908
0.0031105261
0.003077232
0.0030466251
0.0030187218
0.0029935382
0.0029710902
0.0029513932
0.0029344625
0.0029203131
0.00290896
0.0029004177
0.0028946989
0.002891807
0.006205952
0.0060857719
0.0059673427
0.0058506726
0.0057357992
0.0056227625
0.0055116016
0.0054023543
0.0052950567
0.0051897439
0.0050864496
0.0049852065
0.0048860462
0.0047889992
0.0046940953
0.0046013632
0.0045108309
0.0044225256
0.004336474
0.0042527017
0.0041712342
0.004092096
0.0040153111
0.0039409032
0.0038688952
0.0037993097
0.0037321686
0.0036674937
0.0036053059
0.0035456261
0.0034884745
0.0034338709
0.0033818349
0.0033323853
0.003285541
0.0032413202
0.0031997407
0.0031608202
0.0031245757
0.0030910242
0.0030601822
0.0030320658
0.003006691
0.0029840734
0.0029642284
0.0029471711
0.0029329165
0.0029214794
0.0029128742
0.0029071136
0.0029042001
0.0062558168
0.0061340155
0.0060140131
0.0058958173
0.0057794648
0.005664995
0.0055524463
0.0054418554
0.0053332578
0.0052266878
0.0051221783
0.0050197611
0.0049194671
0.0048213261
0.0047253668
0.0046316175
0.0045401052
0.0044508565
0.0043638972
0.0042792525
0.0041969468
0.0041170041
0.0040394478
0.0039643009
0.0038915857
0.0038213241
0.0037535377
0.0036882474
0.0036254738
0.0035652372
0.0035075573
0.0034524535
0.0033999448
0.0033500499
0.0033027871
0.0032581742
0.0032162288
0.0031769681
0.003140409
0.0031065681
0.0030754617
0.0030471057
0.0030215159
0.0029987076
0.0029786961
0.0029614965
0.0029471236
0.0029355921
0.0029269163
0.0029211087
0.0029181712
0.0063101703
0.0061866088
0.0060648979
0.0059450446
0.0058270851
0.005711058
0.0055970007
0.0054849492
0.0053749382
0.0052670009
0.0051611696
0.0050574752
0.0049559477
0.0048566159
0.0047595081
0.0046646513
0.004572072
0.0044817959
0.004393848
0.0043082528
0.0042250339
0.0041442146
0.0040658176
0.0039898652
0.0039163791
0.0038453805
0.0037768903
0.0037109289
0.0036475164
0.0035866724
0.0035284163
0.0034727668
0.0034197426
0.0033693618
0.0033216423
0.0032766016
0.0032342569
0.003194625
0.0031577226
0.003123566
0.0030921711
0.0030635536
0.0030377291
0.0030147128
0.0029945198
0.0029771649
0.0029626629
0.0029510284
0.0029422756
0.0029364168
0.0029334532
0.0063681168
0.0062426855
0.0061191591
0.0059975443
0.0058778766
0.0057601938
0.0056445323
0.0055309275
0.0054194129
0.0053100211
0.0052027833
0.0050977296
0.004994889
0.0048942897
0.0047959588
0.0046999227
0.004606207
0.0045148365
0.0044258354
0.0043392273
0.0042550352
0.0041732817
0.0040939886
0.0040171774
0.0039428693
0.0038710847
0.003801844
0.003735167
0.003671073
0.0036095812
0.0035507103
0.0034944786
0.0034409043
0.0033900051
0.0033417983
0.0032963011
0.0032535304
0.0032135025
0.0031762337
0.0031417401
0.0031100374
0.0030811409
0.003055066
0.0030318278
0.0030114411
0.0029939206
0.0029792809
0.0029675365
0.0029587015
0.0029527882
0.0029497968
0.0064288395
0.0063014551
0.0061760319
0.0060525765
0.0059311235
0.0058117099
0.0056943714
0.0055791422
0.0054660553
0.005355142
0.0052464328
0.0051399569
0.0050357424
0.0049338164
0.0048342054
0.0047369346
0.004642029
0.0045495124
0.0044594083
0.0043717393
0.0042865278
0.0042037954
0.0041235633
0.0040458523
0.0039706827
0.0038980744
0.003828047
0.0037606196
0.0036958112
0.0036336402
0.0035741247
0.0035172826
0.0034631315
0.0034116886
0.0033629708
0.003316995
0.0032737773
0.0032333341
0.0031956812
0.0031608342
0.0031288086
0.0030996196
0.0030732822
0.0030498112
0.0030292214
0.0030115273
0.0029967432
0.0029848837
0.0029759627
0.0029699922
0.0029669718
0.0064915995
0.0063622023
0.006234824
0.0061094709
0.0059861771
0.0058649787
0.0057459105
0.0056290058
0.0055142965
0.0054018134
0.0052915857
0.0051836419
0.005078009
0.0049747135
0.0048737806
0.0047752349
0.0046791003
0.0045853999
0.0044941563
0.0044053913
0.0043191263
0.0042353824
0.0041541798
0.0040755387
0.0039994786
0.0039260188
0.003855178
0.003786975
0.0037214278
0.0036585544
0.0035983723
0.003540899
0.0034861513
0.0034341462
0.0033849
0.003338429
0.0032947492
0.0032538764
0.0032158261
0.0031806137
0.0031482543
0.0031187627
0.0030921538
0.0030684423
0.0030476424
0.0030297688
0.0030148355
0.0030028569
0.002993847
0.0029878176
0.0029847672
0.0065557332
0.0064242846
0.0062949132
0.0061676254
0.0060424545
0.0059194358
0.0057986032
0.0056799892
0.0055636249
0.0054495398
0.0053377625
0.0052283204
0.0051212397
0.0050165459
0.0049142633
0.0048144157
0.004717026
0.0046221165
0.0045297089
0.0044398241
0.004352483
0.0042677054
0.0041855112
0.0041059195
0.0040289492
0.003954619
0.0038829469
0.0038139508
0.0037476484
0.0036840569
0.0036231934
0.0035650745
0.0035097169
0.0034571369
0.0034073503
0.0033603731
0.0033162207
0.0032749087
0.0032364522
0.0032008661
0.0031681654
0.0031383645
0.0031114781
0.0030875206
0.0030665061
0.003048449
0.0030333633
0.0030212631
0.0030121624
0.0030060727
0.0030029918
0.00662065
0.0064871297
0.0063557453
0.006226503
0.0060994357
0.0059745778
0.0058519623
0.0057316208
0.0056135834
0.0054978789
0.0053845349
0.0052735778
0.005165033
0.005058925
0.0049552772
0.0048541126
0.0047554531
0.0046593201
0.0045657346
0.0044747167
0.0043862862
0.0043004625
0.0042172644
0.0041367104
0.0040588187
0.0039836071
0.0039110932
0.0038412942
0.003774227
0.0037099083
0.0036483546
0.0035895821
0.0035336068
0.0034804444
0.0034301106
0.0033826206
0.0033379897
0.0032962329
0.0032573649
0.0032214005
0.0031883541
0.0031582401
0.0031310727
0.0031068661
0.0030856344
0.0030673916
0.0030521516
0.0030399284
0.0030307358
0.0030245853
0.0030214737
0.006685828
0.0065502319
0.0064168303
0.0062856293
0.0061566612
0.0060299596
0.0059055566
0.0057834829
0.0056637679
0.0055464393
0.0054315238
0.005319047
0.0052090333
0.0051015063
0.0049964886
0.0048940023
0.0047940683
0.0046967074
0.0046019395
0.004509784
0.0044202598
0.0043333856
0.0042491795
0.0041676591
0.0040888421
0.0040127454
0.0039393859
0.0038687803
0.0038009449
0.0037358957
0.0036736487
0.0036142195
0.0035576237
0.0035038764
0.0034529928
0.0034049878
0.0033598762
0.0033176725
0.0032783913
0.0032420468
0.0032086533
0.0031782247
0.0031507752
0.0031263186
0.0031048688
0.0030864395
0.0030710447
0.0030586981
0.0030494134
0.0030432019
0.0030400594
0.0067508102
0.0066131486
0.0064777392
0.0063445886
0.0062137282
0.0060851909
0.005959008
0.0058352095
0.0057138235
0.0055948772
0.0054783964
0.0053644055
0.0052529283
0.0051439874
0.0050376046
0.0049338009
0.0048325967
0.0047340117
0.0046380651
0.0045447754
0.0044541608
0.0043662391
0.0042810278
0.0041985437
0.0041188037
0.0040418242
0.0039676215
0.0038962114
0.0038276096
0.0037618318
0.0036988932
0.003638809
0.003581594
0.0035272633
0.0034758312
0.0034273125
0.0033817213
0.003339072
0.0032993786
0.0032626551
0.0032289153
0.0031981732
0.0031704423
0.0031457365
0.0031240692
0.0031054542
0.0030899051
0.0030774356
0.0030680591
0.003061787
0.0030586139
0.0068152002
0.0066754953
0.0065380996
0.0064030197
0.0062702868
0.0061399328
0.0060119883
0.0058864823
0.0057634422
0.0056428942
0.0055248633
0.0054093732
0.0052964465
0.0051861052
0.0050783701
0.0049732615
0.0048707988
0.004771001
0.0046738863
0.0045794727
0.0044877774
0.0043988177
0.0043126099
0.0042291706
0.0041485158
0.0040706612
0.0039956224
0.0039234147
0.0038540532
0.003787553
0.0037239287
0.003663195
0.0036053663
0.003550457
0.0034984813
0.0034494532
0.0034033866
0.0033602955
0.0033201935
0.0032830943
0.0032490114
0.0032179585
0.0031899489
0.003164996
0.0031431134
0.0031243144
0.0031086125
0.0030960213
0.0030865541
0.003080222
0.0030770186
0.0068786577
0.0067369421
0.0065975914
0.0064606127
0.0063260365
0.006193894
0.0060642151
0.0059370278
0.0058123588
0.0056902335
0.0055706758
0.0054537088
0.0053393543
0.0052276333
0.0051185658
0.0050121713
0.0049084684
0.0048074752
0.0047092094
0.0046136879
0.0045209274
0.0044309442
0.0043437542
0.0042593731
0.0041778163
0.0040990988
0.0040232356
0.0039502414
0.0038801308
0.0038129181
0.0037486177
0.0036872435
0.0036288096
0.0035733298
0.0035208179
0.0034712876
0.0034247523
0.0033812255
0.0033407207
0.0033032511
0.0032688301
0.0032374708
0.0032091865
0.0031839903
0.0031618955
0.0031429152
0.0031270629
0.0031143519
0.0031047954
0.0030984044
0.0030951713
0.0069408939
0.0067972089
0.0066559432
0.0065171043
0.0063807221
0.0062468272
0.0061154485
0.0059866135
0.005860348
0.0057366765
0.0056156223
0.0054972073
0.0053814528
0.0052683789
0.0051580048
0.0050503492
0.0049454299
0.0048432643
0.0047438692
0.0046472609
0.0045534553
0.004462468
0.0043743142
0.004289009
0.004206567
0.0041270027
0.0040503305
0.0039765645
0.0039057187
0.0038378068
0.0037728428
0.00371084
0.0036518122
0.0035957725
0.0035427345
0.0034927113
0.003445716
0.0034017618
0.0033608618
0.0033230289
0.0032882761
0.0032566163
0.0032280625
0.0032026277
0.0031803249
0.0031611671
0.0031451673
0.003132339
0.0031226951
0.0031162465
0.0031129843
0.007001667
0.0068560611
0.0067129274
0.0065722737
0.0064341296
0.0062985248
0.0061654876
0.0060350447
0.005907221
0.0057820403
0.0056595251
0.0055396967
0.0054225753
0.0053081804
0.0051965304
0.0050876432
0.0049815359
0.0048782252
0.004777727
0.004680057
0.0045852305
0.0044932622
0.0044041668
0.0043179586
0.0042346518
0.0041542601
0.0040767974
0.0040022771
0.0039307128
0.0038621178
0.0037965052
0.0037338883
0.00367428
0.0036176933
0.0035641411
0.0035136363
0.0034661916
0.0034218198
0.0033805337
0.0033423459
0.003307269
0.0032753158
0.003246499
0.0032208313
0.0031983254
0.0031789942
0.0031628507
0.0031499079
0.0031401789
0.0031336742
0.0031303838
0.0070607779
0.0069133055
0.0067683565
0.0066259392
0.0064860827
0.0063488159
0.0062141665
0.0060821604
0.0059528218
0.0058261737
0.0057022378
0.0055810347
0.0054625839
0.0053469041
0.005234013
0.0051239277
0.0050166646
0.0049122397
0.0048106682
0.0047119651
0.004616145
0.004523222
0.0044332102
0.0043461232
0.0042619745
0.0041807775
0.0041025452
0.0040272908
0.0039550271
0.003885767
0.0038195232
0.0037563083
0.003696135
0.0036390158
0.0035849632
0.0035339896
0.0034861076
0.0034413295
0.0033996676
0.0033611344
0.0033257423
0.0032935037
0.003264431
0.0032385368
0.0032158335
0.0031963339
0.0031800507
0.0031669968
0.0031571851
0.0031506261
0.0031473084
0.0071180657
0.006968786
0.0068220792
0.006677954
0.0065364389
0.0063975623
0.0062613512
0.0061278306
0.0059970243
0.0058689543
0.0057436417
0.0056211064
0.0055013671
0.0053844419
0.0052703476
0.0051591008
0.0050507172
0.004945212
0.0048425998
0.0047428949
0.0046461112
0.0045522624
0.0044613617
0.0043734224
0.0042884572
0.0042064789
0.0041275003
0.0040515337
0.0039785916
0.0039086863
0.0038418301
0.0037780353
0.0037173139
0.0036596782
0.0036051402
0.003553712
0.0035054058
0.0034602336
0.0034182074
0.0033793394
0.0033436417
0.0033111265
0.0032818058
0.0032556921
0.0032327976
0.0032131348
0.0031967164
0.003183555
0.0031736635
0.0031670519
0.0031637079
0.0071734041
0.00702238
0.0068739763
0.0067282023
0.006585086
0.0064446552
0.0063069361
0.0061719531
0.0060397291
0.0059102858
0.0057836434
0.0056598211
0.005538837
0.0054207084
0.0053054516
0.0051930824
0.0050836158
0.0049770664
0.0048734483
0.004772775
0.00467506
0.0045803161
0.0044885561
0.0043997926
0.004314038
0.0042313045
0.0041516041
0.0040749489
0.0040013508
0.0039308217
0.0038633734
0.0037990178
0.0037377665
0.0036796313
0.0036246241
0.0035727564
0.0035240401
0.003478487
0.0034361087
0.0033969171
0.0033609241
0.0033281415
0.0032985814
0.0032722557
0.0032491766
0.0032293564
0.0032128075
0.0031995424
0.0031895739
0.0031829119
0.0031795425
0.0072266974
0.0070739944
0.0069239576
0.0067765966
0.006631939
0.006490012
0.006350841
0.0062144499
0.0060808609
0.005950095
0.0058221718
0.0056971098
0.0055749265
0.0054556386
0.0053392617
0.005225811
0.0051153009
0.0050077453
0.0049031577
0.0048015511
0.0047029383
0.0046073317
0.0045147434
0.0044251855
0.0043386699
0.0042552081
0.004174812
0.0040974929
0.0040232623
0.0039521318
0.0038841127
0.0038192164
0.0037574542
0.0036988377
0.003643378
0.0035910867
0.0035419752
0.0034960549
0.0034533373
0.0034138339
0.0033775564
0.0033445164
0.0033147255
0.0032881958
0.003264939
0.0032449673
0.0032282928
0.0032149282
0.0032048857
0.0031981754
0.0031947817
0.0072778767
0.0071235623
0.0069719579
0.0068230737
0.0066769366
0.0065335731
0.0063930082
0.006255265
0.0061203651
0.0059883289
0.0058591754
0.0057329226
0.0056095873
0.0054891854
0.0053717323
0.0052572423
0.0051457294
0.0050372068
0.0049316874
0.0048291838
0.004729708
0.004633272
0.0045398874
0.0044495658
0.0043623185
0.0042781566
0.0041970915
0.0041191341
0.0040442955
0.0039725867
0.0039040187
0.0038386025
0.0037763492
0.0037172697
0.0036613752
0.0036086766
0.0035591852
0.003512912
0.0034698683
0.0034300653
0.0033935145
0.0033602271
0.0033302147
0.003303489
0.0032800616
0.0032599445
0.0032431497
0.0032296896
0.0032195764
0.0032128197
0.003209403
0.0073268969
0.0071710398
0.0070179347
0.0068675922
0.0067200386
0.0065752997
0.0064333998
0.0062943615
0.0061582058
0.0060249526
0.0058946204
0.0057672265
0.0056427871
0.0055213178
0.0054028332
0.005287347
0.0051748728
0.0050654231
0.0049590104
0.0048556466
0.0047553434
0.0046581122
0.004563964
0.00447291
0.0043849609
0.0043001277
0.0042184209
0.0041398513
0.0040644295
0.0039921661
0.0039230717
0.0038571569
0.0037944326
0.0037349092
0.0036785976
0.0036255085
0.0035756528
0.0035290413
0.0034856849
0.0034455948
0.003408782
0.0033752576
0.003345033
0.0033181196
0.0032945289
0.0032742727
0.0032573628
0.0032438113
0.0032336305
0.0032268299
0.003223391
0.0073737335
0.0072164027
0.0070618648
0.0069101297
0.0067612232
0.0066151704
0.006471995
0.0063317191
0.0061943634
0.006059947
0.005928488
0.0058000032
0.0056745084
0.0055520184
0.0054325473
0.0053161086
0.005202715
0.0050923787
0.0049851115
0.004880925
0.0047798303
0.0046818382
0.0045869595
0.0044952047
0.0044065844
0.0043211087
0.004238788
0.0041596326
0.0040836527
0.0040108586
0.0039412605
0.0038748687
0.0038116936
0.0037517456
0.0036950349
0.0036415722
0.003591368
0.0035444329
0.0035007776
0.0034604129
0.0034233495
0.0033895986
0.0033591712
0.0033320785
0.0033083318
0.0032879428
0.003270923
0.0032572845
0.0032470394
0.0032401969
0.0032367371
0.0074183794
0.0072596444
0.0071037417
0.0069506802
0.0068004845
0.0066531794
0.0065087881
0.0063673323
0.0062288321
0.0060933064
0.0059607727
0.0058312473
0.0057047456
0.0055812818
0.0054608697
0.0053435219
0.005229251
0.0051180685
0.0050099859
0.0049050141
0.0048031639
0.0047044456
0.0046088695
0.0045164458
0.0044271845
0.0043410955
0.0042581887
0.004178474
0.0041019613
0.0040286604
0.0039585814
0.0038917342
0.0038281288
0.0037677752
0.0037106837
0.0036568643
0.0036063275
0.0035590835
0.0035151429
0.0034745161
0.0034372138
0.0034032468
0.003372626
0.0033453624
0.0033214671
0.0033009515
0.0032838271
0.0032701058
0.0032597995
0.0032529174
0.0032494379
0.0074608425
0.0073007723
0.0071435738
0.0069892519
0.0068378306
0.0066893343
0.0065437862
0.0064012076
0.0062616183
0.0061250368
0.0059914802
0.0058609643
0.005733504
0.0056091131
0.0054878049
0.0053695916
0.0052544852
0.0051424969
0.0050336376
0.0049279179
0.004825348
0.0047259379
0.0046296975
0.0045366365
0.0044467645
0.0043600911
0.0042766259
0.0041963783
0.0041193579
0.0040455743
0.003975037
0.0039077558
0.0038437404
0.0037830005
0.003725546
0.003671387
0.0036205333
0.0035729951
0.0035287828
0.0034879065
0.0034503767
0.003416204
0.0033853992
0.0033579729
0.0033339362
0.0033133004
0.0032960767
0.0032822768
0.0032719126
0.003264993
0.0032614948
0.0075011412
0.0073398074
0.007181382
0.0070258654
0.006873281
0.006723654
0.0065770073
0.0064333624
0.0062927387
0.0061551543
0.0060206259
0.0058891689
0.0057607978
0.005635526
0.0055133663
0.0053943305
0.00527843
0.0051656758
0.0050560782
0.0049496475
0.0048463934
0.0047463256
0.0046494535
0.0045557866
0.004465334
0.0043781049
0.0042941086
0.0042133543
0.0041358511
0.0040616083
0.0039906353
0.0039229414
0.0038585361
0.0037974288
0.0037396293
0.0036851472
0.0036339923
0.0035861745
0.0035417038
0.0035005904
0.0034628445
0.0034284764
0.0033974967
0.0033699161
0.0033457453
0.0033249953
0.0033076774
0.0032938031
0.0032833841
0.0032764292
0.0032729134
0.0075392939
0.0073767877
0.0072171993
0.0070605519
0.0069068656
0.0067561667
0.0066084787
0.0064638228
0.0063222184
0.0061836831
0.0060482332
0.0059158839
0.0057866491
0.0056605419
0.0055375744
0.0054177584
0.0053011046
0.0051876238
0.0050773258
0.0049702204
0.0048663171
0.0047656251
0.0046681536
0.0045739116
0.0044829079
0.0043951514
0.004310651
0.0042294156
0.0041514542
0.0040767756
0.0040053889
0.0039373033
0.0038725279
0.003811072
0.0037529449
0.0036981562
0.0036467154
0.0035986323
0.0035539165
0.0035125782
0.0034746272
0.0034400739
0.0034089285
0.0033812015
0.0033569036
0.0033360457
0.0033186387
0.0033046941
0.0032942233
0.0032872352
0.0032837029
0.0074117488
0.0072510703
0.007093352
0.0069386222
0.0067869086
0.0066382351
0.0064926225
0.0063500898
0.0062106546
0.0060743326
0.0059411386
0.0058110861
0.0056841879
0.0055604558
0.005439901
0.005322534
0.0052083649
0.0050974036
0.0049896592
0.004885141
0.0047838578
0.0046858184
0.0045910315
0.0044995057
0.0044112495
0.0043262715
0.0042445803
0.0041661846
0.004091093
0.0040193144
0.0039508576
0.0038857315
0.0038239452
0.0037655078
0.0037104286
0.003658717
0.0036103825
0.0035654347
0.0035238833
0.0034857382
0.0034510095
0.0034197072
0.0033918419
0.0033674238
0.0033464638
0.0033289727
0.0033149617
0.0033044423
0.0032974231
0.0032938754
0.0074447882
0.0072830493
0.0071243125
0.006968595
0.0068159224
0.0066663175
0.006519801
0.0063763914
0.0062361059
0.0060989598
0.0059649676
0.0058341425
0.0057064968
0.0055820419
0.0054607888
0.0053427475
0.0052279279
0.0051163394
0.0050079908
0.0049028911
0.0048010488
0.0047024724
0.0046071702
0.0045151505
0.0044264216
0.0043409919
0.0042588696
0.0041800631
0.0041045808
0.0040324314
0.0039636234
0.0038981656
0.0038360668
0.0037773358
0.0037219819
0.0036700142
0.003621442
0.0035762747
0.0035345219
0.0034961934
0.0034612989
0.0034298485
0.0034018524
0.003377321
0.0033562646
0.0033386942
0.0033246208
0.0033140557
0.0033070073
0.0033034452
0.0074759152
0.0073131809
0.0071534825
0.0069968328
0.0068432552
0.0066927719
0.0065454028
0.0064011661
0.0062600785
0.0061221552
0.0059874101
0.005855856
0.0057275051
0.0056023683
0.0054804561
0.0053617786
0.005246345
0.0051341644
0.0050252456
0.004919597
0.0048172268
0.0047181433
0.0046223546
0.0045298686
0.0044406934
0.004354837
0.0042723075
0.004193113
0.0041172619
0.0040447622
0.0039756226
0.0039098515
0.0038474575
0.0037884494
0.003732836
0.0036806264
0.0036318298
0.0035864553
0.0035445124
0.0035060107
0.0034709599
0.0034393698
0.0034112505
0.0033866121
0.0033654651
0.0033478201
0.0033336879
0.0033230799
0.0033160044
0.0033124288
0.0075051847
0.0073415186
0.0071809157
0.0070233882
0.0068689585
0.006717648
0.0065694762
0.0064244608
0.006282618
0.0061439627
0.0060085084
0.0058762679
0.0057472526
0.0056214734
0.0054989405
0.0053796634
0.0052636513
0.0051509129
0.0050414566
0.0049352906
0.004832423
0.0047328615
0.0046366141
0.0045436885
0.0044540925
0.0043678338
0.0042849204
0.0042053601
0.004129161
0.0040563312
0.0039868788
0.0039208123
0.00385814
0.0037988705
0.0037430125
0.0036905749
0.0036415667
0.003595997
0.0035538749
0.0035152101
0.0034800119
0.0034482902
0.0034200549
0.003395316
0.0033740837
0.0033563686
0.0033421814
0.0033315332
0.0033244324
0.0033208444
0.0075326606
0.0073681214
0.0072066695
0.0070483173
0.0068930868
0.0067409989
0.0065920725
0.006446325
0.0063037722
0.0061644287
0.0060283078
0.0058954217
0.0057657817
0.0056393984
0.0055162816
0.0053964406
0.0052798843
0.0051666211
0.0050566591
0.0049500063
0.0048466704
0.0047466591
0.00464998
0.0045566406
0.0044666484
0.0043800111
0.0042967363
0.0042168316
0.004140305
0.0040671642
0.0039974174
0.0039310727
0.0038681384
0.0038086228
0.0037525346
0.0036998824
0.003650675
0.0036049214
0.0035626308
0.0035238125
0.0034884758
0.0034566303
0.003428286
0.0034034525
0.0033821403
0.0033643594
0.0033501206
0.003339435
0.0033323107
0.0033287111
0.0075584087
0.0073930521
0.0072308042
0.0070716787
0.006915697
0.0067628796
0.0066132451
0.0064668106
0.0063235915
0.0061836021
0.0060468553
0.0059133632
0.0057831367
0.0056561861
0.005532521
0.0054121505
0.005295083
0.0051813267
0.0050708897
0.0049637795
0.0048600038
0.0047595698
0.004662485
0.0045687567
0.0044783922
0.0043913989
0.0043077844
0.004227556
0.0041507214
0.0040772884
0.0040072648
0.0039406586
0.0038774779
0.003817731
0.0037614263
0.0037085724
0.0036591778
0.0036132515
0.0035708025
0.00353184
0.0034963731
0.0034644115
0.0034359648
0.0034110428
0.0033896555
0.0033718131
0.0033575261
0.0033468055
0.0033396595
0.0033360492
0.0075824965
0.007416375
0.0072533824
0.0070935327
0.0069368474
0.0067833468
0.0066330489
0.0064859707
0.0063421273
0.0062015326
0.0060641993
0.0059301392
0.005799363
0.0056718806
0.0055477015
0.0054268343
0.0053092875
0.0051950689
0.0050841863
0.0049766471
0.0048724586
0.0047716281
0.0046741626
0.0045800694
0.0044893555
0.0044020283
0.0043180948
0.0042375625
0.004160439
0.0040867316
0.0040164482
0.0039495965
0.0038861846
0.0038262206
0.0037697127
0.0037166694
0.0036670992
0.0036210108
0.0035784132
0.0035393154
0.0035037265
0.003471656
0.0034431134
0.0034181083
0.0033966508
0.0033787509
0.0033644189
0.0033536658
0.0033464998
0.0033428797
0.0076049922
0.0074381561
0.0072744673
0.0071139407
0.0069565977
0.006802458
0.0066515398
0.0065038595
0.006359432
0.0062182711
0.006080389
0.0059457974
0.0058145067
0.0056865266
0.0055618663
0.0054405343
0.0053225387
0.0052078872
0.0050965873
0.0049886463
0.0048840713
0.0047828693
0.0046850472
0.0045906121
0.0044995708
0.0044119305
0.0043276982
0.0042468812
0.0041694867
0.0040955222
0.0040249953
0.0039579136
0.0038942849
0.0038341174
0.0037774191
0.0037241983
0.0036744634
0.0036282232
0.0035854864
0.0035462618
0.0035105587
0.0034783862
0.0034497538
0.0034246712
0.0034031481
0.0033851944
0.0033708205
0.0033600372
0.0033528528
0.0033492236
0.007625964
0.0074584612
0.007294123
0.0071329646
0.0069750076
0.0068202714
0.006668774
0.0065205314
0.0063755585
0.0062338686
0.006095474
0.0059603858
0.0058286144
0.0057001693
0.0055750593
0.0054532928
0.0053348777
0.0052198215
0.0051081315
0.0049998148
0.0048948783
0.0047933288
0.0046951731
0.0046004182
0.0045090706
0.0044211375
0.0043366256
0.0042555421
0.0041778941
0.004103689
0.0040329341
0.0039656371
0.0039018056
0.0038414476
0.003784571
0.0037311841
0.0036812953
0.0036349129
0.0035920458
0.0035527027
0.0035168927
0.0034846249
0.0034559087
0.0034307536
0.0034091693
0.0033911656
0.0033767527
0.0033659414
0.0033587401
0.0033551027
0.0076454804
0.0074773565
0.0073124131
0.0071506663
0.006992137
0.006836845
0.0066848076
0.0065360409
0.0063905594
0.0062483764
0.0061095037
0.0059739525
0.0058417327
0.0057128537
0.0055873242
0.0054651523
0.0053463457
0.0052309117
0.0051188576
0.0050101901
0.004904916
0.0048030421
0.0047045749
0.0046095212
0.0045178876
0.0044296808
0.0043449077
0.0042635752
0.0041856904
0.0041112604
0.0040402925
0.0039727943
0.0039087733
0.0038482372
0.0037911941
0.0037376521
0.0036876193
0.0036411042
0.0035981153
0.0035586616
0.0035227517
0.003490395
0.0034616005
0.0034363778
0.0034147365
0.0033966862
0.0033822372
0.0033714001
0.0033641832
0.0033605383
0.0076636088
0.0074949073
0.0073294012
0.0071671069
0.0070080454
0.0068522361
0.0066996963
0.0065504419
0.0064044871
0.006261845
0.0061225273
0.0059865449
0.0058539076
0.0057246246
0.0055987043
0.0054761548
0.0053569834
0.0052411975
0.005128804
0.0050198095
0.0049142208
0.0048120444
0.0047132868
0.0046179545
0.0045260541
0.0044375921
0.0043525754
0.0042710106
0.0041929048
0.004118265
0.0040470984
0.0039794124
0.0039152145
0.0038545124
0.0037973139
0.003743627
0.0036934599
0.0036468209
0.0036037186
0.0035641616
0.0035281587
0.003495719
0.0034668516
0.003441566
0.0034198716
0.0034017782
0.0033872956
0.0033764346
0.0033692036
0.0033655519
0.0076804161
0.0075111783
0.0073451497
0.007182347
0.0070227913
0.0068665016
0.0067134952
0.0065637877
0.0064173931
0.0062743244
0.0061345932
0.0059982101
0.0058651848
0.0057355261
0.0056092426
0.0054863418
0.0053668312
0.0052507179
0.0051380086
0.00502871
0.0049228285
0.0048203705
0.0047213425
0.0046257509
0.004533602
0.0044449024
0.0043596588
0.0042778777
0.0041995661
0.0041247308
0.0040533791
0.0039855182
0.0039211555
0.0038602987
0.0038029554
0.0037491336
0.0036988414
0.003652087
0.003608879
0.0035692258
0.0035331363
0.0035006194
0.0034716842
0.0034463401
0.0034245964
0.0034064629
0.0033919493
0.0033810663
0.0033738225
0.0033701646
0.0076959674
0.0075262327
0.0073597199
0.0071964461
0.0070364323
0.0068796974
0.0067262583
0.0065761306
0.0064293283
0.006285864
0.0061457492
0.0060089943
0.0058756089
0.0057456017
0.0056189809
0.0054957542
0.0053759287
0.0052595113
0.0051465088
0.0050369276
0.0049307741
0.0048280546
0.0047287753
0.0046329426
0.0045405628
0.0044516423
0.0043661877
0.0042842055
0.0042057025
0.0041306855
0.0040591616
0.003991138
0.0039266221
0.0038656213
0.0038081433
0.003754196
0.0037037875
0.0036569258
0.0036136194
0.0035738768
0.0035377067
0.0035051181
0.00347612
0.0034507215
0.0034289322
0.0034107615
0.0033962193
0.0033853161
0.0033780607
0.0033743973
0.0077103269
0.0075401324
0.0073731717
0.0072094622
0.0070490247
0.0068918777
0.0067380383
0.0065875218
0.006440342
0.0062965115
0.0061560416
0.0060189425
0.0058852237
0.0057548937
0.0056279606
0.0055044318
0.0053843145
0.0052676154
0.005154341
0.0050444978
0.004938092
0.0048351299
0.0047356175
0.0046395612
0.0045469672
0.0044578417
0.0043721913
0.0042900224
0.0042113416
0.004136156
0.0040644722
0.0039962976
0.0039316393
0.0038705048
0.0038129018
0.003758838
0.0037083214
0.00366136
0.0036179623
0.0035781367
0.0035418919
0.0035092367
0.0034801802
0.0034547314
0.0034328998
0.0034146948
0.0034001262
0.0033892045
0.0033819387
0.0033782703
0.0077235566
0.0075529377
0.0073855636
0.0072214519
0.0070606232
0.0069030959
0.0067488868
0.0065980112
0.0064504828
0.0063063139
0.0061655159
0.0060280988
0.0058940718
0.0057634435
0.0056362216
0.0055124136
0.0053920263
0.0052750665
0.0051615407
0.005051455
0.0049448158
0.004841629
0.0047419009
0.0046456375
0.004552845
0.0044635296
0.0043776978