/*--------------------------------*- C++ -*----------------------------------*\
| =========                 |                                                 |
| \\      /  F ield         | OpenFOAM: The Open Source CFD Toolbox           |
|  \\    /   O peration     | Version:  2312                                  |
|   \\  /    A nd           | Website:  www.openfoam.com                      |
|    \\/     M anipulation  |                                                 |
\*---------------------------------------------------------------------------*/
FoamFile
{
    version     2.0;
    format      ascii;
    arch        "LSB;label=32;scalar=64";
    class       volScalarField;
    location    "0.09";
    object      Ma;
}
// * * * * * * * * * * * * * * * * * * * * * * * * * * * * * * * * * * * * * //

dimensions      [0 0 0 0 0 0 0];

internalField   nonuniform List<scalar> 
3257
(
0.0021414242
0.0021091284
0.0020771441
0.0020454904
0.0020141853
0.0019832469
0.0019526928
0.0019225397
0.0018928038
0.0018635009
0.0018346464
0.0018062556
0.0017783435
0.0017509249
0.0017240147
0.0016976277
0.0016717787
0.0016464826
0.0016217545
0.0015976097
0.0015740637
0.0015511323
0.0015288316
0.001507178
0.0014861883
0.0014658797
0.0014462697
0.0014273763
0.0014092176
0.0013918123
0.0013751796
0.0013593387
0.0013443095
0.0013301122
0.0013167674
0.0013042962
0.0012927203
0.0012820621
0.001272345
0.0012635932
0.0012558329
0.0012490919
0.0012434013
0.0012387964
0.0012353184
0.001233013
0.0012319288
0.0012321632
0.0012340138
0.001237943
0.0012424198
0.0020747602
0.0020434937
0.0020125447
0.001981932
0.0019516727
0.0019217839
0.0018922819
0.0018631828
0.0018345021
0.0018062548
0.0017784556
0.0017511192
0.00172426
0.0016978923
0.0016720302
0.0016466881
0.0016218804
0.0015976216
0.0015739262
0.0015508091
0.0015282855
0.0015063709
0.0014850809
0.0014644318
0.0014444399
0.0014251222
0.0014064959
0.0013885786
0.0013713883
0.0013549435
0.0013392629
0.0013243656
0.0013102711
0.0012969994
0.0012845707
0.0012730058
0.0012623258
0.0012525528
0.0012437091
0.0012358183
0.001228905
0.001222995
0.0012181158
0.0012142976
0.0012115736
0.001209976
0.0012095225
0.0012102262
0.0012122533
0.0012161209
0.0012211056
0.0020301308
0.0019994686
0.0019691332
0.0019391425
0.0019095126
0.0018802596
0.0018513996
0.0018229476
0.0017949186
0.0017673271
0.0017401871
0.0017135127
0.0016873177
0.0016616159
0.001636421
0.0016117466
0.0015876068
0.0015640153
0.0015409865
0.0015185345
0.0014966742
0.0014754204
0.0014547884
0.0014347938
0.0014154526
0.001396781
0.0013787958
0.0013615141
0.0013449531
0.0013291306
0.0013140646
0.0012997734
0.0012862755
0.0012735897
0.0012617351
0.0012507309
0.0012405965
0.0012313515
0.0012230157
0.0012156091
0.0012091515
0.0012036629
0.0011991626
0.0011956698
0.0011932023
0.0011917728
0.0011913745
0.0011919885
0.0011937176
0.0011969735
0.0012011248
0.0019888531
0.0019587084
0.0019289017
0.0018994496
0.0018703676
0.0018416709
0.0018133748
0.0017854937
0.0017580417
0.0017310327
0.0017044802
0.0016783975
0.0016527977
0.0016276939
0.0016030994
0.0015790271
0.0015554903
0.0015325024
0.0015100768
0.0014882274
0.0014669681
0.0014463133
0.0014262775
0.0014068757
0.0013881231
0.0013700353
0.0013526283
0.0013359181
0.0013199213
0.0013046545
0.0012901348
0.0012763791
0.0012634047
0.0012512287
0.0012398684
0.0012293409
0.0012196633
0.0012108522
0.0012029238
0.0011958939
0.0011897773
0.0011845875
0.0011803363
0.0011770334
0.0011746858
0.0011732939
0.001172841
0.0011733022
0.0011747648
0.0011775917
0.0011812289
0.0019503457
0.0019206361
0.0018912773
0.0018622851
0.001833674
0.0018054585
0.0017776529
0.0017502711
0.0017233263
0.0016968317
0.0016707999
0.0016452435
0.001620175
0.0015956069
0.0015715513
0.0015480209
0.0015250279
0.0015025852
0.0014807054
0.0014594016
0.001438687
0.0014185752
0.0013990799
0.0013802152
0.0013619954
0.0013444354
0.0013275499
0.0013113541
0.0012958633
0.0012810931
0.0012670589
0.0012537764
0.001241261
0.0012295283
0.0012185932
0.0012084705
0.0011991746
0.0011907189
0.0011831162
0.001176378
0.0011705145
0.0011655337
0.0011614416
0.0011582412
0.0011559326
0.0011545102
0.001153954
0.0011542389
0.0011554405
0.0011578841
0.0011610937
0.0019147928
0.0018854348
0.001856442
0.0018278295
0.0017996107
0.0017717993
0.001744409
0.0017174526
0.0016909426
0.0016648913
0.0016393106
0.0016142123
0.0015896081
0.0015655096
0.0015419283
0.0015188759
0.0014963639
0.0014744043
0.0014530089
0.00143219
0.0014119598
0.001392331
0.0013733165
0.0013549293
0.0013371829
0.0013200908
0.0013036668
0.0012879249
0.001272879
0.0012585433
0.0012449317
0.0012320584
0.0012199368
0.0012085805
0.0011980024
0.0011882148
0.0011792292
0.0011710563
0.0011637054
0.0011571844
0.0011514995
0.0011466547
0.0011426514
0.0011394883
0.0011371615
0.0011356621
0.0011349699
0.0011350602
0.0011359966
0.0011380668
0.0011408676
0.001882014
0.0018529291
0.0018242253
0.0017959169
0.0017680162
0.0017405362
0.0017134896
0.0016868884
0.0016607444
0.0016350689
0.001609873
0.0015851676
0.0015609636
0.0015372716
0.0015141024
0.0014914668
0.0014693754
0.0014478392
0.0014268692
0.0014064766
0.0013866728
0.0013674695
0.0013488784
0.0013309117
0.0013135814
0.0012969001
0.0012808803
0.0012655347
0.0012508757
0.0012369162
0.0012236684
0.0012111447
0.0011993569
0.0011883164
0.0011780339
0.0011685194
0.001159782
0.0011518296
0.0011446686
0.0011383039
0.0011327385
0.0011279732
0.0011240063
0.0011208336
0.0011184487
0.0011168413
0.0011159915
0.0011158756
0.0011165457
0.001118254
0.0011206642
0.0018517953
0.0018229106
0.0017944242
0.0017663493
0.0017386974
0.0017114807
0.001684711
0.0016583993
0.0016325567
0.0016071934
0.0015823198
0.0015579458
0.0015340815
0.0015107365
0.0014879208
0.001465644
0.001443916
0.0014227467
0.0014021462
0.0013821247
0.0013626925
0.0013438601
0.0013256384
0.0013080381
0.0012910703
0.0012747462
0.001259077
0.001244074
0.0012297484
0.0012161112
0.0012031734
0.0011909453
0.0011794371
0.0011686581
0.0011586172
0.0011493222
0.0011407797
0.0011329954
0.0011259732
0.0011197155
0.0011142228
0.0011094935
0.0011055238
0.0011023075
0.0010998364
0.0010980996
0.001097078
0.0010967493
0.0010971551
0.0010985136
0.0011005503
0.0018239401
0.001795188
0.0017668525
0.0017389457
0.0017114782
0.0016844614
0.0016579059
0.0016318224
0.0016062205
0.0015811099
0.0015564999
0.0015323996
0.001508818
0.0014857639
0.0014632462
0.0014412737
0.0014198551
0.0013989995
0.0013787158
0.0013590132
0.0013399008
0.0013213882
0.0013034848
0.0012862004
0.0012695448
0.0012535279
0.0012381595
0.0012234495
0.0012094078
0.0011960437
0.0011833667
0.0011713855
0.0011601084
0.0011495431
0.0011396964
0.0011305742
0.0011221811
0.0011145208
0.0011075951
0.0011014044
0.0010959472
0.00109122
0.0010872175
0.0010839321
0.0010813547
0.0010794737
0.0010782715
0.0010777267
0.0010778715
0.0010788919
0.0010805695
0.0017982561
0.0017695747
0.0017413289
0.0017135297
0.0016861871
0.0016593112
0.0016329122
0.0016069995
0.0015815821
0.0015566687
0.0015322676
0.0015083869
0.0014850348
0.0014622191
0.0014399476
0.0014182281
0.0013970685
0.0013764766
0.0013564603
0.0013370276
0.0013181867
0.0012999458
0.0012823133
0.0012652978
0.0012489076
0.0012331515
0.0012180379
0.0012035754
0.0011897723
0.0011766366
0.0011641761
0.001152398
0.0011413089
0.001130915
0.0011212212
0.0011122316
0.0011039493
0.0010963758
0.0010895116
0.0010833552
0.0010779036
0.001073152
0.0010690937
0.0010657203
0.0010630218
0.0010609867
0.0010595981
0.0010588364
0.0010587249
0.0010594182
0.0010607492
0.0017745556
0.0017458885
0.0017176765
0.0016899297
0.0016626572
0.0016358684
0.0016095725
0.001583778
0.001558493
0.0015337253
0.0015094823
0.0014857713
0.0014625992
0.001439973
0.0014178995
0.0013963854
0.0013754376
0.0013550628
0.0013352679
0.0013160597
0.0012974453
0.0012794317
0.0012620261
0.0012452358
0.001229068
0.0012135301
0.0011986292
0.0011843726
0.0011707671
0.0011578193
0.0011455355
0.0011339215
0.0011229825
0.0011127227
0.0011031458
0.0010942544
0.0010860498
0.0010785322
0.0010717003
0.0010655516
0.0010600817
0.0010552846
0.0010511528
0.0010476772
0.0010448472
0.0010426511
0.0010410732
0.0010400953
0.0010397327
0.0010401096
0.0010411051
0.0017526578
0.0017239539
0.0016957251
0.0016679806
0.0016407285
0.0016139775
0.0015877359
0.0015620114
0.0015368112
0.001512142
0.0014880105
0.0014644228
0.0014413851
0.0014189033
0.0013969832
0.0013756305
0.001354851
0.0013346503
0.0013150342
0.0012960085
0.001277579
0.0012597517
0.0012425325
0.0012259275
0.0012099426
0.001194584
0.0011798575
0.0011657689
0.0011523239
0.0011395277
0.0011273852
0.0011159008
0.0011050781
0.0010949201
0.0010854291
0.0010766061
0.0010684512
0.0010609632
0.0010541398
0.0010479769
0.0010424694
0.0010376103
0.0010333914
0.0010298029
0.0010268339
0.0010244727
0.0010227044
0.0010215122
0.0010209042
0.0010209749
0.0010216448
0.0017323897
0.0017036035
0.0016753126
0.0016475252
0.0016202488
0.0015934911
0.0015672597
0.0015415613
0.0015164023
0.0014917887
0.0014677259
0.0014442194
0.0014212743
0.0013988955
0.0013770879
0.0013558561
0.0013352048
0.0013151387
0.0012956624
0.0012767806
0.0012584979
0.0012408193
0.0012237494
0.001207293
0.0011914551
0.0011762404
0.0011616536
0.0011476991
0.0011343814
0.0011217043
0.0011096715
0.001098286
0.0010875502
0.0010774658
0.0010680337
0.0010592538
0.0010511249
0.0010436447
0.0010368096
0.0010306149
0.0010250543
0.0010201202
0.0010158037
0.0010120945
0.0010089816
0.0010064529
0.0010044945
0.0010030909
0.0010022435
0.0010020179
0.0010023713
0.0017135881
0.0016846793
0.0016562859
0.0016284156
0.0016010748
0.0015742705
0.0015480096
0.0015222979
0.0014971409
0.0014725437
0.001448511
0.0014250473
0.0014021567
0.0013798433
0.0013581107
0.0013369629
0.0013164033
0.0012964356
0.0012770634
0.0012582902
0.0012401197
0.0012225554
0.0012056011
0.0011892603
0.0011735367
0.001158434
0.0011439555
0.0011301046
0.0011168844
0.0011042976
0.0010923465
0.0010810331
0.0010703584
0.0010603231
0.0010509267
0.0010421681
0.0010340451
0.0010265543
0.0010196912
0.0010134501
0.0010078241
0.0010028048
0.00099838288
0.00099454762
0.00099128754
0.00098859052
0.00098644331
0.00098483179
0.00098375131
0.00098323917
0.00098328438
0.0016961001
0.0016670333
0.0016385023
0.0016105135
0.0015830729
0.0015561867
0.0015298608
0.0015041004
0.0014789103
0.0014542946
0.0014302572
0.0014068016
0.0013839311
0.0013616488
0.0013399576
0.0013188601
0.001298359
0.001278457
0.0012591564
0.0012404599
0.0012223699
0.001204889
0.0011880196
0.0011717644
0.0011561258
0.0011411063
0.0011267081
0.0011129335
0.0010997843
0.0010872621
0.0010753682
0.0010641032
0.0010534672
0.0010434596
0.0010340791
0.0010253234
0.0010171894
0.0010096726
0.001002768
0.00099646883
0.00099076758
0.00098565538
0.00098112225
0.00097715718
0.00097374834
0.00097088338
0.0009685496
0.00096673415
0.000965427
0.00096463783
0.00096438288
0.0016797841
0.0016505291
0.0016218296
0.0015936915
0.00156612
0.0015391206
0.0015126986
0.0014868584
0.0014616038
0.0014369383
0.001412865
0.0013893865
0.0013665052
0.0013442234
0.0013225429
0.0013014655
0.001280993
0.0012611269
0.0012418687
0.0012232199
0.001205182
0.0011877564
0.0011709446
0.001154748
0.001139168
0.0011242059
0.001109863
0.0010961403
0.0010830387
0.0010705586
0.0010587001
0.0010474629
0.001036846
0.0010268479
0.0010174662
0.0010086978
0.0010005384
0.00099298318
0.00098602585
0.00097965928
0.00097387519
0.00096866419
0.00096401584
0.00095991875
0.00095636073
0.00095332917
0.00095081174
0.0009487968
0.00094726958
0.00094621284
0.00094566533
0.0016645107
0.0016350413
0.001606147
0.001577833
0.0015501037
0.0015229641
0.0014964185
0.0014704709
0.0014451243
0.0014203814
0.0013962445
0.0013727155
0.0013497959
0.001327487
0.0013057899
0.0012847056
0.0012642347
0.0012443779
0.0012251358
0.0012065087
0.0011884973
0.0011711018
0.0011543228
0.0011381606
0.0011226156
0.0011076881
0.0010933782
0.0010796859
0.0010666111
0.0010541531
0.0010423112
0.0010310838
0.0010204692
0.0010104649
0.0010010675
0.00099227301
0.00098407656
0.00097647229
0.00096945337
0.00096301197
0.00095713922
0.00095182521
0.00094705906
0.00094282896
0.00093912238
0.00093592636
0.00093322877
0.00093101914
0.00092927857
0.00092796369
0.00092713098
0.0016501619
0.0016204565
0.0015913452
0.0015628326
0.0015349224
0.0015076191
0.0014809264
0.0014548475
0.0014293848
0.0014045402
0.0013803153
0.0013567113
0.0013337289
0.0013113686
0.0012896306
0.0012685151
0.0012480218
0.0012281505
0.0012089008
0.0011902723
0.0011722644
0.0011548766
0.0011381083
0.001121959
0.0011064281
0.0010915147
0.001077218
0.0010635371
0.0010504708
0.0010380176
0.0010261756
0.0010149426
0.0010043158
0.00099429167
0.00098486625
0.00097603469
0.0009677913
0.00096012953
0.00095304189
0.00094651995
0.00094055425
0.0009351344
0.00093024905
0.00092588601
0.00092203232
0.00091867465
0.0009158009
0.00091340168
0.00091145461
0.000909891
0.00090878024
0.0016366322
0.0016066728
0.001577326
0.0015485958
0.0015204853
0.0014929984
0.0014661382
0.0014399074
0.0014143076
0.0013893403
0.0013650061
0.0013413057
0.0013182389
0.0012958056
0.0012740052
0.001252837
0.0012322999
0.0012123929
0.0011931147
0.001174464
0.0011564392
0.0011390391
0.001122262
0.0011061064
0.0010905708
0.0010756535
0.0010613527
0.0010476664
0.0010345927
0.001022129
0.0010102727
0.00099902052
0.00098836893
0.00097831367
0.0009688499
0.00095997201
0.00095167363
0.00094394754
0.00093678563
0.00093017886
0.00092411724
0.00091858989
0.00091358498
0.00090908992
0.0009050913
0.00090157533
0.00089852985
0.00089594638
0.00089379978
0.00089199687
0.0008906151
0.0016238274
0.0015935997
0.0015640023
0.0015350389
0.0015067118
0.0014790246
0.0014519799
0.0014255795
0.0013998248
0.0013747164
0.0013502545
0.0013264389
0.001303269
0.0012807438
0.001258862
0.0012376221
0.0012170224
0.0011970609
0.0011777356
0.0011590442
0.0011409845
0.0011235542
0.0011067509
0.0010905721
0.0010750154
0.0010600782
0.0010457579
0.0010320517
0.0010189565
0.0010064692
0.00099458608
0.00098330327
0.00097261632
0.00096252025
0.00095300946
0.00094407766
0.0009357178
0.00092792203
0.00092068163
0.00091398698
0.0009078276
0.00090219206
0.00089706811
0.00089244267
0.00088830191
0.0008846315
0.00088141904
0.00087865692
0.00087631782
0.00087428507
0.00087263923
0.0016116649
0.0015811575
0.0015512977
0.0015220883
0.0014935316
0.0014656303
0.0014383866
0.001411802
0.0013858771
0.0013606121
0.0013360065
0.0013120597
0.0012887702
0.0012661365
0.0012441567
0.0012228286
0.0012021495
0.001182117
0.0011627281
0.0011439799
0.0011258693
0.0011083931
0.0010915482
0.0010753313
0.001059739
0.001044768
0.0010304148
0.0010166757
0.001003547
0.00099102453
0.00097910401
0.0009677807
0.0009570494
0.00094690443
0.00093733948
0.00092834762
0.00091992113
0.00091205157
0.00090472962
0.00089794514
0.00089168709
0.00088594356
0.0008807018
0.00087594828
0.00087166865
0.00086784805
0.00086447369
0.0008615387
0.00085901421
0.0008567611
0.00085485807
0.0016000724
0.001569277
0.0015391456
0.0015096804
0.0014808834
0.0014527568
0.0014253025
0.0013985213
0.0013724135
0.0013469787
0.001322216
0.001298124
0.0012747009
0.0012519445
0.0012298523
0.0012084213
0.0011876484
0.0011675303
0.0011480635
0.0011292441
0.0011110685
0.0010935326
0.0010766326
0.0010603643
0.0010447238
0.0010297067
0.0010153088
0.0010015258
0.000988353
0.00097578563
0.00096381858
0.00095244641
0.00094166323
0.00093146266
0.00092183775
0.0009127809
0.00090428383
0.00089633746
0.00088893194
0.00088205657
0.00087569979
0.00086984917
0.00086449148
0.00085961268
0.00085519792
0.00085123173
0.00084770079
0.00084459884
0.00084189612
0.0008394322
0.00083727878
0.0015889876
0.0015578984
0.0015274886
0.0014977604
0.0014687149
0.0014403543
0.0014126799
0.0013856922
0.001359391
0.0013337755
0.0013088442
0.0012845953
0.0012610266
0.0012381351
0.0012159179
0.0011943715
0.0011734921
0.0011532758
0.0011337183
0.0011148153
0.0010965623
0.0010789546
0.0010619876
0.0010456565
0.0010299566
0.0010148827
0.0010004301
0.00098659345
0.00097336753
0.00096074682
0.00094872551
0.00093729747
0.00092645614
0.0009161945
0.00090650497
0.00089737934
0.00088880873
0.00088078351
0.00087329325
0.00086632674
0.00085987187
0.00085391571
0.00084844449
0.00084344367
0.00083889788
0.00083479096
0.000831109
0.00082784616
0.00082497239
0.00082230719
0.00081991018
0.0015783572
0.0015469706
0.0015162782
0.0014862815
0.0014569817
0.0014283804
0.0014004786
0.0013732765
0.0013467734
0.0013209681
0.0012958588
0.0012714432
0.0012477186
0.0012246817
0.0012023289
0.0011806562
0.0011596593
0.0011393337
0.0011196746
0.001100677
0.0010823358
0.0010646457
0.0010476015
0.0010311975
0.0010154284
0.0010002886
0.00098577234
0.00097187381
0.00095858705
0.00094590585
0.00093382376
0.00092233401
0.0009114294
0.0009011023
0.00089134451
0.00088214726
0.00087350107
0.00086539577
0.00085782038
0.00085076315
0.00084421144
0.0008381518
0.00083256993
0.00082745075
0.0008227783
0.00081853578
0.0008147085
0.00081129093
0.0008082533
0.0008053964
0.00080276255
0.0015681364
0.0015364508
0.0015054733
0.001475205
0.0014456467
0.0014167999
0.0013886653
0.0013612426
0.0013345309
0.0013085287
0.0012832337
0.0012586433
0.0012347543
0.001211563
0.0011890655
0.0011672572
0.0011461334
0.0011256891
0.0011059189
0.0010868172
0.0010683785
0.0010505968
0.0010334663
0.0010169808
0.0010011342
0.00098592035
0.00097133289
0.00095736536
0.00094401115
0.00093126345
0.00091911516
0.0009075589
0.00089658688
0.00088619087
0.0008763621
0.00086709121
0.00085836819
0.0008501823
0.00084252205
0.00083537511
0.00082872835
0.00082256775
0.00081687848
0.00081164488
0.00080685043
0.0008024776
0.00079851088
0.00079494482
0.00079175049
0.00078871145
0.00078584748
0.0015582876
0.0015263031
0.0014950398
0.0014644984
0.0014346794
0.001405584
0.0013772127
0.001349565
0.0013226397
0.0012964348
0.001270948
0.0012461762
0.0012221158
0.0011987629
0.001176113
0.0011541613
0.0011329025
0.0011123313
0.0010924418
0.0010732279
0.0010546836
0.0010368023
0.0010195777
0.0010030031
0.00098707184
0.0009717771
0.00095711198
0.00094306942
0.00092964222
0.00091682299
0.00090460404
0.0008929774
0.00088193472
0.00087146718
0.00086156548
0.00085221969
0.00084341926
0.00083515291
0.00082740861
0.0008201735
0.0008134339
0.00080717525
0.00080138215
0.00079603836
0.00079112676
0.00078662908
0.00078252886
0.00077882061
0.00077547671
0.00077226508
0.00076917769
0.0015487798
0.0015164982
0.0014849499
0.0014541354
0.0014240548
0.0013947092
0.0013660989
0.0013382232
0.0013110807
0.001284669
0.0012589856
0.0012340271
0.0012097897
0.0011862691
0.0011634605
0.0011413588
0.0011199584
0.0010992534
0.0010792375
0.0010599045
0.0010412475
0.0010232599
0.0010059346
0.00098926441
0.00097324226
0.00095786077
0.00094311248
0.00092898981
0.000915485
0.0009025901
0.00089029687
0.0008785968
0.00086748097
0.00085694004
0.00084696414
0.00083754283
0.000828665
0.00082031886
0.00081249182
0.00080517051
0.00079834067
0.0007919872
0.00078609411
0.00078064457
0.00077562082
0.00077100385
0.00076677619
0.00076293206
0.00075944565
0.00075607096
0.00075276679
0.0015395879
0.0015070123
0.0014751809
0.0014440947
0.0014137531
0.0013841571
0.0013553068
0.0013272015
0.0012998393
0.001273218
0.0012473345
0.0012221854
0.0011977665
0.0011740734
0.001151101
0.0011288439
0.0011072961
0.0010864515
0.0010663035
0.0010468453
0.0010280699
0.00100997
0.00099253823
0.00097576705
0.00095964877
0.00094417556
0.0009293395
0.00091513248
0.00090154625
0.00088857233
0.00087620197
0.00086442612
0.00085323535
0.00084261979
0.00083256904
0.00082307214
0.00081411746
0.00080569265
0.00079778462
0.00079037942
0.00078346226
0.00077701747
0.00077102845
0.00076547776
0.00076034699
0.00075561637
0.00075126736
0.00074729368
0.00074367173
0.00074014346
0.00073662914
0.0015306916
0.0014978259
0.0014657153
0.0014343598
0.001403759
0.0013739134
0.0013448234
0.0013164878
0.0012889048
0.001262072
0.0012359861
0.0012106435
0.0011860399
0.0011621706
0.0011390303
0.0011166133
0.0010949136
0.0010739246
0.0010536395
0.0010340512
0.0010151524
0.00099693537
0.00097939241
0.00096251555
0.00094629672
0.00093072766
0.00091579999
0.00090150516
0.00088783442
0.00087477883
0.00086232914
0.00085047582
0.00083920891
0.00082851805
0.00081839233
0.00080882026
0.0007997897
0.00079128777
0.00078330082
0.00077581438
0.0007688131
0.00076228069
0.00075619998
0.00075055287
0.00074532028
0.00074048171
0.00073601745
0.00073192055
0.00072816992
0.00072449749
0.00072077959
0.0015220784
0.0014889245
0.0014565391
0.001424918
0.0013940607
0.0013639676
0.001334639
0.0013060737
0.0012782698
0.0012512247
0.0012249351
0.0011993971
0.0011746065
0.0011505582
0.0011272469
0.0011046667
0.0010828113
0.0010616741
0.0010412479
0.0010215254
0.001002499
0.00098416076
0.00096650259
0.00094951622
0.00093319318
0.00091752485
0.00090250245
0.000888117
0.00087435934
0.00086122005
0.00084868944
0.00083675749
0.00082541379
0.00081464745
0.00080444709
0.0007948007
0.00078569561
0.00077711843
0.00076905497
0.00076149019
0.00075440817
0.00074779205
0.000741624
0.00073588529
0.00073055617
0.00072561534
0.00072104194
0.0007168281
0.00071295553
0.00070914827
0.00070523333
0.001480301
0.0014476429
0.0014157602
0.0013846499
0.0013543121
0.001324747
0.0012959534
0.0012679293
0.0012406721
0.0012141783
0.0011884441
0.0011634649
0.0011392358
0.0011157513
0.0010930053
0.0010709915
0.001049703
0.0010291325
0.0010092726
0.00099011525
0.00097165246
0.00095387583
0.0009367768
0.00092034658
0.00090457624
0.00088945661
0.00087497836
0.00086113191
0.00084790745
0.00083529485
0.00082328363
0.00081186293
0.00080102138
0.0007907471
0.00078102759
0.00077184967
0.00076319941
0.00075506208
0.00074742209
0.00074026291
0.00073356708
0.00072731617
0.00072149075
0.00071607037
0.00071103298
0.00070635652
0.00070203197
0.00069804407
0.00069411122
0.00069000571
0.001471945
0.0014390208
0.0014068805
0.0013755211
0.0013449421
0.0013151433
0.0012861236
0.001257881
0.0012304126
0.001203715
0.0011777844
0.0011526161
0.0011282052
0.001104546
0.0010816325
0.0010594582
0.0010380161
0.0010172989
0.00099729886
0.00097800803
0.00095941805
0.00094152037
0.00092430618
0.00090776644
0.00089189192
0.00087667315
0.00086210046
0.00084816391
0.00083485329
0.00082215809
0.00081006739
0.00079856989
0.00078765376
0.00077730665
0.00076751554
0.00075826676
0.00074954583
0.00074133748
0.00073362555
0.00072639293
0.00071962153
0.00071329227
0.00070738505
0.0007018787
0.00069675041
0.00069197692
0.00068754785
0.00068345103
0.00067940171
0.00067511208
0.0014638487
0.0014306662
0.0013982742
0.0013666707
0.0013358546
0.0013058258
0.0012765829
0.0012481239
0.0012204461
0.0011935459
0.0011674195
0.0011420623
0.0011174692
0.0010936346
0.0010705526
0.0010482164
0.0010266192
0.0010057535
0.00098561157
0.00096618524
0.00094746608
0.00092944537
0.00091211412
0.00089546308
0.00087948277
0.00086416347
0.00084949518
0.00083546767
0.00082207036
0.00080929236
0.00079712237
0.00078554863
0.00077455889
0.0007641403
0.00075427939
0.00074496194
0.00073617296
0.00072789662
0.00072011617
0.00071281391
0.00070597114
0.00069956809
0.00069358398
0.00068799692
0.00068278334
0.00067791877
0.00067339128
0.0006691918
0.00066503501
0.00066056763
0.0014560099
0.0014225762
0.001389939
0.0013580969
0.0013270486
0.0012967938
0.0012673313
0.001238659
0.0012107741
0.0011836731
0.0011573522
0.0011318068
0.0011070319
0.001083022
0.001059771
0.0010372724
0.0010155192
0.00099450388
0.00097421873
0.00095465554
0.00093580579
0.00091766065
0.00090021098
0.00088344739
0.00086736019
0.00085193942
0.00083717486
0.00082305594
0.0008095718
0.00079671118
0.0007844624
0.0007728133
0.00076175119
0.00075126277
0.00074133405
0.00073195033
0.00072309608
0.0007147549
0.00070690946
0.00069954145
0.00069263152
0.00068615925
0.00068010314
0.00067444058
0.00066914723
0.00066419745
0.00065957756
0.00065528149
0.00065102608
0.00064638727
0.0014484272
0.0014147497
0.001381874
0.0013497992
0.0013185241
0.0012880481
0.0012583701
0.0012294879
0.0012013989
0.0011740995
0.001147586
0.001121854
0.0010968984
0.0010727137
0.0010492941
0.0010266329
0.0010047234
0.00098355797
0.00096312894
0.00094342811
0.00092444691
0.00090617645
0.00088860753
0.00087173061
0.00085553587
0.00084001316
0.00082515203
0.00081094167
0.00079737091
0.00078442817
0.00077210143
0.00076037812
0.00074924513
0.00073868871
0.00072869439
0.00071924696
0.00071033034
0.00070192757
0.00069402072
0.00068659088
0.00067961803
0.00067308109
0.00066695783
0.0006612249
0.00065585722
0.00065082799
0.00064612161
0.00064173482
0.00063738947
0.00063258549
0.0014411002
0.0014071863
0.0013740794
0.0013417784
0.0013102822
0.0012795902
0.0012497013
0.0012206134
0.0011923237
0.0011648289
0.0011381254
0.0011122087
0.0010870739
0.0010627158
0.0010391283
0.0010163052
0.0009942396
0.00097292415
0.00095235113
0.00093251239
0.0009133994
0.00089500326
0.00087731471
0.00086032416
0.00084402166
0.00082839693
0.00081343932
0.00079913781
0.00078548097
0.00077245693
0.0007600533
0.00074825717
0.00073705501
0.00072643261
0.00071637505
0.00070686658
0.00069789059
0.00068942956
0.00068146494
0.0006739772
0.00066694566
0.00066034855
0.00065416292
0.00064836467
0.00064292796
0.00063782492
0.00063303786
0.00062856599
0.00062413925
0.00061917631
0.0014340292
0.0013998869
0.0013665561
0.0013340358
0.0013023247
0.0012714224
0.0012413277
0.0012120384
0.0011835521
0.0011558655
0.0011289749
0.0011028761
0.0010775644
0.0010530345
0.0010292807
0.0010062967
0.00098407587
0.00096261095
0.00094189433
0.00092191795
0.00090267332
0.00088415159
0.00086634351
0.00084923943
0.00083282936
0.00081710289
0.00080204925
0.00078765722
0.00077391514
0.00076081085
0.00074833167
0.00073646431
0.00072519486
0.00071450867
0.00070439034
0.0006948236
0.00068579133
0.00067727539
0.00066925665
0.00066171492
0.00065462888
0.00064797604
0.00064173274
0.0006358741
0.00063037356
0.00062520219
0.00062034015
0.00061578864
0.00061128884
0.0006061731
0.0014272151
0.0013928527
0.0013593058
0.0013265732
0.0012946538
0.0012635472
0.0012332521
0.0012037666
0.0011750882
0.0011472137
0.0011201395
0.0010938617
0.0010683757
0.0010436763
0.0010197581
0.00099661488
0.00097424015
0.00095262687
0.00093176756
0.00091165426
0.00089227862
0.00087363185
0.00085570473
0.00083848765
0.00082197058
0.00080614304
0.00079099414
0.0007765125
0.00076268628
0.00074950305
0.00073694985
0.00072501305
0.00071367834
0.00070293066
0.00069275413
0.00068313198
0.00067404653
0.00066547906
0.00065740984
0.00064981802
0.0006426816
0.00063597739
0.000629681
0.00062376679
0.00061820746
0.00061297311
0.00060804165
0.00060341569
0.000598851
0.00059358858
0.0014206594
0.0013860854
0.0013523303
0.0013193929
0.0012872721
0.0012559675
0.0012254779
0.0011958015
0.0011669358
0.0011388778
0.0011116241
0.0010851709
0.0010595137
0.0010346476
0.0010105674
0.00098726706
0.00096474029
0.00094298024
0.0009219796
0.00090173061
0.00088222503
0.00086345418
0.00084540896
0.00082807978
0.00081145663
0.000795529
0.00078028591
0.00076571587
0.00075180685
0.00073854622
0.00072592073
0.00071391642
0.00070251862
0.00069171186
0.00068147977
0.0006718051
0.0006626696
0.00065405398
0.00064593788
0.00063829979
0.00063111704
0.00062436573
0.00061802072
0.00061205561
0.00060644238
0.0006011502
0.00059615476
0.00059145932
0.00058683769
0.00058143465
0.0014143639
0.001379587
0.0013456317
0.0013124971
0.001280182
0.0012486861
0.0012180083
0.0011881466
0.0011590989
0.0011308623
0.0011034334
0.0010768088
0.001050984
0.0010259545
0.0010017152
0.00097826034
0.00095558383
0.00093367907
0.00091253895
0.0008921559
0.00087252188
0.00085362837
0.00083546635
0.00081802635
0.00080129839
0.00078527197
0.00076993606
0.00075527908
0.00074128885
0.00072795254
0.00071525664
0.0007031869
0.00069172829
0.00068086491
0.00067057997
0.00066085569
0.00065167327
0.00064301285
0.00063485342
0.00062717283
0.0006199477
0.00061315343
0.00060676412
0.00060075264
0.00059509022
0.0005897452
0.00058469107
0.00057993087
0.00057526005
0.00056972242
0.0014083304
0.0013733592
0.0013392121
0.0013058881
0.0012733861
0.0012417058
0.0012108462
0.0011808054
0.0011515813
0.0011231712
0.001095572
0.0010687803
0.001042792
0.0010176028
0.00099320775
0.0009696014
0.00094677793
0.00092473095
0.00090345363
0.00088293862
0.00086317808
0.00084416368
0.00082588657
0.00080833738
0.00079150621
0.00077538261
0.00075995552
0.00074521331
0.00073114365
0.00071773356
0.0007049693
0.00069283633
0.00068131927
0.00067040183
0.00066006675
0.00065029577
0.00064106955
0.00063236761
0.00062416834
0.0006164489
0.00060918523
0.00060235201
0.0005959226
0.00058986909
0.00058416202
0.00057876893
0.00057366125
0.00056884077
0.00056412828
0.00055846207
0.0014025606
0.001367404
0.0013330735
0.0012995681
0.0012668868
0.0012350292
0.0012039945
0.0011737809
0.0011443863
0.0011158083
0.001088044
0.00106109
0.0010349427
0.0010095979
0.00098505081
0.00096129647
0.00093832922
0.00091614298
0.00089473116
0.00087408668
0.00085420195
0.00083506884
0.00081667869
0.00079902229
0.00078208984
0.00076587095
0.00075035458
0.00073552906
0.00072138198
0.00070790019
0.00069506975
0.00068287584
0.00067130276
0.00066033383
0.00064995136
0.00064013658
0.00063086961
0.00062212939
0.00061389367
0.00060613894
0.00059884045
0.00059197213
0.00058550664
0.00057941528
0.0005736679
0.00056823131
0.00056307506
0.00055819853
0.00055345164
0.00054766286
0.0013970562
0.0013617231
0.0013272177
0.001293539
0.001260686
0.0012286585
0.0011974557
0.0011670758
0.001137517
0.001108777
0.001080853
0.001053742
0.0010274404
0.0010019444
0.00097724964
0.00095335119
0.00093024378
0.00090792162
0.00088637842
0.00086560739
0.00084560118
0.00082635191
0.00080785114
0.00079008983
0.00077305832
0.00075674631
0.00074114283
0.00072623615
0.00071201382
0.00069846256
0.00068556823
0.00067331577
0.00066168915
0.00065067134
0.00064024421
0.0006303885
0.00062108379
0.00061230843
0.00060403954
0.00059625295
0.0005889232
0.0005820235
0.00057552576
0.00056940055
0.000563617
0.00055814123
0.00055294123
0.00054801262
0.00054323837
0.00053733299
0.0013918186
0.0013563179
0.0013216461
0.0012878023
0.0012547855
0.0012225956
0.0011912318
0.0011606926
0.001130976
0.0011020801
0.0010740023
0.0010467397
0.0010202891