/*--------------------------------*- C++ -*----------------------------------*\
| =========                 |                                                 |
| \\      /  F ield         | OpenFOAM: The Open Source CFD Toolbox           |
|  \\    /   O peration     | Version:  2312                                  |
|   \\  /    A nd           | Website:  www.openfoam.com                      |
|    \\/     M anipulation  |                                                 |
\*---------------------------------------------------------------------------*/
FoamFile
{
    version     2.0;
    format      ascii;
    arch        "LSB;label=32;scalar=64";
    class       volScalarField;
    location    "0.09";
    object      nut;
}
// * * * * * * * * * * * * * * * * * * * * * * * * * * * * * * * * * * * * * //

dimensions      [0 2 -1 0 0 0 0];

internalField   nonuniform List<scalar> 
3257
(
0.048686294
0.049040604
0.049394237
0.049746802
0.050097981
0.050447467
0.050794953
0.051140134
0.051482699
0.051822342
0.052158753
0.052491625
0.052820654
0.053145534
0.053465964
0.053781645
0.054092284
0.054397593
0.054697288
0.054991089
0.055278723
0.055559923
0.055834428
0.056101985
0.056362345
0.056615271
0.05686053
0.057097895
0.05732715
0.057548086
0.0577605
0.057964199
0.058158996
0.058344713
0.058521179
0.058688231
0.058845714
0.058993479
0.059131385
0.059259298
0.059377093
0.059484648
0.05958185
0.059668593
0.059744777
0.059810306
0.059865094
0.059909056
0.059942119
0.059964209
0.059975265
0.048679417
0.049033885
0.049387655
0.049740346
0.050091647
0.050441253
0.050788859
0.051134158
0.051476842
0.051816603
0.052153131
0.052486119
0.052815261
0.053140253
0.053460794
0.053776587
0.054087337
0.054392755
0.054692557
0.054986462
0.055274198
0.055555496
0.055830097
0.056097747
0.056358196
0.056611208
0.056856549
0.057093995
0.057323327
0.057544336
0.05775682
0.057960585
0.058155446
0.058341223
0.058517746
0.058684852
0.058842385
0.058990197
0.059128146
0.0592561
0.059373931
0.05948152
0.059578753
0.059665523
0.05974173
0.059807278
0.059862079
0.059906048
0.059939101
0.059961154
0.059972112
0.048664118
0.049018858
0.049372904
0.049725873
0.05007745
0.050427332
0.050775213
0.051120787
0.051463744
0.051803777
0.052140575
0.052473831
0.052803238
0.053128491
0.05344929
0.053765336
0.054076335
0.054381997
0.054682036
0.054976174
0.055264137
0.055545657
0.055820473
0.056088331
0.056348982
0.056602188
0.056847717
0.057085343
0.057314849
0.057536024
0.057748668
0.057952586
0.058147592
0.058333507
0.058510162
0.058677392
0.058835042
0.058982965
0.059121018
0.059249069
0.059366991
0.059474663
0.059571972
0.059658812
0.059735082
0.059800686
0.059855535
0.059899545
0.059932633
0.059954716
0.059965685
0.048642141
0.048997259
0.04935169
0.049705046
0.050057014
0.050407288
0.050755562
0.051101528
0.051444877
0.0517853
0.052122485
0.052456125
0.052785912
0.053111541
0.053432709
0.053749119
0.054060475
0.054366487
0.054666869
0.054961342
0.05524963
0.055531468
0.055806592
0.056074748
0.056335689
0.056589174
0.056834973
0.057072858
0.057302613
0.057524028
0.0577369
0.057941037
0.058136252
0.058322366
0.058499209
0.058666617
0.058824436
0.058972516
0.059110718
0.059238908
0.059356958
0.059464749
0.059562167
0.059649105
0.059725462
0.059791142
0.059846056
0.059890118
0.059923247
0.059945359
0.059956341
0.048614255
0.048969846
0.049324759
0.049678603
0.050031062
0.050381831
0.050730601
0.051077064
0.051420909
0.051761825
0.052099501
0.052433628
0.052763896
0.053090002
0.05341164
0.053728511
0.05404032
0.054346777
0.054647593
0.05494249
0.055231193
0.055513432
0.055788947
0.056057483
0.056318791
0.05657263
0.05681877
0.057056984
0.057287055
0.057508773
0.057721936
0.05792635
0.058121828
0.058308194
0.058485274
0.058652908
0.058810939
0.058959219
0.059097608
0.059225971
0.059344182
0.059452121
0.059549673
0.059636732
0.059713196
0.05977897
0.059833962
0.059878088
0.059911265
0.059933409
0.059944405
0.048581212
0.048937359
0.04929284
0.049647258
0.050000298
0.050351651
0.050701007
0.051048058
0.051392489
0.05173399
0.052072248
0.052406952
0.052737792
0.053064462
0.053386656
0.053704075
0.054016422
0.054323405
0.054624737
0.054920137
0.05520933
0.055492046
0.055768024
0.056037009
0.056298752
0.056553011
0.056799555
0.057038159
0.057268604
0.05749068
0.057704186
0.057908927
0.058104718
0.058291379
0.058468741
0.05863664
0.058794921
0.058943435
0.059082043
0.059210609
0.059329008
0.059437118
0.059534826
0.059622025
0.059698612
0.059764492
0.059819573
0.059863771
0.059897002
0.059919183
0.059930195
0.048543749
0.048900526
0.049256648
0.049611716
0.049965412
0.050317426
0.050667447
0.051015162
0.051360259
0.051702423
0.052041341
0.052376699
0.052708187
0.053035497
0.053358323
0.053676363
0.053989319
0.0542969
0.054598817
0.054894788
0.055184537
0.055467794
0.055744298
0.056013792
0.056276027
0.056530763
0.056777764
0.057016808
0.057247677
0.057470159
0.057684052
0.057889164
0.058085306
0.058272302
0.05844998
0.058618178
0.058776739
0.058925517
0.059064369
0.059193163
0.059311771
0.059420073
0.059517954
0.059605307
0.05968203
0.059748027
0.059803206
0.059847482
0.059880773
0.059902994
0.059914023
0.048502569
0.048860037
0.049216862
0.049572643
0.04992706
0.050279799
0.05063055
0.050978998
0.051324826
0.051667719
0.052007362
0.052343441
0.052675642
0.053003656
0.053327176
0.0536459
0.053959528
0.054267766
0.054570326
0.054866925
0.055157285
0.055441138
0.055718219
0.055988272
0.056251048
0.056506307
0.056753812
0.056993339
0.057224672
0.057447599
0.057661917
0.057867433
0.058063961
0.058251322
0.058429346
0.05859787
0.058756737
0.058905801
0.05904492
0.05917396
0.059292794
0.059401302
0.05949937
0.059586889
0.059663758
0.059729879
0.059785164
0.059829524
0.059862878
0.059885141
0.059896188
0.04845833
0.048816539
0.04917412
0.049530666
0.049885856
0.050239376
0.050590911
0.050940145
0.05128676
0.051630438
0.051970861
0.052307714
0.052640682
0.052969454
0.053293722
0.05361318
0.05392753
0.054236475
0.054539727
0.054837001
0.055128019
0.055412511
0.055690212
0.055960866
0.056224224
0.056480042
0.056728088
0.056968134
0.057199964
0.057423367
0.05763814
0.05784409
0.058041029
0.058228781
0.058407173
0.058576043
0.058735237
0.058884604
0.059024006
0.059153307
0.059272381
0.059381107
0.059479371
0.059567065
0.059644087
0.05971034
0.059765734
0.059810182
0.059843603
0.059865911
0.059876977
0.048411644
0.048770636
0.049129013
0.049486367
0.049842374
0.050196718
0.050549082
0.050899147
0.051246593
0.051591099
0.051932347
0.052270019
0.052603798
0.052933371
0.053258428
0.053578664
0.053893776
0.054203469
0.054507451
0.054805438
0.055097151
0.055382317
0.055660674
0.055931962
0.056195931
0.056452341
0.056700956
0.056941548
0.057173901
0.057397805
0.057613056
0.057819461
0.058016833
0.058204993
0.058383772
0.058553005
0.058712539
0.058862224
0.05900192
0.059131493
0.059250816
0.059359769
0.059458237
0.059546112
0.059623292
0.059689681
0.059745188
0.059789727
0.059823217
0.059845571
0.059856657
0.048363078
0.048722884
0.04908209
0.049440285
0.049797143
0.050152346
0.050505573
0.050856503
0.051204815
0.051550186
0.051892293
0.052230818
0.052565442
0.05289585
0.053221731
0.053542776
0.053858683
0.054169154
0.054473897
0.054772626
0.055065061
0.05535093
0.055629968
0.055901915
0.056166521
0.056423545
0.05667275
0.056913911
0.057146806
0.057371229
0.057586976
0.057793851
0.05799167
0.058180253
0.058359431
0.058529039
0.058688923
0.058838935
0.058978934
0.059108786
0.059228365
0.059337549
0.059436225
0.059524285
0.059601627
0.059668155
0.059723777
0.059768409
0.059801969
0.05982437
0.059835477
0.048313148
0.048673792
0.049033851
0.049392913
0.049750647
0.050106733
0.050460849
0.050812672
0.051161876
0.051508137
0.05185113
0.052190534
0.052526029
0.052857297
0.053184025
0.053505904
0.053822629
0.054133902
0.054439428
0.054738921
0.0550321
0.055318691
0.055598428
0.055871053
0.056136314
0.056393967
0.056643779
0.056885521
0.057118974
0.057343928
0.057560181
0.057767539
0.057965814
0.058154829
0.058334413
0.058504403
0.058664644
0.058814989
0.058955295
0.059085431
0.059205268
0.059314688
0.059413574
0.059501821
0.059579326
0.059645994
0.059701733
0.059746458
0.059780088
0.059802537
0.059813665
0.048262325
0.048623823
0.048984752
0.049344697
0.049703324
0.050060312
0.050415336
0.050768069
0.051118183
0.051465352
0.051809249
0.05214955
0.052485933
0.052818079
0.053145672
0.053468401
0.053785961
0.054098051
0.054404375
0.054704646
0.054998582
0.055285909
0.055566359
0.055839673
0.056105598
0.056363893
0.056614319
0.056856652
0.057090671
0.057316163
0.05753293
0.057740776
0.057939513
0.058128964
0.058308959
0.058479334
0.058639935
0.058790614
0.058931231
0.059061651
0.059181748
0.059291403
0.059390501
0.059478935
0.059556603
0.05962341
0.059679266
0.059724084
0.059757785
0.059780282
0.059791431
0.048211031
0.048573393
0.048935202
0.04929604
0.049655571
0.050013472
0.050369413
0.050723067
0.051074103
0.051422191
0.051767003
0.052108212
0.052445494
0.052778527
0.053106995
0.053430585
0.053748988
0.054061903
0.054369034
0.054670092
0.054964793
0.055252862
0.055534031
0.055808039
0.056074636
0.056333575
0.056584622
0.056827549
0.057062136
0.057288171
0.057505454
0.057713789
0.05791299
0.058102878
0.058283284
0.058454045
0.058615005
0.058766018
0.058906943
0.059037647
0.059158004
0.059267892
0.0593672
0.05945582
0.05953365
0.059600596
0.059656566
0.059701477
0.059735249
0.059757793
0.059768962
0.048159645
0.048522873
0.048885566
0.0492473
0.04960774
0.049966557
0.050323422
0.050678001
0.051029963
0.051378974
0.051724705
0.052066827
0.052405011
0.052738936
0.053068283
0.053392736
0.053711986
0.05402573
0.05433367
0.054635516
0.054930984
0.055219796
0.055501686
0.05577639
0.056043658
0.056303243
0.05655491
0.05679843
0.057033584
0.057260161
0.057477957
0.05768678
0.057886442
0.058076766
0.05825758
0.058428723
0.058590041
0.058741385
0.058882615
0.0590136
0.059134212
0.059244332
0.059343847
0.059432649
0.059510639
0.05957772
0.059633804
0.059678806
0.059712647
0.059735239
0.059746428
0.048108499
0.048472593
0.048836168
0.049198797
0.049560143
0.049919876
0.050277661
0.050633164
0.05098605
0.051335985
0.051682634
0.052025665
0.052364751
0.052699566
0.053029789
0.053355103
0.053675198
0.053989769
0.054298515
0.054601147
0.054897378
0.055186932
0.055469538
0.055744935
0.056012869
0.056273096
0.056525378
0.056769487
0.057005204
0.057232317
0.057450623
0.057659928
0.057860046
0.058050799
0.058232017
0.058403538
0.058565206
0.058716876
0.058858407
0.058989667
0.05911053
0.059220877
0.059320594
0.059409576
0.059487722
0.059554936
0.059611131
0.059656222
0.05969013
0.059712768
0.059723977
0.048057887
0.04842284
0.048787289
0.049150807
0.049513054
0.049873695
0.050232395
0.050588816
0.05094262
0.05129347
0.05164103
0.051984966
0.052324946
0.052660644
0.052991737
0.053317906
0.053638838
0.053954227
0.054263773
0.054567183
0.05486417
0.055154457
0.055437772
0.055713854
0.055982447
0.056243308
0.056496197
0.056740888
0.056977159
0.057204801
0.057423608
0.057633387
0.057833954
0.058025129
0.058206743
0.058378633
0.058540646
0.058692635
0.05883446
0.058965989
0.059087097
0.059197664
0.059297579
0.059386735
0.059465032
0.059532376
0.059588678
0.059633855
0.059667829
0.059690512
0.059701741
0.048008062
0.048373863
0.048739176
0.049103572
0.049466708
0.049828247
0.050187851
0.050545179
0.05089989
0.051251645
0.051600104
0.051944933
0.052285797
0.052622367
0.052954318
0.05328133
0.053603088
0.053919285
0.05422962
0.054533796
0.054831528
0.055122537
0.05540655
0.055683305
0.055952546
0.056214029
0.056467516
0.056712777
0.056949592
0.057177751
0.05739705
0.057607294
0.057808298
0.057999886
0.058181886
0.058354137
0.058516485
0.058668784
0.058810895
0.058942685
0.05906403
0.059174812
0.059274917
0.059364242
0.059442685
0.059510154
0.05956656
0.05961182
0.059645857
0.059668584
0.059679832
0.04795924
0.048325875
0.048692039
0.049057297
0.049421308
0.04978373
0.050144222
0.050502442
0.050858046
0.05121069
0.051560035
0.051905741
0.052247474
0.052584901
0.052917695
0.053245535
0.053568105
0.053885095
0.054196203
0.054501132
0.054799595
0.05509131
0.055376007
0.055653421
0.055923297
0.056185389
0.056439458
0.056685277
0.056922623
0.057151287
0.057371064
0.057581761
0.057783191
0.057975179
0.058157555
0.058330156
0.058492829
0.058645428
0.058787815
0.058919858
0.059041432
0.05915242
0.05925271
0.059342197
0.059420781
0.059488369
0.059544874
0.059590215
0.059624313
0.059647082
0.059658347
0.047911606
0.048279057
0.048646053
0.049012157
0.049377024
0.049740311
0.050101674
0.050460768
0.050817245
0.051170761
0.051520973
0.051867539
0.052210121
0.052548387
0.052882006
0.053210657
0.05353402
0.053851786
0.054163649
0.054469313
0.054768488
0.055060894
0.055346258
0.055624315
0.055894809
0.056157494
0.05641213
0.05665849
0.056896353
0.057125506
0.057345748
0.057556884
0.057758727
0.057951103
0.058133841
0.05830678
0.058469767
0.058622656
0.058765309
0.058897594
0.059019389
0.059130575
0.059231041
0.059320683
0.059399401
0.059467104
0.059523705
0.059569121
0.059603277
0.059626087
0.059637369
0.047865311
0.048233559
0.048601366
0.048968295
0.049333997
0.049698129
0.050060342
0.050420288
0.050777618
0.051131985
0.051483042
0.051830446
0.052173858
0.052512941
0.052847365
0.053176805
0.053500941
0.053819462
0.05413206
0.054438439
0.054738308
0.055031385
0.055317397
0.055596078
0.055867172
0.056130431
0.056385618
0.056632503
0.056870865
0.057100492
0.057321183
0.057532742
0.057734984
0.057927734
0.058110821
0.058284085
0.058447373
0.05860054
0.058743448
0.058875966
0.058997971
0.059109346
0.05920998
0.05929977
0.059378617
0.059446429
0.059503119
0.059548608
0.059582819
0.059605667
0.059616966
0.047820479
0.0481895
0.048558096
0.048925828
0.049292343
0.049657296
0.050020335
0.050381111
0.05073927
0.051094464
0.051446343
0.051794562
0.052138779
0.052478657
0.052813862
0.053144069
0.053468955
0.053788208
0.05410152
0.054408592
0.054709133
0.05500286
0.055289499
0.055568784
0.055840458
0.056104273
0.056359991
0.056607382
0.056846226
0.05707631
0.057297433
0.057509399
0.057712024
0.057905132
0.058088554
0.05826213
0.058425706
0.058579139
0.05872229
0.05885503
0.058977236
0.059088791
0.059189585
0.059279515
0.059358483
0.059426398
0.059483174
0.05952873
0.059562994
0.059585879
0.059597193
0.047777207
0.048146978
0.048516339
0.048884848
0.049252151
0.0496179
0.049981741
0.05034332
0.050702284
0.051058279
0.051410954
0.051759963
0.05210496
0.052445607
0.052781569
0.053112518
0.05343813
0.053758091
0.054072093
0.054379835
0.054681025
0.054975379
0.055262623
0.05554249
0.055814723
0.056079074
0.056335303
0.056583181
0.056822487
0.05705301
0.057274547
0.057486905
0.057689897
0.057883347
0.05806709
0.058240963
0.058404814
0.0585585
0.058701883
0.058834834
0.05895723
0.059068955
0.0591699
0.059259963
0.059339045
0.059407057
0.059463912
0.059509533
0.059543846
0.059566766
0.059578094
0.047735569
0.048106066
0.048476165
0.048845425
0.049213491
0.049580009
0.049944625
0.050306981
0.050666721
0.051023491
0.051376936
0.051726707
0.052072458
0.052413848
0.05275054
0.053082204
0.053408516
0.05372916
0.054043826
0.054352214
0.054654029
0.054948987
0.055236813
0.05551724
0.05579001
0.056054874
0.056311594
0.056559939
0.056799688
0.057030631
0.057252565
0.057465295
0.057668638
0.057862415
0.058046463
0.058220618
0.058384731
0.058538657
0.05868226
0.05881541
0.058937986
0.059049872
0.05915096
0.059241147
0.059320337
0.059388439
0.05944537
0.059491051
0.059525409
0.059548362
0.059559703
0.04769562
0.048066814
0.048437626
0.048807611
0.049176411
0.049543671
0.049909033
0.050272139
0.050632628
0.050990143
0.051344329
0.051694835
0.052041312
0.052383416
0.052720811
0.053053164
0.053380149
0.05370145
0.054016755
0.054325762
0.054628177
0.054923715
0.0552121
0.055493063
0.055766347
0.056031703
0.056288892
0.056537683
0.056777856
0.0570092
0.057231511
0.057444597
0.057648273
0.057842362
0.058026698
0.058201122
0.058365483
0.058519636
0.058663446
0.058796784
0.058919529
0.059031567
0.059132788
0.059223092
0.059302382
0.059370569
0.05942757
0.059473307
0.059507708
0.059530691
0.059542045
0.047657394
0.048029258
0.048400755
0.048771436
0.049140942
0.049508916
0.049874997
0.050238822
0.050600031
0.050958263
0.051313162
0.051664373
0.052011547
0.052354338
0.052692407
0.05302542
0.053353052
0.053674982
0.053990899
0.0543005
0.05460349
0.054899582
0.0551885
0.055469976
0.055743752
0.056009578
0.056267214
0.056516431
0.056757007
0.056988732
0.057211402
0.057424826
0.057628818
0.057823202
0.058007812
0.05818249
0.058347084
0.058501452
0.058645457
0.058778972
0.058901876
0.059014055
0.059115402
0.059205814
0.059285198
0.059353464
0.05941053
0.059456318
0.059490759
0.059513771
0.059525136
0.04762091
0.047993412
0.048365569
0.048736919
0.049107103
0.049475762
0.049842531
0.050207047
0.050568946
0.050927865
0.051283447
0.051635334
0.051983175
0.052326624
0.052665338
0.052998984
0.053327233
0.053649766
0.053966268
0.054276436
0.054579975
0.054876597
0.055166024
0.055447989
0.055722233
0.055988506
0.056246568
0.056496189
0.056737149
0.056969235
0.057192247
0.05740599
0.057610281
0.057804944
0.057989813
0.05816473
0.058329544
0.058484113
0.058628302
0.058761982
0.058885035
0.058997347
0.05909881
0.059189324
0.059268794
0.059337133
0.059394258
0.059440094
0.059474571
0.059497611
0.059508986
0.047586172
0.04795928
0.048332069
0.048704063
0.049074897
0.049444211
0.049811639
0.050176815
0.050539374
0.050898951
0.051255185
0.051607719
0.051956198
0.052300274
0.052639605
0.052973855
0.053302694
0.053625801
0.053942861
0.05425357
0.054557632
0.054854758
0.05514467
0.0554271
0.055701789
0.055968486
0.056226953
0.056476958
0.05671828
0.05695071
0.057174043
0.057388089
0.057592662
0.057787588
0.0579727
0.058147842
0.058312863
0.058467621
0.058611981
0.058745817
0.058869008
0.058981443
0.059083014
0.059173621
0.059253172
0.059321578
0.059378758
0.059424638
0.059459148
0.059482213
0.059493597
0.047553167
0.047926847
0.048300245
0.048672859
0.049044315
0.049414255
0.049782313
0.050148119
0.050511308
0.050871512
0.051228368
0.051581518
0.051930605
0.052275281
0.052615199
0.052950024
0.053279425
0.053603078
0.05392067
0.054231893
0.054536452
0.054834057
0.05512443
0.055407301
0.055682412
0.055949512
0.056208361
0.056458729
0.056700395
0.056933148
0.057156785
0.057371116
0.057575955
0.057771128
0.057956469
0.058131822
0.058297037
0.058451971
0.058596491
0.058730471
0.058853791
0.05896634
0.059068011
0.059158705
0.05923833
0.059306798
0.059364028
0.059409947
0.059444488
0.059467575
0.059478968
0.047521839
0.047896109
0.048270079
0.048643289
0.04901534
0.049385878
0.049754535
0.050120942
0.050484729
0.05084553
0.051202979
0.051556715
0.051906381
0.052251626
0.052592103
0.052927475
0.053257409
0.053581582
0.053899678
0.05421139
0.05451642
0.054814479
0.055105288
0.055388578
0.055664088
0.055931568
0.056190779
0.05644149
0.056683479
0.056916537
0.057140461
0.057355059
0.057560148
0.057755553
0.057941109
0.058116659
0.058282054
0.058437153
0.058581822
0.058715936
0.058839376
0.05895203
0.059053794
0.059144568
0.05922426
0.059292784
0.059350059
0.059396014
0.059430583
0.059453692
0.059465092
0.047867021
0.048241553
0.04861533
0.048987948
0.049359053
0.049728279
0.050095256
0.050459613
0.050820981
0.051178993
0.051533286
0.051883501
0.052229286
0.052570294
0.052906184
0.053236624
0.05356129
0.053879863
0.054192037
0.054497514
0.054796002
0.055087224
0.055370909
0.055646796
0.055914636
0.056174188
0.056425221
0.056667516
0.05690086
0.057125053
0.057339903
0.057545226
0.057740848
0.057926604
0.058102338
0.058267902
0.058423154
0.058567962
0.0587022
0.05882575
0.058938501
0.05904035
0.059131196
0.05921095
0.059279525
0.059336842
0.05938283
0.059417423
0.059440552
0.059451958
0.047839663
0.048214662
0.048588958
0.048962107
0.049333749
0.049703514
0.050071032
0.050435928
0.050797833
0.051156378
0.051511199
0.051861934
0.052208231
0.052549741
0.052886123
0.053217042
0.053542173
0.053861198
0.05417381
0.054479708
0.054778602
0.055070213
0.05535427
0.055630513
0.055898691
0.056158564
0.056409901
0.056652482
0.056886096
0.057110541
0.057325626
0.057531168
0.057726993
0.057912936
0.058088842
0.058254562
0.058409956
0.058554892
0.058689245
0.058812897
0.058925738
0.059027663
0.059118577
0.059198387
0.059267008
0.059324362
0.059370379
0.059404995
0.059428141
0.059439553
0.047813888
0.048189347
0.04856413
0.048937779
0.049309927
0.049680202
0.05004823
0.050413637
0.050776051
0.0511351
0.051490419
0.051841647
0.052188428
0.052530412
0.052867258
0.053198629
0.0535242
0.053843652
0.054156676
0.054462972
0.054762249
0.055054226
0.055338634
0.055615212
0.055883708
0.056143882
0.056395504
0.056638354
0.056872219
0.057096901
0.057312205
0.057517952
0.057713966
0.057900083
0.058076148
0.058242014
0.058397539
0.058542594
0.058677052
0.058800798
0.058913721
0.059015717
0.059106691
0.059186552
0.059255215
0.059312603
0.059358645
0.05939328
0.059416443
0.059427859
0.047789648
0.048165554
0.048540799
0.048914919
0.049287544
0.0496583
0.05002681
0.050392699
0.050755592
0.051115117
0.051470908
0.0518226
0.052169838
0.05251227
0.052849553
0.053181351
0.053507336
0.05382719
0.054140602
0.054447272
0.054746909
0.055039232
0.055323969
0.055600861
0.055869655
0.056130112
0.056382001
0.056625102
0.056859204
0.057084105
0.057299615
0.057505552
0.057701742
0.057888021
0.058064234
0.058230234
0.058385881
0.058531045
0.0586656
0.058789432
0.058902429
0.059004491
0.059095519
0.059175426
0.059244126
0.059301544
0.059347609
0.059382262
0.059405439
0.059416859
0.047766897
0.048143233
0.048518914
0.048893478
0.049266552
0.049637761
0.050006726
0.050373069
0.050736414
0.051096388
0.051452622
0.051804752
0.05215242
0.052495273
0.052832968
0.053165168
0.053491544
0.053811775
0.054125553
0.054432574
0.054732549
0.055025195
0.055310242
0.055587428
0.055856502
0.056117223
0.056369362
0.056612698
0.056847019
0.057072126
0.057287828
0.057493941
0.057690295
0.057876724
0.058053074
0.058219198
0.058374957
0.058520221
0.058654866
0.058778776
0.058891842
0.058993962
0.05908504
0.059164988
0.059233722
0.059291165
0.05933725
0.059371919
0.05939511
0.059406532
0.047745588
0.04812233
0.048498424
0.048873406
0.049246903
0.049618538
0.04998793
0.0503547
0.050718471
0.051078866
0.051435518
0.051788059
0.052136131
0.052479381
0.052817463
0.05315004
0.053476782
0.053797368
0.054111488
0.05441884
0.054719131
0.055012081
0.055297417
0.055574878
0.055844214
0.056105183
0.056357555
0.056601109
0.056835636
0.057060934
0.057276813
0.057483091
0.057679596
0.057866165
0.058042641
0.05820888
0.058364742
0.058510098
0.058644825
0.058768806
0.058881934
0.058984107
0.05907523
0.059155215
0.059223978
0.059281445
0.059327547
0.059362229
0.059385432
0.059396857
0.047725668
0.048102793
0.048479274
0.048854649
0.049228544
0.049600579
0.049970373
0.050337544
0.050701713
0.051062505
0.051419548
0.051772476
0.052120928
0.052464549
0.052802995
0.053135925
0.05346301
0.053783929
0.05409837
0.054406031
0.054706619
0.054999852
0.055285459
0.055563178
0.055832757
0.056093957
0.056346546
0.056590305
0.056825022
0.057050498
0.057266542
0.057472973
0.057669618
0.057856314
0.058032907
0.058199252
0.058355209
0.05850065
0.058635451
0.058759498
0.058872682
0.058974903
0.059066066
0.059146083
0.059214872
0.059272359
0.059318476
0.059353169
0.059376383
0.05938781
0.047707081
0.048084566
0.048461412
0.048837156
0.049211423
0.049583833
0.049954003
0.05032155
0.050686094
0.051047257
0.051404667
0.051757956
0.052106763
0.052450733
0.052789519
0.05312278
0.053450187
0.053771417
0.054086158
0.054394108
0.054694973
0.054988471
0.055274331
0.05555229
0.055822097
0.056083511
0.056336303
0.056580251
0.056815146
0.057040787
0.057256984
0.057463555
0.05766033
0.057847145
0.058023845
0.058190287
0.058346331
0.058491849
0.058626718
0.058750824
0.058864059
0.058966323
0.059057522
0.059137568
0.059206381
0.059263885
0.059310014
0.059344717
0.059367941
0.059379368
0.047689772
0.048067594
0.048444781
0.04882087
0.049195486
0.049568248
0.04993877
0.050306668
0.050671562
0.051033072
0.051390826
0.051744453
0.052093593
0.052437888
0.052776992
0.053110563
0.05343827
0.053759791
0.054074812
0.054383031
0.054684155
0.0549779
0.055263995
0.055542178
0.055812197
0.056073811
0.056326791
0.056570915
0.056805974
0.057031768
0.057248106
0.057454808
0.057651702
0.057838626
0.058015426
0.058181956
0.05833808
0.058483669
0.0586186
0.058742759
0.05885604
0.058958343
0.059049574
0.059129646
0.059198478
0.059255997
0.059302137
0.059336848
0.05936008
0.059371508
0.047673684
0.048051821
0.048429327
0.048805739
0.049180681
0.04955377
0.04992462
0.050292847
0.050658068
0.051019903
0.051377976
0.05173192
0.05208137
0.052425969
0.052765369
0.053099229
0.053427216
0.053749008
0.054064291
0.054372761
0.054674126
0.054968101
0.055254415
0.055532806
0.055803022
0.056064822
0.056317975
0.056562263
0.056797474
0.057023409
0.057239879
0.057446701
0.057643705
0.05783073
0.05800762
0.058174232
0.058330429
0.058476082
0.058611069
0.058735277
0.0588486
0.058950937
0.059042196
0.059122291
0.059191141
0.059248672
0.059294821
0.059329538
0.059352778
0.059364205
0.04765876
0.048037192
0.048414995
0.048791708
0.049166953
0.049540348
0.049911505
0.050280038
0.050645563
0.051007699
0.051366072
0.05172031
0.052070049
0.052414932
0.052754608
0.053088737
0.053416985
0.053739029
0.054054555
0.054363259
0.054664847
0.054959037
0.055245554
0.055524138
0.055794536
0.056056508
0.056309824
0.056554262
0.056789615
0.05701568
0.05723227
0.057439204
0.05763631
0.057823426
0.0580004
0.058167087
0.05832335
0.058469061
0.0586041
0.058728352
0.058841712
0.05894408
0.059035364
0.059115478
0.059184343
0.059241885
0.059288041
0.059322763
0.05934601
0.059357436
0.047644944
0.04802365
0.048401731
0.048778723
0.049154251
0.049527929
0.049899371
0.050268189
0.050633997
0.050996415
0.051355066
0.051709577
0.052059585
0.052404731
0.052744664
0.053079043
0.053407533
0.053729812
0.054045564
0.054354485
0.054656281
0.054950669
0.055237376
0.055516139
0.055786706
0.056048838
0.056302302
0.056546881
0.056782363
0.05700855
0.057225251
0.057432286
0.057629485
0.057816687
0.057993737
0.058160492
0.058316816
0.05846258
0.058597665
0.058721957
0.05883535
0.058937746
0.059029052
0.059109184
0.059178061
0.059235612
0.059281773
0.059316499
0.059339752
0.059351176
0.047632182
0.048011142
0.04838948
0.048766732
0.049142522
0.049516464
0.049888171
0.050257252
0.050623324
0.050986002
0.051344911
0.051699677
0.052049934
0.052395324
0.052735496
0.053070106
0.053398822
0.053721318
0.054037279
0.054346402
0.054648391
0.054942963
0.055229844
0.055508773
0.055779497
0.056041776
0.056295379
0.056540086
0.056775688
0.057001986
0.05721879
0.057425919
0.057623204
0.057810483
0.057987603
0.05815442
0.0583108
0.058456613
0.058591739
0.058716067
0.05882949
0.058931911
0.059023237
0.059103383
0.059172271
0.059229829
0.059275994
0.059310722
0.059333981
0.059345403
0.047620419
0.047999615
0.048378191
0.048755683
0.049131716
0.049505902
0.049877854
0.05024718
0.050613495
0.050976415
0.051335563
0.051690564
0.052041052
0.052386669
0.052727061
0.053061886
0.05339081
0.053713508
0.054029663
0.054338972
0.05464114
0.054935882
0.055222925
0.055502007
0.055772876
0.05603529
0.056289021
0.056533847
0.05676956
0.05699596
0.057212858
0.057420074
0.057617437
0.057804787
0.057981971
0.058148845
0.058305275
0.058451132
0.058586297
0.058710657
0.058824107
0.058926549
0.059017892
0.059098051
0.059166948
0.059224512
0.05927068
0.059305409
0.059328673
0.059340092
0.047609601
0.047989016
0.048367813
0.048745527
0.049121783
0.049496196
0.049868373
0.050237925
0.050604466
0.050967609
0.051326977
0.051682196
0.052032898
0.052378724
0.05271932
0.053054344
0.053383461
0.053706344
0.054022679
0.05433216
0.054634493
0.054929392
0.055216584
0.055495808
0.05576681
0.05602935
0.056283198
0.056528134
0.056763949
0.056990443
0.057207427
0.057414722
0.057612157
0.057799572
0.057976815
0.058143741
0.058300217
0.058446114
0.058581313
0.058705702
0.058819176
0.058921637
0.059012995
0.059093166
0.05916207
0.059219638
0.059265808
0.059300537
0.059323806
0.059335222
0.04759968
0.047979296
0.048358296
0.048736214
0.049112677
0.049487296
0.049859682
0.050229443
0.050596191
0.050959541
0.051319113
0.051674532
0.052025431
0.052371449
0.052712234
0.053047441
0.053376735
0.053699791
0.054016291
0.054325931
0.054628415
0.05492346
0.05521079
0.055490143
0.055761269
0.056023925
0.056277881
0.056522917
0.056758825
0.056985406
0.057202469
0.057409837
0.057607338
0.057794813
0.057972109
0.058139082
0.0582956
0.058441533
0.058576763
0.058701178
0.058814674
0.058917152
0.059008524
0.059088703
0.059157614
0.059215185
0.059261355
0.059296085
0.059319357
0.059330769
0.047590604
0.047970406
0.048349592
0.048727698
0.049104349
0.04947916
0.049851738
0.05022169
0.050588629
0.050952168
0.051311927
0.051667531
0.052018611
0.052364807
0.052705765
0.053041141
0.053370599
0.053693812
0.054010465
0.054320251
0.054622875
0.054918053
0.05520551
0.055484984
0.055756222
0.056018984
0.056273039
0.056518169
0.056754162
0.056980822
0.057197958
0.057405392
0.057602954
0.057790483
0.057967828
0.058134844
0.0582914
0.058437366
0.058572624
0.058697062
0.058810577
0.058913071
0.059004454
0.059084642
0.059153558
0.059211131
0.0592573
0.059292029
0.059315304
0.059326713
0.047582327
0.047962298
0.048341656
0.048719933
0.049096757
0.049471742
0.049844495
0.050214624
0.050581738
0.050945451
0.051305382
0.051661155
0.052012401
0.05235876
0.052699877
0.053035408
0.053365016
0.053688374
0.054005167
0.054315088
0.054617841
0.054913141
0.055200714
0.055480298
0.05575164
0.0560145
0.056268646
0.056513861
0.056749933
0.056976665
0.057193868
0.057401363
0.05759898
0.057786559
0.057963948
0.058131004
0.058287593
0.058433589
0.058568873
0.058693333
0.058806865
0.058909372
0.059000765
0.05908096
0.05914988
0.059207454
0.059253623
0.059288349
0.059311627
0.059323031
0.047574804
0.047954928
0.048334442
0.048712875
0.049089856
0.049465
0.049837914
0.050208204
0.050575479
0.050939351
0.051299438
0.051655366
0.052006765
0.052353272
0.052694535
0.053030208
0.053359954
0.053683446
0.054000367
0.054310411