/*--------------------------------*- C++ -*----------------------------------*\
| =========                 |                                                 |
| \\      /  F ield         | OpenFOAM: The Open Source CFD Toolbox           |
|  \\    /   O peration     | Version:  2312                                  |
|   \\  /    A nd           | Website:  www.openfoam.com                      |
|    \\/     M anipulation  |                                                 |
\*---------------------------------------------------------------------------*/
FoamFile
{
    version     2.0;
    format      ascii;
    arch        "LSB;label=32;scalar=64";
    class       volScalarField;
    location    "0.09";
    object      Qdot;
}
// * * * * * * * * * * * * * * * * * * * * * * * * * * * * * * * * * * * * * //

dimensions      [1 -1 -3 0 0 0 0];

internalField   nonuniform List<scalar> 
3257
(
0.84498692
0.73823857
0.64546866
0.56479564
0.49462548
0.4335697
0.38042695
0.33415446
0.29384378
0.25870912
0.22807432
0.20134102
0.17799815
0.15760483
0.13977155
0.12416655
0.11050114
0.098522899
0.088012962
0.078783168
0.070671761
0.063534979
0.057248672
0.051708503
0.04681928
0.042500992
0.038683867
0.035305551
0.032314607
0.029662144
0.027310814
0.025225842
0.023373452
0.021727134
0.02026819
0.018972493
0.017822736
0.016803255
0.015903357
0.015108694
0.014409733
0.013797413
0.013266447
0.012808519
0.012416918
0.012091644
0.011822659
0.011613683
0.011456913
0.011353804
0.011301462
0.85591481
0.74757133
0.65343517
0.57159923
0.5004362
0.4385358
0.38467602
0.33779119
0.29696182
0.26138784
0.23037353
0.20331931
0.17970379
0.15907708
0.14104603
0.12526885
0.11145839
0.099353713
0.088737626
0.079415675
0.071223948
0.064019273
0.057674801
0.05208414
0.047151154
0.04279449
0.038946529
0.035539194
0.032523866
0.029850553
0.027482102
0.025377598
0.023513877
0.021855694
0.020384359
0.019079426
0.01792096
0.016896351
0.015987751
0.015188455
0.014484891
0.013868875
0.013334472
0.012872468
0.0124814
0.012150966
0.011880541
0.011668929
0.011512289
0.01140799
0.011356182
0.87682738
0.76538877
0.66862691
0.58455926
0.51150151
0.44798882
0.39275854
0.34470948
0.30288805
0.26647233
0.23474075
0.20707711
0.18294102
0.16186656
0.14345736
0.1273582
0.11326926
0.10092629
0.090106637
0.08061183
0.072269407
0.064936979
0.058479636
0.052794562
0.047778501
0.043351434
0.03943899
0.035980097
0.03291744
0.030204312
0.027799863
0.025665557
0.023773755
0.02209397
0.020601253
0.01927826
0.01810437
0.017067485
0.01614702
0.015338115
0.014625187
0.014002321
0.013459748
0.01299286
0.012596252
0.01226306
0.011990379
0.011775985
0.011616716
0.0115111
0.011457698
0.90714732
0.79120727
0.69062382
0.60331286
0.5275015
0.46165347
0.40443776
0.35469966
0.31144554
0.2738107
0.24104117
0.21249148
0.18760436
0.16589069
0.14693112
0.13036442
0.1158728
0.10319206
0.092075569
0.082329206
0.073772519
0.066252587
0.05963875
0.053812069
0.048677743
0.044148346
0.040147818
0.036611948
0.033482835
0.030712358
0.028254475
0.026079851
0.024147952
0.02243386
0.020913879
0.019565435
0.018370849
0.017311148
0.016375001
0.015550131
0.014826527
0.014191392
0.0136388
0.01316506
0.012759872
0.012421269
0.012144771
0.01192643
0.011765438
0.011658254
0.011603663
0.94648623
0.82467243
0.71911578
0.62758818
0.54819889
0.47931347
0.41952139
0.36759796
0.3224887
0.28327161
0.24916011
0.21946911
0.19360841
0.17106483
0.15139776
0.13422584
0.11922079
0.10609623
0.094603855
0.084532977
0.075697284
0.067939255
0.061119702
0.055117406
0.049831317
0.045169419
0.041054696
0.037418628
0.034203399
0.031357764
0.028838714
0.026605682
0.024624731
0.022868721
0.021311957
0.019930524
0.01870667
0.01762324
0.016665992
0.015822934
0.015080994
0.014431488
0.013868876
0.013383272
0.012970699
0.012624454
0.012341509
0.012119724
0.011953726
0.011845352
0.011789443
0.99458355
0.86555877
0.7538931
0.65719347
0.573418
0.5008186
0.43787336
0.38327703
0.33589648
0.29475463
0.25900606
0.22792375
0.20087742
0.17732651
0.15679947
0.1388955
0.12326339
0.10960243
0.097654244
0.087190348
0.078019215
0.069970016
0.062901689
0.056687249
0.051215637
0.046394059
0.042142478
0.038386802
0.035068868
0.032134771
0.029536746
0.027235527
0.025197633
0.023388478
0.021786076
0.020366826
0.019108162
0.017996248
0.017013298
0.016145702
0.015386229
0.014720507
0.014142874
0.013644995
0.01322228
0.012866273
0.012576721
0.012348489
0.012179984
0.012067259
0.012011479
1.0512798
0.91370543
0.794809
0.69198531
0.60303068
0.52604297
0.45938137
0.40163483
0.35158375
0.30817507
0.27050304
0.23778734
0.20935341
0.18461899
0.16308725
0.14432521
0.1279626
0.11367827
0.10119211
0.09027079
0.080708743
0.072325034
0.064965844
0.058501919
0.052815784
0.047810018
0.043398512
0.039505292
0.036069247
0.03303044
0.030341041
0.027963887
0.025856504
0.0239884
0.022334067
0.020869429
0.019572414
0.018423847
0.017412413
0.016519776
0.015735385
0.015051193
0.014456406
0.013945222
0.013509706
0.013145149
0.012847024
0.012611279
0.012436296
0.012323975
0.012264628
1.1164722
0.96900477
0.84174811
0.73185744
0.636927
0.55488697
0.48394913
0.42258114
0.36946818
0.32345909
0.2835857
0.24900059
0.21897703
0.1928972
0.17021596
0.15047451
0.13327968
0.11828282
0.10519039
0.093750501
0.083742536
0.074976187
0.067290533
0.060545102
0.054617149
0.049402126
0.044809061
0.040760543
0.037189459
0.03403305
0.031243979
0.028775703
0.026592095
0.024659007
0.022947042
0.021429689
0.020089794
0.01890247
0.017857416
0.016935762
0.016127642
0.015419849
0.01480753
0.014279603
0.013830782
0.013454612
0.013148312
0.012905837
0.012726786
0.012608772
0.012549045
1.1900767
1.031359
0.89461427
0.77670989
0.6750133
0.58725483
0.51149043
0.44603976
0.38946989
0.34053873
0.29818914
0.26150335
0.22970058
0.20210575
0.17813976
0.15730658
0.1391798
0.12338866
0.10962064
0.097601649
0.087097381
0.077906742
0.069858229
0.06279964
0.05660258
0.051156033
0.046363601
0.042143011
0.038420827
0.035136262
0.032234847
0.029670466
0.027401937
0.025393562
0.02361671
0.022046108
0.020655973
0.019426983
0.018344742
0.017390786
0.016553115
0.015823719
0.015190177
0.014645098
0.014181905
0.013791622
0.013474896
0.013226631
0.0130431
0.01292008
0.012856786
1.2720049
1.1006737
0.95330116
0.82643898
0.71719047
0.62305957
0.54191455
0.47192288
0.41151345
0.3593414
0.31424529
0.27523599
0.24146602
0.21220036
0.18681828
0.16477943
0.1456271
0.12896467
0.11445065
0.10179732
0.090750603
0.081094675
0.072646362
0.065247478
0.05875785
0.053057223
0.048046297
0.04363848
0.039751462
0.036327936
0.033303096
0.030633756
0.028273602
0.026186656
0.024340057
0.022709703
0.02126632
0.0199925
0.018868317
0.017879956
0.017014082
0.016257521
0.01560169
0.015037232
0.014556887
0.014155394
0.01382762
0.013570499
0.01338011
0.013253523
0.013189445
1.3621327
1.1768297
1.017697
0.88093802
0.76335088
0.66219357
0.57512759
0.5001432
0.43552219
0.37979062
0.33169092
0.29014006
0.25421719
0.22313038
0.19620325
0.17285274
0.15258758
0.13497661
0.1196559
0.1063106
0.094678075
0.084521638
0.075642846
0.067872395
0.061065264
0.055092489
0.049848196
0.045237064
0.041177062
0.037600438
0.034446407
0.031662343
0.029202769
0.02703037
0.025110084
0.023413801
0.02191517
0.020590706
0.019425794
0.018401711
0.017503001
0.016717421
0.016037053
0.015453218
0.014957594
0.014540267
0.014202067
0.013935331
0.013738875
0.013607557
0.013540697
1.4603107
1.2596759
1.0876525
0.94005765
0.81335768
0.70453633
0.61102041
0.53060294
0.46140267
0.40180968
0.35044928
0.30614744
0.2678995
0.23484598
0.20625171
0.18148775
0.16002168
0.14139255
0.12520399
0.11112138
0.098857531
0.088161555
0.0788222
0.070658303
0.063512035
0.05724958
0.051754239
0.046927273
0.04268255
0.03894428
0.035649945
0.032746428
0.03018296
0.027921314
0.025919644
0.024154276
0.022595919
0.021222024
0.020010033
0.018945982
0.018014712
0.017201181
0.016496298
0.015889115
0.015374897
0.014944921
0.014593669
0.014318359
0.014113072
0.013978058
0.013909103
1.566321
1.3489987
1.1629779
1.0036313
0.86706189
0.74995179
0.64946269
0.56318335
0.48905128
0.42530575
0.37044359
0.3231912
0.28244647
0.24728544
0.21691065
0.19063776
0.16789089
0.14817555
0.13106455
0.11619716
0.10326087
0.091996213
0.082168465
0.073586205
0.066082894
0.059512697
0.053754187
0.04869937
0.044258846
0.040350753
0.036911643
0.033879693
0.031206792
0.028847166
0.026765484
0.024927588
0.023306463
0.02187745
0.02061919
0.019513601
0.018546867
0.017703154
0.01697176
0.016342165
0.015809226
0.015365007
0.014999764
0.01471406
0.014502699
0.014362275
0.014291468
1.679885
1.4445552
1.2434496
1.0714563
0.92428154
0.79827062
0.69031448
0.5977632
0.51835807
0.45017834
0.39158611
0.34118745
0.2977946
0.26039578
0.22812785
0.2002585
0.17615672
0.15529241
0.13720914
0.12150948
0.10787068
0.096002005
0.085663355
0.076641349
0.068761746
0.061869817
0.055832835
0.05053962
0.045893679
0.041809948
0.038217108
0.035053057
0.03226596
0.029807575
0.027639526
0.025728066
0.024040614
0.022555441
0.021248131
0.020100218
0.019095642
0.018220128
0.017462248
0.016810768
0.01625858
0.015795768
0.015419598
0.015122533
0.01490272
0.014758356
0.014684913
1.800649
1.5460323
1.3287849
1.1432852
0.98479935
0.84930956
0.73340958
0.6341945
0.54919646
0.47631989
0.41377922
0.36005549
0.31386634
0.27410815
0.23984978
0.21029825
0.18477482
0.16270354
0.14359579
0.12703303
0.11265535
0.10015892
0.08928349
0.079804365
0.071532627
0.064305128
0.057979257
0.052440932
0.047580727
0.043312807
0.039561605
0.036260543
0.033356119
0.030794625
0.028536513
0.026547394
0.024794296
0.023249898
0.02189263
0.02070014
0.019657721
0.018748992
0.017963412
0.017288737
0.016714389
0.016237076
0.015847197
0.015540241
0.015312793
0.015162477
0.01508613
1.9281918
1.6530623
1.4186763
1.2188466
1.0483756
0.90285898
0.77856716
0.67232061
0.5814309
0.50361014
0.43691849
0.37970754
0.3305831
0.28835373
0.25201445
0.22070721
0.19369938
0.1703726
0.15020079
0.13273381
0.11759083
0.10443962
0.093008432
0.083056628
0.074380487
0.066804525
0.06018277
0.054387073
0.049308123
0.044851255
0.040937094
0.037495759
0.034467224
0.031801045
0.029451438
0.027383215
0.025560345
0.023956502
0.022545679
0.021310364
0.020230501
0.019287998
0.018474087
0.017774211
0.017181018
0.016685775
0.016281653
0.015964021
0.015729061
0.015573205
0.015496478
2.0620255
1.7652169
1.512743
1.2978179
1.1147352
0.95868309
0.82558303
0.71196805
0.61490901
0.53191936
0.46089319
0.4000455
0.34786495
0.30306766
0.26456285
0.23142864
0.20288263
0.17825527
0.15698222
0.13858329
0.12264791
0.10882636
0.096820825
0.086379697
0.077287037
0.069357316
0.06242795
0.05637159
0.051067037
0.046416599
0.042334994
0.038748601
0.035596948
0.032823308
0.030379294
0.028229306
0.026336439
0.02467206
0.023209298
0.021928345
0.020806418
0.019831233
0.018988052
0.018264699
0.01764988
0.017136448
0.016719395
0.016391216
0.016147804
0.015987217
0.015906268
2.201584
1.8820192
1.6105859
1.3798505
1.1835824
1.0165301
0.87424231
0.75295038
0.64947196
0.56111302
0.4855886
0.42096965
0.36562574
0.31817
0.27743003
0.24241456
0.21228106
0.18631486
0.16391002
0.14455146
0.12780358
0.11329299
0.10069953
0.089759736
0.080239477
0.071944513
0.064705561
0.058380621
0.052847965
0.047999745
0.043747791
0.040015716
0.036735882
0.033851209
0.031314908
0.029082126
0.02711977
0.025392374
0.023875804
0.022547928
0.021389211
0.020379346
0.019505554
0.018758098
0.018120457
0.017592248
0.017160048
0.01682066
0.016570017
0.016403356
0.016320281
2.3462493
2.0029488
1.7117566
1.4645682
1.2545988
1.0761242
0.92430922
0.79507188
0.68495497
0.59104638
0.51088258
0.44237825
0.38377625
0.33358694
0.29055064
0.25360327
0.22184483
0.19450631
0.17094219
0.15060585
0.1330265
0.1178134
0.10462555
0.093173928
0.08322159
0.074555721
0.067000981
0.060405866
0.054638121
0.049590161
0.045167826
0.041288217
0.037879565
0.034884681
0.032251718
0.029936669
0.027901783
0.026113067
0.0245435
0.023168949
0.021969884
0.020924425
0.020021243
0.019248587
0.018592101
0.018042921
0.01759926
0.017247854
0.016989164
0.016818686
0.016731389
2.4953552
2.1274305
1.8157746
1.5515638
1.3274393
1.1371781
0.97554436
0.83812322
0.72118242
0.6215765
0.5366502
0.46416392
0.40222658
0.34924204
0.30386194
0.26494468
0.23152567
0.20279085
0.17805036
0.15671877
0.13829718
0.12236943
0.108574
0.096610782
0.086217388
0.077177199
0.069303381
0.06243349
0.056432757
0.051184646
0.046587481
0.042557557
0.039021282
0.035916302
0.033186554
0.030789612
0.028682883
0.026830217
0.025208842
0.023786405
0.022546334
0.021467408
0.020536519
0.019735508
0.019059515
0.018495058
0.018033435
0.017672947
0.017406339
0.017230321
0.017141454
2.6481802
2.2548689
1.9221382
1.6404282
1.4017514
1.1993955
1.0277006
0.8819016
0.75797815
0.65255148
0.56276645
0.48622067
0.42088764
0.36505928
0.3172974
0.27637837
0.24127932
0.21112998
0.18519728
0.16285861
0.14358551
0.12693574
0.11253114
0.10004817
0.089215061
0.079799229
0.071603685
0.064458736
0.058221197
0.052771617
0.048000812
0.043822011
0.040158114
0.036941444
0.034115188
0.031634514
0.029456072
0.027541957
0.025865457
0.024398473
0.023119114
0.022004821
0.021043223
0.020219543
0.01952139
0.018938468
0.018465918
0.018093817
0.017819445
0.017636293
0.017544264
2.8039807
2.3846466
2.0303301
1.7307127
1.4771765
1.2624746
1.0805241
0.9261889
0.79516392
0.6838221
0.58910471
0.50844096
0.43966891
0.38096435
0.33079302
0.28785244
0.25105827
0.21947938
0.19234684
0.16899396
0.14886697
0.13149465
0.11647564
0.1034721
0.092196745
0.082405148
0.073888025
0.066468826
0.05999805
0.054345407
0.049403063
0.045076073
0.041280955
0.037953412
0.035034464
0.032470059
0.030219743
0.028245522
0.026516281
0.025002365
0.023681848
0.022536468
0.021544791
0.020696322
0.019975476
0.019376742
0.018889417
0.018506922
0.018223695
0.018037001
0.017943654
2.9619982
2.5161251
2.1398289
1.8219938
1.5533485
1.3261118
1.1337552
0.97077765
0.83256724
0.71524091
0.61553764
0.53072346
0.45848266
0.39688183
0.34428226
0.29931461
0.26081506
0.22780955
0.19947054
0.17510425
0.15412156
0.13602483
0.12039402
0.10687204
0.095154474
0.084986682
0.07615061
0.068457952
0.061752993
0.055900075
0.050785531
0.046310198
0.042389836
0.038952981
0.035937119
0.033293229
0.030971169
0.028934972
0.027153794
0.025593309
0.02423457
0.023054098
0.02203528
0.021162548
0.020421545
0.019805659
0.019305403
0.018912362
0.018620431
0.018428853
0.018332222
3.1214574
2.6486683
2.2500974
1.9138215
1.6299009
1.390006
1.1871485
1.0154552
0.870008
0.74666341
0.64195372
0.55296534
0.47724709
0.41274127
0.35771327
0.31071268
0.27051043
0.23607538
0.20653519
0.18115706
0.15932312
0.1405073
0.12426572
0.11022742
0.098071951
0.087531961
0.078378385
0.070415829
0.063478544
0.05742876
0.052144522
0.04752206
0.043477488
0.039930795
0.036823964
0.034098316
0.031706639
0.029610586
0.027776789
0.026174135
0.024775703
0.02356174
0.022515625
0.021618509
0.020858098
0.020225212
0.019711399
0.019307529
0.019009808
0.018810564
0.018712339
3.2815935
2.7816418
2.3606175
2.0057679
1.7064791
1.4538594
1.2404569
1.0600229
0.90731691
0.77794612
0.66822899
0.57507036
0.49587834
0.42847337
0.37102745
0.32200056
0.28010268
0.24424598
0.2135144
0.18713287
0.16445113
0.14492328
0.12807811
0.11352952
0.10094131
0.090032797
0.080565407
0.072335054
0.065171131
0.058927673
0.053474655
0.048710045
0.044539696
0.040889232
0.037687712
0.034883363
0.032425763
0.030271172
0.028385947
0.026737655
0.025302189
0.02405539
0.022980791
0.022061386
0.021281751
0.020633562
0.020106292
0.019691212
0.019385849
0.01918332
0.019082055
3.4416503
2.9144246
2.4708774
2.0974157
1.7827408
1.5173919
1.2934509
1.1042843
0.9443381
0.80896173
0.69425346
0.59694519
0.51429888
0.44401558
0.38416547
0.33313311
0.28955832
0.25229399
0.22037809
0.19300558
0.16949104
0.14925462
0.1318177
0.11676519
0.10375188
0.092481971
0.082706969
0.07421436
0.066825618
0.060388866
0.05477129
0.049866126
0.045576047
0.041819839
0.038531449
0.035647568
0.033123536
0.030911976
0.028975726
0.027285897
0.025812588
0.024534798
0.023433179
0.022491363
0.021692729
0.021029385
0.020487872
0.020064753
0.019750155
0.019543807
0.01943938
3.6009017
3.0464187
2.5803889
2.188365
1.8583547
1.5803313
1.3459039
1.1480606
0.98092128
0.83958176
0.71992348
0.61850435
0.53243831
0.459307
0.39708355
0.34407077
0.29883756
0.26018562
0.22710731
0.19875776
0.17441915
0.15349262
0.13547026
0.1199241
0.10649178
0.094866111
0.08478903
0.076039582
0.06843369
0.061807713
0.056032735
0.050988312
0.046580502
0.042722495
0.039346023
0.036389637
0.03379834
0.031532342
0.029547164
0.027815949
0.026307427
0.024998928
0.023871324
0.022905909
0.022089466
0.021409502
0.02085678
0.02042339
0.020102191
0.019891364
0.019786282
3.7586447
3.1770532
2.6886883
2.2782357
1.9330136
1.64242
1.3976094
1.191171
1.0169249
0.86968996
0.74514497
0.63967297
0.55023203
0.47429703
0.40973824
0.35477403
0.30791112
0.26789581
0.2336775
0.20436833
0.17922516
0.15762093
0.13902791
0.12299757
0.10915573
0.097184322
0.086811243
0.07781193
0.069992048
0.063185701
0.057253146
0.052076497
0.047552518
0.043597475
0.040134765
0.037106003
0.034451947
0.032129102
0.030099505
0.028327409
0.026784482
0.02544656
0.024292728
0.023306996
0.022471176
0.021776589
0.021212917
0.020770695
0.020441579
0.020226934
0.020118156
3.9142013
3.3057919
2.7953433
2.366683
2.0064345
1.7034349
1.448372
1.2334674
1.0522165
0.89918426
0.76983167
0.66037086
0.56762256
0.48893102
0.42208247
0.36520722
0.31674916
0.27540321
0.24006733
0.20982545
0.18389432
0.16163003
0.14247795
0.12597611
0.11173686
0.099426866
0.088770057
0.079525084
0.071497941
0.064513731
0.058430456
0.053122869
0.048488922
0.044438431
0.040894772
0.037792016
0.03507982
0.03270451
0.03062756
0.028816708
0.027240412
0.025874815
0.024696323
0.0236903
0.022837075
0.022127971
0.02155296
0.021100443
0.020766725
0.020547195
0.020436444
4.0668976
3.4321794
2.8999702
2.4533835
2.0783475
1.7631508
1.4980207
1.2748017
1.0866805
0.92796178
0.79390447
0.68054029
0.5845545
0.50317346
0.43408313
0.37534534
0.32533195
0.28268618
0.24626333
0.21510691
0.18841236
0.16550541
0.14581117
0.12885418
0.11422808
0.10159373
0.090657911
0.081178665
0.072948563
0.065793342
0.059562281
0.054130357
0.04939001
0.045246551
0.041623254
0.038454447
0.035681996
0.033255914
0.031135324
0.02928544
0.027678031
0.026285543
0.025082659
0.024055519
0.023188731
0.022465507
0.021877854
0.02141742
0.021077248
0.020854807
0.020741273
3.5557455
3.002224
2.5380529
2.1485229
1.8213812
1.5464015
1.3150488
1.1202111
0.95594189
0.81729216
0.70012273
0.60097959
0.51698074
0.44571171
0.38516071
0.33363627
0.28972737
0.25224917
0.22020987
0.19277456
0.16924369
0.14902599
0.13162625
0.11662595
0.10367463
0.092470615
0.082764317
0.074340671
0.067020763
0.060649125
0.055095522
0.050250877
0.046018673
0.042319434
0.039085231
0.036254751
0.033781591
0.031619616
0.029734795
0.028095206
0.026675955
0.025452634
0.02440639
0.023522579
0.02278605
0.022188628
0.021719088
0.021373908
0.021145806
0.021030825
3.6763473
3.1018256
2.6204382
2.2167512
1.8779537
1.5933702
1.3540958
1.1527195
0.98305176
0.83993541
0.71906909
0.61686119
0.53031891
0.45693999
0.39462952
0.34164365
0.2965138
0.25801294
0.22511925
0.19696855
0.17283615
0.15211134
0.13428676
0.11892491
0.10566982
0.094208962
0.084282989
0.07567396
0.068195033
0.061687475
0.056017555
0.051073491
0.046755857
0.042985156
0.039685411
0.036802993
0.034282504
0.032080302
0.030161861
0.02849394
0.02704724
0.025802697
0.024738516
0.023837834
0.023091818
0.022481601
0.02200601
0.021655542
0.021422555
0.021307324
3.7934049
3.1984536
2.7003063
2.2828464
1.932718
1.638807
1.391847
1.184127
1.0092242
0.86178438
0.73733617
0.63216687
0.5431658
0.4677453
0.4037392
0.34933801
0.30303047
0.26354837
0.22983111
0.20098711
0.17627748
0.15506773
0.13683257
0.12112739
0.10757799
0.095868714
0.085733507
0.076944487
0.069313272
0.06267662
0.056895949
0.051857753
0.047459833
0.043616602
0.040258441
0.037323688
0.03475837
0.032517921
0.030565455
0.028870765
0.027400215
0.026134694
0.025053641
0.024139532
0.023379121
0.022761132
0.022278286
0.021920177
0.021686405
0.021568924
3.9065916
3.2918459
2.7774536
2.3466494
1.9855525
1.6826093
1.4282152
1.2143699
1.0344101
0.88278922
0.75489467
0.64686416
0.55549532
0.47811099
0.4124715
0.35670907
0.30926917
0.26884091
0.23433412
0.20483193
0.17956455
0.15788832
0.13925943
0.12322463
0.10939438
0.097447767
0.087111342
0.078153444
0.070376669
0.063616462
0.057730985
0.052600355
0.048123428
0.04421612
0.040800892
0.037815083
0.035209042
0.032933404
0.030950732
0.029226902
0.027734063
0.026449163
0.025350706
0.024422606
0.023651519
0.023025895
0.022534341
0.022173731
0.021933764
0.021814561
4.0156429
3.3817862
2.8517102
2.4080269
2.0363431
1.7246971
1.4631421
1.243393
1.0585651
0.90293124
0.7717148
0.66093888
0.56729531
0.48802097
0.42081646
0.36375238
0.31522627
0.27389216
0.23862908
0.20849213
0.18269392
0.1605723
0.14156816
0.12521745
0.11112006
0.098949309
0.088420245
0.079299634
0.071383218
0.064506469
0.058518796
0.053302455
0.048753686
0.04478217
0.041312479
0.038281186
0.03563479
0.033323816
0.031309902
0.029561406
0.028047092
0.026743324
0.025630496
0.024689465
0.02390864
0.023272972
0.022776159
0.022408287
0.022167002
0.02204517
4.1203604
3.4681096
2.9229409
2.4668696
2.0850158
1.7650033
1.4965683
1.2711534
1.0816604
0.92217322
0.78777414
0.6743704
0.57854995
0.49747242
0.42876687
0.37045731
0.32089487
0.27869661
0.24271044
0.21197253
0.18566721
0.16311968
0.14375956
0.12710503
0.11275502
0.10036828
0.089658722
0.080383193
0.072336899
0.065347303
0.059265338
0.053966454
0.049346628
0.045314447
0.041794266
0.038718676
0.036035627
0.033691156
0.031650074
0.029877726
0.028342436
0.0270222
0.025894071
0.024941045
0.024149796
0.023505959
0.023001229
0.022630599
0.022386532
0.022262726
4.2205713
3.5506836
2.9910468
2.5231006
2.1314984
1.8034783
1.5284612
1.2976264
1.1036697
0.94050384
0.80306449
0.68714924
0.58925134
0.50645102
0.43631723
0.37682422
0.32627417
0.28325314
0.24658056
0.21526593
0.1884796
0.1655302
0.14583069
0.12889217
0.11430007
0.1017103
0.090827201
0.081405578
0.073234297
0.066138674
0.059966403
0.054590921
0.049906475
0.045816549
0.042247438
0.03913006
0.036409952
0.034035679
0.031969428
0.030173069
0.028619185
0.02728195
0.026140896
0.025176006
0.024374995
0.023722731
0.0232139
0.022837859
0.022590501
0.022466574
4.3161663
3.6294087
3.0559445
2.5766593
2.175747
1.8400902
1.5587896
1.3227901
1.1245796
0.95790702
0.81757853
0.69927147
0.59939709
0.51496344
0.44347129
0.38284986
0.33136023
0.28755944
0.2502355
0.21837658
0.19113697
0.16780387
0.14778263
0.13057328
0.11575254
0.10297132
0.091925787
0.082366926
0.074078286
0.066879934
0.060625266
0.0551766
0.050429395
0.046287003
0.042671874
0.039515716
0.036760671
0.034359384
0.03226596
0.030449568
0.028878813
0.027525079
0.026371376
0.02539488
0.024583849
0.023926296
0.023412079
0.023030498
0.022781295
0.022656706
4.4070468
3.7042227
3.1175899
2.6275123
2.2177438
1.8748178
1.5875431
1.3466354
1.1443835
0.97438064
0.83130961
0.71073709
0.60899015
0.52300113
0.45022554
0.38853557
0.33616124
0.29162101
0.25368053
0.22130686
0.1936374
0.16994224
0.14961855
0.13215552
0.1171196
0.10415801
0.092958217
0.083265481
0.074867813
0.067578362
0.061240093
0.055723653
0.050918443
0.046727122
0.043069016
0.039875542
0.037087538
0.034658423
0.032543648
0.030707725
0.02911772
0.027752123
0.026584582
0.025598445
0.024781243
0.024115901
0.023596549
0.023213649
0.022960629
0.022833912
4.4931763
3.7750906
3.1759591
2.6756352
2.2574698
1.9076529
1.6147202
1.369165
1.1630875
0.98993605
0.84425881
0.72154766
0.61802729
0.53057577
0.45658451
0.39388826
0.34067508
0.29543973
0.25691857
0.22405914
0.19598281
0.17194983
0.15133972
0.13363647
0.11840121
0.10526476
0.093921255
0.084108411
0.075607503
0.068228782
0.061815501
0.056234578
0.051373718
0.047134939
0.043436484
0.040208734
0.037392368
0.034937146
0.032802337
0.030947319
0.029341754
0.027961381
0.026782355
0.025788981
0.024962267
0.024289946
0.023765182
0.023378992
0.023125438
0.022997411
4.574535
3.8420085
3.2310488
2.7210383
2.2949338
1.938602
1.6403278
1.3903789
1.1806898
1.0045653
0.85644595
0.73170951
0.62651988
0.53768708
0.46255375
0.39890946
0.34491044
0.29901636
0.25994959
0.22663739
0.19817866
0.17382582
0.15294675
0.13502012
0.11959261
0.10630033
0.094819688
0.08489518
0.076293792
0.068833459
0.062350414
0.05671004
0.051797621
0.047514271
0.043780223
0.040520446
0.037675596
0.035197962
0.03304046
0.031168692
0.029548885
0.028155588
0.026965887
0.025963026
0.025131055
0.024452531
0.023923416
0.023532599
0.02327679
0.023148382
4.6511424
3.9049951
3.2828802
2.7637376
2.3301525
1.9676905
1.6643824
1.4102997
1.197212
1.0182943
0.86786882
0.74123478
0.63447611
0.54434855
0.46814028
0.40360548
0.34886759
0.30236171
0.2627807
0.22904078
0.20022606
0.17557523
0.1544483
0.13630806
0.1207065
0.10726233
0.095657482
0.085623944
0.076932623
0.069394633
0.062846718
0.057149633
0.05219016
0.047867117
0.044095476
0.040806432
0.037937852
0.035437274
0.033261583
0.031372135
0.029740335
0.028335173
0.027135985
0.026123895
0.025283596
0.024602975
0.02406938
0.023676058
0.023417496
0.023288403
4.7230438
3.9640845
3.3314901
2.8037682
2.3631581
1.9949354
1.6869041
1.4289433
1.2126693
1.031128
0.87854673
0.75013347
0.64190864
0.55056509
0.47335481
0.40798509
0.35255653
0.30547499
0.26541855
0.23128094
0.20213186
0.1772023
0.15584172
0.13750528
0.12173812
0.10815629
0.096431982
0.086298344
0.077524376
0.06991545
0.063305283
0.057559195
0.052553276
0.048191606
0.044388191
0.041071446
0.038179137
0.035659052
0.033463304
0.031559889
0.029915035
0.028499609
0.027291437
0.026272085
0.025426123
0.024739705
0.024201354
0.023806591
0.023545774
0.02341643
4.7903059
4.0193392
3.3769269
2.8411741
2.3939867
2.0203736
1.7079242
1.4463381
1.2270865
1.0430965
0.8884984
0.75842384
0.64882799
0.55635289
0.47820433
0.41206012
0.35598522
0.30837046
0.26786864
0.2333579
0.20389972
0.17870935
0.15713147
0.13861309
0.12269142
0.10898062
0.097149255
0.086923992
0.078071429
0.070393668
0.06372934
0.057933239
0.052885935
0.048490516
0.04465796
0.041314324
0.038399855
0.035861177
0.033650806
0.031732745
0.03007656
0.028649116
0.027433706
0.026409752
0.025556527
0.024864699
0.024324504
0.023925512
0.023664444
0.023533255
4.853018
4.0708378
3.4192618
2.8760121
2.4226891
2.0440519
1.7274797
1.4625171
1.2404888
1.0542177
0.89774206
0.76612214
0.65524918
0.5617198
0.48270183
0.41583639
0.35916391
0.31105156
0.27013598
0.23527979
0.20553125
0.18010409
0.15832343
0.1396352
0.12357322
0.10974247
0.097809314
0.087497532
0.078572745
0.070834321
0.064116186
0.058276726
0.053193548
0.048763448
0.044904001
0.041536887
0.038602385
0.036044054
0.033819967
0.031890704
0.03022331
0.028788756
0.027563584
0.026532368
0.025673603
0.024977957
0.024435126
0.024035356
0.023771249
0.023639655
4.9112882
4.1186704
3.4585683
2.9083465
2.4493172
2.0660127
1.7456158
1.4775119
1.2529061
1.0645174
0.90630139
0.77324533
0.66119044
0.56668403
0.48685831
0.41932255
0.36209657
0.31352538
0.27222608
0.23704922
0.20703912
0.18138808
0.15942123
0.14057611
0.12438441
0.11044022
0.098416095
0.088023233
0.079033683
0.07123832
0.064473383
0.058591447
0.053472277
0.049014624
0.045127882
0.041741139
0.03878645
0.036213747
0.033974762
0.032034566
0.030355033
0.028914406
0.027682254
0.026644308
0.025781597
0.025083848
0.024535202
0.02413371
0.023869732
0.023737102
4.9652298
4.1629353
3.494927
2.9382519
2.4739467
2.0863132
1.7623752
1.4913646
1.2643754
1.0740274
0.9141972
0.77981553
0.66666653
0.57125666
0.4906873
0.42253606
0.36479902
0.31579955
0.27414771
0.23867892
0.20842252
0.18256526
0.16042831
0.14144001
0.12512329
0.11108024
0.098968282
0.088505956
0.079453646
0.071607381
0.064797339
0.058878088
0.053727676
0.049242856
0.045333169
0.041924266
0.038954575
0.036367096
0.034115972
0.032163507
0.030477397
0.029026347
0.027789842
0.026745978
0.025880232
0.025177195
0.024626575
0.024222706
0.023956099
0.023823591
5.0149853
4.2037491
3.5284502
2.9658106
2.4966332
2.1050114
1.7778014
1.5041134
1.2749241
1.0827684
0.92145675
0.78585251
0.67169881
0.57545934
0.49420063
0.42548136
0.36727203
0.31788521
0.27590951
0.24016807
0.20968779
0.18364196
0.1613468
0.14222796
0.12580207
0.11166329
0.099473822
0.088945292
0.079835607
0.071943073
0.065092026
0.059139438
0.053959879
0.049448547
0.045518294
0.042092391
0.039105393
0.036504083
0.034243748
0.032281391
0.03058683
0.029129738
0.027885163
0.026836946
0.025966317
0.025261306
0.024709247
0.024302748
0.024036141
0.023901912
5.0606913
4.2412262
3.559224
2.9911125
2.5174513
2.1221641
1.7919494
1.5157962
1.2845918
1.0907803
0.9281034
0.79137844
0.6763023
0.57930072
0.49741307
0.42817193
0.36953411
0.31978862
0.27751336
0.24152931
0.21084043
0.18462294
0.16218247
0.14294393
0.12641517
0.11219413
0.099932663
0.089343217
0.080182379
0.072245807
0.065359694
0.059374246
0.054169922
0.049634457
0.04568561
0.042241898
0.039242656
0.036628415
0.03435847
0.032387792
0.030683469
0.029221234
0.027971401
0.026919213
0.026045698
0.025336998
0.02478256
0.024373806
0.024108008
0.023973907
5.1025016
4.2754988
3.5873623
3.0142394
2.5364773
2.1378352
1.8048754
1.5264676
1.2934174
1.0980873
0.93416729
0.7964218
0.68049678
0.5828014
0.5003381
0.43062439
0.37159072
0.32151799
0.27897508
0.24276265
0.21188577
0.18551294
0.16294169
0.14359184
0.12697211
0.11267275
0.10034562
0.089702234
0.08049566
0.072518457
0.065599919
0.059585477
0.054356364
0.049801774
0.045833549
0.042375845
0.039363177
0.036740638
0.034458522
0.032479416
0.030769958
0.029301656
0.028048532
0.026992802
0.026115315
0.025404109
0.024847294
0.024438693
0.024170241
0.024036263
5.1405616
4.3066933
3.6129738
3.0352843
2.5537924
2.1520924
1.8166261
1.536169
1.3014364
1.1047279
0.93967475
0.80099073
0.68430361
0.58597534
0.50298859
0.43284347
0.373453
0.32308546
0.28029307
0.24387654
0.21283167
0.18631274
0.16362467
0.14417727
0.12747397
0.11310311
0.10071824
0.09002437
0.080775854
0.072764651
0.06581272
0.059775205
0.054523398
0.0499509
0.045966994
0.04249639
0.03947261
0.036838458
0.034549111
0.03256381
0.030848812
0.029373903
0.028117366
0.027056476
0.02617742