/*--------------------------------*- C++ -*----------------------------------*\
| =========                 |                                                 |
| \\      /  F ield         | OpenFOAM: The Open Source CFD Toolbox           |
|  \\    /   O peration     | Version:  2312                                  |
|   \\  /    A nd           | Website:  www.openfoam.com                      |
|    \\/     M anipulation  |                                                 |
\*---------------------------------------------------------------------------*/
FoamFile
{
    version     2.0;
    format      ascii;
    arch        "LSB;label=32;scalar=64";
    class       volScalarField;
    location    "0.09";
    object      T;
}
// * * * * * * * * * * * * * * * * * * * * * * * * * * * * * * * * * * * * * //

dimensions      [0 0 0 1 0 0 0];

internalField   nonuniform List<scalar> 
3257
(
355.39456
354.36634
353.35246
352.35288
351.36784
350.39769
349.44277
348.50342
347.57997
346.67276
345.7821
344.90831
344.05168
343.21253
342.39114
341.5878
340.8028
340.0364
339.2889
338.56054
337.85161
337.16235
336.49302
335.84387
335.21514
334.60709
334.01994
333.45394
332.9093
332.38625
331.88502
331.40582
330.94886
330.51435
330.1025
329.71348
329.34751
329.00477
328.68544
328.38971
328.11774
327.8697
327.64577
327.44609
327.27084
327.12015
326.99419
326.8931
326.81703
326.76614
326.74059
355.49634
354.46506
353.44811
352.44548
351.45746
350.48441
349.52667
348.5846
347.65851
346.74874
345.85561
344.97943
344.1205
343.27912
342.45558
341.65018
340.86318
340.09487
339.34552
338.6154
337.90476
337.21387
336.54297
335.89232
335.26216
334.65274
334.06428
333.49702
332.9512
332.42702
331.92472
331.44451
330.98659
330.55118
330.13847
329.74866
329.38195
329.03852
328.71855
328.42222
328.14972
327.90119
327.67682
327.47675
327.30116
327.15018
327.02396
326.92266
326.84639
326.79529
326.76942
355.68761
354.6502
353.62731
352.61891
351.62528
350.64678
349.68376
348.73656
347.80551
346.89094
345.99317
345.1125
344.24924
343.40368
342.57611
341.76681
340.97607
340.20415
339.45133
338.71786
338.00401
337.31004
336.63619
335.98271
335.34984
334.73782
334.14688
333.57727
333.02919
332.50288
331.99855
331.51641
331.05668
330.61955
330.20523
329.81391
329.44579
329.10105
328.77987
328.48243
328.2089
327.95945
327.73425
327.53344
327.3572
327.20567
327.079
326.97732
326.90079
326.84951
326.82354
355.95747
354.91142
353.88014
352.86359
351.86206
350.8759
349.90545
348.95105
348.01303
347.09172
346.18742
345.30044
344.43108
343.57964
342.74639
341.93161
341.13559
340.35858
339.60086
338.86269
338.14431
337.44599
336.76797
336.11049
335.47379
334.85811
334.26368
333.69073
333.13947
332.61014
332.10294
331.61808
331.15578
330.71623
330.29963
329.90618
329.53606
329.18947
328.86657
328.56755
328.29258
328.04182
327.81544
327.6136
327.43644
327.28413
327.15681
327.05462
326.97769
326.92616
326.90005
356.29525
355.23842
354.19667
353.16997
352.15858
351.16286
350.18314
349.21976
348.27304
347.34331
346.43087
345.53602
344.65905
343.80025
342.9599
342.13828
341.33566
340.55229
339.78845
339.04438
338.32034
337.61658
336.93334
336.27085
335.62936
335.00909
334.41028
333.83315
333.27791
332.74479
332.23399
331.74573
331.2802
330.83761
330.41816
330.02203
329.64941
329.30049
328.97544
328.67443
328.39765
328.14525
327.9174
327.71424
327.53595
327.38266
327.25453
327.15169
327.07428
327.02242
326.99615
356.69086
355.62146
354.5675
353.52894
352.50606
351.49918
350.50864
349.53478
348.57791
347.63835
346.71639
345.81234
344.92647
344.05908
343.21044
342.38081
341.57047
340.77966
340.00865
339.25769
338.52702
337.81688
337.12752
336.45918
335.81207
335.18643
334.58248
334.00044
333.44053
332.90297
332.38795
331.89569
331.42638
330.98023
330.55742
330.15814
329.78259
329.43094
329.10336
328.80003
328.52112
328.2668
328.03721
327.83252
327.65289
327.49845
327.36937
327.26577
327.18779
327.13555
327.10909
357.13486
356.05141
354.98382
353.93201
352.89626
351.8769
350.87427
349.88867
348.92044
347.96987
347.03727
346.12291
345.22709
344.35007
343.49213
342.65352
341.83452
341.03537
340.25633
339.49763
338.75952
338.04223
337.34601
336.67107
336.01766
335.38598
334.77626
334.18872
333.62356
333.081
332.56124
332.06449
331.59093
331.14077
330.71419
330.31138
329.93253
329.5778
329.24738
328.94144
328.66014
328.40364
328.17211
327.9657
327.78456
327.62883
327.49867
327.39422
327.3156
327.26294
327.23626
357.61851
356.51983
355.43743
354.37125
353.32154
352.28863
351.27285
350.27452
349.29395
348.33142
347.38724
346.46168
345.55502
344.66753
343.79948
342.95111
342.12269
341.31446
340.52666
339.75954
339.01332
338.28825
337.58455
336.90244
336.24215
335.60389
334.98788
334.39433
333.82345
333.27545
332.75051
332.24886
331.77066
331.31613
330.88543
330.47877
330.09631
329.73823
329.40471
329.09592
328.812
328.55314
328.31949
328.11119
327.9284
327.77128
327.63995
327.53456
327.45525
327.40213
327.37521
358.13377
357.01894
355.92083
354.83938
353.77484
352.72755
351.69781
350.68594
349.69224
348.71701
347.76052
346.82305
345.90487
345.00624
344.12742
343.26866
342.43021
341.61231
340.8152
340.0391
339.28425
338.55088
337.83921
337.14945
336.48183
335.83656
335.21384
334.61389
334.03691
333.48309
332.95264
332.44575
331.96261
331.50341
331.06832
330.65754
330.27124
329.90959
329.57275
329.26091
328.97421
328.71283
328.4769
328.2666
328.08206
327.92343
327.79085
327.68447
327.60442
327.5508
327.52363
358.67334
357.54165
356.42715
355.32976
354.24975
353.18743
352.14312
351.11711
350.1097
349.12118
348.15182
347.2019
346.27167
345.36139
344.47131
343.60168
342.75274
341.92472
341.11784
340.33235
339.56846
338.8264
338.10638
337.40861
336.73331
336.08069
335.45094
334.84428
334.26089
333.70098
333.16475
332.65237
332.16404
331.69994
331.26026
330.84516
330.45482
330.08942
329.74911
329.43407
329.14445
328.88042
328.64212
328.4297
328.24332
328.08312
327.94924
327.84181
327.76098
327.70685
327.67942
359.23061
358.08157
356.95019
355.8364
354.74045
353.66265
352.60332
351.56273
350.54119
349.53898
348.55635
347.59358
346.65093
345.72863
344.82694
343.94608
343.0863
342.24783
341.43089
340.63569
339.86246
339.11142
338.38277
337.67673
336.99349
336.33326
335.69625
335.08264
334.49264
333.92644
333.38422
332.86617
332.37247
331.90331
331.45886
331.03929
330.64478
330.27549
329.9316
329.61325
329.32061
329.05383
328.81307
328.59848
328.41019
328.24836
328.11313
328.00463
327.92299
327.86832
327.84062
359.79967
358.63297
357.48441
356.35391
355.24172
354.14816
353.07351
352.01808
350.98213
349.96596
348.9698
347.99394
347.0386
346.10404
345.19049
344.29818
343.42735
342.5782
341.75097
340.94587
340.1631
339.40288
338.66542
337.95091
337.25956
336.59157
335.94713
335.32643
334.72966
334.15701
333.60867
333.08482
332.58564
332.11129
331.66197
331.23784
330.83906
330.4658
330.11823
329.7965
329.50077
329.23119
328.98791
328.77109
328.58086
328.41736
328.28075
328.17114
328.08869
328.03348
328.0055
360.37525
359.19075
358.02485
356.8775
355.74893
354.63945
353.54935
352.47892
351.42843
350.39815
349.38833
348.39922
347.43108
346.48412
345.55859
344.6547
343.77268
342.91275
342.07511
341.25998
340.46756
339.69806
338.95167
338.2286
337.52904
336.85318
336.20122
335.57333
334.96971
334.39054
333.836
333.30627
332.80153
332.32194
331.86768
331.43892
331.03581
330.65853
330.30724
329.98208
329.68322
329.4108
329.16497
328.94589
328.75369
328.58851
328.45049
328.33978
328.25649
328.20073
328.17247
360.95272
359.75041
358.56717
357.40294
356.25797
355.13256
354.02698
352.94153
351.87646
350.83205
349.80853
348.80616
347.82517
346.86578
345.92823
345.01272
344.11949
343.24873
342.40065
341.57545
340.77335
339.99453
339.23918
338.50751
337.7997
337.11595
336.45642
335.82132
335.21082
334.62509
334.06432
333.52869
333.01835
332.53349
332.07427
331.64086
331.23341
330.85208
330.49705
330.16845
329.86644
329.59116
329.34278
329.12142
328.92724
328.76037
328.62095
328.50911
328.42499
328.36868
328.34014
361.52805
360.30803
359.10755
357.92655
356.76527
355.62401
354.50304
353.40264
352.32307
351.26459
350.22745
349.21186
348.21808
347.24631
346.29679
345.36971
344.4653
343.58375
342.72526
341.89004
341.07828
340.29016
339.52589
338.78564
338.06961
337.37797
336.71091
336.0686
335.45123
334.85896
334.29198
333.75045
333.23454
332.74442
332.28024
331.84219
331.4304
331.04504
330.68627
330.35423
330.04908
329.77096
329.52002
329.2964
329.10024
328.93169
328.79086
328.67791
328.59296
328.5361
328.50729
362.09774
360.86023
359.64271
358.44512
357.26773
356.11079
354.9746
353.85943
352.76552
351.69312
350.64248
349.61383
348.60739
347.62337
346.66199
345.72345
344.80797
343.91573
343.04694
342.20178
341.38044
340.58312
339.80999
339.06124
338.33705
337.6376
336.96306
336.31362
335.68943
335.09068
334.51754
333.97016
333.44872
332.95337
332.48429
332.04163
331.62554
331.23618
330.8737
330.53825
330.22999
329.94905
329.69557
329.46971
329.27159
329.10136
328.95915
328.84509
328.75932
328.70191
328.67283
362.65878
361.40408
360.16981
358.95593
357.76268
356.59034
355.43918
354.30946
353.20144
352.11535
351.05144
350.00991
348.991
347.99492
347.02187
346.07205
345.14565
344.24289
343.36393
342.50898
341.67821
340.87181
340.08995
339.33282
338.60059
337.89343
337.21152
336.55503
335.92413
335.31898
334.73975
334.18661
333.65971
333.15921
332.68528
332.23807
331.81774
331.42443
331.0583
330.71949
330.40815
330.12442
329.86845
329.64037
329.44033
329.26845
329.12487
329.00972
328.92314
328.8652
328.83585
363.20865
361.93714
360.68649
359.45666
358.2479
357.06047
355.89465
354.75069
353.62885
352.52935
351.45242
350.39829
349.36717
348.35926
347.37476
346.41388
345.47679
344.5637
343.67478
342.81022
341.97019
341.15488
340.36446
339.5991
338.85898
338.14426
337.45511
336.79171
336.15421
335.54278
334.95757
334.39876
333.86651
333.36095
332.88227
332.43059
332.00609
331.6089
331.23918
330.89707
330.58272
330.29626
330.03783
329.80758
329.60564
329.43214
329.28722
329.17101
329.08363
329.02517
328.99555
363.74525
362.45736
361.19074
359.94537
358.72148
357.51935
356.33924
355.1814
354.04608
352.9335
351.84388
350.77745
349.73441
348.71495
347.71928
346.74759
345.80007
344.87689
343.97824
343.10429
342.25523
341.43121
340.63242
339.85902
339.11119
338.38908
337.69285
337.02269
336.37874
335.76116
335.17012
334.60577
334.06827
333.55778
333.07444
332.6184
332.18982
331.78884
331.41561
331.07027
330.75297
330.46383
330.20301
329.97064
329.76685
329.59177
329.44554
329.32828
329.24013
329.18117
329.15129
364.26683
362.96304
361.68093
360.42047
359.1819
357.9655
356.77151
355.60018
354.45176
353.32647
352.22452
351.14613
350.0915
349.06082
348.05429
347.07209
346.11441
345.18142
344.2733
343.39022
342.53235
341.69987
340.89293
340.11171
339.35636
338.62705
337.92394
337.24719
336.59695
335.97339
335.37667
334.80692
334.26432
333.74901
333.26113
332.80084
332.36829
331.96362
331.58697
331.23849
330.91831
330.62658
330.36342
330.12898
329.92339
329.74677
329.59927
329.481
329.3921
329.33264
329.30252
364.77202
363.45285
362.15575
360.88069
359.62792
358.39769
357.19027
356.00589
354.84479
353.70719
352.5933
351.50332
350.43746
349.39591
348.37885
347.38647
346.41894
345.47644
344.55913
343.6672
342.8008
341.9601
341.14525
340.35644
339.5938
338.8575
338.14771
337.46457
336.80824
336.17887
335.57662
335.00164
334.45408
333.93409
333.44182
332.9774
332.541
332.13274
331.75277
331.40124
331.07828
330.78402
330.5186
330.28215
330.07481
329.89671
329.74797
329.62872
329.53909
329.47916
329.4488
365.25972
363.92574
362.61418
361.32504
360.05857
358.81501
357.59462
356.39765
355.22431
354.07482
352.9494
351.84824
350.77153
349.71948
348.69225
347.69002
346.71298
345.76128
344.83511
343.93461
343.05996
342.21131
341.38882
340.59266
339.82297
339.07992
338.36366
337.67433
337.0121
336.37712
335.76953
335.18948
334.63712
334.11261
333.61607
333.14767
332.70753
332.2958
331.91263
331.55814
331.23248
330.93578
330.66817
330.42979
330.22076
330.04122
329.89129
329.77109
329.68076
329.62037
329.58978
365.72913
364.38089
363.05544
361.75276
360.47311
359.21673
357.98388
356.77478
355.58966
354.42873
353.29221
352.18028
351.09313
350.03096
348.99393
347.98222
346.99601
346.03546
345.10072
344.19197
343.30936
342.45305
341.6232
340.81995
340.04347
339.2939
338.5714
337.87611
337.20819
336.56778
335.95503
335.3701
334.81311
334.28423
333.78358
333.31133
332.86759
332.45252
332.06625
331.70891
331.38065
331.08159
330.81187
330.57162
330.36097
330.18004
330.02896
329.90786
329.81685
329.75602
329.72521
366.17967
364.81777
363.47898
362.16333
360.87104
359.60236
358.35754
357.13681
355.94038
354.76848
353.62129
352.49902
351.40184
350.32995
349.28351
348.26269
347.26767
346.2986
345.35564
344.43895
343.5487
342.68502
341.84808
341.03802
340.25499
339.49915
338.77065
338.06962
337.39622
336.7506
336.13289
335.54325
334.98181
334.44872
333.94413
333.46816
333.02096
332.60267
332.21342
331.85334
331.52258
331.22126
330.94951
330.70746
330.49524
330.31298
330.1608
330.03882
329.94717
329.88592
329.8549
366.61098
365.236
363.88447
362.5564
361.25201
359.97157
358.7153
357.48343
356.27618
355.09376
353.93636
352.80418
351.6974
350.61619
349.56073
348.53118
347.52771
346.55047
345.59963
344.67533
343.77774
342.90699
342.06325
341.24665
340.45735
339.6955
338.96123
338.25469
337.57604
336.9254
336.30294
335.70878
335.14306
334.60594
334.09755
333.61802
333.1675
332.74611
332.354
331.9913
331.65814
331.35464
331.08095
330.83718
330.62346
330.43992
330.28668
330.16387
330.0716
330.00995
329.97873
367.02285
365.6354
364.27171
362.93179
361.61587
360.32419
359.05699
357.81449
356.5969
355.40443
354.23727
353.09562
351.97965
350.88954
349.82545
348.78755
347.776
346.79095
345.83257
344.90099
343.99637
343.11886
342.26861
341.44576
340.65045
339.88283
339.14304
338.43124
337.74755
337.09212
336.46509
335.8666
335.29679
334.75581
334.24378
333.76084
333.30713
332.88279
332.48794
332.12272
331.78726
331.48168
331.20612
330.96071
330.74555
330.56079
330.40655
330.28294
330.19008
330.12805
330.09664
367.41527
366.01594
364.64068
363.28949
361.96258
360.66021
359.38259
358.12995
356.9025
355.70045
354.52399
353.37331
352.24858
351.14997
350.07765
349.03178
348.01252
347.02002
346.05443
345.1159
344.20457
343.3206
342.46413
341.6353
340.83425
340.06113
339.31608
338.59923
337.91073
337.25071
336.61933
336.0167
335.44298
334.8983
334.3828
333.8966
333.43985
333.01268
332.61521
332.24759
331.90993
331.60237
331.32503
331.07804
330.86152
330.67559
330.52039
330.39602
330.3026
330.24021
330.20862
367.7883
366.37769
364.99147
363.62958
362.29224
360.97969
359.69217
358.42989
357.19307
355.9819
354.79659
353.63731
352.50423
351.39754
350.31738
349.26392
348.23731
347.23771
346.26526
345.3201
344.40239
343.51226
342.64987
341.81534
341.00882
340.23045
339.48036
338.75871
338.06562
337.40123
336.76569
336.15912
335.58167
335.03346
334.51464
334.02534
333.56569
333.13581
332.73585
332.36594
332.02618
331.71673
331.43769
331.18921
330.97138
330.78435
330.62823
330.50314
330.40919
330.34646
330.3147
368.14215
366.72088
365.32428
363.95227
362.60504
361.28284
359.98591
358.71448
357.46876
356.24894
355.05521
353.88776
352.74676
351.63238
350.54477
349.4841
348.45051
347.44415
346.46517
345.51372
344.58993
343.69395
342.82591
341.98596
341.17423
340.39087
339.636
338.90977
338.21231
337.54377
336.90426
336.29394
335.71293
335.16137
334.6394
334.14714
333.68472
333.25228
332.84994
332.47784
332.1361
331.82484
331.54419
331.29428
331.07522
330.88713
330.73015
330.60437
330.50992
330.44687
330.41495
368.47697
367.04586
365.63945
364.25786
362.90126
361.56992
360.26408
358.98397
357.72981
356.50178
355.30008
354.12489
352.97638
351.8547
350.76003
349.69251
348.65229
347.63953
346.65435
345.69692
344.76736
343.86582
342.99242
342.14732
341.33065
340.54254
339.78313
339.05255
338.35094
337.67844
337.03518
336.42129
335.8369
335.28215
334.75718
334.2621
333.79706
333.36218
332.95759
332.58341
332.23978
331.92681
331.64463
331.39336
331.17313
330.98405
330.82623
330.69981
330.60489
330.54154
330.50947
367.353
365.93739
364.54673
363.18126
361.84127
360.527
359.23868
357.97653
356.74073
355.53149
354.34896
353.19333
352.06476
350.96339
349.88939
348.8429
347.82406
346.83302
345.86991
344.93489
344.02807
343.1496
342.29962
341.47826
340.68564
339.92192
339.18722
338.48168
337.80542
337.15859
336.54131
335.95372
335.39595
334.86813
334.37039
333.90286
333.46566
333.05893
332.68278
332.33735
332.02276
331.73914
331.48659
331.26524
331.07521
330.91662
330.78959
330.69422
330.63058
330.59837
367.64327
366.21864
364.81933
363.44545
362.09728
360.77504
359.47896
358.20926
356.96613
355.74975
354.5603
353.39795
352.26285
351.15515
350.07502
349.02259
347.99801
347.00142
346.03296
345.09275
344.18095
343.29768
342.44307
341.61727
340.8204
340.05259
339.31399
338.60472
337.92491
337.2747
336.65421
336.06359
335.50295
334.97244
334.47217
334.00227
333.56288
333.15412
332.77612
332.42899
332.11287
331.82786
331.5741
331.3517
331.16079
331.00146
330.87385
330.77806
330.71416
330.68182
367.91665
366.48357
365.07608
363.69427
362.33837
361.00862
359.70523
358.42841
357.17836
355.95525
354.75927
353.59057
352.44931
351.33564
350.24973
349.19169
348.16169
347.15986
346.18633
345.24123
344.32472
343.43691
342.57793
341.74793
340.94704
340.17538
339.43308
338.72028
338.03712
337.38371
336.76019
336.1667
335.60335
335.07028
334.56762
334.0955
333.65404
333.24336
332.8636
332.51486
332.19729
331.91099
331.65608
331.43269
331.24093
331.08092
330.95276
330.85658
330.79243
330.75996
368.17364
366.73265
365.31748
363.92819
362.56502
361.22819
359.91791
358.6344
357.37783
356.14838
354.94624
353.77156
352.6245
351.50521
350.41384
349.35053
348.31541
347.30864
346.33033
345.38063
344.45967
343.56757
342.70448
341.87052
341.06582
340.29052
339.54474
338.82862
338.14228
337.48585
336.85947
336.26327
335.69736
335.16189
334.65697
334.18274
333.73932
333.32684
332.94541
332.59516
332.27622
331.98869
331.73271
331.50838
331.31583
331.15516
331.0265
330.92995
330.86557
330.83299
368.41478
366.9664
365.54402
364.14772
362.77772
361.43423
360.11748
358.82767
357.56497
356.32957
355.12164
353.94134
352.78882
351.66424
350.56773
349.49945
348.45953
347.44809
346.46529
345.51125
344.5861
343.68997
342.823
341.98531
341.17703
340.3983
339.64923
338.92997
338.24064
337.58137
336.95229
336.35353
335.78522
335.24747
334.74043
334.26421
333.81895
333.40475
333.02176
332.67009
332.34985
332.06117
331.80417
331.57897
331.38567
331.22439
331.09525
330.99835
330.93376
330.90108
368.64069
367.18539
365.75626
364.35338
362.97697
361.62724
360.30442
359.00869
357.74024
356.49925
355.28588
354.1003
352.94266
351.81311
350.71178
349.63883
348.59438
347.57858
346.59155
345.63342
344.70434
343.80442
342.93379
342.09259
341.28094
340.49898
339.74683
339.02461
338.33247
337.67052
337.0389
336.43774
335.86715
335.32727
334.81822
334.34013
333.89313
333.47733
333.09287
332.73985
332.4184
332.12864
331.87068
331.64465
331.45065
331.2888
331.15921
331.06199
330.9972
330.96442
368.85195
367.39019
365.95475
364.54571
363.16329
361.80773
360.47921
359.17794
357.9041
356.65787
355.43941
354.24888
353.08643
351.95222
350.84637
349.76904
348.72035
347.70044
346.70944
345.74749
344.8147
343.91122
343.03717
342.19267
341.37786
340.59286
339.8378
339.11282
338.41803
337.75356
337.11955
336.51612
335.9434
335.40151
334.89059
334.41074
333.9621
333.5448
333.15894
332.80466
332.48207
332.19129
331.93244
331.70563
331.51098
331.34859
331.21859
331.12107
331.05609
331.02322
369.04919
367.5814
366.14005
364.72525
363.33723
361.9762
360.64236
359.33591
358.05703
356.80589
355.58266
354.3875
353.22056
352.08197
350.97189
349.89046
348.83779
347.81404
346.81932
345.85378
344.91753
344.01071
343.13344
342.28585
341.46807
340.68022
339.92244
339.19485
338.49758
337.83076
337.1945
336.58895
336.01423
335.47045
334.95776
334.47626
334.02609
333.60737
333.22021
332.86475
332.54109
332.24936
331.98966
331.76213
331.56686
331.40397
331.27357
331.17577
331.11064
331.07768
369.23301
367.75959
366.31274
364.89257
363.49931
362.13318
360.79437
359.48308
358.19949
356.94377
355.71609
354.5166
353.34545
352.20279
351.08875
350.00347
348.94709
347.91974
346.92155
345.95264
345.01315
344.1032
343.22292
342.37243
341.55187
340.76136
340.00103
339.271
338.5714
337.90237
337.26401
336.65647
336.07987
335.53432
335.01997
334.53693
334.08532
333.66527
333.2769
332.92032
332.59566
332.30303
332.04255
331.81434
331.6185
331.45514
331.32438
331.22632
331.16103
331.128
369.40401
367.92535
366.47338
365.04821
363.65007
362.27918
360.93574
359.61994
358.33196
357.07197
355.84014
354.63661
353.46154
352.31506
351.19733
350.10847
349.04862
348.01791
347.01647
346.04442
345.10189
344.18902
343.30593
342.45273
341.62957
340.83657
340.07385
339.34154
338.63976
337.96865
337.32833
336.71893
336.14057
335.59337
335.07747
334.59298
334.14002
333.71873
333.32922
332.9716
332.64601
332.35254
332.09133
331.86248
331.6661
331.50231
331.37121
331.27291
331.20748
331.17438
369.56281
368.07927
366.62253
365.19271
363.79004
362.41473
361.06698
359.74698
358.45491
357.19095
355.95524
354.74795
353.56922
352.4192
351.29803
350.20583
349.14274
348.1089
347.10442
346.12945
345.18409
344.26849
343.38277
342.52705
341.70146
340.90613
340.14118
339.40674
338.70293
338.02989
337.38773
336.77658
336.19658
335.64783
335.13048
334.64464
334.19043
333.76797
333.37739
333.01881
332.69233
332.39809
332.13619
331.90674
331.70987
331.54567
331.41426
331.31574
331.25018
331.21702
369.70999
368.22192
366.76076
365.32662
363.91974
362.54032
361.18857
359.86467
358.5688
357.30114
356.06184
354.85105
353.66893
352.5156
351.39122
350.29592
349.22982
348.19306
347.18576
346.20806
345.26007
344.34193
343.45376
342.59568
341.76783
340.97033
340.2033
339.46687
338.76116
338.08631
337.44244
336.82967
336.24813
335.69795
335.17924
334.69213
334.23675
333.81321
333.42164
333.06215
332.73486
332.43989
332.17734
331.94735
331.75001
331.58543
331.45373
331.35501
331.28933
331.25612
369.84612
368.35387
366.8886
365.45046
364.03967
362.65645
361.30099
359.97347
358.67408
357.40299
356.16035
354.94632
353.76104
352.60466
351.4773
350.37911
349.31022
348.27074
347.26082
346.28058
345.33015
344.40964
343.51919
342.65893
341.82897
341.02944
340.26048
339.5222
338.81473
338.13819
337.49272
336.87844
336.29548
335.74395
335.22398
334.73569
334.27922
333.85467
333.46217
333.10183
332.77378
332.47813
332.215
331.98449
331.78671
331.62179
331.48982
331.39091
331.32513
331.29187
369.97177
368.47564
367.00659
365.56475
364.15035
362.7636
361.40471
360.07385
358.7712
357.49693
356.2512
355.03416
353.84596
352.68674
351.55663
350.45576
349.38427
348.34229
347.32993
346.34734
345.39463
344.47193
343.57937
342.71706
341.88515
341.08374
340.31298
339.57298
338.86386
338.18577
337.53881
336.92313
336.33883
335.78605
335.26491
334.77553
334.31804
333.89255
333.49918
333.13807
332.80931
332.51303
332.24934
332.01835
331.82018
331.65493
331.52271
331.42363
331.35776
331.32445
370.0875
368.58779
367.11523
365.66998
364.25225
362.86226
361.50019
360.16624
358.86058
357.58337
356.33479
355.11498
353.92407
352.76223
351.62956
350.52622
349.45233
348.40802
347.39341
346.40864
345.45382
344.52909
343.63456
342.77037
341.93664
341.13349
340.36106
339.61946
338.90883
338.22928
337.58095
336.96395
336.37842
335.82448
335.30225
334.81185
334.35342
333.92705
333.53289
333.17104
332.84163
332.54476
332.28056
332.04913
331.85059
331.68504
331.55259
331.45336
331.3874
331.35405
370.19383
368.69082
367.21504
365.76665
364.34585
362.95286
361.58787
360.25107
358.94264
357.66273
356.41151
355.18914
353.99574
352.83147
351.69646
350.59083
349.51472
348.46826
347.45157
346.46478
345.50801
344.5814
343.68506
342.81912
341.98371
341.17895
340.40497
339.6619
338.94985
338.26896
337.61935
337.00114
336.41447
335.85945
335.33621
334.84487
334.38556
333.95839
333.56348
333.20096
332.87093
332.57352
332.30885
332.07701
331.87812
331.7123
331.57964
331.48026
331.41423
331.38084
370.29128
368.78523
367.3065
365.85522
364.4316
363.03586
361.66819
360.32877
359.01778
357.73539
356.48175
355.25701
354.06133
352.89483
351.75764
350.64991
349.57176
348.52331
347.5047
346.51605
345.55749
344.62914
343.73113
342.86358
342.02661
341.22036
340.44496
339.70051
338.98716
338.30503
337.65423
337.03491
336.44718
335.89116
335.36699
334.87478
334.41465
333.98673
333.59114
333.22799
332.8974
332.59949
332.33437
332.10216
331.90296
331.73688
331.60403
331.50452
331.43842
331.405
370.38034
368.87151
367.39007
365.93615
364.50995
363.11169
361.74156
360.39973
359.0864
357.80172
356.54586
355.31897
354.12117
352.95262
351.81345
350.70378
349.62375
348.57348
347.55311
346.56275
345.60253
344.67258
343.77302
342.90398
342.06559
341.25797
340.48124
339.73554
339.02098
338.3377
337.68582
337.06546
336.47675
335.91981
335.39478
334.90176
334.44089
334.01228
333.61605
333.25232
332.92121
332.62284
332.35732
332.12475
331.92526
331.75894
331.62592
331.52629
331.46014
331.42669
370.46149
368.95011
367.4662
366.00987
364.58132
363.18075
361.80837
360.46435
359.14887
357.86211
356.60421
355.37533
354.17561
353.00519
351.86419
350.75275
349.67099
348.61905
347.59705
346.60512
345.64338
344.71196
343.81099
342.94058
342.10088
341.29199
340.51405
339.76719
339.05152
338.36719
337.7143
337.09299
336.50338
335.9456
335.41977
334.92601
334.46444
334.03519
333.63838
333.27412
332.94253
332.64373
332.37783
332.14495
331.94519
331.77866
331.64547
331.54573
331.47953
331.44606
370.53517
369.02148
367.53533
366.0768
364.64611
363.24345
361.86901
360.52298
359.20555
357.91688
356.65713
355.42644
354.22496
353.05283
351.91016
350.7971
349.71377
348.6603
347.63681
346.64344
345.68031
344.74755
343.84527
342.97361
342.1327
341.32265
340.5436
339.79567
339.07899
338.39368
337.73987
337.11769
336.52725
335.96869
335.44213
334.94769
334.48549
334.05565
333.6583
333.29355
332.96152
332.66233
332.39609
332.16291
331.9629
331.79617
331.66284
331.563
331.49676
331.46327
370.60183
369.08604
367.59786
366.13736
364.70472
363.30015
361.92385
360.576
359.25678
357.96638
356.70494
355.47261
354.26953
353.09584
351.95165
350.83711
349.75235
348.69748
347.67264
346.67796
345.71355
344.77956
343.87609
343.00329
342.16127
341.35017
340.5701
339.82119
339.10358
338.41738
337.76273
337.13974
336.54854
335.98927
335.46204
334.96697
334.50419
334.07381
333.67597
333.31077
332.97834
332.67878
332.41222
332.17877
331.97854
331.81163
331.67816
331.57824
331.51196
331.47846
370.66187
369.1442
367.6542
366.19192
364.75753
363.35123
361.97323
360.62373
359.3029
358.01093
356.74796
355.51414
354.30961
353.1345
351.98894
350.87306
349.78699
348.73085
347.70478
346.7089
345.74334
344.80822
343.90367
343.02983
342.1868
341.37473
340.59373
339.84393
339.12547
338.43846
337.78303
337.15931
336.56743
336.0075
335.47965
334.98401
334.52069
334.08983
333.69153
333.32592
332.99312
332.69323
332.42639
332.19269
331.99225
331.82518
331.69159
331.59158
331.52528
331.49176
370.71567
369.19634
367.70473
366.24085
364.80488
363.39703
362.0175
360.6665
359.34422
358.05083
356.78648
355.55132
354.34548
353.16909
352.02229
350.9052
349.81794
348.76065
347.73347
346.7365
345.76989
344.83375
343.92822
343.05342
342.20948
341.39653
340.61469
339.86408
339.14484
338.45709
337.80096
337.17657
336.58405
336.02353
335.49512
334.99896
334.53516
334.10385
333.70514
333.33915
333.00601
332.70582
332.43871
332.20479
332.00416
331.83694
331.70324
331.60316
331.53683
331.5033
370.76355
369.24287
367.7498
366.28451
364.84712
363.43787
362.05697
360.70463
359.38104
358.08637
356.82079
355.58442
354.37741
353.19987
352.05195
350.93376
349.84544
348.78711
347.75892
346.76097
345.79341
344.85635
343.94993
343.07427
342.22951
341.41575
340.63314
339.8818
339.16186
338.47344
337.81667
337.19168
336.59859
336.03752
335.50861
335.01197
334.54773
334.116
333.71692
333.35059
333.01714
332.71668
332.44933
332.2152
332.0144
331.84704
331.71324
331.6131
331.54675
331.51321
369.28412
367.78978
366.32323
364.88459
363.47409
362.09195
360.7384
359.41364
358.11784
356.85115
355.61371
354.40564
353.22708
352.07815
350.95898
349.86971
348.81045
347.78135
346.78252
345.8141
344.87622
343.96899
343.09256
342.24704
341.43257
340.64927
339.89727
339.17669
338.48766
337.83032
337.20478
336.61116
336.04961
335.52024
335.02317
334.55852
334.12643
333.72701
333.36037
333.02664
332.72593
332.45836
332.22405
332.02309
331.85561
331.72172
331.62152
331.55515
331.52161
369.32047
367.82501
366.35734
364.91758
363.50597
362.12273
360.76811
359.4423
358.14548
356.87782
355.63942
354.43043
353.25095
352.10113
350.98109
349.89096
348.83087
347.80095
346.80134
345.83215
344.89353
343.98558
343.10846
342.26227
341.44715
340.66323
339.91063
339.18948
338.49991
337.84204
337.21601
336.62193
336.05993
335.53014
335.03269
334.56768
334.13525
333.73552
333.36861
333.03463
332.73369
332.46593
332.23144
332.03034
331.86275
331.72878
331.62852
331.56215
331.5286
369.35212
367.85581
366.38714
364.9464
363.5338
362.14959
360.794
359.46727
358.16957
356.90104
355.66181
354.45199
353.27171
352.1211
351.00028
349.9094
348.84857
347.81793
346.81761
345.84775
344.90846
343.99987
343.12213
342.27534
341.45964
340.67516
339.92203
339.20037
338.51031
337.85198
337.2255
336.631
336.06861
335.53845
335.04065
334.57532
334.14259
333.74258
333.37542
333.04121
332.74007
332.47213
332.23749
332.03627
331.86858
331.73453
331.63422
331.56784
331.53429
367.88246
366.41292
364.97132
363.55785
362.17277
360.81635
359.4888
358.19032
356.92104
355.68108
354.47055
353.28957
352.13826
351.01677
349.92521
348.86373
347.83246
346.83152
345.86105
344.92117
344.01202
343.13372
342.2864
341.4702
340.68522
339.93162
339.2095
338.51901
337.86026
337.23339
336.63852
336.07577
335.54528
335.04716
334.58155
334.14855
333.7483
333.3809
333.04649
332.74518
332.47708
332.2423
332.04097
331.87318
331.73906
331.63872
331.57232
331.53878
367.90529
366.43497
364.99261
363.57837
362.19254
360.83538
359.50712
358.20797
356.93805
355.69746
354.48631
353.30472