/*--------------------------------*- C++ -*----------------------------------*\
| =========                 |                                                 |
| \\      /  F ield         | OpenFOAM: The Open Source CFD Toolbox           |
|  \\    /   O peration     | Version:  2312                                  |
|   \\  /    A nd           | Website:  www.openfoam.com                      |
|    \\/     M anipulation  |                                                 |
\*---------------------------------------------------------------------------*/
FoamFile
{
    version     2.0;
    format      ascii;
    arch        "LSB;label=32;scalar=64";
    class       volScalarField;
    location    "0.03";
    object      CH4;
}
// * * * * * * * * * * * * * * * * * * * * * * * * * * * * * * * * * * * * * //

dimensions      [0 0 0 0 0 0 0];

internalField   nonuniform List<scalar> 
3224
(
2.4670388e-06
2.133503e-06
1.8451261e-06
1.5959703e-06
1.3807846e-06
1.194949e-06
1.0344484e-06
8.9580947e-07
7.7603219e-07
6.7252652e-07
5.8305734e-07
5.0569655e-07
4.3878139e-07
3.8087828e-07
3.307514e-07
2.873355e-07
2.4971234e-07
2.1709031e-07
1.887869e-07
1.6421352e-07
1.4286241e-07
1.2429542e-07
1.081343e-07
9.4052319e-08
8.1767138e-08
7.1034583e-08
6.1643344e-08
5.3410382e-08
4.6176997e-08
3.9805425e-08
3.4175914e-08
2.918421e-08
2.4739383e-08
2.076196e-08
1.7182315e-08
1.3939288e-08
1.0978994e-08
8.2537961e-09
5.72142e-09
3.3441729e-09
1.088131e-09
2.4688097e-06
2.1354618e-06
1.8470435e-06
1.5977366e-06
1.3823743e-06
1.1963653e-06
1.0357035e-06
8.9691829e-07
7.7700974e-07
6.7338713e-07
5.8381431e-07
5.0636198e-07
4.3936614e-07
3.8139203e-07
3.3120274e-07
2.8773201e-07
2.5006069e-07
2.1739636e-07
1.890558e-07
1.6444978e-07
1.4306998e-07
1.2447775e-07
1.0829441e-07
9.4192861e-08
8.1890415e-08
7.1142611e-08
6.173788e-08
5.3492961e-08
4.6248953e-08
3.9867918e-08
3.4229951e-08
2.9230664e-08
2.4779006e-08
2.07954e-08
1.7210128e-08
1.3961949e-08
1.0996904e-08
8.2672925e-09
5.730782e-09
3.3496391e-09
1.0899483e-09
2.4715769e-06
2.1383467e-06
1.8497305e-06
1.6001601e-06
1.384532e-06
1.1982748e-06
1.0373876e-06
8.9840053e-07
7.7831244e-07
6.7453093e-07
5.8481794e-07
5.0724221e-07
4.4013793e-07
3.8206862e-07
3.3179582e-07
2.8825185e-07
2.5051634e-07
2.1779575e-07
1.8940586e-07
1.6475658e-07
1.4333884e-07
1.2471333e-07
1.0850075e-07
9.4373506e-08
8.2048458e-08
7.1280745e-08
6.1858456e-08
5.3598023e-08
4.6340277e-08
3.9947046e-08
3.4298219e-08
2.9289227e-08
2.4828859e-08
2.0837399e-08
1.7245004e-08
1.3990324e-08
1.1019303e-08
8.284153e-09
5.7424643e-09
3.3564382e-09
1.0921845e-09
2.4754029e-06
2.142143e-06
1.8531602e-06
1.6032121e-06
1.3872309e-06
1.2006532e-06
1.0394792e-06
9.0023723e-07
7.7992368e-07
6.7594339e-07
5.8605549e-07
5.0832614e-07
4.4108706e-07
3.8289959e-07
3.3252325e-07
2.8888862e-07
2.510737e-07
2.1828358e-07
1.8983281e-07
1.6513022e-07
1.4366577e-07
1.2499932e-07
1.0875085e-07
9.4592115e-08
8.2239407e-08
7.1447372e-08
6.2003673e-08
5.3724357e-08
4.6449926e-08
4.0041913e-08
3.4379955e-08
2.9359253e-08
2.4888403e-08
2.088751e-08
1.7286579e-08
1.4024126e-08
1.1045973e-08
8.3042263e-09
5.7563773e-09
3.3645404e-09
1.0948334e-09
2.865444e-06
2.4809796e-06
2.1469223e-06
1.8573655e-06
1.6069178e-06
1.3904914e-06
1.2035175e-06
1.0419923e-06
9.0244005e-07
7.8185325e-07
6.7763271e-07
5.875339e-07
5.096196e-07
4.4221848e-07
3.838891e-07
3.3338856e-07
2.8964524e-07
2.5173524e-07
2.1886195e-07
1.9033842e-07
1.6557216e-07
1.4405201e-07
1.2533679e-07
1.090456e-07
9.4849429e-08
8.2463885e-08
7.1643029e-08
6.217398e-08
5.3872341e-08
4.6578214e-08
4.0152783e-08
3.4475374e-08
2.9440921e-08
2.4957781e-08
2.094585e-08
1.7334949e-08
1.4063431e-08
1.1076975e-08
8.327557e-09
5.7725547e-09
3.3739745e-09
1.0979098e-09
2.8743014e-06
2.4874792e-06
2.1523786e-06
1.8621063e-06
1.6110689e-06
1.3941304e-06
1.2067063e-06
1.0447849e-06
9.0488445e-07
7.8399181e-07
6.7950301e-07
5.891691e-07
5.1104891e-07
4.4346759e-07
3.8498057e-07
3.3434217e-07
2.9047833e-07
2.5246297e-07
2.1949759e-07
1.9089357e-07
1.6605695e-07
1.4447527e-07
1.2570624e-07
1.0936797e-07
9.5130568e-08
8.2708901e-08
7.1856359e-08
6.2359485e-08
5.4033374e-08
4.6717682e-08
4.0273203e-08
3.4578922e-08
2.9529473e-08
2.503295e-08
2.1009017e-08
1.7387293e-08
1.4105945e-08
1.1110495e-08
8.3527789e-09
5.7900473e-09
3.3841874e-09
1.1012388e-09
2.8827109e-06
2.4945765e-06
2.1583807e-06
1.8673004e-06
1.6156016e-06
1.3980947e-06
1.2101744e-06
1.0478184e-06
9.0753692e-07
7.8631042e-07
6.8152924e-07
5.9093942e-07
5.1259534e-07
4.4481822e-07
3.8616004e-07
3.3537206e-07
2.9137751e-07
2.5324796e-07
2.2018282e-07
1.9149166e-07
1.665789e-07
1.4493068e-07
1.261035e-07
1.0971437e-07
9.5432462e-08
8.2971826e-08
7.2085127e-08
6.2558281e-08
5.4205829e-08
4.6866943e-08
4.0401997e-08
3.4689604e-08
2.9624073e-08
2.5113209e-08
2.1076428e-08
1.7443126e-08
1.4151275e-08
1.1146225e-08
8.3796578e-09
5.8086887e-09
3.3950799e-09
1.1047873e-09
2.8920182e-06
2.5028272e-06
2.165415e-06
1.8733809e-06
1.620897e-06
1.4027181e-06
1.2142138e-06
1.0513478e-06
9.1062023e-07
7.890036e-07
6.8388122e-07
5.9299308e-07
5.1438823e-07
4.4638324e-07
3.8752597e-07
3.365641e-07
2.924177e-07
2.5415555e-07
2.2097464e-07
1.9218238e-07
1.6718135e-07
1.4545603e-07
1.2656149e-07
1.1011349e-07
9.5780102e-08
8.3274414e-08
7.2348251e-08
6.2786799e-08
5.4403953e-08
4.7038326e-08
4.0549796e-08
3.4816549e-08
2.9732514e-08
2.5205165e-08
2.1153626e-08
1.7507036e-08
1.4203141e-08
1.1187091e-08
8.4103911e-09
5.829998e-09
3.4075338e-09
1.1088429e-09
3.3529471e-06
2.9033225e-06
2.5123797e-06
2.173569e-06
1.8804278e-06
1.6270267e-06
1.4080634e-06
1.2188791e-06
1.0554205e-06
9.1417565e-07
7.921072e-07
6.865901e-07
5.9535712e-07
5.1645107e-07
4.4818303e-07
3.8909608e-07
3.3793369e-07
2.9361226e-07
2.5519735e-07
2.2188311e-07
1.9297449e-07
1.6787189e-07
1.4605791e-07
1.2708593e-07
1.1057029e-07
9.6177783e-08
8.3620382e-08
7.2648947e-08
6.3047815e-08
5.463014e-08
4.7233887e-08
4.0718367e-08
3.4961267e-08
2.9856082e-08
2.5309904e-08
2.1241521e-08
1.7579774e-08
1.4262152e-08
1.1233572e-08
8.4453363e-09
5.8542218e-09
3.4216907e-09
1.113451e-09
3.3695059e-06
2.9163965e-06
2.5233311e-06
2.1829291e-06
1.8885197e-06
1.6340611e-06
1.4141925e-06
1.2242243e-06
1.0600836e-06
9.1824414e-07
7.9565683e-07
6.8968683e-07
5.9805849e-07
5.1880728e-07
4.5023795e-07
3.9088806e-07
3.3949621e-07
2.9497456e-07
2.5638497e-07
2.2291833e-07
1.9387675e-07
1.6865814e-07
1.4674292e-07
1.2768257e-07
1.1108976e-07
9.6629826e-08
8.4013477e-08
7.2990458e-08
6.3344134e-08
5.4886812e-08
4.7455712e-08
4.0909498e-08
3.5125288e-08
2.9996078e-08
2.5428524e-08
2.1341028e-08
1.7662096e-08
1.4328917e-08
1.1286146e-08
8.4848518e-09
5.8816074e-09
3.4376934e-09
1.1186578e-09
3.9161644e-06
3.387717e-06
2.931186e-06
2.5357632e-06
2.1935803e-06
1.8977344e-06
1.6420697e-06
1.4211669e-06
1.2303033e-06
1.0653842e-06
9.2286668e-07
7.9968821e-07
6.9320251e-07
6.011242e-07
5.2148037e-07
4.5256848e-07
3.929197e-07
3.4126712e-07
2.9651805e-07
2.577301e-07
2.2409046e-07
1.9489799e-07
1.6954777e-07
1.4751773e-07
1.2835719e-07
1.1167692e-07
9.7140596e-08
8.4457483e-08
7.337606e-08
6.367859e-08
5.5176415e-08
4.770591e-08
4.1125002e-08
3.5310162e-08
3.0153821e-08
2.5562139e-08
2.1453082e-08
1.7754771e-08
1.4404059e-08
1.1345301e-08
8.5293047e-09
5.9124085e-09
3.4556891e-09
1.124511e-09
3.9396191e-06
3.4076248e-06
2.9477094e-06
2.5497576e-06
2.2056073e-06
1.9081499e-06
1.6511224e-06
1.4290483e-06
1.2371703e-06
1.0713696e-06
9.2808468e-07
8.0423742e-07
6.9716858e-07
6.0458167e-07
5.2449421e-07
4.5519535e-07
3.9520907e-07
3.4326214e-07
2.9825639e-07
2.5924463e-07
2.2540984e-07
1.960472e-07
1.7054859e-07
1.4838913e-07
1.2911569e-07
1.1233688e-07
9.7714527e-08
8.4956243e-08
7.3809085e-08
6.4054067e-08
5.5501439e-08
4.7986627e-08
4.1366722e-08
3.5517467e-08
3.0330655e-08
2.5711885e-08
2.1578632e-08
1.7858584e-08
1.4488213e-08
1.1411539e-08
8.5790701e-09
5.9468848e-09
3.4758292e-09
1.1310602e-09
4.5854031e-06
3.9653226e-06
3.4293824e-06
2.9660419e-06
2.5654034e-06
2.2190969e-06
1.9198453e-06
1.66129e-06
1.4378993e-06
1.2448804e-06
1.0780882e-06
9.3394038e-07
8.0934134e-07
7.0161719e-07
6.084589e-07
5.2787317e-07
4.581398e-07
3.9777463e-07
3.4549735e-07
3.0020358e-07
2.6094072e-07
2.2688703e-07
1.9733357e-07
1.7166859e-07
1.4936406e-07
1.2996409e-07
1.1307489e-07
9.8356162e-08
8.5513698e-08
7.4292945e-08
6.4473515e-08
5.5864435e-08
4.8300059e-08
4.1636546e-08
3.574882e-08
3.0527956e-08
2.5878925e-08
2.1718652e-08
1.7974339e-08
1.458203e-08
1.148537e-08
8.6345327e-09
5.9853032e-09
3.4982697e-09
1.1383564e-09
4.6177812e-06
3.9932354e-06
3.453149e-06
2.9862922e-06
2.5827989e-06
2.2341393e-06
1.932902e-06
1.6726449e-06
1.4477841e-06
1.2534902e-06
1.0855897e-06
9.4047724e-07
8.1503794e-07
7.0658148e-07
6.1278477e-07
5.3164242e-07
4.6142374e-07
4.0063547e-07
3.4798933e-07
3.0237403e-07
2.6283091e-07
2.2853296e-07
1.9876659e-07
1.7291601e-07
1.5044968e-07
1.3090862e-07
1.1389633e-07
9.9070185e-08
8.6133908e-08
7.4831157e-08
6.4939977e-08
5.6268029e-08
4.8648472e-08
4.193642e-08
3.6005884e-08
3.074714e-08
2.6064458e-08
2.1874145e-08
1.8102864e-08
1.4686183e-08
1.1567323e-08
8.6960898e-09
6.0279392e-09
3.5231718e-09
1.1464523e-09
5.3812956e-06
4.6531408e-06
4.0235339e-06
3.4791052e-06
3.0085901e-06
2.6020514e-06
2.250829e-06
1.9474042e-06
1.6852622e-06
1.4587692e-06
1.2630582e-06
1.0939254e-06
9.4774028e-07
8.2136656e-07
7.1209578e-07
6.1758923e-07
5.3582806e-07
4.6506991e-07
4.0381135e-07
3.507553e-07
3.0478273e-07
2.6492825e-07
2.3035894e-07
2.0035609e-07
1.7429941e-07
1.5165343e-07
1.3195572e-07
1.1480681e-07
9.9861457e-08
8.6821088e-08
7.542737e-08
6.545661e-08
5.6714947e-08
4.9034213e-08
4.2268361e-08
3.6290387e-08
3.0989677e-08
2.6269724e-08
2.2046151e-08
1.8245019e-08
1.4801365e-08
1.1657946e-08
8.7641531e-09
6.0750786e-09
3.5507031e-09
1.1554029e-09
5.4253847e-06
4.6913691e-06
4.0564117e-06
3.5074415e-06
3.0330782e-06
2.623276e-06
2.2692653e-06
1.9634394e-06
1.6992196e-06
1.4709234e-06
1.2736451e-06
1.1031488e-06
9.5577631e-07
8.2836817e-07
7.1819587e-07
6.2290349e-07
5.4045728e-07
4.6910198e-07
4.0732292e-07
3.5381321e-07
3.0744529e-07
2.6724629e-07
2.3237678e-07
2.0211234e-07
1.758277e-07
1.5298303e-07
1.3311212e-07
1.1581218e-07
1.0073504e-07
8.7579623e-08
7.6085384e-08
6.60267e-08
5.7208027e-08
4.9459727e-08
4.2634468e-08
3.6604124e-08
3.1257097e-08
2.6496017e-08
2.2235752e-08
1.8401696e-08
1.4928302e-08
1.1757808e-08
8.8391508e-09
6.1270186e-09
3.5810376e-09
1.1652651e-09
6.3308738e-06
5.4733076e-06
4.7326741e-06
4.0920956e-06
3.5383539e-06
3.0599075e-06
2.6465948e-06
2.2895525e-06
1.9810996e-06
1.7145983e-06
1.4843186e-06
1.2853144e-06
1.1133155e-06
9.6463414e-07
8.3608545e-07
7.2491905e-07
6.2876009e-07
5.4555846e-07
4.7354468e-07
4.1119169e-07
3.571818e-07
3.1037801e-07
2.6979923e-07
2.3459881e-07
2.0404605e-07
1.7751019e-07
1.5444659e-07
1.3438485e-07
1.1691851e-07
1.0169622e-07
8.8414096e-08
7.6809165e-08
6.6653675e-08
5.7750228e-08
4.9927563e-08
4.3036932e-08
3.694897e-08
3.1550994e-08
2.6744685e-08
2.2444075e-08
1.8573827e-08
1.5067747e-08
1.1867503e-08
8.9215294e-09
6.184069e-09
3.6143568e-09
1.1760984e-09
6.390538e-06
5.5247999e-06
4.7772828e-06
4.1308265e-06
3.5720417e-06
3.0892345e-06
2.6721357e-06
2.3118003e-06
2.0004806e-06
1.7314831e-06
1.4990296e-06
1.298132e-06
1.1244835e-06
9.7436464e-07
8.4456295e-07
7.3230423e-07
6.35193e-07
5.5116123e-07
4.7842383e-07
4.1544015e-07
3.6088063e-07
3.1359792e-07
2.7260186e-07
2.370379e-07
2.0616842e-07
1.7935661e-07
1.5605255e-07
1.3578124e-07
1.1813218e-07
1.0275051e-07
8.9329291e-08
7.7602855e-08
6.7341119e-08
5.8344643e-08
5.0440385e-08
4.347804e-08
3.7326881e-08
3.1873034e-08
2.7017135e-08
2.26723e-08
1.8762385e-08
1.5220488e-08
1.1987651e-08
9.0117544e-09
6.2465527e-09
3.6508499e-09
1.1879645e-09
6.4525262e-06
5.5800019e-06
4.8254805e-06
4.1728558e-06
3.6087072e-06
3.1212208e-06
2.7000325e-06
2.3361234e-06
2.021683e-06
1.7499625e-06
1.5151344e-06
1.3121667e-06
1.1367133e-06
9.8502083e-07
8.5384707e-07
7.4039198e-07
6.4223765e-07
5.5729648e-07
4.8376635e-07
4.2009175e-07
3.6493013e-07
3.1712279e-07
2.7566966e-07
2.397075e-07
2.0849112e-07
1.813771e-07
1.5780973e-07
1.3730894e-07
1.1945983e-07
1.0390369e-07
9.0330202e-08
7.8470779e-08
6.809277e-08
5.89945e-08
5.1000974e-08
4.396018e-08
3.7739899e-08
3.2224954e-08
2.7314834e-08
2.2921653e-08
1.8968384e-08
1.5387347e-08
1.2118898e-08
9.1103117e-09
6.3148066e-09
3.6907138e-09
1.2009276e-09
6.5186064e-06
5.6394507e-06
4.8776113e-06
4.2184436e-06
3.6485553e-06
3.1560326e-06
2.7304246e-06
2.3626417e-06
2.0448116e-06
1.7701289e-06
1.5327146e-06
1.32749e-06
1.1500678e-06
9.9665787e-07
8.639861e-07
7.4922453e-07
6.4993089e-07
5.6399636e-07
4.8960027e-07
4.2517091e-07
3.6935156e-07
3.2097113e-07
2.7901871e-07
2.4262161e-07
2.1102634e-07
1.8358226e-07
1.5972732e-07
1.3897593e-07
1.2090839e-07
1.0516175e-07
9.1422038e-08
7.9417446e-08
6.8912529e-08
5.9703165e-08
5.1612228e-08
4.4485841e-08
3.8190156e-08
3.2608567e-08
2.7639316e-08
2.3193417e-08
1.9192882e-08
1.556918e-08
1.2261918e-08
9.2177072e-09
6.3891816e-09
3.734154e-09
1.2150547e-09
7.6150583e-06
6.5921467e-06
5.7038762e-06
4.934042e-06
4.2678525e-06
3.6917936e-06
3.1938406e-06
2.7634567e-06
2.3914806e-06
2.069976e-06
1.7920786e-06
1.5518548e-06
1.3441765e-06
1.1646123e-06
1.009333e-06
8.7503016e-07
7.5884568e-07
6.5831101e-07
5.7129429e-07
4.9595474e-07
4.3070302e-07
3.7416703e-07
3.2516217e-07
2.8266576e-07
2.4579479e-07
2.1378674e-07
1.8598307e-07
1.6181488e-07
1.4079053e-07
1.2248507e-07
1.0653096e-07
9.2610217e-08
8.0447548e-08
6.980445e-08
6.0474141e-08
5.2277165e-08
4.5057615e-08
3.8679866e-08
3.3025759e-08
2.7992172e-08
2.3488926e-08
1.943698e-08
1.5766878e-08
1.2417411e-08
9.3344676e-09
6.4700425e-09
3.7813836e-09
1.2304154e-09
7.7073062e-06
6.6721282e-06
5.7736277e-06
4.9950976e-06
4.32134e-06
3.7386315e-06
3.2348203e-06
2.7992788e-06
2.4227702e-06
2.0972901e-06
1.8159115e-06
1.5726427e-06
1.3623032e-06
1.1804145e-06
1.0231056e-06
8.8703117e-07
7.6930084e-07
6.6741764e-07
5.7922486e-07
5.0285991e-07
4.3671438e-07
3.7939944e-07
3.2971587e-07
2.8662818e-07
2.4924213e-07
2.1678544e-07
1.8859097e-07
1.6408233e-07
1.4276134e-07
1.2419733e-07
1.0801779e-07
9.3900361e-08
8.1565953e-08
7.0772746e-08
6.1311061e-08
5.2998914e-08
4.5678189e-08
3.921133e-08
3.3478486e-08
2.8375057e-08
2.3809563e-08
1.970182e-08
1.5981366e-08
1.2586105e-08
9.4611392e-09
6.557768e-09
3.8326243e-09
1.2470817e-09
1.0420774e-05
9.0167766e-06
7.8075689e-06
6.7586155e-06
5.8489956e-06
5.0610735e-06
4.3791572e-06
3.78928e-06
3.2791516e-06
2.8380462e-06
2.4566456e-06
2.1268721e-06
1.8417311e-06
1.5951692e-06
1.3819499e-06
1.1975443e-06
1.0380368e-06
9.000427e-07
7.8063685e-07
6.7729172e-07
5.8782379e-07
5.1034695e-07
4.4323215e-07
3.8507246e-07
3.3465284e-07
2.9092389e-07
2.5297926e-07
2.2003602e-07
1.9141775e-07
1.6653992e-07
1.4489727e-07
1.2605293e-07
1.0962896e-07
9.5298287e-08
8.2777698e-08
7.1821772e-08
6.2217687e-08
5.3780717e-08
4.6350348e-08
3.9786929e-08
3.3968777e-08
2.8789684e-08
2.4156761e-08
1.9988585e-08
1.6213603e-08
1.2768753e-08
9.598288e-09
6.6527502e-09
3.888105e-09
1.2651283e-09
1.2199732e-05
1.0560787e-05
9.1419019e-06
7.9149868e-06
6.8516974e-06
5.9302523e-06
5.1322498e-06
4.4415516e-06
3.8439526e-06
3.3270187e-06
2.8799188e-06
2.4932463e-06
2.158844e-06
1.8696445e-06
1.6195282e-06
1.4031987e-06
1.2160736e-06
1.0541897e-06
9.1411994e-07
7.9290195e-07
6.8797539e-07
5.9712789e-07
5.1844796e-07
4.502843e-07
3.9121047e-07
3.399943e-07
2.9557139e-07
2.5702225e-07
2.2355247e-07
1.9447557e-07
1.6919823e-07
1.4720751e-07
1.2805982e-07
1.1137138e-07
9.6809994e-08
8.4087979e-08
7.2956023e-08
6.31979e-08
5.4625916e-08
4.7076963e-08
4.040912e-08
3.4498721e-08
2.9237819e-08
2.4531999e-08
2.0298496e-08
1.6464576e-08
1.2966134e-08
9.7464977e-09
6.7553938e-09
3.9480625e-09
1.2846323e-09
1.237017e-05
1.0710121e-05
9.273634e-06
8.0295823e-06
6.9516112e-06
6.0176868e-06
5.2089036e-06
4.5087701e-06
3.9028652e-06
3.3786098e-06
2.925061e-06
2.5327161e-06
2.1933315e-06
1.8997616e-06
1.6458159e-06
1.426134e-06
1.2360765e-06
1.071629e-06
9.2931947e-07
8.0614561e-07
6.9951188e-07
6.0717488e-07
5.2719586e-07
4.5789956e-07
3.978385e-07
3.4576204e-07
3.0058964e-07
2.6138762e-07
2.2734916e-07
1.9777693e-07
1.7206811e-07
1.4970149e-07
1.3022621e-07
1.1325217e-07
9.8441646e-08
8.5502136e-08
7.4180116e-08
6.4255688e-08
5.5537948e-08
4.7860985e-08
4.1080428e-08
3.5070469e-08
2.9721279e-08
2.4936797e-08
2.0632809e-08
1.6735302e-08
1.3179045e-08
9.9063692e-09
6.866115e-09
4.0127402e-09
1.3056731e-09
1.254946e-05
1.0868557e-05
9.4132388e-06
8.1518709e-06
7.0587201e-06
6.1116141e-06
5.2913159e-06
4.5810617e-06
3.9662366e-06
3.4341169e-06
2.9736408e-06
2.5752018e-06
2.2304631e-06
1.932195e-06
1.6741308e-06
1.4508422e-06
1.2576283e-06
1.0904208e-06
9.4569912e-07
8.2041839e-07
7.1194534e-07
6.1800331e-07
5.3662428e-07
4.6610725e-07
4.049821e-07
3.5197836e-07
3.0599805e-07
2.6609226e-07
2.3144078e-07
2.013346e-07
1.7516068e-07
1.5238886e-07
1.3256048e-07
1.152786e-07
1.0019955e-07
8.7025632e-08
7.5498779e-08
6.5395133e-08
5.6520329e-08
4.8705435e-08
4.180344e-08
3.568622e-08
3.0241924e-08
2.5372712e-08
2.0992809e-08
1.7026823e-08
1.3408308e-08
1.0078518e-08
6.9853404e-09
4.0823875e-09
1.3283319e-09
1.2739734e-05
1.1036993e-05
9.5618061e-06
8.2824886e-06
7.1734454e-06
6.2123665e-06
5.3797724e-06
4.6586776e-06
4.0342885e-06
3.4937349e-06
3.0258293e-06
2.6208533e-06
2.2703701e-06
1.9670594e-06
1.7045735e-06
1.477411e-06
1.2808061e-06
1.1106323e-06
9.6331771e-07
8.357717e-07
7.2532068e-07
6.296524e-07
5.4676746e-07
4.7493721e-07
4.126673e-07
3.5866591e-07
3.1181636e-07
2.7115334e-07
2.3584228e-07
2.0516159e-07
1.7848725e-07
1.5527946e-07
1.3507115e-07
1.1745807e-07
1.0209013e-07
8.8664031e-08
7.6916826e-08
6.6620392e-08
5.7576642e-08
4.9613392e-08
4.2580788e-08
3.6348217e-08
3.080165e-08
2.5841332e-08
2.1379805e-08
1.7340199e-08
1.3654755e-08
1.026357e-08
7.1135048e-09
4.1572588e-09
1.3526918e-09
1.2942503e-05
1.1216487e-05
9.7202542e-06
8.4220512e-06
7.2962176e-06
6.3202833e-06
5.4745622e-06
4.7418713e-06
4.1072445e-06
3.5576609e-06
3.0817994e-06
2.6698223e-06
2.3131851e-06
2.004471e-06
1.7372455e-06
1.5059294e-06
1.3056876e-06
1.1323317e-06
9.8223476e-07
8.5225756e-07
7.3968337e-07
6.4216184e-07
5.5766001e-07
4.8441967e-07
4.2092043e-07
3.6584764e-07
3.1806456e-07
2.7658827e-07
2.4056881e-07
2.0927109e-07
1.8205926e-07
1.5838322e-07
1.3776689e-07
1.197981e-07
1.041199e-07
9.0422974e-08
7.8439135e-08
6.7935679e-08
5.8710518e-08
5.0587976e-08
4.3415142e-08
3.7058733e-08
3.1402376e-08
2.6344263e-08
2.1795127e-08
1.7676505e-08
1.3919234e-08
1.0462163e-08
7.2510494e-09
4.2376123e-09
1.3788369e-09
1.3158886e-05
1.1407963e-05
9.8893441e-06
8.5711171e-06
7.4274557e-06
6.4357036e-06
5.5759757e-06
4.8308979e-06
4.1853296e-06
3.6260929e-06
3.1417252e-06
2.7222613e-06
2.3590418e-06
2.0445468e-06
1.7722493e-06
1.5364871e-06
1.3323512e-06
1.1555873e-06
1.0025101e-06
8.699283e-07
7.5507909e-07
6.5557153e-07
5.6933677e-07
4.9458499e-07
4.2976798e-07
3.7354663e-07
3.2476274e-07
2.8241456e-07
2.456356e-07
2.1367633e-07
1.8588825e-07
1.6171018e-07
1.4065638e-07
1.2230623e-07
1.062954e-07
9.2308134e-08
8.0070616e-08
6.9345234e-08
5.9925611e-08
5.1632324e-08
4.4309189e-08
3.7820055e-08
3.2046038e-08
2.6883124e-08
2.2240111e-08
1.8036826e-08
1.4202597e-08
1.0674938e-08
7.3984186e-09
4.3237082e-09
1.4068524e-09
1.3389757e-05
1.1612192e-05
1.0069717e-05
8.7301901e-06
7.5675615e-06
6.558963e-06
5.684303e-06
4.9260118e-06
4.2687682e-06
3.6992286e-06
3.2057805e-06
2.7783227e-06
2.4080737e-06
2.0874036e-06
1.8096868e-06
1.5691732e-06
1.360875e-06
1.1804677e-06
1.0242037e-06
8.8883616e-07
7.715535e-07
6.6992132e-07
5.8183251e-07
5.0546351e-07
4.3923639e-07
3.8178594e-07
3.3193101e-07
2.886497e-07
2.5105789e-07
2.1839057e-07
1.8998573e-07
1.6527035e-07
1.4374832e-07
1.2499001e-07
1.0862318e-07
9.4325182e-08
8.1816175e-08
7.0853293e-08
6.1225571e-08
5.2749575e-08
4.5265613e-08
3.8634467e-08
3.2734565e-08
2.7459533e-08
2.2716093e-08
1.8422243e-08
1.4505696e-08
1.0902533e-08
7.5560567e-09
4.4158067e-09
1.4368231e-09
1.3635846e-05
1.1829831e-05
1.0261931e-05
8.8997335e-06
7.7169215e-06
6.6903912e-06
5.7998311e-06
5.0274656e-06
4.3577826e-06
3.7772637e-06
3.274137e-06
2.8381572e-06
2.4604127e-06
2.1331569e-06
1.8496594e-06
1.6040764e-06
1.3913364e-06
1.2070404e-06
1.0473744e-06
9.0903284e-07
7.8915174e-07
6.8525065e-07
5.9518165e-07
5.1708525e-07
4.4935186e-07
3.9058839e-07
3.3958922e-07
2.9531099e-07
2.5685072e-07
2.2342692e-07
1.943631e-07
1.6907362e-07
1.4705133e-07
1.2785692e-07
1.1110972e-07
9.6479725e-08
8.3680662e-08
7.2464046e-08
6.2614008e-08
5.3942827e-08
4.6287067e-08
3.9504229e-08
3.3469868e-08
2.8075088e-08
2.3224393e-08
1.8833826e-08
1.4829373e-08
1.1145584e-08
7.7244034e-09
4.5141652e-09
1.4688334e-09
1.3897796e-05
1.2061459e-05
1.0466493e-05
9.0801806e-06
7.875907e-06
6.8303101e-06
5.9228415e-06
5.1355064e-06
4.4525904e-06
3.8603894e-06
3.3469628e-06
2.9019121e-06
2.516188e-06
2.1819198e-06
1.8922659e-06
1.6412832e-06
1.4238112e-06
1.2353718e-06
1.0720804e-06
9.3056894e-07
8.0791804e-07
7.015981e-07
6.0941787e-07
5.294796e-07
4.6013999e-07
3.999763e-07
3.4775684e-07
3.0241537e-07
2.6302885e-07
2.2879819e-07
1.9903151e-07
1.7312969e-07
1.505738e-07
1.3091424e-07
1.1376134e-07
9.8777248e-08
8.566882e-08
7.4181588e-08
6.4094449e-08
5.5215112e-08
4.7376143e-08
4.0431547e-08
3.4253811e-08
2.873135e-08
2.3766301e-08
1.927262e-08
1.517445e-08
1.1404708e-08
7.9038882e-09
4.6190357e-09
1.5029656e-09
1.4176194e-05
1.2307605e-05
1.0683871e-05
9.2719388e-06
8.0448729e-06
6.9790298e-06
6.0536062e-06
5.2503734e-06
4.5534017e-06
3.9487904e-06
3.4244198e-06
2.9697295e-06
2.5755241e-06
2.2338013e-06
1.937602e-06
1.6808772e-06
1.4583725e-06
1.2655257e-06
1.0983775e-06
9.5349334e-07
8.2789505e-07
7.1900094e-07
6.2457369e-07
5.4267491e-07
4.7162551e-07
4.0997122e-07
3.5645264e-07
3.0997919e-07
2.6960649e-07
2.3451675e-07
2.0400171e-07
1.774479e-07
1.5432385e-07
1.3416901e-07
1.1658415e-07
1.0122303e-07
8.7785213e-08
7.6009856e-08
6.5670285e-08
5.656934e-08
4.8535332e-08
4.1418539e-08
3.5088184e-08
2.9429817e-08
2.4343054e-08
1.9739629e-08
1.5541718e-08
1.1680501e-08
8.0949239e-09
4.7306603e-09
1.5392991e-09
1.4471573e-05
1.2568752e-05
1.0914494e-05
9.475388e-06
8.224153e-06
7.1368432e-06
6.1923826e-06
5.3722927e-06
4.6604153e-06
4.0426414e-06
3.5066616e-06
3.0417442e-06
2.638539e-06
2.288905e-06
1.9857581e-06
1.7229378e-06
1.4950897e-06
1.2975629e-06
1.1263187e-06
9.7785232e-07
8.4912323e-07
7.3749446e-07
6.406799e-07
5.5669806e-07
4.8383184e-07
4.2059354e-07
3.6569436e-07
3.1801789e-07
2.7659709e-07
2.405943e-07
2.0928385e-07
1.8203705e-07
1.5830913e-07
1.3762788e-07
1.1958389e-07
1.0382204e-07
9.0034138e-08
7.7952559e-08
6.7344707e-08
5.8008251e-08
4.9766974e-08
4.2467196e-08
3.597467e-08
3.0171898e-08
2.4955815e-08
2.0235792e-08
1.5931918e-08
1.1973519e-08
8.2978984e-09
4.8492665e-09
1.5779085e-09
1.4784412e-05
1.2845334e-05
1.1158751e-05
9.6908738e-06
8.4140528e-06
7.3040197e-06
6.3394076e-06
5.5014727e-06
4.7738146e-06
4.1421034e-06
3.5938295e-06
3.1180802e-06
2.7053418e-06
2.3473264e-06
2.036818e-06
1.7675381e-06
1.5340269e-06
1.3315393e-06
1.1559529e-06
1.0036887e-06
8.7163993e-07
7.5711129e-07
6.5776496e-07
5.7157382e-07
4.9678057e-07
4.3186208e-07
3.7549839e-07
3.2654572e-07
2.8401302e-07
2.4704157e-07
2.1488726e-07
1.8690526e-07
1.6253666e-07
1.4129691e-07
1.2276582e-07
1.0657883e-07
9.2419521e-08
8.0013078e-08
6.9120624e-08
5.9534336e-08
5.1073198e-08
4.3579329e-08
3.6914796e-08
3.0958869e-08
2.5605638e-08
2.0761966e-08
1.6345724e-08
1.2284271e-08
8.5131642e-09
4.9750617e-09
1.6188621e-09
1.5115124e-05
1.3137725e-05
1.141698e-05
9.9186981e-06
8.6148406e-06
7.4807968e-06
6.494891e-06
5.6380984e-06
4.8937622e-06
4.2473196e-06
3.6860495e-06
3.1988481e-06
2.7760294e-06
2.4091504e-06
2.0908561e-06
1.8147434e-06
1.5752412e-06
1.3675049e-06
1.187324e-06
1.0310406e-06
8.9547843e-07
7.7788042e-07
6.7585413e-07
5.8732423e-07
5.1049088e-07
4.437935e-07
3.8587921e-07
3.3557527e-07
2.9186522e-07
2.5386806e-07
2.2082018e-07
1.9205964e-07
1.6701261e-07
1.4518145e-07
1.2613454e-07
1.0949737e-07
9.4944786e-08
8.2194359e-08
7.1000562e-08
6.1149759e-08
5.245585e-08
4.4756502e-08
3.7909881e-08
3.1791832e-08
2.6293433e-08
2.1318887e-08
1.6783715e-08
1.2613193e-08
8.741026e-09
5.1082252e-09
1.6622189e-09
1.5464035e-05
1.3446226e-05
1.1689455e-05
1.0159108e-05
8.826737e-06
7.6673707e-06
6.6590068e-06
5.7823236e-06
5.0203941e-06
4.3584098e-06
3.783427e-06
3.2841406e-06
2.8506833e-06
2.4744486e-06
2.1479352e-06
1.8646086e-06
1.6187805e-06
1.4055016e-06
1.2204683e-06
1.0599399e-06
9.2066659e-07
7.9982613e-07
6.9496856e-07
6.0396766e-07
5.2497873e-07
4.5640169e-07
3.9684885e-07
3.4511695e-07
3.001627e-07
2.6108157e-07
2.2708934e-07
1.9750603e-07
1.7174199e-07
1.4928581e-07
1.296938e-07
1.1258087e-07
9.7612686e-08
8.4498762e-08
7.2986541e-08
6.2856243e-08
5.3916393e-08
4.5999954e-08
3.8960968e-08
3.2671658e-08
2.7019916e-08
2.1907135e-08
1.7246349e-08
1.296063e-08
8.9817242e-09
5.2488992e-09
1.7080263e-09
1.5831372e-05
1.3771047e-05
1.1976368e-05
1.0412279e-05
9.049902e-06
7.8638851e-06
6.8318833e-06
5.9342625e-06
5.1538115e-06
4.4754636e-06
3.8860412e-06
3.3740276e-06
2.9293649e-06
2.543275e-06
2.2081025e-06
1.9171751e-06
1.6646811e-06
1.4455612e-06
1.2554137e-06
1.0904107e-06
9.4722528e-07
8.2296656e-07
7.1512396e-07
6.2151773e-07
5.4025592e-07
4.6969681e-07
4.0841611e-07
3.5517836e-07
3.08912e-07
2.6868772e-07
2.3369956e-07
2.0324854e-07
1.7672836e-07
1.5361304e-07
1.3344616e-07
1.1583154e-07
1.004251e-07
8.6927882e-08
7.5079913e-08
6.4654931e-08
5.5455792e-08
4.7310496e-08
4.0068734e-08
3.3598909e-08
2.778555e-08
2.2527083e-08
1.773392e-08
1.3326805e-08
9.2354157e-09
5.3971773e-09
1.7563157e-09
1.6217224e-05
1.411228e-05
1.2277812e-05
1.06783e-05
9.2844182e-06
8.0704167e-06
7.0135905e-06
6.0939784e-06
5.2940714e-06
4.598532e-06
3.9939375e-06
3.4685493e-06
3.0121097e-06
2.6156607e-06
2.2713855e-06
1.9724669e-06
1.7129639e-06
1.4877017e-06
1.2921757e-06
1.1224666e-06
9.7516626e-07
8.4731182e-07
7.3632904e-07
6.3998189e-07
5.5632879e-07
4.8368428e-07
4.2058557e-07
3.6576336e-07
3.1811638e-07
2.7668924e-07
2.4065316e-07
2.0928911e-07
1.8197331e-07
1.5816445e-07
1.3739273e-07
1.1925026e-07
1.0338275e-07
8.9482311e-08
7.7281159e-08
6.6546212e-08
5.7074361e-08
4.868838e-08
4.1233383e-08
3.4573748e-08
2.8590464e-08
2.3178837e-08
1.8246512e-08
1.3711783e-08
9.5021475e-09
5.5530893e-09
1.8070982e-09
1.6621517e-05
1.4469872e-05
1.2593748e-05
1.0957145e-05
9.5302696e-06
8.2869558e-06
7.2041233e-06
6.2614694e-06
5.4411736e-06
4.727616e-06
4.1071173e-06
3.5677074e-06
3.0989195e-06
2.6916075e-06
2.3377856e-06
2.0304852e-06
1.7636298e-06
1.5319237e-06
1.3307548e-06
1.1561078e-06
1.0044894e-06
8.728616e-07
7.5858329e-07
6.5935949e-07
5.7319658e-07
4.9836325e-07
4.3335632e-07
3.76871e-07
3.2777486e-07
2.8508515e-07
2.4794912e-07
2.1562675e-07
1.8747588e-07
1.6293912e-07
1.4153262e-07
1.2283621e-07
1.0648488e-07
9.2161336e-08
7.9589623e-08
6.852949e-08
5.8771563e-08
5.0133131e-08
4.2454497e-08
3.5595816e-08
2.9434359e-08
2.3862151e-08
1.8783933e-08
1.4115422e-08
9.781825e-09
5.7165828e-09
1.8603583e-09
1.7043954e-05
1.4843573e-05
1.2923969e-05
1.1248641e-05
9.7873111e-06
8.5133802e-06
7.4033783e-06
6.4366471e-06
5.5950426e-06
4.8626505e-06
4.2255246e-06
3.6714533e-06
3.189752e-06
2.7710784e-06
2.4072703e-06
2.0912014e-06
1.8166535e-06
1.578205e-06
1.3711311e-06
1.1913165e-06
1.035179e-06
8.9960186e-07
7.8187415e-07
6.7963928e-07
5.9084921e-07
5.1372465e-07
4.4672021e-07
3.8849396e-07
3.3788085e-07
2.9386953e-07
2.5558214e-07
2.222567e-07
1.9323179e-07
1.6793322e-07
1.4586241e-07
1.2658634e-07
1.0972875e-07
9.4962539e-08
8.2003168e-08
7.0602887e-08
6.0545758e-08
5.1643327e-08
4.3730858e-08
3.6664083e-08
3.0316378e-08
2.4576329e-08
1.9345636e-08
1.4537316e-08
1.007417e-08
5.887499e-09
1.9160461e-09
1.7483943e-05
1.5232879e-05
1.3268045e-05
1.155242e-05
1.0055226e-05
8.7494179e-06
7.6111207e-06
6.6193086e-06
5.7555025e-06
5.0034826e-06
4.3490261e-06
3.7796708e-06
3.2845055e-06
2.8539843e-06
2.4797617e-06
2.1545469e-06
1.8719749e-06
1.6264925e-06
1.4132578e-06
1.2280514e-06
1.0671986e-06
9.2750023e-07
8.0617297e-07
7.0079587e-07
6.0926415e-07
5.2974851e-07
4.6065951e-07
4.0061649e-07
3.4842038e-07
3.0302996e-07
2.6354119e-07
2.2916916e-07
1.9923237e-07
1.7313906e-07
1.503753e-07
1.3049463e-07
1.1310907e-07
9.7881267e-08
8.4517719e-08
7.2762847e-08
6.2393863e-08
5.3216313e-08
4.5060201e-08
3.7776639e-08
3.1234936e-08
2.5320087e-08
1.9930614e-08
1.4976711e-08
1.0378667e-08
6.0655411e-09
1.9740673e-09
1.7940479e-05
1.5636929e-05
1.3625233e-05
1.1867843e-05
1.0333463e-05
8.994591e-06
7.826936e-06
6.8090937e-06
5.9222394e-06
5.1498389e-06
4.4773832e-06
3.8921513e-06
3.3829977e-06
2.9401656e-06
2.5551197e-06
2.220399e-06
1.929486e-06
1.6766913e-06
1.4570515e-06
1.2662392e-06
1.1004833e-06
9.5649973e-07
8.3142948e-07
7.2278489e-07
6.2840224e-07
5.4640023e-07
4.7514366e-07
4.132116e-07
3.5936959e-07
3.1254537e-07
2.7180767e-07
2.3634772e-07
2.0546314e-07
1.7854388e-07
1.5506004e-07
1.3455121e-07
1.1661717e-07
1.0090993e-07
8.7126659e-08
7.5003624e-08
6.4310912e-08
5.4847826e-08
4.64389e-08
3.8930436e-08
3.2187511e-08
2.6091383e-08
2.0537265e-08
1.5432411e-08
1.0694494e-08
6.2502349e-09
2.0342705e-09
1.8411955e-05
1.605436e-05
1.3994362e-05
1.2193894e-05
1.0621141e-05
9.2481336e-06
8.0501575e-06
7.0054215e-06
6.0947471e-06
5.3012775e-06
4.6102102e-06
4.0085576e-06
3.4849337e-06
3.0293643e-06
2.6331185e-06
2.2885597e-06
1.9890133e-06
1.7286492e-06
1.5023786e-06
1.3057623e-06
1.1349301e-06
9.8650962e-07
8.5756386e-07
7.4553611e-07
6.4820165e-07
5.6362539e-07
4.9012475e-07
4.2623709e-07
3.7069134e-07
3.2238307e-07
2.803528e-07
2.4376706e-07
2.1190182e-07
1.8412812e-07
1.5989949e-07
1.3874104e-07
1.2023992e-07
1.0403708e-07
8.9820025e-08
7.7316589e-08
6.6289469e-08
5.6531503e-08
4.7861552e-08
4.012094e-08
3.3170355e-08
2.6887185e-08
2.1163212e-08
1.5902642e-08
1.1020432e-08
6.4408763e-09
2.09643e-09
1.8895817e-05