/*--------------------------------*- C++ -*----------------------------------*\
| =========                 |                                                 |
| \\      /  F ield         | OpenFOAM: The Open Source CFD Toolbox           |
|  \\    /   O peration     | Version:  2312                                  |
|   \\  /    A nd           | Website:  www.openfoam.com                      |
|    \\/     M anipulation  |                                                 |
\*---------------------------------------------------------------------------*/
FoamFile
{
    version     2.0;
    format      ascii;
    arch        "LSB;label=32;scalar=64";
    class       volScalarField;
    location    "0.03";
    object      H2O;
}
// * * * * * * * * * * * * * * * * * * * * * * * * * * * * * * * * * * * * * //

dimensions      [0 0 0 0 0 0 0];

internalField   nonuniform List<scalar> 
3224
(
0.000553583
0.00049490533
0.00044217587
0.00039483314
0.00035236431
0.0003142997
0.00028020946
0.00024970115
0.00022241724
0.00019803258
0.00017625198
0.00015680789
0.00013945814
0.00012398388
0.00011018755
9.7891083e-05
8.6934123e-05
7.7172455e-05
6.84765e-05
6.0729938e-05
5.3828448e-05
4.767854e-05
4.2196489e-05
3.7307363e-05
3.2944129e-05
2.9046847e-05
2.5561935e-05
2.2441499e-05
1.9642729e-05
1.7127355e-05
1.4861149e-05
1.2813484e-05
1.0956935e-05
9.2669185e-06
7.7213725e-06
6.3004741e-06
4.9863848e-06
3.763027e-06
2.6158817e-06
1.5318087e-06
4.9889963e-07
0.00055361183
0.00049494017
0.00044221714
0.00039487704
0.00035240837
0.0003143426
0.00028025052
0.00024974003
0.00022245378
0.00019806675
0.0001762838
0.00015683743
0.0001394855
0.00012400915
0.00011021086
9.7912542e-05
8.6953849e-05
7.7190562e-05
6.8493096e-05
6.0745128e-05
5.3842331e-05
4.7691208e-05
4.2208031e-05
3.7317858e-05
3.2953653e-05
2.9055471e-05
2.5569722e-05
2.2448507e-05
1.9649012e-05
1.713296e-05
1.4866121e-05
1.2817863e-05
1.0960756e-05
9.2702123e-06
7.724168e-06
6.3027962e-06
4.9882559e-06
3.7644665e-06
2.6169065e-06
1.5324318e-06
4.9911604e-07
0.00055358515
0.00049493027
0.00044221775
0.00039488393
0.00035241913
0.00031435575
0.00028026511
0.00024975541
0.00022246951
0.00019808251
0.00017629937
0.00015685263
0.00013950022
0.00012402331
0.00011022439
9.7925407e-05
8.696603e-05
7.720205e-05
6.8503891e-05
6.0755239e-05
5.385177e-05
4.7699994e-05
4.2216182e-05
3.7325397e-05
3.2960603e-05
2.9061855e-05
2.5575565e-05
2.2453831e-05
1.965384e-05
1.7137314e-05
1.487002e-05
1.2821327e-05
1.0963802e-05
9.272857e-06
7.7264259e-06
6.3046812e-06
4.9897804e-06
3.7656419e-06
2.6177434e-06
1.5329394e-06
4.9929029e-07
0.00055350616
0.000494876
0.00044217674
0.00039485267
0.00035239544
0.00031433802
0.00028025213
0.00024974628
0.00022246348
0.00019807898
0.00017629786
0.00015685275
0.00013950162
0.00012402571
0.00011022756
9.7929153e-05
8.6970188e-05
7.7206484e-05
6.8508489e-05
6.0759909e-05
5.3856437e-05
4.7704597e-05
4.2220671e-05
3.7329734e-05
3.2964757e-05
2.9065802e-05
2.5579285e-05
2.2457313e-05
1.9657072e-05
1.714029e-05
1.4872736e-05
1.282378e-05
1.096599e-05
9.2747808e-06
7.7280862e-06
6.3060795e-06
4.9909192e-06
3.7665241e-06
2.6183726e-06
1.5333208e-06
4.9942068e-07
0.00061852226
0.00055338925
0.00049477634
0.00044209251
0.00039478172
0.00035233581
0.00031428802
0.00028021032
0.00024971144
0.00022243459
0.00019805517
0.00017627838
0.00015683694
0.00013948893
0.00012401566
0.00011021974
9.7923196e-05
8.6965789e-05
7.7203378e-05
6.8506449e-05
6.0758738e-05
5.3855969e-05
4.7704689e-05
4.2221203e-05
3.7330602e-05
3.2965873e-05
2.9067093e-05
2.558069e-05
2.2458778e-05
1.9658555e-05
1.7141753e-05
1.4874149e-05
1.2825117e-05
1.0967231e-05
9.275908e-06
7.7290858e-06
6.3069406e-06
4.9916332e-06
3.7670847e-06
2.6187761e-06
1.5335671e-06
4.9950527e-07
0.00061837673
0.00055323294
0.00049463761
0.00044197117
0.00039467639
0.0003522448
0.0003142096
0.00028014291
0.00024965363
0.00022238513
0.00019801297
0.00017624247
0.00015680649
0.0001394632
0.00012399401
0.00011020159
9.7908067e-05
8.6953243e-05
7.719304e-05
6.8497992e-05
6.0751879e-05
5.3850462e-05
4.770032e-05
4.2217788e-05
3.7327982e-05
3.2963912e-05
2.9065673e-05
2.5579709e-05
2.2458151e-05
1.9658207e-05
1.7141621e-05
1.4874178e-05
1.2825261e-05
1.0967452e-05
9.2761727e-06
7.7293664e-06
6.3072142e-06
4.9918812e-06
3.7672923e-06
2.6189323e-06
1.5336661e-06
4.995405e-07
0.00061816588
0.00055304141
0.00049446682
0.00044181987
0.00039454345
0.0003521286
0.00031410838
0.00028005496
0.00024957736
0.00022231914
0.00019795599
0.00017619337
0.00015676427
0.00013942698
0.00012396301
0.00011017513
9.7885544e-05
8.6934128e-05
7.7176868e-05
6.8484357e-05
6.0740427e-05
5.3840883e-05
4.7692346e-05
4.2211183e-05
3.7322544e-05
3.2959463e-05
2.906206e-05
2.55768e-05
2.2455831e-05
1.9656377e-05
1.7140197e-05
1.4873087e-05
1.282444e-05
1.0966848e-05
9.2757389e-06
7.7290646e-06
6.307012e-06
4.9917519e-06
3.7672142e-06
2.6188886e-06
1.533646e-06
4.9953587e-07
0.00061788666
0.00055279887
0.00049424942
0.00044162598
0.00039437188
0.00035197761
0.00031397598
0.00027993917
0.00024947631
0.00022223112
0.00019787945
0.00017612694
0.00015670672
0.0001393772
0.00012392003
0.0001101381
9.7853691e-05
8.6906787e-05
7.7153451e-05
6.8464346e-05
6.0723367e-05
5.3826376e-05
4.7680044e-05
4.2200783e-05
3.7313779e-05
3.2952104e-05
2.9055905e-05
2.5571674e-05
2.2451583e-05
1.9652876e-05
1.7137329e-05
1.4870754e-05
1.2822558e-05
1.0965342e-05
9.2745488e-06
7.7281369e-06
6.306302e-06
4.9912223e-06
3.7668347e-06
2.6186353e-06
1.533502e-06
4.9949002e-07
0.00068979242
0.00061755615
0.00055250148
0.00049398122
0.00044138587
0.00039415852
0.00035178904
0.00031380993
0.00027979332
0.0002493485
0.00022211931
0.00019778181
0.0001760418
0.00015663259
0.00013931276
0.0001238641
0.00011008962
9.7811742e-05
8.6870544e-05
7.7122188e-05
6.8437426e-05
6.0700229e-05
5.3806526e-05
4.7663049e-05
4.2186264e-05
3.7301406e-05
3.2941585e-05
2.9046988e-05
2.556414e-05
2.2445239e-05
1.9647556e-05
1.7132888e-05
1.4867067e-05
1.2819517e-05
1.0962855e-05
9.2725338e-06
7.726526e-06
6.3050373e-06
4.9902553e-06
3.7661257e-06
2.6181527e-06
1.5332227e-06
4.9939913e-07
0.00068938823
0.0006171646
0.00055214402
0.0004936578
0.00044109575
0.00039390009
0.00035156
0.00031360764
0.00027961515
0.00024919189
0.00022198191
0.00019766144
0.00017593652
0.00015654063
0.00013923254
0.00012379422
0.00011002882
9.7758915e-05
8.6824706e-05
7.7082469e-05
6.8403058e-05
6.0670535e-05
5.3780911e-05
4.7640989e-05
4.21673e-05
3.7285133e-05
3.2927653e-05
2.9035088e-05
2.5554002e-05
2.2436629e-05
1.9640269e-05
1.7126746e-05
1.4861916e-05
1.2815223e-05
1.0959303e-05
9.2696246e-06
7.7241745e-06
6.3031711e-06
4.9888139e-06
3.7650591e-06
2.6174212e-06
1.5327966e-06
4.9925952e-07
0.00076907735
0.00068889385
0.00061670173
0.0005517205
0.00049327442
0.00044075158
0.00039359309
0.00035128742
0.00031336644
0.00027940226
0.00024900438
0.00022181703
0.00019751669
0.00017580961
0.00015642952
0.00013913538
0.00012370935
0.00010995479
9.7694403e-05
8.6768559e-05
7.7033662e-05
6.8360684e-05
6.0633793e-05
5.3749096e-05
4.761348e-05
4.2143551e-05
3.7264665e-05
3.2910046e-05
2.9019973e-05
2.5541059e-05
2.2425575e-05
1.963086e-05
1.7118769e-05
1.4855185e-05
1.2809578e-05
1.0954603e-05
9.2657506e-06
7.7210236e-06
6.3006557e-06
4.9868603e-06
3.7636066e-06
2.6164212e-06
1.5322123e-06
4.9906756e-07
0.00076842843
0.00068830422
0.00061615819
0.00055122458
0.00049282604
0.00044034912
0.00039323386
0.0003509681
0.0003130835
0.00027915216
0.00024878375
0.00022162273
0.00019734582
0.00017565955
0.00015629789
0.00013902006
0.00012360843
0.00010986657
9.7617365e-05
8.6701361e-05
7.6975111e-05
6.8309724e-05
6.0589491e-05
5.371063e-05
4.7580124e-05
4.2114667e-05
3.7239693e-05
3.2888493e-05
2.9001408e-05
2.5525102e-05
2.2411898e-05
1.9619173e-05
1.710882e-05
1.4846756e-05
1.2802478e-05
1.0948668e-05
9.2608388e-06
7.7170127e-06
6.2974419e-06
4.984356e-06
3.7617392e-06
2.6151326e-06
1.5314582e-06
4.9881963e-07
0.00085649109
0.0007676608
0.00068761135
0.00061552549
0.00055064975
0.00049230737
0.00043988388
0.00039281851
0.00035059866
0.00031275584
0.00027886223
0.00024852768
0.00022139693
0.000197147
0.00017548471
0.00015614432
0.00013888532
0.00012349034
0.00010976317
9.7526927e-05
8.6622336e-05
7.690613e-05
6.8249572e-05
6.0537096e-05
5.3665042e-05
4.7540507e-05
4.2080284e-05
3.7209896e-05
3.2862711e-05
2.8979143e-05
2.5505916e-05
2.2395406e-05
1.9605041e-05
1.7096756e-05
1.4836505e-05
1.2793818e-05
1.0941409e-05
9.2548134e-06
7.7120792e-06
6.2934789e-06
4.9812609e-06
3.759427e-06
2.6135349e-06
1.5305227e-06
4.9851209e-07
0.00085548849
0.00076676735
0.0006868067
0.00061479556
0.00054998939
0.00049171283
0.0004393511
0.00039234294
0.00035017553
0.00031238033
0.0002785297
0.00024823373
0.00022113749
0.00019691833
0.00017528341
0.00015596731
0.00013872983
0.0001233539
0.00010964356
9.742217e-05
8.6530675e-05
7.6826004e-05
6.8179598e-05
6.0476048e-05
5.3611839e-05
4.7494194e-05
4.2040019e-05
3.7174937e-05
3.2832407e-05
2.895292e-05
2.5483273e-05
2.2375903e-05
1.9588293e-05
1.7082428e-05
1.4824303e-05
1.2783489e-05
1.093273e-05
9.2475955e-06
7.7061578e-06
6.2887138e-06
4.9775336e-06
3.7566392e-06
2.6116069e-06
1.5293936e-06
4.9814122e-07
0.00095253766
0.0008543343
0.00076573841
0.00068588171
0.00061396057
0.00054923673
0.00049103666
0.0004387458
0.00039180284
0.00034969493
0.00031195367
0.00027815166
0.00024789934
0.00022084215
0.00019665781
0.00017505387
0.00015576529
0.00013855221
0.00012319788
0.00010950665
9.7302135e-05
8.6425529e-05
7.6733984e-05
6.8099139e-05
6.0405766e-05
5.3550509e-05
4.7440733e-05
4.1993473e-05
3.7134466e-05
3.2797271e-05
2.8922469e-05
2.5456936e-05
2.2353182e-05
1.9568749e-05
1.7065679e-05
1.4810016e-05
1.2771373e-05
1.0922535e-05
9.2391027e-06
7.6991803e-06
6.2830913e-06
4.9731309e-06
3.7533433e-06
2.6093267e-06
1.5280584e-06
4.977031e-07
0.00095105876
0.00085301844
0.00076456382
0.00068482782
0.00061301268
0.00054838486
0.00049027284
0.00043806279
0.00039119368
0.00034915291
0.00031147239
0.00027772508
0.00024752183
0.00022050852
0.00019636333
0.00017479424
0.00015553662
0.00013835101
0.00012302101
0.0001093513
9.7165818e-05
8.6306012e-05
7.6629286e-05
6.8007505e-05
6.0325639e-05
5.3480511e-05
4.7379649e-05
4.1940229e-05
3.7088116e-05
3.2756981e-05
2.8887507e-05
2.5426659e-05
2.2327026e-05
1.9546221e-05
1.7046346e-05
1.4793502e-05
1.2757351e-05
1.091072e-05
9.2292488e-06
7.6910753e-06
6.2765539e-06
4.9680075e-06
3.7495059e-06
2.6066711e-06
1.5265038e-06
4.9719363e-07
0.0010577289
0.00094938546
0.0008515285
0.00076323349
0.00068363636
0.00061194399
0.0005474267
0.00048941516
0.00043729662
0.00039051071
0.00034854532
0.00031093285
0.00027724673
0.00024709836
0.00022013411
0.00019603269
0.00017450257
0.00015527958
0.0001381247
0.00012282194
0.00010917634
9.7012169e-05
8.6171194e-05
7.6511091e-05
6.7903971e-05
6.0235027e-05
5.3401284e-05
4.7310446e-05
4.187985e-05
3.7035501e-05
3.2711199e-05
2.8847738e-05
2.5392183e-05
2.2297209e-05
1.9520511e-05
1.7024259e-05
1.4774616e-05
1.2741297e-05
1.0897178e-05
9.2179436e-06
7.6817682e-06
6.2690411e-06
4.962116e-06
3.7450914e-06
2.603616e-06
1.524716e-06
4.9660842e-07
0.0010556112
0.00094749952
0.00084985157
0.00076173732
0.00068229848
0.00061074643
0.00054635501
0.00048845719
0.00043644165
0.00038974898
0.00034786783
0.00031033123
0.00027671328
0.00024662598
0.00021971632
0.00019566359
0.00017417682
0.00015499237
0.0001378717
0.00012259926
0.00010898051
9.6840089e-05
8.6020107e-05
7.6378542e-05
6.7787781e-05
6.0133265e-05
5.3312239e-05
4.7232606e-05
4.1811879e-05
3.6976222e-05
3.2659574e-05
2.8802853e-05
2.5353235e-05
2.2263495e-05
1.9491413e-05
1.6999238e-05
1.4753201e-05
1.2723077e-05
1.0881798e-05
9.2050925e-06
7.6711808e-06
6.2604895e-06
4.9554068e-06
3.7400628e-06
2.6001358e-06
1.5226802e-06
4.9594284e-07
0.0010532222
0.00094538716
0.00084797594
0.00076006527
0.00068080518
0.00060941178
0.00054516234
0.00048739229
0.00043549202
0.00038890335
0.0003471159
0.00030966357
0.00027612122
0.00024610161
0.00021925243
0.00019525363
0.00017381488
0.00015467311
0.00013759034
0.0001223515
0.00010876251
9.6648434e-05
8.5851739e-05
7.6230745e-05
6.7658147e-05
6.0019656e-05
5.3212762e-05
4.7145588e-05
4.1735841e-05
3.6909859e-05
3.2601736e-05
2.8752528e-05
2.5309534e-05
2.2225637e-05
1.9458714e-05
1.6971099e-05
1.4729098e-05
1.2702555e-05
1.086446e-05
9.1905969e-06
7.6592313e-06
6.2508328e-06
4.9478277e-06
3.7343811e-06
2.5962038e-06
1.5203811e-06
4.9519191e-07
0.0010505624
0.00094304096
0.00084589122
0.00075820735
0.00067914724
0.00060793159
0.00054384107
0.00048621366
0.0004344417
0.00038796848
0.00034628484
0.00030892571
0.00027546691
0.00024552203
0.0002187396
0.00019480031
0.00017341453
0.00015431986
0.0001372789
0.00012207714
0.00010852101
9.6436013e-05
8.5665036e-05
7.6066772e-05
6.7514247e-05
5.9893476e-05
5.3102215e-05
4.7048829e-05
4.1651239e-05
3.6835976e-05
3.2537302e-05
2.8696428e-05
2.5260785e-05
2.2183378e-05
1.9422188e-05
1.6939645e-05
1.4702138e-05
1.2679586e-05
1.0845043e-05
9.1743536e-06
7.6458344e-06
6.2400019e-06
4.9393245e-06
3.7280056e-06
2.5917918e-06
1.5178022e-06
4.9435042e-07
0.0011661151
0.0010476453
0.00094045156
0.00084358674
0.00075615338
0.00067731525
0.00060629725
0.00054238337
0.00048491429
0.00043328445
0.00038693887
0.0003453698
0.00030811339
0.00027474657
0.00024488392
0.00021817488
0.00019430102
0.00017297348
0.00015393058
0.00013693559
0.0001217746
0.0001082546
9.6201588e-05
8.5458908e-05
7.5885657e-05
6.7355231e-05
5.9753973e-05
5.2979935e-05
4.6941744e-05
4.155756e-05
3.6754119e-05
3.2465876e-05
2.8634203e-05
2.5206683e-05
2.213645e-05
1.9381603e-05
1.6904675e-05
1.4672147e-05
1.265402e-05
1.082342e-05
9.1562554e-06
7.6309011e-06
6.2279244e-06
4.9298401e-06
3.7208937e-06
2.5868706e-06
1.5149266e-06
4.9341283e-07
0.001162548
0.0010444529
0.00093760651
0.00084105113
0.0007538928
0.00067529952
0.00060449992
0.00054078127
0.00048348701
0.00043201389
0.00038580885
0.00034436575
0.00030722218
0.00027395629
0.00024418382
0.00021755525
0.00019375309
0.00017248935
0.00015350317
0.00013655855
0.00012144224
0.00010796183
9.594388e-05
8.5232222e-05
7.5686402e-05
6.7180217e-05
5.9600369e-05
5.2845235e-05
4.6823729e-05
4.1454269e-05
3.6663821e-05
3.2387043e-05
2.8565492e-05
2.514691e-05
2.2084576e-05
1.9336718e-05
1.6865979e-05
1.4638944e-05
1.2625702e-05
1.0799458e-05
9.1361911e-06
7.6143391e-06
6.2145256e-06
4.9193158e-06
3.7130011e-06
2.5814094e-06
1.5117364e-06
4.9237339e-07
0.0014319484
0.0012885845
0.0011586494
0.001040964
0.00093449137
0.0008382722
0.00075141465
0.00067309007
0.00060253054
0.00053902658
0.00048192448
0.00043062348
0.00038457261
0.00034326756
0.00030624752
0.00027309205
0.00024341818
0.00021687755
0.00019315372
0.0001719597
0.00015303547
0.00013614586
0.00012107836
0.00010764121
9.5661568e-05
8.4983812e-05
7.5467976e-05
6.6988293e-05
5.9431861e-05
5.2697407e-05
4.6694159e-05
4.1340816e-05
3.6564597e-05
3.230038e-05
2.8489921e-05
2.508114e-05
2.2027471e-05
1.9287283e-05
1.6823342e-05
1.4602343e-05
1.2594471e-05
1.077302e-05
9.1140454e-06
7.5960529e-06
6.1997277e-06
4.9076902e-06
3.7042819e-06
2.5753765e-06
1.5082131e-06
4.9122611e-07
0.0015839685
0.0014266579
0.0012838513
0.001154399
0.0010371585
0.00093109088
0.00083523713
0.00074870758
0.00067067668
0.00060037989
0.00053711098
0.00048021925
0.00042910654
0.00038322422
0.00034206996
0.00030518475
0.00027214973
0.00024258335
0.00021613856
0.00019250009
0.000171382
0.00015252526
0.00013569557
0.00012068123
0.0001072912
9.5353294e-05
8.4712479e-05
7.5229319e-05
6.6778526e-05
5.9247623e-05
5.2535721e-05
4.6552392e-05
4.1216637e-05
3.6455948e-05
3.2205447e-05
2.8407106e-05
2.5009035e-05
2.196484e-05
1.9233041e-05
1.677654e-05
1.456215e-05
1.2560163e-05
1.0743966e-05
9.0896998e-06
7.5759441e-06
6.1834508e-06
4.8949004e-06
3.6946886e-06
2.568739e-06
1.5043375e-06
4.8996478e-07
0.001577535
0.0014208941
0.0012786905
0.0011497727
0.0010330173
0.00092738946
0.00083193266
0.0007457599
0.00066804888
0.00059803853
0.000535026
0.0004783637
0.00042745629
0.00038175762
0.00034076758
0.0003040291
0.00027112511
0.00024167562
0.00021533499
0.00019178927
0.00017075367
0.00015197026
0.00013520566
0.00012024907
0.00010691023
9.5017668e-05
8.4416993e-05
7.4969346e-05
6.6549956e-05
5.9046809e-05
5.2359432e-05
4.6397768e-05
4.1081149e-05
3.6337364e-05
3.2101796e-05
2.8316651e-05
2.4930249e-05
2.1896381e-05
1.917373e-05
1.6725344e-05
1.4518167e-05
1.2522606e-05
1.0712152e-05
9.0630325e-06
7.5539115e-06
6.1656127e-06
4.8808816e-06
3.6841726e-06
2.5614634e-06
1.5000901e-06
4.8858304e-07
0.001570538
0.0014146295
0.0012730813
0.0011447488
0.0010285217
0.00092337145
0.00082834525
0.00074255964
0.00066519599
0.00059549689
0.00053276304
0.00047635014
0.00042566585
0.00038016669
0.00033935497
0.00030277575
0.0002700139
0.00024069117
0.00021446347
0.00019101828
0.0001700721
0.00015136813
0.00013467408
0.00011978006
0.00010649669
9.4653271e-05
8.4096101e-05
7.468695e-05
6.6301604e-05
5.8828555e-05
5.2167778e-05
4.6229616e-05
4.0933762e-05
3.6208323e-05
3.1988968e-05
2.8218155e-05
2.4844431e-05
2.1821785e-05
1.910908e-05
1.6669522e-05
1.4470194e-05
1.2481629e-05
1.0677428e-05
9.0339187e-06
7.5298516e-06
6.1461293e-06
4.8655673e-06
3.6726839e-06
2.5535149e-06
1.4954506e-06
4.8707438e-07
0.0015629549
0.0014078402
0.0012670029
0.0011393074
0.001023654
0.00091902122
0.00082446117
0.00073909468
0.0006621072
0.0005927453
0.00053031343
0.00047417081
0.00042372827
0.00037844523
0.0003378266
0.00030141979
0.00026881176
0.00023962615
0.00021352061
0.00019018412
0.00016933461
0.00015071653
0.00013409872
0.00011927235
0.00010604895
9.4258658e-05
8.3748528e-05
7.4381002e-05
6.6032475e-05
5.8591981e-05
5.1959981e-05
4.6047251e-05
4.0773872e-05
3.6068294e-05
3.1866495e-05
2.8111208e-05
2.4751219e-05
2.1740738e-05
1.9038816e-05
1.6608834e-05
1.4418024e-05
1.2437054e-05
1.0639645e-05
9.0022316e-06
7.5036591e-06
6.1249147e-06
4.8488901e-06
3.6601719e-06
2.5448585e-06
1.4903985e-06
4.8543218e-07
0.001554763
0.0014005042
0.0012604351
0.0011334293
0.0010183967
0.00091432326
0.00082026668
0.00073535279
0.00065877161
0.000589774
0.00052766844
0.00047181788
0.00042163656
0.000376587
0.00033617694
0.0002999563
0.00026751431
0.0002384767
0.00021250295
0.00018928374
0.0001685385
0.00015001306
0.0001334775
0.00011872408
0.00010556536
9.3832371e-05
8.337298e-05
7.4050361e-05
6.5741561e-05
5.8336198e-05
5.1735256e-05
4.584998e-05
4.0600867e-05
3.5916739e-05
3.1733905e-05
2.7995392e-05
2.465025e-05
2.165292e-05
1.8962662e-05
1.6543039e-05
1.4361447e-05
1.2388701e-05
1.0598649e-05
8.9678422e-06
7.4752269e-06
6.1018821e-06
4.8307812e-06
3.6465848e-06
2.5354584e-06
1.4849131e-06
4.836497e-07
0.0015459398
0.0013926002
0.001253358
0.0011270959
0.0010127329
0.00090926221
0.00081574808
0.00073132176
0.00065517831
0.00058657323
0.00052481934
0.00046928353
0.00041938373
0.00037458578
0.00033440042
0.00029838031
0.00026611715
0.0002372389
0.00021140704
0.00018831407
0.00016768106
0.00014925532
0.00013280826
0.00011813337
0.00010504425
9.3372935e-05
8.2968158e-05
7.3693877e-05
6.5427844e-05
5.8060306e-05
5.149281e-05
4.5637104e-05
4.0414131e-05
3.5753115e-05
3.159072e-05
2.787029e-05
2.4541156e-05
2.155801e-05
1.8880336e-05
1.6471892e-05
1.4300254e-05
1.2336389e-05
1.0554287e-05
8.9306201e-06
7.4444466e-06
6.0769432e-06
4.8111712e-06
3.6318704e-06
2.5252785e-06
1.4789733e-06
4.8172017e-07
0.0015364624
0.0013841069
0.0012457521
0.001120289
0.0010066457
0.00090382296
0.0008108918
0.00072698947
0.00065131646
0.0005831333
0.00052175743
0.00046656
0.00041696284
0.00037243535
0.0003324915
0.00029668691
0.00026461591
0.00023590886
0.00021022942
0.00018727204
0.00016675957
0.0001484409
0.0001320889
0.00011749832
0.00010448396
9.2878876e-05
8.2532756e-05
7.3310396e-05
6.5090305e-05
5.7763406e-05
5.1231847e-05
4.5407918e-05
4.0213043e-05
3.5576875e-05
3.1436458e-05
2.7735477e-05
2.4423565e-05
2.1455684e-05
1.8791554e-05
1.6395149e-05
1.4234231e-05
1.2279935e-05
1.0506401e-05
8.8904339e-06
7.4112093e-06
6.0500095e-06
4.7899902e-06
3.6159761e-06
2.5142823e-06
1.4725578e-06
4.7963672e-07
0.0015263073
0.0013750032
0.0012375979
0.0011129908
0.0010001188
0.00089799072
0.00080568453
0.00072234396
0.00064717536
0.00057944462
0.00051847413
0.00046363959
0.000414367
0.00037012956
0.00033044472
0.0002948712
0.00026300623
0.00023448271
0.00020896666
0.00018615462
0.00016577134
0.00014756742
0.00013131728
0.00011681707
0.00010388282
9.2348721e-05
8.206547e-05
7.2898766e-05
6.4727925e-05
5.7444594e-05
5.0951572e-05
4.5161722e-05
3.9996985e-05
3.5387472e-05
3.1270638e-05
2.7590531e-05
2.4297107e-05
2.1345616e-05
1.8696034e-05
1.6312562e-05
1.4163164e-05
1.2219156e-05
1.0454836e-05
8.8471519e-06
7.3754054e-06
6.0209918e-06
4.7671679e-06
3.5988492e-06
2.5024332e-06
1.4656454e-06
4.7739251e-07
0.0015154509
0.0013652679
0.0012288763
0.0011051838
0.00099313637
0.00089175105
0.00080011328
0.00071737357
0.00064274453
0.0005754978
0.00051496103
0.00046051478
0.00041158948
0.0003676624
0.00032825467
0.0002929284
0.00026128384
0.00023295667
0.00020761538
0.0001849588
0.00016471369
0.00014663251
0.00013049131
0.00011608774
0.00010323918
9.1781013e-05
8.1565011e-05
7.2457843e-05
6.4339692e-05
5.7102979e-05
5.0651193e-05
4.4897816e-05
3.9765339e-05
3.5184364e-05
3.1092783e-05
2.7435031e-05
2.4161412e-05
2.1227482e-05
1.8593493e-05
1.6223886e-05
1.4086842e-05
1.2153869e-05
1.0399436e-05
8.8006425e-06
7.3369255e-06
5.9898012e-06
4.742634e-06
3.5804368e-06
2.4896949e-06
1.4582149e-06
4.7498066e-07
0.0015038702
0.0013548805
0.0012195686
0.001096851
0.00098568295
0.00088509003
0.00079416547
0.00071206698
0.00063801381
0.00057128371
0.00051120994
0.00045717822
0.00040862371
0.00036502798
0.00032591613
0.00029085382
0.00025944456
0.000231327
0.00020617228
0.00018368164
0.00016358402
0.00014563385
0.00012960894
0.00011530853
0.00010255143
9.1174316e-05
8.1030105e-05
7.1986501e-05
6.3924609e-05
5.6737676e-05
5.032993e-05
4.461551e-05
3.9517496e-05
3.4967013e-05
3.0902416e-05
2.7268559e-05
2.4016114e-05
2.1100963e-05
1.848365e-05
1.6128876e-05
1.4005053e-05
1.2083892e-05
1.0340046e-05
8.7507746e-06
7.2956609e-06
5.956349e-06
4.7163188e-06
3.5606863e-06
2.4760308e-06
1.4502449e-06
4.7239434e-07
0.0014915425
0.0013438207
0.0012096567
0.001087976
0.00097774377
0.00087799429
0.00078782903
0.00070641332
0.00063297343
0.00056679358
0.00050721299
0.00045362286
0.00040546335
0.00036222065
0.000323424
0.00028864292
0.00025748436
0.00022959009
0.00020463413
0.00018232028
0.00016237978
0.00014456917
0.00012866815
0.00011447764
0.00010181799
9.0527226e-05
8.0459509e-05
7.1483636e-05
6.3481697e-05
5.6347819e-05
4.9987015e-05
4.4314126e-05
3.9252856e-05
3.4734887e-05
3.0699072e-05
2.7090705e-05
2.386085e-05
2.0965739e-05
1.8366227e-05
1.6027291e-05
1.3917586e-05
1.2009045e-05
1.0276511e-05
8.6974183e-06
7.2515033e-06
5.9205474e-06
4.6881528e-06
3.5395456e-06
2.4614048e-06
1.4417146e-06
4.6962679e-07
0.0014784464
0.0013320694
0.0011991232
0.0010785433
0.00096930474
0.00087045109
0.00078109248
0.00070040226
0.00062761409
0.00056201905
0.00050296267
0.00044984195
0.00040210237
0.00035923497
0.00032077345
0.00028629136
0.00025539934
0.0002277425
0.00020299786
0.00018087196
0.00016109852
0.0001434363
0.000127667
0.00011359335
0.00010103731
8.983838e-05
7.9852012e-05
7.0948175e-05
6.3010005e-05
5.5932564e-05
4.96217e-05
4.3993e-05
3.8970832e-05
3.4487469e-05
3.0482292e-05
2.6901063e-05
2.3695265e-05
2.08215e-05
1.8240952e-05
1.5918892e-05
1.3824237e-05
1.1929149e-05
1.0208679e-05
8.6404452e-06
7.2043461e-06
5.8823092e-06
4.6580672e-06
3.516963e-06
2.4457813e-06
1.4326031e-06
4.6667128e-07
0.0014645612
0.0013196081
0.001187952
0.0010685382
0.00096035258
0.00086244846
0.00077394503
0.00069402405
0.00062192701
0.00055695223
0.00049845189
0.00044582912
0.00039853503
0.00035606582
0.00031795987
0.00028379503
0.00025318583
0.00022578091
0.00020126051
0.00017933406
0.0001597379
0.00014223315
0.00012660363
0.000112654
0.00010020793
8.9106466e-05
7.9206446e-05
7.0379078e-05
6.2508608e-05
5.549109e-05
4.9233257e-05
4.3651486e-05
3.867085e-05
3.4224251e-05
3.0251627e-05
2.6699238e-05
2.351901e-05
2.0667938e-05
1.8107556e-05
1.5803446e-05
1.3724801e-05
1.184403e-05
1.0136401e-05
8.5797285e-06
7.1540836e-06
5.8415487e-06
4.6259943e-06
3.4928874e-06
2.4291248e-06
1.4228898e-06
4.6352121e-07
0.0014498677
0.0013064198
0.0011761274
0.0010579468
0.00095087484
0.0008539752
0.00076637658
0.0006872696
0.00061590401
0.00055158574
0.00049367401
0.0004415784
0.00039475598
0.00035270837
0.00031497894
0.00028115004
0.00025084034
0.00022370222
0.00019941931
0.00017770409
0.00015829569
0.00014095772
0.00012547626
0.000111658
9.9328429e-05
8.8330222e-05
7.8521687e-05
6.9775345e-05
6.1976617e-05
5.5022605e-05
4.8820981e-05
4.3288958e-05
3.8352355e-05
3.3944739e-05
3.000664e-05
2.6484843e-05
2.3331743e-05
2.0504753e-05
1.7965775e-05
1.5680721e-05
1.3619078e-05
1.1753513e-05
1.0059529e-05
8.5151427e-06
7.1006114e-06
5.7981805e-06
4.5918668e-06
3.4672684e-06
2.4114004e-06
1.4125544e-06
4.6017004e-07
0.0014343478
0.0012924882
0.001163635
0.0010467561
0.00094085989
0.00084502085
0.0007583777
0.00068013043
0.00060953745
0.0005459127
0.00048862282
0.00043708422
0.0003907602
0.00034915812
0.00031182659
0.00027835275
0.00024835961
0.00022150349
0.0001974716
0.00017597968
0.00015676977
0.00013960812
0.00012428321
0.00011060384
9.8397452e-05
8.7508437e-05
7.7796653e-05
6.9136009e-05
6.1413166e-05
5.4526337e-05
4.8384184e-05
4.2904803e-05
3.8014802e-05
3.3648449e-05
2.97469e-05
2.6257497e-05
2.3133128e-05
2.0331646e-05
1.7815347e-05
1.5550489e-05
1.3506868e-05
1.1657427e-05
9.9779135e-06
8.4465628e-06
7.0438254e-06
5.7521198e-06
4.5556177e-06
3.4400554e-06
2.3925732e-06
1.4015768e-06
4.5661128e-07
0.0014179842
0.0012777979
0.0011504613
0.0010349539
0.00093029675
0.00083557552
0.00074993953
0.00067259856
0.00060282014
0.00053992665
0.00048329252
0.00043234132
0.00038654295
0.0003454108
0.000308499
0.00027539971
0.00024574052
0.00021918192
0.00019541489
0.00017415858
0.00015515811
0.00013818254
0.00012302283
0.00010949006
9.7413688e-05
8.6639936e-05
7.7030291e-05
6.8460127e-05
6.0817413e-05
5.4001532e-05
4.7922191e-05
4.2498418e-05
3.7657652e-05
3.3334901e-05
2.947198e-05
2.6016819e-05
2.2922826e-05
2.0148321e-05
1.765601e-05
1.5412519e-05
1.338797e-05
1.1555598e-05
9.8914068e-06
8.3738624e-06
6.98362e-06
5.7032808e-06
4.5171791e-06
3.4111976e-06
2.3726083e-06
1.3899365e-06
4.528384e-07
0.0014007598
0.0012623338
0.0011365925
0.0010225282
0.00091917464
0.00082562961
0.00074105344
0.00066466625
0.00059574512
0.00053362133
0.00047767746
0.00042734463
0.00038209967
0.0003414623
0.00030499245
0.00027228757
0.00024298007
0.00021673481
0.00019324673
0.00017223858
0.00015345874
0.00013667918
0.00012169352
0.00010831521
9.6375837e-05
8.5723548e-05
7.622155e-05
6.7746754e-05
6.0188509e-05
5.3447429e-05
4.7434319e-05
4.2069191e-05
3.7280357e-05
3.3003604e-05
2.9181443e-05
2.5762419e-05
2.2700492e-05
1.995447e-05
1.7487492e-05
1.5266573e-05
1.3262178e-05
1.1447846e-05
9.799854e-06
8.2969105e-06
6.9198861e-06
5.6515741e-06
4.4764808e-06
3.3806423e-06
2.3514691e-06
1.3776127e-06
4.488447e-07
0.0013826565
0.0012460798
0.0011220144
0.0010094662
0.00090748228
0.00081517304
0.00073171044
0.00065632545
0.0005883052
0.00052699027
0.00047177184
0.00042208894
0.00037742566
0.00033730839
0.00030130314
0.0002690129
0.00024007515
0.00021415935
0.0001909646
0.00017021742
0.00015166961
0.00013509621
0.00012029362
0.00010707778
9.5282544e-05
8.4758054e-05
7.536933e-05
6.6994901e-05
5.9525563e-05
5.2863225e-05
4.6919847e-05
4.1616474e-05
3.6882335e-05
3.2654038e-05
2.8874821e-05
2.5493882e-05
2.2465756e-05
1.9749764e-05
1.7309504e-05
1.5112396e-05
1.3129266e-05
1.1333976e-05
9.7030883e-06
8.2155657e-06
6.8525058e-06
5.5969041e-06
4.4334472e-06
3.3483329e-06
2.329117e-06
1.3645828e-06
4.4462304e-07
0.0013636529
0.0012290169
0.0011067104
0.00099575312
0.00089520659
0.0008041942
0.00072190021
0.00064756696
0.00058049215
0.00052002612
0.00046556908
0.00041656835
0.00037251564
0.00033294432
0.00029742678
0.00026557186
0.00023702232
0.00021145243
0.00018856569
0.00016809256
0.00014978843
0.00013343156
0.00011882126
0.00010577611
9.4132297e-05
8.3742089e-05
7.4472398e-05
6.6203455e-05
5.8827572e-05
5.2248016e-05
4.6377963e-05
4.1139535e-05
3.6462929e-05
3.2285612e-05
2.8551589e-05
2.5210736e-05
2.2218196e-05
1.953383e-05
1.7121715e-05
1.4949697e-05
1.2988982e-05
1.1213769e-05
9.600921e-06
8.1296681e-06
6.781346e-06
5.5391624e-06
4.3879932e-06
3.3142058e-06
2.3055083e-06
1.350822e-06
4.4016546e-07
0.0013437208
0.0012111202
0.0010906584
0.00098136974
0.00088233051
0.00079267802
0.00071160939
0.00063837894
0.00057229545
0.00051271953
0.00045906084
0.00041077541
0.00036736294
0.00032836413
0.00029335806
0.00026195966
0.00023381727
0.0002086102
0.00018604653
0.00016586089
0.00014781239
0.0001316827
0.00011727418
0.00010440814
9.2923247e-05
8.2673986e-05
7.3529256e-05
6.5371065e-05
5.8093319e-05
5.1600708e-05
4.5807679e-05
4.0637488e-05
3.6021344e-05
3.1897615e-05
2.8211107e-05
2.4912411e-05
2.1957307e-05
1.9306219e-05
1.6923728e-05
1.4778127e-05
1.2841021e-05
1.1086961e-05
9.4931261e-06
8.0390265e-06
6.7062477e-06
5.4782199e-06
4.3400175e-06
3.2781855e-06
2.2805914e-06
1.3363007e-06
4.3546258e-07
0.0013228196
0.001192354
0.0010738272
0.00096628844
0.00086882976
0.00078060306
0.00070081904
0.00062874462
0.00056370025
0.00050505732
0.00045223542
0.00040469973
0.00036195833
0.00032355959
0.00028908962
0.00025816976
0.00023045415
0.00020562743
0.00018340245
0.00016351821
0.00014573774
0.00012984626
0.00011564933
0.00010297115
9.1652951e-05
8.1551551e-05
7.2537928e-05
6.4495957e-05
5.732121e-05
5.091987e-05
4.5207712e-05
4.0109183e-05
3.555655e-05
3.1489124e-05
2.7852553e-05
2.4598176e-05
2.1682438e-05
1.9066355e-05
1.6715037e-05
1.4597243e-05
1.2684996e-05
1.0953218e-05
9.3794177e-06
7.9433997e-06
6.6270109e-06
5.4139147e-06
4.2893934e-06
3.2401777e-06
2.254302e-06
1.320982e-06
4.3050275e-07
0.0013008889
0.0011726645
0.0010561695
0.00095046772
0.00085466775
0.00076793704
0.00068950067
0.00061863885
0.00055468433
0.00049701984