/*--------------------------------*- C++ -*----------------------------------*\
| =========                 |                                                 |
| \\      /  F ield         | OpenFOAM: The Open Source CFD Toolbox           |
|  \\    /   O peration     | Version:  2312                                  |
|   \\  /    A nd           | Website:  www.openfoam.com                      |
|    \\/     M anipulation  |                                                 |
\*---------------------------------------------------------------------------*/
FoamFile
{
    version     2.0;
    format      ascii;
    arch        "LSB;label=32;scalar=64";
    class       volScalarField;
    location    "0.03";
    object      k;
}
// * * * * * * * * * * * * * * * * * * * * * * * * * * * * * * * * * * * * * //

dimensions      [0 2 -2 0 0 0 0];

internalField   nonuniform List<scalar> 
3224
(
7.8529048
7.8913236
7.9314354
7.9732852
8.0169171
8.062375
8.1097022
8.1589408
8.2101312
8.2633113
8.3185162
8.3757778
8.4351246
8.4965812
8.5601681
8.6259018
8.6937942
8.7638534
8.8360826
8.9104811
8.9870439
9.065762
9.1466225
9.2296093
9.314703
9.4018817
9.4911213
9.5823962
9.6756798
9.7709448
9.8681639
9.9673096
10.068354
10.171269
10.276025
10.38259
10.490932
10.601014
10.712801
10.826257
10.941341
7.8528576
7.8912763
7.931389
7.9732411
8.016876
8.0623372
8.1096678
8.1589099
8.2101036
8.2632868
8.3184947
8.3757592
8.4351087
8.4965678
8.5601571
8.625893
8.6937876
8.7638487
8.8360798
8.9104802
8.9870447
9.0657643
9.1466264
9.2296146
9.3147096
9.4018894
9.4911301
9.5824059
9.6756902
9.7709559
9.8681754
9.9673214
10.068366
10.171281
10.276036
10.3826
10.490941
10.601022
10.712807
10.82626
10.941342
7.8526794
7.8911015
7.93122
7.973079
8.0167214
8.0621904
8.1095287
8.1587785
8.2099797
8.2631703
8.3183853
8.3756567
8.4350129
8.4964784
8.5600739
8.6258158
8.6937162
8.763783
8.8360195
8.9104251
8.9869946
9.0657191
9.1465858
9.2295784
9.3146777
9.4018615
9.4911059
9.5823853
9.6756729
9.7709416
9.868164
9.9673125
10.068359
10.171276
10.276033
10.382599
10.49094
10.601022
10.712807
10.826261
10.941342
7.8523701
7.8907999
7.9309292
7.9727999
8.0164543
8.0619353
8.1092857
8.1585473
8.2097602
8.2629622
8.3181884
8.3754707
8.4348374
8.4963132
8.5599187
8.6256702
8.69358
8.7636559
8.8359013
8.9103154
8.9868932
9.0656257
9.1465001
9.2295002
9.3146065
9.4017971
9.491048
9.5823335
9.675627
9.7709013
9.8681289
9.9672824
10.068334
10.171255
10.276016
10.382585
10.49093
10.601014
10.712802
10.826258
10.941341
7.8151385
7.8519263
7.8903723
7.9305178
7.9724049
8.0160757
8.0615731
8.1089397
8.1582173
8.2094459
8.2626633
8.3179046
8.3752015
8.4345826
8.4960724
8.5596915
8.6254563
8.6933791
8.7634675
8.8357251
8.910151
8.9867403
9.0654839
9.146369
9.2293794
9.3144956
9.4016958
9.4909558
9.5822501
9.675552
9.7708343
9.8680696
9.9672304
10.068289
10.171217
10.275984
10.382559
10.490909
10.600999
10.712791
10.826251
10.941339
7.8145691
7.8513855
7.8898523
7.9300179
7.9719247
8.0156152
8.0611319
8.1085177
8.1578142
8.2090614
8.2622971
8.3175562
8.3748706
8.4342688
8.4957752
8.5594106
8.6251913
8.6931294
8.7632328
8.835505
8.9099451
8.9865482
9.0653051
9.1462031
9.2292259
9.3143542
9.4015659
9.4908371
9.582142
9.6754541
9.7707463
9.8679911
9.967161
10.068228
10.171164
10.27594
10.382523
10.49088
10.600977
10.712775
10.826242
10.941336
7.8139283
7.850769
7.8892595
7.929448
7.9713774
8.0150899
8.0606285
8.1080358
8.1573535
8.2086216
8.2618777
8.3171569
8.3744909
8.4339083
8.4954335
8.5590872
8.6248857
8.6928413
8.7629617
8.8352503
8.9097065
8.9863251
9.0650971
9.1460098
9.2290467
9.3141886
9.4014135
9.4906973
9.5820144
9.6753383
9.7706417
9.8678975
9.9670779
10.068155
10.171101
10.275886
10.382478
10.490844
10.600949
10.712756
10.826231
10.941332
7.8131623
7.8500289
7.8885476
7.9287637
7.9707199
8.0144587
8.0600233
8.1074561
8.156799
8.2080918
8.2613722
8.3166752
8.3740326
8.4334728
8.4950203
8.5586958
8.6245156
8.6924919
8.7626325
8.8349409
8.9094162
8.9860534
9.0648434
9.1457735
9.2288274
9.3139856
9.4012263
9.4905253
9.5818571
9.6751951
9.7705123
9.8677812
9.9669745
10.068064
10.171022
10.275819
10.382422
10.4908
10.600915
10.712732
10.826217
10.941328
7.7769664
7.8122565
7.8491564
7.8877085
7.927957
7.9699446
8.0137143
8.0593092
8.1067719
8.1561441
8.2074658
8.2607746
8.3161054
8.3734901
8.432957
8.4945307
8.5582317
8.6240765
8.6920771
8.7622414
8.8345728
8.9090706
8.9857296
9.0645409
9.1454915
9.2285652
9.3137427
9.401002
9.4903189
9.5816681
9.6750229
9.7703563
9.8676409
9.9668495
10.067954
10.170927
10.275737
10.382354
10.490745
10.600873
10.712703
10.8262
10.941322
7.7758678
7.811203
7.8481427
7.8867336
7.9270195
7.9690435
8.0128488
8.0584787
8.1059758
8.155382
8.206737
8.2600785
8.3154415
8.3728578
8.4323555
8.4939594
8.55769
8.6235635
8.6915923
8.7617841
8.8341422
8.908666
8.9853503
9.0641861
9.1451606
9.2282574
9.3134572
9.4007381
9.4900759
9.5814452
9.6748196
9.7701719
9.867475
9.9667014
10.067823
10.170813
10.27564
10.382274
10.49068
10.600824
10.712668
10.826179
10.941316
7.740769
7.7746096
7.8099931
7.8469787
7.8856137
7.9259423
7.9680078
8.0118539
8.0575237
8.1050602
8.1545051
8.2058982
8.2592772
8.314677
8.3721292
8.4316623
8.4933008
8.5570651
8.6229717
8.6910327
8.7612559
8.8336447
8.9081983
8.9849116
9.0637756
9.1447774
9.2279007
9.3131262
9.4004318
9.4897937
9.5811863
9.6745831
9.7699573
9.8672815
9.9665286
10.067671
10.17068
10.275526
10.382179
10.490604
10.600765
10.712628
10.826156
10.941309
7.7392914
7.7731809
7.8086173
7.8456543
7.8843391
7.9247159
7.9668285
8.0107206
8.0564358
8.1040169
8.1535057
8.204942
8.2583634
8.3138048
8.371298
8.4308711
8.4925488
8.5563515
8.6222956
8.6903932
8.7606521
8.8330757
8.9076632
8.9844095
9.0633055
9.1443383
9.2274918
9.3127464
9.4000803
9.4894696
9.5808887
9.6743112
9.7697103
9.8670588
9.9663295
10.067495
10.170527
10.275395
10.382069
10.490515
10.600698
10.71258
10.826128
10.9413
7.705185
7.7376264
7.7715708
7.8070652
7.8441594
7.8828997
7.9233305
7.9654959
8.0094398
8.0552059
8.1028372
8.1523753
8.2038602
8.2573294
8.3128178
8.370357
8.4299753
8.4916971
8.5555431
8.6215295
8.6896684
8.7599675
8.8324304
8.9070561
8.9838395
9.0627717
9.1438396
9.2270271
9.3123147
9.3996806
9.4891008
9.5805498
9.6740014
9.7694287
9.8668047
9.9661022
10.067294
10.170351
10.275245
10.381944
10.490414
10.60062
10.712526
10.826096
10.94129
7.7032643
7.7357623
7.7697678
7.8053257
7.8424829
7.8812847
7.9217757
7.9639999
8.0080017
8.0538247
8.1015121
8.1511055
8.2026447
8.2561673
8.3117082
8.369299
8.4289678
8.4907392
8.5546336
8.6206673
8.6888525
8.7591968
8.8317037
8.9063723
8.9831974
9.0621701
9.1432774
9.226503
9.3118277
9.3992294
9.4886843
9.580167
9.6736513
9.7691104
9.8665173
9.965845
10.067066
10.170152
10.275075
10.381801
10.490299
10.600532
10.712464
10.82606
10.941278
7.670035
7.7011248
7.7336866
7.7677598
7.8033872
7.8406134
7.879483
7.9200404
7.96233
8.006396
8.0522823
8.1000321
8.1496869
8.2012866
8.2548688
8.3104682
8.3681163
8.4278415
8.4896681
8.5536165
8.619703
8.6879398
8.7583344
8.8308904
8.9056067
8.9824784
9.0614963
9.1426475
9.2259158
9.3112817
9.3987235
9.4882172
9.5797376
9.6732583
9.7687529
9.8661944
9.9655558
10.06681
10.169929
10.274883
10.381641
10.49017
10.600433
10.712395
10.826019
10.941265
7.6675966
7.6987533
7.7313864
7.765534
7.8012371
7.8385387
7.8774827
7.9181133
7.960475
8.004612
8.0505685
8.0983873
8.1481102
8.199777
8.2534251
8.3090893
8.3668011
8.4265888
8.4884765
8.5524848
8.61863
8.686924
8.7573745
8.8299849
8.9047544
8.9816777
9.0607458
9.1419458
9.2252613
9.3106732
9.3981594
9.4876963
9.5792585
9.6728198
9.7683539
9.8658338
9.9652328
10.066524
10.169679
10.274668
10.381461
10.490024
10.600322
10.712316
10.825973
10.94125
7.6351181
7.6649043
7.6961362
7.7288481
7.763077
7.7988625
7.8362463
7.8752717
7.9159826
7.9584235
8.0026388
8.0486724
8.0965674
8.1463654
8.1981061
8.2518271
8.3075629
8.365345
8.4252016
8.487157
8.5512315
8.6174414
8.6857987
8.756311
8.8289816
8.9038097
8.9807902
9.0599138
9.1411677
9.2245356
9.3099982
9.3975337
9.4871183
9.5787268
9.6723331
9.7679108
9.8654334
9.964874
10.066206
10.169401
10.27443
10.381262
10.489863
10.600197
10.712229
10.825921
10.941233
7.632079
7.6619445
7.693259
7.7260573
7.7603748
7.7962497
7.8337229
7.872837
7.9136357
7.9561635
8.0004646
8.046583
8.0945616
8.1444422
8.1962643
8.2500653
8.3058799
8.3637394
8.4236719
8.4857017
8.5498491
8.6161303
8.6845572
8.7551375
8.8278745
8.9027673
8.9798106
9.0589954
9.1403087
9.2237343
9.3092529
9.3968426
9.4864798
9.5781393
9.6717952
9.7674212
9.8649907
9.9644772
10.065854
10.169093
10.274166
10.38104
10.489683
10.600059
10.712131
10.825864
10.941214
7.6287529
7.6587018
7.6901066
7.7229989
7.7574126
7.7933846
7.8309548
7.8701654
7.9110599
7.9536825
7.9980775
8.0442886
8.0923589
8.1423299
8.1942412
8.24813
8.3040309
8.3619753
8.4219911
8.4841025
8.5483299
8.6146893
8.6831927
8.7538476
8.8266575
8.9016211
8.9787335
9.0579854
9.139364
9.222853
9.308433
9.3960823
9.4857773
9.5774929
9.6712033
9.7668822
9.8645033
9.9640403
10.065466
10.168754
10.273874
10.380796
10.489486
10.599907
10.712024
10.8258
10.941193
7.6251196
7.6551592
7.6866627
7.7196574
7.7541753
7.7902524
7.8279278
7.8672432
7.9082419
7.9509678
7.9954651
8.0417774
8.0899478
8.1400175
8.1920261
8.2460109
8.3020062
8.3600433
8.4201502
8.482351
8.5466658
8.6131108
8.6816978
8.7524345
8.825324
8.9003653
8.9775532
9.0568787
9.1383287
9.221887
9.3075343
9.3952489
9.4850071
9.5767842
9.6705542
9.7662911
9.8639688
9.9635611
10.065041
10.168382
10.273555
10.380528
10.489268
10.59974
10.711906
10.82573
10.94117
7.5924622
7.6211556
7.6512987
7.6829104
7.7160164
7.7506471
7.7868378
7.8246271
7.8640561
7.9051678
7.948006
7.9926145
8.039037
8.0873163
8.1374936
8.1896083
8.2436976
8.2997958
8.3579341
8.4181403
8.4804384
8.5448486
8.611387
8.6800653
8.750891
8.8238675
8.8989935
8.9762639
9.0556696
9.1371976
9.2208315
9.3065523
9.3943381
9.4841655
9.5760096
9.6698448
9.7656451
9.8633845
9.9630371
10.064577
10.167976
10.273205
10.380235
10.489031
10.599557
10.711776
10.825653
10.941145
7.5880372
7.616844
7.6471025
7.6788326
7.7120591
7.7468119
7.7831253
7.8210376
7.8605896
7.9018237
7.9447835
7.9895127
8.0360548
8.0844523
8.1347465
8.1869765
8.2411794
8.2973895
8.3556377
8.4159519
8.4783559
8.5428699
8.6095099
8.6782875
8.7492102
8.8222812
8.8974995
8.9748597
9.0543526
9.1359655
9.2196818
9.3054825
9.393346
9.4832486
9.5751657
9.6690718
9.7649411
9.8627479
9.9624662
10.06407
10.167532
10.272824
10.379915
10.488771
10.599356
10.711634
10.825568
10.941117
7.5296607
7.5557413
7.5832361
7.6121675
7.6425526
7.6744115
7.7077684
7.7426529
7.7790988
7.817144
7.8568287
7.8981951
7.9412865
7.9861463
8.0328178
8.0813435
8.1317642
8.1841193
8.2384454
8.2947767
8.3531443
8.4135756
8.4760946
8.5407212
8.6074713
8.6763567
8.7473847
8.8205584
8.8958767
8.9733344
9.0529221
9.1346271
9.2184329
9.3043205
9.3922682
9.4822526
9.574249
9.6682322
9.7641764
9.8620562
9.9618458
10.063519
10.16705
10.27241
10.379567
10.488488
10.599139
10.71148
10.825477
10.941087
7.4994373
7.5242092
7.5504126
7.5780408
7.6071081
7.637631
7.6696291
7.7031269
7.7381533
7.774742
7.8129303
7.8527581
7.8942673
7.9375007
7.9825016
8.0293131
8.0779772
8.1285349
8.1810251
8.2354845
8.2919471
8.3504437
8.4110018
8.4736451
8.5383937
8.6052631
8.6742652
8.7454071
8.818692
8.8941188
8.971682
9.0513724
9.1331772
9.21708
9.3030616
9.3911006
9.4811735
9.5732559
9.6673225
9.763348
9.8613068
9.9611737
10.062923
10.166528
10.27196
10.37919
10.488182
10.598902
10.711313
10.825377
10.941054
7.4934177
7.5183224
7.5446619
7.5724335
7.6016474
7.632319
7.6644674
7.6981168
7.7332961
7.7700384
7.8083807
7.8483626
7.8900255
7.933412
7.978565
8.0255272
8.0743408
8.1250462
8.1776823
8.2322856
8.2888898
8.3475258
8.4082208
8.4709985
8.5358787
8.6028771
8.6720052
8.7432702
8.8166753
8.8922192
8.9698965
9.0496979
9.1316105
9.215618
9.3017014
9.389839
9.4800077
9.5721829
9.6663398
9.762453
9.8604973
9.9604477
10.062279
10.165964
10.271475
10.378782
10.487851
10.598646
10.711131
10.825269
10.941018
7.4869344
7.5119818
7.5384695
7.566395
7.5957666
7.6265981
7.6589081
7.6927205
7.728064
7.7649714
7.8034793
7.8436268
7.8854549
7.929006
7.9743226
8.0214472
8.0704216
8.1212861
8.1740793
8.2288376
8.2855945
8.3443807
8.4052232
8.4681457
8.5331678
8.6003051
8.6695691
8.7409669
8.8145015
8.8901717
8.9679719
9.047893
9.1299219
9.2140424
9.3002354
9.3884795
9.4787514
9.5710269
9.665281
9.7614888
9.8596253
9.9596656
10.061584
10.165356
10.270952
10.378342
10.487494
10.59837
10.710935
10.825152
10.940979
7.479966
7.5051677
7.5318153
7.5599062
7.5894467
7.6204496
7.6529331
7.6869205
7.7224401
7.7595247
7.7982102
7.8385354
7.8805409
7.9242687
7.9697611
8.0170601
8.0662073
8.1172428
8.1702049
8.2251298
8.2820509
8.3409985
8.4019997
8.465078
8.5302527
8.5975395
8.6669496
8.7384903
8.8121643
8.8879703
8.9659029
9.0459527
9.1281068
9.2123488
9.2986598
9.3870184
9.4774014
9.5697846
9.6641434
9.760453
9.8586885
9.9588254
10.060839
10.164703
10.27039
10.37787
10.48711
10.598074
10.710725
10.825026
10.940937
7.4724914
7.4978598
7.5246796
7.5529476
7.582669
7.6138555
7.6465246
7.6806995
7.7164079
7.7536822
7.792558
7.8330737
7.8752694
7.9191866
7.9648673
8.0123534
8.061686
8.1129049
8.1660482
8.2211519
8.2782492
8.3373701
8.3985417
8.4617871
8.5271257
8.594573
8.6641401
8.735834
8.8096577
8.8856095
8.9636842
9.0438722
9.1261607
9.2105333
9.296971
9.3854524
9.4759547
9.5684536
9.6629248
9.7593434
9.8576852
9.9579257
10.06004
10.164004
10.269788
10.377364
10.486698
10.597756
10.710499
10.824892
10.940893
7.4644901
7.4900381
7.5170429
7.5455005
7.5754153
7.6067981
7.6396659
7.6740412
7.7099516
7.747429
7.7865084
7.8272277
7.8696269
7.9137469
7.9596293
8.0073156
8.0568466
8.108262
8.1615994
8.2168946
8.2741806
8.3334872
8.3948412
8.4582657
8.5237799
8.5913991
8.6611344
8.7329926
8.8069766
8.8830848
8.9613117
9.0416478
9.1240802
9.2085926
9.295166
9.3837791
9.4744091
9.5670319
9.6616232
9.7581587
9.8566141
9.9569654
10.059188
10.163257
10.269146
10.376824
10.486259
10.597416
10.710258
10.824747
10.940845
7.4559428
7.481684
7.5088871
7.5375474
7.5676688
7.5992613
7.6323413
7.6669308
7.703057
7.7407512
7.7800481
7.8209851
7.8636016
7.9079383
7.9540362
8.0019365
8.0516797
8.103305
8.1568499
8.2123499
8.2698376
8.3293428
8.3908919
8.4545079
8.5202099
8.5880129
8.6579279
8.7299618
8.8041172
8.8803925
8.9587821
9.0392766
9.1218629
9.2065247
9.2932431
9.3819969
9.4727632
9.5655183
9.6602379
9.756898
9.8554745
9.9559438
10.058282
10.162464
10.268463
10.376249
10.485792
10.597054
10.710001
10.824594
10.940794
7.4468325
7.472781
7.5001962
7.5290732
7.559415
7.5912312
7.6245375
7.6593555
7.6957119
7.7336374
7.7731662
7.8143354
7.8571838
7.9017515
7.9480793
7.996208
8.0461775
8.0980269
8.1517932
8.2075117
8.2652147
8.3249318
8.3866892
8.4505095
8.5164118
8.584411
8.6545179
8.7267393
8.8010775
8.8775311
8.9560943
9.0367575
9.1195079
9.204329
9.2912019
9.3801055
9.4710171
9.5639129
9.6587691
9.7555616
9.8542669
9.9548615
10.057322
10.161623
10.267739
10.375641
10.485297
10.596671
10.709728
10.824431
10.94074
7.4371456
7.4633159
7.4909577
7.5200658
7.5506426
7.5826971
7.6162445
7.6513059
7.6879074
7.7260792
7.7658551
7.8072715
7.8503667
7.8951806
7.9417532
7.9901251
8.0403357
8.0924237
8.146426
8.2023772
8.2603095
8.3202522
8.3822314
8.4462694
8.5123851
8.5805932
8.6509043
8.7233252
8.7978581
8.8745013
8.9532491
9.0340919
9.1170166
9.202007
9.2890441
9.3781068
9.4691726
9.5622178
9.6572187
9.7541516
9.8529931
9.9537202
10.05631
10.160737
10.266977
10.375
10.484775
10.596267
10.709441
10.824259
10.940682
7.4268737
7.4532808
7.4811643
7.5105185
7.5413454
7.5736534
7.6074572
7.6427774
7.6796395
7.7180732
7.7581117
7.7997909
7.8431486
7.8882241
7.935057
7.9836874
8.0341543
8.0864961
8.140749
8.1969476
8.2551237
8.3153063
8.3775212
8.4417905
8.5081328
8.5765627
8.6470908
8.7197235
8.794463
8.8713074
8.9502511
9.0312842
9.1143938
9.1995635
9.2867744
9.3760055
9.4672343
9.5604373
9.655591
9.7526719
9.8516569
9.9525234
10.055248
10.159808
10.266177
10.374327
10.484227
10.595843
10.709139
10.824078
10.940622
7.416016
7.4426752
7.4708158
7.5004317
7.5315243
7.5641015
7.5981776
7.6337725
7.6709112
7.7096228
7.74994
7.791898
7.8355343
7.8808873
7.9279965
7.9769011
8.02764
8.0802508
8.1347697
8.1912307
8.2496654
8.3101023
8.372567
8.4370814
8.5036639
8.5723289
8.6430867
8.7159435
8.7909016
8.8679589
8.9471095
9.0283438
9.1116485
9.1970074
9.2844016
9.37381
9.4652103
9.5585792
9.6538933
9.7511294
9.8502648
9.951277
10.054144
10.158842
10.265345
10.373628
10.483658
10.595402
10.708825
10.82389
10.940559
7.4045825
7.4315096
7.459923
7.4898165
7.5211908
7.5540534
7.588418
7.6243039
7.6617356
7.7007415
7.7413538
7.7836072
7.8275383
7.8731852
7.9205868
7.9697817
8.0208084
8.0737041
8.1285044
8.185243
8.2439511
8.3046569
8.3673857
8.4321592
8.4989954
8.5679085
8.6389087
8.7120021
8.7871906
8.8644721
8.9438406
9.0252864
9.1087962
9.1943537
9.28194
9.3715341
9.4631139
9.5566561
9.6521375
9.7495353
9.8488269
9.9499905
10.053004
10.157844
10.264488
10.372906
10.48307
10.594947
10.7085
10.823695
10.940494
7.3925992
7.4198101
7.4485125
7.4786996
7.5103719
7.5435362
7.5782057
7.6143992
7.6521405
7.6914574
7.7323815
7.7749467
7.8191892
7.8651465
7.9128568
7.9623582
8.0136887
8.066885
8.1219822
8.1790135
8.2380099
8.2989991
8.3620061
8.4270524
8.4941556
8.5633296
8.6345846
8.7079262
8.7833564
8.8608729
8.9404696
9.0221366
9.1058606
9.1916253
9.2794117
9.3691991
9.4609651
9.5546869
9.6503414
9.7479059
9.8473585
9.9486775
10.051841
10.156828
10.263613
10.372171
10.482471
10.594482
10.708169
10.823496
10.940428
7.3801154
7.4076259
7.4366331
7.4671301
7.4991166
7.532599
7.5675898
7.6041074
7.6421747
7.6818193
7.7230716
7.7659653
7.8105357
7.8568196
7.9048547
7.9546787
8.0063287
8.0598409
8.1152501
8.1725891
8.2318881
8.2931748
8.3564736
8.4218056
8.4891884
8.5586355
8.6301566
8.7037575
8.7794398
8.857201
8.9370349
9.0189315
9.1028775
9.1888565
9.2768496
9.366836
9.4587935
9.5526993
9.6485308
9.7462654
9.8458816
9.947358
10.050674
10.155808
10.262736
10.371433
10.48187
10.594015
10.707835
10.823296
10.94036
7.3672141
7.3950394
7.4243671
7.4551895
7.487506
7.5213223
7.5566505
7.5935081
7.6319177
7.6719058
7.7135025
7.7567405
7.8016547
7.848281
7.8966565
7.9468182
7.9988026
8.0526455
8.1083811
8.1660415
8.2256566
8.2872536
8.3508566
8.4164863
8.4841598
8.5538906
8.625688
8.6995574
8.7755003
8.8535141
8.9335924
9.0157251
9.0998988
9.186097
9.2743008
9.3644896
9.4566412
9.550733
9.6467426
9.7446478
9.8444273
9.9460605
10.049527
10.154806
10.261874
10.370708
10.481279
10.593556
10.707507
10.823098
10.940294
7.354027
7.3821816
7.4118439
7.4430064
7.4756676
7.5098326
7.5455129
7.5827255
7.6214921
7.6618387
7.7037946
7.7473916
7.792664
7.8396471
7.888377
7.9388902
7.9912226
8.0454092
8.1014836
8.1594775
8.2194203
8.2813387
8.3452562
8.4111932
8.4791666
8.5491892
8.6212702
8.6954148
8.7716242
8.8498956
8.9302224
9.0125944
9.0969981
9.183417
9.2718322
9.3622231
9.4545677
9.5488436
9.6450284
9.7431006
9.8430391
9.944824
10.048435
10.153853
10.261056
10.370019
10.480717
10.593119
10.707194
10.822909
10.94023
7.3407575
7.3692532
7.3992626
7.4307775
7.4637958
7.4983221
7.5343671
7.5719471
7.6110834
7.6518009
7.6941283
7.7380967
7.7837394
7.8310909
7.8801867
7.9310625
7.9837535
8.0382939
8.0947169
8.1530534
8.2133322
8.2755795
8.3398184
8.4060689
8.4743472
8.5446661
8.6170342
8.6914565
8.7679339
8.8464634
8.9270382
9.0096479
9.0942791
9.1809151
9.2695371
9.3601245
9.4526555
9.5471079
9.6434597
9.7416895
9.841777
9.9437027
10.047448
10.152992
10.260316
10.369397
10.480209
10.592723
10.70691
10.822737
10.940172
7.3277118
7.356557
7.3869219
7.4187978
7.4521818
7.4870778
7.523496
7.5614521
7.6009664
7.6420632
7.6847703
7.7291179
7.7751385
7.8228659
7.8723346
7.9235794
7.9766348
8.0315344
8.0883105
8.1469935
8.2076114
8.27019
8.3347517
8.401316
8.4698987
8.5405121
8.6131645
8.6878606
8.7646009
8.8433822
8.9241976
9.0070365
9.0918853
9.1787275
9.2675442
9.3583149
9.451018
9.5456315
9.6421338
9.740504
9.8407224
9.94277
10.046629
10.15228
10.259705
10.368883
10.479788
10.592394
10.706671
10.822591
10.940122
7.3153457
7.3445424
7.3752647
7.4075036
7.4412551
7.4765227
7.5133159
7.5516496
7.5915434
7.6330209
7.6761087
7.7208363
7.7672353
7.8153384
7.8651793
7.916792
7.9702101
8.0254664
8.0825923
8.1416175
8.2025694
8.265473
8.3303502
8.3972198
8.4660973
8.5369943
8.6099189
8.6848752
8.7618636
8.8408806
8.9219189
9.0049681
9.0900144
9.1770411
9.2660296
9.3569595
9.4498094
9.5445577
9.6411832
9.7396654
9.8399853
9.9421249
10.046067
10.151794
10.259289
10.368531
10.479498
10.592165
10.706504
10.822487
10.940085
7.3043295
7.3338693
7.3649405
7.3975335
7.4316437
7.4672735
7.5044322
7.5431338
7.5833972
7.625245
7.6687031
7.7137999
7.7605658
7.8090327
7.8592334
7.9112008
7.9649675
8.0205655
8.0780253
8.1373757
8.1986436
8.2618529
8.3270251
8.3941783
8.4633272
8.5344832
8.6076538
8.6828426
8.7600499
8.8392717
8.9205008
9.0037264
9.0889348
9.1761095
9.2652319
9.3562816
9.4492378
9.5440792
9.6407851
9.7393358
9.8397129
9.9418994
10.045879
10.151637
10.259155
10.368416
10.4794
10.592082
10.706439
10.822443
10.940068
7.2956394
7.3254972
7.3568918
7.389813
7.4242549
7.46022
7.4977166
7.5367584
7.5773633
7.619553
7.6633525
7.708789
7.7558919
7.8046921
7.8552211
7.907511
7.9615933
8.0174989
8.0752574
8.1348968
8.196443
8.2599192
8.325346
8.3927408
8.4621177
8.5334876
8.6068573
8.6822304
8.7596064
8.8389814
8.9203479
9.003695
9.0890091
9.1762737
9.2654705
9.3565795
9.4495803
9.544452
9.6411748
9.7397297
9.8400992
9.9422675
10.04622
10.151942
10.259419
10.368634
10.47957
10.592206
10.706519
10.822484
10.940078
7.2906813
7.320806
7.3524722
7.385668
7.4203872
7.4566321
7.494411
7.5337369
7.5746268
7.6171015
7.6611848
7.7069029
7.7542842
7.8033582
7.8541554
7.9067067
7.9610425
8.0171926
8.0751855
8.1350483
8.1968055
8.2604797
8.3260906
8.393655
8.4631864
8.534695
8.6081872
8.6836661
8.7611309
8.8405775
8.9219983
9.0053825
9.0907164
9.177984
9.2671671
9.3582465
9.451202
9.5460135
9.642662
9.7411295
9.8413997
9.9434579
10.047291
10.152886
10.260231
10.369312
10.480112
10.592615
10.706798
10.822643
10.940127
7.2914542
7.3217527
7.3535962
7.386969
7.4218669
7.4582926
7.496254
7.5357637
7.5768379
7.6194965
7.663762
7.7096597
7.7572166
7.8064611
7.8574225
7.9101304
7.964614
8.0209021
8.0790221
8.1389997
8.2008589
8.2646212
8.3303052
8.397927
8.4674991
8.5390309
8.6125286
8.6879947
8.7654281
8.8448245
8.9261763
9.0094728
9.0947006
9.1818441
9.2708857
9.3618067
9.4545878
9.54921
9.645655
9.7439062
9.8439486
9.9457692
10.049357
10.1547
10.261789
10.370613
10.481158
10.593409
10.70735
10.822962
10.940228
7.3007236
7.3310417
7.3629018
7.3962914
7.4312076
7.4676533
7.5056363
7.5451686
7.5862655
7.6289458
7.6732311
7.7191454
7.7667145
7.8159657
7.8669269
7.9196264
7.9740924
8.0303521
8.0884318
8.1483561
8.2101477
8.2738271
8.3394121
8.4069175
8.4763555
8.5477347
8.6210606
8.6963354
8.7735579
8.8527238
8.9338256
9.0168529
9.101793
9.1886305
9.2773489
9.3679303
9.4603565
9.5546097
9.6506728
9.7485308
9.8481702
9.9495799
10.05275
10.157673
10.26434
10.372744
10.482873
10.594717
10.708262
10.823494
10.940399
7.2938306
7.322361
7.3524455
7.3840683
7.4172207
7.4519008
7.4881117
7.525861
7.5651599
7.6060231
7.6484684
7.6925165
7.7381901
7.785514
7.8345142
7.8852175
7.937651
7.9918416
8.0478155
8.1055977
8.1652116
8.2266787
8.2900183
8.3552473
8.4223796
8.4914265
8.5623961
8.6352935
8.7101204
8.7868757
8.8655552
8.9461515
9.028655
9.1130535
9.1993326
9.2874769
9.3774696
9.469294
9.5629336
9.6583732
9.7555993
9.8546004
9.9553674
10.057893
10.162171
10.268197
10.375965
10.485469
10.5967
10.709649
10.824306
10.940661
7.3071897
7.3335081
7.3614152
7.3908794
7.4218824
7.4544155
7.4884772
7.5240704
7.5612022
7.5998837
7.6401287
7.6819546
7.7253812
7.7704306
7.8171267
7.8654946
7.91556
7.9673491
8.0208876
8.0762004
8.1333114
8.1922428
8.253015
8.3156461
8.380152
8.4465456
8.5148375
8.5850352
8.6571432
8.7311634
8.8070945
8.8849325
8.964671
9.0463008
9.1298109
9.2151881
9.3024184
9.3914867
9.4823779
9.5750774
9.669572
9.7658501
9.8639024
9.9637221
10.065304
10.168646
10.273744
10.380598
10.489203
10.599555
10.71165
10.825481
10.941042
7.3487427
7.3722985
7.3974633
7.4242152
7.452522
7.4823658
7.5137385
7.5466384
7.5810688
7.617037
7.6545538
7.6936333
7.7342927
7.7765515
7.8204318
7.865957
7.9131517
7.9620412
8.0126507
8.0650053
8.1191289
8.1750443
8.2327727
8.2923334
8.3537433
8.4170172
8.4821675
8.5492036
8.6181327
8.6889592
8.7616846
8.8363081
8.9128263
8.9912335
9.0715217
9.1536812
9.2377006
9.3235677
9.4112692
9.5007923
9.5921247
9.6852552
9.7801747
9.8768764
9.9753558
10.075611
10.17764
10.281445
10.387027
10.494386
10.603522
10.714433
10.827118
10.941575
7.4483161
7.4700481
7.4933686
7.5182611
7.5446966
7.5726594
7.6021438
7.6331495
7.6656809
7.6997462
7.7353575
7.7725298
7.8112811
7.8516319
7.8936046
7.9372234
7.982513
8.0294991
8.0782066
8.1286603
8.1808836
8.2348986
8.2907256
8.3483829
8.4078867
8.4692507
8.5324865
8.5976031
8.6646072
8.733503
8.8042924
8.876975
8.9515482
9.0280075
9.1063465
9.1865572
9.2686304
9.3525559
9.4383233
9.5259219
9.6153421
9.7065754
9.7996152
9.8944574
9.9911
10.089543
10.18979
10.291842
10.395705
10.501383
10.608878
10.718194
10.829334
10.942297
7.5897044
7.6087853
7.6294121
7.6515773
7.6752561
7.7004373
7.727122
7.7553133
7.7850179
7.8162469
7.8490147
7.883339
7.9192401
7.9567408
7.9958654
8.03664
8.0790909
8.1232449
8.1691279
8.2167652
8.2661803
8.3173953
8.37043
8.4253021
8.4820273
8.5406186
8.6010872
8.6634419
8.7276891
8.7938333
8.861877
8.9318205
9.0036626
9.0774
9.1530285
9.2305422
9.3099347
9.3911985
9.474326
9.5593094
9.6461421
9.7348186
9.8253352
9.9176903
10.011885
10.107922
10.205805
10.305542
10.407138
10.510601
10.615937
10.723155
10.832259
10.943253
7.7804179
7.7959245
7.8129122
7.8313828
7.8513155
7.8727015
7.8955543
7.9198821
7.9456967
7.9730138
8.0018526
8.0322354
8.0641869
8.0977339
8.1329048
8.1697292
8.2082369
8.2484574
8.2904192
8.334149
8.379672
8.4270106
8.4761854
8.5272142
8.5801126
8.634894
8.6915698
8.7501493
8.8106394
8.8730454
8.9373706
9.0036168
9.0717844
9.141872
9.2138776
9.2877982
9.3636303
9.4413699
9.5210133
9.6025559
9.6859942
9.7713259
9.8585506
9.9476696
10.038686
10.131607
10.226437
10.323185
10.421861
10.522473
10.625033
10.72955
10.836033
10.944488
8.0246718
8.0357335
8.0481811
8.0620232
8.0772541
8.0938784
8.1118964
8.131326
8.1521894
8.1745106
8.1983162
8.2236354
8.2504994
8.2789417
8.3089969
8.3407004
8.3740874
8.4091922
8.4460477
8.4846843
8.5251296
8.5674086
8.6115433
8.6575533
8.7054559
8.7552662
8.8069976
8.8606615
8.916267
8.973821
9.0333293
9.0947954
9.1582223
9.2236104
9.2909614
9.3602742
9.4315481
9.5047821
9.5799801
9.6571405
9.7362632
9.8173498
9.9004031
9.9854278
10.07243
10.161418
10.252401
10.345387
10.440389
10.537418
10.636487
10.737608
10.840792
10.946047
8.3205987
8.3266598
8.3339734
8.3425508
8.352393
8.3635114
8.3759224
8.3896509
8.4047259
8.4211796
8.4390469
8.4583652
8.4791741
8.5015153
8.5254318
8.5509668
8.578163
8.6070618
8.6377021
8.6701197
8.704347
8.7404127
8.7783427
8.8181605
8.8598878
8.9035449
8.9491503
8.9967206
9.0462703
9.0978116
9.1513536
9.206904
9.2644681
9.3240515
9.3856568
9.4492887
9.5149507
9.5826468
9.6523767
9.7241471
9.7979639
9.8738335
9.9517631
10.031761
10.113837
10.198002
10.284266
10.372642
10.463141
10.555777
10.650563
10.747516
10.846649
10.947968
8.6580034
8.6590285
8.6611361
8.6643315
8.6686245
8.6740352
8.6805911
8.6883246
8.6972718
8.7074721
8.7189679
8.7318049
8.746031
8.7616965
8.7788527
8.7975518
8.8178451
8.8397824
8.86341
8.8887702
8.9159012
8.9448371
8.9756096
9.0082493
9.0427868
9.0792527
9.1176772
9.1580883
9.2005113
9.2449673
9.2914731
9.3400421
9.3906844
9.4434092
9.4982238
9.5551357
9.6141523
9.6752823
9.7385337
9.8039168
9.8714423
9.9411222
10.012969
10.086996
10.163217
10.241646
10.322297
10.405184
10.49032
10.577719
10.667398
10.759374
10.853661
10.950271
9.0185181
9.0151405
9.0126376
9.0110171
9.0102948
9.0104949
9.0116499
9.0137962
9.0169742
9.0212276
9.0266039
9.0331544
9.0409331
9.0499966
9.0604036
9.0722135
9.0854852
9.1002756
9.1166379
9.13462
9.1542651
9.1756124
9.1987002
9.2235686
9.2502618
9.2788284
9.309319
9.341783
9.3762653
9.4128038
9.4514284
9.4921623
9.5350228
9.580024
9.6271783
9.6764974
9.7279937
9.7816807
9.8375731
9.8956871
9.9560401
10.018651
10.083539
10.150725
10.220228
10.292067
10.366262
10.442827
10.52178
10.603136
10.686912
10.773128
10.861801
10.952946
9.38563
9.3784239
9.3718738
9.3659894
9.360776
9.3562482
9.3524291
9.3493486
9.3470415
9.3455477
9.3449106
9.3451764
9.3463975
9.3486288
9.3519282
9.3563563
9.3619756
9.3688488
9.377037
9.3865969
9.3975789
9.410027
9.423981
9.4394812
9.4565751
9.475322
9.4957943
9.5180733
9.5422424
9.568379
9.5965492
9.6268054
9.6591868
9.6937222
9.7304337
9.7693396
9.8104577
9.8538061
9.8994048
9.947276
9.9974441
10.049936
10.104778
10.162002
10.221635
10.283707
10.348246
10.415277
10.48482
10.556897
10.631523
10.70872
10.788508
10.870909
10.955942
9.7224758
9.7138731
9.705755
9.6981156
9.6909532
9.6842759
9.6780998
9.6724476
9.6673475
9.6628322
9.6589386
9.6557075
9.6531839
9.6514161
9.6504584
9.6503639
9.6511941
9.6530114
9.6558776
9.6598501
9.6649776
9.6712978
9.678839
9.6876287
9.6977058
9.7091329
9.722001
9.7364256
9.7525344
9.7704519
9.7902873
9.8121284
9.8360414
9.8620748
9.8902651
9.9206422
9.9532342
9.9880696
10.025179
10.064597
10.106359
10.150506
10.197081
10.246125
10.297684
10.351799
10.408511
10.467855
10.529864
10.594562
10.661972
10.732113
10.805009
10.880682
10.959159
10.01543
10.007007
9.9989242
9.9911685
9.9837329
9.9766178
9.9698302
9.9633831
9.9572943
9.9515862
9.9462845
9.9414187
9.9370214
9.9331291
9.9297829
9.9270296
9.9249241
9.9235286
9.9229105
9.9231307
9.9242398
9.9262632
9.9292003
9.9330346
9.9377567
9.943391
9.9500142
9.9577566
9.966785
9.9772768
9.9893969
10.003283
10.019043
10.03676
10.056498
10.078312
10.102252
10.128371
10.156721
10.187358
10.220343
10.25574
10.293614
10.334035
10.377066
10.422774
10.471222
10.522464
10.576552
10.633521
10.693401