/*--------------------------------*- C++ -*----------------------------------*\
| =========                 |                                                 |
| \\      /  F ield         | OpenFOAM: The Open Source CFD Toolbox           |
|  \\    /   O peration     | Version:  2312                                  |
|   \\  /    A nd           | Website:  www.openfoam.com                      |
|    \\/     M anipulation  |                                                 |
\*---------------------------------------------------------------------------*/
FoamFile
{
    version     2.0;
    format      ascii;
    arch        "LSB;label=32;scalar=64";
    class       volScalarField;
    location    "0.03";
    object      nut;
}
// * * * * * * * * * * * * * * * * * * * * * * * * * * * * * * * * * * * * * //

dimensions      [0 2 -1 0 0 0 0];

internalField   nonuniform List<scalar> 
3224
(
0.032403755
0.032623265
0.032850324
0.033085112
0.033327745
0.03357831
0.033836878
0.034103504
0.03437823
0.034661082
0.034952073
0.035251204
0.035558463
0.035873827
0.03619726
0.036528715
0.036868136
0.037215453
0.03757059
0.037933457
0.038303959
0.03868199
0.039067437
0.039460181
0.039860096
0.040267055
0.040680926
0.041101575
0.041528873
0.041962689
0.0424029
0.042849384
0.043302027
0.043760719
0.044225351
0.044695816
0.045172006
0.045653806
0.046141099
0.046633793
0.047131886
0.032404551
0.032624209
0.032851363
0.033086216
0.033328902
0.033579515
0.033838128
0.034104796
0.034379561
0.034662452
0.034953481
0.035252649
0.035559944
0.035875343
0.036198811
0.036530301
0.036869756
0.037217107
0.037572276
0.037935176
0.03830571
0.038683771
0.039069249
0.039462022
0.039861967
0.040268954
0.040682851
0.041103527
0.04153085
0.041964692
0.042404926
0.042851434
0.0433041
0.043762814
0.044227468
0.044697955
0.045174165
0.045655984
0.046143296
0.046636
0.047134021
0.032404795
0.032624619
0.032851857
0.033086775
0.033329519
0.033580184
0.033838846
0.034105562
0.034380374
0.03466331
0.034954384
0.035253596
0.035560935
0.035876377
0.036199887
0.036531419
0.036870914
0.037218306
0.037573516
0.037936456
0.038307028
0.038685129
0.039070644
0.039463454
0.039863434
0.040270456
0.040684388
0.041105097
0.041532452
0.041966325
0.04240659
0.042853128
0.043305824
0.043764566
0.044229248
0.044699761
0.045175997
0.04565784
0.046145176
0.0466379
0.047135832
0.032404537
0.032624528
0.03285184
0.033086822
0.033329626
0.033580348
0.033839064
0.034105834
0.034380698
0.034663686
0.034954811
0.035254073
0.035561462
0.035876954
0.036200513
0.036532094
0.036871638
0.037219077
0.037574334
0.037937321
0.03830794
0.038686085
0.039071645
0.039464499
0.039864522
0.040271585
0.040685558
0.041106306
0.041533701
0.041967611
0.042407914
0.042854488
0.043307219
0.043765996
0.044230712
0.044701258
0.045177524
0.045659396
0.04614676
0.046639515
0.047137377
0.032190815
0.032404001
0.032623987
0.032851356
0.033086401
0.033329267
0.033580049
0.033838825
0.034105653
0.034380576
0.034663621
0.034954803
0.035254123
0.035561568
0.035877116
0.036200731
0.036532367
0.036871966
0.037219461
0.037574772
0.037937812
0.038308483
0.038686681
0.039072292
0.039465196
0.039865269
0.04027238
0.0406864
0.041107195
0.041534634
0.04196859
0.042408935
0.042855552
0.043308325
0.043767143
0.044231899
0.044702483
0.045178786
0.045660692
0.046148089
0.046640882
0.047138707
0.032190366
0.032403124
0.032623081
0.032850495
0.033085599
0.033328525
0.033579368
0.033838204
0.034105093
0.034380076
0.034663181
0.034954423
0.035253802
0.035561307
0.035876914
0.036200588
0.036532283
0.03687194
0.037219492
0.037574861
0.037937958
0.038308685
0.038686939
0.039072604
0.039465562
0.039865688
0.040272851
0.040686922
0.041107767
0.041535255
0.041969258
0.042409651
0.042856315
0.043309133
0.043767996
0.044232795
0.044703422
0.045179765
0.045661709
0.046149142
0.046641977
0.047139795
0.032189277
0.032401943
0.032621888
0.032849346
0.033084506
0.033327491
0.033578396
0.033837294
0.034104244
0.03437929
0.034662457
0.034953761
0.035253202
0.035560769
0.035876438
0.036200174
0.03653193
0.036871649
0.037219261
0.03757469
0.037937847
0.038308634
0.038686946
0.039072669
0.039465684
0.039865865
0.040273084
0.040687209
0.041108107
0.041535647
0.041969702
0.042410145
0.042856858
0.043309726
0.043768637
0.044233483
0.044704156
0.045180543
0.045662528
0.04615
0.046642874
0.047140708
0.03218766
0.03240037
0.032620324
0.032847828
0.033083048
0.033326098
0.033577068
0.033836034
0.034103053
0.034378167
0.034661404
0.034952778
0.035252288
0.035559924
0.035875663
0.036199467
0.036531292
0.03687108
0.037218761
0.037574257
0.037937481
0.038308335
0.038686713
0.039072502
0.039465582
0.039865827
0.040273108
0.040687294
0.041108253
0.041535853
0.041969967
0.042410468
0.042857238
0.043310162
0.043769128
0.044234029
0.044704755
0.045181193
0.045663227
0.046150744
0.046643661
0.047141526
0.03197976
0.032185739
0.032398393
0.032618364
0.032845918
0.033081201
0.03332432
0.033575363
0.033834403
0.034101497
0.034376688
0.034660001
0.034951452
0.03525104
0.035558753
0.035874568
0.036198451
0.036530352
0.036870217
0.037217974
0.037573547
0.037936847
0.038307776
0.038686228
0.039072091
0.039465243
0.03986556
0.040272912
0.040687168
0.041108195
0.041535863
0.041970043
0.04241061
0.042857445
0.043310433
0.043769463
0.044234426
0.044705213
0.045181711
0.045663801
0.046151371
0.046644337
0.047142246
0.031977831
0.032183395
0.032395982
0.032615977
0.032843586
0.033078937
0.033322131
0.033573252
0.033832374
0.034099551
0.034374826
0.034658224
0.03494976
0.035249433
0.035557232
0.035873134
0.036197101
0.036529089
0.036869039
0.037216882
0.03757254
0.037935924
0.038306936
0.038685472
0.039071417
0.039464651
0.039865048
0.04027248
0.040686814
0.041107919
0.041535663
0.041969918
0.04241056
0.042857469
0.04331053
0.043769632
0.044234666
0.044705522
0.045182087
0.045664242
0.046151874
0.046644897
0.047142861
0.031777173
0.031975263
0.032180561
0.032393104
0.032613131
0.032840801
0.033076225
0.0333195
0.033570707
0.033829918
0.034097186
0.034372553
0.034656045
0.034947675
0.035247442
0.035555336
0.035871333
0.036195395
0.036527478
0.036867522
0.03721546
0.037571212
0.03793469
0.038305796
0.038684424
0.039070461
0.039463786
0.039864273
0.040271794
0.040686216
0.041107407
0.041535237
0.041969577
0.042410302
0.042857294
0.043310436
0.04376962
0.044234734
0.044705669
0.04518231
0.04566454
0.046152243
0.046645331
0.047143362
0.031774146
0.031972042
0.032177191
0.032389719
0.03260979
0.032837528
0.033073032
0.033316395
0.033567696
0.033827003
0.034094371
0.03436984
0.034653434
0.034945167
0.035245039
0.035553037
0.035869138
0.036193305
0.036525493
0.036865642
0.037213684
0.03756954
0.037933122
0.038304332
0.038683062
0.039069201
0.039462626
0.039863214
0.040270833
0.040685353
0.041106641
0.041534566
0.041969
0.042409819
0.042856903
0.043310138
0.043769412
0.044234616
0.04470564
0.045182368
0.045664682
0.046152466
0.04664563
0.047143738
0.031579781
0.031770417
0.031968167
0.032173248
0.032385791
0.032605918
0.03283373
0.033069322
0.033312781
0.033564183
0.033823597
0.034091074
0.034366653
0.03465036
0.034942206
0.035242192
0.035550305
0.03586652
0.036190803
0.036523106
0.03686337
0.037211527
0.037567499
0.037931195
0.038302518
0.038681362
0.039067613
0.03946115
0.039861848
0.040269576
0.040684204
0.0411056
0.041533631
0.04196817
0.042409093
0.04285628
0.043309617
0.043768992
0.044234297
0.04470542
0.045182246
0.045664655
0.046152532
0.046645782
0.047143978
0.031575444
0.031765948
0.031963626
0.032168696
0.032381279
0.032601474
0.032829371
0.033065059
0.033308622
0.033560136
0.033819665
0.034087261
0.034362961
0.03464679
0.03493876
0.035238871
0.035547109
0.035863451
0.036187859
0.036520288
0.036860679
0.037208963
0.03756506
0.037928882
0.03830033
0.038679299
0.039065673
0.039459333
0.039860153
0.040268002
0.040682749
0.041104263
0.041532411
0.041967066
0.042408104
0.042855406
0.043308856
0.043768344
0.04423376
0.044704993
0.045181928
0.045664444
0.046152425
0.046645774
0.04714407
0.03138692
0.031570325
0.031760734
0.031958399
0.0321635
0.032376144
0.032596419
0.032824411
0.033060204
0.033303881
0.033555516
0.033815171
0.034082896
0.034358728
0.034642691
0.034934797
0.035235043
0.035543418
0.035859897
0.036184444
0.036517011
0.03685754
0.037205962
0.037562197
0.037926156
0.038297742
0.038676847
0.039063357
0.039457152
0.039858105
0.040266086
0.040680965
0.041102609
0.041530886
0.041965669
0.042406834
0.042854261
0.043307837
0.043767449
0.044232989
0.044704344
0.0451814
0.045664035
0.046152132
0.046645592
0.047144002
0.031381058
0.031564375
0.031754758
0.031952457
0.032157619
0.032370343
0.032590711
0.032818808
0.033054718
0.03329852
0.033550287
0.033810079
0.034077945
0.034353921
0.034638029
0.034930281
0.035230676
0.0355392
0.035855829
0.036180526
0.036513243
0.036853923
0.037202495
0.037558881
0.037922991
0.038294726
0.03867398
0.039060639
0.03945458
0.03985568
0.040263807
0.040678829
0.041100615
0.041529034
0.041963957
0.042405261
0.042852827
0.043306541
0.04376629
0.044231966
0.044703457
0.045180646
0.045663413
0.04615164
0.046645224
0.04714376
0.031198067
0.031374324
0.031557583
0.031747997
0.031945765
0.032151012
0.032363832
0.032584307
0.032812522
0.03304856
0.033292499
0.03354441
0.033804351
0.03407237
0.034348501
0.034632767
0.034925179
0.035225734
0.03553442
0.035851212
0.036176072
0.036508954
0.036849797
0.037198534
0.037555083
0.037919357
0.038291255
0.038670672
0.039057492
0.039451595
0.039852854
0.040261139
0.040676319
0.041098261
0.041526834
0.041961911
0.042403368
0.042851085
0.04330495
0.04376485
0.044230675
0.044702314
0.045179651
0.045662564
0.046150933
0.046644655
0.047143332
0.031190509
0.031366651
0.031549927
0.031740417
0.031938282
0.032143634
0.032356566
0.032577162
0.032805508
0.033041688
0.033285777
0.033537844
0.033797947
0.034066131
0.034342432
0.034626869
0.034919454
0.035220184
0.035529045
0.035846014
0.036171051
0.03650411
0.036845132
0.037194046
0.037550774
0.037915225
0.038287301
0.038666894
0.03905389
0.039448168
0.039849601
0.040258059
0.04067341
0.041095522
0.041524264
0.041959508
0.042401132
0.042849015
0.043303045
0.043763109
0.044229098
0.0447009
0.045178398
0.045661471
0.046149999
0.046643874
0.047142706
0.031181732
0.031358015
0.03154138
0.031731981
0.031929964
0.032135439
0.032348498
0.032569231
0.032797723
0.033034058
0.033278311
0.033530548
0.033790827
0.034059191
0.034335674
0.034620296
0.034913068
0.035213987
0.035523039
0.035840198
0.036165428
0.03649868
0.036839894
0.037189002
0.037545923
0.037910567
0.038282835
0.03866262
0.039049807
0.039444274
0.039845896
0.040254541
0.040670079
0.041092375
0.041521301
0.041956728
0.042398533
0.042846597
0.043300807
0.04376105
0.044227218
0.044699198
0.045176873
0.045660121
0.046148822
0.046642866
0.047141869
0.031171875
0.031348409
0.031531907
0.031722643
0.031920763
0.032126378
0.032339582
0.032560467
0.032789121
0.033025626
0.033270058
0.03352248
0.033782949
0.034051507
0.034328187
0.03461301
0.034905984
0.035207108
0.035516365
0.035833731
0.036159168
0.036492628
0.036834051
0.037183368
0.037540497
0.03790535
0.038277826
0.038657819
0.039045213
0.039439886
0.039841712
0.040250561
0.0406663
0.041088798
0.041517923
0.041953549
0.042395551
0.042843811
0.043298216
0.043758654
0.044225016
0.04469719
0.045175058
0.045658498
0.046147389
0.046641618
0.047140809
0.030991156
0.031161198
0.031337826
0.031521468
0.031712356
0.031910631
0.032116401
0.032329767
0.032550822
0.032779654
0.033016346
0.033260972
0.033513595
0.033774269
0.034043037
0.034319931
0.03460497
0.034898163
0.035199506
0.035508985
0.035826574
0.036152235
0.03648592
0.036827569
0.037177111
0.037534466
0.037899544
0.038272245
0.038652462
0.03904008
0.039434976
0.039837023
0.040246092
0.04066205
0.041084765
0.041514107
0.041949947
0.042392162
0.042840636
0.043295253
0.043755903
0.044222476
0.04469486
0.045172938
0.045656587
0.046145685
0.046640117
0.047139512
0.030979499
0.031149486
0.031326216
0.031510014
0.03170107
0.031899515
0.032105459
0.032319005
0.032540247
0.032769275
0.033006171
0.033251008
0.033503848
0.033764744
0.034033739
0.034310862
0.034596134
0.034889562
0.035191142
0.035500861
0.03581869
0.036144593
0.03647852
0.036820411
0.037170197
0.037527795
0.037893116
0.038266061
0.03864652
0.039034378
0.039429515
0.039831801
0.040241108
0.040657303
0.041080253
0.041509827
0.0419459
0.042388347
0.042837051
0.043291897
0.043752777
0.044219579
0.044692191
0.045170496
0.045654371
0.046143694
0.046638347
0.047137966
0.030647357
0.030803372
0.030966701
0.031136667
0.031313524
0.031497494
0.031688733
0.031887365
0.0320935
0.032307244
0.032528692
0.032757934
0.032995052
0.033240117
0.033493192
0.033754328
0.034023566
0.034300937
0.03458646
0.034880141
0.035181977
0.035491952
0.035810041
0.036136203
0.036470391
0.036812544
0.037162591
0.037520451
0.037886034
0.03825924
0.03863996
0.039028079
0.039423474
0.039826019
0.040235582
0.040652031
0.041075235
0.041505062
0.041941385
0.042384082
0.042833034
0.043288129
0.043749256
0.044216305
0.044689164
0.045167716
0.045651836
0.046141403
0.046636297
0.047136158
0.030483367
0.030633112
0.030789425
0.03095264
0.031122676
0.031299693
0.031483852
0.03167529
0.031874126
0.032080472
0.032294433
0.032516106
0.032745582
0.03298294
0.033228252
0.03348158
0.033742974
0.034012475
0.034290112
0.034575904
0.034869857
0.035171968
0.03548222
0.035800586
0.036127028
0.036461496
0.03680393
0.037154258
0.0375124
0.037878265
0.038251752
0.038632753
0.039021151
0.039416825
0.039819647
0.040229486
0.04064621
0.041069687
0.041499785
0.041936379
0.042379345
0.042828565
0.043283928
0.043745321
0.044212637
0.044685762
0.045164579
0.045648965
0.046138796
0.04663395
0.047134074
0.030467697
0.030617498
0.03077399
0.030937282
0.031107463
0.031284668
0.031469035
0.031660688
0.031859747
0.032066322
0.03228052
0.032502439
0.032732168
0.032969786
0.033215365
0.033468965
0.033730637
0.03400042
0.034278343
0.034564424
0.034858669
0.035161074
0.035471623
0.035790287
0.036117029
0.036451798
0.036794533
0.037145164
0.037503608
0.037869775
0.038243564
0.038624866
0.039013565
0.039409538
0.039812658
0.040222794
0.040639813
0.041063583
0.041493974
0.041930858
0.042374113
0.042823622
0.043279272
0.043740953
0.044208555
0.044681967
0.04516107
0.045645741
0.046135857
0.046631292
0.0471317
0.030450491
0.030600466
0.030757144
0.030920603
0.031090975
0.031268394
0.031452986
0.031644873
0.031844173
0.032050998
0.032265454
0.032487639
0.032717642
0.032955541
0.033201407
0.0334553
0.03371727
0.033987355
0.034265585
0.034551976
0.034846534
0.035149255
0.035460121
0.035779105
0.036106168
0.036441259
0.036784318
0.037135272
0.037494041
0.037860531
0.038234644
0.038616269
0.03900529
0.039401584
0.039805024
0.040215478
0.040632814
0.041056899
0.041487603
0.041924799
0.042368365
0.042818184
0.043274142
0.043736131
0.044204041
0.04467776
0.045157171
0.045642149
0.046132571
0.046628309
0.047129023
0.030431821
0.03058201
0.030738899
0.030902568
0.031073163
0.031250816
0.031435652
0.031627792
0.031827353
0.032034449
0.032249185
0.032471657
0.032701955
0.032940156
0.033186331
0.033440538
0.033702827
0.033973237
0.034251795
0.034538518
0.034833411
0.03513647
0.035447676
0.035767003
0.036094409
0.036429845
0.03677325
0.03712455
0.037483665
0.037850503
0.038224962
0.038606932
0.038996298
0.039392937
0.039796719
0.040207514
0.040625189
0.041049611
0.041480651
0.041918181
0.042362079
0.042812229
0.043268518
0.043730837
0.044199077
0.044673125
0.045152864
0.045638172
0.046128922
0.046624986
0.047126028
0.030411682
0.030562104
0.030719227
0.030883132
0.031053972
0.031231879
0.031416979
0.031609392
0.031809237
0.032016625
0.032231662
0.032454444
0.032685059
0.032923585
0.033170091
0.033424635
0.033687266
0.033958022
0.034236931
0.034524009
0.034819261
0.035122681
0.035434251
0.035753943
0.036081716
0.036417521
0.036761295
0.037112966
0.037472451
0.037839659
0.038214488
0.038596828
0.038986563
0.039383568
0.039787717
0.040198876
0.040616913
0.041041697
0.041473095
0.041910982
0.042355235
0.042805739
0.043262381
0.043725053
0.044193644
0.044668044
0.045148134
0.045633793
0.046124894
0.046621307
0.0471227
0.030390043
0.030540712
0.030698085
0.030862247
0.031033352
0.031211534
0.031396918
0.031589626
0.031789776
0.031997479
0.03221284
0.032435955
0.03266691
0.032905784
0.033152644
0.033407548
0.033670545
0.033941672
0.034220956
0.034508413
0.034804047
0.035107852
0.03541981
0.035739892
0.036068058
0.036404256
0.036748424
0.03710049
0.03746037
0.037827973
0.038203197
0.038585932
0.038976059
0.039373457
0.039777995
0.040189543
0.040607967
0.041033135
0.041464915
0.041903183
0.042347815
0.042798696
0.043255714
0.043718761
0.044187726
0.0446625
0.045142965
0.045628998
0.046120473
0.046617258
0.047119026
0.030366859
0.030517788
0.030675428
0.030839866
0.031011256
0.031189733
0.031375424
0.031568449
0.031768928
0.031976969
0.032192678
0.032416149
0.032647469
0.032886714
0.033133953
0.033389242
0.033652629
0.033924152
0.034203836
0.034491697
0.034787739
0.035091955
0.035404326
0.035724824
0.036053407
0.036390023
0.036734611
0.037087098
0.037447399
0.037815423
0.038191067
0.038574221
0.038964767
0.039362582
0.039767536
0.040179497
0.040598332
0.041023909
0.041456096
0.041894768
0.042339803
0.042791085
0.043248502
0.043711946
0.044181309
0.04465648
0.045137342
0.045623772
0.046115644
0.046612824
0.04711499
0.030342091
0.030493293
0.030651217
0.030815951
0.030987647
0.031166441
0.03135246
0.031545827
0.031746657
0.031955061
0.032171142
0.032394994
0.032626703
0.032866345
0.033113987
0.033369687
0.03363349
0.033905434
0.034185545
0.034473836
0.034770312
0.035074965
0.035387776
0.035708715
0.036037742
0.036374804
0.036719839
0.037072772
0.037433521
0.037801992
0.038178082
0.038561682
0.038952673
0.03935093
0.039756325
0.040168724
0.040587996
0.041014006
0.041446625
0.041885725
0.042331186
0.042782892
0.043240732
0.043704597
0.04417438
0.04464997
0.045131251
0.045618101
0.046110393
0.04660799
0.047110578
0.030315708
0.030467199
0.030625425
0.030790473
0.030962496
0.03114163
0.031328001
0.031521732
0.031722938
0.03193173
0.032148208
0.032372466
0.03260459
0.032844655
0.033092727
0.033348864
0.03361311
0.033885502
0.034166065
0.034454814
0.034751751
0.035056868
0.035370147
0.035691556
0.036021054
0.036358588
0.036704096
0.037057504
0.037418727
0.037787672
0.038164236
0.038548307
0.038939769
0.039338495
0.039744356
0.04015722
0.040576952
0.041003421
0.041436495
0.041876048
0.042321959
0.042774112
0.043232397
0.043696705
0.04416693
0.044642961
0.045124683
0.045611973
0.046104706
0.046602744
0.047105776
0.030287698
0.030439492
0.030598037
0.03076342
0.030935792
0.031115289
0.031302037
0.031496156
0.031697764
0.031906967
0.032123868
0.032348559
0.032581124
0.032821639
0.033070168
0.033326768
0.033591485
0.033864353
0.034145397
0.034434631
0.034732057
0.035037667
0.03535144
0.035673346
0.036003344
0.036341379
0.036687388
0.037041297
0.037403021
0.037772467
0.038149531
0.038534102
0.03892606
0.03932528
0.039731633
0.040144986
0.040565205
0.040992156
0.041425709
0.041865738
0.042312121
0.042764743
0.043223493
0.043688266
0.044158953
0.044635445
0.045117627
0.045605379
0.046098573
0.046597072
0.047100567
0.030258069
0.030410183
0.030569067
0.030734805
0.030907548
0.03108743
0.031274578
0.031469111
0.031671145
0.031880787
0.032098137
0.032323287
0.03255632
0.032797312
0.033046326
0.033303418
0.033568633
0.033842005
0.034123559
0.034413306
0.03471125
0.03501738
0.035331677
0.035654109
0.035984633
0.036323197
0.036669735
0.037024173
0.037386426
0.0377564
0.03813399
0.038519085
0.038911565
0.039311306
0.039718175
0.040132041
0.040552769
0.040980225
0.041414279
0.041854805
0.04230168
0.042754791
0.043214027
0.043679282
0.044150449
0.04462742
0.04511008
0.04559831
0.046091983
0.04659096
0.047094938
0.030226865
0.030379317
0.030538558
0.030704671
0.030877807
0.031058099
0.03124567
0.031440642
0.031643127
0.031853233
0.032071059
0.032296695
0.032530225
0.032771721
0.033021248
0.033278861
0.033544602
0.033818507
0.034100598
0.034390888
0.034689378
0.034996057
0.035310906
0.035633891
0.03596497
0.036304089
0.036651184
0.037006177
0.037368985
0.037739513
0.038117655
0.038503299
0.038896326
0.039296609
0.039704018
0.040118419
0.040539677
0.040967659
0.041402233
0.041843273
0.042290659
0.042744276
0.043204013
0.043669766
0.044141427
0.04461889
0.045102042
0.045590763
0.046084928
0.046584396
0.047088871
0.030194177
0.030346985
0.030506601
0.030673111
0.030846661
0.031027384
0.031215403
0.031410838
0.0316138
0.031824396
0.032042724
0.032268873
0.032502926
0.032744955
0.032995023
0.033253184
0.033519481
0.033793947
0.034076604
0.034367464
0.034666527
0.034973783
0.035289211
0.035612777
0.035944438
0.036284139
0.036631814
0.036987389
0.037350776
0.037721881
0.038100598
0.038486813
0.038880408
0.039281255
0.039689222
0.040104177
0.040525983
0.040954506
0.041389616
0.041831186
0.042279096
0.04273323
0.043193479
0.043659739
0.044131903
0.044609867
0.045093517
0.045582736
0.046077401
0.046577369
0.047082347
0.030160168
0.030313347
0.030473356
0.030640282
0.030814268
0.030995444
0.031183934
0.031379855
0.031583318
0.031794429
0.032013284
0.032239973
0.032474576
0.032717164
0.0329678
0.033226536
0.033493415
0.033768468
0.034051718
0.034343175
0.034642838
0.034950697
0.035266729
0.035590901
0.035923167
0.036263474
0.036611754
0.036967931
0.037331919
0.037703621
0.038082932
0.038469737
0.038863917
0.039265343
0.039673884
0.040089405
0.040511771
0.040940847
0.041376502
0.041818609
0.042267048
0.042721704
0.043182469
0.043649238
0.044121907
0.044600371
0.045084519
0.045574236
0.046069398
0.046569864
0.047075346
0.030125097
0.030278662
0.030439081
0.03060644
0.030780879
0.030962529
0.03115151
0.031347939
0.031551926
0.031763575
0.031982981
0.032210233
0.03244541
0.032688581
0.03293981
0.033199146
0.033466631
0.033742296
0.034026163
0.03431824
0.034618526
0.03492701
0.035243668
0.035568466
0.035901358
0.036242289
0.036591192
0.036947989
0.037312593
0.037684907
0.038064824
0.038452231
0.038847005
0.039249019
0.039658141
0.040074234
0.040497163
0.040926794
0.041362994
0.041805637
0.042254603
0.042709776
0.04317105
0.043638319
0.044111483
0.044590435
0.045075069
0.04556527
0.046060917
0.046561869
0.047067842
0.03008937
0.030243331
0.030404173
0.030571978
0.030746886
0.030929025
0.031118514
0.031315468
0.031519997
0.031732202
0.031952179
0.032180014
0.032415784
0.032659559
0.0329114
0.033171355
0.033439467
0.033715763
0.034000265
0.03429298
0.034593906
0.034903031
0.035220331
0.035545769
0.0358793
0.036220867
0.036570403
0.036927828
0.037293055
0.037665987
0.038046515
0.038434525
0.038829894
0.039232494
0.039642192
0.040058851
0.040482336
0.040912511
0.041349244
0.041792408
0.042241883
0.042697555
0.043159315
0.043627062
0.044100695
0.044580109
0.045065201
0.045555857
0.046051959
0.046553367
0.047059802
0.030053595
0.030207958
0.030369227
0.030537486
0.030712871
0.030895508
0.031085514
0.031283004
0.031488086
0.03170086
0.031921419
0.032149848
0.032386224
0.032630616
0.03288308
0.033143667
0.033412415
0.033689353
0.033974499
0.034267861
0.034569436
0.034879208
0.035197154
0.035523236
0.035857408
0.036199611
0.036549777
0.036907827
0.037273672
0.037647212
0.038028341
0.038416941
0.03881289
0.039216059
0.039626313
0.040043516
0.040467532
0.040898223
0.041335458
0.04177911
0.042229059
0.04268519
0.043147397
0.043615578
0.044089633
0.044569462
0.045054961
0.045546022
0.046042527
0.046544339
0.047051184
0.030018674
0.030173434
0.030335125
0.030503834
0.030679692
0.030862823
0.031053345
0.031251369
0.031457003
0.031670344
0.031891485
0.032120508
0.03235749
0.032602496
0.032855583
0.033116799
0.033386182
0.033663757
0.033949543
0.034243546
0.03454576
0.034856171
0.035174752
0.035501465
0.035836261
0.036179083
0.03652986
0.036888512
0.037254949
0.03762907
0.038010768
0.038399925
0.038796418
0.039200115
0.039610883
0.040028584
0.040453081
0.040884237
0.041321919
0.041766
0.04221636
0.042672886
0.043135471
0.043604014
0.044078418
0.044558585
0.045044413
0.045535798
0.046032625
0.046534759
0.047041933
0.029985925
0.030141056
0.030303146
0.030472282
0.030648592
0.030832196
0.031023212
0.031221749
0.031427913
0.031641801
0.031863502
0.032093099
0.032330665
0.032576264
0.032829951
0.033091773
0.033361764
0.033639952
0.03392635
0.034220964
0.034523787
0.034834802
0.035153981
0.035481286
0.035816667
0.036160063
0.036511404
0.036870607
0.037237582
0.037612228
0.037994434
0.038384084
0.038781052
0.039185207
0.039596414
0.040014535
0.040439431
0.040870965
0.041309005
0.041753422
0.042204097
0.042660916
0.043123775
0.043592572
0.044067214
0.044547603
0.045033643
0.045525231
0.046022258
0.046524592
0.047031972
0.029957246
0.030112698
0.030275135
0.030444646
0.030621354
0.030805379
0.030996835
0.031195832
0.031402474
0.031616855
0.031839065
0.032069181
0.032307277
0.032553414
0.032807646
0.033070016
0.033340558
0.033619296
0.033906244
0.034201404
0.034504768
0.034816317
0.035136023
0.035463844
0.035799728
0.036143616
0.036495432
0.036855096
0.037222515
0.037597586
0.037980199
0.038370235
0.038767567
0.039172065
0.039583592
0.040002008
0.040427176
0.040858957
0.041297218
0.041741831
0.042192676
0.04264964
0.043112619
0.043581513
0.04405623
0.044536677
0.045022759
0.04551438
0.046011433
0.04651379
0.047021199
0.029935346
0.030091024
0.03025371
0.030423498
0.030600505
0.030784849
0.030976645
0.031176001
0.031383018
0.031597791
0.031820405
0.032050938
0.032289459
0.032536028
0.032790697
0.033053506
0.033324488
0.033603665
0.033891047
0.034186635
0.034490419
0.034802379
0.035122483
0.035450688
0.035786941
0.036131179
0.036483329
0.036843305
0.037211014
0.037586353
0.03796921
0.038359465
0.038756991
0.039161654
0.039573319
0.039991846
0.040417096
0.040848929
0.041287213
0.041731818
0.042182626
0.042639522
0.043102404
0.043571174
0.04404574
0.044526012
0.045011902
0.045503315
0.046000151
0.046502287
0.047009478
0.02992404
0.030079783
0.030242555
0.03041245
0.030589582
0.030774071
0.030966031
0.031165569
0.031372785
0.031587771
0.031810611
0.032041381
0.032280147
0.032526966
0.032781888
0.033044952
0.033316186
0.03359561
0.033883233
0.034179053
0.034483057
0.034795221
0.035115514
0.035443889
0.035780294
0.036124661
0.036476917
0.036836974
0.037204739
0.037580106
0.037962962
0.038353187
0.038750652
0.039155225
0.039566767
0.039985139
0.0404102
0.040841811
0.041279837
0.041724151
0.04217463
0.042631164
0.043093648
0.043561987
0.04403609
0.044515872
0.045001246
0.045492124
0.045988411
0.046489989
0.046996624
0.02992863
0.030084166
0.030246752
0.03041647
0.030593441
0.030777786
0.030969619
0.031169048
0.031376172
0.03159108
0.031813853
0.032044566
0.032283281
0.032530054
0.032784932
0.03304795
0.033319136
0.033598505
0.033886063
0.034181807
0.034485721
0.03479778
0.035117948
0.035446178
0.035782412
0.036126583
0.036478614
0.036838417
0.037205896
0.037580944
0.037963448
0.038353285
0.038750328
0.039154442
0.039565489
0.039983327
0.040407818
0.040838819
0.041276198
0.041719824
0.042169575
0.042625341
0.043087017
0.043554509
0.044027727
0.044506589
0.044991012
0.045480913
0.045976204
0.046476771
0.046982392
0.029956231
0.030111132
0.030273091
0.030442196
0.030618569
0.030802333
0.030993604
0.031192488
0.031399081
0.031613472
0.031835739
0.032065954
0.032304177
0.032550462
0.032804852
0.033067379
0.033338068
0.033616931
0.033903972
0.034199183
0.034502546
0.034814033
0.035133605
0.035461213
0.035796796
0.036140285
0.0364916
0.036850653
0.037217346
0.037591571
0.037973215
0.038362154
0.038758259
0.039161396
0.039571427
0.03998821
0.040411604
0.040841468
0.041277666
0.04172007
0.042168555
0.042623009
0.043083329
0.043549419
0.044021192
0.044498566
0.044981463
0.045469804
0.045963505
0.046462462
0.046966461
0.029869944
0.030016624
0.030170267
0.030330945
0.030498774
0.030673885
0.030856404
0.031046446
0.031244116
0.03144951
0.031662712
0.031883802
0.032112845
0.032349902
0.032595022
0.032848246
0.033109604
0.033379117
0.033656795
0.033942637
0.034236634
0.034538764
0.034848995
0.035167285
0.035493582
0.035827824
0.036169939
0.036519846
0.036877453
0.037242662
0.037615365
0.037995447
0.038382785
0.038777249
0.039178705
0.039587014
0.040002034
0.040423624
0.040851642
0.041285952
0.041726421
0.042172926
0.042625352
0.043083594
0.043547556
0.044017149
0.044492293
0.044972912
0.045458931
0.045950271
0.046446834
0.046948416
0.029840298
0.02997783
0.030122289
0.030273685
0.030432113
0.030597705
0.030770593
0.030950903
0.03113875
0.031334237
0.03153746
0.031748504
0.031967442
0.032194343
0.032429263
0.03267225
0.032923341
0.033182565
0.033449939
0.033725471
0.034009156
0.034300981
0.03460092
0.03490894
0.035224993
0.035549026
0.035880974
0.036220761
0.036568305
0.036923514
0.037286288
0.037656518
0.038034088
0.038418876
0.038810753
0.039209584
0.03961523
0.04002755
0.040446402
0.040871642
0.041303132
0.041740738
0.042184333
0.042633801
0.043089031
0.043549925
0.044016393
0.044488353
0.044965728
0.045448446
0.045936432
0.046429591
0.046927731
0.029885927
0.030013397
0.030147467
0.030288387
0.030436227
0.030591099
0.030753141
0.030922487
0.031099263
0.031283584
0.031475554
0.031675269
0.031882812
0.032098259
0.032321677
0.032553121
0.032792638
0.033040265
0.033296026
0.033559937
0.033832003
0.034112216
0.034400559
0.034697003
0.035001511
0.035314033
0.035634511
0.035962877
0.036299054
0.036642959
0.036994496
0.037353566
0.037720061
0.038093864
0.038474854
0.038862902
0.039257874
0.039659632
0.040068035
0.040482937
0.040904196
0.04133167
0.041765221
0.04220472
0.042650041
0.043101073
0.043557708
0.044019853
0.044487419
0.044960329
0.045438508
0.045921882
0.04641036
0.046903755
0.030145548
0.030268002
0.030396929
0.030532652
0.030675261
0.030824883
0.030981661
0.031145734
0.03131723
0.031496268
0.031682956
0.03187739
0.032079658
0.032289837
0.032507995
0.032734189
0.032968466
0.033210863
0.033461403
0.0337201
0.033986957
0.034261963
0.034545098
0.03483633
0.035135618
0.035442909
0.035758142
0.036081246
0.036412143
0.036750746
0.037096962
0.03745069
0.037811822
0.038180243
0.038555832
0.038938464
0.039328003
0.039724314
0.040127254
0.040536677
0.040952438
0.04137439