/*--------------------------------*- C++ -*----------------------------------*\
| =========                 |                                                 |
| \\      /  F ield         | OpenFOAM: The Open Source CFD Toolbox           |
|  \\    /   O peration     | Version:  2312                                  |
|   \\  /    A nd           | Website:  www.openfoam.com                      |
|    \\/     M anipulation  |                                                 |
\*---------------------------------------------------------------------------*/
FoamFile
{
    version     2.0;
    format      ascii;
    arch        "LSB;label=32;scalar=64";
    class       volScalarField;
    location    "0.03";
    object      O2;
}
// * * * * * * * * * * * * * * * * * * * * * * * * * * * * * * * * * * * * * //

dimensions      [0 0 0 0 0 0 0];

internalField   nonuniform List<scalar> 
3224
(
0.22896176
0.22907187
0.22917081
0.22925964
0.22933931
0.22941072
0.22947467
0.2295319
0.22958307
0.2296288
0.22966965
0.22970611
0.22973865
0.22976766
0.22979353
0.22981658
0.22983712
0.22985542
0.22987172
0.22988623
0.22989917
0.22991069
0.22992097
0.22993013
0.2299383
0.2299456
0.22995213
0.22995798
0.22996322
0.22996793
0.22997218
0.22997601
0.22997949
0.22998265
0.22998554
0.22998821
0.22999067
0.22999296
0.2299951
0.22999713
0.22999907
0.2289617
0.2290718
0.22917073
0.22925955
0.22933923
0.22941064
0.22947459
0.22953182
0.229583
0.22962874
0.22966959
0.22970605
0.22973859
0.22976761
0.22979348
0.22981654
0.22983708
0.22985538
0.22987168
0.2298862
0.22989914
0.22991067
0.22992094
0.22993011
0.22993828
0.22994559
0.22995212
0.22995796
0.22996321
0.22996792
0.22997217
0.229976
0.22997948
0.22998264
0.22998554
0.2299882
0.22999066
0.22999295
0.2299951
0.22999713
0.22999907
0.22896175
0.22907181
0.22917072
0.22925953
0.2293392
0.22941061
0.22947456
0.22953179
0.22958297
0.2296287
0.22966956
0.22970602
0.22973856
0.22976758
0.22979345
0.22981651
0.22983705
0.22985536
0.22987166
0.22988618
0.22989912
0.22991065
0.22992093
0.22993009
0.22993827
0.22994557
0.22995211
0.22995795
0.2299632
0.22996791
0.22997216
0.22997599
0.22997947
0.22998264
0.22998554
0.2299882
0.22999066
0.22999295
0.2299951
0.22999713
0.22999907
0.22896189
0.22907191
0.22917079
0.22925958
0.22933924
0.22941064
0.22947458
0.2295318
0.22958297
0.22962871
0.22966956
0.22970602
0.22973856
0.22976757
0.22979344
0.2298165
0.22983705
0.22985535
0.22987165
0.22988617
0.22989911
0.22991064
0.22992092
0.22993008
0.22993826
0.22994557
0.2299521
0.22995795
0.22996319
0.22996791
0.22997215
0.22997599
0.22997947
0.22998264
0.22998553
0.22998819
0.22999066
0.22999295
0.2299951
0.22999713
0.22999907
0.22883988
0.2289621
0.22907209
0.22917094
0.22925971
0.22933935
0.22941073
0.22947465
0.22953186
0.22958302
0.22962875
0.22966959
0.22970605
0.22973858
0.22976759
0.22979346
0.22981651
0.22983705
0.22985535
0.22987165
0.22988618
0.22989911
0.22991064
0.22992092
0.22993008
0.22993826
0.22994556
0.22995209
0.22995794
0.22996319
0.2299679
0.22997215
0.22997599
0.22997947
0.22998263
0.22998553
0.22998819
0.22999066
0.22999295
0.2299951
0.22999713
0.22999906
0.22884014
0.22896239
0.22907234
0.22917117
0.2292599
0.22933951
0.22941087
0.22947477
0.22953197
0.22958311
0.22962882
0.22966965
0.2297061
0.22973862
0.22976763
0.22979349
0.22981654
0.22983707
0.22985537
0.22987167
0.22988619
0.22989912
0.22991065
0.22992092
0.22993008
0.22993826
0.22994557
0.2299521
0.22995794
0.22996319
0.2299679
0.22997215
0.22997599
0.22997947
0.22998263
0.22998553
0.22998819
0.22999065
0.22999295
0.2299951
0.22999713
0.22999906
0.22884053
0.22896274
0.22907266
0.22917144
0.22926015
0.22933973
0.22941105
0.22947494
0.22953211
0.22958323
0.22962893
0.22966974
0.22970618
0.22973869
0.22976769
0.22979354
0.22981658
0.22983711
0.2298554
0.22987169
0.22988621
0.22989914
0.22991066
0.22992093
0.22993009
0.22993827
0.22994557
0.2299521
0.22995795
0.22996319
0.2299679
0.22997215
0.22997599
0.22997947
0.22998263
0.22998553
0.22998819
0.22999065
0.22999295
0.2299951
0.22999713
0.22999906
0.22884104
0.22896319
0.22907306
0.2291718
0.22926046
0.22934
0.2294113
0.22947515
0.22953229
0.2295834
0.22962907
0.22966987
0.22970628
0.22973878
0.22976776
0.22979361
0.22981664
0.22983716
0.22985544
0.22987173
0.22988624
0.22989917
0.22991068
0.22992095
0.22993011
0.22993828
0.22994558
0.22995211
0.22995796
0.2299632
0.22996791
0.22997216
0.22997599
0.22997947
0.22998264
0.22998553
0.22998819
0.22999066
0.22999295
0.2299951
0.22999713
0.22999906
0.22870609
0.22884165
0.22896374
0.22907355
0.22917224
0.22926086
0.22934035
0.2294116
0.22947542
0.22953253
0.2295836
0.22962925
0.22967002
0.22970642
0.2297389
0.22976787
0.22979369
0.22981671
0.22983723
0.2298555
0.22987178
0.22988628
0.2298992
0.22991072
0.22992098
0.22993013
0.2299383
0.2299456
0.22995212
0.22995797
0.22996321
0.22996792
0.22997216
0.229976
0.22997947
0.22998264
0.22998553
0.2299882
0.22999066
0.22999295
0.2299951
0.22999713
0.22999907
0.22870683
0.22884238
0.2289644
0.22907415
0.22917278
0.22926134
0.22934078
0.22941198
0.22947575
0.22953282
0.22958386
0.22962947
0.22967022
0.22970659
0.22973905
0.229768
0.22979381
0.22981681
0.22983731
0.22985557
0.22987184
0.22988634
0.22989925
0.22991076
0.22992101
0.22993016
0.22993833
0.22994562
0.22995214
0.22995798
0.22996322
0.22996793
0.22997217
0.229976
0.22997948
0.22998264
0.22998554
0.2299882
0.22999066
0.22999295
0.2299951
0.22999713
0.22999907
0.22855724
0.22870774
0.22884323
0.22896518
0.22907486
0.22917342
0.22926191
0.22934128
0.22941243
0.22947614
0.22953316
0.22958416
0.22962974
0.22967045
0.2297068
0.22973923
0.22976815
0.22979394
0.22981693
0.22983741
0.22985566
0.22987192
0.2298864
0.22989931
0.22991081
0.22992106
0.2299302
0.22993836
0.22994565
0.22995217
0.229958
0.22996324
0.22996794
0.22997218
0.22997601
0.22997949
0.22998265
0.22998554
0.2299882
0.22999066
0.22999295
0.2299951
0.22999713
0.22999907
0.22855843
0.22870883
0.22884424
0.2289661
0.22907569
0.22917417
0.22926257
0.22934187
0.22941295
0.22947661
0.22953357
0.22958452
0.22963006
0.22967073
0.22970704
0.22973944
0.22976834
0.22979411
0.22981707
0.22983754
0.22985577
0.22987201
0.22988649
0.22989938
0.22991087
0.22992111
0.22993025
0.2299384
0.22994568
0.2299522
0.22995803
0.22996326
0.22996796
0.2299722
0.22997603
0.2299795
0.22998266
0.22998555
0.22998821
0.22999067
0.22999296
0.2299951
0.22999713
0.22999907
0.2283931
0.22855985
0.22871011
0.22884541
0.22896717
0.22907665
0.22917503
0.22926334
0.22934256
0.22941356
0.22947714
0.22953405
0.22958494
0.22963042
0.22967105
0.22970732
0.22973969
0.22976856
0.2297943
0.22981724
0.22983768
0.2298559
0.22987213
0.22988658
0.22989946
0.22991094
0.22992117
0.2299303
0.22993845
0.22994572
0.22995223
0.22995806
0.22996329
0.22996798
0.22997222
0.22997604
0.22997951
0.22998267
0.22998556
0.22998822
0.22999067
0.22999296
0.22999511
0.22999713
0.22999907
0.22839496
0.22856151
0.2287116
0.22884676
0.22896839
0.22907776
0.22917602
0.22926423
0.22934335
0.22941426
0.22947776
0.22953459
0.22958542
0.22963085
0.22967143
0.22970765
0.22973998
0.22976881
0.22979452
0.22981743
0.22983785
0.22985605
0.22987225
0.22988669
0.22989956
0.22991103
0.22992125
0.22993037
0.2299385
0.22994577
0.22995227
0.22995809
0.22996332
0.22996801
0.22997224
0.22997606
0.22997953
0.22998268
0.22998557
0.22998823
0.22999068
0.22999297
0.22999511
0.22999714
0.22999907
0.22821272
0.2283971
0.22856342
0.22871332
0.22884831
0.22896979
0.22907902
0.22917714
0.22926523
0.22934424
0.22941505
0.22947846
0.22953522
0.22958597
0.22963133
0.22967185
0.22970803
0.22974031
0.2297691
0.22979477
0.22981766
0.22983805
0.22985622
0.2298724
0.22988683
0.22989967
0.22991113
0.22992133
0.22993044
0.22993857
0.22994583
0.22995232
0.22995814
0.22996335
0.22996804
0.22997227
0.22997608
0.22997955
0.2299827
0.22998558
0.22998824
0.22999069
0.22999297
0.22999511
0.22999714
0.22999907
0.22821547
0.22839954
0.2285656
0.22871528
0.22885007
0.22897137
0.22908044
0.22917841
0.22926636
0.22934525
0.22941594
0.22947926
0.22953592
0.22958659
0.22963188
0.22967234
0.22970845
0.22974068
0.22976943
0.22979506
0.22981791
0.22983827
0.22985641
0.22987257
0.22988697
0.2298998
0.22991124
0.22992143
0.22993053
0.22993864
0.22994589
0.22995238
0.22995818
0.22996339
0.22996808
0.2299723
0.22997611
0.22997957
0.22998272
0.2299856
0.22998825
0.2299907
0.22999298
0.22999512
0.22999714
0.22999907
0.22801514
0.22821858
0.22840231
0.22856807
0.22871749
0.22885206
0.22897316
0.22908203
0.22917984
0.22926763
0.22934638
0.22941695
0.22948015
0.22953671
0.22958729
0.2296325
0.22967288
0.22970893
0.2297411
0.2297698
0.22979539
0.22981819
0.22983852
0.22985663
0.22987277
0.22988714
0.22989995
0.22991137
0.22992154
0.22993062
0.22993873
0.22994597
0.22995244
0.22995824
0.22996344
0.22996812
0.22997233
0.22997614
0.22997959
0.22998274
0.22998562
0.22998826
0.22999071
0.22999299
0.22999513
0.22999715
0.22999907
0.22801908
0.22822209
0.22840543
0.22857085
0.22871998
0.22885429
0.22897515
0.22908381
0.22918143
0.22926905
0.22934764
0.22941807
0.22948114
0.22953759
0.22958807
0.22963318
0.22967348
0.22970947
0.22974157
0.22977021
0.22979575
0.22981851
0.2298388
0.22985688
0.22987298
0.22988733
0.22990012
0.22991151
0.22992167
0.22993073
0.22993882
0.22994605
0.22995251
0.2299583
0.2299635
0.22996816
0.22997237
0.22997617
0.22997962
0.22998276
0.22998564
0.22998828
0.22999072
0.229993
0.22999513
0.22999715
0.22999907
0.22802353
0.22822602
0.22840892
0.22857397
0.22872276
0.22885678
0.22897737
0.2290858
0.2291832
0.22927063
0.22934904
0.22941931
0.22948224
0.22953856
0.22958893
0.22963395
0.22967416
0.22971006
0.2297421
0.22977067
0.22979616
0.22981887
0.22983911
0.22985715
0.22987322
0.22988754
0.2299003
0.22991167
0.22992181
0.22993086
0.22993893
0.22994614
0.22995259
0.22995837
0.22996356
0.22996822
0.22997242
0.22997621
0.22997965
0.22998279
0.22998566
0.2299883
0.22999074
0.22999301
0.22999514
0.22999715
0.22999907
0.22802849
0.22823039
0.2284128
0.22857743
0.22872585
0.22885953
0.22897983
0.22908799
0.22918516
0.22927237
0.22935059
0.22942069
0.22948346
0.22953964
0.22958988
0.22963479
0.2296749
0.22971072
0.22974268
0.22977119
0.22979661
0.22981927
0.22983946
0.22985746
0.22987349
0.22988778
0.22990051
0.22991185
0.22992197
0.22993099
0.22993905
0.22994625
0.22995268
0.22995845
0.22996362
0.22996827
0.22997247
0.22997625
0.22997969
0.22998282
0.22998568
0.22998832
0.22999075
0.22999302
0.22999515
0.22999716
0.22999907
0.22781144
0.22803392
0.22823521
0.22841709
0.22858125
0.22872926
0.22886258
0.22898255
0.22909041
0.22918731
0.22927429
0.22935229
0.2294222
0.2294848
0.22954083
0.22959094
0.22963572
0.22967573
0.22971144
0.22974332
0.22977175
0.2297971
0.2298197
0.22983985
0.22985779
0.22987379
0.22988804
0.22990073
0.22991205
0.22992214
0.22993115
0.22993918
0.22994636
0.22995279
0.22995854
0.2299637
0.22996834
0.22997252
0.2299763
0.22997973
0.22998285
0.22998571
0.22998834
0.22999077
0.22999303
0.22999516
0.22999716
0.22999908
0.22781809
0.22803987
0.22824052
0.22842182
0.22858547
0.22873302
0.22886593
0.22898553
0.22909307
0.22918968
0.22927639
0.22935416
0.22942386
0.22948628
0.22954213
0.22959209
0.22963674
0.22967663
0.22971224
0.22974402
0.22977237
0.22979765
0.22982018
0.22984027
0.22985816
0.22987411
0.22988832
0.22990098
0.22991227
0.22992234
0.22993131
0.22993933
0.22994649
0.2299529
0.22995863
0.22996378
0.22996841
0.22997258
0.22997635
0.22997978
0.22998289
0.22998574
0.22998836
0.22999079
0.22999305
0.22999517
0.22999717
0.22999908
0.22731199
0.2275813
0.22782535
0.22804638
0.22824632
0.228427
0.22859009
0.22873714
0.2288696
0.22898881
0.22909599
0.22919227
0.2292787
0.22935621
0.22942568
0.22948789
0.22954356
0.22959335
0.22963786
0.22967761
0.22971311
0.22974479
0.22977305
0.22979824
0.22982071
0.22984073
0.22985857
0.22987447
0.22988864
0.22990126
0.22991251
0.22992255
0.2299315
0.22993949
0.22994663
0.22995302
0.22995874
0.22996387
0.22996849
0.22997265
0.22997641
0.22997982
0.22998293
0.22998578
0.22998839
0.22999081
0.22999306
0.22999518
0.22999718
0.22999908
0.22702629
0.22732185
0.22759012
0.22783328
0.22805347
0.22825266
0.22843266
0.22859513
0.22874164
0.22887361
0.22899238
0.22909917
0.2291951
0.22928121
0.22935844
0.22942766
0.22948965
0.22954512
0.22959473
0.22963908
0.22967869
0.22971406
0.22974563
0.22977379
0.2297989
0.22982128
0.22984124
0.22985902
0.22987486
0.22988898
0.22990156
0.22991278
0.22992278
0.2299317
0.22993967
0.22994678
0.22995315
0.22995886
0.22996398
0.22996858
0.22997273
0.22997648
0.22997988
0.22998298
0.22998581
0.22998842
0.22999083
0.22999308
0.22999519
0.22999718
0.22999908
0.22703829
0.2273326
0.22759974
0.2278419
0.2280612
0.22825957
0.22843883
0.22860063
0.22874654
0.22887798
0.22899627
0.22910263
0.22919818
0.22928395
0.22936087
0.22942981
0.22949156
0.22954681
0.22959623
0.2296404
0.22967986
0.2297151
0.22974654
0.22977459
0.22979961
0.22982191
0.22984179
0.2298595
0.22987529
0.22988935
0.22990189
0.22991306
0.22992303
0.22993192
0.22993986
0.22994695
0.2299533
0.22995898
0.22996409
0.22996867
0.22997281
0.22997655
0.22997994
0.22998303
0.22998585
0.22998845
0.22999086
0.2299931
0.2299952
0.22999719
0.22999909
0.22705135
0.22734429
0.22761021
0.22785128
0.22806958
0.22826707
0.22844552
0.2286066
0.22875186
0.22888272
0.22900049
0.22910639
0.22920152
0.22928692
0.22936351
0.22943215
0.22949363
0.22954865
0.22959786
0.22964184
0.22968113
0.22971622
0.22974753
0.22977547
0.22980038
0.22982259
0.22984238
0.22986003
0.22987575
0.22988976
0.22990225
0.22991338
0.2299233
0.22993216
0.22994007
0.22994714
0.22995346
0.22995912
0.22996421
0.22996878
0.2299729
0.22997662
0.22998
0.22998308
0.2299859
0.22998849
0.22999089
0.22999312
0.22999522
0.2299972
0.22999909
0.2270655
0.22735696
0.22762155
0.22786143
0.22807867
0.22827518
0.22845277
0.22861307
0.22875763
0.22888785
0.22900506
0.22911045
0.22920514
0.22929013
0.22936636
0.22943468
0.22949587
0.22955063
0.22959961
0.2296434
0.22968251
0.22971743
0.2297486
0.22977641
0.22980121
0.22982332
0.22984303
0.2298606
0.22987625
0.2298902
0.22990263
0.22991372
0.2299236
0.22993242
0.2299403
0.22994734
0.22995363
0.22995927
0.22996434
0.22996889
0.22997299
0.22997671
0.22998007
0.22998314
0.22998595
0.22998853
0.22999092
0.22999315
0.22999523
0.22999721
0.22999909
0.2270808
0.22737065
0.22763381
0.2278724
0.22808848
0.22828395
0.2284606
0.22862005
0.22876385
0.2288934
0.22901
0.22911484
0.22920904
0.2292936
0.22936944
0.22943741
0.22949829
0.22955278
0.22960151
0.22964507
0.22968399
0.22971875
0.22974976
0.22977743
0.22980211
0.22982412
0.22984373
0.22986121
0.22987679
0.22989068
0.22990305
0.22991408
0.22992392
0.2299327
0.22994054
0.22994755
0.22995382
0.22995944
0.22996448
0.22996901
0.2299731
0.2299768
0.22998015
0.2299832
0.229986
0.22998857
0.22999095
0.22999317
0.22999525
0.22999722
0.22999909
0.22709728
0.22738541
0.22764703
0.22788423
0.22809905
0.2282934
0.22846903
0.22862758
0.22877056
0.22889937
0.22901532
0.22911957
0.22921324
0.22929733
0.22937275
0.22944035
0.2295009
0.22955509
0.22960356
0.22964688
0.22968559
0.22972016
0.22975101
0.22977854
0.22980309
0.22982497
0.22984449
0.22986188
0.22987738
0.22989119
0.2299035
0.22991448
0.22992427
0.22993301
0.22994081
0.22994778
0.22995402
0.22995961
0.22996463
0.22996914
0.22997321
0.22997689
0.22998023
0.22998327
0.22998606
0.22998862
0.22999099
0.2299932
0.22999527
0.22999723
0.2299991
0.22711498
0.22740127
0.22766123
0.22789694
0.22811042
0.22830356
0.2284781
0.22863567
0.22877777
0.2289058
0.22902103
0.22912466
0.22921776
0.22930134
0.22937632
0.22944351
0.2295037
0.22955757
0.22960575
0.22964883
0.22968731
0.22972168
0.22975235
0.22977972
0.22980413
0.2298259
0.2298453
0.22986259
0.22987801
0.22989174
0.22990399
0.22991491
0.22992465
0.22993334
0.2299411
0.22994804
0.22995424
0.2299598
0.2299648
0.22996929
0.22997334
0.229977
0.22998032
0.22998335
0.22998612
0.22998867
0.22999103
0.22999323
0.22999529
0.22999724
0.2299991
0.22713395
0.22741828
0.22767646
0.22791057
0.22812261
0.22831445
0.22848782
0.22864434
0.2287855
0.22891268
0.22902716
0.22913011
0.22922261
0.22930565
0.22938014
0.2294469
0.22950671
0.22956023
0.22960811
0.22965091
0.22968916
0.22972331
0.22975379
0.22978099
0.22980525
0.22982688
0.22984617
0.22986336
0.22987868
0.22989234
0.22990451
0.22991537
0.22992505
0.22993369
0.22994141
0.22994831
0.22995448
0.22996001
0.22996497
0.22996944
0.22997347
0.22997711
0.22998042
0.22998343
0.22998619
0.22998872
0.22999107
0.22999326
0.22999531
0.22999725
0.22999911
0.22715423
0.22743647
0.22769275
0.22792515
0.22813565
0.2283261
0.22849823
0.22865363
0.22879378
0.22892005
0.22903372
0.22913595
0.2292278
0.22931026
0.22938423
0.22945053
0.22950992
0.22956308
0.22961063
0.22965315
0.22969113
0.22972505
0.22975533
0.22978235
0.22980645
0.22982794
0.2298471
0.22986418
0.22987941
0.22989298
0.22990507
0.22991586
0.22992548
0.22993407
0.22994174
0.22994859
0.22995473
0.22996023
0.22996517
0.22996961
0.22997361
0.22997723
0.22998052
0.22998351
0.22998626
0.22998878
0.22999112
0.22999329
0.22999534
0.22999727
0.22999911
0.22717587
0.22745587
0.22771014
0.22794072
0.22814958
0.22833855
0.22850934
0.22866354
0.22880261
0.22892792
0.22904073
0.22914218
0.22923333
0.22931517
0.22938859
0.2294544
0.22951335
0.22956612
0.22961333
0.22965553
0.22969324
0.22972692
0.22975698
0.22978381
0.22980774
0.22982907
0.2298481
0.22986506
0.22988018
0.22989366
0.22990567
0.22991639
0.22992594
0.22993447
0.22994209
0.22994891
0.229955
0.22996047
0.22996537
0.22996978
0.22997376
0.22997736
0.22998063
0.22998361
0.22998633
0.22998884
0.22999117
0.22999333
0.22999536
0.22999728
0.22999912
0.22719891
0.22747654
0.22772866
0.2279573
0.22816441
0.2283518
0.22852117
0.2286741
0.22881203
0.22893631
0.22904819
0.22914882
0.22923924
0.22932042
0.22939325
0.22945853
0.22951701
0.22956936
0.2296162
0.22965807
0.22969549
0.2297289
0.22975873
0.22978536
0.2298091
0.22983028
0.22984917
0.229866
0.22988101
0.22989438
0.22990631
0.22991695
0.22992644
0.22993491
0.22994247
0.22994924
0.22995529
0.22996072
0.22996559
0.22996997
0.22997393
0.2299775
0.22998075
0.22998371
0.22998642
0.22998891
0.22999122
0.22999337
0.22999539
0.2299973
0.22999912
0.22722338
0.2274985
0.22774834
0.22797493
0.22818018
0.22836589
0.22853376
0.22868533
0.22882204
0.22894523
0.22905613
0.22915588
0.22924551
0.22932599
0.2293982
0.22946292
0.22952091
0.22957281
0.22961925
0.22966077
0.22969788
0.22973102
0.2297606
0.22978701
0.22981056
0.22983157
0.2298503
0.229867
0.22988189
0.22989516
0.22990699
0.22991755
0.22992696
0.22993537
0.22994288
0.22994959
0.2299556
0.22996099
0.22996582
0.22997017
0.2299741
0.22997765
0.22998087
0.22998381
0.2299865
0.22998898
0.22999127
0.22999341
0.22999542
0.22999732
0.22999913
0.22724933
0.22752179
0.22776922
0.22799362
0.2281969
0.22838085
0.22854711
0.22869724
0.22883266
0.2289547
0.22906456
0.22916337
0.22925218
0.22933191
0.22940345
0.22946758
0.22952504
0.22957648
0.2296225
0.22966365
0.22970042
0.22973326
0.22976259
0.22978876
0.22981211
0.22983293
0.2298515
0.22986806
0.22988282
0.22989598
0.22990772
0.22991818
0.22992752
0.22993586
0.22994331
0.22994997
0.22995593
0.22996127
0.22996607
0.22997039
0.22997429
0.22997781
0.22998101
0.22998393
0.2299866
0.22998906
0.22999133
0.22999346
0.22999545
0.22999733
0.22999913
0.22727679
0.22754643
0.22779132
0.22801341
0.22821461
0.22839668
0.22856126
0.22870986
0.22884392
0.22896472
0.22907348
0.22917131
0.22925923
0.22933818
0.22940902
0.22947252
0.22952942
0.22958036
0.22962593
0.22966669
0.22970311
0.22973564
0.22976469
0.22979062
0.22981375
0.22983438
0.22985278
0.22986919
0.22988381
0.22989686
0.22990849
0.22991886
0.22992812
0.22993638
0.22994376
0.22995037
0.22995628
0.22996158
0.22996634
0.22997062
0.22997448
0.22997798
0.22998115
0.22998405
0.2299867
0.22998914
0.2299914
0.2299935
0.22999548
0.22999735
0.22999914
0.2273058
0.22757247
0.22781466
0.22803433
0.22823333
0.22841341
0.2285762
0.2287232
0.22885581
0.22897532
0.22908292
0.22917971
0.2292667
0.22934481
0.22941491
0.22947775
0.22953405
0.22958447
0.22962957
0.22966991
0.22970596
0.22973816
0.22976692
0.22979259
0.22981549
0.22983592
0.22985413
0.22987038
0.22988487
0.22989778
0.2299093
0.22991958
0.22992875
0.22993693
0.22994425
0.22995079
0.22995665
0.2299619
0.22996662
0.22997086
0.22997469
0.22997816
0.2299813
0.22998417
0.2299868
0.22998922
0.22999147
0.22999356
0.22999552
0.22999737
0.22999914
0.22733638
0.22759993
0.22783929
0.22805639
0.22825307
0.22843107
0.22859197
0.22873728
0.22886836
0.22898651
0.22909288
0.22918857
0.22927458
0.22935181
0.22942112
0.22948327
0.22953895
0.2295888
0.22963341
0.22967331
0.22970897
0.22974083
0.22976927
0.22979467
0.22981732
0.22983754
0.22985556
0.22987164
0.22988598
0.22989876
0.22991016
0.22992033
0.22992941
0.22993752
0.22994476
0.22995124
0.22995704
0.22996224
0.22996691
0.22997112
0.22997491
0.22997835
0.22998147
0.22998431
0.22998692
0.22998931
0.22999154
0.22999361
0.22999555
0.2299974
0.22999915
0.22736858
0.22762884
0.22786521
0.22807961
0.22827386
0.22844965
0.22860858
0.2287521
0.22888159
0.22899829
0.22910337
0.22919791
0.22928288
0.22935919
0.22942767
0.22948908
0.2295441
0.22959337
0.22963746
0.22967689
0.22971214
0.22974363
0.22977176
0.22979686
0.22981926
0.22983925
0.22985707
0.22987297
0.22988715
0.22989979
0.22991107
0.22992114
0.22993012
0.22993814
0.2299453
0.22995171
0.22995745
0.2299626
0.22996723
0.22997139
0.22997515
0.22997855
0.22998164
0.22998445
0.22998703
0.22998941
0.22999161
0.22999367
0.22999559
0.22999742
0.22999916
0.22740242
0.22765922
0.22789246
0.22810403
0.22829571
0.2284692
0.22862604
0.22876769
0.22889549
0.22901068
0.22911441
0.22920773
0.22929161
0.22936695
0.22943456
0.2294952
0.22954953
0.22959818
0.22964173
0.22968067
0.22971548
0.22974659
0.22977437
0.22979917
0.2298213
0.22984105
0.22985867
0.22987438
0.22988839
0.22990089
0.22991203
0.22992198
0.22993086
0.22993879
0.22994587
0.22995221
0.22995789
0.22996298
0.22996756
0.22997168
0.2299754
0.22997876
0.22998182
0.22998461
0.22998716
0.22998951
0.22999169
0.22999373
0.22999564
0.22999744
0.22999917
0.22743795
0.22769112
0.22792107
0.22812966
0.22831866
0.22848972
0.22864438
0.22878406
0.22891009
0.22902369
0.229126
0.22921804
0.22930079
0.22937511
0.22944181
0.22950163
0.22955523
0.22960324
0.22964621
0.22968464
0.229719
0.2297497
0.22977712
0.2298016
0.22982345
0.22984295
0.22986034
0.22987585
0.22988969
0.22990203
0.22991304
0.22992287
0.22993164
0.22993948
0.22994648
0.22995274
0.22995835
0.22996339
0.22996791
0.22997198
0.22997566
0.22997898
0.22998201
0.22998477
0.22998729
0.22998962
0.22999178
0.22999379
0.22999568
0.22999747
0.22999918
0.22747522
0.22772458
0.22795108
0.22815655
0.22834273
0.22851125
0.22866361
0.22880123
0.22892541
0.22903735
0.22913816
0.22922887
0.22931042
0.22938367
0.22944941
0.22950837
0.22956122
0.22960855
0.22965091
0.22968881
0.22972269
0.22975296
0.22978001
0.22980416
0.22982571
0.22984494
0.2298621
0.22987741
0.22989106
0.22990324
0.22991411
0.22992381
0.22993247
0.2299402
0.22994711
0.2299533
0.22995884
0.22996381
0.22996828
0.2299723
0.22997593
0.22997922
0.22998221
0.22998493
0.22998743
0.22998973
0.22999187
0.22999386
0.22999573
0.2299975
0.22999918
0.2275143
0.22775967
0.22798255
0.22818475
0.22836797
0.22853382
0.22868378
0.22881924
0.22894148
0.22905167
0.22915092
0.22924022
0.22932052
0.22939264
0.22945739
0.22951546
0.2295675
0.22961412
0.22965585
0.22969318
0.22972656
0.2297564
0.22978304
0.22980684
0.22982808
0.22984704
0.22986395
0.22987904
0.2298925
0.22990451
0.22991523
0.22992479
0.22993333
0.22994096
0.22994778
0.22995389
0.22995935
0.22996426
0.22996867
0.22997264
0.22997622
0.22997947
0.22998242
0.22998511
0.22998758
0.22998985
0.22999196
0.22999393
0.22999578
0.22999752
0.22999919
0.22755531
0.22779648
0.22801557
0.22821433
0.22839445
0.2285575
0.22870494
0.22883813
0.22895833
0.2290667
0.2291643
0.22925214
0.22933111
0.22940206
0.22946576
0.22952289
0.2295741
0.22961997
0.22966104
0.22969778
0.22973063
0.22976
0.22978623
0.22980966
0.22983057
0.22984924
0.2298659
0.22988076
0.22989402
0.22990585
0.22991641
0.22992583
0.22993425
0.22994177
0.22994849
0.2299545
0.22995989
0.22996473
0.22996908
0.22997299
0.22997653
0.22997973
0.22998264
0.2299853
0.22998774
0.22998998
0.22999206
0.229994
0.22999583
0.22999755
0.2299992
0.22759842
0.22783518
0.22805027
0.22824541
0.22842227
0.22858238
0.22872717
0.22885798
0.22897604
0.22908248
0.22917836
0.22926465
0.22934225
0.22941196
0.22947455
0.2295307
0.22958103
0.22962612
0.22966649
0.22970261
0.22973491
0.22976379
0.22978959
0.22981263
0.2298332
0.22985156
0.22986795
0.22988257
0.22989562
0.22990726
0.22991765
0.22992693
0.22993521
0.22994261
0.22994923
0.22995516
0.22996047
0.22996523
0.22996951
0.22997337
0.22997686
0.22998001
0.22998288
0.2299855
0.2299879
0.22999011
0.22999217
0.22999408
0.22999588
0.22999759
0.22999921
0.22764389
0.227876
0.22808686
0.22827819
0.2284516
0.2286086
0.2287506
0.2288789
0.22899469
0.22909911
0.22919317
0.22927784
0.22935398
0.22942239
0.22948382
0.22953893
0.22958833
0.2296326
0.22967224
0.2297077
0.22973943
0.22976778
0.22979312
0.22981576
0.22983597
0.22985401
0.22987011
0.22988448
0.2298973
0.22990875
0.22991896
0.22992808
0.22993623
0.22994351
0.22995002
0.22995585
0.22996107
0.22996576
0.22996997
0.22997377
0.2299772
0.22998031
0.22998313
0.22998571
0.22998808
0.22999026
0.22999228
0.22999417
0.22999594
0.22999762
0.22999922
0.22744245
0.22769216
0.2279193
0.22812566
0.22831293
0.22848268
0.22863639
0.22877542
0.22890105
0.22901445
0.22911672
0.22920886
0.2292918
0.22936639
0.22943343
0.22949363
0.22954764
0.22959607
0.22963946
0.22967832
0.2297131
0.2297442
0.22977202
0.22979687
0.22981907
0.2298389
0.2298566
0.2298724
0.22988651
0.22989909
0.22991033
0.22992036
0.22992931
0.22993731
0.22994446
0.22995085
0.22995658
0.22996171
0.22996632
0.22997046
0.22997419
0.22997756
0.22998062
0.2299834
0.22998594
0.22998826
0.22999041
0.2299924
0.22999425
0.229996
0.22999766
0.22999924
0.22723229
0.22749998
0.2277438
0.2279656
0.22816715
0.22835006
0.22851589
0.22866607
0.22880192
0.22892469
0.22903553
0.2291355
0.22922558
0.22930668
0.22937963
0.2294452
0.22950408
0.22955692
0.22960431
0.22964677
0.2296848
0.22971884
0.2297493
0.22977653
0.22980086
0.22982261
0.22984203
0.22985937
0.22987485
0.22988867
0.229901
0.22991201
0.22992184
0.22993062
0.22993846
0.22994548
0.22995175
0.22995736
0.2299624
0.22996692
0.22997098
0.22997465
0.22997796
0.22998096
0.22998368
0.22998617
0.22998846
0.22999057
0.22999252
0.22999435
0.22999607
0.22999769
0.22999925
0.2270159
0.22730164
0.22756226
0.22779968
0.22801569
0.22821199
0.22839019
0.22855176
0.22869811
0.22883052
0.2289502
0.22905826
0.22915575
0.22924361
0.22932272
0.22939389
0.22945787
0.22951534
0.22956691
0.22961317
0.22965464
0.22969178
0.22972503
0.22975477
0.22978138
0.22980516
0.22982641
0.22984539
0.22986235
0.22987748
0.22989099
0.22990306
0.22991383
0.22992344
0.22993203
0.22993971
0.22994657
0.22995271
0.22995821
0.22996314
0.22996756
0.22997154
0.22997513
0.22997838
0.22998132
0.22998399
0.22998643
0.22998867
0.22999074
0.22999266
0.22999445
0.22999614
0.22999774
0.22999926
0.22710075
0.22737786
0.22763067
0.227861
0.22807061
0.22826115
0.22843414
0.22859103
0.22873316
0.22886179
0.22897807
0.2290831
0.22917786
0.22926328
0.22934021
0.22940944
0.22947168
0.2295276
0.2295778
0.22962283
0.2296632
0.22969937
0.22973176
0.22976074
0.22978666
0.22980984
0.22983055
0.22984906
0.22986559
0.22988035
0.22989353
0.22990529
0.2299158
0.22992519
0.22993357
0.22994106
0.22994776
0.22995376
0.22995912
0.22996394
0.22996826
0.22997215
0.22997566
0.22997883
0.22998171
0.22998432
0.22998671
0.22998891
0.22999093
0.22999281
0.22999456
0.22999621
0.22999778
0.22999928
0.22719554
0.22746295
0.22770697
0.22792936
0.2281318
0.22831586
0.22848303
0.22863468
0.22877211
0.22889651
0.22900901
0.22911064
0.22920237
0.22928508
0.22935959
0.22942665
0.22948697
0.22954117
0.22958984
0.22963351
0.22967267
0.22970776
0.22973919
0.22976732
0.22979249
0.229815
0.22983512
0.2298531
0.22986916
0.2298835
0.22989632
0.22990776
0.22991798
0.22992711
0.22993526
0.22994255
0.22994907
0.22995491
0.22996013
0.22996482
0.22996904
0.22997283
0.22997625
0.22997934
0.22998214
0.22998469
0.22998702
0.22998916
0.22999114
0.22999297
0.22999468
0.2299963
0.22999783
0.22999929
0.22730299
0.22755936
0.22779338
0.22800673
0.22820101
0.22837771
0.22853826
0.22868397
0.22881606
0.22893567
0.22904388
0.22914168
0.22922997
0.22930961
0.22938138
0.22944601
0.22950415
0.22955641
0.22960335
0.22964549
0.22968329
0.22971717
0.22974752
0.2297747
0.22979902
0.22982078
0.22984023
0.22985762
0.22987315
0.22988704
0.22989944
0.22991051
0.22992041
0.22992925
0.22993715
0.22994421
0.22995053
0.22995619
0.22996126
0.22996581
0.2299699
0.22997357
0.22997689
0.22997989
0.22998262
0.2299851
0.22998736
0.22998944
0.22999136
0.22999315
0.22999482
0.22999639
0.22999788
0.22999931
0.22742597
0.22766967
0.22789223
0.22809524
0.22828019
0.2284485
0.22860147
0.22874036
0.22886633
0.22898045
0.22908374
0.22917713
0.22926149
0.22933762
0.22940625
0.22946808
0.22952373
0.22957378
0.22961875
0.22965914
0.22969538
0.22972788
0.229757
0.22978309
0.22980645
0.22982734
0.22984604
0.22986275
0.22987769
0.22989104
0.22990298
0.22991364
0.22992316
0.22993168
0.22993929
0.22994609
0.22995219
0.22995764
0.22996253
0.22996692
0.22997086
0.22997442
0.22997762
0.22998052
0.22998315
0.22998555
0.22998774
0.22998976
0.22999162
0.22999335
0.22999497
0.22999649
0.22999794
0.22999933
0.22756804
0.22779712
0.22800644
0.22819748
0.22837162
0.22853018
0.22867439
0.2288054
0.22892429
0.22903208
0.22912969
0.22921799
0.22929781
0.22936988
0.2294349
0.2294935
0.22954628
0.22959377
0.22963647
0.22967484
0.22970928
0.22974018
0.22976789
0.22979273
0.22981497
0.22983488
0.2298527
0.22986863
0.22988289
0.22989563
0.22990702
0.22991721
0.22992631
0.22993445
0.22994173
0.22994824
0.22995407
0.22995929
0.22996398
0.22996818
0.22997196
0.22997537
0.22997845
0.22998123
0.22998376
0.22998607
0.22998818
0.22999011
0.22999191
0.22999358
0.22999514
0.22999661
0.22999801