/*--------------------------------*- C++ -*----------------------------------*\
| =========                 |                                                 |
| \\      /  F ield         | OpenFOAM: The Open Source CFD Toolbox           |
|  \\    /   O peration     | Version:  2312                                  |
|   \\  /    A nd           | Website:  www.openfoam.com                      |
|    \\/     M anipulation  |                                                 |
\*---------------------------------------------------------------------------*/
FoamFile
{
    version     2.0;
    format      ascii;
    arch        "LSB;label=32;scalar=64";
    class       surfaceScalarField;
    location    "0.03";
    object      phi;
}
// * * * * * * * * * * * * * * * * * * * * * * * * * * * * * * * * * * * * * //

dimensions      [1 0 -1 0 0 0 0];

oriented        oriented;

internalField   nonuniform List<scalar> 
6327
(
-2.3814246e-08
2.5632526e-10
-2.5220956e-08
2.7477482e-10
-2.6635143e-08
2.943878e-10
-2.8055639e-08
3.1519634e-10
-2.9481078e-08
3.3709089e-10
-3.0909986e-08
3.5991955e-10
-3.234082e-08
3.835965e-10
-3.3772004e-08
4.0801879e-10
-3.5201936e-08
4.3312008e-10
-3.6629e-08
4.5879982e-10
-3.8051576e-08
4.8497566e-10
-3.9468053e-08
5.1152697e-10
-4.0876831e-08
5.3833889e-10
-4.2276339e-08
5.6526907e-10
-4.366503e-08
5.9217478e-10
-4.5041405e-08
6.188873e-10
-4.6404006e-08
6.4523815e-10
-4.775144e-08
6.7103537e-10
-4.9082371e-08
6.9609265e-10
-5.0395546e-08
7.2021261e-10
-5.1689776e-08
7.4321326e-10
-5.296397e-08
7.6490871e-10
-5.4217116e-08
7.8514135e-10
-5.5448311e-08
8.0376227e-10
-5.6656742e-08
8.2066752e-10
-5.7841725e-08
8.3577186e-10
-5.9002685e-08
8.4905143e-10
-6.0139199e-08
8.6050918e-10
-6.1250973e-08
8.7021816e-10
-6.233788e-08
8.7827306e-10
-6.3399928e-08
8.8482947e-10
-6.4437261e-08
8.9003693e-10
-6.5450104e-08
8.9407218e-10
-6.6438714e-08
8.9708138e-10
-6.74033e-08
8.992976e-10
-6.8343957e-08
9.0113683e-10
-6.9260604e-08
9.033925e-10
-7.0152741e-08
9.0642898e-10
-7.1019448e-08
9.0793711e-10
-7.185798e-08
8.9784162e-10
8.75658e-10
-2.3810001e-08
8.227012e-10
-2.5216475e-08
8.5259629e-10
-2.6630404e-08
8.8372465e-10
-2.8050639e-08
9.1601069e-10
-2.9475819e-08
9.4930343e-10
-3.090447e-08
9.8343162e-10
-3.2335049e-08
1.0182808e-09
-3.3765981e-08
1.0537268e-09
-3.5195664e-08
1.089671e-09
-3.6622486e-08
1.1259892e-09
-3.804483e-08
1.1625636e-09
-3.9461088e-08
1.1992439e-09
-4.0869665e-08
1.2358784e-09
-4.2268991e-08
1.2722953e-09
-4.3657523e-08
1.3083123e-09
-4.5033765e-08
1.3437363e-09
-4.6396261e-08
1.3783576e-09
-4.774362e-08
1.4119634e-09
-4.9074507e-08
1.444329e-09
-5.0387668e-08
1.4752428e-09
-5.1681914e-08
1.5044915e-09
-5.2956153e-08
1.531885e-09
-5.4209369e-08
1.5572439e-09
-5.5440655e-08
1.5804282e-09
-5.6649196e-08
1.6013244e-09
-5.78343e-08
1.6198709e-09
-5.899539e-08
1.6360485e-09
-6.0132032e-08
1.649898e-09
-6.1243931e-08
1.6615119e-09
-6.2330951e-08
1.6710344e-09
-6.3393094e-08
1.6786526e-09
-6.4430501e-08
1.6845713e-09
-6.544339e-08
1.6890095e-09
-6.6432017e-08
1.6921872e-09
-6.7396591e-08
1.6944304e-09
-6.8337208e-08
1.6963063e-09
-6.925379e-08
1.6987975e-09
-7.0145848e-08
1.7023087e-09
-7.1012479e-08
1.704453e-09
-7.1850929e-08
1.6935461e-09
1.6721341e-09
-2.3802274e-08
1.3883522e-09
-2.5208276e-08
1.4297037e-09
-2.6621698e-08
1.4722958e-09
-2.804142e-08
1.5159723e-09
-2.9466083e-08
1.5605526e-09
-3.0894212e-08
1.6058554e-09
-3.2324266e-08
1.6517458e-09
-3.3754671e-08
1.6980812e-09
-3.5183828e-08
1.7447344e-09
-3.6610132e-08
1.791558e-09
-3.8031967e-08
1.8384022e-09
-3.9447732e-08
1.8850868e-09
-4.0855834e-08
1.9314283e-09
-4.2254711e-08
1.9772246e-09
-4.3642824e-08
2.0222582e-09
-4.5018681e-08
2.0663096e-09
-4.638083e-08
2.1091328e-09
-4.7727881e-08
2.1504906e-09
-4.9058502e-08
2.1901271e-09
-5.0371439e-08
2.2278119e-09
-5.1665503e-08
2.2633055e-09
-5.2939598e-08
2.296408e-09
-5.4192706e-08
2.3269241e-09
-5.5423915e-08
2.3547158e-09
-5.6632405e-08
2.3796647e-09
-5.7817476e-08
2.4017243e-09
-5.8978544e-08
2.4208855e-09
-6.0115168e-08
2.4372177e-09
-6.1227043e-08
2.4508371e-09
-6.2314024e-08
2.4619291e-09
-6.3376109e-08
2.4707173e-09
-6.4413428e-08
2.4774564e-09
-6.5426201e-08
2.4824135e-09
-6.6414678e-08
2.4858808e-09
-6.7379073e-08
2.4882837e-09
-6.8319488e-08
2.4903389e-09
-6.9235852e-08
2.4932173e-09
-7.0127691e-08
2.4973652e-09
-7.0994107e-08
2.5003044e-09
-7.183228e-08
2.4886826e-09
2.4682214e-09
-2.3792544e-08
1.953035e-09
-2.5197857e-08
2.0058078e-09
-2.6610565e-08
2.0597834e-09
-2.8029558e-08
2.1147328e-09
-2.9453481e-08
2.1704628e-09
-3.0880857e-08
2.2267942e-09
-3.2310147e-08
2.2835741e-09
-3.3739781e-08
2.3406473e-09
-3.5168165e-08
2.3978595e-09
-3.6593698e-08
2.4550438e-09
-3.8014774e-08
2.5120189e-09
-3.9429796e-08
2.5685799e-09
-4.0837181e-08
2.6245102e-09
-4.2235371e-08
2.6795808e-09
-4.3622836e-08
2.7335408e-09
-4.4998087e-08
2.786145e-09
-4.6359679e-08
2.8371138e-09
-4.7706227e-08
2.8861866e-09
-4.9036401e-08
2.9330769e-09
-5.0348948e-08
2.9775353e-09
-5.164268e-08
3.0192974e-09
-5.2916497e-08
3.0581519e-09
-5.416938e-08
3.0938874e-09
-5.5400409e-08
3.1263648e-09
-5.6608759e-08
3.1554603e-09
-5.7793721e-08
3.1811387e-09
-5.8954701e-08
3.2033984e-09
-6.0091247e-08
3.2223336e-09
-6.1203044e-08
3.2380822e-09
-6.2289936e-08
3.2508675e-09
-6.335191e-08
3.2609482e-09
-6.4389088e-08
3.2686277e-09
-6.5401684e-08
3.2742241e-09
-6.638995e-08
3.2781045e-09
-6.7354102e-08
3.2807985e-09
-6.8294255e-08
3.283176e-09
-6.9210344e-08
3.2865901e-09
-7.0101912e-08
3.2915341e-09
-7.0968051e-08
3.2954108e-09
-7.1805755e-08
3.2830375e-09
3.2638435e-09
-2.238772e-08
2.4536675e-09
-2.3783962e-08
2.5164237e-09
-2.5188395e-08
2.5805443e-09
-2.6600205e-08
2.6457704e-09
-2.8018279e-08
2.7118405e-09
-2.944126e-08
2.7785563e-09
-3.0867671e-08
2.8457439e-09
-3.2295974e-08
2.9132402e-09
-3.3724607e-08
2.9808793e-09
-3.5151981e-08
3.0484841e-09
-3.6576503e-08
3.1158687e-09
-3.7996575e-08
3.182825e-09
-3.9410609e-08
3.2491229e-09
-4.0817031e-08
3.3145194e-09
-4.2214293e-08
3.3787581e-09
-4.3600874e-08
3.4415594e-09
-4.4975294e-08
3.5026513e-09
-4.6336117e-08
3.561725e-09
-4.7681963e-08
3.6184945e-09
-4.901151e-08
3.6726477e-09
-5.0323506e-08
3.723913e-09
-5.1616768e-08
3.7720033e-09
-5.2890192e-08
3.8166921e-09
-5.4142761e-08
3.8577535e-09
-5.5373546e-08
3.8950416e-09
-5.6581717e-08
3.9284263e-09
-5.7766554e-08
3.9578773e-09
-5.8927454e-08
3.9833992e-09
-6.006395e-08
4.0051042e-09
-6.1175714e-08
4.0231489e-09
-6.2262575e-08
4.0377893e-09
-6.3324507e-08
4.0493174e-09
-6.4361621e-08
4.0580845e-09
-6.5374121e-08
4.0644601e-09
-6.6362255e-08
4.0688917e-09
-6.7326246e-08
4.0720173e-09
-6.8266221e-08
4.0748679e-09
-6.9182117e-08
4.078965e-09
-7.0073501e-08
4.0848697e-09
-7.0939361e-08
4.0897383e-09
-7.1776891e-08
4.0768793e-09
4.0580124e-09
-1.981979e-08
2.9413945e-09
-2.1055282e-08
3.0139938e-09
-2.2298051e-08
3.0880354e-09
-2.3547348e-08
3.1630738e-09
-2.4802171e-08
3.2388293e-09
-2.6061307e-08
3.3151019e-09
-2.7323455e-08
3.3917322e-09
-2.8587255e-08
3.4685476e-09
-2.985133e-08
3.5453765e-09
-3.1114279e-08
3.622023e-09
-3.2374699e-08
3.6982863e-09
-3.3631184e-08
3.7739373e-09
-3.4882335e-08
3.8487276e-09
-3.612677e-08
3.9223916e-09
-3.7363124e-08
3.9946519e-09
-3.8590062e-08
4.0652053e-09
-3.9806281e-08
4.1337576e-09
-4.1010518e-08
4.1999766e-09
-4.2201558e-08
4.2635553e-09
-4.3378237e-08
4.3241589e-09
-4.4539448e-08
4.3814967e-09
-4.5684148e-08
4.4352622e-09
-4.6811362e-08
4.4852141e-09
-4.7920185e-08
4.531111e-09
-4.9009793e-08
4.5727987e-09
-5.0079443e-08
4.6101385e-09
-5.1128491e-08
4.6431007e-09
-5.2156392e-08
4.6716895e-09
-5.3162719e-08
4.6960289e-09
-5.4147171e-08
4.7162873e-09
-5.5109581e-08
4.7327462e-09
-5.6049913e-08
4.745722e-09
-5.6968252e-08
4.7556075e-09
-5.786477e-08
4.7628169e-09
-5.8739686e-08
4.7678752e-09
-5.9593192e-08
4.7715133e-09
-6.0425434e-08
4.7749382e-09
-6.1236284e-08
4.779718e-09
-6.2025601e-08
4.7867839e-09
-6.2791454e-08
4.7918012e-09
-6.3535561e-08
4.7819978e-09
4.7546378e-09
-2.0367774e-08
3.4415434e-09
-2.1636927e-08
3.5241457e-09
-2.2913577e-08
3.6082123e-09
-2.4196945e-08
3.6931669e-09
-2.5485986e-08
3.7787097e-09
-2.6779453e-08
3.8646407e-09
-2.8076009e-08
3.950811e-09
-2.9374263e-08
4.0370429e-09
-3.0672804e-08
4.1231581e-09
-3.19702e-08
4.2089453e-09
-3.3265016e-08
4.2941885e-09
-3.4555811e-08
4.3786407e-09
-3.5841157e-08
4.4620344e-09
-3.7119637e-08
4.5440862e-09
-3.8389857e-08
4.6244964e-09
-3.965045e-08
4.7029421e-09
-4.0900081e-08
4.7791058e-09
-4.2137457e-08
4.8526349e-09
-4.336133e-08
4.9231991e-09
-4.4570505e-08
4.9904447e-09
-4.5763845e-08
5.0540589e-09
-4.6940274e-08
5.1137171e-09
-4.8098785e-08
5.1691594e-09
-4.9238443e-08
5.2201297e-09
-5.0358391e-08
5.2664608e-09
-5.1457857e-08
5.308004e-09
-5.2536166e-08
5.3447246e-09
-5.3592748e-08
5.376625e-09
-5.4627151e-08
5.4038354e-09
-5.563905e-08
5.426533e-09
-5.6628264e-08
5.4450201e-09
-5.7594742e-08
5.4596363e-09
-5.8538563e-08
5.4708136e-09
-5.9459896e-08
5.4790129e-09
-6.0358965e-08
5.4848412e-09
-6.1235977e-08
5.4891325e-09
-6.2091091e-08
5.4932755e-09
-6.2924197e-08
5.4988938e-09
-6.3735084e-08
5.5072163e-09
-6.4521795e-08
5.5124724e-09
-6.5285364e-08
5.5051772e-09
5.470413e-09
-2.0935518e-08
3.9545755e-09
-2.2239539e-08
4.0473545e-09
-2.3551314e-08
4.1415447e-09
-2.4870015e-08
4.2365044e-09
-2.6194556e-08
4.3319322e-09
-2.7523656e-08
4.4276214e-09
-2.8855945e-08
4.5234341e-09
-3.019e-08
4.6191839e-09
-3.1524375e-08
4.7146887e-09
-3.2857607e-08
4.8097208e-09
-3.4188226e-08
4.9040522e-09
-3.551476e-08
4.9974171e-09
-3.6835744e-08
5.0895329e-09
-3.8149728e-08
5.1800961e-09
-3.9455281e-08
5.2687887e-09
-4.0751001e-08
5.3552674e-09
-4.2035518e-08
5.4391938e-09
-4.3307501e-08
5.5201945e-09
-4.4565667e-08
5.5979185e-09
-4.5808783e-08
5.6719909e-09
-4.7035675e-08
5.7420782e-09
-4.8245229e-08
5.807836e-09
-4.94364e-08
5.8689858e-09
-5.0608214e-08
5.9252539e-09
-5.1759779e-08
5.9764586e-09
-5.2890288e-08
6.0224381e-09
-5.3999031e-08
6.0631507e-09
-5.5085408e-08
6.0985923e-09
-5.614894e-08
6.1288968e-09
-5.718928e-08
6.1542464e-09
-5.8206229e-08
6.1749616e-09
-5.9199725e-08
6.1914013e-09
-6.016984e-08
6.2040362e-09
-6.1116742e-08
6.2133745e-09
-6.2040663e-08
6.2201104e-09
-6.2941827e-08
6.2251916e-09
-6.3820409e-08
6.2301914e-09
-6.4676317e-08
6.2368028e-09
-6.5509224e-08
6.2464268e-09
-6.6317235e-08
6.252053e-09
-6.7100276e-08
6.2463364e-09
6.2063889e-09
-2.0194218e-08
4.3803254e-09
-2.1525501e-08
4.4809594e-09
-2.2865582e-08
4.5840724e-09
-2.4213715e-08
4.6884803e-09
-2.5569004e-08
4.7935295e-09
-2.6930315e-08
4.898932e-09
-2.8296334e-08
5.0044783e-09
-2.9665657e-08
5.110035e-09
-3.1036831e-08
5.2154077e-09
-3.2408378e-08
5.3204081e-09
-3.37788e-08
5.4247938e-09
-3.5146593e-08
5.5283244e-09
-3.6510248e-08
5.630717e-09
-3.7868265e-08
5.7316741e-09
-3.9219156e-08
5.8308749e-09
-4.0561455e-08
5.9279832e-09
-4.1893721e-08
6.0226369e-09
-4.3214543e-08
6.1144772e-09
-4.4522552e-08
6.2031112e-09
-4.5816425e-08
6.2881664e-09
-4.7094887e-08
6.3692486e-09
-4.8356721e-08
6.4460023e-09
-4.9600774e-08
6.5180637e-09
-5.0825955e-08
6.5851331e-09
-5.2031251e-08
6.6469194e-09
-5.3215728e-08
6.7032229e-09
-5.4378538e-08
6.7538679e-09
-5.5518936e-08
6.7988006e-09
-5.6636287e-08
6.8380103e-09
-5.7730082e-08
6.8716288e-09
-5.8799953e-08
6.8998423e-09
-5.9845678e-08
6.9229835e-09
-6.0867185e-08
6.9414306e-09
-6.1864537e-08
6.9556887e-09
-6.2837903e-08
6.9663165e-09
-6.3787521e-08
6.9740978e-09
-6.4713634e-08
6.9801072e-09
-6.5616425e-08
6.9860992e-09
-6.6495819e-08
6.9938505e-09
-6.7351349e-08
7.0047934e-09
-6.8181163e-08
7.0108802e-09
-6.8984307e-08
7.0059977e-09
6.9626973e-09
-2.0770053e-08
4.9100694e-09
-2.2138267e-08
5.021219e-09
-2.3515634e-08
5.134753e-09
-2.4901357e-08
5.2494342e-09
-2.629448e-08
5.3646412e-09
-2.7693822e-08
5.4801002e-09
-2.9098035e-08
5.5955966e-09
-3.0505685e-08
5.710996e-09
-3.1915287e-08
5.8260934e-09
-3.3325328e-08
5.9406933e-09
-3.4734277e-08
6.054539e-09
-3.6140595e-08
6.1673785e-09
-3.7542737e-08
6.2789127e-09
-3.8939167e-08
6.3888309e-09
-4.0328358e-08
6.4967944e-09
-4.1708804e-08
6.6024512e-09
-4.3079023e-08
6.7054209e-09
-4.4437564e-08
6.8053256e-09
-4.5783018e-08
6.9017538e-09
-4.7114014e-08
6.9943125e-09
-4.8429237e-08
7.0825878e-09
-4.9727424e-08
7.1662022e-09
-5.1007374e-08
7.244772e-09
-5.2267953e-08
7.3179757e-09
-5.3508101e-08
7.3855028e-09
-5.4726836e-08
7.4471336e-09
-5.5923271e-08
7.5026765e-09
-5.7096616e-08
7.5520628e-09
-5.8246202e-08
7.5952722e-09
-5.9371485e-08
7.6324311e-09
-6.047207e-08
7.6637268e-09
-6.1547714e-08
7.6895004e-09
-6.2598329e-08
7.7101465e-09
-6.3623969e-08
7.7262018e-09
-6.4624804e-08
7.7382776e-09
-6.5601074e-08
7.74725e-09
-6.6553038e-08
7.7543314e-09
-6.7480887e-08
7.7614544e-09
-6.8384544e-08
7.7704828e-09
-6.9263399e-08
7.7827496e-09
-7.0115625e-08
7.789363e-09
-7.0939534e-08
7.784698e-09
7.7396728e-09
-1.9971334e-08
5.3356394e-09
-2.1367156e-08
5.4540541e-09
-2.2773482e-08
5.5758e-09
-2.4189332e-08
5.6997725e-09
-2.5613866e-08
5.8247703e-09
-2.7046059e-08
5.9501927e-09
-2.8484679e-08
6.0757785e-09
-2.9928345e-08
6.2013086e-09
-3.1375592e-08
6.3266406e-09
-3.2824905e-08
6.4515585e-09
-3.427474e-08
6.5758565e-09
-3.5723531e-08
6.6992648e-09
-3.7169704e-08
6.8215191e-09
-3.8611677e-08
6.9423056e-09
-4.0047877e-08
7.0613009e-09
-4.1476737e-08
7.1781505e-09
-4.2896712e-08
7.2924873e-09
-4.4306279e-08
7.403914e-09
-4.5703944e-08
7.5120344e-09
-4.7088254e-08
7.6164197e-09
-4.8457794e-08
7.7166561e-09
-4.98112e-08
7.8123113e-09
-5.1147163e-08
7.9029852e-09
-5.2464432e-08
7.9882741e-09
-5.3761824e-08
8.0678327e-09
-5.5038228e-08
8.1413308e-09
-5.6292614e-08
8.2085257e-09
-5.7524047e-08
8.2692086e-09
-5.8731693e-08
8.3232917e-09
-5.9914838e-08
8.3707438e-09
-6.1072903e-08
8.4116809e-09
-6.2205461e-08
8.4462895e-09
-6.3312245e-08
8.4749135e-09
-6.4393146e-08
8.4979626e-09
-6.5448209e-08
8.5160011e-09
-6.6477596e-08
8.5296953e-09
-6.7481553e-08
8.5400162e-09
-6.846035e-08
8.548324e-09
-6.9414177e-08
8.5567222e-09
-7.0342947e-08
8.5671623e-09
-7.12459e-08
8.5807547e-09
-7.212122e-08
8.5879486e-09
-7.2966645e-08
8.5830376e-09
8.537688e-09
-2.0550046e-08
5.8836394e-09
-2.1984752e-08
6.0127151e-09
-2.343037e-08
6.1450896e-09
-2.4885909e-08
6.27949e-09
-2.6350459e-08
6.4148153e-09
-2.7822932e-08
6.5504924e-09
-2.9302052e-08
6.6862628e-09
-3.0786405e-08
6.8218987e-09
-3.2274498e-08
6.9572433e-09
-3.3764784e-08
7.0920677e-09
-3.5255687e-08
7.2261534e-09
-3.6745609e-08
7.3592186e-09
-3.823294e-08
7.4909864e-09
-3.9716062e-08
7.6211301e-09
-4.1193365e-08
7.749314e-09
-4.2663243e-08
7.8751691e-09
-4.4124109e-08
7.9983138e-09
-4.5574399e-08
8.1183362e-09
-4.7012576e-08
8.2348222e-09
-4.843714e-08
8.347327e-09
-4.9846631e-08
8.4554171e-09
-5.1239637e-08
8.5586417e-09
-5.2614795e-08
8.6565779e-09
-5.3970806e-08
8.7488018e-09
-5.5306431e-08
8.8349431e-09
-5.6620509e-08
8.9146505e-09
-5.7911954e-08
8.9876556e-09
-5.9179778e-08
9.0537307e-09
-6.0423098e-08
9.1127658e-09
-6.1641154e-08
9.1647159e-09
-6.2833325e-08
9.2096825e-09
-6.3999147e-08
9.2478485e-09
-6.5138323e-08
9.2795558e-09
-6.6250723e-08
9.3052266e-09
-6.7336373e-08
9.3254498e-09
-6.839543e-08
9.3409486e-09
-6.9428141e-08
9.352792e-09
-7.0434783e-08
9.3624958e-09
-7.1415541e-08
9.3723278e-09
-7.2370302e-08
9.3843171e-09
-7.3298166e-08
9.3992558e-09
-7.4197297e-08
9.4070779e-09
-7.5065032e-08
9.4016352e-09
9.3571546e-09
-1.9685078e-08
6.3106594e-09
-2.1147282e-08
6.4466139e-09
-2.2622014e-08
6.586437e-09
-2.4108075e-08
6.7293919e-09
-2.5604468e-08
6.8741948e-09
-2.7110214e-08
7.0198514e-09
-2.8624157e-08
7.1658104e-09
-3.0144976e-08
7.3118089e-09
-3.1671226e-08
7.4576076e-09
-3.3201382e-08
7.60303e-09
-3.4733871e-08
7.7478335e-09
-3.6267086e-08
7.8917846e-09
-3.7799396e-08
8.0345902e-09
-3.9329155e-08
8.1759599e-09
-4.0854712e-08
8.3155563e-09
-4.2374417e-08
8.4530312e-09
-4.3886627e-08
8.5880034e-09
-4.5389713e-08
8.7200781e-09
-4.6882071e-08
8.8488298e-09
-4.8362118e-08
8.9738279e-09
-4.9828308e-08
9.0946128e-09
-5.1279133e-08
9.2107314e-09
-5.2713131e-08
9.3217154e-09
-5.4128886e-08
9.4271188e-09
-5.5525044e-08
9.5264973e-09
-5.6900312e-08
9.6194541e-09
-5.8253468e-08
9.7056155e-09
-5.9583371e-08
9.7846856e-09
-6.0888977e-08
9.8564151e-09
-6.2169346e-08
9.9206684e-09
-6.3423667e-08
9.9773842e-09
-6.4651271e-08
1.0026645e-08
-6.5851654e-08
1.0068628e-08
-6.7024482e-08
1.0103667e-08
-6.81696e-08
1.0132195e-08
-6.9287011e-08
1.0154822e-08
-7.0376865e-08
1.0172331e-08
-7.1439404e-08
1.0185891e-08
-7.247491e-08
1.0197182e-08
-7.3483558e-08
1.0208627e-08
-7.4465196e-08
1.0222318e-08
-7.5418792e-08
1.0238653e-08
-7.6342473e-08
1.024717e-08
-7.7233312e-08
1.0241079e-08
1.0198481e-08
-2.0259364e-08
6.878252e-09
-2.1762326e-08
7.0249562e-09
-2.3278204e-08
7.1755199e-09
-2.480586e-08
7.3289882e-09
-2.6344265e-08
7.4841542e-09
-2.7892358e-08
7.6401255e-09
-2.9448929e-08
7.7963759e-09
-3.1012612e-08
7.9526294e-09
-3.2581933e-08
8.1086311e-09
-3.4155339e-08
8.2641801e-09
-3.5731228e-08
8.4190191e-09
-3.7307962e-08
8.5728973e-09
-3.888388e-08
8.7255113e-09
-4.0457301e-08
8.8765571e-09
-4.202654e-08
9.0256884e-09
-4.358991e-08
9.1725449e-09
-4.5145728e-08
9.3167348e-09
-4.6692328e-08
9.4578509e-09
-4.8228059e-08
9.5954562e-09
-4.9751297e-08
9.7291048e-09
-5.1260448e-08
9.8583234e-09
-5.2753955e-08
9.9826405e-09
-5.4230303e-08
1.010157e-08
-5.5688024e-08
1.0214644e-08
-5.7125705e-08
1.0321397e-08
-5.8541994e-08
1.0421404e-08
-5.9935609e-08
1.0514268e-08
-6.1305348e-08
1.0599663e-08
-6.2650103e-08
1.0677316e-08
-6.3968875e-08
1.0747063e-08
-6.5260797e-08
1.0808823e-08
-6.6525147e-08
1.0862657e-08
-6.7761374e-08
1.090873e-08
-6.8969102e-08
1.0947366e-08
-7.0148144e-08
1.0979004e-08
-7.129848e-08
1.1004275e-08
-7.2420244e-08
1.1024022e-08
-7.3513675e-08
1.1039522e-08
-7.4579053e-08
1.1052618e-08
-7.5616538e-08
1.1065884e-08
-7.6625928e-08
1.1081454e-08
-7.7606073e-08
1.1099279e-08
-7.8555034e-08
1.1108591e-08
-7.9469742e-08
1.1101901e-08
1.1062069e-08
-1.9319527e-08
7.3083664e-09
-2.0849881e-08
7.4615019e-09
-2.2394687e-08
7.6190048e-09
-2.3952822e-08
7.7802137e-09
-2.5523192e-08
7.94411e-09
-2.7104726e-08
8.1095902e-09
-2.8696292e-08
8.2758529e-09
-3.0296621e-08
8.4423901e-09
-3.1904306e-08
8.6089077e-09
-3.3517844e-08
8.7751321e-09
-3.5135652e-08
8.940836e-09
-3.6756104e-08
9.105746e-09
-3.8377531e-08
9.2695938e-09
-3.9998241e-08
9.4320652e-09
-4.1616521e-08
9.592843e-09
-4.3230651e-08
9.751574e-09
-4.4838907e-08
9.9078856e-09
-4.6439571e-08
1.0061378e-08
-4.8030934e-08
1.0211632e-08
-4.9611305e-08
1.0358202e-08
-5.1179015e-08
1.0500627e-08
-5.2732423e-08
1.0638422e-08
-5.4269922e-08
1.0771098e-08
-5.5789943e-08
1.0898152e-08
-5.7290962e-08
1.1019094e-08
-5.8771508e-08
1.1133435e-08
-6.0230166e-08
1.1240725e-08
-6.1665591e-08
1.134054e-08
-6.3076514e-08
1.1432522e-08
-6.4461762e-08
1.1516373e-08
-6.5820271e-08
1.1591897e-08
-6.7151112e-08
1.165899e-08
-6.8453503e-08
1.1717687e-08
-6.972684e-08
1.1768138e-08
-7.0970702e-08
1.1810653e-08
-7.2184862e-08
1.1845674e-08
-7.3369273e-08
1.1873851e-08
-7.4524051e-08
1.1896092e-08
-7.5649425e-08
1.1913784e-08
-7.674567e-08
1.1928938e-08
-7.7812925e-08
1.1944269e-08
-7.8850929e-08
1.1961928e-08
-7.9858417e-08
1.1981391e-08
-8.0833375e-08
1.1991645e-08
-8.1772671e-08
1.1984556e-08
1.1948277e-08
-1.988348e-08
7.8969938e-09
-2.145636e-08
8.0607954e-09
-2.3044077e-08
8.2290213e-09
-2.4645578e-08
8.4007519e-09
-2.6259773e-08
8.574982e-09
-2.788554e-08
8.7507175e-09
-2.952168e-08
8.9272311e-09
-3.116687e-08
9.1040313e-09
-3.2819668e-08
9.2808011e-09
-3.4478538e-08
9.4572459e-09
-3.6141874e-08
9.6331103e-09
-3.7808021e-08
9.8081042e-09
-3.9475282e-08
9.9819408e-09
-4.1141936e-08
1.0154296e-08
-4.2806236e-08
1.0324841e-08
-4.4466432e-08
1.0493214e-08
-4.6120763e-08
1.0659033e-08
-4.7767474e-08
1.0821892e-08
-4.9404816e-08
1.0981362e-08
-5.1031057e-08
1.1136988e-08
-5.2644484e-08
1.1288299e-08
-5.4243409e-08
1.1434797e-08
-5.5826173e-08
1.1575978e-08
-5.7391156e-08
1.1711322e-08
-5.8936774e-08
1.1840317e-08
-6.0461495e-08
1.1962453e-08
-6.1963841e-08
1.2077251e-08
-6.3442399e-08
1.2184261e-08
-6.4895831e-08
1.2283092e-08
-6.6322894e-08
1.2373415e-08
-6.7722454e-08
1.2455003e-08
-6.9093512e-08
1.2527723e-08
-7.0435223e-08
1.2591583e-08
-7.1746924e-08
1.2646713e-08
-7.3028141e-08
1.2693405e-08
-7.4278603e-08
1.2732103e-08
-7.5498228e-08
1.2763475e-08
-7.6687111e-08
1.2788496e-08
-7.7845468e-08
1.2808666e-08
-7.8973563e-08
1.2826169e-08
-8.0071507e-08
1.2843851e-08
-8.1138967e-08
1.2863853e-08
-8.2174571e-08
1.2885158e-08
-8.317621e-08
1.2896561e-08
-8.4140751e-08
1.2889405e-08
1.2857414e-08
-1.8862116e-08
8.3325236e-09
-2.0462269e-08
8.5020279e-09
-2.2078722e-08
8.676464e-09
-2.3710433e-08
8.8552473e-09
-2.5356393e-08
9.0373544e-09
-2.70155e-08
9.2218166e-09
-2.868658e-08
9.4077381e-09
-3.0368375e-08
9.5944509e-09
-3.2059512e-08
9.7814718e-09
-3.3758512e-08
9.9684599e-09
-3.5463812e-08
1.0155098e-08
-3.7173778e-08
1.0341102e-08
-3.888673e-08
1.0526166e-08
-4.0600944e-08
1.0709985e-08
-4.2314668e-08
1.0892225e-08
-4.4026126e-08
1.1072545e-08
-4.5733535e-08
1.1250576e-08
-4.74351e-08
1.1425931e-08
-4.9129029e-08
1.1598195e-08
-5.0813536e-08
1.1766935e-08
-5.2486849e-08
1.1931687e-08
-5.4147209e-08
1.209197e-08
-5.5792882e-08
1.2247277e-08
-5.7422159e-08
1.2397088e-08
-5.9033364e-08
1.254087e-08
-6.0624858e-08
1.2678088e-08
-6.2195043e-08
1.2808211e-08
-6.3742376e-08
1.2930731e-08
-6.5265372e-08
1.304517e-08
-6.6762623e-08
1.3151103e-08
-6.8232809e-08
1.3248171e-08
-6.9674723e-08
1.333611e-08
-7.1087291e-08
1.3414757e-08
-7.2469599e-08
1.3484089e-08
-7.3820916e-08
1.3544211e-08
-7.5140709e-08
1.3595395e-08
-7.6428657e-08
1.3638084e-08
-7.7684639e-08
1.3672966e-08
-7.890872e-08
1.3701084e-08
-8.0101101e-08
1.3724059e-08
-8.1262026e-08
1.3744246e-08
-8.2391569e-08
1.376461e-08
-8.3489315e-08
1.3787257e-08
-8.4553786e-08
1.381067e-08
-8.5582762e-08
1.3823489e-08
-8.6573146e-08
1.3816724e-08
1.3789729e-08
-1.9411573e-08
8.9440922e-09
-2.1055956e-08
9.1238444e-09
-2.2717025e-08
9.3087688e-09
-2.4393813e-08
9.4979249e-09
-2.6085325e-08
9.6902584e-09
-2.7790427e-08
9.884844e-09
-2.9507897e-08
1.008087e-08
-3.1236417e-08
1.027771e-08
-3.2974575e-08
1.0474887e-08
-3.4720854e-08
1.0672035e-08
-3.6473666e-08
1.0868812e-08
-3.8231351e-08
1.1064909e-08
-3.9992202e-08
1.126e-08
-4.175447e-08
1.1453765e-08
-4.3516374e-08
1.164586e-08
-4.5276108e-08
1.1835935e-08
-4.7031859e-08
1.2023613e-08
-4.8781798e-08
1.2208502e-08
-5.0524099e-08
1.2390184e-08
-5.2256939e-08
1.2568218e-08
-5.3978505e-08
1.2742138e-08
-5.5686995e-08
1.2911452e-08
-5.738063e-08
1.3075647e-08
-5.905765e-08
1.3234191e-08
-6.0716325e-08
1.3386533e-08
-6.2354954e-08
1.3532122e-08
-6.397188e-08
1.3670404e-08
-6.5565487e-08
1.3800843e-08
-6.7134221e-08
1.3922931e-08
-6.8676595e-08
1.4036211e-08
-7.0191212e-08
1.4140287e-08
-7.1676784e-08
1.423486e-08
-7.3132159e-08
1.4319735e-08
-7.4556344e-08
1.4394851e-08
-7.5948536e-08
1.4460288e-08
-7.7308137e-08
1.4516296e-08
-7.8634766e-08
1.4563311e-08
-7.9928257e-08
1.4602045e-08
-8.1188642e-08
1.4633612e-08
-8.2416095e-08
1.465976e-08
-8.3610834e-08
1.4683011e-08
-8.4772885e-08
1.4706438e-08
-8.590174e-08
1.4732081e-08
-8.6995807e-08
1.4757933e-08
-8.8052742e-08
1.4772505e-08
-8.9069499e-08
1.4766692e-08
1.4745406e-08
-1.9975033e-08
9.5726732e-09
-2.166467e-08
9.7627151e-09
-2.3371414e-08
9.9579639e-09
-2.5094371e-08
1.0157318e-08
-2.683252e-08
1.0359724e-08
-2.8584693e-08
1.0564315e-08
-3.0349619e-08
1.0770348e-08
-3.2125933e-08
1.0977227e-08
-3.3912178e-08
1.1184473e-08
-3.5706811e-08
1.1391695e-08
-3.7508212e-08
1.1598529e-08
-3.9314699e-08
1.180464e-08
-4.1124538e-08
1.2009686e-08
-4.2935954e-08
1.221333e-08
-4.474714e-08
1.2415219e-08
-4.655626e-08
1.2614995e-08
-4.8361472e-08
1.2812276e-08
-5.0160917e-08
1.3006665e-08
-5.1952733e-08
1.3197743e-08
-5.3735062e-08
1.3385065e-08
-5.5506051e-08
1.356816e-08
-5.726386e-08
1.3746535e-08
-5.9006661e-08
1.3919666e-08
-6.0732646e-08
1.4087012e-08
-6.2440029e-08
1.424801e-08
-6.4127051e-08
1.4402091e-08
-6.579199e-08
1.4548678e-08
-6.743316e-08
1.468721e-08
-6.9048932e-08
1.4817148e-08
-7.0637741e-08
1.4938e-08
-7.2198105e-08
1.5049337e-08
-7.3728654e-08
1.5150821e-08
-7.5228147e-08
1.5242219e-08
-7.6695511e-08
1.5323435e-08
-7.8129861e-08
1.5394518e-08
-7.9530524e-08
1.5455693e-08
-8.0897054e-08
1.5507391e-08
-8.2229233e-08
1.5550349e-08
-8.3527049e-08
1.5585754e-08
-8.4790645e-08
1.5615484e-08
-8.6020199e-08
1.5642226e-08
-8.7215676e-08
1.5669148e-08
-8.8376461e-08
1.5698194e-08
-8.9500839e-08
1.5726875e-08
-9.0586333e-08
1.5743609e-08
-9.1629945e-08
1.5739411e-08
1.5724569e-08
-2.0552617e-08
1.0218524e-08
-2.2288529e-08
1.041891e-08
-2.4042045e-08
1.0624358e-08
-2.5812266e-08
1.0833729e-08
-2.7598145e-08
1.1046052e-08
-2.939847e-08
1.126052e-08
-3.1211926e-08
1.1476444e-08
-3.3037103e-08
1.1693248e-08
-3.4872509e-08
1.1910449e-08
-3.6716569e-08
1.2127632e-08
-3.8567638e-08
1.2344412e-08
-4.0424009e-08
1.2560428e-08
-4.2283924e-08
1.2775323e-08
-4.4145582e-08
1.2988745e-08
-4.6007149e-08
1.3200334e-08
-4.7866765e-08
1.3409724e-08
-4.9722556e-08
1.3616527e-08
-5.1572633e-08
1.3820347e-08
-5.3415104e-08
1.4020763e-08
-5.5248076e-08
1.4217329e-08
-5.706966e-08
1.4409573e-08
-5.8877972e-08
1.4596998e-08
-6.0671143e-08
1.4779078e-08
-6.2447314e-08
1.4955262e-08
-6.4204647e-08
1.5124977e-08
-6.5941324e-08
1.5287636e-08
-6.7655555e-08
1.5442644e-08
-6.9345586e-08
1.5589414e-08
-7.1009709e-08
1.5727377e-08
-7.2646278e-08
1.5856007e-08
-7.4253725e-08
1.5974839e-08
-7.5830589e-08
1.6083495e-08
-7.7375539e-08
1.6181705e-08
-7.8887409e-08
1.6269335e-08
-8.0365228e-08
1.63464e-08
-8.180824e-08
1.6413097e-08
-8.3215927e-08
1.6469854e-08
-8.4588005e-08
1.6517432e-08
-8.5924413e-08
1.65571e-08
-8.7225249e-08
1.6590866e-08
-8.849064e-08
1.6621577e-08
-8.9720475e-08
1.6652477e-08
-9.0914016e-08
1.6685388e-08
-9.2069411e-08
1.6717355e-08
-9.3184036e-08
1.6736733e-08
-9.425493e-08
1.6734898e-08
1.6727272e-08
-1.9379932e-08
1.0677348e-08
-2.1144348e-08
1.0882234e-08
-2.2927645e-08
1.1092877e-08
-2.4729041e-08
1.1308325e-08
-2.6547639e-08
1.1527525e-08
-2.8382345e-08
1.1749595e-08
-3.0231909e-08
1.1973793e-08
-3.2094972e-08
1.2199469e-08
-3.3970089e-08
1.242606e-08
-3.5855733e-08
1.2653075e-08
-3.7750301e-08
1.2880077e-08
-3.9652123e-08
1.3106658e-08
-4.1559467e-08
1.3332437e-08
-4.347055e-08
1.3557042e-08
-4.5383548e-08
1.3780107e-08
-4.7296601e-08
1.4001264e-08
-4.9207823e-08
1.4220141e-08
-5.1115313e-08
1.443635e-08
-5.3017154e-08
1.4649493e-08
-5.4911424e-08
1.4859149e-08
-5.6796195e-08
1.5064875e-08
-5.8669544e-08
1.52662e-08
-6.0529549e-08
1.5462626e-08
-6.2374297e-08
1.5653625e-08
-6.4201882e-08
1.5838641e-08
-6.6010413e-08
1.6017093e-08
-6.7798013e-08
1.6188379e-08
-6.9562827e-08
1.6351887e-08
-7.130303e-08
1.6507004e-08
-7.3016836e-08
1.6653135e-08
-7.4702512e-08
1.6789719e-08
-7.6358401e-08
1.6916257e-08
-7.7982947e-08
1.703233e-08
-7.9574723e-08
1.7137629e-08
-8.1132465e-08
1.7231979e-08
-8.2655104e-08
1.7315362e-08
-8.4141794e-08
1.7387947e-08
-8.5591932e-08
1.7450156e-08
-8.7005163e-08
1.7502779e-08
-8.8381364e-08
1.7547169e-08
-8.9720574e-08
1.7585469e-08
-9.1022856e-08
1.7620674e-08
-9.2288002e-08
1.765609e-08
-9.3515135e-08
1.7693384e-08
-9.4702249e-08
1.7729157e-08
-9.5846562e-08
1.7751739e-08
-9.694513e-08
1.7753108e-08
1.7753515e-08
-1.9937769e-08
1.1349538e-08
-2.1750225e-08
1.1564508e-08
-2.358204e-08
1.1785133e-08
-2.5432462e-08
1.2010324e-08
-2.7300561e-08
1.2239131e-08
-2.9185204e-08
1.2470759e-08
-3.1085103e-08
1.2704515e-08
-3.2998864e-08
1.2939778e-08
-3.4925007e-08
1.3175991e-08
-3.6861976e-08
1.3412649e-08
-3.8808142e-08
1.3649295e-08
-4.0761808e-08
1.3885502e-08
-4.272122e-08
1.4120869e-08
-4.4684572e-08
1.4355009e-08
-4.6650014e-08
1.4587545e-08
-4.8615663e-08
1.4818101e-08
-5.0579609e-08
1.5046302e-08
-5.2539924e-08
1.5271758e-08
-5.4494665e-08
1.5494074e-08
-5.644188e-08
1.571283e-08
-5.8379613e-08
1.5927588e-08
-6.0305904e-08
1.613788e-08
-6.2218797e-08
1.6343211e-08
-6.4116335e-08
1.6543055e-08
-6.5996569e-08
1.6736852e-08
-6.7857555e-08
1.6924014e-08
-6.969736e-08
1.7103931e-08
-7.1514062e-08
1.7275973e-08
-7.3305765e-08
1.7439507e-08
-7.5070603e-08
1.759391e-08
-7.6806757e-08
1.7738592e-08
-7.8512475e-08
1.7873015e-08
-8.0186103e-08
1.7996724e-08
-8.182611e-08
1.810937e-08
-8.3431126e-08
1.8210738e-08
-8.4999977e-08
1.830077e-08
-8.6531717e-08
1.8379613e-08
-8.8025648e-08
1.8447682e-08
-8.9481331e-08
1.8505801e-08
-9.0898567e-08
1.8555409e-08
-9.2277325e-08
1.8598781e-08
-9.3617581e-08
1.8639057e-08
-9.4919014e-08
1.8679578e-08
-9.6180585e-08
1.8721832e-08
-9.7400118e-08
1.8761997e-08
-9.857466e-08
1.8788424e-08
-9.970125e-08
1.8793921e-08
1.8803226e-08
-1.6848276e-08
1.1611753e-08
-1.8667501e-08
1.1823136e-08
-2.0508541e-08
1.2041338e-08
-2.2370186e-08
1.2266059e-08
-2.4251689e-08
1.249626e-08
-2.6152293e-08
1.2730877e-08
-2.8071029e-08
1.2969039e-08
-3.0006727e-08
1.3210007e-08
-3.1958066e-08
1.3453122e-08
-3.3923622e-08
1.3697779e-08
-3.5901887e-08
1.3943416e-08
-3.7891278e-08
1.4189515e-08
-3.9890139e-08
1.4435601e-08
-4.1896751e-08
1.4681225e-08
-4.3909335e-08
1.492597e-08
-4.5926062e-08
1.5169434e-08
-4.794506e-08
1.541123e-08
-4.9964422e-08
1.5650976e-08
-5.1982215e-08
1.5888295e-08
-5.3996487e-08
1.6122799e-08
-5.6005269e-08
1.6354092e-08
-5.8006582e-08
1.6581762e-08
-5.9998441e-08
1.6805376e-08
-6.1978857e-08
1.7024473e-08
-6.3945836e-08
1.7238564e-08
-6.5897385e-08
1.7447124e-08
-6.7831509e-08
1.7649598e-08
-6.9746216e-08
1.7845395e-08
-7.1639515e-08
1.8033894e-08
-7.3509423e-08
1.8214455e-08
-7.5353969e-08
1.8386427e-08
-7.7171208e-08
1.8549162e-08
-7.8959232e-08
1.8702041e-08
-8.0716194e-08
1.8844494e-08
-8.2440333e-08
1.8976028e-08
-8.413001e-08
1.9096254e-08
-8.5783741e-08
1.9204918e-08
-8.740024e-08
1.9301926e-08
-8.8978446e-08
1.9387397e-08
-9.0517558e-08
1.9461747e-08
-9.2017038e-08
1.9525835e-08
-9.3476598e-08
1.9581189e-08
-9.4896116e-08
1.9630217e-08
-9.6275463e-08
1.9676186e-08
-9.7614181e-08
1.9722455e-08
-9.8911049e-08
1.9770307e-08
-1.001637e-07
1.9815518e-08
-1.01369e-07
1.9846517e-08
-1.0252393e-07
1.9857156e-08
1.9876278e-08