/*--------------------------------*- C++ -*----------------------------------*\
| =========                 |                                                 |
| \\      /  F ield         | OpenFOAM: The Open Source CFD Toolbox           |
|  \\    /   O peration     | Version:  2312                                  |
|   \\  /    A nd           | Website:  www.openfoam.com                      |
|    \\/     M anipulation  |                                                 |
\*---------------------------------------------------------------------------*/
FoamFile
{
    version     2.0;
    format      ascii;
    arch        "LSB;label=32;scalar=64";
    class       volScalarField;
    location    "0.03";
    object      Qdot;
}
// * * * * * * * * * * * * * * * * * * * * * * * * * * * * * * * * * * * * * //

dimensions      [1 -1 -3 0 0 0 0];

internalField   nonuniform List<scalar> 
3224
(
5.7544464
3.4040538
1.9982507
1.1644938
0.67393787
0.38748518
0.22141407
0.12578823
0.071078056
0.039964395
0.022368584
0.01246869
0.0069248471
0.0038335601
0.0021163631
0.0011656258
0.00064080879
0.00035172743
0.00019286976
0.00010568448
5.791648e-05
3.1714935e-05
1.7387475e-05
9.5348783e-06
5.2388659e-06
2.8769078e-06
1.5802228e-06
8.716886e-07
4.8435552e-07
2.6294214e-07
1.4908365e-07
8.0367388e-08
4.6576253e-08
2.5636846e-08
1.5049444e-08
5.8259551e-09
4.3100889e-09
1.0168588e-09
1.7464962e-09
-3.0082185e-11
-8.7325669e-10
5.7599634
3.4078258
2.0006188
1.1659196
0.67478077
0.38797787
0.22169954
0.12595231
0.071171841
0.040017587
0.022398634
0.012485585
0.0069343343
0.003838829
0.0021192694
0.0011672583
0.00064167407
0.00035222196
0.00019313181
0.00010584599
5.7964422e-05
3.1775245e-05
1.742235e-05
9.5526634e-06
5.243776e-06
2.8755584e-06
1.589295e-06
8.7566187e-07
4.7924269e-07
2.7261841e-07
1.4648021e-07
7.8198353e-08
4.4486653e-08
2.7769264e-08
1.7369941e-08
6.3243642e-09
3.9574364e-09
1.657021e-09
1.7468819e-09
-3.0082185e-11
-1.003471e-09
5.7659359
3.4119656
2.0031985
1.1674791
0.67570909
0.38852455
0.22201878
0.12613731
0.071278209
0.040078405
0.022433242
0.012505168
0.0069453281
0.0038450203
0.002122701
0.00116916
0.00064274361
0.00035281518
0.00019347232
0.00010602509
5.8077279e-05
3.1835553e-05
1.745707e-05
9.5691616e-06
5.2517566e-06
2.884292e-06
1.5796682e-06
8.708485e-07
4.847791e-07
2.7215007e-07
1.4645553e-07
8.0342705e-08
4.4498586e-08
2.5202444e-08
1.5191344e-08
6.3228215e-09
3.8109085e-09
1.1353924e-09
1.106334e-09
-3.0467854e-11
-6.652791e-12
5.7725401
3.4165047
2.0060033
1.1691776
0.67672516
0.38912637
0.22237207
0.12634314
0.071397252
0.04014687
0.022472293
0.012527343
0.0069578893
0.0038521068
0.0021266787
0.0011714061
0.00064396549
0.0003535307
0.00019384588
0.00010622825
5.8204275e-05
3.1885216e-05
1.7490361e-05
9.5858805e-06
5.2604455e-06
2.8893378e-06
1.5942552e-06
8.8412457e-07
4.8418196e-07
2.6792459e-07
1.4850811e-07
8.0822602e-08
4.6978258e-08
2.5197816e-08
1.4544864e-08
6.8630417e-09
4.3085463e-09
2.1546588e-09
1.0835001e-09
-3.0467854e-11
-6.7492083e-12
9.6855566
5.7812199
3.4216028
2.009102
1.1710534
0.67785039
0.38979533
0.22276635
0.12657379
0.071531116
0.040224063
0.022516592
0.012552601
0.0069721997
0.0038601811
0.0021312342
0.0011739184
0.00064539381
0.0003543113
0.00019428779
0.00010646596
5.832161e-05
3.1963222e-05
1.7524106e-05
9.6022847e-06
5.2778918e-06
2.8979595e-06
1.5976267e-06
8.8392093e-07
4.8816139e-07
2.7195339e-07
1.468128e-07
8.5374904e-08
4.4481616e-08
2.5618333e-08
1.5822103e-08
8.1433662e-09
4.3077749e-09
2.8212727e-09
1.7461106e-09
5.5004194e-10
2.836021e-10
9.7048402
5.790583
3.4270079
2.0123658
1.1730284
0.67903709
0.39050235
0.2231841
0.1268186
0.071673688
0.04030643
0.022563909
0.012579645
0.0069875273
0.0038688635
0.0021361491
0.0011767091
0.00064695917
0.00035516069
0.00019479026
0.00010674668
5.8485205e-05
3.2056305e-05
1.757511e-05
9.6375909e-06
5.2946006e-06
2.9060273e-06
1.5977179e-06
8.7914916e-07
4.8803798e-07
2.7246336e-07
1.4893247e-07
8.5426571e-08
4.7028381e-08
2.5113754e-08
1.5817475e-08
8.1418235e-09
4.9960657e-09
2.1538875e-09
1.7232767e-09
-5.6067702e-10
-1.003471e-09
9.7212391
5.8002351
3.4326766
2.0157906
1.175102
0.68028419
0.39124622
0.22362431
0.12707705
0.071824274
0.040393659
0.022614083
0.012608354
0.0070039163
0.0038781458
0.0021413653
0.0011796318
0.00064859032
0.00035607844
0.00019530191
0.00010703601
5.8648508e-05
3.2132683e-05
1.7617976e-05
9.6721588e-06
5.302488e-06
2.9238261e-06
1.606507e-06
8.7986295e-07
4.8373845e-07
2.7188782e-07
1.5346317e-07
8.5328624e-08
4.9101012e-08
2.5679256e-08
1.2213569e-08
1.0064e-08
6.6267287e-09
4.9368742e-10
2.244134e-09
2.2996081e-10
1.2356154e-10
9.7380585
5.8109463
3.4390853
2.0196739
1.1774546
0.68170017
0.39209159
0.22412489
0.1273713
0.071995939
0.040493121
0.022671398
0.012641138
0.0070225767
0.0038887365
0.0021473486
0.001182997
0.00065045811
0.00035713187
0.000195877
0.00010736839
5.8825137e-05
3.2243095e-05
1.7676818e-05
9.6873364e-06
5.3241314e-06
2.9271044e-06
1.6102534e-06
8.8368194e-07
4.9337075e-07
2.6763457e-07
1.4884299e-07
8.5377205e-08
4.6430483e-08
2.9743948e-08
1.4529437e-08
1.0062457e-08
6.2740762e-09
1.6314875e-09
1.8690333e-09
3.7610308e-10
2.6999306e-10
16.208558
9.7582613
5.8229292
3.4463017
2.0240591
1.180114
0.68330187
0.39304846
0.22469203
0.12770484
0.072190721
0.040606084
0.022736458
0.012678411
0.0070438426
0.0039007475
0.0021541292
0.0011868192
0.00065259962
0.00035835776
0.00019654953
0.00010774233
5.9047924e-05
3.2354588e-05
1.773551e-05
9.7216923e-06
5.3459963e-06
2.9368272e-06
1.6189068e-06
8.9222716e-07
4.9276974e-07
2.7170578e-07
1.5293621e-07
8.0632095e-08
4.3852864e-08
2.5089071e-08
1.5805134e-08
1.1101086e-08
4.3039182e-09
2.1515734e-09
2.2437483e-09
-3.0853524e-11
-6.8456255e-12
16.250939
9.7809382
5.8362777
3.4543839
2.0289841
1.183104
0.68510388
0.39412581
0.22533108
0.12808087
0.072410453
0.040733588
0.022809947
0.012720578
0.0070679124
0.003914378
0.0021618637
0.0011911549
0.00065504848
0.00035971737
0.00019729573
0.00010816742
5.9275309e-05
3.2480374e-05
1.7803071e-05
9.7731772e-06
5.3620556e-06
2.9584165e-06
1.6326683e-06
8.9741879e-07
4.9307068e-07
2.756883e-07
1.5330273e-07
8.9387903e-08
4.4406025e-08
2.5651488e-08
1.4518639e-08
9.4113493e-09
3.949723e-09
2.1508021e-09
1.2237106e-09
2.8884194e-10
1.2346512e-10
26.849026
16.295188
9.8057624
5.8510469
3.4633809
2.0344814
1.1864457
0.68711958
0.39533179
0.22604666
0.12850238
0.072656903
0.040876773
0.022892586
0.012767983
0.0070948961
0.0039297451
0.0021705316
0.0011960512
0.00065780277
0.00036124725
0.0001981744
0.00010862523
5.9540122e-05
3.26343e-05
1.7898593e-05
9.8247587e-06
5.3973741e-06
2.9710988e-06
1.6319525e-06
9.0588071e-07
5.0164137e-07
2.8075945e-07
1.5323177e-07
8.4776979e-08
4.6373404e-08
2.514228e-08
1.4512468e-08
9.6680632e-09
4.3000615e-09
1.1307643e-09
5.8316264e-10
-3.1239193e-11
-6.8456255e-12
26.925092
16.341107
9.8326199
5.8672815
3.4733345
2.0405804
1.1901581
0.68936101
0.39667377
0.22684377
0.12897221
0.072931732
0.041036432
0.022984782
0.012820895
0.0071251375
0.0039469132
0.0021802551
0.0012014877
0.00066086136
0.00036294526
0.00019913343
0.00010916954
5.9827801e-05
3.2804199e-05
1.7982952e-05
9.8576035e-06
5.4169107e-06
2.9789306e-06
1.6399277e-06
9.0447581e-07
5.0139146e-07
2.7126228e-07
1.5273258e-07
8.7294433e-08
4.4838507e-08
2.5626805e-08
1.5003164e-08
9.6649779e-09
4.2985189e-09
1.6508503e-09
1.2229392e-09
2.8884194e-10
1.2327229e-10
44.102578
27.004596
16.389072
9.8615423
5.8850271
3.4842819
2.0473064
1.1942587
0.69183938
0.39815907
0.22772664
0.12949284
0.073236622
0.041213712
0.023087169
0.012879684
0.0071587028
0.003965999
0.0021910669
0.0012075723
0.00066429616
0.00036484764
0.00020020495
0.00010977272
6.015822e-05
3.2991495e-05
1.8084397e-05
9.9266999e-06
5.456752e-06
3.0000447e-06
1.6488866e-06
9.0542883e-07
5.067304e-07
2.7577328e-07
1.526431e-07
8.4617325e-08
4.4240609e-08
2.5039705e-08
1.4996993e-08
1.0442265e-08
3.7977957e-09
1.7966069e-09
1.720577e-09
-3.1624862e-11
-6.9420428e-12
44.233617
27.086528
16.43943
9.8926206
5.9043308
3.4962556
2.0546825
1.1987627
0.69456502
0.39979416
0.22869945
0.13006716
0.073573087
0.041409483
0.023200329
0.012944697
0.0071958582
0.003987111
0.0022029593
0.0012143398
0.00066804836
0.00036699169
0.00020138489
0.00011042796
6.0532798e-05
3.3195915e-05
1.8204292e-05
9.975995e-06
5.4906526e-06
3.0173114e-06
1.6664571e-06
9.178239e-07
5.0079907e-07
2.8079197e-07
1.5088917e-07
7.9917711e-08
4.6794679e-08
2.5099085e-08
1.4490871e-08
1.0936046e-08
3.7954817e-09
4.8751672e-10
1.8891675e-09
5.4888493e-10
1.3958589e-10
71.796486
44.36999
27.171361
16.492537
9.9259624
5.9252379
3.5092842
2.0627289
1.2036845
0.69754752
0.4015854
0.22976634
0.13069735
0.073942661
0.041624617
0.023324813
0.013016253
0.0072367332
0.0040103775
0.0022161496
0.0012217477
0.00067224993
0.00036933722
0.00020270353
0.00011115846
6.0932532e-05
3.3416329e-05
1.8331003e-05
1.0052155e-05
5.5330646e-06
3.0333229e-06
1.6689416e-06
9.2699648e-07
5.1024316e-07
2.8052742e-07
1.5758504e-07
8.4576431e-08
4.1691517e-08
3.0149796e-08
1.4480072e-08
8.6078365e-09
3.791625e-09
1.647765e-09
1.7422539e-09
5.4849926e-10
-6.9420428e-12
72.013165
44.509268
27.259549
16.548692
9.9616642
5.9477867
3.5233913
2.071463
1.2090366
0.70079542
0.40353858
0.23093066
0.13138606
0.074346767
0.041860155
0.023461125
0.013094654
0.0072816418
0.0040358891
0.0022306482
0.0012299223
0.00067683947
0.00037189482
0.00020412043
0.00011194665
6.1392988e-05
3.3653294e-05
1.8458433e-05
1.0130061e-05
5.562581e-06
3.0683397e-06
1.6826277e-06
9.3041438e-07
5.1396034e-07
2.8455774e-07
1.6203861e-07
8.4936784e-08
4.6301656e-08
2.4987254e-08
1.511421e-08
1.0923705e-08
3.9358389e-09
2.1438601e-09
1.7410969e-09
5.4811359e-10
2.9953004e-10
115.80013
72.23669
44.652044
27.351576
16.608121
9.9997983
5.9720052
3.538595
2.0808985
1.2148295
0.70431643
0.40565887
0.23219637
0.13213527
0.07478691
0.04211684
0.02360985
0.013180284
0.0073306614
0.0040638341
0.0022464743
0.0012388472
0.00068183395
0.00037471516
0.00020570094
0.00011284119
6.1867573e-05
3.3933001e-05
1.8629671e-05
1.0214687e-05
5.6222995e-06
3.08443e-06
1.6901454e-06
9.3948209e-07
5.1824306e-07
2.8895231e-07
1.5942473e-07
8.4939085e-08
4.4678069e-08
2.5038921e-08
1.2633302e-08
9.8773622e-09
3.7862257e-09
1.0045174e-09
1.3663818e-09
1.1286234e-09
-8.5742517e-10
116.14966
72.461565
44.798795
27.44782
16.670967
10.040405
5.9979085
3.5549067
2.0910461
1.221072
0.70811725
0.40795086
0.23356629
0.13294723
0.075264381
0.042395514
0.023771414
0.013273359
0.007383976
0.0040942203
0.0022637088
0.0012486045
0.00068732667
0.00037779169
0.00020741963
0.00011380093
6.2403994e-05
3.4231335e-05
1.8781376e-05
1.0318085e-05
5.6691039e-06
3.1097205e-06
1.7263279e-06
9.4332974e-07
5.1828484e-07
2.8919772e-07
1.5663078e-07
8.8934356e-08
5.3848224e-08
2.5015781e-08
1.4944542e-08
8.0909152e-09
4.2807781e-09
1.5006125e-09
1.0993919e-09
-4.2519379e-11
1.3929664e-10
116.46464
72.686834
44.950085
27.548527
16.737294
10.083492
6.0254971
3.5723298
2.1019112
1.2277696
0.71220265
0.41041842
0.23504305
0.13382368
0.075780289
0.042697037
0.023946415
0.013374252
0.0074417976
0.0041271762
0.002282419
0.0012591759
0.00069329074
0.00038114043
0.00020928851
0.00011484656
6.298136e-05
3.4572747e-05
1.8968913e-05
1.0420121e-05
5.7191449e-06
3.1439853e-06
1.7283919e-06
9.5122474e-07
5.2650766e-07
2.8842163e-07
1.6370243e-07
9.1429805e-08
5.0742886e-08
2.54147e-08
1.4930658e-08
8.581611e-09
3.7777409e-09
2.139232e-09
1.715949e-09
1.127852e-09
-8.7393161e-10
116.76889
72.91517
45.106533
27.653807
16.807087
10.129032
6.0547543
3.5908595
2.1134949
1.2349262
0.71657611
0.41306463
0.23662921
0.13476607
0.076335776
0.043021941
0.024135143
0.01348318
0.0075042953
0.0041628703
0.0023026992
0.0012706308
0.0006997495
0.00038477033
0.00021131916
0.00011599396
6.3636665e-05
3.489282e-05
1.9155497e-05
1.0521501e-05
5.7877978e-06
3.1733803e-06
1.7554584e-06
9.6875899e-07
5.3070626e-07
2.9783874e-07
1.6567133e-07
8.8758491e-08
5.332589e-08
2.9605865e-08
1.3283026e-08
9.6156122e-09
4.271522e-09
2.136918e-09
1.0974636e-09
1.1274664e-09
-7.4241291e-12
185.67487
117.10975
73.150902
45.268582
27.763615
16.880254
10.176958
6.0856452
3.6104797
2.1257921
1.2425406
0.72123915
0.41589091
0.23832601
0.1357758
0.076931678
0.043370915
0.024338083
0.01360046
0.0075716362
0.0042013364
0.0023245031
0.0012830043
0.00070671735
0.0003886778
0.00021351077
0.00011721773
6.4334538e-05
3.5284545e-05
1.9366964e-05
1.0640527e-05
5.8518148e-06
3.225703e-06
1.7768055e-06
9.7706522e-07
5.4453258e-07
2.9701636e-07
1.608483e-07
8.9155084e-08
5.1209657e-08
2.950329e-08
1.5825162e-08
1.05348e-08
4.2676653e-09
1.6354236e-09
1.8829968e-09
1.3026247e-10
2.6922172e-10
186.19106
117.46087
73.393258
45.436029
27.877713
16.956621
10.227165
6.1181132
3.6311636
2.1387908
1.2506093
0.72619079
0.41889808
0.24013444
0.13685359
0.077568609
0.043744434
0.024555502
0.0137262
0.0076439245
0.0042426725
0.0023480273
0.0012963302
0.00071423003
0.000392911
0.00021588137
0.00011853457
6.5056145e-05
3.5711057e-05
1.9597311e-05
1.0758572e-05
5.9236534e-06
3.2549254e-06
1.7933393e-06
9.9033309e-07
5.5310881e-07
3.0652138e-07
1.678004e-07
9.3688089e-08
5.1149492e-08
2.9544158e-08
1.5026278e-08
8.0569763e-09
3.7646282e-09
1.6331095e-09
2.2341066e-09
1.2728373e-09
1.524236e-10
455.96825
293.0773
186.7176
117.81594
73.640618
45.608191
27.99568
17.035928
10.279508
6.1520796
3.6528701
2.1524716
1.2591232
0.73142781
0.42208494
0.24205458
0.13799976
0.078247005
0.044142763
0.024787672
0.013860662
0.0077212925
0.0042869463
0.0023732675
0.0013106061
0.00072232195
0.00039744025
0.00021844104
0.00011995396
6.5853224e-05
3.6152162e-05
1.9844635e-05
1.0912413e-05
5.9964266e-06
3.3025745e-06
1.8189091e-06
1.0024869e-06
5.5192236e-07
3.0556404e-07
1.6965284e-07
9.3148786e-08
5.10847e-08
3.0005543e-08
1.6141562e-08
9.0894349e-09
3.7600002e-09
1.4890424e-09
1.0939926e-09
9.5237051e-10
-7.7133809e-12
703.5974
456.86067
293.83085
187.2226
118.16882
73.890886
45.784034
28.116918
17.117833
10.333791
6.187438
3.6755434
2.1668055
1.2680681
0.73694368
0.42544898
0.24408547
0.13921434
0.078967053
0.044566183
0.025034801
0.014003886
0.0078038804
0.0043342294
0.0024002238
0.0013259029
0.00073095514
0.00040232729
0.00022117758
0.00012148345
6.6704224e-05
3.6627893e-05
2.0106309e-05
1.1056107e-05
6.0759203e-06
3.3488202e-06
1.8443917e-06
1.0156367e-06
5.6097153e-07
3.0572844e-07
1.7720093e-07
9.6081345e-08
5.5159406e-08
2.9395303e-08
1.6661727e-08
1.0503946e-08
4.3987665e-09
3.8079962e-09
1.7101639e-09
1.1251524e-09
1.2250095e-10
704.54166
457.63833
294.47344
187.69617
118.51515
74.141755
45.962247
28.240669
17.201899
10.38977
6.2240529
3.6991102
2.1817539
1.2774244
0.7427284
0.42898541
0.24622496
0.14049629
0.079728361
0.045014621
0.025296991
0.014156111
0.0078916282
0.004384593
0.0024289637
0.0013422561
0.00074020174
0.00040753744
0.00022410901
0.00012314116
6.7621992e-05
3.7137921e-05
2.0395486e-05
1.1200052e-05
6.1652655e-06
3.3994474e-06
1.8785521e-06
1.0275869e-06
5.6953384e-07
3.1449596e-07
1.7389504e-07
9.7952669e-08
5.0863339e-08
2.9426915e-08
1.9460578e-08
8.5214466e-09
4.2452965e-09
2.9321723e-09
1.5893163e-09
5.442569e-10
-1.0047244e-09
705.15495
458.26895
295.02824
188.13709
118.8515
74.390698
46.141265
28.366011
17.287595
10.447144
6.2617563
3.7234774
2.1972665
1.2871649
0.74876826
0.43268737
0.2484699
0.14184425
0.080530467
0.045487874
0.025574071
0.014317203
0.0079847219
0.0044380618
0.0024594716
0.0013595893
0.00075006185
0.00041307553
0.00022720939
0.00012486513
6.8597789e-05
3.7681356e-05
2.072045e-05
1.1387991e-05
6.2636221e-06
3.4415233e-06
1.8947953e-06
1.0544927e-06
5.8259333e-07
3.1776253e-07
1.8341626e-07
9.7309249e-08
6.0144541e-08
2.9382177e-08
1.7658704e-08
8.5091052e-09
4.2383545e-09
2.7817877e-09
2.2279359e-09
1.1239954e-09
4.2868378e-10
705.50679
458.75711
295.5056
188.54364
119.1741
74.634823
46.319257
28.491855
17.37429
10.50555
6.3003425
3.7485302
2.2132798
1.297256
0.75504513
0.43654553
0.25081546
0.14325596
0.081372133
0.045985464
0.02586601
0.014487185
0.0080830653
0.0044945905
0.0024918705
0.0013780139
0.00076049693
0.00041898381
0.0002305229
0.00012674294
6.9651857e-05
3.8277101e-05
2.1023916e-05
1.1567095e-05
6.365675e-06
3.5011788e-06
1.9382926e-06
1.0714214e-06
5.9562732e-07
3.2486521e-07
1.7841815e-07
1.022913e-07
5.7497502e-08
3.4403578e-08
1.6590764e-08
7.996812e-09
3.732232e-09
3.2771115e-09
1.7055359e-09
1.1236097e-09
2.8205943e-10
705.6159
459.10377
295.90506
188.91108
119.47821
74.870767
46.494108
28.616934
17.46124
10.564558
6.3395655
3.7741293
2.2297162
1.3076546
0.76153585
0.4405475
0.25325536
0.14472796
0.082251948
0.046506647
0.026172212
0.014665872
0.008186608
0.0045542702
0.0025260335
0.0013975288
0.00077152358
0.00042523018
0.00023409664
0.0001287223
7.0756395e-05
3.8888003e-05
2.1382121e-05
1.1762167e-05
6.4763135e-06
3.5698379e-06
1.9630101e-06
1.0877468e-06
5.9457909e-07
3.2896319e-07
1.8441507e-07
1.0011452e-07
5.7380666e-08
3.4425933e-08
1.8885035e-08
1.0449952e-08
4.2229277e-09
3.4142366e-09
1.0862792e-09
1.1228383e-09
2.8186659e-10
705.46928
459.29817
296.21794
189.23168
119.75798
75.09464
46.663399
28.739792
17.547585
10.623666
6.3791348
3.8001088
2.2464821
1.3183084
0.7682119
0.44467798
0.25578119
0.14625626
0.083167587
0.047050407
0.02649245
0.014853022
0.0082952322
0.004616953
0.0025620139
0.0014180601
0.00078320238
0.00043183995
0.00023779941
0.00013084859
7.1947084e-05
3.9569012e-05
2.175638e-05
1.1965757e-05
6.5863101e-06
3.6376345e-06
2.0098357e-06
1.1044473e-06
6.1168123e-07
3.3726734e-07
1.8657541e-07
1.0152059e-07
5.9292101e-08
3.2213704e-08
1.9352591e-08
9.5060822e-09
4.2152143e-09
3.2678554e-09
2.3690645e-09
1.2524878e-10
2.8167376e-10
705.03556
459.31972
296.42994
189.49527
120.00653
75.302021
46.824395
28.858775
17.632337
10.682291
6.4187108
3.8262728
2.2634657
1.329155
0.77503844
0.44891778
0.25838285
0.14783528
0.084116227
0.047615138
0.026825801
0.015048294
0.0084088555
0.0046825545
0.0025997296
0.0014396091
0.00079550921
0.00043880859
0.00024175288
0.00013304943
7.3196914e-05
4.026605e-05
2.2146594e-05
1.2186405e-05
6.7137059e-06
3.6967756e-06
2.0391815e-06
1.1303248e-06
6.2907356e-07
3.4898823e-07
1.8929199e-07
1.0798355e-07
5.9755786e-08
3.2228346e-08
1.7689532e-08
9.4891128e-09
4.2059583e-09
3.4065232e-09
2.3667505e-09
8.6086701e-10
2.8148092e-10
704.27259
459.14103
296.52288
189.68976
120.21601
75.487944
46.974021
28.972009
17.714371
10.739765
6.4579005
3.8523932
2.2805361
1.3401199
0.7819738
0.45324391
0.26104778
0.14945818
0.085094355
0.048199034
0.027171357
0.015251184
0.0085270957
0.0047510876
0.0026391974
0.0014622358
0.00080837241
0.00044612594
0.00024588188
0.00013539513
7.4504913e-05
4.0995604e-05
2.2554357e-05
1.2425375e-05
6.8414321e-06
3.7689284e-06
2.0824052e-06
1.1472829e-06
6.3774861e-07
3.5546251e-07
1.9979801e-07
1.083304e-07
5.907304e-08
3.8394195e-08
1.7746132e-08
9.2108014e-09
6.5187414e-09
3.9003043e-09
1.7194994e-09
-1.9637503e-10
2.8128809e-10
703.13113
458.72997
296.47572
189.80147
120.37764
75.646876
47.108841
29.077388
17.792412
10.795325
6.4962524
3.8782055
2.2975406
1.3511156
0.78896847
0.4576289
0.2637607
0.1511167
0.086097386
0.048799691
0.027527825
0.015461037
0.0086497641
0.0048223055
0.0026802392
0.0014858087
0.00082185372
0.00045379186
0.0002502427
0.00013783233
7.5881581e-05
4.1777867e-05
2.2996227e-05
1.2667271e-05
6.977196e-06
3.8459416e-06
2.1299625e-06
1.1723296e-06
6.4995097e-07
3.5691883e-07
1.9732274e-07
1.1483884e-07
6.4095199e-08
3.3685324e-08
1.7472041e-08
9.6891557e-09
6.1560615e-09
3.4004993e-09
1.8412651e-09
8.5893866e-10
2.8109526e-10
701.55637
458.05051
296.26495
189.81519
120.48169
75.772666
47.225016
29.172544
17.865016
10.8481
6.5332485
3.9034052
2.3143017
1.36204
0.79596444
0.46203974
0.26650337
0.15280089
0.087119899
0.049414149
0.027893715
0.015677046
0.0087762833
0.0048959134
0.002722833
0.001510282
0.00083587811
0.00046178069
0.00025475393
0.00014042749
7.7362965e-05
4.2594031e-05
2.3455524e-05
1.2926614e-05
7.1175551e-06
3.9348777e-06
2.1711486e-06
1.2071921e-06
6.7182965e-07
3.6953891e-07
2.0205488e-07
1.1252401e-07
6.39687e-08
3.3541097e-08
1.9755513e-08
7.8903673e-09
5.9987348e-09
3.8895056e-09
2.2132805e-09
8.5816732e-10
4.2733394e-10
699.48815
457.06295
295.8646
189.71409
120.51737
75.858469
47.318253
29.254819
17.930555
10.897104
6.5682984
3.9276421
2.3306139
1.3727743
0.80289339
0.46643803
0.26925397
0.15449848
0.088155267
0.05003888
0.028266953
0.015898178
0.0089062052
0.0049717548
0.0027668072
0.0015356428
0.00085040803
0.00047009317
0.00025946909
0.00014309465
7.8855006e-05
4.3443467e-05
2.3949026e-05
1.319861e-05
7.2742062e-06
4.010548e-06
2.2177694e-06
1.2329887e-06
6.8389008e-07
3.7346948e-07
2.1248993e-07
1.143637e-07
6.3903123e-08
3.3540312e-08
2.0213812e-08
1.0190809e-08
6.4863452e-09
3.7632586e-09
1.711786e-09
1.117439e-09
4.2723752e-10
696.86051
455.72352
295.24593
189.4795
120.47266
75.896636
47.383737
29.321213
17.987182
10.941214
6.6007248
3.9505129
2.34624
1.38318
0.80967536
0.47077761
0.27198656
0.15619508
0.08919532
0.050669244
0.028645251
0.016123038
0.0090388503
0.0050493651
0.0028119152
0.0015617147
0.00086539832
0.0004786678
0.00026436441
0.00014588279
8.0428011e-05
4.4345312e-05
2.4441672e-05
1.3483085e-05
7.4364007e-06
4.100306e-06
2.263712e-06
1.2583039e-06
6.9163018e-07
3.8442432e-07
2.125988e-07
1.1924702e-07
6.5753258e-08
3.8030908e-08
2.0952533e-08
1.1209384e-08
6.4740038e-09
3.378755e-09
1.8559999e-09
1.116282e-09
3.6044062e-10
693.60049
453.98361
294.3769
189.0905
120.33406
75.878542
47.416015
29.368318
18.032788
10.97914
6.6297474
3.9715507
2.3609033
1.3930944
0.81621616
0.47500467
0.27467053
0.15787312
0.090230376
0.051300023
0.029025478
0.016350045
0.0091732087
0.0051282571
0.0028579409
0.0015883998
0.00088079926
0.00048749733
0.00026942249
0.0001487373
8.2040771e-05
4.5262161e-05
2.4968489e-05
1.3776582e-05
7.6017137e-06
4.2035253e-06
2.3197606e-06
1.2834348e-06
7.1436295e-07
3.9501144e-07
2.2090415e-07
1.1848327e-07
6.7758769e-08
3.7950688e-08
2.1404662e-08
1.2463483e-08
5.9632533e-09
3.3725843e-09
2.2047958e-09
7.9465817e-10
-7.1659073e-10
689.62622
451.78846
293.2213
188.52338
120.08621
75.794343
47.408846
29.392215
18.064943
11.009388
6.6544592
3.9902097
2.3742784
1.4023262
0.82240362
0.47905417
0.27726853
0.15951159
0.091248436
0.051924406
0.029404082
0.016577203
0.0093082432
0.0052078871
0.0029045813
0.0016155271
0.00089646917
0.00049652228
0.00027457907
0.00015169482
8.3753075e-05
4.6214433e-05
2.5513311e-05
1.4073429e-05
7.7802112e-06
4.2915645e-06
2.3750763e-06
1.3176509e-06
7.3126162e-07
4.0133027e-07
2.2497205e-07
1.2284349e-07
6.7525067e-08
3.7864299e-08
2.0856887e-08
1.1897037e-08
6.4477783e-09
2.8712366e-09
1.7040726e-09
9.9968156e-10
2.1473467e-10
684.84368
449.07504
291.7373
187.75071
119.71129
75.632581
47.35494
29.388319
18.08079
11.030198
6.6737857
4.0058411
2.3859777
1.4106455
0.82810308
0.48284777
0.27973528
0.16108459
0.092234955
0.052534277
0.029776342
0.016801954
0.0094425859
0.0052875184
0.002951355
0.0016428214
0.00091230861
0.00050567388
0.00027983088
0.00015472219
8.5469757e-05
4.7190821e-05
2.6055815e-05
1.4383165e-05
7.950416e-06
4.3880726e-06
2.4300975e-06
1.3426267e-06
7.4774053e-07
4.1432456e-07
2.291618e-07
1.3183546e-07
7.2008707e-08
3.7771738e-08
1.8487025e-08
1.137086e-08
5.9354851e-09
3.2169471e-09
2.1986251e-09
1.1120396e-09
2.1454183e-10
679.14157
445.76858
289.87523
186.73983
119.18805
75.379579
47.245583
29.351134
18.076898
11.039449
6.6864298
4.0176585
2.395529
1.4177715
0.8331491
0.48628894
0.28201486
0.16255996
0.093171566
0.053119202
0.030136463
0.01702097
0.0095743617
0.0053660244
0.0029977702
0.0016700702
0.00092819416
0.00051487914
0.00028516202
0.00015775586
8.7200152e-05
4.8186077e-05
2.6616672e-05
1.4701711e-05
8.1327873e-06
4.5043692e-06
2.4846363e-06
1.3803139e-06
7.6508745e-07
4.2678341e-07
2.3582042e-07
1.2738434e-07
7.1839012e-08
4.0331195e-08
2.2843128e-08
1.1340006e-08
6.4184674e-09
3.8773903e-09
2.1947684e-09
1.1108826e-09
2.7926333e-10
672.38337
441.77738
287.57415
185.45064
118.49041
75.018521
47.070049
29.273885
18.049032
11.03452
6.6907834
4.0246859
2.4023449
1.423354
0.83733461
0.48925613
0.28403688
0.16389711
0.094034992
0.053665874
0.030477004
0.017230165
0.0097013092
0.0054422581
0.0030431017
0.001696803
0.0009438543
0.00052396952
0.00029045668
0.00016081378
8.896152e-05
4.9188514e-05
2.7195087e-05
1.5042879e-05
8.3105491e-06
4.6024451e-06
2.5496709e-06
1.4101649e-06
7.8138819e-07
4.3557649e-07
2.4240537e-07
1.3379405e-07
7.1660062e-08
3.7577361e-08
2.430344e-08
1.2852362e-08
5.9046316e-09
3.200749e-09
1.5507494e-09
7.892588e-10
-7.1794057e-10
664.39504
436.98469
284.75654
183.8322
117.58519
74.528047
46.814711
29.147966
17.991807
11.012074
6.6847987
4.0256774
2.405675
1.4269447
0.84039412
0.49159361
0.28571022
0.16504343
0.094795108
0.054157424
0.030788316
0.017424029
0.0098203352
0.0055144032
0.0030864458
0.0017225706
0.00095907799
0.00053289395
0.00029563016
0.00016378528
9.0694614e-05
5.0192257e-05
2.7755001e-05
1.5365044e-05
8.5027681e-06
4.7169988e-06
2.6086475e-06
1.453981e-06
8.0745699e-07
4.5047337e-07
2.4861107e-07
1.3603074e-07
7.6119019e-08
4.2614946e-08
2.3469074e-08
1.1190845e-08
5.8892048e-09
4.3540552e-09
1.6886459e-09
5.2728746e-10
-5.064983e-10
654.94701
431.23679
281.32048
181.81763
116.42894
73.880185
46.461743
28.962121
17.898184
10.967751
6.6657992
4.0190051
2.4045373
1.4279567
0.8419798
0.49309675
0.28691596
0.16592997
0.095412259
0.054570772
0.031057417
0.017595277
0.0099273983
0.0055803178
0.0031264892
0.0017466363
0.00097337544
0.00054137582
0.00030059196
0.00016671303
9.236679e-05
5.11522e-05
2.8334403e-05
1.5683764e-05
8.6940096e-06
4.8097699e-06
2.6679822e-06
1.4837032e-06
8.2463192e-07
4.5929652e-07
2.5002885e-07
1.3984319e-07
8.1149649e-08
4.2589479e-08
2.2912043e-08
1.2292245e-08
7.4123591e-09
2.6869131e-09
1.6847892e-09
1.2527825e-09
1.9808604e-10
643.72778
424.32572
277.12842
179.3168
114.9632
73.037369
45.987231
28.701273
17.758745
10.895719
6.6302077
4.0024937
2.3976206
1.4256063
0.84162692
0.49349229
0.28749432
0.16646421
0.095833303
0.054875912
0.031267224
0.01773435
0.010017022
0.0056368813
0.0031615683
0.0017681016
0.0009863891
0.00054912527
0.00030521776
0.00016943233
9.395668e-05
5.2077e-05
2.8859702e-05
1.6002713e-05
8.8728613e-06
4.9153679e-06
2.7316495e-06
1.516742e-06
8.4139404e-07
4.696376e-07
2.5873696e-07
1.467147e-07
8.0392855e-08
4.4564921e-08
2.2853421e-08
1.5862213e-08
6.0017939e-09
3.3178193e-09
1.657713e-09
-4.7261612e-10
2.7791349e-10
630.30729
415.96536
271.9915
176.20625
113.10799
71.948301
45.358575
28.344893
17.56068
10.788059
6.5731702
3.9731942
2.3831487
1.4188322
0.83870667
0.49241049
0.28722957
0.16652125
0.095986201
0.055031658
0.031394344
0.017827985
0.01008186
0.0056800184
0.0031894076
0.0017856945
0.00099730206
0.00055582377
0.0003092534
0.00017182733
9.5402108e-05
5.2927404e-05
2.9367128e-05
1.6291871e-05
9.0423661e-06
5.0228021e-06
2.7872053e-06
1.5555363e-06
8.5828497e-07
4.7990273e-07
2.7002691e-07
1.4839165e-07
8.2835476e-08
4.5480544e-08
2.7438878e-08
1.4549492e-08
7.7635581e-09
2.6699437e-09
1.6770758e-09
9.8965417e-10
2.7752782e-10
614.08693
405.76018
265.64918
172.3159
110.75335
70.542528
44.531059
27.864862
17.286467
10.633947
6.488061
3.9270852
2.358701
1.4061894
0.83236331
0.48934852
0.28582865
0.16593126
0.095773401
0.054982164
0.031407128
0.017858255
0.010111911
0.0057041194
0.0032069502
0.0017976939
0.0010052132
0.00056086919
0.00031243175
0.00017382622
9.6610057e-05
5.3658414e-05
2.9804635e-05
1.6542492e-05
9.1866932e-06
5.0979795e-06
2.8385578e-06
1.575927e-06
8.8393019e-07
4.9038495e-07
2.7617787e-07
1.5272411e-07
8.5235279e-08
4.6417357e-08
2.624646e-08
1.4521724e-08
7.1001089e-09
3.8217072e-09
2.1708569e-09
2.5133625e-10
2.7714215e-10
594.23496
393.16775
257.74507
167.41332
107.74912
68.723947
43.443746
27.222892
16.912266
10.418674
6.3658815
3.8587092
2.3209952
1.38572
0.82143795
0.4836257
0.2828945
0.16446446
0.095062875
0.054652021
0.03126276
0.017801128
0.01009359
0.0057016389
0.0032099064
0.0018017889
0.0010088328
0.00056365846
0.00031439659
0.00017510618
9.7451579e-05
5.4203211e-05
3.0140248e-05
1.6759647e-05
9.3184095e-06
5.1843248e-06
2.8901269e-06
1.6058967e-06
8.9485736e-07
4.9664018e-07
2.7831463e-07
1.5555406e-07
8.6647519e-08
4.864375e-08
2.550109e-08
1.44847e-08
8.6248059e-09
4.3333085e-09
1.1477338e-09
5.1880274e-10
2.1164931e-10
569.62711
377.46239
247.80344
161.18833
103.8949
66.364328
42.015345
26.367924
16.406296
10.122631
6.1946399
3.7607946
2.2656586
1.3548158
0.80438732
0.47433578
0.27789879
0.16181517
0.093678882
0.053940884
0.030904213
0.017624399
0.010008879
0.0056625138
0.0031927386
0.0017948798
0.0010064955
0.00056318162
0.00031459894
0.00017548995
9.7798833e-05
5.4474511e-05
3.0321312e-05
1.6895867e-05
9.403749e-06
5.2348827e-06
2.9234744e-06
1.6266344e-06
9.0957179e-07
5.1039743e-07
2.850018e-07
1.5737215e-07
8.6487081e-08
4.8973249e-08
2.5445554e-08
1.3561745e-08
8.6062938e-09
4.4481321e-09
2.3096715e-09
1.0977699e-09
1.9635053e-10
804.7452
539.06232
357.74003
235.21864
153.24508
98.934799
63.2998
40.141883
25.234593
15.727834
9.7206755
5.9589469
3.624002
2.187071
1.3101219
0.77922437
0.46031089
0.27016039
0.15758859
0.091394201
0.05271893
0.030257833
0.017286439
0.0098343362
0.0055736355
0.0031482079
0.001772981
0.0009959669
0.00055827026
0.00031237989
0.00017456405
9.7459296e-05
5.4372634e-05
3.0326691e-05
1.6911366e-05
9.4421436e-06
5.2603036e-06
2.9408082e-06
1.6397789e-06
9.1543889e-07
5.1449231e-07
2.8680676e-07
1.5923344e-07
8.8918145e-08
4.847097e-08
2.7721313e-08
1.4429164e-08
8.0940006e-09
3.7954817e-09
2.1585155e-09
9.2267399e-10
2.7598514e-10
1102.2036
746.39781
500.79091
332.90738
219.27705
143.11751
92.566755
59.336345
37.699895
23.745051
14.828243
9.1826885
5.640316
3.4370823
2.078444
1.2475754
0.74353665
0.44012946
0.25884774
0.15130204
0.087930433
0.050826637
0.0292327
0.016735835
0.0095411319
0.0054188486
0.0030672709
0.0017310504
0.00097445438
0.00054739251
0.00030694051
0.00017190409
9.6166985e-05
5.3778469e-05
3.0055183e-05