/*--------------------------------*- C++ -*----------------------------------*\
| =========                 |                                                 |
| \\      /  F ield         | OpenFOAM: The Open Source CFD Toolbox           |
|  \\    /   O peration     | Version:  2312                                  |
|   \\  /    A nd           | Website:  www.openfoam.com                      |
|    \\/     M anipulation  |                                                 |
\*---------------------------------------------------------------------------*/
FoamFile
{
    version     2.0;
    format      ascii;
    arch        "LSB;label=32;scalar=64";
    class       volScalarField;
    location    "0.03";
    object      T;
}
// * * * * * * * * * * * * * * * * * * * * * * * * * * * * * * * * * * * * * //

dimensions      [0 0 0 1 0 0 0];

internalField   nonuniform List<scalar> 
3224
(
486.2326
479.63507
473.09635
466.62361
460.2235
453.90225
447.66566
441.51913
435.46759
429.51552
423.66691
417.92533
412.29386
406.77515
401.37141
396.08445
390.91568
385.86614
380.93652
376.12717
371.43817
366.86929
362.42006
358.08977
353.8775
349.78216
345.80246
341.93698
338.18416
334.5423
331.00962
327.58422
324.26411
321.04724
317.93152
314.91481
311.99499
309.16997
306.43773
303.79636
301.24403
486.23739
479.63916
473.09977
466.62656
460.22611
453.90459
447.66779
441.52107
435.46936
429.51714
423.6684
417.92669
412.2951
406.77627
401.37243
396.08537
390.9165
385.86687
380.93716
376.12774
371.43866
366.86971
362.42041
358.09006
353.87774
349.78235
345.80261
341.93709
338.18423
334.54235
331.00964
327.58421
324.26409
321.04721
317.93147
314.91476
311.99493
309.16991
306.43768
303.79632
301.24402
486.2368
479.63801
473.09833
466.62501
460.22453
453.90304
447.66629
441.51964
435.46801
429.51587
423.66721
417.92558
412.29406
406.7753
401.37152
396.08452
390.91571
385.86613
380.93647
376.12709
371.43806
366.86915
362.41989
358.08957
353.87729
349.78192
345.80221
341.93672
338.18389
334.54204
331.00936
327.58396
324.26385
321.047
317.93129
314.91459
311.99479
309.1698
306.4376
303.79628
301.24401
486.23074
479.63167
473.09214
466.61906
460.21887
453.89769
447.66127
441.51494
435.46363
429.51179
423.66343
417.92208
412.29082
406.77231
401.36877
396.08199
390.91338
385.86399
380.93451
376.1253
371.43642
366.86765
362.41852
358.08833
353.87616
349.78091
345.8013
341.9359
338.18316
334.54139
331.00879
327.58346
324.26342
321.04662
317.93097
314.91433
311.99458
309.16964
306.43749
303.79622
301.24399
492.86971
486.21866
479.62022
473.0813
466.60883
460.20926
453.88868
447.65284
441.50709
435.45633
429.50502
423.65715
417.91628
412.28547
406.76739
401.36424
396.07783
390.90958
385.86051
380.93133
376.12241
371.43379
366.86526
362.41636
358.08638
353.87441
349.77934
345.79989
341.93466
338.18206
334.54042
331.00794
327.58272
324.26279
321.04609
317.93053
314.91397
311.9943
309.16943
306.43735
303.79614
301.24397
492.85068
486.20207
479.60474
473.0668
466.59524
460.19654
453.8768
447.64176
441.49678
435.44676
429.49615
423.64895
417.9087
412.27849
406.76097
401.35835
396.07243
390.90464
385.85601
380.92723
376.11867
371.4304
366.8622
362.4136
358.0839
353.87218
349.77734
345.79812
341.93309
338.18068
334.53921
331.00689
327.58182
324.26202
321.04544
317.92999
314.91353
311.99396
309.16918
306.43718
303.79604
301.24394
492.82906
486.18207
479.58612
473.04943
466.57901
460.18138
453.86266
447.6286
441.48454
435.4354
429.48563
423.63923
417.89973
412.27023
406.75338
401.35138
396.06605
390.89881
385.85069
380.92239
376.11428
371.42643
366.85861
362.41036
358.08099
353.86957
349.77502
345.79606
341.93126
338.17908
334.53781
331.00568
327.58078
324.26113
321.0447
317.92937
314.91304
311.99357
309.16889
306.43698
303.79593
301.24391
492.80264
486.15716
479.56296
473.02786
466.55891
460.16264
453.84519
447.61235
441.46945
435.4214
429.47267
423.62725
417.88869
412.26006
406.74403
401.34282
396.05822
390.89165
385.84417
380.91646
376.1089
371.42156
366.85421
362.40641
358.07744
353.8664
349.77219
345.79355
341.92905
338.17713
334.53612
331.00421
327.57952
324.26006
321.0438
317.92864
314.91244
311.9931
309.16854
306.43674
303.79579
301.24386
499.45688
492.77022
486.12701
479.53496
473.00183
466.53466
460.14005
453.82416
447.59279
441.45129
435.40457
429.4571
423.61287
417.87542
412.24786
406.73283
401.33254
396.04882
390.88308
385.83636
380.90937
376.10247
371.41574
366.84896
362.40168
358.0732
353.86262
349.76882
345.79056
341.92642
338.17482
334.53411
331.00247
327.57803
324.2588
321.04274
317.92776
314.91173
311.99255
309.16812
306.43645
303.79562
301.2438
499.41436
492.73164
486.09129
479.50183
472.97103
466.506
460.11336
453.79933
447.56971
441.42987
435.38472
429.43873
423.59591
417.8598
412.23349
406.71963
401.32045
396.03776
390.87299
385.82718
380.90102
376.09491
371.40891
366.84281
362.39615
358.06825
353.85819
349.76489
345.78708
341.92334
338.17213
334.53176
331.00045
327.57629
324.25733
321.04151
317.92675
314.91091
311.9919
309.16764
306.43611
303.79542
301.24373
506.07479
499.36545
492.68669
486.04969
479.46325
472.93516
466.47262
460.0823
453.77044
447.54287
441.40496
435.36165
429.41739
423.57621
417.84165
412.21679
406.70431
401.30642
396.02494
390.86129
385.81653
380.89136
376.08616
371.401
366.83569
362.38976
358.06252
353.85308
349.76035
345.78306
341.91981
338.16903
334.52907
330.99812
327.5743
324.25565
321.0401
317.92559
314.90998
311.99117
309.16708
306.43572
303.79518
301.24365
506.01509
499.30968
492.63511
486.00191
479.41888
472.89391
466.43423
460.04658
453.73722
447.51201
441.37634
435.33514
429.39289
423.55359
417.82081
412.19764
406.68674
401.29033
396.01024
390.84789
385.80434
380.8803
376.07615
371.39196
366.82755
362.38245
358.05598
353.84725
349.75517
345.77849
341.91578
338.16551
334.52601
330.99548
327.57205
324.25374
321.03851
317.92427
314.90892
311.99033
309.16645
306.43528
303.79491
301.24356
512.6695
505.94777
499.24666
492.57659
485.94758
479.36839
472.84694
466.39051
460.0059
453.6994
447.47689
441.34377
435.30498
429.36501
423.52787
417.79712
412.17587
406.66676
401.27205
395.99354
390.83268
385.79051
380.86775
376.0648
371.38172
366.81833
362.37418
358.04859
353.84067
349.74933
345.77333
341.91125
338.16155
334.52257
330.99252
327.56951
324.25159
321.03672
317.9228
314.90773
311.9894
309.16575
306.43479
303.79461
301.24345
512.58968
505.87233
499.17597
492.51077
485.88635
479.31141
472.79389
466.34113
459.95995
453.65668
447.43722
441.30698
435.27093
429.33354
423.49884
417.77039
412.15131
406.64424
401.25144
395.97473
390.81554
385.77493
380.85363
376.05203
371.37021
366.80798
362.36491
358.0403
353.83329
349.74279
345.76755
341.90618
338.15712
334.51873
330.98921
327.5667
324.24922
321.03474
317.92117
314.90642
311.98837
309.16498
306.43424
303.79428
301.24333
519.22425
512.50072
505.7883
499.09717
492.43722
485.8178
479.24755
472.7344
466.28573
459.90839
453.60875
447.39272
441.26572
435.23274
429.29825
423.4663
417.74044
412.12379
406.61902
401.22837
395.95367
390.79636
385.75751
380.83785
376.03776
371.35735
366.79643
362.35456
358.03107
353.82508
349.73551
345.76114
341.90055
338.15222
334.51448
330.98556
327.56358
324.24659
321.03255
317.91938
314.90498
311.98725
309.16413
306.43365
303.79392
301.2432
519.12029
512.40207
505.69519
499.00977
492.35549
485.74152
479.1764
472.66808
466.22394
459.85088
453.55529
447.34308
441.21971
435.19015
429.25891
423.43002
417.70705
412.09313
406.59092
401.20267
395.93022
390.77502
385.73814
380.8203
376.02191
371.34307
366.78361
362.34308
358.02083
353.81598
349.72746
345.75404
341.89433
338.1468
334.50979
330.98153
327.56016
324.24371
321.03016
317.91743
314.90341
311.98603
309.16322
306.43301
303.79354
301.24307
525.71915
519.0055
512.29321
505.59245
498.91326
492.26511
485.65704
479.09752
472.5945
466.15538
459.78705
453.49594
447.28798
441.16863
435.14289
429.21525
423.38977
417.67002
412.05912
406.55976
401.17419
395.90425
390.75138
385.71668
380.80088
376.00438
371.32729
366.76944
362.33041
358.00953
353.80594
349.71859
345.74624
341.8875
338.14085
334.50465
330.97713
327.55642
324.24057
321.02755
317.9153
314.90172
311.98471
309.16223
306.43232
303.79313
301.24293
525.58659
518.87938
512.17358
505.47952
498.80706
492.16554
485.56387
479.01046
472.51325
466.07962
459.71652
453.43035
447.22708
441.11219
435.09066
429.16701
423.3453
417.62911
412.02157
406.52536
401.14275
395.87558
390.72531
385.69302
380.77947
375.98506
371.3099
366.75385
362.31647
357.99711
353.79493
349.70886
345.73768
341.88001
338.13435
334.49904
330.97232
327.55234
324.23715
321.02472
317.913
314.89988
311.98328
309.16117
306.43159
303.7927
301.24278
525.4419
518.74129
512.04254
505.35578
498.69061
492.05625
485.4615
478.91473
472.42384
465.99625
459.63886
453.35814
447.16003
441.05004
435.03315
429.11391
423.29635
417.58409
411.98025
406.48752
401.10817
395.84405
390.69664
385.66702
380.75595
375.96384
371.29083
366.73674
362.30119
357.98351
353.78287
349.69821
345.72832
341.87184
338.12725
334.49292
330.96709
327.54791
324.23344
321.02166
317.91051
314.8979
311.98176
309.16004
306.43081
303.79224
301.24262
525.28389
518.59038
511.89938
505.22054
498.56327
491.93663
485.34938
478.80981
472.32581
465.90479
459.55366
453.2789
447.08645
440.98183
434.97005
429.05563
423.24265
417.5347
411.93492
406.44601
401.07025
395.80949
390.66522
385.63853
380.73019
375.94061
371.26994
366.71803
362.28448
357.96865
353.76969
349.68659
345.71812
341.86294
338.11953
334.48627
330.96141
327.54311
324.22942
321.01835
317.90783
314.89578
311.98012
309.15884
306.42999
303.79175
301.24246
531.78988
525.11102
518.42578
511.74334
505.07312
498.42438
491.8061
485.22694
478.69517
472.21865
465.80478
459.46048
453.19221
447.00596
440.90721
434.90101
428.99188
423.1839
417.48066
411.88534
406.40061
401.02878
395.77171
390.63088
385.6074
380.70205
375.91525
371.24715
366.69762
362.26625
357.95244
353.75535
349.67394
345.70703
341.85326
338.11114
334.47905
330.95525
327.53791
324.22508
321.01478
317.90495
314.8935
311.97838
309.15756
306.42912
303.79125
301.24229
531.59174
524.92254
518.24667
511.57364
504.91278
498.27326
491.66399
485.09357
478.57024
472.10183
465.69571
459.35883
453.09764
446.91813
440.8258
434.82567
428.92231
423.11979
417.42171
411.83124
406.35109
400.98356
395.73051
390.59344
385.57347
380.67137
375.88761
371.22232
366.67538
362.24642
357.93481
353.73974
349.66019
345.69498
341.84276
338.10205
334.47123
330.94859
327.53229
324.2204
321.01093
317.90184
314.89105
311.9765
309.15619
306.42819
303.79071
301.24211
544.63152
538.0182
531.37637
524.71772
518.05224
511.38948
504.73877
498.10921
491.50965
484.94866
478.43444
471.97479
465.57708
459.24824
452.99473
446.82254
440.73718
434.74368
428.84659
423.05001
417.35755
411.77237
406.2972
400.93434
395.68567
390.55269
385.53655
380.63801
375.85755
371.19533
366.65122
362.22487
357.91567
353.72281
349.64528
345.68191
341.83138
338.0922
334.46277
330.94139
327.52622
324.21535
321.00679
317.8985
314.88842
311.9745
309.15473
306.42721
303.79014
301.24193
550.94062
544.37526
537.773
531.14293
524.49581
517.84166
511.19006
504.5503
497.93147
491.34238
484.79155
478.28715
471.83696
465.44833
459.1282
452.88301
446.71875
440.64095
434.65463
428.76436
422.97422
417.28786
411.70843
406.23867
400.88088
395.63698
390.50846
385.49647
380.6018
375.82493
371.16604
366.62501
362.2015
357.89491
353.70445
349.62912
345.66776
341.81906
338.08154
334.45363
330.93361
327.51966
324.2099
321.00232
317.89491
314.88561
311.97236
309.15318
306.42616
303.78955
301.24173
550.65139
544.09818
537.50813
530.89061
524.25595
517.61407
510.97451
504.34658
497.7393
491.16147
484.62157
478.12774
471.68774
465.30892
458.99818
452.76198
446.6063
440.53667
434.55813
428.67523
422.89208
417.21232
411.63912
406.17522
400.82295
395.58421
390.46051
385.45303
380.56256
375.78959
371.13431
366.59662
362.17619
357.87244
353.68458
349.61164
345.65246
341.80574
338.07003
334.44375
330.92521
327.5126
324.20402
320.99752
317.89105
314.88258
311.97006
309.15152
306.42505
303.78892
301.24153
550.33956
543.7994
537.22261
530.61854
523.99726
517.36857
510.74199
504.12676
497.5319
490.96617
484.43801
477.95555
471.52652
465.15825
458.85764
452.63113
446.48471
440.4239
434.45375
428.57883
422.80323
417.1306
411.56414
406.10658
400.76026
395.52711
390.40864
385.40603
380.5201
375.75135
371.09998
366.56592
362.14882
357.84814
353.6631
349.59274
345.63592
341.79135
338.0576
334.43309
330.91615
327.50498
324.1977
320.99234
317.8869
314.87933
311.96761
309.14974
306.42387
303.78825
301.24132
550.00399
543.4779
536.91539
530.32572
523.71879
517.10426
510.49159
503.89
497.30846
490.75571
484.24016
477.76991
471.35266
464.99573
458.706
452.48992
446.35348
440.30218
434.34107
428.47474
422.70728
417.04235
411.48315
406.03244
400.69255
395.46543
390.3526
385.35526
380.47424
375.71005
371.0629
366.53274
362.11926
357.8219
353.63991
349.57234
345.61807
341.77583
338.04419
334.42159
330.90638
327.49677
324.19088
320.98678
317.88244
314.87584
311.96497
309.14784
306.42261
303.78754
301.24109
549.64344
543.13254
536.58538
530.01113
523.41953
516.82016
510.2224
503.63541
497.06815
490.52931
484.02727
477.5701
471.16549
464.82073
458.54269
452.33782
446.21209
440.17101
434.21963
428.36254
422.60384
416.9472
411.39583
405.95249
400.61953
395.3989
390.29215
385.30049
380.42475
375.66548
371.02289
366.49695
362.08736
357.79358
353.61488
349.55033
345.59881
341.75908
338.02972
334.40919
330.89585
327.48792
324.18354
320.98078
317.87763
314.87209
311.96213
309.14581
306.42126
303.78678
301.24085
549.25664
542.76209
536.23141
529.67365
523.09845
516.51529
509.93346
503.3621
496.81011
490.28615
483.79857
477.3554
470.96432
464.6326
458.3671
452.17424
446.06
440.02989
434.08895
428.24179
422.4925
416.84477
411.3018
405.86639
400.54088
395.32723
390.22703
385.24147
380.37143
375.61745
370.97977
366.45837
362.05297
357.76306
353.5879
349.5266
345.57805
341.74102
338.01412
334.39583
330.8845
327.47838
324.17563
320.97432
317.87246
314.86805
311.95909
309.14362
306.41982
303.78597
301.2406
548.84227
542.36532
535.85228
529.31216
522.75447
516.1886
509.6238
503.06913
496.53346
490.02539
483.55326
477.12506
470.74845
464.43068
458.17858
451.99859
445.89665
439.87829
433.94855
428.11202
422.37283
416.73465
411.2007
405.77379
400.45627
395.25013
390.15695
385.17796
380.31403
375.56574
370.93334
366.41682
362.01593
357.73017
353.55883
349.50102
345.55568
341.72156
337.99731
334.38142
330.87226
327.4681
324.1671
320.96735
317.86689
314.8637
311.95581
309.14127
306.41826
303.7851
301.24033
548.39898
541.94091
535.44677
528.92548
522.38647
515.83905
509.2924
502.75554
496.23726
489.74616
483.29052
476.8783
470.51714
464.21426
457.97649
451.81024
445.72146
439.71566
433.7979
427.97275
422.24436
416.61641
411.09212
405.67431
400.36537
395.16727
390.08162
385.10966
380.2523
375.5101
370.88337
366.3721
361.97605
357.69475
353.52752
349.47347
345.53156
341.70058
337.97919
334.36588
330.85906
327.457
324.15789
320.95983
317.86087
314.85901
311.95227
309.13874
306.4166
303.78418
301.24004
547.92542
541.48757
535.0136
528.5124
521.9933
515.46554
508.93823
502.42032
495.92059
489.44756
483.00949
476.61431
470.26961
463.98261
457.76013
451.60854
445.5338
439.54142
433.63644
427.82346
422.10661
416.48959
410.97563
405.56756
400.26778
395.07828
390.0007
385.03628
380.18594
375.45029
370.82963
366.32398
361.93313
357.65662
353.49379
349.44378
345.50557
341.67796
337.95963
334.34911
330.84481
327.44502
324.14795
320.95171
317.85436
314.85393
311.94845
309.13601
306.41479
303.78317
301.23973
547.42017
541.00391
534.55147
528.07166
521.57376
515.06691
508.56018
502.06245
495.58244
489.12864
482.70926
476.33221
470.00505
463.73497
457.52875
451.39279
445.33302
439.35493
433.46359
427.66358
421.95905
416.35369
410.85076
405.45309
400.1631
394.9828
389.91383
384.95747
380.11465
375.386
370.77184
366.27222
361.88693
357.61556
353.45745
349.41178
345.47754
341.65355
337.93852
334.33099
330.8294
327.43206
324.13719
320.94291
317.84731
314.84843
311.9443
309.13304
306.41284
303.78209
301.2394
546.88179
540.48853
534.05901
527.60197
521.1266
514.64198
508.15711
501.68081
495.22177
488.7884
482.38889
476.03111
469.72258
463.47048
457.28158
451.16223
445.11838
439.15552
433.27869
427.4925
421.80108
416.20816
410.71698
405.33041
400.05086
394.88037
389.8206
384.87284
380.03806
375.31689
370.70968
366.21651
361.83719
357.57132
353.41828
349.37725
345.44727
341.62718
337.9157
334.31139
330.81272
327.41801
324.12551
320.93336
317.83966
314.84245
311.93979
309.12981
306.41072
303.78091
301.23904
546.30872
539.93995
533.53479
527.10193
520.65048
514.18946
507.72779
501.27424
494.83743
488.42575
482.04733
475.70999
469.42125
463.18824
457.01772
450.91604
444.8891
438.94242
433.08102
427.30952
421.63207
416.05237
410.57371
405.19894
399.93052
394.77049
389.72053
384.78196
379.95575
375.24257
370.64279
366.15651
361.78357
357.5236
353.37598
349.33995
345.41454
341.59863
337.89096
334.29013
330.7946
327.40274
324.1128
320.92295
317.8313
314.83591
311.93486
309.12628
306.40839
303.77963
301.23865
545.69931
539.35653
532.97723
526.57003
520.14395
513.70794
507.27086
500.84142
494.42818
488.03948
481.68341
475.36776
469.09999
462.88723
456.73621
450.65325
444.64428
438.71476
432.86976
427.11386
421.45123
415.8856
410.42025
405.05805
399.80147
394.65258
389.61307
384.68428
379.86722
375.16257
370.57073
366.09182
361.7257
357.47203
353.33024
349.29956
345.37906
341.56765
337.86409
334.26699
330.77486
327.38608
324.09892
320.91157
317.82214
314.82874
311.92944
309.12238
306.40583
303.77821
301.23822
545.05167
538.73646
532.38458
526.00455
519.60534
513.19582
506.78477
500.38086
493.99257
487.6282
481.29579
475.0031
468.75755
462.56624
456.43587
450.37277
444.38283
438.47153
432.6439
426.90457
421.25768
415.70698
410.25577
404.90693
399.66294
394.5259
389.49752
384.57916
379.77185
375.0763
370.49294
366.0219
361.66309
357.41618
353.28062
349.25569
345.34047
341.5339
337.83477
334.24172
330.75326
327.36782
324.08367
320.89904
317.81205
314.82081
311.92344
309.11807
306.40298
303.77663
301.23773
544.3636
538.07759
531.75472
525.40347
519.03268
512.65118
506.26768
499.89076
493.52887
487.19024
480.88286
474.61445
468.39242
462.22381
456.11531
450.07323
444.10345
438.21145
432.40225
426.68048
421.05029
415.51544
410.07924
404.7446
399.514
394.38957
389.37303
384.46578
379.66887
374.98304
370.40873
365.94612
361.59513
357.35546
353.2266
349.20785
345.29832
341.49698
337.80263
334.21395
330.72949
327.34767
324.06682
320.88515
317.80084
314.812
311.91674
309.11325
306.39979
303.77486
301.23719
543.63237
537.37725
531.08508
524.76425
518.42353
512.07166
505.71727
499.36889
493.0349
486.72348
480.44257
474.19985
468.00268
461.85809
455.77274
449.75291
443.80448
437.93291
432.14325
426.44009
420.82762
415.3096
409.88934
404.56978
399.35342
394.2424
389.23849
384.34309
379.55728
374.88182
370.3172
365.86361
361.52101
357.28913
353.16748
349.15539
345.25201
341.45632
337.76717
334.18325
330.70314
327.32529
324.04804
320.86965
317.78829
314.80209
311.9092
309.1078
306.39618
303.77285
301.23658
542.85438
536.63195
530.37226
524.0836
517.77467
511.45412
505.13051
498.81231
492.50782
486.22517
479.97225
473.7567
467.58583
461.46665
455.4058
449.40953
443.48372
437.63381
431.86485
426.18145
420.58778
415.08762
409.68432
404.3808
399.1796
394.08288
389.09243
384.20968
379.43574
374.7714
370.21716
365.77327
361.4397
357.21621
353.10234
349.09746
345.20075
341.41121
337.72772
334.14901
330.67368
327.3002
324.02693
320.85216
317.77408
314.79085
311.90061
309.10157
306.39204
303.77053
301.23587
542.02474
535.83693
529.61161
523.357
517.08172
510.79431
504.50327
498.217
491.94373
485.69153
479.46824
473.28145
467.13844
461.04618
455.01129
449.04
443.13818
437.31126
431.56428
425.90186
420.32819
414.84705
409.46179
404.17537
398.99036
393.90892
388.93287
384.06367
379.30246
374.65006
370.10701
365.67357
361.34976
357.13535
353.02995
349.03292
345.14348
341.36068
337.68341
334.11044
330.64038
327.27175
324.00293
320.83221
317.75782
314.77793
311.89071
309.09437
306.38723
303.76784
301.23504
541.13654
534.98544
528.79659
522.5781
516.33848
510.08623
503.82973
497.57732
491.33716
485.11726
478.92541
472.76914
466.65571
460.59204
454.58473
448.64
442.76369
436.96123
431.23767
425.59762
420.04528
414.58444
409.21848
403.95037
398.78269
393.71764
388.75707
383.90246
379.15499
374.5155
369.98456
365.56246
361.24926
357.04478
352.94862
348.9602
345.07878
341.30341
337.63304
334.06645
330.60229
327.23909
323.97527
320.80915
317.73896
314.76289
311.87914
309.08591
306.38157
303.76466
301.23406
540.17973
534.06773
527.9177
521.73767
515.53604
509.32122
503.10151
496.88515
490.68026
484.49477
478.33642
472.21269
466.1308
460.09763
454.11976
448.20339
442.35434
436.57806
430.87956
425.26348
419.73402
414.29499
408.94978
403.70138
398.5524
393.50506
388.56125
383.72247
378.98992
374.36448
369.84677
365.4371
361.13556
356.94199
352.85606
348.8772
345.00468
341.23763
337.57499
334.01559
330.5581
327.20107
323.94296
320.7821
317.71675
314.74512
311.86541
309.07585
306.3748
303.76085
301.23288
539.13951
533.06944
526.96104
520.82223
514.66133
508.48663
502.30636
496.12867
489.96161
483.81304
477.69063
471.60183
465.55381
459.55343
453.60722
447.72137
441.90169
436.15361
430.48217
424.89198
419.38728
413.97187
408.64917
403.4222
398.29358
393.26558
388.34008
383.51864
378.80249
374.19255
369.68945
365.29355
361.00497
356.82359
352.7491
348.78098
344.91852
341.16088
337.50704
333.95585
330.50601
327.15612
323.90462
320.7499
317.69021
314.7238
311.84887
309.06368
306.36659
303.7562
301.23143
537.99401
531.96936
525.90604
519.81189
513.69511
507.56389
501.42635
495.29057
489.16451
483.05596
476.97255
470.92166
464.91041
458.94565
453.03386
447.18123
441.39355
435.67624
430.03433
424.47247
418.99487
413.60538
408.30743
403.10405
397.9979
392.99127
388.08609
383.28394
378.58607
373.99346
369.50675
365.12635
360.85241
356.68485
352.62339
348.66753
344.81662
341.06982
337.42616
333.88452
330.44362
327.10208
323.85838
320.71092
317.65799
314.69782
311.82865
309.04874
306.35647
303.75045
301.22963
536.71072
530.73613
524.72237
518.67734
512.60909
506.52569
500.43517
494.34549
488.26455
482.20007
476.1596
470.15048
464.1798
458.25433
452.38058
446.56467
440.8124
435.12919
429.52008
423.98969
418.54229
413.18171
407.91142
402.73448
397.65357
392.67101
387.78877
383.00845
378.33136
373.75848
369.29052
364.92791
360.67084
356.51925
352.4729
348.53134
344.69393
340.95987
337.32822
333.79788
330.36762
327.03606
323.80173
320.66302
317.61825
314.66569
311.80356
309.03014
306.34383
303.74325
301.22736
535.2417
529.32353
523.36552
517.37566
511.36191
505.33219
499.29444
493.25653
487.22626
481.21128
475.21909
469.25696
463.33192
457.45073
451.61985
445.84541
440.13317
434.48856
428.91661
423.42197
418.00891
412.6813
407.44261
402.29594
397.24401
392.28916
387.43339
382.67836
378.0254
373.47553
369.02949
364.68775
360.45053
356.31782
352.28939
348.36484
344.54356
340.82478
337.20759
333.69091
330.27354
326.95414
323.73123
320.60326
317.56855
314.62538
311.772
309.00669
306.32785
303.73411
301.22448
539.32448
533.5186
527.66495
521.77109
515.84476
509.89374
503.92582
497.94883
491.97052
485.99861
480.04066
474.10411
468.19617
462.32383
456.4938
450.71251
444.98606
439.32023
433.72043
428.1917
422.7387
417.36572
412.07664
406.87499
401.76388
396.74606
391.82393
386.99951
382.27449
377.65026
373.12786
368.70808
364.39142
360.17814
356.06826
352.06159
348.15774
344.35616
340.65609
337.05666
333.55681
330.15537
326.85102
323.64233
320.52774
317.50561
314.57422
311.73184
308.97676
306.3074
303.7224
301.22076
542.84362
537.17062
531.44199
525.66505
519.84729
513.99624
508.11952
502.22479
496.31975
490.41204
484.50928
478.61894
472.74839
466.90476
461.09499
455.32576
449.60346
443.93419
438.32369
432.77739
427.30033
421.8972
416.5723
411.32955
406.1725
401.10431
396.12776
391.24529
386.45897
381.77054
377.18139
372.69265
368.30511
364.01933
359.83559
355.75395
351.77426
347.89616
344.11912
340.44242
336.86521
333.38648
330.00506
326.71968
323.52892
320.43125
317.42505
314.50863
311.68026
308.93826
306.28103
303.70726
301.21595
545.60339
540.08714
534.50898
528.87468
523.1914
517.46643
511.70713
505.92095
500.11541
494.29805
488.4764
482.65796
476.8501
471.06009
465.295
459.5617
453.86682
448.21674
442.6175
437.07487
431.59426
426.18074
420.839
415.57338
410.38784
405.28596
400.27095
395.34564
390.5125
385.77366
381.13089
376.58565
372.13908
367.79205
363.54512
359.39862
355.35265
351.40708
347.5616
343.81569
340.16868
336.61975
333.1679
329.81201
326.55084
323.38299
320.30696
317.32117
314.42394
311.61357
308.88838
306.24682
303.68757
301.20967
542.00538
536.60783
531.14815
525.6317
520.0654
514.45631
508.81156
503.13843
497.44427
491.73645
486.02235
480.30933
474.60464
468.91542
463.24867
457.61118
452.00954
446.45006
440.93879
435.48146
430.08351
424.75
419.48568
414.2949
409.18167
404.14962
399.202
394.34172
389.57128
384.89286
380.3083
375.81909
371.42643
367.1312
362.93404
358.8353
354.83511
350.93338
347.12983
343.42397
339.81518
336.30264
332.88542
329.56243
326.33245
323.19414
320.14602
317.18655
314.31409
311.52697
308.82355
306.20229
303.66191
301.20146
537.39812
532.15055
526.84084
521.47375
516.05585
510.59393
505.09459
499.56498
494.01228
488.44367
482.86633
477.28743
471.71406
466.15323
460.61182
455.09655
449.6139
444.17016
438.77133
433.42315
428.13103
422.90008
417.73507
412.6404
407.62013
402.67793
397.81714
393.0407
388.35119
383.75084
379.24154
374.82484
370.50199
366.27392
362.1413
358.10452
354.16374
350.31891
346.56978
342.91591
339.35671
335.89141
332.51911
329.23878
326.04923
322.94917
319.93721
317.01182
314.17143
311.41443
308.73921
306.14429
303.62843
301.19073
531.46185
526.40436
521.28492
516.10765
510.87882
505.60565
500.29196
494.94566
489.5738
484.1833
478.78107
473.37405
467.96913
462.57312
457.19276
451.83463
446.50513
441.21046
435.9566
430.74925
425.59383
420.49548
415.45898
410.4888
405.58904
400.76345
396.01541
391.34796
386.76372
382.265
377.85373
373.53153
369.2997
365.15921
361.11078
357.15485
353.29157
349.52096
345.84277
342.25662
338.76197
335.35812
332.04422
328.81928
325.6822
322.63176
319.66662
316.78536
313.98648
311.26844
308.62972
306.06892
303.58487
301.17674
523.8504
519.03194
514.15147
509.21228
504.22003
499.17988
494.10049
488.98681
483.84493
478.68125
473.50232
468.31475
463.12515
457.94009
452.76608
447.60952
442.4767
437.37371
432.30645
427.2806
422.30157
417.37449
412.5042
407.69519
402.95163
398.27731
393.67568
389.14983
384.70248
380.33596
376.0523
371.85315
367.73987
363.71348
359.7748
355.92429
352.16197
348.48828
344.90238
341.40426
337.99346
334.66935
331.43114
328.27794
325.20873
322.22239
319.3177
316.49334
313.74794
311.08008
308.48837
305.97154
303.52852
301.15862
514.17202
509.6508
505.06842
500.42754
495.73323
490.99074
486.20572
481.38368
476.53036
471.65172
466.75383
461.84289
456.92512
452.00675
447.09398
442.19299
437.30987
432.45058
427.62094
422.82654
418.07278
413.36478
408.70738
404.1051
399.5621
395.08223
390.66895
386.32539
382.05431
377.85812
373.73888
369.69829
365.73773
361.85829
358.06065
354.34535
350.71289
347.16292
343.69594
340.31132
337.00857
333.78712
330.64627
327.58522
324.6031
321.69892
318.8716
316.12001
313.44294
310.83917
308.30749
305.84681
303.45627
301.13534
502.11639
497.95251
493.7283
489.44647
485.11123
480.72711
476.29882
471.83127
467.32962
462.7992
458.24555
453.67432
449.09125
444.50217
439.91291
435.32931
430.75715
426.20216
421.67
417.16616
412.69594
408.26441
403.87633
399.53616
395.248
391.01562
386.84244
382.73152
378.68563
374.70716
370.7982
366.96046
363.19535
359.50397
355.88709
352.34527
348.87884
345.48785
342.17228
338.93186
335.76622
332.67489
329.6573
326.71281
323.84068
321.04013
318.31031
315.65031
313.05917
310.53594
308.07969
305.6896
303.3651
301.10592
487.4757
483.72772
479.92038
476.05704
472.14127
468.17676
464.1674
460.11733
456.03095
451.91287
447.76795
443.60116
439.41768
435.22275
431.02174
426.8201
422.62329
418.43681
414.26614
410.11662
405.99344
401.90151
397.84543
393.82943
389.85737
385.93274
382.05872
378.23819
374.47373
370.76763
367.1219
363.53822
360.01798
356.56227
353.17188
349.84734
346.58899
343.39692
340.27112
337.21139
334.21747
331.289
328.42555
325.62667
322.89184
320.22052
317.61215
315.06612
312.58183
310.15868
307.79614
305.49377
303.25141
301.06918
473.44946
470.21667
466.93004
463.58858
460.19443
456.75019
453.25864
449.72283
446.14605
442.53188
438.88414
435.20689
431.50441
427.78116
424.04181
420.29118
416.5343
412.77631
409.02248
405.2781
401.5484
397.83839
394.15275
390.49569
386.87096
383.28183
379.73115
376.22151
372.75525
369.33453
365.96138
362.63758
359.36471
356.14407
352.9767
349.86336
346.80458
343.80066
340.85173
337.95779
335.11873
332.33439
329.60453
326.92893
324.30734
321.73953
319.22528
316.76438
314.35666
312.00195
309.70015
307.45124
305.25533
303.1128
301.02432
453.24044
450.49821
447.7072
444.86659
441.97784
439.04275
436.06331
433.04173
429.98049
426.88232
423.75025
420.58753
417.39766
414.18443
410.95188
407.70434
404.44645
401.18312
397.91949
394.66083
391.41231
388.17882
384.96467
381.77347
378.60805
375.47054
372.36255
369.28546
366.24057
363.22922
360.25285
357.31285
354.41056
351.54713
348.72351
345.94039
343.19826
340.4974
337.83794
335.2199
332.64325
330.10792
327.61387
325.16108
322.74957
320.37946
318.05093
315.76423
313.5197
311.31778
309.15897
307.04393
304.97349
302.94876
300.97114
430.92978
428.69068
426.40968
424.08571
421.71956
419.31236
416.86535
414.38001
411.85806
409.30145
406.71241
404.09345
401.44736
398.77726
396.08667
393.3795
390.66019
387.9336
385.20503
382.47995
379.76378
377.06138
374.3767
371.71244
369.06997
366.44953
363.85064
361.27262
358.715
356.17773
353.66124
351.16632
348.69388
346.24487
343.82005
341.42003
339.0452
336.69577
334.37186
332.07348
329.80063
327.55337
325.33181
323.13616
320.96679
318.8242
316.70904
314.62213
312.56445
310.53716