/*--------------------------------*- C++ -*----------------------------------*\
| =========                 |                                                 |
| \\      /  F ield         | OpenFOAM: The Open Source CFD Toolbox           |
|  \\    /   O peration     | Version:  2312                                  |
|   \\  /    A nd           | Website:  www.openfoam.com                      |
|    \\/     M anipulation  |                                                 |
\*---------------------------------------------------------------------------*/
FoamFile
{
    version     2.0;
    format      ascii;
    arch        "LSB;label=32;scalar=64";
    class       volScalarField;
    location    "0.02";
    object      CH4;
}
// * * * * * * * * * * * * * * * * * * * * * * * * * * * * * * * * * * * * * //

dimensions      [0 0 0 0 0 0 0];

internalField   nonuniform List<scalar> 
3257
(
1.270628e-07
1.0467353e-07
8.6123933e-08
7.07794e-08
5.8102168e-08
4.7641261e-08
3.9019603e-08
3.1922374e-08
2.608706e-08
2.129504e-08
1.7364477e-08
1.414433e-08
1.1509297e-08
9.3555704e-09
7.597263e-09
6.1634065e-09
4.9954386e-09
4.0450983e-09
3.2726664e-09
2.6454966e-09
2.1367917e-09
1.7245839e-09
1.3908886e-09
1.1210004e-09
9.0291111e-10
7.2682702e-10
5.8477069e-10
4.7025187e-10
3.7799659e-10
3.0372417e-10
2.4396403e-10
1.9590545e-10
1.5727445e-10
1.2623306e-10
1.0129713e-10
8.1269173e-11
6.5183743e-11
5.2262964e-11
4.1880396e-11
3.3531715e-11
2.6810936e-11
2.1391162e-11
1.7008992e-11
1.3451912e-11
1.0548099e-11
8.1581622e-12
6.1684635e-12
4.4856947e-12
3.0324691e-12
1.7437222e-12
5.6375607e-13
1.2641439e-07
1.0413667e-07
8.5680768e-08
7.0414421e-08
5.7802126e-08
4.7394984e-08
3.8817737e-08
3.1757123e-08
2.5951946e-08
2.1184694e-08
1.7274459e-08
1.4070973e-08
1.1449578e-08
9.3070038e-09
7.5578038e-09
6.1313767e-09
4.9694628e-09
4.0240505e-09
3.2556259e-09
2.6317115e-09
2.1256485e-09
1.715583e-09
1.3836229e-09
1.1151392e-09
8.9818576e-10
7.230195e-10
5.8170427e-10
4.6778344e-10
3.7601035e-10
3.021265e-10
2.4267933e-10
1.9487269e-10
1.564444e-10
1.2556608e-10
1.0076128e-10
8.0838751e-11
6.4838087e-11
5.1985469e-11
4.1657731e-11
3.3353187e-11
2.6667979e-11
2.1276924e-11
1.6918005e-11
1.3379828e-11
1.0491473e-11
8.1142876e-12
6.1352332e-12
4.4614955e-12
3.0160951e-12
1.7343026e-12
5.6069368e-13
1.2519771e-07
1.0313426e-07
8.4855646e-08
6.9736066e-08
5.7245145e-08
4.6938237e-08
3.8443644e-08
3.145109e-08
2.5701879e-08
2.0980586e-08
1.7108044e-08
1.3935431e-08
1.1339295e-08
9.2173608e-09
7.4850077e-09
6.0723163e-09
4.9215892e-09
3.9852784e-09
3.2242509e-09
2.6063426e-09
2.1051515e-09
1.6990342e-09
1.3702709e-09
1.1043734e-09
8.8951033e-10
7.1603245e-10
5.7607986e-10
4.6325799e-10
3.7237063e-10
2.9920022e-10
2.4032738e-10
1.9298286e-10
1.5492626e-10
1.2434676e-10
9.9782135e-11
8.0052623e-11
6.4207065e-11
5.1479105e-11
4.1251591e-11
3.302768e-11
2.6407418e-11
2.1068765e-11
1.6752242e-11
1.3248502e-11
1.0388285e-11
8.0342865e-12
6.0745705e-12
4.4172313e-12
2.9860481e-12
1.7169368e-12
5.5503083e-13
1.2346074e-07
1.0170455e-07
8.3679989e-08
6.8770419e-08
5.6452917e-08
4.6289039e-08
3.7912265e-08
3.1016639e-08
2.5347067e-08
2.0691128e-08
1.687215e-08
1.3743388e-08
1.1183107e-08
9.090457e-09
7.381995e-09
5.9887733e-09
4.8538961e-09
3.9304748e-09
3.1799189e-09
2.5705095e-09
2.0762098e-09
1.675675e-09
1.3514303e-09
1.0891868e-09
8.7727629e-10
7.061823e-10
5.6815303e-10
4.5688183e-10
3.6724385e-10
2.9507947e-10
2.3701628e-10
1.9032304e-10
1.5279008e-10
1.2263147e-10
9.8405056e-11
7.8947262e-11
6.3319999e-11
5.0767437e-11
4.0680905e-11
3.2570391e-11
2.604144e-11
2.0776445e-11
1.6519498e-11
1.306414e-11
1.0243446e-11
7.9220093e-12
5.9894452e-12
4.3551268e-12
2.9438999e-12
1.6925844e-12
5.4709617e-13
1.2124552e-07
9.9882352e-08
8.2182663e-08
6.7541452e-08
5.5445364e-08
4.5463943e-08
3.7237339e-08
3.0465157e-08
2.4896938e-08
2.0324112e-08
1.657321e-08
1.3500141e-08
1.0985373e-08
8.9298742e-09
7.2517042e-09
5.8831556e-09
4.7683539e-09
3.8612505e-09
3.1239451e-09
2.525285e-09
2.0396973e-09
1.646217e-09
1.3276795e-09
1.0700495e-09
8.6186525e-10
6.9377864e-10
5.5817477e-10
4.4885827e-10
3.6079464e-10
2.898975e-10
2.328538e-10
1.8698034e-10
1.5010631e-10
1.2047714e-10
9.6676011e-11
7.755979e-11
6.2206855e-11
4.9874647e-11
3.9965178e-11
3.1997038e-11
2.5582698e-11
2.0410129e-11
1.6227917e-11
1.2833232e-11
1.0062087e-11
7.7814577e-12
5.882911e-12
4.2774248e-12
2.8911827e-12
1.662137e-12
5.3718178e-13
1.1858942e-07
9.7698932e-08
8.0389766e-08
6.6070913e-08
5.4240588e-08
4.4478001e-08
3.6431367e-08
2.9807015e-08
2.4360079e-08
1.988664e-08
1.6217087e-08
1.3210528e-08
1.0750077e-08
8.7388868e-09
7.0968244e-09
5.7576686e-09
4.6667691e-09
3.7790835e-09
3.0575373e-09
2.4716549e-09
1.996418e-09
1.611315e-09
1.2995517e-09
1.047395e-09
8.4362948e-10
6.7910748e-10
5.4637714e-10
4.3937549e-10
3.5317548e-10
2.837778e-10
2.2793992e-10
1.8303569e-10
1.4694038e-10
1.1793668e-10
9.4637781e-11
7.5924782e-11
6.0895569e-11
4.8823296e-11
3.912262e-11
3.1322309e-11
2.5043024e-11
1.9979328e-11
1.5885119e-11
1.2561853e-11
9.8490083e-12
7.616378e-12
5.7578259e-12
4.1862226e-12
2.8293273e-12
1.626425e-12
5.2555945e-13
1.155283e-07
9.5184338e-08
7.8326407e-08
6.4379738e-08
5.2856014e-08
4.334569e-08
3.550636e-08
2.9052161e-08
2.3744721e-08
1.9385511e-08
1.5809391e-08
1.2879169e-08
1.0481017e-08
8.5206173e-09
6.9199173e-09
5.6144116e-09
4.55086e-09
3.6853784e-09
2.9818426e-09
2.4105551e-09
1.9471346e-09
1.5715901e-09
1.2675521e-09
1.021634e-09
8.2290248e-10
6.6243949e-10
5.3297966e-10
4.2861142e-10
3.445305e-10
2.7683708e-10
2.2236909e-10
1.7856548e-10
1.4335409e-10
1.1506004e-10
9.2330738e-11
7.4074857e-11
5.9412488e-11
4.7634656e-11
3.8170398e-11
3.0560046e-11
2.4433564e-11
1.9493e-11
1.5498279e-11
1.2255719e-11
9.6087292e-12
7.4302919e-12
5.6168741e-12
4.0834881e-12
2.7596754e-12
1.5862267e-12
5.1248384e-13
1.1209869e-07
9.2369074e-08
7.6018006e-08
6.2489069e-08
5.1309195e-08
4.2081559e-08
3.4474357e-08
2.8210543e-08
2.305907e-08
1.8827486e-08
1.5355684e-08
1.2510633e-08
1.0181946e-08
8.2781397e-09
6.7234996e-09
5.4554423e-09
4.4223073e-09
3.5815068e-09
2.8979788e-09
2.342896e-09
1.8925878e-09
1.5276442e-09
1.2321695e-09
9.9316314e-10
8.0000601e-10
6.4403542e-10
5.181935e-10
4.1673698e-10
3.3499799e-10
2.6918714e-10
2.1623168e-10
1.7364274e-10
1.3940642e-10
1.1189485e-10
8.9793337e-11
7.2041053e-11
5.7782655e-11
4.6328927e-11
3.7124795e-11
2.9723365e-11
2.376487e-11
1.8959614e-11
1.5074175e-11
1.1920226e-11
9.3455082e-12
7.2265158e-12
5.462581e-12
3.9710713e-12
2.6834869e-12
1.5422725e-12
4.9819377e-13
1.0833907e-07
8.9285129e-08
7.3491108e-08
6.0420894e-08
4.9618311e-08
4.0700617e-08
3.334773e-08
2.7292345e-08
2.2311499e-08
1.821944e-08
1.4861601e-08
1.2109537e-08
9.8566383e-09
8.0145393e-09
6.5100896e-09
5.2828142e-09
4.2827837e-09
3.4688296e-09
2.8070526e-09
2.2695761e-09
1.8335069e-09
1.4800688e-09
1.1938833e-09
9.623706e-10
7.7525406e-10
6.2414919e-10
5.0222388e-10
4.0391795e-10
3.247118e-10
2.6093602e-10
2.0961486e-10
1.6833776e-10
1.3515406e-10
1.0848681e-10
8.7062399e-11
6.9853038e-11
5.6029969e-11
4.4925355e-11
3.6001303e-11
2.8824725e-11
2.3046947e-11
1.8387194e-11
1.4619216e-11
1.1560468e-11
9.0633607e-12
7.0081727e-12
5.2973215e-12
3.8507098e-12
2.6019444e-12
1.495247e-12
4.8291296e-13
1.042905e-07
8.5966463e-08
7.0773748e-08
5.8198325e-08
4.7802388e-08
3.9218505e-08
3.2139319e-08
2.6308095e-08
2.1510629e-08
1.7568422e-08
1.4332905e-08
1.1680581e-08
9.508927e-09
7.732937e-09
6.2822261e-09
5.0985907e-09
4.1339645e-09
3.3487061e-09
2.7101656e-09
2.1914881e-09
1.7706141e-09
1.4294481e-09
1.1531655e-09
9.2963756e-10
7.4895435e-10
6.0302901e-10
4.8527094e-10
3.9031562e-10
3.1380186e-10
2.5218835e-10
2.0260284e-10
1.6271833e-10
1.3065152e-10
1.0487979e-10
8.417321e-11
6.7539186e-11
5.4177243e-11
4.3442274e-11
3.4814649e-11
2.7875947e-11
2.2289274e-11
1.7783321e-11
1.413945e-11
1.1181245e-11
8.7660641e-12
6.7781956e-12
5.123323e-12
3.7240312e-12
2.5161538e-12
1.4457903e-12
4.6685019e-13
9.9996673e-08
8.2449008e-08
6.7895456e-08
5.5845594e-08
4.5881289e-08
3.7651481e-08
3.0862419e-08
2.526865e-08
2.0665317e-08
1.688165e-08
1.3775469e-08
1.1228545e-08
9.1426936e-09
7.4364832e-09
6.0424639e-09
4.9048416e-09
3.9775255e-09
3.2224917e-09
2.6084134e-09
2.1095164e-09
1.7046235e-09
1.3763577e-09
1.1104801e-09
8.9533785e-10
7.2140782e-10
5.8091705e-10
4.6752944e-10
3.7608656e-10
3.0239398e-10
2.430452e-10
1.9527681e-10
1.5684963e-10
1.2595116e-10
1.0111579e-10
8.1159481e-11
6.5126548e-11
5.2246177e-11
4.1897089e-11
3.3578787e-11
2.6888209e-11
2.1500796e-11
1.715514e-11
1.3640564e-11
1.0787061e-11
8.4571564e-12
6.5393271e-12
4.942665e-12
3.5925525e-12
2.4271449e-12
1.3944972e-12
4.5019934e-13
9.5503425e-08
7.8770329e-08
6.4886968e-08
5.3387825e-08
4.3875522e-08
3.6016272e-08
2.9530655e-08
2.4185098e-08
1.9784576e-08
1.6166446e-08
1.3195233e-08
1.0758241e-08
8.7618368e-09
7.1283328e-09
5.7933536e-09
4.7036273e-09
3.8151297e-09
3.0915277e-09
2.502877e-09
2.0245319e-09
1.6362357e-09
1.3213615e-09
1.0662803e-09
8.5983557e-10
6.9290686e-10
5.5804802e-10
4.4918768e-10
3.613818e-10
2.9060927e-10
2.3360364e-10
1.8771455e-10
1.5079397e-10
1.2110288e-10
9.7234778e-11
7.805322e-11
6.2640753e-11
5.0257289e-11
4.0306221e-11
3.2306853e-11
2.5872015e-11
2.0689899e-11
1.6509335e-11
1.312787e-11
1.0382113e-11
8.1399297e-12
6.2941147e-12
4.7572757e-12
3.4576787e-12
2.3358699e-12
1.3419173e-12
4.3313917e-13
9.0858041e-08
7.4969016e-08
6.1779745e-08
5.0850637e-08
4.1805933e-08
3.4329818e-08
2.8157781e-08
2.3068596e-08
1.8877448e-08
1.5430128e-08
1.259812e-08
1.0274456e-08
8.370222e-09
6.8116045e-09
5.5374097e-09
4.4969737e-09
3.6484079e-09
2.9571261e-09
2.3946111e-09
1.937382e-09
1.5661313e-09
1.2650054e-09
1.021004e-09
8.2348173e-10
6.6373271e-10
5.3464711e-10
4.3042597e-10
3.4634561e-10
2.7856314e-10
2.2395597e-10
1.7998986e-10
1.4461037e-10
1.1615384e-10
9.3274458e-11
7.4884553e-11
6.0105871e-11
4.822981e-11
3.868503e-11
3.1011112e-11
2.4837149e-11
1.9864381e-11
1.5852108e-11
1.2606285e-11
9.9702848e-12
7.8174229e-12
6.0449059e-12
4.5689294e-12
3.3207001e-12
2.243202e-12
1.288554e-12
4.1583317e-13
8.6108285e-08
7.1083922e-08
5.8605362e-08
4.8259667e-08
3.9693314e-08
3.2608968e-08
2.6757439e-08
2.1930178e-08
1.7952851e-08
1.4679899e-08
1.1989938e-08
9.7818737e-09
7.9716215e-09
6.4893348e-09
5.2770745e-09
4.2868437e-09
3.4789367e-09
2.8205523e-09
2.2846308e-09
1.8488802e-09
1.4949621e-09
1.2078113e-09
9.7506897e-10
7.8661041e-10
6.3415247e-10
5.1092781e-10
4.1141482e-10
3.311142e-10
2.6636432e-10
2.1418899e-10
1.72172e-10
1.3835407e-10
1.1114813e-10
8.9269994e-11
7.1681526e-11
5.7544271e-11
4.6181576e-11
3.7047737e-11
2.9702896e-11
2.3792638e-11
1.9031423e-11
1.5189161e-11
1.2080324e-11
9.5551301e-12
7.4924135e-12
5.793843e-12
4.3792422e-12
3.1827907e-12
2.1499348e-12
1.2348637e-12
3.9842938e-13
8.1301355e-08
6.7153336e-08
5.539485e-08
4.5640038e-08
3.7557989e-08
3.087015e-08
2.5342894e-08
2.0780547e-08
1.7019413e-08
1.3922709e-08
1.1376283e-08
9.2849953e-09
7.5696533e-09
6.1644295e-09
5.0146801e-09
4.0751077e-09
3.3082154e-09
2.6830072e-09
2.1738973e-09
1.7597957e-09
1.4233429e-09
1.1502706e-09
9.2886759e-10
7.4953498e-10
6.0441622e-10
4.870896e-10
3.9231333e-10
3.1581436e-10
2.5411387e-10
2.043832e-10
1.6432512e-10
1.3207617e-10
1.0612643e-10
8.5253776e-11
6.8469931e-11
5.4976487e-11
4.4128933e-11
3.5407349e-11
2.8392554e-11
2.2746707e-11
1.8197558e-11
1.4525674e-11
1.1554079e-11
9.1398676e-12
7.1674124e-12
5.5428592e-12
4.1896707e-12
3.0450067e-12
2.0567811e-12
1.1812562e-12
3.8106039e-13
7.6482839e-08
6.3214153e-08
5.2178036e-08
4.3015847e-08
3.5419407e-08
2.9129048e-08
2.3926786e-08
1.9629882e-08
1.6085324e-08
1.3165142e-08
1.0762445e-08
8.7880658e-09
7.1677229e-09
5.8396186e-09
4.7524135e-09
3.8635166e-09
3.1376447e-09
2.5456108e-09
2.0633056e-09
1.6708431e-09
1.3518443e-09
1.0928385e-09
8.8276285e-10
7.1254472e-10
5.747544e-10
4.6331601e-10
3.732676e-10
3.0056239e-10
2.4190432e-10
1.9461222e-10
1.5650774e-10
1.258232e-10
1.0112575e-10
8.1255228e-11
6.5273156e-11
5.2421108e-11
4.2086655e-11
3.3775607e-11
2.7089411e-11
2.1706759e-11
1.7368654e-11
1.3866289e-11
1.1031214e-11
8.7273753e-12
6.8446612e-12
5.2936779e-12
4.0015111e-12
2.9082868e-12
1.9643734e-12
1.1280945e-12
3.6384351e-13
7.1695747e-08
5.9301109e-08
4.8982951e-08
4.0409689e-08
3.329577e-08
2.7400314e-08
2.2520899e-08
1.8487653e-08
1.515819e-08
1.2413303e-08
1.0153318e-08
8.2950089e-09
6.7689725e-09
5.5174169e-09
4.4922862e-09
3.6536781e-09
2.9685088e-09
2.4093883e-09
1.9536738e-09
1.5826749e-09
1.2809862e-09
1.0359292e-09
8.3708451e-10
6.7590208e-10
5.4537584e-10
4.397731e-10
3.5440963e-10
2.8546318e-10
2.2981902e-10
1.8494224e-10
1.4877245e-10
1.1963692e-10
9.617924e-11
7.7300666e-11
6.2112093e-11
4.9894718e-11
4.0067903e-11
3.2162953e-11
2.5801748e-11
2.0679358e-11
1.6549911e-11
1.3215117e-11
1.0514968e-11
8.3201902e-12
6.5261332e-12
5.047814e-12
3.8159014e-12
2.7734539e-12
1.8732655e-12
1.0756961e-12
3.4688105e-13
6.6979673e-08
5.5446125e-08
4.5835306e-08
3.7842262e-08
3.1203723e-08
2.5697324e-08
2.1135974e-08
1.736248e-08
1.4244923e-08
1.167273e-08
9.553339e-09
7.8093743e-09
6.3762412e-09
5.2000934e-09
4.2361104e-09
3.4470388e-09
2.8019619e-09
2.2752599e-09
1.8457351e-09
1.4958749e-09
1.2112335e-09
9.7991242e-10
7.9212663e-10
6.3984078e-10
5.1646622e-10
4.1660834e-10
3.3585652e-10
2.7060969e-10
2.179317e-10
1.7543178e-10
1.4116565e-10
1.1355414e-10
9.1316079e-11
7.3413231e-11
5.9005088e-11
4.7411859e-11
3.8084204e-11
3.0578521e-11
2.4536802e-11
1.9670234e-11
1.5745855e-11
1.2575729e-11
1.0008151e-11
7.9205143e-12
6.2135387e-12
4.8065787e-12
3.6338251e-12
2.6412182e-12
1.7839347e-12
1.0243339e-12
3.3026088e-13
6.2370124e-08
5.1677788e-08
4.2758096e-08
3.5332045e-08
2.915811e-08
2.4031991e-08
1.9781567e-08
1.6262021e-08
1.3351656e-08
1.0948332e-08
8.9664336e-09
7.3343005e-09
5.9920358e-09
4.8896496e-09
3.9854829e-09
3.244872e-09
2.6390185e-09
2.1440336e-09
1.7401326e-09
1.4109549e-09
1.1429928e-09
9.2511146e-10
7.4814601e-10
6.0456474e-10
4.8818738e-10
3.9395014e-10
3.1771011e-10
2.5608265e-10
2.0630639e-10
1.6613155e-10
1.3372753e-10
1.0760669e-10
8.6561483e-11
6.961289e-11
5.5967952e-11
4.4985052e-11
3.6145471e-11
2.9030157e-11
2.3300781e-11
1.8684293e-11
1.4960364e-11
1.1951183e-11
9.513164e-12
7.5302248e-12
5.9083339e-12
4.5710866e-12
3.456117e-12
2.5121816e-12
1.6967849e-12
9.7423867e-13
3.1405707e-13
5.7898041e-08
4.8020984e-08
3.9771318e-08
3.2895095e-08
2.717181e-08
2.2414643e-08
1.8465951e-08
1.51929e-08
1.248369e-08
1.0244347e-08
8.3959886e-09
6.872492e-09
5.6185149e-09
4.587807e-09
3.741776e-09
3.0482709e-09
2.4805489e-09
2.016402e-09
1.637417e-09
1.3283524e-09
1.076612e-09
8.7180244e-10
7.0536179e-10
5.7024778e-10
4.6067714e-10
3.7190773e-10
3.0005696e-10
2.4195062e-10
1.9499736e-10
1.5708453e-10
1.2649211e-10
1.0182148e-10
8.193676e-11
6.5916502e-11
5.3014024e-11
4.2624848e-11
3.4260047e-11
2.752446e-11
2.2098898e-11
1.7725653e-11
1.4196686e-11
1.1344035e-11
9.0320148e-12
7.1508889e-12
5.6117325e-12
4.3422658e-12
3.2834713e-12
2.3868437e-12
1.6121507e-12
9.2560132e-13
2.983307e-13
5.3589514e-08
4.4496682e-08
3.6891808e-08
3.0544919e-08
2.5255656e-08
2.0853955e-08
1.7196073e-08
1.4160675e-08
1.1645468e-08
9.5643273e-09
7.8448397e-09
6.4262118e-09
5.2574835e-09
4.2960042e-09
3.5061358e-09
2.8581478e-09
2.3272792e-09
1.8929422e-09
1.5380471e-09
1.2484319e-09
1.0123802e-09
8.2021483e-10
6.6395593e-10
5.3703415e-10
4.3404981e-10
3.5057166e-10
2.8296873e-10
2.2827034e-10
1.840495e-10
1.4832624e-10
1.1948748e-10
9.6220737e-11
7.7459461e-11
6.2337941e-11
5.0154269e-11
4.0339911e-11
3.243478e-11
2.6066835e-11
2.0935423e-11
1.6797682e-11
1.3457473e-11
1.0756371e-11
8.5663385e-12
6.783782e-12
5.3247211e-12
4.1208693e-12
3.1164501e-12
2.2656086e-12
1.5303023e-12
8.7857554e-13
2.8313086e-13
4.9465684e-08
4.1121868e-08
3.4133201e-08
2.8292454e-08
2.341841e-08
1.9356948e-08
1.5977551e-08
1.3169839e-08
1.0840582e-08
8.9111405e-09
7.3152771e-09
5.9972871e-09
4.9103982e-09
4.0154021e-09
3.2794865e-09
2.6752383e-09
2.1797942e-09
1.7741192e-09
1.4423922e-09
1.1714866e-09
9.5053021e-10
7.7053311e-10
6.2407465e-10
5.0503967e-10
4.083971e-10
3.3001449e-10
2.6650286e-10
2.1508721e-10
1.7349871e-10
1.3988504e-10
1.1273605e-10
9.0822167e-11
7.3143585e-11
5.8888263e-11
4.7397417e-11
3.8137134e-11
3.0675109e-11
2.4661576e-11
1.981374e-11
1.5903047e-11
1.2744826e-11
1.018984e-11
8.1174257e-12
6.4299091e-12
5.0480759e-12
3.9074884e-12
2.9554941e-12
2.1487923e-12
1.4514505e-12
8.3328093e-13
2.6849554e-13
4.5542812e-08
3.7909613e-08
3.1505994e-08
2.6146119e-08
2.1666821e-08
1.7929027e-08
1.481471e-08
1.2223853e-08
1.0071799e-08
8.2869972e-09
6.8090654e-09
5.5871258e-09
4.5783817e-09
3.7468951e-09
3.0625405e-09
2.5001091e-09
2.0385447e-09
1.6602912e-09
1.3507367e-09
1.0977422e-09
8.9124093e-10
7.2289922e-10
5.8583041e-10
4.7435339e-10
3.8378947e-10
3.1029199e-10
2.5070342e-10
2.0243609e-10
1.6337255e-10
1.317827e-10
1.06255e-10
8.5639331e-11
6.8999832e-11
5.5575913e-11
4.475013e-11
3.6021772e-11
2.8985177e-11
2.331195e-11
1.8736423e-11
1.5043775e-11
1.2060336e-11
9.6456908e-12
7.6862515e-12
6.0900281e-12
4.782381e-12
3.7025673e-12
2.8009335e-12
2.0366309e-12
1.3757521e-12
7.8980622e-13
2.5445278e-13
4.183249e-08
3.4869253e-08
2.9017689e-08
2.411194e-08
2.0005726e-08
1.6574067e-08
1.3710658e-08
1.1325203e-08
9.3411067e-09
7.6934878e-09
6.3274754e-09
5.1967426e-09
4.2622436e-09
3.4911288e-09
2.8558118e-09
2.3331696e-09
1.9038564e-09
1.551717e-09
1.2632863e-09
1.027362e-09
8.3464189e-10
6.7741578e-10
5.493045e-10
4.4503966e-10
3.6027785e-10
2.9144441e-10
2.3560225e-10
1.9034212e-10
1.5369084e-10
1.2403488e-10
1.000567e-10
8.0681979e-11
6.5035892e-11
5.2406951e-11
4.2217184e-11
3.3997589e-11
2.7367949e-11
2.2020287e-11
1.7705306e-11
1.4221305e-11
1.1405132e-11
9.1248071e-12
7.2735057e-12
5.7646739e-12
4.5280473e-12
3.5064172e-12
2.6529988e-12
1.9292885e-12
1.3033159e-12
7.4821242e-13
2.4102168e-13
3.8341972e-08
3.2006654e-08
2.6673018e-08
2.2193726e-08
1.8438187e-08
1.5294532e-08
1.2667371e-08
1.0475478e-08
8.6497804e-09
7.1316332e-09
5.8713248e-09
4.8267917e-09
3.9625069e-09
3.2485208e-09
2.659634e-09
2.1746857e-09
1.7759409e-09
1.4485652e-09
1.1801749e-09
9.6045223e-10
7.8081749e-10
6.3414972e-10
5.1454993e-10
4.1714046e-10
3.3789544e-10
2.73498e-10
2.2122007e-10
1.7882165e-10
1.4446652e-10
1.1665177e-10
9.4149174e-11
7.5956439e-11
6.1256748e-11
4.93853e-11
3.9801667e-11
3.206701e-11
2.5825332e-11
2.0788088e-11
1.6721564e-11
1.3436559e-11
1.0779937e-11
8.627751e-12
6.8796246e-12
5.4541829e-12
4.2853321e-12
3.319232e-12
2.5118325e-12
1.8268656e-12
1.2342076e-12
7.0853612e-13
2.2821346e-13
3.5074581e-08
2.9324552e-08
2.4474205e-08
2.0393284e-08
1.696567e-08
1.409161e-08
1.1685813e-08
9.6754561e-09
7.99845e-09
6.6019428e-09
5.4410243e-09
4.477604e-09
3.6794378e-09
3.019285e-09
2.4741786e-09
2.0247947e-09
1.654908e-09
1.3509233e-09
1.1014723e-09
8.9706864e-10
7.2981198e-10
5.9313618e-10
4.8159458e-10
3.9067786e-10
3.1665971e-10
2.5646657e-10
2.0756778e-10
1.6788329e-10
1.3570635e-10
1.0963869e-10
8.8536619e-11
7.1466009e-11
5.7664988e-11
4.6512991e-11
3.7505171e-11
3.0231284e-11
2.4358302e-11
1.9616113e-11
1.5785794e-11
1.2689999e-11
1.0185108e-11
8.1548e-12
6.5048215e-12
5.158718e-12
4.0543579e-12
3.1411023e-12
2.3774998e-12
1.7294073e-12
1.1684559e-12
6.7079258e-13
2.1603249e-13
3.2030169e-08
2.6822939e-08
2.2421275e-08
1.8710657e-08
1.5588235e-08
1.2965369e-08
1.0766055e-08
8.925208e-09
7.3871814e-09
6.104477e-09
5.0366283e-09
4.1492273e-09
3.4130776e-09
2.8034566e-09
2.2994752e-09
1.8835213e-09
1.5407784e-09
1.2588084e-09
1.0271926e-09
8.3722254e-10
6.8163452e-10
5.5438252e-10
4.5044435e-10
3.6565656e-10
2.9657438e-10
2.4035306e-10
1.946477e-10
1.5752887e-10
1.2741175e-10
1.0299676e-10
8.3219893e-11
6.721135e-11
5.4261123e-11
4.3790415e-11
3.5327992e-11
2.8490635e-11
2.2967027e-11
1.8504489e-11
1.4898084e-11
1.1981693e-11
9.6206925e-12
7.7059858e-12
6.1491168e-12
4.8782911e-12
3.8351307e-12
2.9720297e-12
2.2499995e-12
1.6369106e-12
1.1060572e-12
6.3497872e-13
2.0447727e-13
2.9205606e-08
2.4499479e-08
2.0512383e-08
1.714438e-08
1.4304731e-08
1.1914914e-08
9.9074007e-09
8.2241942e-09
6.8155566e-09
5.6389117e-09
4.6578851e-09
3.8414663e-09
3.1632746e-09
2.6009177e-09
2.1354321e-09
1.7507943e-09
1.4334964e-09
1.172177e-09
9.5730165e-10
7.8088727e-10
6.362642e-10
5.1787234e-10
4.2108632e-10
3.420664e-10
2.7763144e-10
2.2515114e-10
1.8245482e-10
1.477544e-10
1.1957958e-10
9.6723471e-11
7.8196999e-11
6.3190873e-11
5.1043882e-11
4.1216556e-11
3.3269317e-11
2.6844412e-11
2.1650985e-11
1.7452794e-11
1.4058099e-11
1.1311366e-11
9.0864698e-12
7.2811304e-12
5.8123668e-12
4.6127864e-12
3.6275575e-12
2.8119403e-12
2.1292738e-12
1.5493319e-12
1.0469807e-12
6.0107592e-13
1.9354131e-13
2.659538e-08
2.2349847e-08
1.8744168e-08
1.5691736e-08
1.3113002e-08
1.0938545e-08
9.108517e-09
7.5713678e-09
6.282754e-09
5.2046017e-09
4.3042882e-09
3.553923e-09
2.929716e-09
2.4114225e-09
1.981856e-09
1.6264614e-09
1.3329422e-09
1.0909348e-09
8.9172525e-10
7.2800434e-10
5.9365494e-10
4.8356927e-10
3.9349181e-10
3.1988472e-10
2.5981299e-10
2.1084667e-10
1.7097796e-10
1.3855104e-10
1.1220283e-10
9.0813275e-11
7.3463546e-11
5.9401093e-11
4.8010502e-11
3.878922e-11
3.1327406e-11
2.5291228e-11
2.0409072e-11
1.6460151e-11
1.3265137e-11
1.0678462e-11
8.5819958e-12
6.8798798e-12
5.4942898e-12
4.3619805e-12
3.4314621e-12
2.6606967e-12
2.0152175e-12
1.4665934e-12
9.9117288e-13
5.6905262e-13
1.8321397e-13
2.4192898e-08
2.0367409e-08
1.711179e-08
1.4348961e-08
1.2010075e-08
1.0033918e-08
8.3675547e-09
6.9652718e-09
5.7876249e-09
4.8006415e-09
3.9751235e-09
3.2860343e-09
2.7119578e-09
2.2346207e-09
1.8384705e-09
1.5103047e-09
1.238944e-09
1.0149461e-09
8.3035632e-10
6.7848924e-10
5.5373997e-10
4.514206e-10
3.6761919e-10
2.9907864e-10
2.4309304e-10
1.9741911e-10
1.6020089e-10
1.2990595e-10
1.0527134e-10
8.5258138e-11
6.9013171e-11
5.5836974e-11
4.5156993e-11
3.6505246e-11
2.9499748e-11
2.3829095e-11
1.923971e-11
1.5525306e-11
1.2518204e-11
1.0082189e-11
8.1066423e-12
6.5017356e-12
5.194491e-12
4.1255616e-12
3.2466001e-12
2.5181093e-12
1.9076866e-12
1.3885896e-12
9.385615e-13
5.3886665e-13
1.7348127e-13
1.8545647e-08
1.5609173e-08
1.3111347e-08
1.0992302e-08
9.1981733e-09
7.6822631e-09
6.4041294e-09
5.328766e-09
4.4259223e-09
3.6695147e-09
3.0371076e-09
2.5094527e-09
2.0700797e-09
1.704934e-09
1.4020543e-09
1.1512882e-09
9.4404242e-10
7.7306167e-10
6.3223671e-10
5.1643616e-10
4.2136064e-10
3.4341652e-10
2.7960712e-10
2.2743917e-10
1.8484281e-10
1.5010332e-10
1.2180309e-10
9.8772434e-11
8.0048026e-11
6.4837936e-11
5.2492231e-11
4.2478378e-11
3.4360691e-11
2.7783222e-11
2.2455537e-11
1.8140936e-11
1.4646703e-11
1.1816065e-11
9.5215682e-12
7.6596327e-12
6.1460826e-12
4.9124842e-12
3.9031471e-12
3.0726722e-12
2.3839467e-12
1.806506e-12
1.3151926e-12
8.8905945e-13
5.1046736e-13
1.643265e-13
1.6872467e-08
1.422901e-08
1.1973584e-08
1.0055586e-08
8.4280936e-09
7.0500991e-09
5.8859283e-09
4.9045839e-09
4.0791824e-09
3.3864632e-09
2.8063527e-09
2.3215752e-09
1.9173049e-09
1.5808551e-09
1.3014004e-09
1.0697302e-09
8.7803002e-10
7.1968812e-10
5.8912565e-10
4.8164773e-10
3.9331365e-10
3.2082394e-10
2.6142281e-10
2.1281392e-10
1.7308817e-10
1.4066184e-10
1.1422396e-10
9.2691465e-11
7.5171352e-11
6.092867e-11
4.9359608e-11
3.9968914e-11
3.2351008e-11
2.6174225e-11
2.1167701e-11
1.7110489e-11
1.3822549e-11
1.1157298e-11
8.9954731e-12
7.2400744e-12
5.8122146e-12
4.6477118e-12
3.6942985e-12
2.909336e-12
2.257945e-12
1.7114759e-12
1.2462568e-12
8.4256795e-13
4.8379752e-13
1.5573087e-13
1.5343758e-08
1.2965286e-08
1.0930357e-08
9.1956073e-09
7.7202308e-09
6.4683226e-09
5.4084935e-09
4.5133533e-09
3.7590539e-09
3.1248845e-09
2.59291e-09
2.1476444e-09
1.7757568e-09
1.4658065e-09
1.2080048e-09
9.9400207e-10
8.1669701e-10
6.7006799e-10
5.4902334e-10
4.4926969e-10
3.6719656e-10
2.9977573e-10
2.4447373e-10
1.9917618e-10
1.6212266e-10
1.3185073e-10
1.0714819e-10
8.7012325e-11
7.0615372e-11
5.727529e-11
4.6431122e-11
3.762228e-11
3.0471192e-11
2.4668794e-11
1.9962446e-11
1.614588e-11
1.3050871e-11
1.0540341e-11
8.5026654e-12
6.8469871e-12
5.4993562e-12
4.3995621e-12
3.4985352e-12
2.7562167e-12
2.1398151e-12
1.6223783e-12
1.1816237e-12
7.9897945e-13
4.5879492e-13
1.4767403e-13
1.3950359e-08
1.1811147e-08
9.9761035e-09
8.4078787e-09
7.0709947e-09
5.9340726e-09
4.9695493e-09
4.1532661e-09
3.4641008e-09
2.883639e-09
2.3958755e-09
1.9869433e-09
1.6448669e-09
1.3593376e-09
1.1215105e-09
9.238209e-10
7.5981922e-10
6.2402375e-10
5.1178923e-10
4.1919073e-10
3.4292128e-10
2.8020216e-10
2.2870468e-10
1.8648227e-10
1.5191171e-10
1.2364262e-10
1.0055414e-10
8.1717883e-11
6.6366527e-11
5.3867063e-11
4.3698277e-11
3.543175e-11
2.8715915e-11
2.3262708e-11
1.8836429e-11
1.5244461e-11
1.2329572e-11
9.9635302e-12
8.0418272e-12
6.4793274e-12
5.2066825e-12
4.1673846e-12
3.3153463e-12
2.6129159e-12
2.0292504e-12
1.538982e-12
1.1211252e-12
7.5818015e-13
4.3539384e-13
1.4013453e-13
1.2682773e-08
1.0759361e-08
9.1050903e-09
7.6878179e-09
6.4767249e-09
5.4444304e-09
4.5667715e-09
3.8224731e-09
3.1928532e-09
2.6615586e-09
2.2143214e-09
1.8387353e-09
1.5240506e-09
1.2609846e-09
1.0415496e-09
8.58895e-10
7.0716543e-10
5.8137212e-10
4.7727809e-10
3.9129582e-10
3.2039667e-10
2.6203104e-10
2.1405852e-10
1.7468694e-10
1.424195e-10
1.1600916e-10
9.4419339e-11
7.679036e-11
6.241074e-11
5.0692843e-11
4.1152247e-11
3.3390334e-11
2.7079642e-11
2.1951582e-11
1.7786174e-11
1.4403477e-11
1.1656468e-11
9.4251356e-12
7.6115878e-12
6.1360102e-12
4.9333358e-12
3.9505029e-12
3.144201e-12
2.4790201e-12
1.9259324e-12
1.4610468e-12
1.0645869e-12
7.2005211e-13
4.1352629e-13
1.3309022e-13
1.1531738e-08
9.8026645e-09
8.3115572e-09
7.0308324e-09
5.9337565e-09
4.996473e-09
4.1978308e-09
3.5191192e-09
2.9438345e-09
2.4574688e-09
2.0473138e-09
1.7022783e-09
1.4127183e-09
1.1702793e-09
9.677503e-10
7.9892939e-10
6.585016e-10
5.4192748e-10
4.4534272e-10
3.6546826e-10
2.9953023e-10
2.4518908e-10
2.0047716e-10
1.6374417e-10
1.3360958e-10
1.0892146e-10
8.8720933e-11
7.2211643e-11
5.8733665e-11
4.7741266e-11
3.8784031e-11
3.14909e-11
2.555672e-11
2.0730938e-11
1.6808133e-11
1.3620114e-11
1.1029328e-11
8.9233895e-12
7.2105468e-12
5.8159268e-12
4.6784396e-12
3.7482259e-12
2.9845566e-12
2.3541063e-12
1.8295359e-12
1.3883278e-12
1.0118311e-12
6.8447517e-13
3.93123e-13
1.2651857e-13
1.048829e-08
8.9339306e-09
7.5898311e-09
6.4323971e-09
5.4384778e-09
4.5873179e-09
3.8604276e-09
3.2413714e-09
2.7155844e-09
2.2702068e-09
1.8939273e-09
1.5768358e-09
1.3102845e-09
1.0867564e-09
8.9974288e-10
7.4363032e-10
6.135945e-10
5.0550469e-10
4.1583619e-10
3.4159148e-10
2.8022952e-10
2.2960297e-10
1.8790248e-10
1.5360788e-10
1.2544542e-10
1.0235059e-10
8.3435979e-11
6.7963555e-11
5.5320898e-11
4.5000918e-11
3.6584581e-11
2.9726279e-11
2.4141468e-11
1.9596269e-11
1.5898733e-11
1.2891541e-11
1.0445907e-11
8.4565114e-12
6.8372929e-12
5.5179596e-12
4.4411104e-12
3.5598571e-12
2.8358665e-12
2.2377488e-12
1.7397331e-12
1.3205783e-12
9.6267863e-13
6.5132838e-13
3.7411435e-13
1.2039697e-13
9.5438154e-09
8.1462699e-09
6.934409e-09
5.8881154e-09
4.9873758e-09
4.2141589e-09
3.5523216e-09
2.9874416e-09
2.5066767e-09
2.0986355e-09
1.7532559e-09
1.4616867e-09
1.216175e-09
1.0099588e-09
8.3716392e-10
6.9270888e-10
5.722145e-10
4.7192132e-10
3.8861364e-10
3.1955044e-10
2.6240322e-10
2.1520023e-10
1.7627698e-10
1.4423247e-10
1.1789085e-10
9.6267858e-11
7.8541735e-11
6.4028064e-11
5.2158144e-11
4.2460465e-11
3.4544912e-11
2.8089344e-11
2.2828234e-11
1.8543095e-11
1.505442e-11
1.2214937e-11
9.9039679e-12
8.022728e-12
6.4904206e-12
5.2409956e-12
4.2204678e-12
3.3847021e-12
2.6975856e-12
2.129523e-12
1.6561976e-12
1.2575522e-12
9.169513e-13
6.2049133e-13
3.5643104e-13
1.1470291e-13
8.6901042e-09
7.4330964e-09
6.3400159e-09
5.3937652e-09
4.5770721e-09
3.874294e-09
3.2713526e-09
2.7556042e-09
2.3157333e-09
1.9416553e-09
1.6244225e-09
1.3561314e-09
1.1298325e-09
9.3944261e-10
7.7966001e-10
6.4588383e-10
5.3413789e-10
4.4099948e-10
3.6353364e-10
2.9923279e-10
2.4596208e-10
2.0191e-10
1.6554438e-10
1.3557326e-10
1.1091042e-10
9.0645139e-11
7.4015882e-11
6.0387464e-11
4.9231355e-11
4.0108763e-11
3.2656183e-11
2.6573082e-11
2.1611455e-11
1.7567002e-11
1.4271691e-11
1.1587524e-11
9.4013062e-12
7.6202894e-12
6.1685422e-12
4.9839353e-12
4.0156425e-12
3.2220753e-12
2.5691757e-12
2.0290095e-12
1.5786067e-12
1.1990068e-12
8.7447299e-13
5.9184515e-13
3.4000471e-13
1.0941423e-13
7.9193969e-09
6.7881719e-09
5.8016442e-09
4.9453307e-09
4.2043487e-09
3.5651457e-09
3.0154574e-09
2.5442084e-09
2.1414345e-09
1.7982116e-09
1.5065849e-09
1.2594977e-09
1.0507207e-09
8.747804e-10
7.2689041e-10
6.0288375e-10
4.9914854e-10
4.1256716e-10
3.4045935e-10
2.8052969e-10
2.3081956e-10
1.8966349e-10
1.5565005e-10
1.2758686e-10
1.0446966e-10
8.5455057e-11
6.9836686e-11
5.7024503e-11
4.6526836e-11
3.7934943e-11
3.0909768e-11
2.5170647e-11
2.0485695e-11
1.6663673e-11
1.3547121e-11
1.1006582e-11
8.9357628e-12
7.2474824e-12
5.8702989e-12
4.7457018e-12
3.8257823e-12
3.0713044e-12
2.4501088e-12
1.935797e-12
1.5066441e-12
1.1447038e-12
8.3507106e-13
5.6527334e-13
3.2476838e-13
1.0450923e-13
7.2244164e-09
6.2056341e-09
5.3145786e-09
4.5390234e-09
3.8661641e-09
3.2842744e-09
2.7826805e-09
2.3516878e-09
1.9825262e-09
1.667301e-09
1.3989407e-09
1.1711446e-09
9.7832749e-10
8.1556333e-10
6.78529e-10
5.6344857e-10
4.670392e-10
3.8645923e-10
3.1925928e-10
2.6333648e-10
2.1689238e-10
1.7839447e-10
1.4654131e-10
1.2023138e-10
9.8535291e-11
8.0671166e-11
6.5983137e-11
5.392249e-11
4.4031332e-11
3.5928475e-11
2.9297304e-11
2.3875396e-11
1.9445679e-11
1.582892e-11
1.2877381e-11
1.0469468e-11
8.5052387e-12
6.9026405e-12
5.5943681e-12
4.5252467e-12
3.6500576e-12
2.9317346e-12
2.3398708e-12
1.8494848e-12
1.4400015e-12
1.0944114e-12
7.9857731e-13
5.4066241e-13
3.1065683e-13
9.9966803e-14
6.5983838e-09
5.6800116e-09
4.8744096e-09
4.1712937e-09
3.5596643e-09
3.029387e-09
2.5711809e-09
2.1765653e-09
1.8378244e-09
1.5479748e-09
1.3007304e-09
1.0904642e-09
9.12167e-10
7.6140308e-10
6.3426561e-10