/*--------------------------------*- C++ -*----------------------------------*\
| =========                 |                                                 |
| \\      /  F ield         | OpenFOAM: The Open Source CFD Toolbox           |
|  \\    /   O peration     | Version:  2312                                  |
|   \\  /    A nd           | Website:  www.openfoam.com                      |
|    \\/     M anipulation  |                                                 |
\*---------------------------------------------------------------------------*/
FoamFile
{
    version     2.0;
    format      ascii;
    arch        "LSB;label=32;scalar=64";
    class       volScalarField;
    location    "0.02";
    object      CO2;
}
// * * * * * * * * * * * * * * * * * * * * * * * * * * * * * * * * * * * * * //

dimensions      [0 0 0 0 0 0 0];

internalField   nonuniform List<scalar> 
3257
(
1.8794153e-05
1.616754e-05
1.3890787e-05
1.1920559e-05
1.0217851e-05
8.7482113e-06
7.4813345e-06
6.390617e-06
5.4527394e-06
4.6472914e-06
3.956434e-06
3.3645983e-06
2.8582156e-06
2.4254777e-06
2.056123e-06
1.7412465e-06
1.4731318e-06
1.2451021e-06
1.0513879e-06
8.8701182e-07
7.4768521e-07
6.2971866e-07
5.2994271e-07
4.4563851e-07
3.7447708e-07
3.144663e-07
2.6390455e-07
2.2134039e-07
1.8553749e-07
1.5544414e-07
1.3016688e-07
1.0894764e-07
9.1144006e-08
7.6212197e-08
6.3692433e-08
5.3196328e-08
4.4396097e-08
3.7015295e-08
3.0820911e-08
2.5616605e-08
2.1236948e-08
1.7542515e-08
1.4415707e-08
1.1757212e-08
9.4829867e-09
7.5217055e-09
5.8125935e-09
4.3035876e-09
2.949778e-09
1.7120853e-09
5.5613609e-10
1.9022318e-05
1.6362983e-05
1.4058091e-05
1.2063653e-05
1.0340117e-05
8.8525657e-06
7.5702991e-06
6.4663722e-06
5.5171697e-06
4.7020239e-06
4.0028724e-06
3.4039521e-06
2.8915257e-06
2.4536388e-06
2.0799029e-06
1.7613034e-06
1.4900292e-06
1.2593216e-06
1.0633407e-06
8.9704834e-07
7.5610379e-07
6.3677288e-07
5.3584781e-07
4.5057692e-07
3.7860324e-07
3.1791074e-07
2.6677745e-07
2.2373463e-07
1.8753125e-07
1.5710317e-07
1.3154637e-07
1.1009389e-07
9.2095773e-08
7.7001921e-08
6.4347212e-08
5.3738776e-08
4.4845059e-08
3.7386458e-08
3.1127313e-08
2.5869064e-08
2.1444425e-08
1.7712413e-08
1.4554128e-08
1.1869165e-08
9.572561e-09
7.5922196e-09
5.866711e-09
4.3434153e-09
2.9769428e-09
1.7277925e-09
5.6121016e-10
1.9456666e-05
1.6735657e-05
1.4377397e-05
1.2336905e-05
1.0573679e-05
9.0519644e-06
7.7403278e-06
6.6111819e-06
5.6403517e-06
4.8066814e-06
4.0916837e-06
3.4792256e-06
2.9552486e-06
2.5075194e-06
2.1254078e-06
1.79969e-06
1.522374e-06
1.2865448e-06
1.0862282e-06
9.1626991e-07
7.722297e-07
6.5028794e-07
5.4716356e-07
4.6004226e-07
3.865135e-07
3.245156e-07
2.722877e-07
2.2832797e-07
1.9135731e-07
1.6028776e-07
1.3419515e-07
1.1229548e-07
9.3924409e-08
7.8519718e-08
6.5606077e-08
5.4782032e-08
4.5708822e-08
3.8100793e-08
3.1717214e-08
2.6355276e-08
2.1844131e-08
1.8039818e-08
1.4820938e-08
1.2084989e-08
9.7452529e-09
7.7281481e-09
5.9709931e-09
4.420104e-09
3.0291811e-09
1.757939e-09
5.7093803e-10
2.0075286e-05
1.7266541e-05
1.4832351e-05
1.27263e-05
1.0906551e-05
9.3361693e-06
7.9826826e-06
6.8175955e-06
5.8159386e-06
4.9558626e-06
4.2182757e-06
3.5865186e-06
3.0460752e-06
2.5843149e-06
2.1902632e-06
1.854398e-06
1.5684694e-06
1.3253398e-06
1.118843e-06
9.436596e-07
7.952073e-07
6.6954458e-07
5.6328596e-07
4.7352774e-07
3.9778307e-07
3.3392513e-07
2.801376e-07
2.3487151e-07
1.9680772e-07
1.6482431e-07
1.379684e-07
1.1543168e-07
9.6529342e-08
8.0681871e-08
6.7399394e-08
5.626823e-08
4.6939343e-08
3.9118464e-08
3.2557633e-08
2.704799e-08
2.2413616e-08
1.8506304e-08
1.5201097e-08
1.2392511e-08
9.9913205e-09
7.9218351e-09
6.1195896e-09
4.5293848e-09
3.1036249e-09
1.800905e-09
5.848068e-10
2.0858577e-05
1.7938747e-05
1.5408429e-05
1.3219371e-05
1.1328051e-05
9.6960374e-06
8.2895486e-06
7.0789407e-06
6.0382397e-06
5.1447191e-06
4.3785219e-06
3.7223227e-06
3.1610258e-06
2.6814974e-06
2.2723266e-06
1.9236134e-06
1.6267812e-06
1.3744102e-06
1.1600911e-06
9.7829493e-07
8.2425956e-07
6.9388898e-07
5.8366535e-07
4.9057175e-07
4.120246e-07
3.458146e-07
2.9005517e-07
2.4313763e-07
2.0369213e-07
1.7055378e-07
1.4273333e-07
1.1939174e-07
9.9818246e-08
8.3411479e-08
6.9663167e-08
5.8144157e-08
4.8492425e-08
4.0402805e-08
3.3618203e-08
2.7922105e-08
2.3132189e-08
1.9094878e-08
1.5680725e-08
1.2780475e-08
1.0301739e-08
8.1661633e-09
6.3070301e-09
4.6672276e-09
3.1975236e-09
1.8550994e-09
6.0230045e-10
2.178857e-05
1.8736812e-05
1.6092332e-05
1.38047e-05
1.1828382e-05
1.0123176e-05
8.653744e-06
7.3890786e-06
6.3020133e-06
5.3687802e-06
4.5686134e-06
3.8833959e-06
3.297344e-06
2.7967257e-06
2.3696116e-06
2.0056526e-06
1.6958839e-06
1.4325504e-06
1.2089536e-06
1.019316e-06
8.5866136e-07
7.2271026e-07
6.0778761e-07
5.10742e-07
4.2887496e-07
3.5987923e-07
3.0178484e-07
2.529122e-07
2.1183129e-07
1.7732624e-07
1.4836464e-07
1.2407099e-07
1.0370378e-07
8.6635718e-08
7.2336721e-08
6.0359312e-08
5.0326077e-08
4.1918946e-08
3.4870011e-08
2.89537e-08
2.3980108e-08
1.9789313e-08
1.624655e-08
1.323811e-08
1.0667863e-08
8.454305e-09
6.5280599e-09
4.8297558e-09
3.3082274e-09
1.9189871e-09
6.2292041e-10
2.2848653e-05
1.9646434e-05
1.6871764e-05
1.447172e-05
1.2398478e-05
1.0609814e-05
9.0686141e-06
7.7423172e-06
6.6023963e-06
5.623895e-06
4.785011e-06
4.0667242e-06
3.4524653e-06
2.9278202e-06
2.4802677e-06
2.0989463e-06
1.774448e-06
1.4986351e-06
1.2644793e-06
1.0659192e-06
8.9773465e-07
7.5543686e-07
6.3517141e-07
5.3363352e-07
4.4799375e-07
3.7583316e-07
3.1508675e-07
2.6399414e-07
2.2105678e-07
1.8500072e-07
1.5474443e-07
1.2937092e-07
1.0810369e-07
9.0285953e-08
7.5362844e-08
6.2866045e-08
5.2400658e-08
4.3633951e-08
3.6285733e-08
3.0120153e-08
2.4938698e-08
2.0574246e-08
1.6886002e-08
1.3755207e-08
1.1081491e-08
8.7797818e-09
6.7776902e-09
5.0132865e-09
3.4332178e-09
1.9911082e-09
6.4619261e-10
2.4023326e-05
2.0654273e-05
1.7735251e-05
1.5210574e-05
1.3029878e-05
1.1148696e-05
9.5279454e-06
8.1333403e-06
6.9348449e-06
5.9061845e-06
5.0244065e-06
4.2694891e-06
3.6239914e-06
3.0727421e-06
2.6025635e-06
2.2020256e-06
1.8612286e-06
1.5716104e-06
1.3257769e-06
1.1173517e-06
9.4084405e-07
7.9153307e-07
6.6536554e-07
5.5886663e-07
4.6906176e-07
3.9340829e-07
3.297359e-07
2.761948e-07
2.3121054e-07
1.934449e-07
1.6176203e-07
1.3519904e-07
1.1294073e-07
9.4297744e-08
7.8687813e-08
6.5619611e-08
5.4678937e-08
4.551688e-08
3.7839702e-08
3.1400211e-08
2.5990409e-08
2.143524e-08
1.7587268e-08
1.4322172e-08
1.1534915e-08
9.1365018e-09
7.0512291e-09
5.2143555e-09
3.5701253e-09
2.0700892e-09
6.7167116e-10
2.5298023e-05
2.1747788e-05
1.8672008e-05
1.6011997e-05
1.371463e-05
1.1733005e-05
1.0025899e-05
8.5571526e-06
7.2950899e-06
6.2120037e-06
5.2836916e-06
4.4890427e-06
3.8096687e-06
3.2295758e-06
2.7348725e-06
2.3135109e-06
1.9550568e-06
1.6504871e-06
1.3920099e-06
1.1729068e-06
9.8739331e-07
8.3049632e-07
6.9794676e-07
5.8608526e-07
4.9177973e-07
4.1235329e-07
3.4552146e-07
2.8933744e-07
2.4214454e-07
2.0253493e-07
1.6931388e-07
1.4146881e-07
1.1814266e-07
9.8610817e-08
8.2261388e-08
6.8578174e-08
5.7126115e-08
4.7538824e-08
3.9507935e-08
3.2774022e-08
2.7118853e-08
2.2358816e-08
1.8339318e-08
1.4930047e-08
1.2020941e-08
9.5187812e-09
7.3442995e-09
5.429732e-09
3.7167407e-09
2.1546501e-09
6.9894063e-10
2.6658977e-05
2.2915129e-05
1.9671846e-05
1.6867236e-05
1.4445225e-05
1.2356303e-05
1.0556963e-05
9.0090393e-06
7.6791031e-06
6.5379149e-06
5.5599355e-06
4.7228891e-06
4.0073743e-06
3.3965174e-06
2.8756635e-06
2.4321038e-06
2.0548331e-06
1.7343347e-06
1.4623921e-06
1.2319209e-06
1.0368227e-06
8.7185501e-07
7.3251816e-07
6.1495568e-07
5.158673e-07
4.324329e-07
3.6224614e-07
3.0325678e-07
2.5372044e-07
2.1215509e-07
1.7730326e-07
1.4809948e-07
1.236421e-07
1.03169e-07
8.6036779e-08
7.1702794e-08
5.9709817e-08
4.96729e-08
4.1268147e-08
3.4223147e-08
2.8308815e-08
2.3332465e-08
1.9131924e-08
1.557053e-08
1.2532904e-08
9.9213553e-09
7.652849e-09
5.6564257e-09
3.8710202e-09
2.2436071e-09
7.2761717e-10
2.8093125e-05
2.4145055e-05
2.0725102e-05
1.7767995e-05
1.5214546e-05
1.3012495e-05
1.111592e-05
9.4845399e-06
8.0830755e-06
6.880669e-06
5.8503697e-06
4.9686721e-06
4.2151052e-06
3.5718658e-06
3.0234936e-06
2.5565821e-06
2.1595228e-06
1.8222788e-06
1.5361848e-06
1.2937709e-06
1.0886072e-06
9.1516714e-07
7.6870802e-07
6.4516559e-07
5.4106236e-07
4.5342731e-07
3.7972579e-07
3.1779868e-07
2.6580934e-07
2.2219765e-07
1.8564023e-07
1.55016e-07
1.2937647e-07
1.0792017e-07
8.9970603e-08
7.4957392e-08
6.2400072e-08
5.1894241e-08
4.3099739e-08
3.5730556e-08
2.9546251e-08
2.4344653e-08
1.9955657e-08
1.6235973e-08
1.3064665e-08
1.0339381e-08
7.9731522e-09
5.8916897e-09
4.0310874e-09
2.3358742e-09
7.5734891e-10
2.9588055e-05
2.5426889e-05
2.1822603e-05
1.8706402e-05
1.6015845e-05
1.3695801e-05
1.1697827e-05
9.9794321e-06
8.5034037e-06
7.2371945e-06
6.1523791e-06
5.2241678e-06
4.4309721e-06
3.7540183e-06
3.1770045e-06
2.6857957e-06
2.2681536e-06
1.9134979e-06
1.6126952e-06
1.3578728e-06
1.1422551e-06
9.6001929e-07
8.0616904e-07
6.7642352e-07
5.6712054e-07
4.7513181e-07
3.9778911e-07
3.3281991e-07
2.7829154e-07
2.3256271e-07
1.9424146e-07
1.6214891e-07
1.3528795e-07
1.1281619e-07
9.4022836e-08
7.8308721e-08
6.5169287e-08
5.4179977e-08
4.4983779e-08
3.7280611e-08
3.0818281e-08
2.5384805e-08
2.0801884e-08
1.6919379e-08
1.3610618e-08
1.0768435e-08
8.3018089e-09
6.1330184e-09
4.1952322e-09
2.4304623e-09
7.8781577e-10
3.1131975e-05
2.6750497e-05
2.2955647e-05
1.9674993e-05
1.6842728e-05
1.440075e-05
1.2298007e-05
1.0489723e-05
8.9366833e-06
7.6045918e-06
6.4634974e-06
5.4872807e-06
4.6531966e-06
3.9414673e-06
3.3349199e-06
2.8186654e-06
2.379814e-06
2.0072231e-06
1.6912751e-06
1.423681e-06
1.1973077e-06
1.0060262e-06
8.4457791e-07
7.0845846e-07
5.9381487e-07
4.9735655e-07
4.1627738e-07
3.4818791e-07
2.9105646e-07
2.4315806e-07
2.0303012e-07
1.6943428e-07
1.4132333e-07
1.1781286e-07
9.815676e-08
8.1726311e-08
6.7992206e-08
5.6509195e-08
4.6902981e-08
3.885905e-08
3.2113167e-08
2.6443298e-08
2.1662755e-08
1.761439e-08
1.4165668e-08
1.1204505e-08
8.6357382e-09
6.378144e-09
4.3619079e-09
2.5264777e-09
8.1872886e-10
3.2713711e-05
2.8106273e-05
2.4115992e-05
2.0666703e-05
1.7689147e-05
1.5122171e-05
1.2912046e-05
1.1011648e-05
9.3797067e-06
7.9801319e-06
6.7814052e-06
5.7560421e-06
4.8801101e-06
4.1328e-06
3.496045e-06
2.954182e-06
2.4936525e-06
2.1027369e-06
1.7713208e-06
1.490688e-06
1.2533388e-06
1.0528302e-06
8.8363501e-07
7.4101959e-07
6.2093561e-07
5.1992628e-07
4.3504434e-07
3.637807e-07
3.0400246e-07
2.5389907e-07
2.1193582e-07
1.7681357e-07
1.4743401e-07
1.2286981e-07
1.023389e-07
8.5182424e-08
7.0845863e-08
5.8862904e-08
4.8841662e-08
4.0452948e-08
3.3420285e-08
2.751143e-08
2.253118e-08
1.8315274e-08
1.4725231e-08
1.1643981e-08
8.9721703e-09
6.6250293e-09
4.5297268e-09
2.6231193e-09
8.4982954e-10
3.4322704e-05
2.9485156e-05
2.5295866e-05
2.1674878e-05
1.8549411e-05
1.5855203e-05
1.3535794e-05
1.154167e-05
9.8294646e-06
8.3612569e-06
7.1039312e-06
6.0286112e-06
5.1101536e-06
4.3266982e-06
3.6592664e-06
3.0914063e-06
2.6088778e-06
2.1993735e-06
1.8522726e-06
1.5584239e-06
1.3099544e-06
1.1001013e-06
9.2306421e-07
7.7387613e-07
6.4829005e-07
5.4268023e-07
4.5395599e-07
3.7948672e-07
3.170367e-07
2.6470858e-07
2.2089445e-07
1.8423355e-07
1.5357582e-07
1.2795045e-07
1.0653895e-07
8.865198e-08
7.3709524e-08
6.1223982e-08
5.0785705e-08
4.2050685e-08
3.4730096e-08
2.85814e-08
2.340081e-08
1.90169e-08
1.5285206e-08
1.2083641e-08
9.3086354e-09
6.8718598e-09
4.6974539e-09
2.719675e-09
8.8088831e-10
3.5949034e-05
3.087863e-05
2.6487974e-05
2.2693274e-05
1.9418183e-05
1.659529e-05
1.4165371e-05
1.2076486e-05
1.0283148e-05
8.745582e-06
7.4290533e-06
6.3032756e-06
5.3418793e-06
4.5219388e-06
3.8235525e-06
3.2294694e-06
2.724759e-06
2.2965186e-06
1.933615e-06
1.6264566e-06
1.3667927e-06
1.147537e-06
9.6261272e-07
8.068171e-07
6.7570231e-07
5.6547193e-07
4.7289046e-07
3.9520462e-07
3.30075e-07
2.755167e-07
2.2984805e-07
1.9164622e-07
1.5970901e-07
1.3302188e-07
1.107297e-07
9.2112486e-08
7.6564619e-08
6.3577118e-08
5.27225e-08
4.3641899e-08
3.6034106e-08
2.9646268e-08
2.4266003e-08
1.9714719e-08
1.5841961e-08
1.2520632e-08
9.6429509e-09
7.1170341e-09
4.8640006e-09
2.815518e-09
9.1170336e-10
3.7583428e-05
3.2278748e-05
2.7685511e-05
2.3716074e-05
2.0290496e-05
1.7338198e-05
1.4797168e-05
1.2613027e-05
1.0738152e-05
9.1308978e-06
7.7549003e-06
6.5784529e-06
5.5739505e-06
4.7173946e-06
3.9879538e-06
3.3675725e-06
2.8406249e-06
2.3936092e-06
2.0148763e-06
1.6943913e-06
1.4235236e-06
1.1948617e-06
1.0020508e-06
8.3965108e-07
7.0301308e-07
5.8816891e-07
4.917377e-07
4.1084309e-07
3.4304164e-07
2.862607e-07
2.3874467e-07
1.9900858e-07
1.6579802e-07
1.3805471e-07
1.1488689e-07
9.5543943e-08
7.9394666e-08
6.5908738e-08
5.4640889e-08
4.5217432e-08
3.7324818e-08
3.069992e-08
2.5121799e-08
2.0404732e-08
1.639231e-08
1.2952455e-08
9.9732068e-09
7.3591525e-09
5.0284168e-09
2.9101016e-09
9.4209911e-10
3.9217285e-05
3.3678138e-05
2.8882171e-05
2.473789e-05
2.1161756e-05
1.8080011e-05
1.5427857e-05
1.3148467e-05
1.1192077e-05
9.5151723e-06
8.0797536e-06
6.8526914e-06
5.8051428e-06
4.9120345e-06
4.1516032e-06
3.5049872e-06
2.9558648e-06
2.4901336e-06
2.0956283e-06
1.7618704e-06
1.4798488e-06
1.2418267e-06
1.0411713e-06
8.7220588e-07
7.3007929e-07
6.1065245e-07
5.1039928e-07
4.2632058e-07
3.5586912e-07
2.9688474e-07
2.4753818e-07
2.0628252e-07
1.7181141e-07
1.4302302e-07
1.1898916e-07
9.8928745e-08
8.2185177e-08
6.8206938e-08
5.65311e-08
4.6769277e-08
3.8595688e-08
3.1737026e-08
2.5963879e-08
2.1083464e-08
1.6933487e-08
1.3376947e-08
1.0297751e-08
7.5970057e-09
5.1898826e-09
3.002955e-09
9.7192458e-10
4.0842683e-05
3.507002e-05
3.0072159e-05
2.5753777e-05
2.2027747e-05
1.8817143e-05
1.6054388e-05
1.3680217e-05
1.1642733e-05
9.8965514e-06
8.4020469e-06
7.1246702e-06
6.0343438e-06
5.1049228e-06
4.3137149e-06
3.6410549e-06
3.069927e-06
2.5856307e-06
2.1754861e-06
1.8285727e-06
1.5355008e-06
1.2882094e-06
1.0797893e-06
9.04328e-07
7.5677371e-07
6.3281714e-07
5.2878797e-07
4.4156496e-07
3.6849786e-07
3.0733966e-07
2.56188e-07
2.1343462e-07
1.7772164e-07
1.4790414e-07
1.2301784e-07
1.0225156e-07
8.4923563e-08
7.0461387e-08
5.8384669e-08
4.8290513e-08
3.9841069e-08
3.2752995e-08
2.6788527e-08
2.1747934e-08
1.7463123e-08
1.3792253e-08
1.061517e-08
7.8295618e-09
5.3476997e-09
3.0936779e-09
1.0010517e-09
4.2452393e-05
3.6448211e-05
3.1250195e-05
2.6759232e-05
2.2884635e-05
1.9546335e-05
1.6673995e-05
1.4205934e-05
1.2088134e-05
1.0273359e-05
8.7203661e-06
7.3931982e-06
6.260552e-06
5.2952187e-06
4.4735842e-06
3.7751855e-06
3.1823184e-06
2.6796889e-06
2.2541064e-06
1.8942126e-06
1.5902422e-06
1.3338129e-06
1.1177416e-06
9.3588213e-07
7.8298436e-07
6.5457044e-07
5.4682736e-07
4.5651321e-07
3.808759e-07
3.1758263e-07
2.6465892e-07
2.2043588e-07
1.8350489e-07
1.5267849e-07
1.2695688e-07
1.0549922e-07
8.7599025e-08
7.2663243e-08
6.0194365e-08
4.9775237e-08
4.1056156e-08
3.3743927e-08
2.7592596e-08
2.2395616e-08
1.7979216e-08
1.4196812e-08
1.0924277e-08
8.0559542e-09
5.5012825e-09
3.181935e-09
1.0293734e-09
4.4039881e-05
3.7807124e-05
3.2411512e-05
2.7750196e-05
2.3728966e-05
2.0264652e-05
1.7284192e-05
1.4723512e-05
1.2526501e-05
1.0644093e-05
9.0334469e-06
7.6572123e-06
6.4828749e-06
5.4821743e-06
4.6305851e-06
3.9068562e-06
3.2926028e-06
2.7719448e-06
2.3311874e-06
1.9585394e-06
1.6438648e-06
1.3784647e-06
1.1548854e-06
9.6675041e-07
8.0861395e-07
6.7583213e-07
5.6445135e-07
4.7111091e-07
3.929585e-07
3.2757691e-07
2.7292074e-07
2.2726156e-07
1.8914085e-07
1.5732944e-07
1.3079265e-07
1.0866056e-07
9.020244e-08
7.4805055e-08
6.195411e-08
5.1218499e-08
4.2236925e-08
3.4706564e-08
2.837346e-08
2.3024411e-08
1.8480103e-08
1.4589329e-08
1.1224088e-08
8.2754679e-09
5.650149e-09
3.2674514e-09
1.0568023e-09
4.5599301e-05
3.914177e-05
3.3551857e-05
2.8723046e-05
2.4557664e-05
2.0969486e-05
1.7882767e-05
1.5231081e-05
1.2956256e-05
1.1007425e-05
9.3401715e-06
7.9157742e-06
6.7005264e-06
5.665132e-06
4.7841686e-06
4.0356092e-06
3.4003993e-06
2.8620818e-06
2.4064661e-06
2.0213352e-06
1.6961886e-06
1.422016e-06
1.1910978e-06
9.9683158e-07
8.3357913e-07
6.9653366e-07
5.8160364e-07
4.8531185e-07
4.0470775e-07
3.3729144e-07
2.8094802e-07
2.3389082e-07
1.946125e-07
1.6184307e-07
1.3451379e-07
1.1172631e-07
9.2726248e-08
7.6880662e-08
6.365889e-08
5.2616224e-08
4.3380075e-08
3.5638241e-08
2.9128977e-08
2.3632608e-08
1.8964436e-08
1.4968756e-08
1.1513811e-08
8.487527e-09
5.793912e-09
3.3500063e-09
1.0832683e-09
4.7125488e-05
4.0447743e-05
3.4667477e-05
2.9674592e-05
2.5368019e-05
2.1658538e-05
1.8467776e-05
1.5727001e-05
1.3376018e-05
1.1362193e-05
9.6395644e-06
8.1680668e-06
6.912823e-06
5.8435214e-06
4.9338595e-06
4.1610493e-06
3.5053797e-06
2.949828e-06
2.4797174e-06
2.082414e-06
1.7470602e-06
1.4643403e-06
1.226275e-06
1.0260402e-06
8.5780972e-07
7.1661749e-07
5.982371e-07
4.9907748e-07
4.1609214e-07
3.4670047e-07
2.8871977e-07
2.4030654e-07
1.9990587e-07
1.6620801e-07
1.3811104e-07
1.1468895e-07
9.5164324e-08
7.8885089e-08
6.5304669e-08
5.3965147e-08
4.4482968e-08
3.6536833e-08
2.9857446e-08
2.4218856e-08
1.9431148e-08
1.5334269e-08
1.1792823e-08
8.6916812e-09
5.9322699e-09
3.4294289e-09
1.1087177e-09
4.8613942e-05
4.1721207e-05
3.5755107e-05
3.060206e-05
2.6157678e-05
2.2329817e-05
1.9037537e-05
1.6209853e-05
1.3784593e-05
1.1707394e-05
9.9307863e-06
8.4133886e-06
7.1191798e-06
6.0168555e-06
5.079253e-06
4.2828408e-06
3.6072661e-06
3.0349537e-06
2.550752e-06
2.1416198e-06
1.7963511e-06
1.5053324e-06
1.2603304e-06
1.0543054e-06
8.812479e-07
7.3603639e-07
6.1431319e-07
5.1237639e-07
4.270861e-07
3.557832e-07
2.9621907e-07
2.4649498e-07
2.0500982e-07
1.7041522e-07
1.4157706e-07
1.1754252e-07
9.751186e-08
8.0814451e-08
6.688831e-08
5.5262736e-08
4.5543568e-08
3.7400709e-08
3.0557563e-08
2.4782122e-08
1.9879432e-08
1.5685244e-08
1.2060656e-08
8.887594e-09
6.0649983e-09
3.5055924e-09
1.1331108e-09
5.00608e-05
4.2958882e-05
3.6811956e-05
3.1503076e-05
2.6924627e-05
2.298162e-05
1.9590614e-05
1.6678428e-05
1.4180966e-05
1.2042179e-05
1.0213128e-05
8.6511486e-06
7.3191053e-06
6.1847263e-06
5.2200113e-06
4.4007044e-06
3.7058281e-06
3.1172692e-06
2.619414e-06
2.1988248e-06
1.8439566e-06
1.5449064e-06
1.2931942e-06
1.0815704e-06
9.0384728e-07
7.5475266e-07
6.2980131e-07
5.2518375e-07
4.3766951e-07
3.6452335e-07
3.0343277e-07
2.5244552e-07
2.0991576e-07
1.7445777e-07
1.4490629e-07
1.2028254e-07
9.9765245e-08
8.2665842e-08
6.8407482e-08
5.6507124e-08
4.6560382e-08
3.8228678e-08
3.1228387e-08
2.5321666e-08
2.0308712e-08
1.6021242e-08
1.2316982e-08
9.0750301e-09
6.1919417e-09
3.5784101e-09
1.1564207e-09
5.1462808e-05
4.4158024e-05
3.7835681e-05
3.2375647e-05
2.7667177e-05
2.3612519e-05
2.0125804e-05
1.7131718e-05
1.4564294e-05
1.2365845e-05
1.0486004e-05
8.8808599e-06
7.5121958e-06
6.3468003e-06
5.3558592e-06
4.5144137e-06
3.8008797e-06
3.1966221e-06
2.6855785e-06
2.253927e-06
1.8897938e-06
1.5829951e-06
1.3248117e-06
1.1077907e-06
9.25572e-07
7.7273735e-07
6.4467812e-07
5.3748078e-07
4.4782729e-07
3.7290881e-07
3.1035114e-07
2.5815037e-07
2.1461747e-07
1.7833068e-07
1.4809473e-07
1.2290584e-07
1.0192194e-07
8.4437247e-08
6.986058e-08
5.7697039e-08
4.7532404e-08
3.9019949e-08
3.1869296e-08
2.5837003e-08
2.0718616e-08
1.634198e-08
1.2561593e-08
9.253844e-09
6.3130054e-09
3.6478299e-09
1.1786318e-09
5.2817267e-05
4.5316419e-05
3.8824373e-05
3.3218137e-05
2.838394e-05
2.4221344e-05
2.0642126e-05
1.7568902e-05
1.4933892e-05
1.2677823e-05
1.0748942e-05
9.1021326e-06
7.69813e-06
6.502813e-06
5.4865798e-06
4.6237911e-06
3.892276e-06
3.2728942e-06
2.7491497e-06
2.3068489e-06
1.9337999e-06
1.6195477e-06
1.3551421e-06
1.1329336e-06
9.4639586e-07
7.8996951e-07
6.5892691e-07
5.4925419e-07
4.5754886e-07
3.8093119e-07
3.1696755e-07
2.6360428e-07
2.191108e-07
1.820307e-07
1.5113983e-07
1.254104e-07
1.0398039e-07
8.6127436e-08
7.1246647e-08
5.8831737e-08
4.8459058e-08
3.9774078e-08
3.2479953e-08
2.6327878e-08
2.1108953e-08
1.664732e-08
1.2794391e-08
9.4239693e-09
6.4281483e-09
3.7138305e-09
1.1997383e-09
5.4121971e-05
4.6432385e-05
3.9776561e-05
3.402925e-05
2.9073809e-05
2.4807164e-05
2.1138802e-05
1.7989334e-05
1.5289225e-05
1.297767e-05
1.1001577e-05
9.3146676e-06
7.8766628e-06
6.6525642e-06
5.61201e-06
4.7287043e-06
3.9799098e-06
3.3459993e-06
2.8100583e-06
2.3575348e-06
1.9759305e-06
1.6545289e-06
1.3841573e-06
1.156977e-06
9.6630139e-07
8.0643542e-07
6.7253695e-07
5.604956e-07
4.6682773e-07
3.8858547e-07
3.2327812e-07
2.6880428e-07
2.233935e-07
1.8555611e-07
1.540403e-07
1.2779525e-07
1.0593985e-07
8.7735879e-08
7.2565299e-08
5.9910941e-08
4.9340149e-08
4.0490931e-08
3.3060268e-08
2.6794236e-08
2.1479691e-08
1.6937246e-08
1.3015371e-08
9.5854081e-09
6.5373757e-09
3.7764174e-09
1.219743e-09
5.537528e-05
4.7504636e-05
4.0691243e-05
3.4808013e-05
2.9735936e-05
2.5369269e-05
2.1615244e-05
1.8392528e-05
1.5629895e-05
1.326506e-05
1.1243645e-05
9.5182486e-06
8.047619e-06
6.7959126e-06
5.7320362e-06
4.8290623e-06
4.0637087e-06
3.4158798e-06
2.8682588e-06
2.4059491e-06
2.0161577e-06
1.6879172e-06
1.4118407e-06
1.1799082e-06
9.8527892e-07
8.2212782e-07
6.8550283e-07
5.7120104e-07
4.7566101e-07
3.9586961e-07
3.2928146e-07
2.7374944e-07
2.2746496e-07
1.8890656e-07
1.5679595e-07
1.3006035e-07
1.0780037e-07
8.9262658e-08
7.3816646e-08
6.0934781e-08
5.0175813e-08
4.1170643e-08
3.3610368e-08
2.7236194e-08
2.1830935e-08
1.721185e-08
1.3224611e-08
9.738222e-09
6.6407328e-09
3.8356188e-09
1.2386558e-09
5.6577279e-05
4.8530897e-05
4.1567404e-05
3.5553688e-05
3.0369705e-05
2.5907149e-05
2.2071037e-05
1.877815e-05
1.5955631e-05
1.3539776e-05
1.1474969e-05
9.7127355e-06
8.2108871e-06
6.93277e-06
5.8465894e-06
4.9248113e-06
4.1436313e-06
3.4825042e-06
2.9237274e-06
2.452074e-06
2.0544687e-06
1.7197032e-06
1.4381859e-06
1.2017228e-06
1.0033258e-06
8.370452e-07
6.978239e-07
5.8137045e-07
4.8404906e-07
4.0278421e-07
3.3497829e-07
2.7844057e-07
2.3132602e-07
1.9208287e-07
1.5940758e-07
1.3220642e-07
1.0956261e-07
9.0708383e-08
7.5001236e-08
6.1903738e-08
5.0966471e-08
4.1813579e-08
3.4130567e-08
2.7654017e-08
2.2162907e-08
1.7471314e-08
1.3422257e-08
9.8825228e-09
6.7382992e-09
3.8914826e-09
1.2564931e-09
4.9511757e-05
4.240393e-05
3.6265543e-05
3.0974646e-05
2.6420471e-05
2.2505928e-05
1.9146003e-05
1.6266279e-05
1.3801696e-05
1.1695457e-05
9.8980568e-06
8.3664135e-06
7.0630969e-06
5.9556409e-06
5.0159314e-06
4.2196642e-06
3.5458641e-06
2.9764596e-06
2.4959079e-06
2.0908637e-06
1.7498887e-06
1.4631955e-06
1.222424e-06
1.0204454e-06
8.5119112e-07
7.0950364e-07
5.9100717e-07
4.9199499e-07
4.0933214e-07
3.4037126e-07
2.8288004e-07
2.349788e-07
1.9508691e-07
1.6187683e-07
1.3423489e-07
1.1122781e-07
9.2074119e-08
7.6119982e-08
6.2818594e-08
5.1712788e-08
4.2420298e-08
3.4621336e-08
2.8048097e-08
2.2475931e-08
1.7715898e-08
1.3608513e-08
1.0018465e-08
6.8301828e-09
3.9440727e-09
1.2732763e-09
5.0440933e-05
4.3199259e-05
3.694305e-05
3.1550512e-05
2.6909084e-05
2.2919816e-05
1.9496014e-05
1.6561788e-05
1.4050788e-05
1.1905089e-05
1.0074203e-05
8.5141957e-06
7.1868963e-06
6.0591976e-06
5.1024322e-06
4.2918187e-06
3.6059718e-06
3.026468e-06
2.5374631e-06
2.1253548e-06
1.7784851e-06
1.4868801e-06
1.2420216e-06
1.0366467e-06
8.645735e-07
7.2054915e-07
6.0011749e-07
4.9950436e-07
4.1551827e-07
3.4546459e-07
2.8707152e-07
2.3842647e-07
1.979214e-07
1.6420603e-07
1.3614777e-07
1.1279768e-07
9.3361317e-08
7.7174111e-08
6.3680384e-08
5.2415631e-08
4.2991529e-08
3.5083278e-08
2.8418932e-08
2.2770409e-08
1.7945928e-08
1.3783632e-08
1.0146239e-08
6.9165153e-09
3.9934667e-09
1.2890311e-09
5.1325237e-05
4.3954662e-05
3.758645e-05
3.2097368e-05
2.737303e-05
2.3312739e-05
1.9828226e-05
1.6842204e-05
1.4287097e-05
1.210391e-05
1.0241219e-05
8.6542772e-06
7.3042096e-06
6.1572986e-06
5.1843498e-06
4.3601281e-06
3.6628576e-06
3.07378e-06
2.5767646e-06
2.157964e-06
1.8055119e-06
1.5092572e-06
1.2605309e-06
1.051943e-06
8.7720409e-07
7.3097063e-07
6.0871024e-07
5.0658477e-07
4.2134915e-07
3.5026389e-07
2.9101981e-07
2.4167311e-07
2.0058984e-07
1.6639813e-07
1.3794755e-07
1.1427432e-07
9.4571748e-08
7.816511e-08
6.4490351e-08
5.307604e-08
4.3528133e-08
3.5517105e-08
2.8767104e-08
2.3046817e-08
1.8161779e-08
1.3947909e-08
1.0266062e-08
6.9974479e-09
4.0397533e-09
1.3037866e-09
5.2164702e-05
4.4670825e-05
3.8196153e-05
3.2615473e-05
2.7812504e-05
2.3684862e-05
2.0142783e-05
1.7107655e-05
1.451074e-05
1.2292024e-05
1.0399198e-05
8.7867415e-06
7.4151112e-06
6.25001e-06
5.2617432e-06
4.4246445e-06
3.7165675e-06
3.1184361e-06
2.6138475e-06
2.1887223e-06
1.8309962e-06
1.5303499e-06
1.277972e-06
1.0663518e-06
8.8909782e-07
7.4078088e-07
6.1679637e-07
5.1324559e-07
4.2683273e-07
3.5477594e-07
2.9473063e-07
2.4472358e-07
2.0309629e-07
1.6845658e-07
1.3963713e-07
1.1566017e-07
9.5707445e-08
7.909468e-08
6.5249912e-08
5.369519e-08
4.4031082e-08
3.5923617e-08
2.9093268e-08
2.330568e-08
1.8363872e-08
1.4101668e-08
1.0378177e-08
7.0731467e-09
4.0830294e-09
1.3175748e-09
5.295927e-05
4.5348246e-05
3.8772628e-05
3.3105206e-05
2.8227816e-05
2.4036449e-05
2.0439912e-05
1.735834e-05
1.472189e-05
1.2469585e-05
1.0548274e-05
8.9117066e-06
7.5197046e-06
6.3374223e-06
5.3346911e-06
4.4854364e-06
3.7671609e-06
3.1604877e-06
2.6487565e-06
2.217668e-06
1.8549708e-06
1.5501866e-06
1.2943692e-06
1.0798936e-06
9.0027233e-07
7.4999491e-07
6.2438862e-07
5.1949759e-07
4.3197814e-07
3.5900842e-07
2.9821048e-07
2.4758332e-07
2.0544536e-07
1.7038523e-07
1.4121972e-07
1.169579e-07
9.6770654e-08
7.9964688e-08
6.596062e-08
5.4274367e-08
4.4501438e-08
3.6303686e-08
2.9398132e-08
2.3547571e-08
1.8552659e-08
1.4245258e-08
1.0482842e-08
7.1437899e-09
4.123399e-09
1.3304296e-09
5.370934e-05
4.5987488e-05
3.9316421e-05
3.3567043e-05
2.8619374e-05
2.4367849e-05
2.0719917e-05
1.7594521e-05
1.4920775e-05
1.2636789e-05
1.0688618e-05
9.0293203e-06
7.6181177e-06
6.419646e-06
5.4032889e-06
4.542586e-06
3.8147086e-06
3.1999956e-06
2.6815435e-06
2.2448456e-06
1.8774739e-06
1.5687998e-06
1.30975e-06
1.092592e-06
9.1074747e-07
7.5862951e-07
6.3150118e-07
5.2535274e-07
4.3679545e-07
3.629698e-07
3.0146647e-07
2.5025831e-07
2.0764202e-07
1.7218824e-07
1.426988e-07
1.1817043e-07
9.7763786e-08
8.0777137e-08
6.6624133e-08
5.4814941e-08
4.4940328e-08
3.6658232e-08
2.9682446e-08
2.3773092e-08
1.8728617e-08
1.4379047e-08
1.0580331e-08
7.2095643e-09
4.1609707e-09
1.3423864e-09
5.441563e-05
4.6589246e-05
3.982817e-05
3.4001546e-05
2.8987664e-05
2.4679481e-05
2.0983157e-05
1.7816509e-05
1.5107663e-05
1.2793869e-05
1.0820431e-05
9.1397553e-06
7.710499e-06
6.4968088e-06
5.4676461e-06
4.5961871e-06
3.8592908e-06
3.2370282e-06
2.712267e-06
2.2703048e-06
1.8985475e-06
1.5862252e-06
1.3241448e-06
1.1044725e-06
9.2054485e-07
7.667029e-07
6.3814937e-07
5.3082392e-07
4.4129547e-07
3.6666915e-07
3.0450617e-07
2.5275486e-07
2.0969157e-07
1.7387001e-07
1.4407804e-07
1.193008e-07
9.8689374e-08
8.1534126e-08
6.7242186e-08
5.5318343e-08
4.5348928e-08
3.6988218e-08
2.9946989e-08
2.398287e-08
1.8892241e-08
1.4503418e-08
1.0670923e-08
7.2706628e-09
4.1958565e-09
1.3534819e-09
5.5079061e-05
4.7154341e-05
4.0308604e-05
3.4409353e-05
2.9333241e-05
2.4971824e-05
2.1230047e-05
1.802466e-05
1.5282862e-05
1.2941088e-05
1.0943938e-05
9.2432054e-06
7.7970145e-06
6.5690524e-06
5.5278838e-06
4.646343e-06
3.9009954e-06
3.2716604e-06
2.7409903e-06
2.2940995e-06
1.9182372e-06
1.6025012e-06
1.3375859e-06
1.1155626e-06
9.2968748e-07
7.742344e-07
6.4434941e-07
5.3592472e-07
4.4548956e-07
3.7011596e-07
3.0733752e-07
2.5507961e-07
2.1159951e-07
1.7543514e-07
1.4536126e-07
1.2035218e-07
9.9550039e-08
8.2237824e-08
6.7816571e-08
5.5786048e-08
4.5728446e-08
3.7294631e-08
3.0192562e-08
2.4177545e-08
1.9044036e-08
1.4618758e-08
1.0754907e-08
7.3272818e-09
4.2281705e-09
1.3637529e-09
5.5700705e-05
4.7683703e-05
4.0758537e-05
3.4791171e-05
2.9656716e-05
2.5245407e-05
2.1461041e-05
1.8219366e-05
1.5446706e-05
1.3078734e-05
1.1059386e-05
9.339881e-06
7.8778436e-06
6.6365299e-06
5.5841322e-06
4.6931644e-06
3.9399164e-06
3.3039717e-06
2.767781e-06
2.3162865e-06
1.9365912e-06
1.6176685e-06
1.3501075e-06
1.1258908e-06
9.3819942e-07
7.8124418e-07
6.5011818e-07
5.4066924e-07
4.4938951e-07
3.7332006e-07
3.0996869e-07
2.5723935e-07
2.1337151e-07
1.7688833e-07
1.4655235e-07
1.213278e-07
1.0034846e-07
8.2890441e-08
6.834911e-08
5.6219555e-08
4.6080112e-08
3.7578473e-08
3.0419976e-08
2.4357766e-08
1.9184515e-08
1.4725462e-08
1.0832573e-08
7.3796197e-09
4.2580275e-09
1.3732369e-09
5.628174e-05
4.8178348e-05
4.1178847e-05
3.5147763e-05
2.9958749e-05
2.5500798e-05
2.1676628e-05
1.8401047e-05
1.5599556e-05
1.3207114e-05
1.1167038e-05
9.4300061e-06
7.9531772e-06
6.6994035e-06
5.636529e-06
4.7367679e-06
3.9761525e-06
3.3340456e-06
2.7927094e-06
2.3369252e-06
1.9536593e-06
1.6317689e-06
1.3617449e-06
1.1354867e-06
9.4610542e-07
7.8775295e-07
6.5547296e-07
5.4507192e-07
4.5300736e-07
3.7629147e-07
3.1240804e-07
2.5924103e-07
2.1501333e-07
1.7823434e-07
1.4765527e-07
1.2223092e-07
1.0108733e-07
8.349421e-08
6.8841642e-08
5.6620373e-08
4.6405162e-08
3.7840749e-08
3.0630044e-08
2.4524186e-08
1.9314189e-08
1.4823923e-08
1.0904211e-08
7.4278743e-09
4.2855422e-09
1.3819711e-09
5.682343e-05
4.8639362e-05
4.1570471e-05
3.5479936e-05
3.0240036e-05
2.5738598e-05
2.1877326e-05
1.8570146e-05
1.574179e-05
1.3326553e-05
1.1267169e-05
9.5138151e-06
8.0232141e-06
6.7578417e-06
5.6852171e-06
4.7772744e-06
4.0098058e-06
3.3619683e-06
2.8158482e-06
2.3560768e-06
1.969493e-06
1.6448456e-06
1.3725342e-06
1.1443805e-06
9.5343071e-07
7.9378176e-07
6.6043134e-07
5.491474e-07
4.5635527e-07
3.7904031e-07
3.1466397e-07
2.6109161e-07
2.1653073e-07
1.7947798e-07
1.4867399e-07
1.2306484e-07
1.0176937e-07
8.4051363e-08
6.9296004e-08
5.6990012e-08
4.6704829e-08
3.8082464e-08
3.0823578e-08
2.4677453e-08
1.9433571e-08
1.4914532e-08
1.0970109e-08
7.4722425e-09
4.3108284e-09
1.3899922e-09
5.7327103e-05
4.9067883e-05
4.1934387e-05
3.5788534e-05
3.0501308e-05
2.5959435e-05
2.2063673e-05
1.8727124e-05
1.5873804e-05
1.3437385e-05
1.1360064e-05
9.5915496e-06
8.0881592e-06
6.8120181e-06
5.730343e-06
4.8148077e-06