/*--------------------------------*- C++ -*----------------------------------*\
| =========                 |                                                 |
| \\      /  F ield         | OpenFOAM: The Open Source CFD Toolbox           |
|  \\    /   O peration     | Version:  2312                                  |
|   \\  /    A nd           | Website:  www.openfoam.com                      |
|    \\/     M anipulation  |                                                 |
\*---------------------------------------------------------------------------*/
FoamFile
{
    version     2.0;
    format      ascii;
    arch        "LSB;label=32;scalar=64";
    class       volScalarField;
    location    "0.02";
    object      H2O;
}
// * * * * * * * * * * * * * * * * * * * * * * * * * * * * * * * * * * * * * //

dimensions      [0 0 0 0 0 0 0];

internalField   nonuniform List<scalar> 
3257
(
1.5386608e-05
1.3236223e-05
1.1372265e-05
9.7592565e-06
8.3652649e-06
7.1620837e-06
6.1249028e-06
5.2319419e-06
4.4641098e-06
3.8046966e-06
3.2390978e-06
2.754567e-06
2.339996e-06
1.9857173e-06
1.6833298e-06
1.4255432e-06
1.2060401e-06
1.0193541e-06
8.6076205e-07
7.2618878e-07
6.1212331e-07
5.1554513e-07
4.3385944e-07
3.6484033e-07
3.0658109e-07
2.574508e-07
2.1605634e-07
1.8120943e-07
1.5189791e-07
1.2726075e-07
1.0656648e-07
8.9194478e-08
7.4618796e-08
6.2394256e-08
5.2144435e-08
4.3551366e-08
3.6346694e-08
3.0304096e-08
2.5232809e-08
2.0972089e-08
1.7386503e-08
1.4361902e-08
1.1802013e-08
9.6255262e-09
7.7636378e-09
6.1579542e-09
4.7587192e-09
3.5233093e-09
2.4149573e-09
1.4016692e-09
4.5530373e-10
1.5573405e-05
1.3396231e-05
1.1509235e-05
9.8764069e-06
8.4653629e-06
7.2475177e-06
6.1977373e-06
5.2939621e-06
4.5168583e-06
3.8495056e-06
3.2771164e-06
2.7867856e-06
2.3672667e-06
2.0087725e-06
1.7027982e-06
1.4419636e-06
1.2198738e-06
1.0309955e-06
8.7054769e-07
7.3440559e-07
6.1901552e-07
5.2132036e-07
4.3869389e-07
3.6888336e-07
3.0995914e-07
2.6027073e-07
2.1840835e-07
1.8316957e-07
1.5353019e-07
1.2861898e-07
1.0769586e-07
9.0132897e-08
7.5398e-08
6.3040796e-08
5.2680497e-08
4.3995463e-08
3.6714256e-08
3.0607965e-08
2.5483657e-08
2.1178775e-08
1.7556362e-08
1.4500997e-08
1.1915337e-08
9.7171806e-09
7.8369715e-09
6.2156834e-09
4.8030247e-09
3.5559159e-09
2.4371969e-09
1.4145285e-09
4.5945782e-10
1.5929002e-05
1.3701335e-05
1.1770649e-05
1.0100115e-05
8.6565777e-06
7.4107637e-06
6.3369383e-06
5.4125165e-06
4.6177063e-06
3.9351878e-06
3.3498255e-06
2.8484114e-06
2.4194361e-06
2.0528841e-06
1.7400527e-06
1.4733904e-06
1.2463542e-06
1.0532829e-06
8.8928548e-07
7.5014212e-07
6.3221767e-07
5.3238502e-07
4.47958e-07
3.7663255e-07
3.1643521e-07
2.6567807e-07
2.2291954e-07
1.869301e-07
1.5666255e-07
1.3122618e-07
1.0986439e-07
9.1935319e-08
7.6895088e-08
6.4283403e-08
5.3711118e-08
4.4849568e-08
3.742141e-08
3.1192785e-08
2.5966604e-08
2.1576832e-08
1.7883598e-08
1.476904e-08
1.2133771e-08
9.8938745e-09
7.9783528e-09
6.3269669e-09
4.8883996e-09
3.6187002e-09
2.4799639e-09
1.4392092e-09
4.6742194e-10
1.643546e-05
1.4135965e-05
1.2143115e-05
1.041891e-05
8.9290974e-06
7.6434397e-06
6.535352e-06
5.5815055e-06
4.7614577e-06
4.0573211e-06
3.4534652e-06
2.9362512e-06
2.493795e-06
2.1157559e-06
1.7931493e-06
1.5181794e-06
1.2840921e-06
1.0850441e-06
9.1598694e-07
7.7256581e-07
6.5102922e-07
5.4815026e-07
4.6115726e-07
3.87673e-07
3.256615e-07
2.7338157e-07
2.2934619e-07
1.9228724e-07
1.6112475e-07
1.3494021e-07
1.1295351e-07
9.4502901e-08
7.9027724e-08
6.6053538e-08
5.5179291e-08
4.6066305e-08
3.8428827e-08
3.2025942e-08
2.6654648e-08
2.2143951e-08
1.834983e-08
1.5150948e-08
1.2445004e-08
1.014564e-08
8.1798062e-09
6.4855367e-09
5.0100542e-09
3.7081675e-09
2.5409104e-09
1.4743851e-09
4.7877619e-10
1.7076733e-05
1.4686295e-05
1.2614745e-05
1.0822583e-05
9.2741755e-06
7.9380605e-06
6.7865806e-06
5.7954665e-06
4.9434537e-06
4.2119363e-06
3.5846574e-06
3.0474328e-06
2.587904e-06
2.1953184e-06
1.8603338e-06
1.5748454e-06
1.3318315e-06
1.1252176e-06
9.4975636e-07
8.0092145e-07
6.7481405e-07
5.680808e-07
4.7784169e-07
4.0162678e-07
3.3732092e-07
2.8311537e-07
2.3746562e-07
1.9905464e-07
1.6676095e-07
1.3963088e-07
1.1685452e-07
9.7744966e-08
8.172032e-08
6.8288245e-08
5.7032622e-08
4.760211e-08
3.9700322e-08
3.3077421e-08
2.7522927e-08
2.2859582e-08
1.893812e-08
1.5632809e-08
1.2837671e-08
1.0463263e-08
8.4339434e-09
6.6855661e-09
5.16351e-09
3.8210182e-09
2.6177844e-09
1.5187536e-09
4.9309808e-10
1.7838111e-05
1.5339663e-05
1.3174651e-05
1.1301786e-05
9.683792e-06
8.2877552e-06
7.0847441e-06
6.0493736e-06
5.1594029e-06
4.3953731e-06
3.7402836e-06
3.1793021e-06
2.6995065e-06
2.2896547e-06
1.9399801e-06
1.6420102e-06
1.3884052e-06
1.1728164e-06
9.8975972e-07
8.3450504e-07
7.0297851e-07
5.9167654e-07
4.9759037e-07
4.1813998e-07
3.5111616e-07
2.9462996e-07
2.470686e-07
2.07057e-07
1.7342442e-07
1.4517544e-07
1.2146483e-07
1.0157583e-07
8.4901375e-08
7.0927901e-08
5.9221438e-08
4.9415638e-08
4.1201517e-08
3.4318673e-08
2.8547771e-08
2.370414e-08
1.9632304e-08
1.6201337e-08
1.3300907e-08
1.0837924e-08
8.7336854e-09
6.9214652e-09
5.3444652e-09
3.9540786e-09
2.7084167e-09
1.5710579e-09
5.0997947e-10
1.8705991e-05
1.6084363e-05
1.3812765e-05
1.184787e-05
1.0150525e-05
8.6861611e-06
7.4243946e-06
6.338567e-06
5.4053238e-06
4.6042334e-06
3.9174464e-06
3.3293914e-06
2.826503e-06
2.3969807e-06
2.0305734e-06
1.7183889e-06
1.4527249e-06
1.2269194e-06
1.0352181e-06
8.7265867e-07
7.3496746e-07
6.1846951e-07
5.2000925e-07
4.3688107e-07
3.6676854e-07
3.0769131e-07
2.5795875e-07
2.1612968e-07
1.8097724e-07
1.5145846e-07
1.266879e-07
1.0591483e-07
8.8503536e-08
7.3916316e-08
6.1698898e-08
5.1467878e-08
4.2899958e-08
3.5722732e-08
2.9706811e-08
2.4659104e-08
2.0417093e-08
1.6843954e-08
1.3824422e-08
1.1261267e-08
9.0723191e-09
7.1879302e-09
5.5488354e-09
4.1043336e-09
2.8107452e-09
1.6301027e-09
5.2903221e-10
1.9667685e-05
1.6909471e-05
1.4519694e-05
1.2452763e-05
1.0667446e-05
9.1273392e-06
7.8004451e-06
6.6586942e-06
5.6774966e-06
4.8353413e-06
4.1134374e-06
3.4953932e-06
2.9669299e-06
2.5156269e-06
2.1306959e-06
1.802779e-06
1.5237715e-06
1.2866636e-06
1.0854019e-06
9.1476599e-07
7.7026075e-07
6.4802117e-07
5.4472892e-07
4.575392e-07
3.8401674e-07
3.220799e-07
2.6995189e-07
2.2611825e-07
1.8929003e-07
1.5837164e-07
1.3243315e-07
1.1068627e-07
9.2463582e-08
7.7200734e-08
6.442102e-08
5.3722198e-08
4.4765165e-08
3.726427e-08
3.0979031e-08
2.5707076e-08
2.127812e-08
1.7548842e-08
1.4398542e-08
1.1725436e-08
9.4435335e-09
7.4799737e-09
5.7727792e-09
4.268947e-09
2.9228302e-09
1.6947638e-09
5.4989127e-10
2.0711269e-05
1.7804723e-05
1.5286609e-05
1.3108881e-05
1.1228047e-05
9.6057079e-06
8.2081154e-06
7.0056656e-06
5.972426e-06
5.0857128e-06
4.3257119e-06
3.6751398e-06
3.1189423e-06
2.6440253e-06
2.2390161e-06
1.894051e-06
1.6005878e-06
1.3512392e-06
1.1396263e-06
9.602485e-07
8.0837022e-07
6.7992003e-07
5.7140287e-07
4.7982285e-07
4.0261574e-07
3.3759001e-07
2.8287538e-07
2.3687802e-07
1.982416e-07
1.6581357e-07
1.3861578e-07
1.1581927e-07
9.6722355e-08
8.0731808e-08
6.7346675e-08
5.6144348e-08
4.6768648e-08
3.8919617e-08
3.2344799e-08
2.6831803e-08
2.2201967e-08
1.8304966e-08
1.5014239e-08
1.2223098e-08
9.841439e-09
7.7929425e-09
6.0127134e-09
4.4452738e-09
3.0428629e-09
1.7639931e-09
5.7221654e-10
2.182547e-05
1.8760414e-05
1.6105167e-05
1.3809058e-05
1.1826179e-05
1.0115997e-05
8.6428928e-06
7.3756212e-06
6.2868142e-06
5.3525335e-06
4.5518703e-06
3.8665877e-06
3.2808021e-06
2.7806989e-06
2.3542804e-06
1.991142e-06
1.6822738e-06
1.4198846e-06
1.1972475e-06
1.0085628e-06
8.4883763e-07
7.1378003e-07
5.9970617e-07
5.034588e-07
4.2233602e-07
3.5402901e-07
2.9656773e-07
2.4827366e-07
2.077187e-07
1.7368951e-07
1.4515662e-07
1.2124774e-07
1.012247e-07
8.4463552e-08
7.0437555e-08
5.8702447e-08
4.8883902e-08
4.0666766e-08
3.3785869e-08
2.801819e-08
2.3176178e-08
1.9102084e-08
1.5663138e-08
1.2747456e-08
1.0260578e-08
8.1225263e-09
6.2653202e-09
4.630866e-09
3.1691702e-09
1.8368214e-09
5.9569378e-10
2.2999594e-05
1.9767344e-05
1.6967459e-05
1.4546501e-05
1.2456015e-05
1.0653215e-05
9.1005057e-06
7.7649094e-06
6.6175428e-06
5.6331432e-06
4.7896462e-06
4.0678082e-06
3.4508695e-06
2.9242551e-06
2.4753076e-06
2.0930513e-06
1.7679823e-06
1.4918836e-06
1.257661e-06
1.0591988e-06
8.9123311e-07
7.4923929e-07
6.2933449e-07
5.2819139e-07
4.42963e-07
3.7121695e-07
3.1087817e-07
2.6017899e-07
2.1761577e-07
1.8191126e-07
1.5198202e-07
1.2691024e-07
1.0591938e-07
8.8353294e-08
7.3658142e-08
6.1366958e-08
5.108639e-08
4.2485359e-08
3.5285377e-08
2.9252292e-08
2.4189256e-08
1.9930753e-08
1.6337521e-08
1.3292248e-08
1.0695927e-08
8.4647603e-09
6.5275496e-09
4.8234745e-09
3.3002158e-09
1.9123597e-09
6.2003489e-10
2.422348e-05
2.0816771e-05
1.7865974e-05
1.5314767e-05
1.3112032e-05
1.1212632e-05
9.5769078e-06
8.1700733e-06
6.9616618e-06
5.9250275e-06
5.0368987e-06
4.2769803e-06
3.6275979e-06
3.0733817e-06
2.6009856e-06
2.1988373e-06
1.8569174e-06
1.5665639e-06
1.3202993e-06
1.1116785e-06
9.3515418e-07
7.8595935e-07
6.600035e-07
5.5378199e-07
4.642966e-07
3.8898624e-07
3.2566645e-07
2.7247673e-07
2.2783484e-07
1.9039704e-07
1.5902377e-07
1.3274989e-07
1.1075906e-07
9.2361626e-08
7.6975669e-08
6.4110661e-08
5.3353523e-08
4.4356671e-08
3.6827824e-08
3.0521309e-08
2.5230656e-08
2.0782317e-08
1.703032e-08
1.3851747e-08
1.1142893e-08
8.8160229e-09
6.7966179e-09
5.0210483e-09
3.4345997e-09
1.9897981e-09
6.4497785e-10
2.5487474e-05
2.1900396e-05
1.8793586e-05
1.6107743e-05
1.3788993e-05
1.1789767e-05
1.006827e-05
8.587844e-06
7.316384e-06
6.2258124e-06
5.2916085e-06
4.4923884e-06
3.8095311e-06
3.2268446e-06
2.7302696e-06
2.3076166e-06
1.9483328e-06
1.6432959e-06
1.3846321e-06
1.1655551e-06
9.802253e-07
8.2362477e-07
6.9144851e-07
5.8000871e-07
4.8615101e-07
4.0718143e-07
3.4080263e-07
2.8505838e-07
2.3828537e-07
1.9907136e-07
1.6621898e-07
1.3871435e-07
1.1570017e-07
9.6452352e-08
8.0360076e-08
6.6908613e-08
5.5664622e-08
4.6263581e-08
3.8399058e-08
3.1813563e-08
2.6290767e-08
2.1648895e-08
1.7735107e-08
1.4420746e-08
1.1597308e-08
9.1730298e-09
7.0700029e-09
5.2217304e-09
3.5710557e-09
2.0684051e-09
6.7028611e-10
2.6782427e-05
2.3010359e-05
1.974355e-05
1.6919648e-05
1.4481949e-05
1.2380389e-05
1.0570979e-05
9.015139e-06
7.6790834e-06
6.5332638e-06
5.5518768e-06
4.712421e-06
3.9953032e-06
3.383487e-06
2.8621813e-06
2.4185628e-06
2.0415313e-06
1.7214922e-06
1.4501648e-06
1.2204132e-06
1.0260975e-06
8.6194279e-07
7.2342421e-07
6.0666622e-07
5.0835452e-07
4.2565907e-07
3.5616697e-07
2.9782406e-07
2.4888414e-07
2.0786494e-07
1.7350999e-07
1.4475571e-07
1.2070292e-07
1.0059243e-07
8.3783958e-08
6.9738101e-08
5.8000885e-08
4.8190542e-08
3.998624e-08
3.3118473e-08
2.7360894e-08
2.2523366e-08
1.8446079e-08
1.4994554e-08
1.2055417e-08
9.5328252e-09
7.3454369e-09
5.4238532e-09
3.7084475e-09
2.1475247e-09
6.9574797e-10
2.8099696e-05
2.4139238e-05
2.0709503e-05
1.7745032e-05
1.5186239e-05
1.2980515e-05
1.1081636e-05
9.4490635e-06
8.0472962e-06
6.8452875e-06
5.815926e-06
4.9355709e-06
4.1836379e-06
3.5422298e-06
2.9958092e-06
2.5309072e-06
2.1358653e-06
1.8006078e-06
1.5164393e-06
1.275868e-06
1.0724482e-06
9.0064326e-07
7.5570455e-07
6.3356558e-07
5.3074936e-07
4.4428753e-07
3.7164978e-07
3.1068244e-07
2.5955516e-07
2.1671458e-07
1.8084434e-07
1.5083039e-07
1.2573117e-07
1.0475191e-07
8.7222505e-08
7.2578596e-08
6.0345339e-08
5.0123536e-08
4.157781e-08
3.4426526e-08
2.8433225e-08
2.3399341e-08
1.9158037e-08
1.5568969e-08
1.2513863e-08
9.8927705e-09
7.6208979e-09
5.6259312e-09
3.8457642e-09
2.226574e-09
7.2117551e-10
2.9431158e-05
2.5280063e-05
2.1685471e-05
1.8578784e-05
1.5897496e-05
1.3586418e-05
1.1597065e-05
9.8869125e-06
8.4187229e-06
7.1599311e-06
6.0821006e-06
5.1604363e-06
4.3733496e-06
3.7020715e-06
3.1303088e-06
2.6439382e-06
2.2307362e-06
1.8801396e-06
1.5830336e-06
1.3315657e-06
1.1189812e-06
9.3947842e-07
7.8808257e-07
6.6053406e-07
5.5319154e-07
4.6294689e-07
3.8715126e-07
3.2355055e-07
2.702295e-07
2.255631e-07
1.8817458e-07
1.5689908e-07
1.3075236e-07
1.0890384e-07
9.0653431e-08
7.5411682e-08
6.268278e-08
5.2050027e-08
4.3163447e-08
3.5729239e-08
2.9500806e-08
2.4271139e-08
1.9866364e-08
1.6140267e-08
1.2969674e-08
1.0250531e-08
7.8945991e-09
5.8266533e-09
3.9821145e-09
2.3050398e-09
7.4640352e-10
3.0769222e-05
2.6426327e-05
2.2665884e-05
1.9416141e-05
1.6611651e-05
1.419463e-05
1.2114311e-05
1.0326175e-05
8.7912307e-06
7.4753858e-06
6.3488687e-06
5.3857216e-06
4.5633442e-06
3.8620895e-06
3.2649027e-06
2.757002e-06
2.3255946e-06
1.9596268e-06
1.6495615e-06
1.3871833e-06
1.1654263e-06
9.7822274e-07
8.2037015e-07
6.8741496e-07
5.7555063e-07
4.8152871e-07
4.0258133e-07
3.3635363e-07
2.8084518e-07
2.3435912e-07
1.9545816e-07
1.6292657e-07
1.3573738e-07
1.1302418e-07
9.4056889e-08
7.8220986e-08
6.4999715e-08
5.3958905e-08
4.4734016e-08
3.7019114e-08
3.05575e-08
2.5133755e-08
2.0566996e-08
1.6705174e-08
1.342024e-08
1.0604061e-08
8.1649767e-09
6.0248735e-09
4.1167206e-09
2.3824746e-09
7.7128826e-10
3.2106846e-05
2.7571995e-05
2.3645579e-05
2.0252693e-05
1.7324944e-05
1.4801946e-05
1.2630651e-05
1.0764534e-05
9.1628554e-06
7.7899879e-06
6.6148232e-06
5.6102382e-06
4.7526194e-06
4.0214394e-06
3.398881e-06
2.8695022e-06
2.4199405e-06
2.0386505e-06
1.7156725e-06
1.4424278e-06
1.2115392e-06
1.0166726e-06
8.5239777e-07
7.1406728e-07
5.977095e-07
4.9993579e-07
4.178594e-07
3.4902491e-07
2.9134692e-07
2.4305693e-07
2.0265733e-07
1.6888169e-07
1.4066049e-07
1.1709169e-07
9.7415376e-08
8.0992093e-08
6.7284282e-08
5.584042e-08
4.6281514e-08
3.8289596e-08
3.159795e-08
2.5982824e-08
2.1256399e-08
1.7260847e-08
1.3863297e-08
1.0951589e-08
8.4306778e-09
6.2196017e-09
4.2489113e-09
2.4584929e-09
7.9570611e-10
3.3437545e-05
2.8711517e-05
2.4619812e-05
2.1084391e-05
1.8033923e-05
1.540543e-05
1.3143586e-05
1.1199874e-05
9.5318029e-06
8.1022196e-06
6.878682e-06
5.8329049e-06
4.9402642e-06
4.1793554e-06
3.5316005e-06
2.9808996e-06
2.5133222e-06
2.1168331e-06
1.7810513e-06
1.4970364e-06
1.257101e-06
1.0546457e-06
8.8401404e-07
7.4036538e-07
6.1956398e-07
5.1808183e-07
4.3291406e-07
3.6150535e-07
3.0168596e-07
2.5161627e-07
2.0973887e-07
1.7473704e-07
1.4549915e-07
1.2108782e-07
1.0071362e-07
8.3712454e-08
6.9526174e-08
5.7686118e-08
4.7799015e-08
3.9535018e-08
3.2617533e-08
2.6814589e-08
2.1931532e-08
1.7804842e-08
1.4296906e-08
1.1291596e-08
8.6905463e-09
6.4099934e-09
4.3781147e-09
2.5327669e-09
8.195522e-10
3.4755401e-05
2.983983e-05
2.558426e-05
2.1907548e-05
1.8735449e-05
1.6002412e-05
1.3650853e-05
1.1630273e-05
9.8964486e-06
8.4107084e-06
7.1392871e-06
6.0527463e-06
5.1254589e-06
4.335149e-06
3.662484e-06
3.0907112e-06
2.6053361e-06
2.1938377e-06
1.8454171e-06
1.5507752e-06
1.3019173e-06
1.0919809e-06
9.150852e-07
7.6619847e-07
6.4102241e-07
5.3589107e-07
4.4768275e-07
3.7374335e-07
3.1181975e-07
2.6000211e-07
2.1667393e-07
1.8046892e-07
1.5023384e-07
1.2499654e-07
1.0393848e-07
8.6371282e-08
7.1716551e-08
5.9488758e-08
4.9280598e-08
4.0750549e-08
3.3612314e-08
2.7625856e-08
2.2589816e-08
1.8335094e-08
1.4719426e-08
1.1622805e-08
8.9436092e-09
6.5953389e-09
4.5038516e-09
2.6050222e-09
8.4273896e-10
3.6055063e-05
3.095236e-05
2.653502e-05
2.2718841e-05
1.9426696e-05
1.6590493e-05
1.4150416e-05
1.205401e-05
1.0255336e-05
8.7142252e-06
7.3956035e-06
6.2688923e-06
5.3074727e-06
4.4882079e-06
3.7910193e-06
3.1985088e-06
2.695625e-06
2.2693668e-06
1.9085226e-06
1.603439e-06
1.3458177e-06
1.1285369e-06
9.4549448e-07
7.9147006e-07
6.6200513e-07
5.5329782e-07
4.6211136e-07
3.8569436e-07
3.2171166e-07
2.6818434e-07
2.2343781e-07
1.8605704e-07
1.5484795e-07
1.2880423e-07
1.070788e-07
8.8959445e-08
7.3847945e-08
6.1242241e-08
5.0721285e-08
4.1932134e-08
3.4578999e-08
2.8413959e-08
2.3229103e-08
1.8849882e-08
1.5129498e-08
1.1944155e-08
9.1890623e-09
6.7750528e-09
4.6257273e-09
2.6750337e-09
8.6519472e-10
3.7331747e-05
3.2045023e-05
2.746861e-05
2.3515305e-05
2.0105144e-05
1.7167534e-05
1.4640464e-05
1.2469552e-05
1.0607173e-05
9.011682e-06
7.6467163e-06
6.4805747e-06
5.485662e-06
4.6379938e-06
3.9167568e-06
3.3039178e-06
2.783877e-06
2.3431612e-06
1.9701526e-06
1.6548493e-06
1.3886547e-06
1.164192e-06
9.7514132e-07
8.1609725e-07
6.824439e-07
5.7024598e-07
4.7615378e-07
3.9732055e-07
3.3133067e-07
2.7613754e-07
2.3000968e-07
1.9148436e-07
1.5932754e-07
1.324995e-07
1.1012526e-07
9.1469351e-08
7.5914164e-08
6.2941522e-08
5.2116973e-08
4.307644e-08
3.5514886e-08
2.9176714e-08
2.3847638e-08
1.9347809e-08
1.5526017e-08
1.2254789e-08
9.4262558e-09
6.9486637e-09
4.7434248e-09
2.7426207e-09
8.8686227e-10
3.8581223e-05
3.3114211e-05
2.8381958e-05
2.4294327e-05
2.0768574e-05
1.7731655e-05
1.5119406e-05
1.2875557e-05
1.0950829e-05
9.3021271e-06
7.8918266e-06
6.6871244e-06
5.6594674e-06
4.7840396e-06
4.0393074e-06
3.4066145e-06
2.8698235e-06
2.4149983e-06
2.0301229e-06
1.704854e-06
1.4303028e-06
1.1988426e-06
1.0039406e-06
8.4001006e-07
7.0228128e-07
5.8668844e-07
4.8977145e-07
4.0859035e-07
3.4065097e-07
2.8384063e-07
2.3637234e-07
1.9673685e-07
1.6366118e-07
1.3607304e-07
1.1307029e-07
9.3894833e-08
7.7910195e-08
6.4582529e-08
5.3464359e-08
4.4180791e-08
3.6417815e-08
2.9912384e-08
2.4444028e-08
1.9827764e-08
1.590811e-08
1.2554031e-08
9.6546803e-09
7.115803e-09
4.8566972e-09
2.8076432e-09
9.0769745e-10
3.9799807e-05
3.4156785e-05
2.9272392e-05
2.5053637e-05
2.1415061e-05
1.8281225e-05
1.5585865e-05
1.3270864e-05
1.1285325e-05
9.5847402e-06
8.1302474e-06
6.8879673e-06
5.8284099e-06
4.9259467e-06
4.1583398e-06
3.5063241e-06
2.953237e-06
2.4846899e-06
2.0882783e-06
1.7533253e-06
1.4706568e-06
1.2324024e-06
1.0318214e-06
8.6315058e-07
7.2146991e-07
6.0258652e-07
5.0293281e-07
4.1947804e-07
3.4965163e-07
2.9127657e-07
2.4251195e-07
2.0180328e-07
1.6783973e-07
1.3951744e-07
1.159079e-07
9.6231028e-08
7.9832102e-08
6.616208e-08
5.4760872e-08
4.5243116e-08
3.7286119e-08
3.0619631e-08
2.5017208e-08
2.0288905e-08
1.6275117e-08
1.2841372e-08
9.8739531e-09
7.276195e-09
4.9653608e-09
2.8699977e-09
9.2766785e-10
4.0984337e-05
3.5170059e-05
3.0137625e-05
2.5791291e-05
2.2042955e-05
1.881485e-05
1.6038663e-05
1.3654482e-05
1.1609832e-05
9.8588263e-06
8.3613983e-06
7.0826193e-06
5.9920871e-06
5.0633811e-06
4.2735773e-06
3.602818e-06
3.0339289e-06
2.5520809e-06
2.1444912e-06
1.8001585e-06
1.509631e-06
1.2648013e-06
1.0587267e-06
8.8547214e-07
7.3997182e-07
6.1790937e-07
5.1561279e-07
4.2996332e-07
3.5831618e-07
2.9843206e-07
2.4841774e-07
2.0667493e-07
1.7185619e-07
1.4282704e-07
1.186335e-07
9.8474261e-08
8.1676929e-08
6.7677798e-08
5.6004604e-08
4.6261886e-08
3.8118576e-08
3.1297483e-08
2.5566406e-08
2.0730625e-08
1.6626564e-08
1.311645e-08
1.0083805e-08
7.4296473e-09
5.0692882e-09
2.9296129e-09
9.4675146e-10
4.2132148e-05
3.6151786e-05
3.0975739e-05
2.6505657e-05
2.2650875e-05
1.9331361e-05
1.6476819e-05
1.4025587e-05
1.1923659e-05
1.0123809e-05
8.5847991e-06
7.2706819e-06
6.1501686e-06
5.1960696e-06
4.3847948e-06
3.6959108e-06
3.1117468e-06
2.6170464e-06
2.1986595e-06
1.8452703e-06
1.5471576e-06
1.2959841e-06
1.0846117e-06
9.0693847e-07
7.5775766e-07
6.3263327e-07
5.2779231e-07
4.4003079e-07
3.6663227e-07
3.0529717e-07
2.5408175e-07
2.1134544e-07
1.7570543e-07
1.4599776e-07
1.2124385e-07
1.0062193e-07
8.34426e-08
6.9128031e-08
5.7194242e-08
4.7236059e-08
3.8914361e-08
3.1945289e-08
2.6091113e-08
2.1152527e-08
1.6962149e-08
1.3379036e-08
1.0284065e-08
7.5760407e-09
5.168402e-09
2.9864462e-09
9.6493549e-10
4.3241032e-05
3.7100154e-05
3.1785173e-05
2.7195397e-05
2.3237682e-05
1.9829801e-05
1.6899527e-05
1.4383506e-05
1.2226246e-05
1.0379222e-05
8.8000639e-06
7.4518359e-06
6.3023914e-06
5.3237958e-06
4.4918146e-06
3.7854571e-06
3.1865721e-06
2.6794897e-06
2.2507047e-06
1.8885969e-06
1.583185e-06
1.3259095e-06
1.1094429e-06
9.2752279e-07
7.7480597e-07
6.4674109e-07
5.3945767e-07
4.4966958e-07
3.7459123e-07
3.1186502e-07
2.5949854e-07
2.158105e-07
1.7938408e-07
1.4902694e-07
1.2373685e-07
1.0267239e-07
8.5127829e-08
7.0511774e-08
5.8329004e-08
4.8165026e-08
3.9673004e-08
3.2562688e-08
2.6591052e-08
2.1554402e-08
1.7281714e-08
1.3629015e-08
1.0474655e-08
7.7153208e-09
5.2626685e-09
3.0404804e-09
9.8221521e-10
4.4309182e-05
3.8013786e-05
3.2564721e-05
2.7859448e-05
2.3802472e-05
2.0309407e-05
1.7306152e-05
1.4727709e-05
1.2517154e-05
1.0624704e-05
9.0068944e-06
7.6258364e-06
6.4485546e-06
5.4463958e-06
4.5945033e-06
3.8713486e-06
3.2583172e-06
2.7393402e-06
2.30057e-06
1.930093e-06
1.6176769e-06
1.3545483e-06
1.1331974e-06
9.4720692e-07
7.9110245e-07
6.6022158e-07
5.5060008e-07
4.5887282e-07
3.8218775e-07
3.1813151e-07
2.6466496e-07
2.200677e-07
1.8289029e-07
1.5191316e-07
1.2611144e-07
1.0462485e-07
8.6732025e-08
7.1828593e-08
5.9408572e-08
4.9048561e-08
4.0394346e-08
3.3149569e-08
2.706615e-08
2.1936206e-08
1.7585234e-08
1.3866375e-08
1.065557e-08
7.8474893e-09
5.352092e-09
3.0917197e-09
9.9859285e-10
4.5335255e-05
3.8891628e-05
3.3313563e-05
2.8497014e-05
2.434455e-05
2.0769597e-05
1.769621e-05
1.5057801e-05
1.2796058e-05
1.0859988e-05
9.2050731e-06
7.7925064e-06
6.5885149e-06
5.5637539e-06
4.6927677e-06
3.9535108e-06
3.3269226e-06
2.7965508e-06
2.3482183e-06
1.9697294e-06
1.6506106e-06
1.381883e-06
1.1558615e-06
9.6598045e-07
8.0663919e-07
6.7306881e-07
5.6121514e-07
4.6763727e-07
3.8941949e-07
3.2409497e-07
2.6957983e-07
2.2411626e-07
1.8622356e-07
1.5465614e-07
1.2836747e-07
1.0647926e-07
8.8255212e-08
7.3078553e-08
6.0433039e-08
4.9886769e-08
4.1078497e-08
3.3706044e-08
2.7516513e-08
2.2298032e-08
1.7872794e-08
1.409119e-08
1.0826873e-08
7.9725967e-09
5.4367096e-09
3.1401874e-09
1.0140766e-09
4.6319321e-05
3.9731818e-05
3.4030868e-05
2.9107492e-05
2.486341e-05
2.1209955e-05
1.8069364e-05
1.5373507e-05
1.3062735e-05
1.1084895e-05
9.3944564e-06
7.9517311e-06
6.7221811e-06
5.6757979e-06
4.7865514e-06
4.0318997e-06
3.3923545e-06
2.8510956e-06
2.3936299e-06
2.0074914e-06
1.6819755e-06
1.4079059e-06
1.1774301e-06
9.8383988e-07
8.21414e-07
6.8528155e-07
5.7130229e-07
4.7596288e-07
3.9628671e-07
3.2975589e-07
2.7424378e-07
2.2795685e-07
1.8938458e-07
1.5725656e-07
1.3050559e-07
1.0823623e-07
8.9697942e-08
7.4262156e-08
6.1402852e-08
5.0680046e-08
4.1725802e-08
3.4232409e-08
2.7942395e-08
2.26401e-08
1.8144577e-08
1.4303611e-08
1.0988684e-08
8.0907346e-09
5.5165863e-09
3.1859226e-09
1.0286799e-09
4.053484e-05
3.4715725e-05
2.9690281e-05
2.5358671e-05
2.1630207e-05
1.8425406e-05
1.5674664e-05
1.3317059e-05
1.1299327e-05
9.5749678e-06
8.1034521e-06
6.8495091e-06
5.7824953e-06
4.8758308e-06
4.1064989e-06
3.454602e-06
2.9029677e-06
2.4368013e-06
2.0433778e-06
1.7117717e-06
1.4326185e-06
1.1979053e-06
1.0007878e-06
8.3542971e-07
6.9686268e-07
5.8086439e-07
4.8385237e-07
4.0279197e-07
3.3511662e-07
2.7865895e-07
2.315914e-07
1.9237508e-07
1.5971593e-07
1.3252713e-07
1.0989693e-07
9.1061228e-08
7.5380272e-08
6.231876e-08
5.1429031e-08
4.2336805e-08
3.4729125e-08
2.8344183e-08
2.296273e-08
1.8400847e-08
1.450385e-08
1.114117e-08
8.2020294e-09
5.5918106e-09
3.2289776e-09
1.0424201e-09
4.1295548e-05
3.5366854e-05
3.024495e-05
2.5830127e-05
2.2030231e-05
1.8764252e-05
1.5961215e-05
1.355899e-05
1.1503256e-05
9.7465913e-06
8.2476614e-06
6.9704971e-06
5.8838488e-06
4.9606118e-06
4.1773164e-06
3.5136743e-06
2.9521774e-06
2.4777427e-06
2.0773988e-06
1.7400093e-06
1.4560301e-06
1.2172957e-06
1.0168322e-06
8.4869354e-07
7.0781872e-07
5.8990725e-07
4.9131091e-07
4.0893983e-07
3.4018115e-07
2.8282882e-07
2.3502293e-07
1.9519765e-07
1.6203651e-07
1.3443403e-07
1.1146298e-07
9.2346467e-08
7.643409e-08
6.3181766e-08
5.213457e-08
4.2912216e-08
3.5196787e-08
2.8722371e-08
2.3266329e-08
1.8641934e-08
1.4692173e-08
1.1284539e-08
8.3066366e-09
5.6624903e-09
3.2694161e-09
1.0553184e-09
4.2019521e-05
3.5985295e-05
3.0771696e-05
2.6277833e-05
2.2410059e-05
1.9085935e-05
1.6233194e-05
1.3788564e-05
1.1696721e-05
9.9093644e-06
8.3843958e-06
7.0851807e-06
5.9798921e-06
5.0409262e-06
4.2443816e-06
3.5695985e-06
2.9987493e-06
2.5164766e-06
2.1095745e-06
1.7667062e-06
1.4781567e-06
1.2356156e-06
1.0319856e-06
8.6121649e-07
7.1815927e-07
5.9843923e-07
4.9834572e-07
4.147365e-07
3.4495484e-07
2.8675797e-07
2.3825536e-07
1.9785565e-07
1.6422113e-07
1.3622869e-07
1.1293645e-07
9.3555382e-08
7.7425058e-08
6.3993089e-08
5.2797683e-08
4.3452887e-08
3.5636099e-08
2.9077541e-08
2.3551375e-08
1.8868226e-08
1.4868889e-08
1.1419031e-08
8.404735e-09
5.728749e-09
3.3073105e-09
1.0673986e-09
4.2706783e-05
3.6571612e-05
3.1270855e-05
2.6702001e-05
2.2769852e-05
1.9390588e-05
1.6490719e-05
1.4005887e-05
1.1879815e-05
1.0063372e-05
8.5137316e-06
7.193628e-06
6.0706863e-06
5.1168282e-06
4.3077429e-06
3.6224176e-06
3.0427211e-06
2.5530362e-06
2.139934e-06
1.7918877e-06
1.4990205e-06
1.252884e-06
1.0462645e-06
8.730128e-07
7.2789657e-07
6.0647079e-07
5.0496576e-07
4.2018965e-07
3.494442e-07
2.9045194e-07
2.4129338e-07
2.0035304e-07
1.6627315e-07
1.3791392e-07
1.1431969e-07
9.4689961e-08
7.8354844e-08
6.4754119e-08
5.3419529e-08
4.395978e-08
3.604786e-08
2.941035e-08
2.3818403e-08
1.9080156e-08
1.5034341e-08
1.1544911e-08
8.4965224e-09
5.790723e-09
3.3427403e-09
1.0786869e-09
4.3357288e-05
3.7126211e-05
3.174281e-05
2.7102941e-05
2.3109865e-05
1.9678429e-05
1.6733977e-05
1.4211121e-05
1.2052682e-05
1.0208739e-05
8.635779e-06
7.2959358e-06
6.156316e-06
5.1883919e-06
4.3674647e-06
3.6721873e-06
3.0841415e-06
2.5874635e-06
2.1685136e-06
1.8155853e-06
1.5186483e-06
1.2691242e-06
1.0596887e-06
8.840994e-07
7.3704504e-07
6.1401424e-07
5.1118147e-07
4.2530811e-07
3.5365671e-07
2.9391703e-07
2.441423e-07
2.0269429e-07
1.6819631e-07
1.3949289e-07
1.1561534e-07
9.5752408e-08
7.9225284e-08
6.5466387e-08
5.400138e-08
4.4433947e-08
3.6432936e-08
2.9721508e-08
2.4067992e-08
1.927819e-08
1.5188899e-08
1.1662467e-08
8.5822109e-09
5.848558e-09
3.3757905e-09
1.089211e-09
4.3971365e-05
3.7649552e-05
3.2188008e-05
2.7481043e-05
2.343043e-05
1.9949743e-05
1.6963214e-05
1.440448e-05
1.2215507e-05
1.0345628e-05
8.7506775e-06
7.3922251e-06
6.2368859e-06
5.2557077e-06
4.4236251e-06
3.7189752e-06
3.1230684e-06
2.6198082e-06
2.1953561e-06
1.8378354e-06
1.5370713e-06
1.2843626e-06
1.0722808e-06
8.9449547e-07
7.4562094e-07
6.2108331e-07
5.1700446e-07
4.3010167e-07
3.5760059e-07
2.9716019e-07
2.4680795e-07
2.0488428e-07
1.699947e-07
1.4096899e-07
1.1682625e-07
9.6745095e-08
8.0038352e-08
6.6131532e-08
5.4544592e-08
4.487651e-08
3.6792251e-08
3.0011772e-08
2.4300757e-08
1.9462822e-08
1.5332954e-08
1.1772e-08
8.6620236e-09
5.9024069e-09
3.4065501e-09
1.099e-09
4.4549598e-05
3.8142206e-05
3.2606972e-05
2.7836767e-05
2.3731946e-05
2.0204874e-05
1.7178726e-05
1.4586219e-05
1.2368511e-05
1.0474228e-05
8.8585916e-06
7.4826373e-06
6.3125177e-06
5.3188802e-06
4.4763138e-06
3.762858e-06
3.1595675e-06
2.6501265e-06
2.2205091e-06
1.8586786e-06
1.5543241e-06
1.2986286e-06
1.0840657e-06
9.0422196e-07
7.5364197e-07
6.2769292e-07
5.2244728e-07
4.3458088e-07
3.6128472e-07
3.0018881e-07
2.4929652e-07
2.0692818e-07
1.7167265e-07
1.4234585e-07
1.1795543e-07
9.767052e-08
8.0796123e-08
6.6751272e-08
5.5050587e-08
4.5288641e-08
3.7126768e-08
3.0281929e-08
2.4517337e-08
1.9634565e-08
1.5466911e-08
1.1873821e-08
8.7361909e-09
5.9524277e-09
3.4351108e-09
1.1080837e-09
4.5092743e-05
3.8604844e-05
3.30003e-05
2.8170635e-05
2.4014867e-05
2.0444213e-05
1.7380853e-05
1.4756631e-05
1.2511944e-05
1.0594755e-05
8.959706e-06
7.567331e-06
6.3833472e-06
5.3780254e-06
4.5256298e-06
3.8039202e-06
3.1937107e-06
2.6784796e-06
2.2440247e-06
1.8781591e-06
1.5704439e-06
1.3119537e-06
1.0950698e-06
9.1330128e-07
7.6112697e-07
6.338589e-07
5.275232e-07
4.3875686e-07
3.6471839e-07
3.0301068e-07
2.5161452e-07
2.0883143e-07
1.7323466e-07
1.4362721e-07
1.1900598e-07
9.8531273e-08
8.1500741e-08
6.7327383e-08
5.5520831e-08
4.5671547e-08
3.7437477e-08
3.0532787e-08
2.4718385e-08
1.9793943e-08
1.5591185e-08
1.1968249e-08
8.804948e-09
5.9987812e-09
3.461566e-09
1.1164925e-09
4.5601677e-05
3.9038228e-05
3.3368655e-05
2.8483226e-05
2.4279693e-05
2.0668193e-05
1.7569965e-05
1.4916035e-05
1.2646082e-05
1.0707444e-05
9.0542224e-06
7.6464785e-06
6.4495213e-06
5.4332687e-06
4.5716799e-06
3.8422524e-06
3.2255749e-06
2.7049326e-06
2.265958e-06
1.8963234e-06
1.5854702e-06
1.3243709e-06
1.1053212e-06
9.2175687e-07
7.6809561e-07
6.3959774e-07
5.3224603e-07
4.4264115e-07
3.6791124e-07
3.0563385e-07
2.5376864e-07
2.105996e-07
1.7468538e-07
1.4481692e-07
1.1998112e-07
9.9330001e-08
8.2154399e-08
6.7861675e-08
5.5956816e-08
4.6026455e-08
3.7725382e-08
3.0765165e-08
2.4904567e-08
1.9941489e-08
1.5706193e-08
1.2055606e-08
8.8685324e-09
6.0416297e-09
3.4860097e-09
1.124257e-09
4.6077365e-05
3.944319e-05
3.371276e-05
2.8775164e-05
2.4526964e-05
2.0877279e-05
1.7746465e-05
1.5064775e-05
1.2771219e-05
1.0812548e-05
9.1423561e-06
7.7202631e-06
6.5111962e-06
5.4847427e-06
4.6145767e-06
3.8779502e-06
3.2552411e-06
2.7295538e-06
2.2863666e-06
1.9132201e-06
1.5994437e-06
1.3359149e-06
1.1148486e-06
9.2961297e-07
7.7456819e-07
6.4492641e-07
5.3662995e-07
4.4624559e-07
3.7087314e-07
3.0806652e-07
2.5576572e-07
2.1223835e-07
1.7602952e-07
1.4591889e-07
1.2088407e-07
1.0006938e-07
8.275931e-08
6.8355975e-08
5.6360047e-08
4.6354602e-08
3.7991498e-08
3.0979888e-08
2.5076548e-08
2.0077736e-08
1.5812357e-08
1.2136215e-08
8.9271815e-09
6.0811354e-09
3.5085357e-09
1.1314075e-09
4.6520842e-05
3.9820618e-05
3.4033379e-05
2.9047111e-05
2.4757252e-05
2.1071964e-05
1.7910775e-05
1.5203215e-05
1.2887665e-05
1.0910332e-05
9.2243325e-06
7.7888767e-06
6.5685348e-06
5.5325856e-06
4.6544372e-06
3.9111125e-06
3.2827928e-06
2.7524139e-06
2.3053102e-06
1.9288994e-06
1.6124066e-06
1.3466207e-06
1.1236817e-06
9.3689427e-07
7.8056534e-07
6.4986215e-07
5.4068933e-07
4.4958214e-07
3.7361405e-07
3.1031697e-07
2.5761262e-07
2.1375341e-07
1.7727181e-07
1.4693705e-07
1.2171808e-07
1.007521e-07
8.3317691e-08
6.8812112e-08
5.6732029e-08
4.6657221e-08
3.8236832e-08
3.1177779e-08
2.5234992e-08
2.0203214e-08
1.5910094e-08
1.2210396e-08
8.9811314e-09
6.1174592e-09
3.5292373e-09
1.1379744e-09
4.6933195e-05
4.0171444e-05
3.4331314e-05
2.9299758e-05
2.4971152e-05
2.1252761e-05
1.8063335e-05
1.5331732e-05
1.2995743e-05
1.1001069e-05
9.3003848e-06
7.8525173e-06
6.6217048e-06