/*--------------------------------*- C++ -*----------------------------------*\
| =========                 |                                                 |
| \\      /  F ield         | OpenFOAM: The Open Source CFD Toolbox           |
|  \\    /   O peration     | Version:  2312                                  |
|   \\  /    A nd           | Website:  www.openfoam.com                      |
|    \\/     M anipulation  |                                                 |
\*---------------------------------------------------------------------------*/
FoamFile
{
    version     2.0;
    format      ascii;
    arch        "LSB;label=32;scalar=64";
    class       volScalarField;
    location    "0.02";
    object      k;
}
// * * * * * * * * * * * * * * * * * * * * * * * * * * * * * * * * * * * * * //

dimensions      [0 2 -2 0 0 0 0];

internalField   nonuniform List<scalar> 
3257
(
7.3330648
7.3653271
7.3982048
7.4316757
7.4657311
7.5003709
7.5356028
7.5714431
7.6079169
7.6450583
7.6829113
7.7215295
7.7609761
7.8013243
7.8426563
7.885064
7.9286473
7.9735145
8.0197809
8.0675682
8.1170033
8.1682176
8.2213454
8.2765229
8.3338871
8.3935743
8.4557194
8.5204539
8.5879057
8.6581973
8.7314457
8.8077606
8.8872446
8.9699919
9.0560885
9.1456114
9.2386286
9.3351989
9.4353723
9.5391896
9.6466831
9.7578767
9.8727862
9.9914201
10.11378
10.239859
10.369649
10.50313
10.640284
10.781083
10.925499
7.3419116
7.3741341
7.4069613
7.4403713
7.4743559
7.5089148
7.5440558
7.579795
7.6161575
7.6531778
7.6908998
7.7293774
7.7686742
7.8088635
7.8500284
7.8922609
7.9356617
7.9803396
8.0264107
8.0739972
8.1232269
8.1742317
8.2271466
8.2821087
8.3392554
8.3987239
8.4606493
8.5251642
8.5923965
8.6624696
8.7355006
8.8115997
8.8908697
8.9734051
9.0592922
9.1486078
9.2414203
9.3377885
9.4377621
9.5413822
9.6486807
9.7596814
9.8744
9.9928445
10.115016
10.240909
10.370512
10.503807
10.640772
10.781381
10.925602
7.3572646
7.3894431
7.4222102
7.4555427
7.4894317
7.5238766
7.5588849
7.5944726
7.6306647
7.6674958
7.7050102
7.743262
7.7823154
7.8222445
7.8631329
7.9050738
7.9481687
7.9925277
8.0382677
8.0855123
8.1343905
8.1850355
8.2375835
8.2921726
8.3489418
8.4080291
8.469571
8.5337006
8.6005473
8.670235
8.7428816
8.8185979
8.8974873
8.9796449
9.065157
9.154101
9.2465452
9.3425486
9.4421608
9.5454227
9.6523662
9.7630147
9.8773834
9.99548
10.117305
10.242852
10.372108
10.505056
10.641671
10.781926
10.925788
7.378748
7.4108625
7.4435429
7.4767645
7.5105175
7.5448007
7.5796212
7.6149946
7.6509462
7.6875105
7.7247323
7.7626662
7.8013774
7.8409408
7.8814413
7.922973
7.9656392
8.0095513
8.054828
8.1015944
8.1499813
8.2001236
8.2521592
8.306228
8.3624704
8.4210263
8.4820334
8.5456263
8.6119356
8.6810864
8.7531974
8.8283806
8.9067399
8.9883709
9.0733606
9.1617865
9.2537171
9.3492115
9.4483192
9.551081
9.6575282
9.7676839
9.8815629
9.999172
10.120511
10.245572
10.374342
10.506802
10.642926
10.782685
10.926046
7.4054483
7.4374796
7.4700481
7.5031276
7.5367071
7.5707847
7.6053669
7.6404693
7.676117
7.712345
7.7491985
7.786733
7.8250146
7.8641196
7.9041342
7.9451544
7.9872851
8.0306395
8.0753386
8.1215095
8.1692851
8.2188024
8.2702016
8.3236246
8.3792138
8.4371109
8.4974555
8.560384
8.6260283
8.6945149
8.7659638
8.8404878
8.9181918
8.9991721
9.083516
9.1713015
9.2625973
9.3574623
9.455946
9.5580888
9.6639218
9.7734673
9.8867394
10.003744
10.12448
10.248939
10.377106
10.508961
10.644477
10.783623
10.926364
7.4365399
7.468468
7.5008994
7.533806
7.5671757
7.6010058
7.6353025
7.670081
7.7053666
7.7411948
7.7776115
7.8146732
7.8524473
7.8910116
7.9304542
7.970873
8.012375
8.0550759
8.0990987
8.1445734
8.1916352
8.2404236
8.2910813
8.3437526
8.3985822
8.4557141
8.5152898
8.5774476
8.6423212
8.7100384
8.7807208
8.8544822
8.9314283
9.0116562
9.0952536
9.182299
9.2728611
9.3669987
9.4647613
9.5661887
9.6713114
9.7801513
9.8927215
10.009027
10.129066
10.252828
10.380297
10.511452
10.646265
10.784703
10.92673
7.4712773
7.5030804
7.5353483
7.5680508
7.6011749
7.634717
7.6686827
7.7030875
7.7379568
7.7733267
7.809244
7.8457665
7.8829632
7.9209137
7.9597081
7.9994466
8.0402389
8.0822031
8.1254651
8.1701575
8.2164184
8.2643902
8.3142183
8.3660497
8.4200316
8.4763104
8.5350299
8.5963303
8.6603473
8.7272102
8.797042
8.8699577
8.9460639
9.0254584
9.1082295
9.1944558
9.284206
9.377539
9.4745039
9.57514
9.6794772
9.7875366
9.8993304
10.014863
10.13413
10.257122
10.38382
10.514202
10.648238
10.785895
10.927133
7.5089808
7.5406354
7.5727123
7.6051792
7.638022
7.6712365
7.704828
7.738812
7.7732143
7.8080718
7.8434326
7.879356
7.9159126
7.9531843
7.9912636
8.0302532
8.0702655
8.1114217
8.1538508
8.1976883
8.2430755
8.2901578
8.3390836
8.3900028
8.4430654
8.4984202
8.5562135
8.6165877
8.6796801
8.7456221
8.8145377
8.8865433
8.9617464
9.0402453
9.1221289
9.2074759
9.2963552
9.3888252
9.4849348
9.5847226
9.688218
9.7954411
9.9064031
10.021107
10.139548
10.261715
10.387587
10.517142
10.650347
10.787168
10.927564
7.5490336
7.5805148
7.6123722
7.6445717
7.677098
7.7099465
7.7431224
7.7766411
7.8105293
7.8448249
7.8795772
7.9148474
7.9507083
7.987244
8.0245497
8.062731
8.1019035
8.1421914
8.183727
8.2266494
8.2711029
8.3172363
8.3652012
8.4151505
8.4672371
8.5216125
8.5784254
8.6378203
8.6999367
8.7649073
8.8328579
8.9039057
8.9781593
9.0557175
9.1366695
9.2210942
9.3090603
9.4006261
9.4958398
9.5947395
9.6973537
9.8037016
9.9137933
10.027631
10.145208
10.266512
10.391521
10.520211
10.652548
10.788496
10.928014
7.5908785
7.6221602
7.6537693
7.6856697
7.7178453
7.7502908
7.7830116
7.8160236
7.8493542
7.8830426
7.9171397
7.9517087
7.9868247
8.0225746
8.0590564
8.096379
8.1346612
8.1740306
8.2146232
8.2565813
8.3000531
8.3451906
8.3921488
8.4410838
8.4921513
8.5455057
8.601298
8.6596752
8.7207784
8.7847423
8.8516937
8.921751
8.9950236
9.0716109
9.1516023
9.2350767
9.3221026
9.4127379
9.5070303
9.6050171
9.7067258
9.8121747
9.9213728
10.034321
10.151011
10.271429
10.395554
10.523356
10.654804
10.789857
10.928474
7.6340152
7.6650709
7.6964029
7.727973
7.7597646
7.7917722
7.8240011
7.856468
7.8892013
7.9222416
7.9556419
7.9894675
8.0237962
8.0587176
8.0943331
8.1307548
8.1681051
8.2065154
8.2461251
8.2870806
8.3295335
8.3736394
8.4195568
8.4674449
8.5174625
8.5697667
8.6245111
8.6818447
8.7419107
8.8048453
8.8707766
8.939824
9.0120975
9.0876969
9.1667119
9.2492212
9.335293
9.4249849
9.5183436
9.6154057
9.7161978
9.820737
9.9290311
10.041079
10.156873
10.276397
10.399626
10.526533
10.657081
10.791231
10.928938
7.6779969
7.7088001
7.7398266
7.7710365
7.8024126
7.8339493
7.8656523
7.8975392
7.9296395
7.9619957
7.9946628
8.0277086
8.0612138
8.095271
8.1299851
8.1654719
8.2018573
8.2392766
8.2778732
8.3177972
8.359204
8.402253
8.4471059
8.4939253
8.5428732
8.5941092
8.6477895
8.7040652
8.7630814
8.8249756
8.8898773
8.9579067
9.0291743
9.1037804
9.1818146
9.2633555
9.3484708
9.4372173
9.5296413
9.6257783
9.7256537
9.8292836
9.9366744
10.047824
10.162723
10.281353
10.403689
10.529702
10.659353
10.792602
10.929402
7.7224272
7.752952
7.7836458
7.8144672
7.8453983
7.8764339
7.9075802
7.9388558
7.9702919
8.0019326
8.0338353
8.0660708
8.0987225
8.1318867
8.1656716
8.2001968
8.2355922
8.2719971
8.3095588
8.3484314
8.3887741
8.43075
8.4745244
8.5202631
8.5681311
8.6182908
8.6709008
8.7261142
8.7840777
8.8449305
8.908803
8.9758162
9.0460812
9.1196983
9.196757
9.2773357
9.3615016
9.4493107
9.5408084
9.6360291
9.7349973
9.8377276
9.9442252
10.054487
10.168501
10.286248
10.407702
10.532831
10.661596
10.793955
10.929859
7.7669569
7.7971786
7.8275141
7.8579205
7.8883799
7.9188872
7.9494495
7.9800865
8.0108312
8.04173
8.0728427
8.104243
8.1360176
8.1682662
8.2011009
8.2346452
8.269033
8.3044078
8.3409208
8.3787301
8.417999
8.4588942
8.5015846
8.5462391
8.5930258
8.6421097
8.6936516
8.7478068
8.8047237
8.8645425
8.9273947
8.9934021
9.0626758
9.1353165
9.2114133
9.2910441
9.3742757
9.4611631
9.5517507
9.6460719
9.7441499
9.845998
9.95162
10.061011
10.174158
10.291041
10.411631
10.535895
10.663793
10.79528
10.930307
7.8112812
7.8411766
7.8711302
7.9010977
7.9310613
7.9610163
7.9909709
8.0209463
8.0509773
8.0811125
8.1114148
8.1419606
8.1728403
8.2041572
8.2360273
8.2685781
8.3019477
8.3362836
8.3717414
8.4084831
8.446676
8.4864904
8.5280987
8.5716732
8.6173846
8.6654007
8.7158845
8.7689931
8.8248764
8.883676
8.945524
9.0105427
9.0788437
9.1505272
9.2256823
9.3043864
9.3867052
9.4726931
9.5623933
9.655838
9.7530491
9.8540385
9.9588086
10.067353
10.179657
10.295699
10.41545
10.538873
10.665928
10.796568
10.930742
7.8551359
7.8846838
7.9142342
7.9437417
7.9731886
8.002571
8.0318982
8.061193
8.0904924
8.1198475
8.149324
8.1790017
8.2089744
8.2393494
8.2702465
8.3017975
8.3341447
8.3674398
8.4018424
8.4375189
8.4746401
8.5133804
8.5539153
8.5964204
8.6410693
8.688032
8.7374739
8.7895538
8.8444229
8.9022238
8.9630896
9.0271428
9.0944949
9.1652463
9.2394854
9.317289
9.3987219
9.4838376
9.572678
9.6652741
9.7616464
9.8618054
9.9657521
10.073479
10.184969
10.300199
10.419138
10.541749
10.66799
10.797812
10.931162
7.8982948
7.9274764
7.956605
7.9856343
8.0145469
8.0433399
8.0720239
8.1006236
8.129178
8.1577412
8.1863817
8.2151828
8.244242
8.2736704
8.3035921
8.3341428
8.3654692
8.3977273
8.4310809
8.4657003
8.5017604
8.5394389
8.578915
8.6203671
8.6639716
8.709901
8.7583225
8.8093967
8.863276
8.920104
8.9800142
9.0431295
9.1095615
9.17941
9.252763
9.3296965
9.4102744
9.4945491
9.5825612
9.6743404
9.7699058
9.8692664
9.9724217
10.079362
10.19007
10.30452
10.422681
10.544512
10.669971
10.799007
10.931566
7.9405664
7.9693653
7.9980563
8.0265923
8.0549566
8.0831472
8.1111762
8.1390703
8.166871
8.194635
8.2224342
8.2503552
8.2784994
8.3069819
8.3359308
8.3654862
8.395799
8.4270293
8.4593453
8.4929212
8.5279356
8.5645699
8.6030065
8.6434269
8.68601
8.7309306
8.7783578
8.8284535
8.8813716
8.9372562
8.9962414
9.0584503
9.1239941
9.1929724
9.2654724
9.3415694
9.4213262
9.5047939
9.592012
9.6830088
9.7778018
9.8763986
9.978797
10.084986
10.194947
10.308652
10.426067
10.547154
10.671865
10.800149
10.931953
7.981791
8.0101934
8.038434
8.0664649
8.0942702
8.121849
8.1492152
8.1763974
8.2034399
8.2304021
8.2573591
8.2844014
8.3116339
8.3391758
8.3671595
8.3957293
8.4250403
8.4552569
8.4865513
8.5191018
8.5530906
8.5887027
8.6261236
8.6655375
8.7071261
8.7510661
8.7975285
8.8466765
8.898665
8.9536389
9.0117326
9.073069
9.1377593
9.2059025
9.2775851
9.3528814
9.431853
9.51455
9.6010103
9.6912609
9.7853178
9.883187
9.9848648
10.090339
10.199588
10.312584
10.429291
10.549668
10.673668
10.801237
10.93232
8.0218374
8.0498325
8.0776128
8.10513
8.132369
8.1593304
8.1860297
8.2124978
8.2387815
8.2649434
8.2910619
8.3172309
8.3435594
8.3701706
8.397201
8.4247992
8.4531246
8.4823457
8.5126388
8.5441858
8.5771729
8.6117883
8.6482206
8.6866569
8.7272809
8.7702716
8.8158015
8.8640352
8.9151283
8.9692264
9.0264641
9.0869642
9.1508375
9.2181824
9.2890846
9.3636174
9.4418413
9.5238049
9.6095449
9.6990866
9.7924448
9.8896237
9.9906181
10.095414
10.203989
10.316312
10.432348
10.552053
10.675378
10.80227
10.932669
8.0606007
8.0881802
8.1154933
8.1424915
8.1691604
8.1955021
8.2215341
8.2472896
8.2728179
8.2981849
8.3234722
8.3487775
8.3742137
8.3999079
8.4260009
8.4526455
8.4800051
8.5082525
8.5375678
8.5681369
8.6001493
8.6337967
8.6692704
8.7067603
8.7464523
8.7885272
8.8331591
8.8805138
8.9307475
8.9840064
9.040425
9.1001261
9.1632201
9.2298046
9.2999644
9.3737717
9.4512859
9.5325541
9.6176117
9.7064826
9.7991797
9.895706
9.9960545
10.10021
10.208147
10.319836
10.435238
10.554308
10.676995
10.803246
10.933
8.0979989
8.1251575
8.1519995
8.1784761
8.2045742
8.2302975
8.2556652
8.2807129
8.3054929
8.3300739
8.3545412
8.378996
8.403555
8.4283495
8.4535244
8.4792365
8.5056534
8.532952
8.5613162
8.5909355
8.622003
8.6547133
8.6892608
8.7258376
8.764632
8.8058265
8.8495964
8.8961086
8.9455201
8.9979773
9.0536148
9.1125551
9.1749079
9.2407703
9.3102261
9.3833462
9.4601889
9.5407999
9.6252131
9.7134509
9.8055248
9.9014359
10.001176
10.104728
10.212066
10.323157
10.437961
10.556433
10.67852
10.804166
10.933311
8.1339709
8.1607058
8.1870755
8.2130312
8.2385609
8.2636699
8.2883795
8.3127277
8.3367696
8.3605769
8.3842383
8.4078589
8.4315592
8.4554743
8.4797533
8.504557
8.5300571
8.5564342
8.5838763
8.6125763
8.6427306
8.6745368
8.7081921
8.7438908
8.7818234
8.8221738
8.8651188
8.910826
8.9594532
9.0111467
9.0660414
9.1242591
9.1859093
9.2510879
9.3198778
9.3923489
9.468558
9.5485496
9.632356
9.7199981
9.8114859
9.906819
10.005987
10.108972
10.215747
10.326277
10.44052
10.55843
10.679953
10.805032
10.933604
8.1684739
8.1947847
8.2206837
8.2461218
8.2710883
8.2955902
8.3196507
8.3433105
8.3666273
8.3896761
8.412549
8.4353545
8.458217
8.4812757
8.5046835
8.5286052
8.5532166
8.5787019
8.6052528
8.6330657
8.6623402
8.6932767
8.726075
8.7609317
8.798039
8.8375826
8.8797402
8.9246804
8.9725612
9.0235293
9.0777193
9.1352527
9.1962382
9.260771
9.3289329
9.4007925
9.4764054
9.5558147
9.6390512
9.7261343
9.8170723
9.9118635
10.010496
10.11295
10.219197
10.329201
10.442919
10.560303
10.681297
10.805844
10.933879
8.201481
8.2273699
8.2528021
8.2777285
8.3021396
8.326044
8.3494673
8.3724524
8.3950598
8.4173678
8.4394717
8.4614837
8.4835319
8.5057594
8.5283228
8.551391
8.5751434
8.5997683
8.6254605
8.6524198
8.680849
8.7109512
8.7429285
8.7769799
8.8132992
8.8520733
8.8934813
8.9376922
8.9848647
9.0351453
9.0886684
9.1455552
9.2059135
9.2698378
9.3374086
9.4086935
9.4837466
9.5626097
9.6453122
9.7318718
9.8222956
9.91658
10.014712
10.11667
10.222424
10.331937
10.445164
10.562055
10.682555
10.806604
10.934136
8.2329794
8.2584506
8.2834224
8.3078452
8.3317111
8.3550302
8.3778302
8.4001566
8.4220727
8.4436597
8.4650164
8.4862585
8.5075177
8.5289409
8.5506885
8.5729332
8.5958581
8.6196548
8.6445219
8.6706623
8.6982814
8.7275853
8.7587783
8.7920613
8.8276297
8.8656719
8.9063678
8.9498871
8.9963887
9.0460192
9.0989126
9.1551897
9.2149575
9.2783095
9.3453253
9.4160711
9.4905999
9.5689518
9.6511549
9.7372254
9.8271689
9.9209804
10.018645
10.120141
10.225435
10.334489
10.447258
10.563691
10.68373
10.807314
10.934376
8.2629685
8.2880276
8.3125477
8.3364775
8.3598103
8.3825583
8.4047512
8.4264368
8.4476814
8.4685692
8.4892022
8.5096997
8.5301969
8.5508442
8.5718059
8.5932583
8.615388
8.6383901
8.6624664
8.6878228
8.7146677
8.7432095
8.7736548
8.8062063
8.841061
8.8784085
8.9184294
8.9612941
9.0071616
9.0561786
9.1084787
9.164182
9.2233949
9.2862099
9.3527055
9.4229467
9.496985
9.5748595
9.6565965
9.742211
9.8317069
9.9250778
10.022308
10.123373
10.228239
10.336867
10.44921
10.565215
10.684824
10.807975
10.934601
8.2914582
8.3161117
8.340191
8.3636404
8.3864544
8.4086471
8.4302506
8.4513152
8.4719097
8.4921216
8.512056
8.5318355
8.5515988
8.5714999
8.5917066
8.6123987
8.6337662
8.6560077
8.679328
8.7039359
8.7300424
8.7578585
8.7875926
8.8194493
8.8536269
8.8903163
8.9296987
8.971945
9.0172144
9.0656534
9.1173954
9.1725598
9.2312522
9.2935641
9.359573
9.4293426
9.5029233
9.5803524
9.6616553
9.7468452
9.8359248
9.9288862
10.025712
10.126377
10.230846
10.339077
10.451024
10.566633
10.685843
10.808591
10.934809
8.3184669
8.342722
8.366373
8.3893572
8.4116682
8.4333231
8.4543564
8.4748209
8.4947883
8.5143487
8.5336107
8.5526998
8.5717583
8.5909436
8.6104269
8.6303912
8.6510302
8.6725454
8.6951445
8.7190393
8.7444433
8.7715695
8.8006286
8.8318266
8.8653633
8.9014303
8.9402099
8.9818732
9.0265794
9.074475
9.1256928
9.1803519
9.2385569
9.3003983
9.3659526
9.4352823
9.5084364
9.5854511
9.6663501
9.7511456
9.8398385
9.9324198
10.028871
10.129164
10.233264
10.341129
10.452709
10.567949
10.686788
10.809163
10.935003
8.3440131
8.3678915
8.3911233
8.413658
8.4354832
8.4566189
8.4771023
8.4969888
8.5163528
8.5352873
8.5539037
8.572331
8.5907145
8.6092149
8.6280067
8.6472763
8.6672204
8.6880435
8.7099564
8.7331733
8.7579101
8.7843821
8.8128017
8.8433765
8.8763075
8.9117873
8.9499986
8.991113
9.0352898
9.0826753
9.1334018
9.1875877
9.245337
9.3067391
9.3718695
9.4407894
9.5135466
9.590176
9.6707001
9.7551295
9.8434639
9.935693
10.031797
10.131746
10.235505
10.34303
10.45427
10.569169
10.687665
10.809693
10.935183
8.39165
8.4144799
8.4365799
8.4579365
8.4785721
8.4985267
8.5178581
8.5366433
8.554978
8.5729766
8.5907709
8.6085095
8.6263563
8.6444888
8.6630966
8.6823794
8.7025447
8.7238058
8.7463796
8.7704842
8.7963369
8.8241518
8.854138
8.8864976
8.9214241
8.9591008
8.9996994
9.0433794
9.0902867
9.1405533
9.1942969
9.2516207
9.3126132
9.3773488
9.4458875
9.518276
9.5945479
9.6747242
9.7588145
9.846817
9.9387201
10.034503
10.134134
10.237578
10.344788
10.455714
10.570297
10.688477
10.810184
10.93535
8.4140675
8.4364886
8.4581644
8.4790689
8.4992241
8.5186716
8.5374715
8.555703
8.5734645
8.5908731
8.6080637
8.6251878
8.6424122
8.6599176
8.6778965
8.6965514
8.7160926
8.736736
8.7587009
8.7822075
8.8074751
8.8347192
8.8641505
8.8959721
8.9303781
8.9675524
9.0076671
9.0508815
9.0973413
9.147178
9.2005088
9.2574359
9.3180471
9.3824155
9.4506002
9.5226466
9.598587
9.6784414
9.7622178
9.8499135
9.9415154
10.037001
10.13634
10.239492
10.346412
10.457048
10.57134
10.689226
10.810638
10.935504
8.4351473
8.4571845
8.4784531
8.4989238
8.5186191
8.5375818
8.5558739
8.5735772
8.5907924
8.6076392
8.6242554
8.6407951
8.6574284
8.6743385
8.6917209
8.7097809
8.7287313
8.7487905
8.7701799
8.793122
8.8178377
8.8445441
8.8734531
8.9047688
8.9386861
8.9753892
9.0150505
9.0578292
9.1038707
9.1533063
9.2062522
9.26281
9.3230665
9.3870939
9.4549502
9.5266796
9.6023133
9.6818698
9.7653563
9.8527686
9.9440927
10.039305
10.138373
10.241257
10.34791
10.458278
10.572302
10.689918
10.811057
10.935646
8.4549348
8.47661
8.4974902
8.5175467
8.536803
8.5553036
8.5731122
8.5903128
8.6070086
8.6233218
8.6393926
8.6553782
8.6714511
8.6877975
8.7046154
8.7221128
8.740505
8.7600126
8.7808594
8.8032695
8.8274655
8.8536662
8.8820844
8.9129252
8.9463842
8.9826461
9.0218832
9.0642548
9.109906
9.1589675
9.2115551
9.2677696
9.3276968
9.3914079
9.4589599
9.5303959
9.605746
9.6850275
9.7682464
9.8553975
9.9464654
10.041425
10.140244
10.242881
10.349288
10.45941
10.573187
10.690555
10.811442
10.935777
8.4734794
8.4948114
8.5153224
8.5349847
8.5538235
8.5718847
8.5892342
8.6059577
8.6221608
8.6379682
8.6535226
8.6689838
8.6845267
8.7003403
8.7166252
8.7335917
8.7514575
8.7704454
8.7907812
8.8126908
8.8363985
8.8621243
8.8900821
8.9204779
8.9535079
8.989357
9.0281979
9.0701896
9.115477
9.1641904
9.2164449
9.2723405
9.3319622
9.3953804
9.4626508
9.5338156
9.6089038
9.6879316
9.7709039
9.8578143
9.9486465
10.043375
10.141965
10.244374
10.350555
10.460451
10.574001
10.69114
10.811797
10.935897
8.4908305
8.5118371
8.5319978
8.5512861
8.5697288
8.5873735
8.604288
8.6205599
8.6362969
8.6516261
8.6666926
8.6816584
8.6967013
8.7120124
8.7277949
8.7442614
8.7616318
8.780131
8.7999865
8.8214262
8.8446756
8.8699562
8.8974828
8.9274622
8.9600911
8.9955548
9.034026
9.0756638
9.1206127
9.1690024
9.2209475
9.2765474
9.3358862
9.3990332
9.4660435
9.536958
9.6118046
9.6905987
9.7733439
9.860033
9.9506485
10.045164
10.143543
10.245745
10.351718
10.461406
10.574748
10.691678
10.812122
10.936008
8.5070376
8.527736
8.5475652
8.5664996
8.5845676
8.6018186
8.618322
8.6341673
8.6494645
8.6643426
8.678949
8.6934482
8.7080202
8.7228584
8.7381684
8.7541648
8.7710698
8.7891102
8.8085153
8.8295144
8.8523346
8.8771985
8.9043218
8.9339122
8.9661667
9.0012711
9.039398
9.0807064
9.1253406
9.1734298
9.2250881
9.2804141
9.3394911
9.4023876
9.4691577
9.5398414
9.6144655
9.6930445
9.775581
9.8620667
9.9524833
10.046803
10.14499
10.247
10.352783
10.462281
10.575433
10.69217
10.812421
10.936109
8.5221501
8.5425574
8.5620738
8.5806741
8.5983887
8.6152684
8.6313842
8.6468277
8.6617106
8.6761642
8.6903378
8.7043983
8.7185277
8.7329218
8.7477882
8.7633437
8.7798123
8.7974228
8.816406
8.8369929
8.8594118
8.8838864
8.9106333
8.9398607
8.9717664
9.0065362
9.0443429
9.0853452
9.1296873
9.177498
9.2288906
9.2839632
9.3427983
9.4054636
9.4720122
9.5424833
9.6169028
9.6952841
9.777629
9.8639281
9.9541622
10.048303
10.146313
10.248148
10.353757
10.463082
10.576059
10.69262
10.812693
10.936201
8.5362175
8.5563507
8.5755723
8.5938582
8.6112401
8.6277705
8.6435219
8.6585877
8.6730815
8.6871363
8.7009038
8.7145526
8.7282671
8.7422449
8.7566958
8.7718384
8.7878987
8.8051071
8.8236961
8.8438979
8.8659422
8.8900536
8.9164496
8.9453391
8.9769202
9.0113789
9.0488882
9.0896066
9.1336779
9.1812306
9.2323776
9.2872161
9.345828
9.4082802
9.4746249
9.5449005
9.619132
9.6973318
9.7795009
9.865629
9.9556961
10.049673
10.147522
10.249197
10.354646
10.463812
10.57663
10.693031
10.812942
10.936286
8.5492885
8.5691643
8.5881092
8.6060998
8.6231695
8.639372
8.6547816
8.6694932
8.6836222
8.6973035
8.7106906
8.7239541
8.7372802
8.7508687
8.7649311
8.7796879
8.7953668
8.8121999
8.8304211
8.8502639
8.8719591
8.8957324
8.921802
8.9503773
8.9816568
9.0158268
9.0530602
9.0935156
9.1373363
9.1846506
9.2355706
9.2901932
9.3485994
9.4108554
9.4770127
9.5471087
9.6211676
9.6992011
9.7812091
9.8671808
9.9570952
10.050922
10.148623
10.250153
10.355457
10.464478
10.57715
10.693405
10.813169
10.936363
8.5614116
8.5810462
8.599732
8.617446
8.6342231
8.6501187
8.6652084
8.6795887
8.6933766
8.7067087
8.7197403
8.7326439
8.7456074
8.7588326
8.7725325
8.7869296
8.802253
8.8187364
8.8366151
8.8561239
8.8774944
8.9009534
8.9267198
8.9550034
8.9860033
9.0199058
9.0568839
9.0970959
9.1406851
9.1877792
9.23849
9.2929136
9.3511306
9.4132063
9.4791914
9.5491227
9.6230235
9.7009047
9.7827654
9.8685941
9.958369
10.052059
10.149626
10.251022
10.356194
10.465083
10.577623
10.693745
10.813374
10.936433
8.5726341
8.5920434
8.610487
8.6279426
8.6444465
8.6600555
8.6748465
8.6889176
8.7023872
8.7153937
8.7280939
8.740662
8.7532877
8.7661744
8.779537
8.7935993
8.8085921
8.8247503
8.8423107
8.8615092
8.8825784
8.9057458
8.9312311
8.9592446
8.9899855
9.0236405
9.0603826
9.10037
9.1437456
9.1906368
9.2411549
9.2953956
9.3534386
9.4153488
9.4811761
9.5509565
9.6247126
9.7024546
9.7841809
9.8698791
9.9595268
10.053093
10.150537
10.251812
10.356864
10.465632
10.578052
10.694054
10.813561
10.936496
8.5830022
8.6022017
8.6204197
8.6376344
8.6538837
8.6692256
8.6837384
8.6975216
8.710695
8.7233985
8.7357905
8.7480466
8.7603584
8.7729306
8.7859797
8.7997311
8.814417
8.8302737
8.8475389
8.8664497
8.8872398
8.9101372
8.9353624
8.9631261
8.9936278
9.0270543
9.0635787
9.1033589
9.1465378
9.1932423
9.2435834
9.297656
9.3555396
9.4172981
9.4829809
9.5526233
9.6262473
9.7038622
9.7854659
9.8710452
9.9605772
10.05403
10.151362
10.252527
10.35747
10.46613
10.578441
10.694333
10.81373
10.936553
8.592561
8.6115658
8.6295741
8.6465648
8.6625773
8.6776709
8.6919253
8.7054411
8.7183395
8.7307618
8.7428677
8.7548346
8.7668551
8.7791358
8.7918944
8.8053578
8.8197595
8.8353369
8.852329
8.8709738
8.8915058
8.9141539
8.9391388
8.966672
8.9969531
9.030169
9.0664929
9.1060826
9.1490807
9.1956138
9.2457923
9.299711
9.3574484
9.4190682
9.484619
9.5541355
9.627639
9.7051381
9.7866302
9.8721013
9.961528
10.054878
10.152109
10.253174
10.358018
10.466579
10.578792
10.694585
10.813882
10.936605
8.6013542
8.6201788
8.6379926
8.6547756
8.6705685
8.6854319
8.6994468
8.7127149
8.7253587
8.7375206
8.7493618
8.7610609
8.772812
8.784823
8.7973131
8.8105103
8.8246493
8.8399689
8.8567089
8.8751082
8.8954022
8.9178203
8.942584
8.9699048
8.9999829
9.0330053
9.0691449
9.1085597
9.1513919
9.1977678
9.2477976
9.3015754
9.3591794
9.4206725
9.4861029
9.5555046
9.6288984
9.7062922
9.7876828
9.8730558
9.962387
10.055643
10.152783
10.253758
10.358512
10.466984
10.579108
10.694811
10.814019
10.936651
8.6094244
8.6280825
8.6457166
8.6623071
8.6778968
8.6925474
8.7063408
8.7193801
8.7317888
8.7437103
8.7553071
8.7667591
8.7782617
8.7900239
8.8022662
8.815218
8.8291151
8.844197
8.8607048
8.8788782
8.8989532
8.9211599
8.9457201
8.972846
9.0027377
9.0355825
9.0715532
9.1108077
9.1534881
9.1997203
9.2496142
9.3032633
9.3607456
9.4221233
9.4874441
9.5567415
9.6300355
9.7073339
9.7886325
9.8739165
9.9631613
10.056333
10.15339
10.254283
10.358957
10.467349
10.579392
10.695015
10.814142
10.936693
8.6168123
8.6353172
8.6527855
8.6691983
8.6846003
8.6990545
8.712644
8.7254724
8.7376645
8.7493648
8.7607366
8.7719611
8.783235
8.7947683
8.8067829
8.819509
8.8331836
8.8480473
8.8643418
8.8823078
8.9021818
8.9241945
8.9485683
8.9755155
9.0052365
9.0379187
9.073735
9.112843
9.1553848
9.2014859
9.2512559
9.3047879
9.3621594
9.4234322
9.4886535
9.5578562
9.6310599
9.7082717
9.789487
9.8746907
9.9638574
10.056953
10.153936
10.254755
10.359356
10.467675
10.579646
10.695197
10.814252
10.93673
8.6235577
8.6419216
8.6592373
8.6754864
8.6907155
8.704989
8.718391
8.7310259
8.7430191
8.7545162
8.7656816
8.7766974
8.7877613
8.7990848
8.8108904
8.8234096
8.8368804
8.851544
8.8676433
8.8854193
8.9051094
8.9269447
8.9511481
8.977932
9.0074972
9.040031
9.0757064
9.114681
9.1570965
9.2030784
9.2527357
9.3061613
9.3634323
9.42461
9.4897412
9.5588582
9.6319802
9.7091139
9.7902541
9.8753852
9.9644815
10.057509
10.154424
10.255177
10.359712
10.467967
10.579873
10.695359
10.814349
10.936762
8.6296986
8.647933
8.6651086
8.6812069
8.6962771
8.7103849
8.7236151
8.7360728
8.7478842
8.7591954
8.7701719
8.7809967
8.7918687
8.8030001
8.8146147
8.8269449
8.8402294
8.8547105
8.8706314
8.8882341
8.9077565
8.9294301
8.953478
8.9801132
9.0095365
9.0419354
9.0774827
9.116336
9.1586369
9.2045105
9.2540657
9.307395
9.3645751
9.4256668
9.4907166
9.5597563
9.6328047
9.7098679
9.7909405
9.8760063
9.9650395
10.058005
10.15486
10.255554
10.360031
10.468227
10.580075
10.695504
10.814436
10.936792
8.6352718
8.6533869
8.6704339
8.6863938
8.7013183
8.7152747
8.7283481
8.7406443
8.7522898
8.7634316
8.7742359
8.7848866
8.7955835
8.8065399
8.8179806
8.8301386
8.8432535
8.8575683
8.8733271
8.8907722
8.910142
8.9316686
8.9555755
8.9820757
9.0113703
9.0436467
9.079078
9.1178215
9.1600186
9.2057944
9.2552573
9.3084997
9.3655977
9.426612
9.4915884
9.5605586
9.6335408
9.7105408
9.7915527
9.8765601
9.9655366
10.058447
10.155248
10.255889
10.360313
10.468458
10.580255
10.695632
10.814513
10.936817
8.6403127
8.6583172
8.6752461
8.6910794
8.7058709
8.7196892
8.7326202
8.7447697
8.7562646
8.7672526
8.7779004
8.7883929
8.7989308
8.8097284
8.8210111
8.8330129
8.8459741
8.8601382
8.87575
8.8930523
8.912284
8.9336776
8.9574567
8.9838349
9.0130131
9.045179
9.0805055
9.1191499
9.1612535
9.2069411
9.256321
9.3094852
9.3665094
9.4274542
9.4923649
9.5612728
9.6341957
9.7111391
9.7920969
9.877052
9.9659779
10.058839
10.155592
10.256186
10.360563
10.468662
10.580413
10.695745
10.81458
10.93684
8.6448547
8.6627559
8.679576
8.6952943
8.7099647
8.723658
8.73646
8.7484769
8.7598358
8.7706846
8.7811909
8.7915403
8.8019345
8.8125884
8.8237283
8.835589
8.8484113
8.8624394
8.8779185
8.895092
8.9141992
8.9354729
8.959137
8.9854052
9.0144787
9.0465452
9.0817775
9.1203329
9.1623526
9.2079611
9.2572666
9.3103607
9.367319
9.4282016
9.4930536
9.5619058
9.6347759
9.711669
9.7925784
9.8774871
9.9663681
10.059186
10.155896
10.256448
10.360784
10.468842
10.580552
10.695844
10.81464
10.93686
8.648929
8.6667337
8.683452
8.6990674
8.7136285
8.7272089
8.739895
8.7517927
8.7630293
8.7737529
8.7841317
8.7943522
8.8046169
8.8151415
8.826153
8.8378868
8.8505842
8.8644901
8.8798501
8.896908
8.9159035
8.9370696
8.9606306
8.9868003
9.01578
9.0477574
9.0829055
9.1213814
9.163326
9.208864
9.2581031
9.3111348
9.3680344
9.4288617
9.4936614
9.5624643
9.6352875
9.7121359
9.7930026
9.8778702
9.9667114
10.05949
10.156163
10.256678
10.360977
10.468999
10.580674
10.69593
10.814691
10.936877
8.6525632
8.6702795
8.6869021
8.7024257
8.7168892
8.7303685
8.7429509
8.7547423
8.7658695
8.776481
8.7867457
8.7968506
8.8069992
8.817408
8.8283046
8.8399249
8.8525108
8.8663075
8.8815611
8.8985158
8.9174116
8.9384818
8.9619509
8.9880328
9.016929
9.0488272
9.0839003
9.1223054
9.1641835
9.2096588
9.258839
9.3118154
9.368663
9.4294414
9.494195
9.5629543
9.6357362
9.7125451
9.7933741
9.8782055
9.9670117
10.059757
10.156396
10.256878
10.361146
10.469136
10.58078
10.696005
10.814736
10.936891
8.6734212
8.689953
8.7053949
8.7197725
8.733162
8.7456525
8.7573495
8.7683797
8.7788916
8.7890544
8.7990564
8.8091016
8.8194073
8.8302017
8.8417211
8.8542078
8.8679076
8.8830669
8.8999301
8.9187375
8.9397226
8.9631103
8.9891145
9.0179368
9.0497649
9.0847718
9.1231145
9.1649338
9.2103539
9.2594822
9.3124099
9.3692118
9.4299472
9.4946603
9.5633813
9.636127
9.7129014
9.7936975
9.8784972
9.9672728
10.059988
10.156598
10.257053
10.361293
10.469255
10.580872
10.69607
10.814774
10.936904
8.6761852
8.6926318
8.7079991
8.7223025
8.7356132
8.748023
8.7596371
8.7705819
8.7810058
8.7910785
8.8009892
8.8109429
8.8211575
8.8318616
8.8432919
8.8556913
8.8693057
8.8843818
8.9011644
8.9198941
8.9408045
8.9641206
8.9900565
9.0188139
9.0505806
9.0855294
9.1238174
9.1655852
9.2109569
9.26004
9.3129251
9.3696871
9.430385
9.4950629
9.5637506
9.6364647
9.7132093
9.7939767
9.8787489
9.9674981
10.060188
10.156773
10.257202
10.361418
10.469357
10.58095
10.696126
10.814807
10.936915
8.6785981
8.6949628
8.710262
8.7245023
8.7377448
8.7500845
8.7616267
8.772497
8.7828438
8.7928373
8.8026677
8.8125409
8.8226756
8.8333006
8.8446532
8.8569762
8.870516
8.8855195
8.9022318
8.9208936
8.9417389
8.9649927
8.9908692
9.0195701
9.0512833
9.0861817
9.1244221
9.1661453
9.2114752
9.260519
9.3133673
9.3700949
9.4307604
9.4954078
9.5640669
9.6367539
9.7134726
9.7942155
9.8789641
9.9676905
10.060358
10.156922
10.25733
10.361526
10.469444
10.581017
10.696173
10.814835
10.936924
8.6969699
8.7122062
8.7263936
8.739578
8.751858
8.7633384
8.7741446
8.7844247
8.794349
8.8041093
8.8139125
8.8239777
8.8345342
8.8458194
8.8580764
8.8715517
8.8864925
8.9031442
8.9217475
8.9425366
8.9657367
8.991562
9.0202144
9.0518816
9.0867366
9.1249363
9.1666212
9.2119152
9.2609254
9.3137424
9.3704404
9.4310784
9.4956999
9.5643346
9.6369985
9.7136953
9.7944173
9.8791459
9.967853
10.060502
10.157047
10.257438
10.361616
10.469517
10.581073
10.696212
10.814858
10.936931
8.6986718
8.7138545
8.7279968
8.741133
8.7533629
8.7647915
8.7755433
8.7857662
8.7956308
8.8053304
8.8150732
8.8250789
8.8355767
8.8468043
8.8590049
8.8724253
8.8873127
8.9039127
8.9224663