/*--------------------------------*- C++ -*----------------------------------*\
| =========                 |                                                 |
| \\      /  F ield         | OpenFOAM: The Open Source CFD Toolbox           |
|  \\    /   O peration     | Version:  2312                                  |
|   \\  /    A nd           | Website:  www.openfoam.com                      |
|    \\/     M anipulation  |                                                 |
\*---------------------------------------------------------------------------*/
FoamFile
{
    version     2.0;
    format      ascii;
    arch        "LSB;label=32;scalar=64";
    class       volScalarField;
    location    "0.02";
    object      Ma;
}
// * * * * * * * * * * * * * * * * * * * * * * * * * * * * * * * * * * * * * //

dimensions      [0 0 0 0 0 0 0];

internalField   nonuniform List<scalar> 
3257
(
0.00094105894
0.00094203483
0.00094404561
0.00094708603
0.00095114599
0.00095621061
0.00096225995
0.00096926893
0.0009772073
0.00098603972
0.0009957259
0.0010062208
0.0010174748
0.0010294344
0.001042042
0.0010552369
0.0010689555
0.0010831317
0.0010976974
0.0011125832
0.0011277187
0.0011430331
0.0011584558
0.0011739167
0.0011893467
0.0012046783
0.0012198462
0.0012347874
0.0012494417
0.0012637525
0.0012776664
0.0012911344
0.0013041114
0.0013165572
0.001328436
0.0013397172
0.0013503753
0.0013603901
0.0013697467
0.0013784358
0.0013864538
0.001393803
0.0014004917
0.0014065343
0.0014119521
0.0014167762
0.0014210612
0.0014248863
0.0014282427
0.0014308329
0.0014331617
0.00085655783
0.00085925018
0.00086305589
0.0008679655
0.00087396405
0.00088103073
0.00088913876
0.0008982555
0.00090834262
0.00091935632
0.00093124764
0.00094396284
0.00095744386
0.00097162876
0.0009864522
0.001001846
0.0010177396
0.0010340608
0.0010507358
0.0010676902
0.0010848495
0.0011021392
0.0011194856
0.0011368163
0.0011540605
0.0011711495
0.0011880173
0.0012046007
0.0012208399
0.0012366788
0.0012520653
0.0012669517
0.0012812949
0.0012950568
0.0013082041
0.0013207091
0.0013325495
0.0013437088
0.0013541762
0.0013639473
0.0013730238
0.0013814146
0.0013891358
0.0013962117
0.0014026754
0.0014085734
0.0014139763
0.0014189734
0.0014235778
0.0014276139
0.0014315641
0.00080067913
0.00080456547
0.0008096323
0.00081586615
0.00082324736
0.00083174962
0.00084134007
0.00085197946
0.00086362253
0.00087621837
0.0008897109
0.00090403937
0.00091913893
0.00093494118
0.00095137476
0.00096836588
0.00098583894
0.001003717
0.0010219225
0.0010403775
0.0010590043
0.001077726
0.0010964669
0.0011151531
0.0011337125
0.0011520758
0.0011701764
0.0011879513
0.0012053408
0.0012222894
0.0012387459
0.0012546637
0.0012700012
0.0012847217
0.0012987941
0.0013121925
0.0013248972
0.0013368943
0.0013481758
0.0013587407
0.0013685942
0.001377749
0.0013862253
0.0013940516
0.0014012649
0.0014079139
0.0014140655
0.0014197967
0.0014251185
0.0014298951
0.0014345408
0.0007471357
0.00075223682
0.00075859504
0.00076619174
0.00077500108
0.0007849898
0.00079611744
0.00080833676
0.00082159426
0.00083583081
0.00085098224
0.00086698
0.00088375189
0.00090122261
0.0009193145
0.00093794805
0.00095704257
0.00097651665
0.00099628872
0.0010162776
0.0010364028
0.0010565851
0.0010767472
0.0010968135
0.0011167113
0.0011363705
0.0011557244
0.00117471
0.001193268
0.0012113437
0.0012288867
0.0012458517
0.0012621982
0.0012778915
0.001292902
0.001307206
0.0013207858
0.0013336298
0.0013457326
0.0013570956
0.0013677266
0.0013776406
0.00138686
0.0013954144
0.0014033413
0.0014106873
0.0014175122
0.0014238826
0.0014298079
0.0014351729
0.001440319
0.0006961752
0.00070251185
0.00071019156
0.00071918887
0.00072946995
0.00074099277
0.00075370752
0.00076755738
0.00078247924
0.00079840459
0.00081526026
0.00083296928
0.00085145162
0.00087062491
0.00089040509
0.00091070704
0.00093144515
0.00095253377
0.00097388778
0.00099542297
0.0010170565
0.0010387072
0.0010602963
0.0010817471
0.0011029863
0.0011239435
0.001144552
0.001164749
0.0011844758
0.0012036784
0.0012223076
0.001240319
0.0012576738
0.0012743385
0.0012902853
0.0013054923
0.0013199438
0.0013336299
0.0013465473
0.001358699
0.0013700946
0.0013807504
0.0013906893
0.001399941
0.0014085417
0.0014165347
0.0014239738
0.001430918
0.0014373779
0.0014432537
0.001448827
0.00064834969
0.00065594072
0.00066496921
0.00067540064
0.00068719099
0.00070028728
0.00071462846
0.00073014644
0.0007467672
0.00076441181
0.00078299745
0.00080243829
0.00082264637
0.00084353228
0.00086500584
0.00088697664
0.00090935458
0.0009320503
0.00095497559
0.00097804376
0.00100117
0.0010242718
0.0010472692
0.001070085
0.0010926454
0.00111488
0.0011367223
0.0011581101
0.0011789853
0.0011992947
0.0012189902
0.0012380287
0.0012563725
0.0012739897
0.001290854
0.001306945
0.0013222486
0.0013367564
0.0013504666
0.0013633835
0.0013755177
0.0013868859
0.0013975111
0.0014074225
0.0014166543
0.0014252469
0.0014332495
0.0014407154
0.0014476572
0.001453988
0.0014599416
0.00060369192
0.00061256426
0.00062297608
0.00063488096
0.00064822201
0.00066293287
0.00067893913
0.00069615981
0.00071450873
0.00073389576
0.00075422799
0.00077541068
0.00079734806
0.00081994408
0.00084310292
0.0008667295
0.00089072987
0.00091501158
0.00093948397
0.0009640585
0.00098864899
0.0010131719
0.0010375467
0.001061696
0.0010855459
0.0011090263
0.0011320712
0.0011546188
0.0011766121
0.0011979988
0.0012187317
0.001238769
0.0012580742
0.0012766168
0.0012943718
0.0013113203
0.0013274493
0.0013427519
0.0013572272
0.0013708804
0.0013837226
0.001395771
0.0014070483
0.0014175824
0.0014274064
0.001436558
0.0014450826
0.0014530297
0.0014604135
0.0014671588
0.0014734604
0.00056216851
0.00057235814
0.00058419552
0.00059761896
0.00061255552
0.00062892279
0.00064663094
0.00066558455
0.00068568434
0.00070682854
0.00072891412
0.00075183768
0.00077549623
0.00079978771
0.00082461145
0.00084986849
0.00087546184
0.00090129673
0.00092728077
0.0009533242
0.00097934005
0.0010052444
0.0010309564
0.0010563988
0.0010814982
0.0011061848
0.0011303932
0.0011540627
0.0011771369
0.0011995646
0.0012212997
0.0012423016
0.001262535
0.0012819705
0.0013005845
0.0013183592
0.0013352827
0.0013513492
0.0013665586
0.0013809167
0.0013944352
0.0014071311
0.0014190267
0.0014301492
0.0014405304
0.001450206
0.0014592184
0.0014676141
0.0014754093
0.0014825392
0.0014891663
0.00052374236
0.0005352936
0.00054860511
0.00056359588
0.00058017347
0.00059823675
0.00061767852
0.0006383878
0.00066025169
0.00068315684
0.00070699052
0.00073164142
0.00075700019
0.00078295977
0.00080941562
0.00083626587
0.0008634114
0.00089075595
0.00091820614
0.00094567165
0.00097306526
0.001000303
0.0010273045
0.0010539928
0.0010802949
0.001106142
0.0011314694
0.0011562172
0.0011803301
0.001203758
0.0012264557
0.0012483838
0.0012695083
0.0012898007
0.0013092386
0.0013278053
0.0013454898
0.0013622872
0.001378198
0.0013932288
0.0014073912
0.0014207023
0.0014331841
0.0014448632
0.0014557701
0.0014659391
0.0014754104
0.0014842279
0.0014924103
0.0014999018
0.0015068377
0.00048835761
0.00050132232
0.00051616121
0.00053276946
0.00055103158
0.00057082522
0.00059202437
0.00061450189
0.00063813142
0.00066278863
0.00068835209
0.00071470372
0.00074172904
0.00076931719
0.00079736093
0.00082575653
0.0008544037
0.00088320549
0.00091206826
0.0009409017
0.00096961887
0.00099813627
0.001026374
0.0010542559
0.0010817098
0.0011086677
0.0011350658
0.0011608451
0.0011859515
0.0012103358
0.001233954
0.0012567676
0.0012787438
0.0012998552
0.0013200802
0.0013394032
0.0013578141
0.0013753086
0.001391888
0.0014075591
0.0014223338
0.0014362292
0.0014492669
0.0014614731
0.0014728773
0.0014835129
0.0014934181
0.0015026352
0.0015111849
0.00151902
0.0015262524
0.00045594293
0.00047037902
0.00048680093
0.00050507524
0.0005250601
0.00054661
0.00056957942
0.00059382527
0.00061920858
0.00064559532
0.00067285682
0.00070086977
0.000729516
0.00075868225
0.00078825979
0.00081814408
0.00084823455
0.00087843434
0.00090865016
0.00093879225
0.00096877432
0.00099851367
0.0010279312
0.0010569517
0.0010855038
0.0011135206
0.0011409392
0.0011677017
0.0011937549
0.0012190506
0.0012435461
0.0012672036
0.0012899915
0.0013118833
0.0013328584
0.0013529019
0.0013720045
0.0013901627
0.0014073782
0.0014236581
0.0014390147
0.001453465
0.0014670305
0.0014797367
0.0014916128
0.0015026912
0.0015130088
0.0015226064
0.0015315069
0.0015396711
0.0015471905
0.00042641572
0.00044238493
0.00046044475
0.00048042864
0.00050216565
0.00052548616
0.00055022536
0.00057622538
0.00060333627
0.00063141617
0.00066033104
0.00068995409
0.00072016512
0.00075084982
0.00078189913
0.00081320871
0.0008446785
0.00087621237
0.00090771789
0.00093910623
0.0009702921
0.0010011938
0.0010317331
0.001061836
0.0010914321
0.0011204553
0.0011488439
0.001176541
0.0012034942
0.0012296566
0.0012549861
0.0012794463
0.0013030061
0.0013256402
0.0013473287
0.0013680576
0.0013878182
0.0014066075
0.0014244279
0.0014412867
0.0014571964
0.0014721741
0.0014862411
0.0014994227
0.0015117476
0.0015232476
0.0015339586
0.0015439204
0.001553158
0.0015616394
0.0015694384
0.00039968472
0.00041724949
0.00043699772
0.00045872582
0.00048223223
0.00050732342
0.00053381676
0.00056154171
0.00059033965
0.00062006322
0.00065057514
0.00068174704
0.00071345822
0.00074559465
0.00077804801
0.00081071496
0.00084349661
0.00087629805
0.00090902808
0.00094159908
0.00097392691
0.001005931
0.0010375343
0.0010686637
0.0010992499
0.0011292278
0.0011585367
0.0011871206
0.0012149282
0.0012419133
0.0012680349
0.0012932574
0.0013175507
0.0013408901
0.0013632567
0.001384637
0.0014050232
0.0014244126
0.0014428081
0.0014602175
0.0014766533
0.0014921327
0.0015066771
0.0015203116
0.0015330645
0.0015449673
0.001556055
0.0015663667
0.0015759294
0.0015847182
0.0015927909
0.00037565145
0.00039487117
0.00041634982
0.00043984418
0.00046512213
0.00049196797
0.00052018392
0.00054958965
0.00058002079
0.00061132703
0.00064337005
0.00067602168
0.00070916219
0.00074267892
0.00077646516
0.00081041922
0.00084444382
0.00087844562
0.00091233487
0.00094602531
0.00097943407
0.0010124817
0.0010450924
0.0010771939
0.001108718
0.0011396005
0.0011697817
0.0011992064
0.0012278243
0.00125559
0.0012824634
0.0013084097
0.0013333995
0.001357409
0.00138042
0.0014024196
0.0014234005
0.0014433607
0.0014623035
0.0014802368
0.0014971736
0.0015131311
0.0015281307
0.0015421974
0.0015553595
0.001567648
0.0015790976
0.0015897466
0.0015996241
0.0016087119
0.0016170534
0.00035421087
0.00037513756
0.00039837605
0.00042364294
0.00045067748
0.00047924512
0.00050913659
0.00054016537
0.00057216443
0.00060498309
0.00063848406
0.00067254095
0.00070703619
0.00074185939
0.00077690604
0.00081207654
0.00084727553
0.00088241139
0.00091739593
0.00095214428
0.00098657484
0.0010206093
0.0010541729
0.0010871944
0.0011196065
0.0011513458
0.0011823536
0.0012125755
0.0012419619
0.0012704682
0.0012980552
0.0013246888
0.0013503403
0.0013749867
0.0013986102
0.0014211988
0.0014427457
0.0014632492
0.0014827131
0.0015011457
0.0015185602
0.0015349739
0.0015504083
0.0015648885
0.0015784426
0.0015911015
0.0016028996
0.0016138747
0.0016240577
0.0016334371
0.0016420434
0.0003352512
0.000357925
0.00038293656
0.00040996417
0.00043872251
0.00046896277
0.0005004687
0.00053305135
0.00056654414
0.00060079839
0.0006356796
0.00067106444
0.00070683838
0.00074289389
0.00077912905
0.0008154466
0.00085175318
0.00088795896
0.00092397731
0.00095972469
0.0009951207
0.0010300881
0.0010645531
0.0010984453
0.0011316982
0.0011642495
0.0011960408
0.0012270187
0.0012571343
0.0012863439
0.0013146086
0.0013418953
0.0013681759
0.001393428
0.0014176345
0.0014407837
0.0014628696
0.0014838909
0.0015038517
0.0015227607
0.0015406313
0.0015574811
0.0015733316
0.001588208
0.0016021385
0.0016151539
0.0016272883
0.0016385793
0.0016490596
0.0016587242
0.0016675916
0.00031865325
0.00034309826
0.00036987716
0.0003986347
0.00042906673
0.00046091589
0.00049396363
0.00052802234
0.00056292864
0.00059853784
0.00063471958
0.0006713545
0.00070833168
0.00074554677
0.00078290064
0.00082029837
0.00085764864
0.0008948633
0.00093185718
0.000968548
0.0010048564
0.0010407061
0.0010760242
0.001110741
0.0011447908
0.0011781119
0.0012106467
0.0012423424
0.0012731507
0.0013030284
0.0013319376
0.0013598456
0.0013867249
0.0014125537
0.0014373155
0.0014609992
0.0014835991
0.0015051145
0.0015255498
0.001544914
0.0015632209
0.0015804882
0.0015967376
0.0016119944
0.0016262869
0.001639646
0.0016521057
0.0016637033
0.0016744732
0.0016844169
0.0016935423
0.00030428964
0.00033051047
0.00035903073
0.00038946884
0.00042150907
0.00045489149
0.00048939987
0.00052485125
0.00056108769
0.00059796997
0.00063537281
0.00067318133
0.0007112885
0.00074959326
0.00078799921
0.00082641373
0.00086474738
0.00090291357
0.00094082843
0.00097841076
0.0010155821
0.0010522671
0.0010883934
0.001123892
0.0011586979
0.0011927499
0.001225991
0.0012583689
0.001289836
0.0013203497
0.0013498725
0.0013783722
0.0014058221
0.0014322008
0.0014574924
0.0014816863
0.001504777
0.0015267646
0.0015476536
0.0015674535
0.0015861782
0.0016038458
0.0016204783
0.0016361009
0.0016507422
0.0016644333
0.0016772079
0.0016891035
0.001700156
0.0017103732
0.0017197534
0.00029202406
0.00032000384
0.00035021936
0.00038227208
0.00041584248
0.0004506739
0.00048655648
0.00052331454
0.00056079724
0.00059887176
0.0006374184
0.00067632696
0.0007154943
0.00075482256
0.00079421792
0.00083358986
0.00087285063
0.000911915
0.00095070021
0.00098912597
0.0010271146
0.0010645913
0.0011014844
0.0011377254
0.0011732498
0.0012079967
0.0012419099
0.0012749373
0.001307032
0.0013381517
0.0013682596
0.0013973239
0.0014253184
0.0014522223
0.00147802
0.0015027015
0.0015262618
0.0015487011
0.0015700246
0.0015902421
0.0016093677
0.0016274198
0.0016444204
0.0016603954
0.0016753732
0.0016893852
0.0017024653
0.0017146507
0.0017259789
0.0017364643
0.0017460965
0.00028171134
0.00031141121
0.00034325758
0.00037684535
0.00041185887
0.00044804987
0.00048521806
0.00052319691
0.00056184367
0.0006010324
0.00064064904
0.00068058804
0.00072074995
0.00076103988
0.00080136634
0.00084164066
0.00088177652
0.00092168984
0.00096129874
0.0010005237
0.0010392875
0.001077516
0.0011151378
0.0011520849
0.0011882932
0.0012237021
0.0012582558
0.0012919028
0.0013245962
0.0013562946
0.0013869612
0.0014165651
0.0014450802
0.0014724863
0.0014987683
0.0015239166
0.0015479266
0.001570799
0.0015925392
0.0016131574
0.001632668
0.0016510898
0.001668445
0.0016847596
0.0017000625
0.0017143851
0.0017277616
0.0017402291
0.0017518266
0.0017625748
0.0017724558
0.00027319809
0.00030455857
0.00033795613
0.00037298953
0.00040935379
0.00044681307
0.00048517888
0.00052429491
0.00056402691
0.00060425584
0.00064487313
0.00068577758
0.00072687314
0.00076806753
0.0008092713
0.00085039731
0.00089136045
0.00093207752
0.00097246733
0.0010124508
0.0010519514
0.001090895
0.0011292106
0.0011668307
0.0012036911
0.0012397319
0.0012748972
0.001309136
0.0013424018
0.0013746535
0.0014058548
0.001435975
0.0014649887
0.0014928759
0.001519622
0.0015452177
0.0015696591
0.001592947
0.0016150873
0.0016360905
0.0016559715
0.0016747491
0.001692446
0.0017090884
0.0017247055
0.001739329
0.0017529933
0.0017657354
0.0017775957
0.0017886016
0.0017987282
0.00026632449
0.00029926835
0.00033412609
0.00037050982
0.00040813059
0.00044676781
0.00048624601
0.00052641949
0.00056716245
0.00060836243
0.00064991599
0.00069172583
0.00073369891
0.00077574519
0.00081777693
0.00085970824
0.0009014549
0.00094293438
0.00098406598
0.001024771
0.001064973
0.0011045982
0.0011435759
0.0011818384
0.001219322
0.0012559667
0.0012917172
0.0013265225
0.0013603365
0.0013931182
0.0014248319
0.0014554471
0.0014849388
0.0015132875
0.001540479
0.0015665043
0.0015913598
0.001615047
0.001637572
0.0016589456
0.001679183
0.0016983034
0.0017163299
0.0017332889
0.0017492098
0.0017641249
0.0017780686
0.001791078
0.001803195
0.0018144532
0.001824822
0.00026092685
0.0002953631
0.00033158295
0.00036921956
0.00040800375
0.00044773174
0.00048824145
0.00052939763
0.00057108247
0.0006131896
0.00065562017
0.00069828031
0.00074107953
0.00078392967
0.00082674431
0.00086943853
0.00091192877
0.00095413294
0.0009959706
0.0010373632
0.0010782345
0.0011185108
0.0011581212
0.0011969983
0.0012350785
0.0012723019
0.0013086132
0.0013439616
0.0013783013
0.0014115917
0.0014437971
0.0014748876
0.0015048385
0.0015336305
0.0015612498
0.001587688
0.0016129418
0.0016370129
0.0016599079
0.0016816381
0.0017022189
0.0017216699
0.0017400144
0.0017572791
0.0017734941
0.0017886916
0.0018029067
0.0018161764
0.0018285436
0.0018400486
0.0018506562
0.00025684077
0.00029266925
0.00033015018
0.00036894327
0.00040880127
0.00044953759
0.00049100331
0.00053307299
0.00057563615
0.00061859186
0.00066184526
0.00070530541
0.00074888392
0.0007924941
0.00083605057
0.00087946907
0.00092266647
0.00096556089
0.001008072
0.0010501213
0.0010916324
0.0011325317
0.0011727482
0.0012122145
0.0012508668
0.0012886454
0.0013254951
0.0013613652
0.0013962101
0.0014299892
0.0014626674
0.0014942148
0.0015246071
0.0015538255
0.0015818564
0.0016086918
0.0016343288
0.0016587695
0.0016820209
0.0017040945
0.0017250062
0.001744776
0.0017634274
0.0017809877
0.0017974871
0.0018129584
0.0018274368
0.0018409597
0.0018535708
0.001865317
0.0018761595
0.00025390455
0.00029102051
0.0003296621
0.00036951887
0.00041036613
0.00045203411
0.00049438619
0.00053730591
0.00058068934
0.00062444023
0.00066846714
0.00071268152
0.00075699666
0.000801327
0.00084558788
0.00088969544
0.00093356674
0.00097711997
0.0010202747
0.0010629524
0.0011050764
0.001146573
0.001187371
0.001227403
0.001266605
0.0013049174
0.0013422848
0.0013786568
0.0014139877
0.0014482372
0.0014813704
0.0015133577
0.001544175
0.0015738038
0.001602231
0.0016294488
0.0016554548
0.0016802515
0.0017038461
0.0017262507
0.0017474815
0.0017675587
0.0017865065
0.0018043523
0.0018211267
0.0018368632
0.0018515971
0.0018653661
0.0018782146
0.0018901962
0.0019012695
0.00025196247
0.00029026066
0.00032996591
0.0003707989
0.00041255698
0.00045508613
0.00049826094
0.00054197294
0.00058612382
0.00063062139
0.00067537698
0.00072030397
0.00076531693
0.00081033109
0.00085526224
0.0009000267
0.00094454153
0.0009887248
0.0010324959
0.0010757759
0.0011184882
0.0011605584
0.0012019155
0.0012424915
0.0012822225
0.0013210487
0.0013589148
0.0013957701
0.0014315693
0.0014662721
0.0014998438
0.0015322549
0.0015634817
0.001593506
0.001622315
0.0016499014
0.0016762629
0.0017014025
0.0017253279
0.0017480514
0.0017695898
0.0017899636
0.0018091973
0.0018273189
0.0018443593
0.0018603523
0.001875334
0.0018893419
0.0019024214
0.0019146324
0.0019259321
0.00025086749
0.00029024559
0.00033092293
0.0003726511
0.00041524809
0.00045857421
0.00050251397
0.00054696583
0.00059183632
0.00063703653
0.00068248007
0.00072808182
0.00077375723
0.00081942205
0.00086499227
0.00091038419
0.00095551471
0.0010003016
0.001044664
0.0010885225
0.0011318001
0.0011744223
0.0012163175
0.0012574176
0.0012976585
0.00133698
0.0013753269
0.0014126485
0.0014488993
0.0014840394
0.0015180339
0.0015508538
0.0015824756
0.0016128812
0.0016420583
0.0016699998
0.0016967039
0.001722174
0.0017464181
0.001769449
0.0017912838
0.0018119436
0.0018314532
0.001849841
0.0018671383
0.0018833795
0.001898601
0.0019128408
0.0019261446
0.0019385786
0.0019501002
0.00025048341
0.00029084446
0.00033240901
0.00037495824
0.00041832886
0.0004623938
0.00050704624
0.00055219054
0.00059773723
0.00064360012
0.00068969457
0.00073593655
0.00078224212
0.00082852727
0.00087470796
0.00092070031
0.0009664209
0.0010117871
0.0010567176
0.0011011325
0.0011449545
0.0011881084
0.0012305224
0.001272128
0.0013128607
0.0013526604
0.0013914715
0.0014292432
0.0014659302
0.0015014924
0.0015358952
0.0015691096
0.0016011124
0.0016318858
0.0016614179
0.0016897017
0.0017167361
0.0017425246
0.0017670758
0.0017904028
0.0018125233
0.0018334586
0.0018532341
0.0018718786
0.0018894239
0.0019059049
0.0019213584
0.0019358228
0.0019493441
0.0019619946
0.0019737331
0.00025068594
0.00029194004
0.00033431448
0.00037761758
0.00042170289
0.00046645419
0.00051177208
0.00055756589
0.00060374943
0.00065023865
0.00069695024
0.0007438009
0.00079070702
0.00083758461
0.00088434945
0.0009309173
0.00097720429
0.0010231273
0.0010686044
0.0011135553
0.0011579019
0.0012015688
0.0012444835
0.0012865773
0.0013277852
0.0013680469
0.0014073065
0.0014455132
0.0014826216
0.0015185916
0.0015533886
0.001586984
0.0016193546
0.001650483
0.0016803573
0.0017089713
0.0017363238
0.0017624191
0.001787266
0.0018108782
0.0018332736
0.0018544743
0.0018745059
0.0018933977
0.0019111821
0.0019278944
0.0019435721
0.0019582538
0.0019719857
0.001984846
0.0019967961
0.00025136366
0.00029342892
0.00033654377
0.00038054008
0.00042528697
0.00047067732
0.00051661799
0.00056302238
0.00060980698
0.00065688937
0.00070418717
0.00075161755
0.00079909698
0.00084654131
0.00089386595
0.0009409862
0.00098781762
0.0010342765
0.0010802802
0.0011257479
0.0011706009
0.0012147631
0.0012581616
0.0013007272
0.0013423945
0.0013831029
0.0014227963
0.0014614236
0.0014989394
0.0015353036
0.0015704816
0.001604445
0.0016371706
0.0016686414
0.0016988459
0.001727778
0.0017554371
0.0017818277
0.0018069593
0.0018308458
0.0018535058
0.0018749616
0.0018952396
0.0019143694
0.0019323841
0.0019493193
0.0019652132
0.0019801046
0.0019940401
0.0020071032
0.0020192594
0.00029522167
0.00033901429
0.00038364934
0.00042900988
0.00047499654
0.00052152131
0.00056850092
0.00061585392
0.0006634991
0.00071135471
0.0007593381
0.00080736565
0.00085535286
0.00090321467
0.00095086579
0.00099822111
0.0010451962
0.0010917078
0.0011376743
0.0011830164
0.0012276574
0.0012715237
0.0013145457
0.0013566575
0.0013977981
0.0014379111
0.0014769454
0.0015148553
0.0015516005
0.0015871468
0.0016214655
0.001654534
0.0016863352
0.0017168579
0.0017460965
0.0017740508
0.0018007256
0.0018261309
0.0018502811
0.0018731953
0.0018948963
0.001915411
0.0019347695
0.0019530055
0.0019701551
0.0019862571
0.0020013509
0.0020154827
0.0020287415
0.0020410981
0.00029724096
0.00034165583
0.00038688018
0.00043281102
0.00047935532
0.00052642908
0.00057395164
0.00062184311
0.00067002313
0.0007184103
0.00076692196
0.00081547419
0.00086398204
0.00091235986
0.00096052166
0.0010083816
0.0010558545
0.0011028563
0.0011493047
0.0011951196
0.0012402235
0.0012845425
0.0013280061
0.0013705482
0.0014121071
0.0014526264
0.0014920544
0.0015303455
0.0015674592
0.0016033614
0.0016380234
0.0016714227
0.0017035425
0.001734372
0.0017639057
0.001792144
0.001819092
0.0018447602
0.0018691636
0.0018923217
0.001914258
0.0019349997
0.0019545777
0.001973026
0.0019903815
0.0020066836
0.002021972
0.002036293
0.0020497401
0.0020622911
0.00029942108
0.00034440666
0.00039017671
0.00043663914
0.00048370609
0.00053129685
0.0005793328
0.00062773518
0.0006764242
0.00072531857
0.00077433541
0.00082339041
0.00087239805
0.00092127196
0.00096992542
0.0010182718
0.001066225
0.0011137002
0.0011606143
0.0012068864
0.0012524383
0.0012971953
0.0013410865
0.0013840452
0.0014260092
0.0014669216
0.0015067308
0.0015453906
0.0015828606
0.0016191066
0.0016541001
0.0016878186
0.0017202456
0.0017513704
0.0017811882
0.0018096994
0.0018369098
0.0018628304
0.0018874765
0.0019108684
0.0019330299
0.0019539891
0.0019737772
0.001992429
0.0020099818
0.0020264758
0.0020419511
0.0020564538
0.0020700818
0.0020828209
0.0003017047
0.00034721543
0.00039349231
0.00044045141
0.00048800921
0.0005360877
0.00058460981
0.00063349761
0.00068267158
0.00073205037
0.00078155077
0.00083108792
0.00088057565
0.00092992682
0.00097905388
0.0010278693
0.0010762862
0.0011242188
0.0011715831
0.0012182974
0.0012642829
0.001309464
0.0013537692
0.0013971312
0.0014394874
0.0014807804
0.0015209583
0.0015599747
0.0015977892
0.0016343673
0.0016696807
0.001703707
0.0017364299
0.001767839
0.0017979297
0.001826703
0.0018541651
0.0018803275
0.0019052061
0.0019288215
0.0019511985
0.0019723655
0.0019923545
0.0020112007
0.0020289422
0.0020456198
0.0020612743
0.0020759513
0.0020897524
0.0021026732
0.00030404436
0.00035003985
0.00039678836
0.00044421239
0.00049223199
0.00054077127
0.00058975434
0.00063910381
0.00068874025
0.00073858207
0.00078854561
0.0008385454
0.00088849451
0.000938305
0.0009878884
0.0010371563
0.0010860209
0.0011343954
0.0011821951
0.0012293372
0.0012757422
0.0013213339
0.0013660399
0.0014097923
0.0014525281
0.0014941895
0.001534724
0.0015740853
0.0016122325
0.0016491313
0.0016847532
0.001719076
0.0017520837
0.0017837661
0.001814119
0.0018431436
0.0018708469
0.0018972405
0.0019223413
0.0019461703
0.0019687528
0.001990118
0.0020102986
0.0020293303
0.0020472519
0.0020641048
0.0020799305
0.0020947743
0.0021087408
0.0021218368
0.0003064009
0.00035284493
0.00040003313
0.00044789314
0.0004963478
0.00054532293
0.0005947435
0.00064453239
0.00069461012
0.00074489475
0.00079530207
0.00084574592
0.00089613854
0.00094639114
0.00099641431
0.0010461187
0.0010954155
0.001144217
0.0011924375
0.0012399935
0.0012868045
0.0013327934
0.0013778873
0.0014220176
0.0014651207
0.0015071384
0.0015480178
0.0015877122
0.0016261807
0.0016633888
0.0016993081
0.0017339164
0.0017671979
0.0017991428
0.001829747
0.0018590124
0.0018869462
0.0019135609
0.0019388735
0.001962906
0.0019856843
0.0020072382
0.002027601
0.0020468092
0.0020649022
0.0020819221
0.0020979112
0.0021129142
0.0021270383
0.0021403025
0.0003087421
0.00035560208
0.00040320089
0.00045147026
0.00050033528
0.00054972304
0.00059955909
0.00064976647
0.00070026545
0.00075097367
0.00080180628
0.00085267636
0.00090349532
0.00095417344
0.0010046203
0.0010547457
0.0011044597
0.0011536737
0.001202301
0.0012502571
0.0012974607
0.0013438339
0.001389303
0.0014337988
0.0014772571
0.0015196191
0.0015608317
0.0016008478
0.0016396262
0.0016771325
0.001713338
0.001748221
0.0017817655
0.001813962
0.001844807
0.0018743026
0.0019024566
0.0019292819
0.0019547964
0.0019790224
0.0020019867
0.0020237197
0.0020442554
0.0020636311
0.0020818868
0.0020990654
0.0021152098
0.0021303645
0.0021446382
0.002158064
0.00031104182
0.00035828823
0.00040627102
0.0004549252
0.00050417758
0.00055395622
0.00060418704
0.00065479305
0.00070569421
0.00075680761
0.00080804775
0.00085932691
0.0009105556
0.00096164314
0.0010124982
0.0010630294
0.0011131459
0.0011627581
0.0012117782
0.001260121
0.0013077041
0.0013544488
0.0014002806
0.0014451296
0.0014889311
0.0015316258
0.00157316
0.0016134863
0.0016525635
0.0016903568
0.0017268377
0.0017619843
0.0017957811
0.0018282187
0.0018592939
0.0018890092
0.0019173731
0.0019443988
0.001970105
0.0019945147
0.0020176552
0.0020395579
0.0020602573
0.0020797915
0.0020982012
0.0021155301
0.0021318219
0.0021471207
0.0021615361
0.0021751164
0.00031327912
0.0003608851
0.00040922739
0.00045824358
0.0005078618
0.00055801083
0.00060861678
0.00065960249
0.00071088756
0.00076238847
0.00081401901
0.0008656906
0.00091731286
0.00096879413
0.0010200421
0.0010709643
0.0011214688
0.0011714652
0.0012208646
0.0012695806
0.0013175301
0.0013646336
0.0014108157
0.0014560058
0.0015001386
0.0015431541
0.0015849984
0.0016256237
0.0016649885
0.0017030578
0.0017398031
0.0017752027
0.0018092411
0.0018419092
0.0018732041
0.0019031289
0.0019316923
0.0019589084
0.0019847964
0.0020093799
0.002032687
0.0020547498
0.0020756037
0.0020952875
0.0021138426
0.0021313135
0.0021477447
0.00216318
0.0021777293
0.0021914569
0.00031543755
0.00036337854
0.00041205767
0.00046141458
0.0005113784
0.0005618784
0.00061284076
0.00066418807
0.00071583945
0.00076771078
0.00081971507
0.00087176289
0.00092376293
0.00097562255
0.0010272484
0.0010785469
0.0011294253
0.0011797919
0.0012295569
0.001278633
0.001326936
0.0013743856
0.0014209056
0.0014664247
0.0015108768
0.0015542015
0.0015963445
0.0016372574
0.0016768986
0.0017152329
0.0017522319
0.0017878737
0.0018221431
0.0018550312
0.0018865355
0.0019166595
0.0019454124
0.0019728088
0.0019988686
0.0020236162
0.0020470804
0.0020692941
0.0020902933
0.0021101178
0.0021288098
0.0021464143
0.002162977
0.0021785412
0.0021932165
0.0022070844
0.00031750456
0.00036575791
0.0004147528
0.00046443044
0.00051472072
0.00056555321
0.00061685405
0.00066854551
0.0007205462
0.00077277134
0.00082513315
0.00087754134
0.00092990365
0.00098212645
0.0010341153
0.0010857758
0.0011370138
0.0011877368
0.0012378539
0.0012872767
0.0013359203
0.0013837033
0.0014305488
0.0014763847
0.0015211443
0.0015647666
0.0016071966
0.0016483859
0.0016882924
0.0017268808
0.0017641227
0.0017999961
0.0018344859
0.0018675837
0.0018992871
0.0019296001
0.0019585324
0.0019860993
0.0020123212
0.0020372233
0.0020608352
0.0020831903
0.002104326
0.0021242823
0.0021431026
0.0021608326
0.0021775188
0.0021932046
0.002207998
0.0022219991
0.00031947083
0.0003680156
0.00041730651
0.00046728603
0.00051788455
0.00056903185
0.00062065391
0.00067267265
0.00072500612
0.00077756886
0.00083027229
0.00088302526
0.00093573455
0.00098830552
0.0010406428
0.0010926507
0.0011442343
0.0011952998
0.0012457554
0.0012955118
0.001344483
0.0013925867
0.0014397452
0.0014858857
0.0015309408
0.0015748488
0.0016175545
0.0016590088
0.0016991695
0.0017380011
0.001775475
0.0018115694
0.0018462693
0.0018795664
0.0019114588
0.0019419507
0.0019710526
0.0019987802
0.0020251546
0.0020502017
0.0020739519
0.0020964396
0.0021177026
0.0021377823
0.0021567224
0.0021745697
0.0021913717
0.0022071717
0.0022220754
0.0022362025
0.00032132989
0.00037014655
0.00041971492
0.00046997841
0.00052086778
0.00057231289
0.00062423951
0.00067656913
0.00072921925
0.00078210371
0.00083513313
0.00088821547
0.00094125659
0.00099416085
0.0010468318
0.0010991728
0.0011510878
0.0012024821
0.0012532626
0.0013033392
0.0013526249
0.0014010365
0.0014484955
0.0014949284
0.0015402669
0.0015844489
0.0016274186
0.0016691267
0.0017095304
0.0017485943
0.0017862895
0.0018225943
0.0018574938
0.00189098
0.0019230513
0.0019537124
0.001982974
0.0020108527
0.0020373701
0.002062553
0.0020864324
0.0021090436
0.0021304253
0.0021506197
0.0021696715
0.0021876281
0.002204538
0.0022204449
0.0022354513
0.0022496974
0.00032307759
0.00037214786
0.00042197612
0.00047250654
0.00052367008
0.00057539658
0.00062761157
0.0006802361
0.00073318707
0.00078637763
0.0008397176
0.00089311407
0.00094647196
0.00099969465
0.0010526847
0.0011053444
0.0011575767
0.0012092857
0.0012603775