/*--------------------------------*- C++ -*----------------------------------*\
| =========                 |                                                 |
| \\      /  F ield         | OpenFOAM: The Open Source CFD Toolbox           |
|  \\    /   O peration     | Version:  2312                                  |
|   \\  /    A nd           | Website:  www.openfoam.com                      |
|    \\/     M anipulation  |                                                 |
\*---------------------------------------------------------------------------*/
FoamFile
{
    version     2.0;
    format      ascii;
    arch        "LSB;label=32;scalar=64";
    class       volScalarField;
    location    "0.02";
    object      N2;
}
// * * * * * * * * * * * * * * * * * * * * * * * * * * * * * * * * * * * * * //

dimensions      [0 0 0 0 0 0 0];

internalField   nonuniform List<scalar> 
3257
(
0.76999476
0.7699955
0.76999614
0.76999669
0.76999716
0.76999757
0.76999793
0.76999823
0.76999849
0.76999872
0.76999891
0.76999907
0.76999921
0.76999933
0.76999944
0.76999952
0.7699996
0.76999966
0.76999971
0.76999976
0.7699998
0.76999983
0.76999986
0.76999988
0.7699999
0.76999992
0.76999993
0.76999994
0.76999995
0.76999996
0.76999997
0.76999997
0.76999998
0.76999998
0.76999998
0.76999999
0.76999999
0.76999999
0.76999999
0.76999999
0.76999999
0.77
0.77
0.77
0.77
0.77
0.77
0.77
0.77
0.77
0.77
0.76999469
0.76999544
0.76999609
0.76999665
0.76999713
0.76999754
0.7699979
0.76999821
0.76999847
0.7699987
0.7699989
0.76999906
0.7699992
0.76999933
0.76999943
0.76999952
0.76999959
0.76999966
0.76999971
0.76999976
0.76999979
0.76999983
0.76999985
0.76999988
0.7699999
0.76999991
0.76999993
0.76999994
0.76999995
0.76999996
0.76999997
0.76999997
0.76999998
0.76999998
0.76999998
0.76999999
0.76999999
0.76999999
0.76999999
0.76999999
0.76999999
0.77
0.77
0.77
0.77
0.77
0.77
0.77
0.77
0.77
0.77
0.76999456
0.76999533
0.76999599
0.76999656
0.76999706
0.76999749
0.76999785
0.76999817
0.76999844
0.76999867
0.76999887
0.76999904
0.76999919
0.76999931
0.76999942
0.76999951
0.76999958
0.76999965
0.7699997
0.76999975
0.76999979
0.76999982
0.76999985
0.76999988
0.7699999
0.76999991
0.76999993
0.76999994
0.76999995
0.76999996
0.76999996
0.76999997
0.76999998
0.76999998
0.76999998
0.76999999
0.76999999
0.76999999
0.76999999
0.76999999
0.76999999
0.77
0.77
0.77
0.77
0.77
0.77
0.77
0.77
0.77
0.77
0.76999438
0.76999517
0.76999586
0.76999645
0.76999696
0.7699974
0.76999778
0.76999811
0.76999839
0.76999863
0.76999883
0.76999901
0.76999916
0.76999929
0.7699994
0.76999949
0.76999957
0.76999964
0.76999969
0.76999974
0.76999978
0.76999982
0.76999985
0.76999987
0.76999989
0.76999991
0.76999992
0.76999994
0.76999995
0.76999996
0.76999996
0.76999997
0.76999997
0.76999998
0.76999998
0.76999999
0.76999999
0.76999999
0.76999999
0.76999999
0.76999999
0.77
0.77
0.77
0.77
0.77
0.77
0.77
0.77
0.77
0.77
0.76999415
0.76999498
0.76999569
0.7699963
0.76999684
0.76999729
0.76999769
0.76999803
0.76999832
0.76999857
0.76999878
0.76999897
0.76999912
0.76999926
0.76999937
0.76999947
0.76999955
0.76999962
0.76999968
0.76999973
0.76999977
0.76999981
0.76999984
0.76999987
0.76999989
0.76999991
0.76999992
0.76999993
0.76999995
0.76999995
0.76999996
0.76999997
0.76999997
0.76999998
0.76999998
0.76999998
0.76999999
0.76999999
0.76999999
0.76999999
0.76999999
0.77
0.77
0.77
0.77
0.77
0.77
0.77
0.77
0.77
0.77
0.76999388
0.76999474
0.76999549
0.76999613
0.76999669
0.76999717
0.76999758
0.76999794
0.76999824
0.7699985
0.76999873
0.76999892
0.76999908
0.76999922
0.76999934
0.76999944
0.76999953
0.7699996
0.76999967
0.76999972
0.76999976
0.7699998
0.76999983
0.76999986
0.76999988
0.7699999
0.76999992
0.76999993
0.76999994
0.76999995
0.76999996
0.76999997
0.76999997
0.76999998
0.76999998
0.76999998
0.76999999
0.76999999
0.76999999
0.76999999
0.76999999
0.77
0.77
0.77
0.77
0.77
0.77
0.77
0.77
0.77
0.77
0.76999357
0.76999447
0.76999526
0.76999594
0.76999652
0.76999702
0.76999746
0.76999783
0.76999815
0.76999843
0.76999866
0.76999886
0.76999904
0.76999918
0.76999931
0.76999942
0.76999951
0.76999958
0.76999965
0.76999971
0.76999975
0.76999979
0.76999983
0.76999985
0.76999988
0.7699999
0.76999991
0.76999993
0.76999994
0.76999995
0.76999996
0.76999997
0.76999997
0.76999998
0.76999998
0.76999998
0.76999999
0.76999999
0.76999999
0.76999999
0.76999999
0.76999999
0.77
0.77
0.77
0.77
0.77
0.77
0.77
0.77
0.77
0.76999322
0.76999418
0.769995
0.76999572
0.76999633
0.76999687
0.76999732
0.76999772
0.76999805
0.76999834
0.76999859
0.7699988
0.76999899
0.76999914
0.76999927
0.76999939
0.76999948
0.76999956
0.76999963
0.76999969
0.76999974
0.76999978
0.76999982
0.76999985
0.76999987
0.76999989
0.76999991
0.76999992
0.76999994
0.76999995
0.76999996
0.76999996
0.76999997
0.76999997
0.76999998
0.76999998
0.76999999
0.76999999
0.76999999
0.76999999
0.76999999
0.76999999
0.77
0.77
0.77
0.77
0.77
0.77
0.77
0.77
0.77
0.76999285
0.76999385
0.76999473
0.76999548
0.76999613
0.76999669
0.76999717
0.76999759
0.76999795
0.76999825
0.76999851
0.76999874
0.76999893
0.76999909
0.76999923
0.76999935
0.76999945
0.76999954
0.76999961
0.76999967
0.76999972
0.76999977
0.76999981
0.76999984
0.76999986
0.76999989
0.7699999
0.76999992
0.76999993
0.76999994
0.76999995
0.76999996
0.76999997
0.76999997
0.76999998
0.76999998
0.76999998
0.76999999
0.76999999
0.76999999
0.76999999
0.76999999
0.77
0.77
0.77
0.77
0.77
0.77
0.77
0.77
0.77
0.76999245
0.76999351
0.76999443
0.76999523
0.76999591
0.76999651
0.76999702
0.76999746
0.76999783
0.76999816
0.76999843
0.76999867
0.76999887
0.76999904
0.76999919
0.76999932
0.76999942
0.76999951
0.76999959
0.76999966
0.76999971
0.76999976
0.7699998
0.76999983
0.76999986
0.76999988
0.7699999
0.76999992
0.76999993
0.76999994
0.76999995
0.76999996
0.76999997
0.76999997
0.76999998
0.76999998
0.76999998
0.76999999
0.76999999
0.76999999
0.76999999
0.76999999
0.77
0.77
0.77
0.77
0.77
0.77
0.77
0.77
0.77
0.76999202
0.76999315
0.76999412
0.76999496
0.76999569
0.76999631
0.76999685
0.76999731
0.76999771
0.76999805
0.76999835
0.7699986
0.76999881
0.76999899
0.76999915
0.76999928
0.76999939
0.76999949
0.76999957
0.76999964
0.76999969
0.76999974
0.76999978
0.76999982
0.76999985
0.76999987
0.76999989
0.76999991
0.76999993
0.76999994
0.76999995
0.76999996
0.76999996
0.76999997
0.76999998
0.76999998
0.76999998
0.76999999
0.76999999
0.76999999
0.76999999
0.76999999
0.76999999
0.77
0.77
0.77
0.77
0.77
0.77
0.77
0.77
0.76999158
0.76999277
0.76999379
0.76999468
0.76999545
0.76999611
0.76999668
0.76999717
0.76999759
0.76999795
0.76999825
0.76999852
0.76999874
0.76999894
0.7699991
0.76999924
0.76999936
0.76999946
0.76999954
0.76999962
0.76999968
0.76999973
0.76999977
0.76999981
0.76999984
0.76999987
0.76999989
0.76999991
0.76999992
0.76999994
0.76999995
0.76999996
0.76999996
0.76999997
0.76999997
0.76999998
0.76999998
0.76999999
0.76999999
0.76999999
0.76999999
0.76999999
0.76999999
0.77
0.77
0.77
0.77
0.77
0.77
0.77
0.77
0.76999112
0.76999238
0.76999346
0.76999439
0.7699952
0.7699959
0.7699965
0.76999701
0.76999746
0.76999784
0.76999816
0.76999844
0.76999868
0.76999888
0.76999905
0.7699992
0.76999932
0.76999943
0.76999952
0.7699996
0.76999966
0.76999972
0.76999976
0.7699998
0.76999983
0.76999986
0.76999988
0.7699999
0.76999992
0.76999993
0.76999994
0.76999995
0.76999996
0.76999997
0.76999997
0.76999998
0.76999998
0.76999998
0.76999999
0.76999999
0.76999999
0.76999999
0.76999999
0.77
0.77
0.77
0.77
0.77
0.77
0.77
0.77
0.76999066
0.76999197
0.76999311
0.7699941
0.76999495
0.76999568
0.76999632
0.76999686
0.76999732
0.76999772
0.76999807
0.76999836
0.76999861
0.76999882
0.769999
0.76999916
0.76999929
0.7699994
0.7699995
0.76999958
0.76999964
0.7699997
0.76999975
0.76999979
0.76999982
0.76999985
0.76999988
0.7699999
0.76999991
0.76999993
0.76999994
0.76999995
0.76999996
0.76999997
0.76999997
0.76999998
0.76999998
0.76999998
0.76999999
0.76999999
0.76999999
0.76999999
0.76999999
0.77
0.77
0.77
0.77
0.77
0.77
0.77
0.77
0.76999018
0.76999156
0.76999276
0.7699938
0.76999469
0.76999547
0.76999613
0.7699967
0.76999719
0.76999761
0.76999797
0.76999828
0.76999854
0.76999876
0.76999896
0.76999912
0.76999926
0.76999937
0.76999947
0.76999956
0.76999963
0.76999969
0.76999974
0.76999978
0.76999982
0.76999985
0.76999987
0.76999989
0.76999991
0.76999993
0.76999994
0.76999995
0.76999996
0.76999996
0.76999997
0.76999998
0.76999998
0.76999998
0.76999999
0.76999999
0.76999999
0.76999999
0.76999999
0.77
0.77
0.77
0.77
0.77
0.77
0.77
0.77
0.7699897
0.76999115
0.76999241
0.7699935
0.76999444
0.76999524
0.76999594
0.76999654
0.76999705
0.76999749
0.76999787
0.76999819
0.76999847
0.76999871
0.76999891
0.76999908
0.76999922
0.76999934
0.76999945
0.76999954
0.76999961
0.76999967
0.76999973
0.76999977
0.76999981
0.76999984
0.76999987
0.76999989
0.76999991
0.76999992
0.76999994
0.76999995
0.76999996
0.76999996
0.76999997
0.76999997
0.76999998
0.76999998
0.76999999
0.76999999
0.76999999
0.76999999
0.76999999
0.76999999
0.77
0.77
0.77
0.77
0.77
0.77
0.77
0.76998921
0.76999073
0.76999205
0.76999319
0.76999417
0.76999502
0.76999575
0.76999638
0.76999692
0.76999738
0.76999777
0.76999811
0.7699984
0.76999865
0.76999886
0.76999903
0.76999919
0.76999931
0.76999942
0.76999951
0.76999959
0.76999966
0.76999971
0.76999976
0.7699998
0.76999983
0.76999986
0.76999988
0.7699999
0.76999992
0.76999993
0.76999994
0.76999995
0.76999996
0.76999997
0.76999997
0.76999998
0.76999998
0.76999999
0.76999999
0.76999999
0.76999999
0.76999999
0.76999999
0.77
0.77
0.77
0.77
0.77
0.77
0.77
0.76998873
0.76999032
0.7699917
0.76999289
0.76999391
0.7699948
0.76999556
0.76999622
0.76999678
0.76999726
0.76999768
0.76999803
0.76999833
0.76999859
0.76999881
0.76999899
0.76999915
0.76999928
0.7699994
0.76999949
0.76999958
0.76999964
0.7699997
0.76999975
0.76999979
0.76999983
0.76999985
0.76999988
0.7699999
0.76999992
0.76999993
0.76999994
0.76999995
0.76999996
0.76999997
0.76999997
0.76999998
0.76999998
0.76999998
0.76999999
0.76999999
0.76999999
0.76999999
0.76999999
0.77
0.77
0.77
0.77
0.77
0.77
0.77
0.76998824
0.7699899
0.76999134
0.76999258
0.76999366
0.76999458
0.76999537
0.76999606
0.76999664
0.76999715
0.76999758
0.76999795
0.76999826
0.76999853
0.76999876
0.76999895
0.76999912
0.76999926
0.76999937
0.76999947
0.76999956
0.76999963
0.76999969
0.76999974
0.76999978
0.76999982
0.76999985
0.76999987
0.7699999
0.76999991
0.76999993
0.76999994
0.76999995
0.76999996
0.76999997
0.76999997
0.76999998
0.76999998
0.76999998
0.76999999
0.76999999
0.76999999
0.76999999
0.76999999
0.77
0.77
0.77
0.77
0.77
0.77
0.77
0.76998776
0.76998949
0.76999099
0.76999228
0.7699934
0.76999436
0.76999519
0.7699959
0.76999651
0.76999703
0.76999748
0.76999787
0.76999819
0.76999847
0.76999871
0.76999891
0.76999908
0.76999923
0.76999935
0.76999945
0.76999954
0.76999962
0.76999968
0.76999973
0.76999978
0.76999981
0.76999984
0.76999987
0.76999989
0.76999991
0.76999992
0.76999994
0.76999995
0.76999996
0.76999996
0.76999997
0.76999998
0.76999998
0.76999998
0.76999999
0.76999999
0.76999999
0.76999999
0.76999999
0.77
0.77
0.77
0.77
0.77
0.77
0.77
0.76998729
0.76998909
0.76999064
0.76999199
0.76999315
0.76999414
0.769995
0.76999574
0.76999638
0.76999692
0.76999739
0.76999779
0.76999812
0.76999841
0.76999866
0.76999887
0.76999905
0.7699992
0.76999933
0.76999943
0.76999953
0.7699996
0.76999967
0.76999972
0.76999977
0.76999981
0.76999984
0.76999987
0.76999989
0.76999991
0.76999992
0.76999994
0.76999995
0.76999996
0.76999996
0.76999997
0.76999997
0.76999998
0.76999998
0.76999999
0.76999999
0.76999999
0.76999999
0.76999999
0.77
0.77
0.77
0.77
0.77
0.77
0.77
0.76998682
0.76998869
0.7699903
0.76999169
0.7699929
0.76999393
0.76999482
0.76999559
0.76999625
0.76999681
0.76999729
0.76999771
0.76999806
0.76999836
0.76999861
0.76999883
0.76999901
0.76999917
0.7699993
0.76999941
0.76999951
0.76999959
0.76999966
0.76999971
0.76999976
0.7699998
0.76999983
0.76999986
0.76999988
0.7699999
0.76999992
0.76999993
0.76999994
0.76999995
0.76999996
0.76999997
0.76999997
0.76999998
0.76999998
0.76999999
0.76999999
0.76999999
0.76999999
0.76999999
0.76999999
0.77
0.77
0.77
0.77
0.77
0.77
0.76998637
0.7699883
0.76998997
0.76999141
0.76999265
0.76999373
0.76999465
0.76999544
0.76999612
0.7699967
0.7699972
0.76999763
0.76999799
0.7699983
0.76999857
0.76999879
0.76999898
0.76999914
0.76999928
0.7699994
0.76999949
0.76999958
0.76999964
0.7699997
0.76999975
0.76999979
0.76999983
0.76999986
0.76999988
0.7699999
0.76999992
0.76999993
0.76999994
0.76999995
0.76999996
0.76999997
0.76999997
0.76999998
0.76999998
0.76999999
0.76999999
0.76999999
0.76999999
0.76999999
0.76999999
0.77
0.77
0.77
0.77
0.77
0.77
0.76998592
0.76998791
0.76998964
0.76999113
0.76999241
0.76999352
0.76999448
0.7699953
0.769996
0.7699966
0.76999712
0.76999756
0.76999793
0.76999825
0.76999852
0.76999876
0.76999895
0.76999912
0.76999926
0.76999938
0.76999948
0.76999956
0.76999963
0.76999969
0.76999974
0.76999979
0.76999982
0.76999985
0.76999988
0.7699999
0.76999992
0.76999993
0.76999994
0.76999995
0.76999996
0.76999997
0.76999997
0.76999998
0.76999998
0.76999998
0.76999999
0.76999999
0.76999999
0.76999999
0.76999999
0.77
0.77
0.77
0.77
0.77
0.77
0.76998549
0.76998754
0.76998932
0.76999086
0.76999218
0.76999333
0.76999431
0.76999515
0.76999588
0.7699965
0.76999703
0.76999748
0.76999787
0.7699982
0.76999848
0.76999872
0.76999892
0.76999909
0.76999924
0.76999936
0.76999946
0.76999955
0.76999962
0.76999969
0.76999974
0.76999978
0.76999982
0.76999985
0.76999987
0.7699999
0.76999991
0.76999993
0.76999994
0.76999995
0.76999996
0.76999997
0.76999997
0.76999998
0.76999998
0.76999998
0.76999999
0.76999999
0.76999999
0.76999999
0.76999999
0.77
0.77
0.77
0.77
0.77
0.77
0.76998507
0.76998718
0.76998901
0.7699906
0.76999196
0.76999314
0.76999415
0.76999502
0.76999576
0.7699964
0.76999695
0.76999741
0.76999781
0.76999815
0.76999844
0.76999868
0.76999889
0.76999907
0.76999922
0.76999934
0.76999945
0.76999954
0.76999961
0.76999968
0.76999973
0.76999978
0.76999981
0.76999984
0.76999987
0.76999989
0.76999991
0.76999993
0.76999994
0.76999995
0.76999996
0.76999997
0.76999997
0.76999998
0.76999998
0.76999998
0.76999999
0.76999999
0.76999999
0.76999999
0.76999999
0.77
0.77
0.77
0.77
0.77
0.77
0.76998466
0.76998683
0.76998872
0.76999034
0.76999174
0.76999295
0.76999399
0.76999488
0.76999565
0.76999631
0.76999687
0.76999735
0.76999775
0.7699981
0.7699984
0.76999865
0.76999886
0.76999904
0.7699992
0.76999933
0.76999944
0.76999953
0.76999961
0.76999967
0.76999972
0.76999977
0.76999981
0.76999984
0.76999987
0.76999989
0.76999991
0.76999992
0.76999994
0.76999995
0.76999996
0.76999996
0.76999997
0.76999998
0.76999998
0.76999998
0.76999999
0.76999999
0.76999999
0.76999999
0.76999999
0.77
0.77
0.77
0.77
0.77
0.77
0.76998427
0.7699865
0.76998843
0.7699901
0.76999153
0.76999277
0.76999384
0.76999476
0.76999554
0.76999621
0.76999679
0.76999728
0.7699977
0.76999806
0.76999836
0.76999862
0.76999884
0.76999902
0.76999918
0.76999931
0.76999942
0.76999952
0.7699996
0.76999966
0.76999972
0.76999977
0.7699998
0.76999984
0.76999986
0.76999989
0.76999991
0.76999992
0.76999994
0.76999995
0.76999996
0.76999996
0.76999997
0.76999998
0.76999998
0.76999998
0.76999999
0.76999999
0.76999999
0.76999999
0.76999999
0.77
0.77
0.77
0.77
0.77
0.77
0.76998389
0.76998618
0.76998815
0.76998986
0.76999133
0.7699926
0.7699937
0.76999463
0.76999544
0.76999613
0.76999672
0.76999722
0.76999765
0.76999801
0.76999832
0.76999859
0.76999881
0.769999
0.76999916
0.7699993
0.76999941
0.76999951
0.76999959
0.76999966
0.76999971
0.76999976
0.7699998
0.76999983
0.76999986
0.76999989
0.7699999
0.76999992
0.76999993
0.76999995
0.76999996
0.76999996
0.76999997
0.76999997
0.76999998
0.76999998
0.76999999
0.76999999
0.76999999
0.76999999
0.76999999
0.77
0.77
0.77
0.77
0.77
0.77
0.76998353
0.76998587
0.76998789
0.76998964
0.76999114
0.76999244
0.76999356
0.76999452
0.76999534
0.76999604
0.76999664
0.76999716
0.7699976
0.76999797
0.76999829
0.76999856
0.76999879
0.76999898
0.76999914
0.76999928
0.7699994
0.7699995
0.76999958
0.76999965
0.76999971
0.76999976
0.7699998
0.76999983
0.76999986
0.76999988
0.7699999
0.76999992
0.76999993
0.76999994
0.76999995
0.76999996
0.76999997
0.76999997
0.76999998
0.76999998
0.76999999
0.76999999
0.76999999
0.76999999
0.76999999
0.77
0.77
0.77
0.77
0.77
0.77
0.76998557
0.76998764
0.76998942
0.76999096
0.76999228
0.76999342
0.7699944
0.76999524
0.76999596
0.76999658
0.7699971
0.76999755
0.76999793
0.76999825
0.76999853
0.76999876
0.76999896
0.76999913
0.76999927
0.76999939
0.76999949
0.76999957
0.76999964
0.7699997
0.76999975
0.76999979
0.76999983
0.76999986
0.76999988
0.7699999
0.76999992
0.76999993
0.76999994
0.76999995
0.76999996
0.76999997
0.76999997
0.76999998
0.76999998
0.76999999
0.76999999
0.76999999
0.76999999
0.76999999
0.77
0.77
0.77
0.77
0.77
0.77
0.76998529
0.76998739
0.76998921
0.76999078
0.76999214
0.7699933
0.7699943
0.76999515
0.76999589
0.76999651
0.76999705
0.7699975
0.76999789
0.76999822
0.7699985
0.76999874
0.76999894
0.76999911
0.76999926
0.76999938
0.76999948
0.76999956
0.76999964
0.7699997
0.76999975
0.76999979
0.76999982
0.76999985
0.76999988
0.7699999
0.76999992
0.76999993
0.76999994
0.76999995
0.76999996
0.76999997
0.76999997
0.76999998
0.76999998
0.76999999
0.76999999
0.76999999
0.76999999
0.76999999
0.77
0.77
0.77
0.77
0.77
0.77
0.76998502
0.76998717
0.76998902
0.76999062
0.76999199
0.76999318
0.7699942
0.76999507
0.76999581
0.76999645
0.769997
0.76999746
0.76999786
0.76999819
0.76999848
0.76999872
0.76999892
0.7699991
0.76999924
0.76999937
0.76999947
0.76999956
0.76999963
0.76999969
0.76999974
0.76999979
0.76999982
0.76999985
0.76999988
0.7699999
0.76999992
0.76999993
0.76999994
0.76999995
0.76999996
0.76999997
0.76999997
0.76999998
0.76999998
0.76999999
0.76999999
0.76999999
0.76999999
0.76999999
0.77
0.77
0.77
0.77
0.77
0.77
0.76998477
0.76998695
0.76998883
0.76999046
0.76999186
0.76999307
0.7699941
0.76999499
0.76999575
0.76999639
0.76999695
0.76999742
0.76999782
0.76999816
0.76999845
0.7699987
0.76999891
0.76999908
0.76999923
0.76999936
0.76999946
0.76999955
0.76999962
0.76999969
0.76999974
0.76999978
0.76999982
0.76999985
0.76999988
0.7699999
0.76999991
0.76999993
0.76999994
0.76999995
0.76999996
0.76999997
0.76999997
0.76999998
0.76999998
0.76999998
0.76999999
0.76999999
0.76999999
0.76999999
0.76999999
0.77
0.77
0.77
0.77
0.77
0.76998453
0.76998674
0.76998866
0.76999031
0.76999173
0.76999296
0.76999401
0.76999491
0.76999568
0.76999634
0.7699969
0.76999738
0.76999779
0.76999814
0.76999843
0.76999868
0.76999889
0.76999907
0.76999922
0.76999935
0.76999945
0.76999954
0.76999962
0.76999968
0.76999974
0.76999978
0.76999982
0.76999985
0.76999987
0.7699999
0.76999991
0.76999993
0.76999994
0.76999995
0.76999996
0.76999997
0.76999997
0.76999998
0.76999998
0.76999998
0.76999999
0.76999999
0.76999999
0.76999999
0.76999999
0.77
0.77
0.77
0.77
0.77
0.7699843
0.76998655
0.76998849
0.76999017
0.76999161
0.76999286
0.76999392
0.76999484
0.76999562
0.76999629
0.76999686
0.76999735
0.76999776
0.76999811
0.76999841
0.76999866
0.76999888
0.76999906
0.76999921
0.76999934
0.76999945
0.76999954
0.76999961
0.76999968
0.76999973
0.76999978
0.76999981
0.76999985
0.76999987
0.76999989
0.76999991
0.76999993
0.76999994
0.76999995
0.76999996
0.76999997
0.76999997
0.76999998
0.76999998
0.76999998
0.76999999
0.76999999
0.76999999
0.76999999
0.76999999
0.77
0.77
0.77
0.77
0.77
0.76998409
0.76998637
0.76998834
0.76999004
0.7699915
0.76999276
0.76999384
0.76999477
0.76999556
0.76999624
0.76999682
0.76999731
0.76999773
0.76999809
0.76999839
0.76999865
0.76999886
0.76999905
0.7699992
0.76999933
0.76999944
0.76999953
0.76999961
0.76999968
0.76999973
0.76999977
0.76999981
0.76999984
0.76999987
0.76999989
0.76999991
0.76999993
0.76999994
0.76999995
0.76999996
0.76999997
0.76999997
0.76999998
0.76999998
0.76999998
0.76999999
0.76999999
0.76999999
0.76999999
0.76999999
0.77
0.77
0.77
0.77
0.77
0.76998388
0.76998619
0.76998819
0.76998991
0.7699914
0.76999267
0.76999377
0.7699947
0.76999551
0.76999619
0.76999678
0.76999728
0.7699977
0.76999806
0.76999837
0.76999863
0.76999885
0.76999904
0.76999919
0.76999932
0.76999943
0.76999953
0.76999961
0.76999967
0.76999973
0.76999977
0.76999981
0.76999984
0.76999987
0.76999989
0.76999991
0.76999993
0.76999994
0.76999995
0.76999996
0.76999997
0.76999997
0.76999998
0.76999998
0.76999998
0.76999999
0.76999999
0.76999999
0.76999999
0.76999999
0.77
0.77
0.77
0.77
0.77
0.76998369
0.76998603
0.76998805
0.7699898
0.7699913
0.76999259
0.76999369
0.76999464
0.76999546
0.76999615
0.76999674
0.76999725
0.76999768
0.76999804
0.76999835
0.76999862
0.76999884
0.76999903
0.76999918
0.76999932
0.76999943
0.76999952
0.7699996
0.76999967
0.76999972
0.76999977
0.76999981
0.76999984
0.76999987
0.76999989
0.76999991
0.76999993
0.76999994
0.76999995
0.76999996
0.76999997
0.76999997
0.76999998
0.76999998
0.76999998
0.76999999
0.76999999
0.76999999
0.76999999
0.76999999
0.77
0.77
0.77
0.77
0.77
0.76998352
0.76998588
0.76998792
0.76998969
0.7699912
0.76999251
0.76999363
0.76999459
0.76999541
0.76999611
0.76999671
0.76999722
0.76999766
0.76999802
0.76999834
0.7699986
0.76999883
0.76999902
0.76999918
0.76999931
0.76999942
0.76999952
0.7699996
0.76999967
0.76999972
0.76999977
0.76999981
0.76999984
0.76999987
0.76999989
0.76999991
0.76999992
0.76999994
0.76999995
0.76999996
0.76999996
0.76999997
0.76999998
0.76999998
0.76999998
0.76999999
0.76999999
0.76999999
0.76999999
0.76999999
0.77
0.77
0.77
0.77
0.77
0.76998335
0.76998574
0.7699878
0.76998958
0.76999112
0.76999244
0.76999357
0.76999454
0.76999537
0.76999607
0.76999668
0.76999719
0.76999763
0.76999801
0.76999832
0.76999859
0.76999882
0.76999901
0.76999917
0.7699993
0.76999942
0.76999951
0.76999959
0.76999966
0.76999972
0.76999977
0.76999981
0.76999984
0.76999987
0.76999989
0.76999991
0.76999992
0.76999994
0.76999995
0.76999996
0.76999996
0.76999997
0.76999998
0.76999998
0.76999998
0.76999999
0.76999999
0.76999999
0.76999999
0.76999999
0.77
0.77
0.77
0.77
0.77
0.7699832
0.76998561
0.76998769
0.76998949
0.76999104
0.76999237
0.76999351
0.76999449
0.76999532
0.76999604
0.76999665
0.76999717
0.76999761
0.76999799
0.76999831
0.76999858
0.76999881
0.769999
0.76999916
0.7699993
0.76999941
0.76999951
0.76999959
0.76999966
0.76999972
0.76999976
0.7699998
0.76999984
0.76999987
0.76999989
0.76999991
0.76999992
0.76999994
0.76999995
0.76999996
0.76999996
0.76999997
0.76999998
0.76999998
0.76999998
0.76999999
0.76999999
0.76999999
0.76999999
0.76999999
0.77
0.77
0.77
0.77
0.77
0.76998306
0.76998549
0.76998759
0.7699894
0.76999096
0.7699923
0.76999346
0.76999444
0.76999529
0.76999601
0.76999662
0.76999715
0.76999759
0.76999797
0.76999829
0.76999857
0.7699988
0.76999899
0.76999916
0.76999929
0.76999941
0.76999951
0.76999959
0.76999966
0.76999971
0.76999976
0.7699998
0.76999984
0.76999986
0.76999989
0.76999991
0.76999992
0.76999994
0.76999995
0.76999996
0.76999996
0.76999997
0.76999998
0.76999998
0.76999998
0.76999999
0.76999999
0.76999999
0.76999999
0.76999999
0.77
0.77
0.77
0.77
0.77
0.76998292
0.76998537
0.76998749
0.76998932
0.76999089
0.76999225
0.76999341
0.7699944
0.76999525
0.76999598
0.7699966
0.76999713
0.76999758
0.76999796
0.76999828
0.76999856
0.76999879
0.76999898
0.76999915
0.76999929
0.76999941
0.7699995
0.76999959
0.76999966
0.76999971
0.76999976
0.7699998
0.76999984
0.76999986
0.76999989
0.76999991
0.76999992
0.76999994
0.76999995
0.76999996
0.76999996
0.76999997
0.76999998
0.76999998
0.76999998
0.76999999
0.76999999
0.76999999
0.76999999
0.76999999
0.77
0.77
0.77
0.77
0.77
0.7699828
0.76998527
0.76998741
0.76998925
0.76999083
0.76999219
0.76999336
0.76999436
0.76999522
0.76999595
0.76999658
0.76999711
0.76999756
0.76999795
0.76999827
0.76999855
0.76999878
0.76999898
0.76999914
0.76999928
0.7699994
0.7699995
0.76999958
0.76999965
0.76999971
0.76999976
0.7699998
0.76999983
0.76999986
0.76999989
0.76999991
0.76999992
0.76999994
0.76999995
0.76999996
0.76999996
0.76999997
0.76999998
0.76999998
0.76999998
0.76999999
0.76999999
0.76999999
0.76999999
0.76999999
0.77
0.77
0.77
0.77
0.77
0.76998269
0.76998517
0.76998732
0.76998918
0.76999077
0.76999214
0.76999332
0.76999433
0.76999519
0.76999593
0.76999656
0.76999709
0.76999755
0.76999793
0.76999826
0.76999854
0.76999877
0.76999897
0.76999914
0.76999928
0.7699994
0.7699995
0.76999958
0.76999965
0.76999971
0.76999976
0.7699998
0.76999983
0.76999986
0.76999989
0.76999991
0.76999992
0.76999994
0.76999995
0.76999996
0.76999996
0.76999997
0.76999998
0.76999998
0.76999998
0.76999999
0.76999999
0.76999999
0.76999999
0.76999999
0.77
0.77
0.77
0.77
0.77
0.76998258
0.76998509
0.76998725
0.76998911
0.76999072
0.7699921
0.76999328
0.76999429
0.76999516
0.7699959
0.76999654
0.76999707
0.76999753
0.76999792
0.76999825
0.76999853
0.76999877
0.76999897
0.76999913
0.76999928
0.7699994
0.7699995
0.76999958
0.76999965
0.76999971
0.76999976
0.7699998
0.76999983
0.76999986
0.76999989
0.7699999
0.76999992
0.76999993
0.76999995
0.76999996
0.76999996
0.76999997
0.76999998
0.76999998
0.76999998
0.76999999
0.76999999
0.76999999
0.76999999
0.76999999
0.77
0.77
0.77
0.77
0.77
0.76998249
0.76998501
0.76998718
0.76998906
0.76999067
0.76999205
0.76999324
0.76999426
0.76999514
0.76999588
0.76999652
0.76999706
0.76999752
0.76999791
0.76999824
0.76999852
0.76999876
0.76999896
0.76999913
0.76999927
0.76999939
0.76999949
0.76999958
0.76999965
0.76999971
0.76999976
0.7699998
0.76999983
0.76999986
0.76999988
0.7699999
0.76999992
0.76999993
0.76999995
0.76999996
0.76999996
0.76999997
0.76999998
0.76999998
0.76999998
0.76999999
0.76999999
0.76999999
0.76999999
0.76999999
0.77
0.77
0.77
0.77
0.77
0.7699824
0.76998493
0.76998712
0.769989
0.76999062
0.76999202
0.76999321
0.76999424
0.76999511
0.76999586
0.7699965
0.76999705
0.76999751
0.7699979
0.76999824
0.76999852
0.76999876
0.76999896
0.76999913
0.76999927
0.76999939
0.76999949
0.76999958
0.76999965
0.76999971
0.76999976
0.7699998
0.76999983
0.76999986
0.76999988
0.7699999
0.76999992
0.76999993
0.76999995
0.76999996
0.76999996
0.76999997
0.76999998
0.76999998
0.76999998
0.76999999
0.76999999
0.76999999
0.76999999
0.76999999
0.77
0.77
0.77
0.77
0.77
0.76998233
0.76998487
0.76998706
0.76998895
0.76999058
0.76999198
0.76999318
0.76999421
0.76999509
0.76999585
0.76999649
0.76999703
0.7699975
0.76999789
0.76999823
0.76999851
0.76999875
0.76999895
0.76999912
0.76999927
0.76999939
0.76999949
0.76999957
0.76999965
0.7699997
0.76999975
0.7699998
0.76999983
0.76999986
0.76999988
0.7699999
0.76999992
0.76999993
0.76999995
0.76999996
0.76999996
0.76999997
0.76999997
0.76999998
0.76999998
0.76999999
0.76999999
0.76999999
0.76999999
0.76999999
0.77
0.77
0.77
0.77
0.77
0.76998226
0.76998481
0.76998701
0.76998891
0.76999055
0.76999195
0.76999316
0.76999419
0.76999508
0.76999583
0.76999647
0.76999702
0.76999749
0.76999789
0.76999822
0.76999851
0.76999875
0.76999895
0.76999912
0.76999926
0.76999939
0.76999949
0.76999957
0.76999964
0.7699997
0.76999975
0.7699998
0.76999983
0.76999986
0.76999988
0.7699999
0.76999992
0.76999993
0.76999995
0.76999995
0.76999996
0.76999997
0.76999997
0.76999998
0.76999998
0.76999999
0.76999999
0.76999999
0.76999999
0.76999999
0.77
0.77
0.77
0.77
0.77
0.76998219
0.76998475
0.76998697
0.76998887
0.76999051
0.76999192
0.76999313
0.76999417
0.76999506
0.76999582
0.76999646
0.76999701
0.76999748
0.76999788
0.76999822
0.7699985
0.76999874
0.76999895
0.76999912
0.76999926
0.76999938
0.76999949
0.76999957
0.76999964
0.7699997
0.76999975
0.76999979
0.76999983
0.76999986
0.76999988
0.7699999
0.76999992
0.76999993
0.76999995
0.76999995
0.76999996
0.76999997
0.76999997
0.76999998
0.76999998
0.76999999
0.76999999
0.76999999
0.76999999
0.76999999
0.77
0.77
0.77
0.77
0.77
0.76998214
0.76998471
0.76998693
0.76998884
0.76999048
0.7699919
0.76999311
0.76999415
0.76999504
0.7699958
0.76999645
0.76999701
0.76999747
0.76999787
0.76999821
0.7699985
0.76999874
0.76999894
0.76999912
0.76999926
0.76999938
0.76999948
0.76999957
0.76999964
0.7699997
0.76999975
0.76999979
0.76999983
0.76999986
0.76999988
0.7699999
0.76999992
0.76999993
0.76999995
0.76999995
0.76999996
0.76999997
0.76999997
0.76999998
0.76999998
0.76999999
0.76999999
0.76999999
0.76999999
0.76999999
0.77
0.77
0.77
0.77
0.77
0.76998209
0.76998466
0.76998689
0.76998881
0.76999046
0.76999188
0.76999309
0.76999414
0.76999503
0.76999579
0.76999644
0.769997
0.76999747
0.76999787
0.76999821
0.76999849
0.76999874
0.76999894
0.76999911
0.76999926
0.76999938
0.76999948
0.76999957
0.76999964
0.7699997
0.76999975
0.76999979
0.76999983
0.76999986
0.76999988
0.7699999
0.76999992
0.76999993
0.76999995
0.76999995
0.76999996
0.76999997
0.76999997
0.76999998
0.76999998
0.76999999
0.76999999
0.76999999
0.76999999
0.76999999
0.77
0.77
0.77
0.77
0.77
0.76998463
0.76998686
0.76998878
0.76999044
0.76999186
0.76999308
0.76999412
0.76999502
0.76999578
0.76999644
0.76999699
0.76999746
0.76999786
0.7699982
0.76999849
0.76999873
0.76999894
0.76999911
0.76999926
0.76999938
0.76999948
0.76999957
0.76999964
0.7699997
0.76999975
0.76999979
0.76999983
0.76999986
0.76999988
0.7699999
0.76999992
0.76999993
0.76999994
0.76999995
0.76999996
0.76999997
0.76999997
0.76999998
0.76999998
0.76999999
0.76999999
0.76999999
0.76999999
0.76999999
0.77
0.77
0.77
0.77
0.77
0.7699846
0.76998683
0.76998876
0.76999042
0.76999184
0.76999306
0.76999411
0.76999501
0.76999578
0.76999643
0.76999698
0.76999746
0.76999786
0.7699982
0.76999849
0.76999873
0.76999894
0.76999911
0.76999926
0.76999938
0.76999948
0.76999957
0.76999964
0.7699997
0.76999975
0.76999979
0.76999983
0.76999986
0.76999988
0.7699999
0.76999992
0.76999993
0.76999994
0.76999995
0.76999996
0.76999997
0.76999997
0.76999998
0.76999998
0.76999999
0.76999999
0.76999999
0.76999999
0.76999999
0.77
0.77
0.77
0.77
0.77
0.76998457
0.76998681
0.76998874
0.7699904
0.76999183
0.76999305
0.7699941
0.769995
0.76999577
0.76999642
0.76999698
0.76999745
0.76999786
0.7699982
0.76999849
0.76999873
0.76999894
0.76999911
0.76999925
0.76999938
0.76999948
0.76999957
0.76999964
0.7699997
0.76999975
0.76999979
0.76999983
0.76999986
0.76999988
0.7699999
0.76999992
0.76999993
0.76999994
0.76999995
0.76999996