/*--------------------------------*- C++ -*----------------------------------*\
| =========                 |                                                 |
| \\      /  F ield         | OpenFOAM: The Open Source CFD Toolbox           |
|  \\    /   O peration     | Version:  2312                                  |
|   \\  /    A nd           | Website:  www.openfoam.com                      |
|    \\/     M anipulation  |                                                 |
\*---------------------------------------------------------------------------*/
FoamFile
{
    version     2.0;
    format      ascii;
    arch        "LSB;label=32;scalar=64";
    class       volScalarField;
    location    "0.02";
    object      Qdot;
}
// * * * * * * * * * * * * * * * * * * * * * * * * * * * * * * * * * * * * * //

dimensions      [1 -1 -3 0 0 0 0];

internalField   nonuniform List<scalar> 
3257
(
1.6437986
1.1475589
0.79361123
0.54356268
0.36861399
0.24742588
0.16434079
0.10798287
0.07017192
0.045088842
0.028640445
0.017980991
0.011155798
0.0068388573
0.0041420839
0.0024784389
0.0014650393
0.00085553225
0.00049358514
0.00028136321
0.00015849349
8.8242539e-05
4.8569528e-05
2.6435769e-05
1.4232774e-05
7.5833477e-06
3.9994259e-06
2.0890232e-06
1.0817648e-06
5.5525256e-07
2.8272414e-07
1.4287866e-07
7.1812343e-08
3.5305485e-08
1.7253669e-08
8.346221e-09
4.315715e-09
1.6090058e-09
1.0328115e-09
8.1118416e-12
2.4937606e-10
1.2049704e-10
6.2701437e-11
-3.9596186e-10
-4.1049663e-10
-4.9218402e-10
-4.9414167e-10
1.5230662e-12
1.0839047e-12
-1.7701607e-14
1.4658799e-10
1.697089
1.184184
0.81853355
0.5603461
0.3797945
0.2547906
0.16913592
0.11106775
0.07213225
0.046318923
0.029402391
0.018446772
0.011436726
0.0070059917
0.004240147
0.0025351723
0.0014973977
0.00087372597
0.00050366753
0.00028687049
0.00016145897
8.9815308e-05
4.9392436e-05
2.6859259e-05
1.4448693e-05
7.6907112e-06
4.0525305e-06
2.1149174e-06
1.0937388e-06
5.6063118e-07
2.8489098e-07
1.4360648e-07
7.2303492e-08
3.6034666e-08
1.7451977e-08
8.9047709e-09
4.4053482e-09
1.6314429e-09
5.3506929e-10
1.3019705e-11
3.2261291e-10
-3.0215049e-10
-4.3570617e-10
2.9185546e-11
8.9165059e-11
6.2258521e-12
4.2682021e-12
1.4867654e-10
1.0842813e-12
5.493908e-13
-9.9668008e-10
1.8018973
1.2562405
0.86755957
0.59334971
0.40176944
0.26925731
0.17854906
0.11711942
0.075975061
0.048728398
0.030893703
0.019357669
0.011985656
0.0073322867
0.0044314257
0.0026457345
0.0015604025
0.00090911761
0.00052326441
0.0002975644
0.00016721087
9.2864274e-05
5.0985254e-05
2.7679534e-05
1.4864577e-05
7.8990147e-06
4.1558087e-06
2.1653414e-06
1.1176371e-06
5.7187935e-07
2.9066926e-07
1.4660263e-07
7.3472976e-08
3.6544075e-08
1.759505e-08
8.4155045e-09
4.3830661e-09
2.2058083e-09
6.2093961e-10
7.8316289e-12
-1.7585345e-10
-3.0466619e-10
1.3596691e-10
1.0245328e-10
9.0185372e-11
-4.92181e-10
-4.9413941e-10
2.1489779e-12
-4.978333e-10
1.4676475e-10
2.7996822e-13
1.9592677
1.3643437
0.94104626
0.64277244
0.43464265
0.29087458
0.19259827
0.1261403
0.081695793
0.052310406
0.033107549
0.020707865
0.012798051
0.0078144133
0.0047135817
0.0028085447
0.0016530153
0.00096104736
0.00055196285
0.0003131962
0.00017560112
9.7303661e-05
5.3299155e-05
2.8869418e-05
1.546689e-05
8.1997801e-06
4.3033021e-06
2.2366858e-06
1.1518899e-06
5.8850796e-07
2.9778247e-07
1.4996375e-07
7.4925197e-08
3.7287678e-08
1.8392475e-08
9.0473625e-09
4.4877851e-09
2.2310913e-09
6.2521172e-10
5.9238525e-10
3.2247431e-10
1.982631e-10
-3.6447379e-10
-4.6921302e-10
-4.8148319e-10
-3.4689962e-10
3.254669e-12
-3.4973107e-10
1.4647916e-10
1.4651061e-10
1.5285287e-13
2.1726513
1.5107456
1.04044
0.70952786
0.47898066
0.31998665
0.21148802
0.13824877
0.089360958
0.057101006
0.036062623
0.022506488
0.013877985
0.0084539164
0.0050869954
0.0030235074
0.001774999
0.0010292743
0.00058957105
0.00033362602
0.00018653873
0.00010307369
5.6299429e-05
3.0406343e-05
1.624303e-05
8.5865161e-06
4.493289e-06
2.3282708e-06
1.195508e-06
6.0900942e-07
3.0714869e-07
1.5429927e-07
7.6923087e-08
3.7643478e-08
1.8747423e-08
8.7710774e-09
3.9927667e-09
1.693359e-09
6.2840111e-10
5.8801174e-10
3.2238392e-10
1.2044732e-10
-4.3569864e-10
2.9203624e-11
-4.1024629e-10
-3.4564553e-10
-4.953852e-10
-4.962575e-10
-4.9732352e-10
5.4995575e-13
-9.9682162e-10
2.4472497
1.6988687
1.1679594
0.79503149
0.53567166
0.35714095
0.23554921
0.15364065
0.099083775
0.063163964
0.03979378
0.024771922
0.015234737
0.0092552155
0.0055535971
0.0032913523
0.0019265443
0.0011137763
0.00063600565
0.00035876864
0.00019995314
0.00011012585
5.9952596e-05
3.2270952e-05
1.7181719e-05
9.051133e-06
4.7204791e-06
2.4376536e-06
1.2479998e-06
6.332726e-07
3.1888925e-07
1.59417e-07
7.8608994e-08
3.9039089e-08
1.9253037e-08
9.3530302e-09
4.0667798e-09
2.2805547e-09
1.0797905e-09
5.8768633e-10
2.5810153e-10
1.9369924e-10
-4.4022483e-10
-4.6919419e-10
9.0204957e-11
-4.921682e-10
3.0269243e-12
1.4868106e-10
-4.9783122e-10
-1.6760032e-14
-3.3425906e-15
2.7894668
1.9329271
1.3263359
0.90102657
0.60580977
0.40301203
0.26518986
0.17255768
0.11100425
0.070578357
0.04434442
0.027527213
0.016880064
0.010224006
0.0061159568
0.0036131111
0.0021079777
0.0012145919
0.00069120308
0.0003885453
0.00021577919
0.00011841296
6.422803e-05
3.4444969e-05
1.8269801e-05
9.5888871e-06
4.9818106e-06
2.5629491e-06
1.3070173e-06
6.6079825e-07
3.3142211e-07
1.6500546e-07
8.1631916e-08
4.0135225e-08
1.9203289e-08
9.0544871e-09
4.2235955e-09
1.7424186e-09
6.5365403e-10
2.4767344e-11
3.2221971e-10
1.9823146e-10
-3.6944643e-10
1.024932e-10
9.0215502e-11
-4.9216142e-10
2.0133912e-12
-4.9625411e-10
-4.6513796e-14
5.5052069e-13
-3.2484331e-15
3.2063432
2.217539
1.5185529
1.0294092
0.69057943
0.45832622
0.30084657
0.19525665
0.12526984
0.079426603
0.049759216
0.030795696
0.018825614
0.011365758
0.0067764222
0.0039896423
0.0023195039
0.0013316731
0.0007550484
0.00042284418
0.00023393086
0.00012787632
6.9088147e-05
3.6903075e-05
1.9495784e-05
1.0190539e-05
5.2722379e-06
2.70204e-06
1.3720822e-06
6.9039701e-07
3.4463456e-07
1.7074063e-07
8.4394531e-08
4.1297687e-08
2.0117464e-08
9.8234932e-09
4.2155886e-09
1.7759525e-09
5.9757888e-10
2.4481105e-11
2.5389976e-10
-3.7750028e-10
5.6187347e-11
-3.9793243e-10
1.4464459e-11
-4.9215389e-10
-4.9412434e-10
-4.9625185e-10
-4.9782915e-10
-9.9683424e-10
-3.1542756e-15
3.7049285
2.5573023
1.7475607
1.1820399
0.79113224
0.52378211
0.34293382
0.22197756
0.14201571
0.089782434
0.056076865
0.034596727
0.021080444
0.012684304
0.0075363252
0.0044211901
0.0025609622
0.0014647651
0.00082731183
0.00046149039
0.00025428795
0.000138438
7.4485262e-05
3.961948e-05
2.0841596e-05
1.0847893e-05
5.5888644e-06
2.8512212e-06
1.4418607e-06
7.2289515e-07
3.5951925e-07
1.7711113e-07
8.7146732e-08
4.1958733e-08
2.0117401e-08
9.4791728e-09
4.7894141e-09
2.3813042e-09
1.1733945e-09
2.4253621e-11
-1.672018e-10
1.9827063e-10
5.6217477e-11
-3.9587373e-10
-4.8346431e-10
6.0304976e-12
3.2723706e-12
2.1595236e-12
5.8090444e-13
-1.5535984e-14
-3.0601181e-15
4.291573
2.9563204
2.0159627
1.3605383
0.90845438
0.59996593
0.39179087
0.25291063
0.16134461
0.10169878
0.06332294
0.038941503
0.023648637
0.014180488
0.0083952437
0.0049069851
0.0028316229
0.0016132957
0.00090758756
0.00050421779
0.00027668226
0.00014999652
8.0360103e-05
4.2559681e-05
2.2291406e-05
1.1551058e-05
5.9243198e-06
3.009309e-06
1.5149883e-06
7.5612149e-07
3.7401974e-07
1.8357696e-07
8.9433346e-08
4.3762624e-08
2.117005e-08
9.7341558e-09
4.3568526e-09
1.8435658e-09
1.1858171e-09
2.9101224e-11
3.2621961e-10
1.2505487e-10
-3.6685239e-10
-3.9584661e-10
-4.1018377e-10
6.5059482e-12
-4.9411455e-10
-4.9624696e-10
-3.519243e-10
-8.4999278e-10
2.8048609e-13
4.9711564
3.41769
2.32568
1.5660662
1.043228
0.6872644
0.44762749
0.28816325
0.18330695
0.11519598
0.071503025
0.04382916
0.026527111
0.015850974
0.0093503556
0.0054449078
0.0031300047
0.001776285
0.00099525585
0.00055064662
0.00030089095
0.00016242413
8.6640561e-05
4.5684344e-05
2.3821115e-05
1.2288955e-05
6.2749856e-06
3.1727394e-06
1.5901239e-06
7.8958829e-07
3.8950586e-07
1.9067336e-07
9.2260088e-08
4.4889293e-08
2.1653183e-08
1.035043e-08
4.9932113e-09
2.4314003e-09
6.8688369e-10
2.9043976e-11
-2.453902e-10
-3.0002098e-10
-4.4006363e-10
1.0009501e-10
-4.1266482e-10
-4.9189262e-10
-3.488309e-10
-3.4971638e-10
-4.9782595e-10
-1.459441e-14
1.5341781e-13
5.7462896
3.9429773
2.6776118
1.7991101
1.1956942
0.78577952
0.51047205
0.32772865
0.20788235
0.13025109
0.08059663
0.049243371
0.029703766
0.017687258
0.010395928
0.0060312278
0.0034537581
0.0019522954
0.0010894575
0.00060027553
0.0003266283
0.00017556014
9.3239526e-05
4.8947444e-05
2.5408591e-05
1.3048254e-05
6.632657e-06
3.3388397e-06
1.6649729e-06
8.233161e-07
4.0377463e-07
1.9701313e-07
9.5356797e-08
4.5949647e-08
2.1477385e-08
1.0065681e-08
4.4808835e-09
1.8763616e-09
1.2031354e-09
6.0483899e-10
3.2232667e-10
1.1614711e-10
1.3167122e-10
-4.6653914e-10
-4.1467908e-10
4.0275356e-12
-4.9535319e-10
9.1749253e-13
1.4711261e-10
-9.9683235e-10
1.4680861e-10
6.6165548
4.5317237
3.0713181
2.0592814
1.3655286
0.8952526
0.58012579
0.371459
0.23496403
0.14678908
0.090552331
0.055149742
0.033156129
0.019674981
0.011522988
0.0066604559
0.003799595
0.0021393959
0.0011890825
0.00065248156
0.00035354799
0.00018921925
0.00010005864
5.2296035e-05
2.7026523e-05
1.3817521e-05
6.9918515e-06
3.5037341e-06
1.7397631e-06
8.5667899e-07
4.18478e-07
2.0299966e-07
9.7924449e-08
4.6930085e-08
2.2449543e-08
1.0706794e-08
4.6046292e-09
1.8854e-09
7.0469017e-10
2.4270193e-11
-2.4010721e-10
-3.7714173e-10
-4.3992729e-10
1.0267625e-10
8.8289373e-11
-4.9436953e-10
4.3126445e-12
9.2050557e-13
-4.9731448e-10
-1.3558677e-14
-9.9666462e-10
7.5778601
5.1810313
3.5047585
2.3451533
1.5517425
1.0150051
0.65612822
0.41904568
0.26434791
0.16467688
0.1012847
0.061494278
0.03685062
0.021793609
0.012719195
0.0073253064
0.0041632873
0.0023351781
0.0012927841
0.00070652121
0.0003812514
0.00020318938
0.0001069869
5.5675255e-05
2.864706e-05
1.4581108e-05
7.3449664e-06
3.6645369e-06
1.8110768e-06
8.8798629e-07
4.3189416e-07
2.0859911e-07
1.0011028e-07
4.7736014e-08
2.217509e-08
1.0740797e-08
4.6301182e-09
2.373451e-09
6.8679028e-10
2.456999e-11
-2.5395146e-10
-3.128036e-10
-3.6657896e-10
2.9459732e-11
-4.1259477e-10
-4.8982111e-10
3.0687303e-12
-4.9725239e-10
-3.5141038e-10
1.470235e-10
-2.542252e-15
8.6219887
5.8852798
3.9741176
2.6541569
1.7526211
1.1439035
0.73773798
0.47000917
0.29572756
0.18372118
0.11267339
0.068203123
0.040742586
0.024016559
0.013968966
0.0080167928
0.0045397395
0.0025368007
0.0013990043
0.00076155879
0.00040929446
0.00021723859
0.00011390603
5.9024776e-05
3.0239868e-05
1.5325024e-05
7.6867927e-06
3.8180376e-06
1.8791284e-06
9.1702345e-07
4.436122e-07
2.1352247e-07
1.0149914e-07
4.7968718e-08
2.299783e-08
1.0788531e-08
4.6551531e-09
1.9485951e-09
1.1857342e-09
1.073368e-10
-2.5773743e-10
-3.868309e-10
1.3192657e-10
-4.0016943e-10
1.5078132e-11
7.9365649e-11
1.5085414e-10
-4.9724919e-10
-4.9844546e-10
-1.2522945e-14
1.5384152e-13
9.736414
6.6360193
4.473746
2.9825503
1.9657103
1.2803551
0.82393245
0.52370057
0.3286962
0.20367022
0.1245647
0.075183737
0.044777111
0.026311727
0.015253828
0.0087244533
0.0049231226
0.0027410694
0.0015060227
0.00081668131
0.0004372028
0.00023112563
0.00012069524
6.2285357e-05
3.1777487e-05
1.6036722e-05
8.0088956e-06
3.9612059e-06
1.9409522e-06
9.4338361e-07
4.5486048e-07
2.1727071e-07
1.0312374e-07
4.8642918e-08
2.2607958e-08
1.0432512e-08
4.6653967e-09
2.4479594e-09
1.1133018e-09
8.975629e-11
3.1927739e-10
-3.1337335e-10
-4.4871152e-10
-4.0011293e-10
1.2605746e-11
-4.8979249e-10
-3.475482e-10
-4.9724599e-10
-4.9844414e-10
6.1320045e-13
-9.9666427e-10
10.904429
7.4220691
4.9962349
3.3254739
2.1878566
1.4223358
0.91342784
0.57931538
0.36275605
0.22422008
0.13677556
0.082327424
0.048890609
0.028642476
0.016552999
0.0094366866
0.0053070675
0.0029445462
0.001612015
0.00087093828
0.00046449012
0.00024460407
0.0001272333
6.5397588e-05
3.3230336e-05
1.6701842e-05
8.3069425e-06
4.0917436e-06
1.9965088e-06
9.65956e-07
4.6359375e-07
2.2086488e-07
1.0494276e-07
4.9504391e-08
2.2765334e-08
1.0359188e-08
5.064155e-09
1.9330424e-09
6.7113963e-10
7.1782653e-12
3.0966806e-10
1.8118426e-10
1.2307606e-10
-4.7331815e-10
1.2636629e-11
-4.8977742e-10
4.3401384e-12
-4.9724241e-10
1.2167968e-12
4.9716252e-13
2.8123935e-13
12.105606
8.2298311
5.5326276
3.6770924
2.415301
1.5674528
1.0047193
0.63591928
0.39733465
0.24502474
0.14909982
0.089513133
0.053013066
0.03096894
0.017844142
0.010141182
0.0056849018
0.0031436779
0.0017151203
0.0009233727
0.00049067287
0.00025743704
0.00013340374
6.830652e-05
3.4574304e-05
1.7309012e-05
8.575328e-06
4.2070836e-06
2.0451542e-06
9.8574018e-07
4.7103155e-07
2.2352077e-07
1.057143e-07
4.9111187e-08
2.3299196e-08
1.0824671e-08
4.5145862e-09
1.9090499e-09
5.6300541e-10
7.3111333e-11
2.3277931e-10
1.9048974e-10
-4.4847424e-10
-3.999909e-10
8.5931482e-11
-4.9226224e-10
-4.9406144e-10
1.1700947e-12
-4.9844132e-10
-9.9620409e-10
1.4680927e-10
13.316571
9.0438034
6.0727582
4.0308154
2.643822
1.7130353
1.0961388
0.69248411
0.43180694
0.26570961
0.16131625
0.096612183
0.057070794
0.033249602
0.019104245
0.010825401
0.0060499114
0.0033349301
0.0018135152
0.00097305999
0.00051529101
0.00026939785
0.00013909928
7.0961707e-05
3.5784393e-05
1.7847355e-05
8.8084759e-06
4.3051301e-06
2.0847398e-06
1.0010768e-06
4.7696689e-07
2.253154e-07
1.0612888e-07
4.922234e-08
2.2621771e-08
1.0832109e-08
4.9633121e-09
2.3640943e-09
5.5467662e-10
7.6634117e-13
-2.0501738e-10
-3.2173726e-10
4.5995987e-11
-3.9992612e-10
8.5963872e-11
-4.942814e-10
-4.9405429e-10
9.4027864e-13
1.4751454e-10
-1.045148e-14
-2.0243859e-15
14.51203
9.8472572
6.6056922
4.3795822
2.8689168
1.8562485
1.1859255
0.7479313
0.46552163
0.28588719
0.1731978
0.10349362
0.060989481
0.035442984
0.020310556
0.01147708
0.006395606
0.0035149325
0.0019054804
0.0010191414
0.0005379242
0.00028028681
0.00014422463
7.3320246e-05
3.6843678e-05
1.8310003e-05
9.003917e-06
4.3842326e-06
2.1156863e-06
1.0122334e-06
4.801616e-07
2.2610459e-07
1.0627559e-07
4.9052057e-08
2.2989361e-08
1.0198563e-08
4.9882908e-09
1.7515127e-09
6.0358207e-10
5.5531841e-10
2.9705765e-10
-3.2053552e-10
-3.8401559e-10
-4.7312305e-10
-4.1037825e-10
8.6783937e-12
-4.9404676e-10
1.1766858e-12
-2.9377134e-14
-9.9682821e-10
1.5438292e-13
15.665968
10.623021
7.1202336
4.7161845
3.0860049
1.9942212
1.2723044
0.80117935
0.49782955
0.30517378
0.18452125
0.11002971
0.064697269
0.03750936
0.021441503
0.01208472
0.0067159713
0.0036806029
0.0019894679
0.0010608564
0.00055820671
0.00028993118
0.00014870389
7.5347321e-05
3.773478e-05
1.8689023e-05
9.1590074e-06
4.4448789e-06
2.1373298e-06
1.0191447e-06
4.8164996e-07
2.2660621e-07
1.0526297e-07
4.9275249e-08
2.2225902e-08
1.0544908e-08
4.8868784e-09
2.1976859e-09
5.875819e-10
4.650208e-10
2.8948043e-10
1.7315405e-10
-4.4806974e-10
-4.7305488e-10
1.5266071e-11
8.1958181e-11
-3.4751166e-10
-4.9746225e-10
9.8924053e-13
-9.9620258e-10
-9.9682007e-10
16.75292
11.354304
7.6054547
5.0336036
3.2906397
2.1241757
1.3535656
0.85119149
0.52811182
0.32320589
0.19507665
0.11610126
0.068127669
0.039412327
0.022477529
0.012638024
0.0070056951
0.0038292572
0.0020641542
0.0010975652
0.00057583859
0.00029819376
0.00015247368
7.7016566e-05
3.8448429e-05
1.8981833e-05
9.2728566e-06
4.4854052e-06
2.1496794e-06
1.0210539e-06
4.8132102e-07
2.2524819e-07
1.0503352e-07
4.8668427e-08
2.1907551e-08
9.9010001e-09
4.2149755e-09
1.7426561e-09
4.985106e-10
4.4806098e-10
-2.8160134e-10
-3.9322626e-10
1.2374571e-10
-4.729852e-10
-4.1234657e-10
6.2090202e-12
-4.9403244e-10
-4.9620873e-10
1.4650129e-10
1.4714406e-10
1.4668251e-10
17.749195
12.025496
8.0512061
5.3253324
3.4787086
2.2435509
1.4281389
0.89701997
0.55580579
0.33965512
0.2046757
0.12160224
0.071222113
0.041120158
0.0234018
0.013128245
0.0072603371
0.0039586956
0.0021284739
0.0011287704
0.00059059244
0.00030497557
0.00015549282
7.8311212e-05
3.8979024e-05
1.9185469e-05
9.3431899e-06
4.5056966e-06
2.1529427e-06
1.019971e-06
4.7913592e-07
2.2394787e-07
1.0390409e-07
4.7522145e-08
2.2077478e-08
9.6854991e-09
4.7074694e-09
2.1815888e-09
1.0464007e-09
4.4116396e-10
-2.9913063e-10
9.6410684e-11
-4.4778275e-10
-4.769851e-10
-4.8104216e-10
-4.1845465e-10
-4.940251e-10
1.1861015e-12
-4.9843454e-10
-8.5683308e-15
-1.6477559e-15
18.63397
12.62287
8.448567
5.5856578
3.6466079
2.3501095
1.4946572
0.93784375
0.58042688
0.35424064
0.21315867
0.1264436
0.073931956
0.042606854
0.024200735
0.01354846
0.0074764586
0.0040672576
0.0021816531
0.0011541208
0.00060231845
0.00031021523
0.00015773923
7.9224735e-05
3.932318e-05
1.9300193e-05
9.3727088e-06
4.5061937e-06
2.1466639e-06
1.0137899e-06
4.7508376e-07
2.2142401e-07
1.0251559e-07
4.7191953e-08
2.1645676e-08
9.9706669e-09
4.0907748e-09
1.5507934e-09
1.0108835e-09
4.32451e-10
2.7316992e-10
8.7643782e-11
1.2403646e-10
1.6491669e-11
-4.9007986e-10
8.7405377e-12
-4.9401832e-10
-4.9721981e-10
-4.9741592e-10
6.1701383e-13
-1.5771378e-15
19.390164
13.135146
8.7902043
5.8098859
3.7913816
2.4420208
1.5520068
0.97299746
0.6015851
0.36673836
0.22039949
0.13055593
0.076219875
0.04385284
0.024864337
0.013893718
0.0076516884
0.0041538509
0.0022232126
0.0011734215
0.00061094279
0.00031388995
0.00015920804
7.9757219e-05
3.9484219e-05
1.932763e-05
9.3613007e-06
4.4890353e-06
2.1328698e-06
1.0049319e-06
4.6937005e-07
2.1774234e-07
1.0022145e-07
4.6278818e-08
2.0663996e-08
9.7193439e-09
4.4553765e-09
1.992229e-09
4.8078652e-10
4.9703742e-10
-3.0786844e-10
1.6121357e-10
-3.8829976e-10
-4.8184852e-10
-4.9004822e-10
8.7552262e-12
-3.4748342e-10
9.5911014e-13
-4.9718168e-10
-4.9790819e-10
-1.4829803e-15
20.005042
13.55389
9.0706199
5.9944954
3.9108145
2.5179174
1.59936
1.0019903
0.61899557
0.3769867
0.2263087
0.133891
0.078060607
0.044845295
0.025386344
0.014161091
0.0077847335
0.0042179515
0.0022529668
0.0011866224
0.00061646639
0.00031601308
0.00015991284
7.9920512e-05
3.9469644e-05
1.9273452e-05
9.3115006e-06
4.4536202e-06
2.1104035e-06
9.9204942e-07
4.6262558e-07
2.1431861e-07
9.87313e-08
4.5304033e-08
2.0687667e-08
8.8616763e-09
4.3221761e-09
1.4903237e-09
4.5544819e-10
-9.1432026e-11
-3.1536506e-10
-3.4189325e-10
-4.6141985e-10
-4.858503e-10
-4.9001658e-10
-4.1887605e-10
-4.9650558e-10
1.1949523e-12
2.245866e-12
1.1264639e-12
5.6551527e-13
20.470527
13.873713
9.2862805
6.1372161
4.0034795
2.5769223
1.6361904
1.0245141
0.63248291
0.3848887
0.23083445
0.13642213
0.079441039
0.045578162
0.025764183
0.014349637
0.0078753524
0.0042595787
0.0022710057
0.0011938146
0.00061895633
0.00031662939
0.00015988241
7.9729925e-05
3.9286575e-05
1.9139961e-05
9.2259117e-06
4.4023543e-06
2.081824e-06
9.7557827e-07
4.5427328e-07
2.1001369e-07
9.601617e-08
4.4086215e-08
1.9660903e-08
8.6702269e-09
3.6910277e-09
1.8951508e-09
9.2856342e-10
-5.3094051e-11
1.8368583e-10
-4.189236e-10
-3.9208272e-10
7.6238299e-12
8.4234153e-12
-4.1636149e-10
-1.2466451e-13
-4.9846166e-10
-3.4963428e-10
5.0168208e-13
-1.3182047e-15
20.783229
14.092309
9.4356342
6.237034
4.0687384
2.6186478
1.6622716
1.0404424
0.6419798
0.39041087
0.23396158
0.13814352
0.080359759
0.046051805
0.025998761
0.014460259
0.0079242638
0.0042792426
0.0022776673
0.00119521
0.00061854239
0.00031581496
0.00015915734
7.9207674e-05
3.8948769e-05
1.8935956e-05
9.1080742e-06
4.3373387e-06
2.0459444e-06
9.5689217e-07
4.4407762e-07
2.049534e-07
9.4016595e-08
4.2467231e-08
1.9541044e-08
8.4264753e-09
4.0570199e-09
1.8656254e-09
3.8860397e-10
-4.9876304e-11
-2.5896449e-10
-4.1455687e-10
-4.6113927e-10
8.595347e-11
-4.8995595e-10
8.7972205e-12
-4.9852794e-10
1.9846013e-12
1.4775858e-10
-4.977905e-10
2.5306551e-13
20.944265
14.210307
9.5190389
6.2941354
4.1067031
2.6431715
1.6776617
1.0498198
0.64752068
0.39357915
0.23570913
0.1390687
0.080826099
0.046272481
0.026094141
0.014495527
0.0079330515
0.0042778947
0.0022735076
0.0011911255
0.00061539937
0.00031366428
0.00015778895
7.8381378e-05
3.8469752e-05
1.8666994e-05
8.960496e-06
4.2582905e-06
2.005398e-06
9.364881e-07
4.334947e-07
1.9925422e-07
9.1428541e-08
4.1704676e-08
1.8948474e-08
8.6055006e-09
3.462667e-09
1.3370298e-09
8.7173831e-10
-7.6677461e-11
1.5866972e-10
1.3926718e-10
4.2406705e-11
-4.1239313e-10
-4.1666354e-10
-4.1633474e-10
-1.1298898e-13
-4.7455371e-14
1.4650929e-10
1.1275938e-12
-1.1887382e-15
20.959309
14.230693
9.5385038
6.309783
4.1181635
2.6509909
1.6826754
1.0528457
0.64923141
0.39447274
0.2361266
0.13922834
0.080858855
0.04625156
0.026057109
0.014459429
0.0079040214
0.004256845
0.0022592597
0.0011819644
0.00060974483
0.000310293
0.00015583874
7.7282603e-05
3.7864706e-05
1.8341222e-05
8.7884877e-06
4.1689916e-06
1.9598702e-06
9.1294494e-07
4.2196126e-07
1.9413797e-07
8.8135364e-08
4.0301834e-08
1.8297202e-08
8.2332315e-09
3.792641e-09
1.6594127e-09
2.4848373e-10
-1.0163406e-10
1.5928363e-10
1.3955115e-10
3.8468951e-11
8.1074984e-11
-4.8989964e-10
-4.2289234e-10
1.464206e-10
2.4555324e-12
-4.961592e-10
-4.9841505e-10
-1.1181201e-15
14.159311
9.4973751
6.2861108
4.1044796
2.6429633
1.6778483
1.0498521
0.64731627
0.39321628
0.23528934
0.13866757
0.080484752
0.04600468
0.025896702
0.014357115
0.0078400632
0.0042176935
0.0022357935
0.0011681923
0.00060182706
0.00030583014
0.00015337097
7.5942352e-05
3.715012e-05
1.7966227e-05
8.5946797e-06
4.0703163e-06
1.9102645e-06
8.8837059e-07
4.100186e-07
1.8779705e-07
8.5920037e-08
3.8974808e-08
1.7147525e-08
7.9876028e-09
3.0887754e-09
1.2040133e-09
7.2154698e-10
4.0620906e-10
-2.7526596e-10
1.3982722e-10
-3.9155092e-10
8.1132985e-11
-4.8987328e-10
7.302801e-11
-4.9397614e-10
-4.9595132e-10
1.4877879e-10
-4.9728096e-10
1.4652687e-10
14.000966
9.3998131
6.2259623
4.0674833
2.6202419
1.6638968
1.0412793
0.64204322
0.38997116
0.23329355
0.13744305
0.07973679
0.04555082
0.025623687
0.014194612
0.0077445047
0.0041622494
0.0022040811
0.0011503212
0.00059190955
0.00030041037
0.0001504545
7.4396688e-05
3.6342945e-05
1.7550347e-05
8.3833578e-06
3.9649343e-06
1.8572506e-06
8.6261464e-07
3.9753663e-07
1.8182358e-07
8.3065246e-08
3.7649034e-08
1.7072515e-08
7.1369342e-09
3.4918416e-09
1.6357876e-09
7.7940963e-10
3.1606587e-10
2.2372316e-10
6.6829533e-11
3.3716259e-11
-4.0814992e-10
-4.1658407e-10
7.7574542e-11
-4.9600565e-10
-4.0581874e-14
-4.9842503e-10
5.0332983e-13
-1.0121929e-15
13.7666
9.2516397
6.1328849
4.0093933
2.5842107
1.6416762
1.0276503
0.63372858
0.38492654
0.230251
0.13562006
0.078652583
0.044911377
0.025250075
0.013978567
0.0076209732
0.0040924598
0.002165151
0.0011288893
0.00058026848
0.00029417366
0.00014715833
7.2678173e-05
3.5458578e-05
1.7100979e-05
8.1582289e-06
3.8532722e-06
1.8030477e-06
8.3605975e-07
3.8517702e-07
1.7567282e-07
8.0139233e-08
3.6250784e-08
1.5903353e-08
7.4255626e-09
2.8401837e-09
1.49576e-09
6.5438714e-10
3.7241144e-10
1.3287831e-10
1.3221084e-10
-4.003826e-10
-4.1216583e-10
-4.1655997e-10
7.5085018e-11
-3.4993904e-10
-3.8792882e-14
1.0021401e-12
-5.0374253e-15
-9.533445e-16
13.465721
9.0591279
6.0108349
3.9326896
2.5364132
1.6121381
1.0095454
0.62272194
0.37829051
0.22628402
0.13326955
0.077272758
0.044109289
0.024788634
0.013715984
0.0074732538
0.0040103435
0.0021200633
0.0011044435
0.00056718327
0.00028726034
0.00014355117
7.0820479e-05
3.4514025e-05
1.6625791e-05
7.9223999e-06
3.7373351e-06
1.7461752e-06
8.0954453e-07
3.7173042e-07
1.6964629e-07
7.7213502e-08
3.4924141e-08
1.5222302e-08
6.5740714e-09
3.189481e-09
1.4288336e-09
7.2209339e-10
3.0032633e-10
1.3341614e-10
6.7330451e-11
9.8138376e-11
-4.9038078e-10
-4.1653718e-10
-4.986125e-10
-3.4993452e-10
-4.939107e-10
-4.9740622e-10
-4.9841392e-10
3.1167296e-13
13.108172
8.8287847
5.8639748
3.8399955
2.4784842
1.5762896
0.98757758
0.60939199
0.3702819
0.22152075
0.13046555
0.075639484
0.043168236
0.024252466
0.013414008
0.007305182
0.0039179287
0.0020698738
0.0010775248
0.00055292796
0.00027980427
0.00013970119
6.8856487e-05
3.3523322e-05
1.6132548e-05
7.6790403e-06
3.6183197e-06
1.6895168e-06
7.8211517e-07
3.5889709e-07
1.6396184e-07
7.400445e-08
3.3595631e-08
1.4605914e-08
6.8082885e-09
3.0725695e-09
1.434989e-09
1.8988967e-10
-2.2323072e-10
1.4206939e-10
-3.5758043e-10
-4.6935968e-10
1.2145737e-11
8.1893589e-11
7.3070192e-11
-8.3800158e-14
-3.5026583e-14
-4.9740552e-10
-4.9790503e-10
3.1172004e-13
12.703977
8.5671749
5.6965213
3.7339782
2.4120888
1.5351573
0.96237162
0.59411381
0.36112288
0.21609098
0.1272828
0.073795179
0.042111935
0.023654635
0.013079724
0.0071205451
0.0038172061
0.0020156122
0.0010486589
0.00053776379
0.00027193709
0.00013566948
6.6814863e-05
3.2502504e-05
1.5627365e-05
7.4320795e-06
3.4991138e-06
1.6320786e-06
7.5475551e-07
3.4601541e-07
1.5798305e-07
7.1217445e-08
3.1911892e-08
1.454275e-08
6.0618839e-09
3.0159712e-09
9.055505e-10
9.0868564e-11
-1.5888534e-10
1.8954516e-10
-4.3876058e-10
1.0241397e-10
8.1385703e-11
-4.1649519e-10
-1.8473698e-13
-4.9395363e-10
-3.5191451e-10
-1.2993732e-14
-4.9778829e-10
-8.2387796e-16
12.263002
8.2807403
5.5126197
3.6172668
2.3388716
1.4897557
0.934545
0.57725802
0.35103273
0.21012257
0.12379476
0.07178141
0.040963551
0.023007855
0.012719998
0.0069229896
0.0037100852
0.0019582623
0.0010183436
0.0005219397
0.00026377994
0.00013151606
6.4725205e-05
3.1462829e-05
1.5116488e-05
7.1838651e-06
3.3794049e-06
1.5745657e-06
7.2738076e-07
3.3330123e-07
1.5214676e-07
6.8848762e-08
3.1075824e-08
1.3444755e-08
5.7797488e-09
2.7886703e-09
1.2631645e-09
1.2199164e-10
-2.4925941e-10
1.8187265e-10
1.231205e-10
-3.9996944e-10
8.6429907e-11
-4.8974014e-10
2.3241827e-12
1.50987e-10
-4.9640625e-10
-1.2428788e-14
-4.9790461e-10
3.1180243e-13
11.794674
7.9756415
5.3162428
3.4923868
2.2604151
1.4410626
0.90469305
0.55918185
0.34022269
0.20373854
0.12007198
0.069638011
0.039745223
0.022324228
0.012341347
0.0067159675
0.0035983603
0.0018987434
0.00098704257
0.00050568653
0.00025544529
0.00012729461
6.2612533e-05
3.041776e-05
1.4605296e-05
6.9356426e-06
3.2606216e-06
1.5187633e-06
7.0132072e-07
3.2103004e-07
1.4590981e-07
6.5726716e-08
2.9343494e-08
1.3430467e-08
5.5122245e-09
2.7437038e-09
1.284945e-09
5.9442743e-10
3.2339329e-10
1.9045283e-10
5.0055769e-11
-4.6407311e-10
9.0539404e-11
-4.8972206e-10
-4.9404224e-10
-7.2689576e-14
-4.9640484e-10
1.4776644e-10
-4.9841309e-10
-9.9681897e-10
11.307777
7.6576348
5.1111114
3.3617091
2.1782081
1.389999
0.87337715
0.54022232
0.32889194
0.1970548
0.11618085
0.067402401
0.038477699
0.021615077
0.01194984
0.0065026828
0.0034836971
0.0018379069
0.0009551811
0.00048921404
0.00024703571
0.00012305306
6.0498612e-05
2.9376382e-05
1.4097755e-05
6.6915584e-06
3.1435656e-06
1.4634487e-06
6.7542757e-07
3.093693e-07
1.4083048e-07
6.370616e-08
2.8259256e-08
1.2920081e-08
5.2606461e-09
2.6287067e-09
7.3854578e-10
-1.4670743e-12
2.3291528e-10
1.9087014e-10
5.0243331e-11
-4.730594e-10
1.7313098e-11
-4.1644114e-10
7.3103148e-11
4.4659328e-12
-2.9000504e-14
1.239018e-12
-4.9790426e-10
1.4652723e-10
10.810314
7.3319847
4.9006391
3.2274145
2.093623
1.3374155
0.84111626
0.52069114
0.31722476
0.19017854
0.11218271
0.0651091
0.037180086
0.020890795
0.011551042
0.0062860598
0.0033676046
0.0017765168
0.00092314446
0.00047270972
0.00023864039
0.00011883509
5.8404835e-05
2.834938e-05
1.3599346e-05
6.4521511e-06
3.0301279e-06
1.4096567e-06
6.5025809e-07
2.9714102e-07
1.3537873e-07
6.0717901e-08
2.7628071e-08
1.2369765e-08
5.6396819e-09
2.0673492e-09
1.0954547e-09
5.5401037e-10
-2.01359e-10
-4.1669273e-10
-3.7472555e-10
2.5428807e-11
-4.0779683e-10
8.719823e-12
-4.25299e-10
-3.4944693e-10
-2.7588142e-14
1.2395359e-12
-4.9841274e-10
-6.8264174e-16
10.30943
7.0034098
4.6878959
3.0914704
2.0079008
1.2840827
0.8083813
0.5008714
0.30538856
0.1832071
0.1081332
0.062789396
0.03586967
0.020160775
0.011149963
0.0060687267
0.0032514421
0.0017152633
0.0008912724
0.00045634112
0.00023034167
0.00011467972
5.6348365e-05
2.7343095e-05
1.3112626e-05
6.2186015e-06
2.9196496e-06
1.3578963e-06
6.2566775e-07
2.865609e-07
1.3026888e-07
5.8436963e-08
2.5994468e-08
1.1408245e-08
5.4021996e-09
1.9313174e-09
1.136521e-09
6.743572e-11
-2.6379863e-10
1.0022603e-10
-4.4782456e-10
-3.9464125e-10
-4.1276496e-10
8.1998292e-11
-4.2529241e-10
-4.9597204e-10
2.4741756e-12
1.4753488e-10
-4.9841258e-10
-6.4733268e-16
9.8113758
6.6760578
4.4755911
2.9556185
1.9221437
1.2306865
0.77559209
0.48101577
0.29353282
0.17622743
0.10408204
0.060471192
0.034561844
0.019433354
0.010751044
0.0058530051
0.0031363965
0.0016547437
0.00085986263
0.00044025405
0.00022220691
0.00011061693
5.4344597e-05
2.6365448e-05
1.2640466e-05
5.9936166e-06
2.8131581e-06
1.3078111e-06
6.0284994e-07
2.7540666e-07
1.2485535e-07
5.6282317e-08
2.4960015e-08
1.1421146e-08
5.1873305e-09
1.8510505e-09
1.0678004e-09
-3.2250893e-11
-2.9931066e-10
-3.9783847e-10
-3.7440636e-10
-4.6783611e-10
1.3343143e-11
-4.1639708e-10
-4.9855045e-10
-6.091989e-14
-2.5375441e-14
-9.9336143e-15
-4.972786e-10
-6.2379331e-16
9.3215103
6.3535029
4.2660699
2.8213725
1.8373123
1.1778263
0.74311626
0.46134583
0.28178874
0.16931585
0.10007281
0.058178952
0.033270092
0.018715829
0.010358157
0.0056409139
0.003023503
0.0015954802
0.00082917143
0.0004245709
0.00021429552
0.00010667581
5.2404808e-05
2.5421677e-05
1.2186464e-05
5.7771575e-06
2.7111643e-06
1.2602142e-06
5.8038759e-07
2.6521701e-07
1.2077963e-07
5.4084101e-08
2.4072965e-08
1.0454811e-08
4.9306257e-09
1.7665356e-09
9.9813925e-10
4.514919e-10
-2.2532695e-10
-4.0565522e-10
-3.7426286e-10
-3.9950901e-10
8.6635735e-11
-4.8964833e-10
7.3128193e-11
-4.9596695e-10
-2.4386788e-14
1.4776874e-10
1.4703341e-10
-5.943691e-16
8.8443296
6.0387621
4.0613223
2.6900227
1.7542286
1.1260166
0.71127007
0.44205247
0.27026948
0.16253818
0.096143127
0.05593376
0.03200601
0.018014459
0.0099746182
0.0054341771
0.002913641
0.0015379089
0.00079941471
0.00040939399
0.00020665608
0.00010287883
5.0540042e-05
2.4516747e-05
1.1752444e-05
5.5708235e-06
2.6133999e-06
1.214865e-06
5.5983128e-07
2.560885e-07
1.1632608e-07
5.2517514e-08
2.3213936e-08
1.0089578e-08
4.8067809e-09
2.1266564e-09
9.4894842e-10
4.3298996e-10
2.0048898e-10
-3.4209474e-10
1.0613902e-10
8.9889152e-11
-4.0767744e-10
-4.8963656e-10
-4.2527584e-10
-4.9393019e-10
-4.9843261e-10
-4.9716793e-10
-4.9841215e-10
2.5375404e-13
8.3835167
5.7343248
3.8630005
2.5626459