/*--------------------------------*- C++ -*----------------------------------*\
| =========                 |                                                 |
| \\      /  F ield         | OpenFOAM: The Open Source CFD Toolbox           |
|  \\    /   O peration     | Version:  2312                                  |
|   \\  /    A nd           | Website:  www.openfoam.com                      |
|    \\/     M anipulation  |                                                 |
\*---------------------------------------------------------------------------*/
FoamFile
{
    version     2.0;
    format      ascii;
    arch        "LSB;label=32;scalar=64";
    class       volScalarField;
    location    "0.02";
    object      T;
}
// * * * * * * * * * * * * * * * * * * * * * * * * * * * * * * * * * * * * * //

dimensions      [0 0 0 1 0 0 0];

internalField   nonuniform List<scalar> 
3257
(
518.32449
515.01654
511.59291
508.05336
504.39804
500.62762
496.74338
492.74721
488.64159
484.42966
480.11515
475.7024
471.19637
466.60255
461.92701
457.17629
452.35744
447.47788
442.54545
437.56826
432.55471
427.51336
422.45291
417.38212
412.30974
407.24445
402.19479
397.16912
392.17553
387.22181
382.31541
377.46337
372.67231
367.94839
363.2973
358.72421
354.23382
349.83028
345.51726
341.29793
337.17495
333.15052
329.22638
325.40383
321.68378
318.06673
314.55285
311.14194
307.83352
304.62684
301.52087
519.07075
515.74357
512.30032
508.74078
505.06509
501.27398
497.36873
493.35129
489.2242
484.99061
480.65434
476.21976
471.69189
467.07628
462.37904
457.60679
452.76662
447.86601
442.91284
437.91529
432.88178
427.82094
422.74151
417.65227
412.56201
407.47945
402.41314
397.37145
392.36251
387.39411
382.47369
377.60832
372.80459
368.06868
363.40625
358.82247
354.32202
349.90903
345.58716
341.35954
337.22883
333.19719
329.26634
325.43756
321.71173
318.08934
314.5705
311.15503
307.84242
304.6319
301.52244
520.47957
517.11619
513.63591
510.03857
506.32436
502.49406
498.54907
494.49139
490.32364
486.04909
481.67164
477.19577
472.62659
467.96977
463.23152
458.41856
453.53809
448.59769
443.60535
438.56934
433.49816
428.40053
423.28525
418.1612
413.03721
407.92206
402.82434
397.75247
392.71458
387.71849
382.77167
377.88117
373.05359
368.29508
363.6113
359.00739
354.48799
350.05722
345.71868
341.47548
337.33021
333.28501
329.34155
325.50107
321.76438
318.13193
314.60381
311.17978
307.85929
304.64153
301.52547
522.47102
519.05636
515.52362
511.87269
508.10388
504.21805
500.21672
496.10199
491.87663
487.54404
483.10824
478.57388
473.9462
469.23102
464.43472
459.56415
454.62666
449.62999
444.58225
439.49185
434.36742
429.21779
424.05188
418.87866
413.70704
408.54586
403.40381
398.28933
393.2106
388.17547
383.19141
378.26547
373.40425
368.61389
363.90002
359.26774
354.72165
350.26582
345.90381
341.63866
337.47291
333.40863
329.44742
325.59046
321.8385
318.19193
314.65076
311.21468
307.88311
304.65518
301.52978
524.96985
521.49057
517.89171
514.17326
510.33563
506.37984
502.30752
498.12094
493.82303
489.41735
484.90811
480.30014
475.59887
470.81031
465.94101
460.99804
455.98891
450.92156
445.80426
440.64559
435.45435
430.23951
425.01011
419.77524
414.54393
409.32512
404.12754
398.95972
393.82988
388.74589
383.71525
378.74499
373.84174
369.01157
364.26009
359.59238
355.01296
350.52585
346.13455
341.84201
337.65071
333.56264
329.57931
325.70182
321.93085
318.26668
314.70926
311.25821
307.91284
304.67222
301.53517
527.90559
524.34992
520.67293
516.87469
512.95576
508.91731
504.76115
500.48974
496.1062
491.61429
487.01843
482.32366
477.53565
472.66062
467.70536
462.67714
457.58372
452.43322
447.23414
441.99524
436.72551
431.43408
426.13015
420.82296
415.52165
410.23526
404.97262
399.74232
394.55262
389.41145
384.32629
379.30422
374.35179
369.47511
364.6797
359.97059
355.35227
350.82866
346.40318
342.07871
337.85763
333.74183
329.73274
325.83135
322.03824
318.3536
314.77729
311.30882
307.94742
304.69205
301.54144
531.21256
527.5702
523.80454
519.91579
515.90465
511.77249
507.52131
503.15378
498.67324
494.08369
489.38979
484.59684
479.71074
474.73799
469.68561
464.56114
459.37258
454.12829
448.83699
443.50768
438.14953
432.77187
427.38409
421.99555
416.61554
411.25322
405.9175
400.61706
395.36021
390.1549
385.00864
379.9285
374.92102
369.99224
365.14768
360.39229
355.73046
351.16606
346.70241
342.34228
338.08797
333.94124
329.90343
325.97542
322.15766
318.45024
314.85291
311.36507
307.98583
304.71407
301.54841
534.82988
531.09187
527.22842
523.23985
519.12707
514.89164
510.53578
506.0624
501.4751
496.77814
491.97644
487.07557
482.08172
477.00166
471.84271
466.61267
461.3198
455.97275
450.58048
445.15222
439.69736
434.22545
428.74603
423.26867
417.80277
412.35763
406.94225
401.56539
396.2354
390.96029
385.74756
380.60428
375.53697
370.55163
365.65371
360.84808
356.13909
351.53048
347.02547
342.62675
338.33647
334.1563
330.08745
326.13067
322.2863
318.55431
314.93431
311.4256
308.02716
304.73776
301.5559
538.70137
534.86001
530.89092
526.79457
522.57207
518.22521
513.75645
509.16898
504.46664
499.65399
494.73624
489.71927
484.60956
479.41418
474.14076
468.7974
463.39264
457.93542
452.43495
446.90072
441.34237
435.76964
430.19229
424.62003
419.06245
413.52894
408.02862
402.57031
397.16244
391.81302
386.52959
381.31918
376.1883
371.14289
366.18833
361.32944
356.57044
351.91499
347.3662
342.92663
338.59833
334.38282
330.28118
326.29404
322.42161
318.66371
315.01985
311.48917
308.07055
304.76262
301.56376
542.77546
538.82422
534.74287
530.53202
526.193
521.72786
517.13932
512.43084
507.60657
502.67136
497.63075
492.49092
487.25867
481.94142
476.54709
471.0841
465.5613
459.98792
454.37345
448.72765
443.0604
437.38165
431.70138
426.02947
420.37565
414.74945
409.1601
403.61648
398.12708
392.69993
387.34258
382.06204
376.86478
371.75669
366.74308
361.82866
357.01758
352.31339
347.71906
343.23703
338.86922
334.61703
330.48138
326.46278
322.56128
318.77659
315.10804
311.55468
308.11523
304.78819
301.57184
547.00509
542.93854
538.73943
534.40851
529.94737
525.35831
520.64434
515.80922
510.85741
505.79408
500.6251
495.35698
489.99687
484.5525
479.03215
473.44457
467.79891
462.10469
456.37173
450.61003
444.82972
439.041
433.25403
427.47888
421.72544
416.00336
410.32196
404.6902
399.11663
393.60928
388.17571
382.82292
377.55731
372.38472
367.31039
362.33893
357.47437
352.72015
348.07913
343.5536
339.14534
334.85561
330.68521
326.63446
322.7033
318.89128
315.1976
311.62115
308.16053
304.81411
301.58001
551.34749
547.16124
542.83992
538.38446
533.79671
529.07923
524.23536
519.26914
514.18537
508.98956
503.68792
498.2873
492.79522
487.21975
481.5695
475.85357
470.08143
464.26292
458.40814
452.52738
446.63101
440.72947
434.83313
428.95223
423.09681
417.27664
411.50115
405.77937
400.11987
394.53072
389.01947
383.59307
378.25789
373.01971
367.88365
362.85425
357.93542
353.13047
348.44212
343.87254
339.42336
335.09568
330.89016
326.80697
322.84591
319.00636
315.28739
311.68774
308.20587
304.84002
301.58818
555.76408
551.4547
547.00772
542.42427
537.70644
532.85711
527.87992
522.77924
517.5602
512.22867
506.7912
501.25501
495.62798
489.91853
484.13563
478.2887
472.38758
466.4424
460.46356
454.46163
448.44724
442.43105
436.42364
430.43542
424.47659
418.55703
412.68627
406.8734
401.12703
395.45524
389.86555
384.3649
378.9596
373.65533
368.45715
363.36947
358.39609
353.54018
348.80434
344.19059
339.70041
335.33475
331.09411
326.97851
322.9876
319.12061
315.37645
311.75373
308.25077
304.86564
301.59624
560.22024
555.78519
551.21003
546.49607
541.64568
536.66204
531.54911
526.31161
520.95502
515.48554
509.9101
504.23631
498.47237
492.62709
486.7098
480.73027
474.69865
468.62541
462.52124
456.39697
450.26352
444.13175
438.01245
431.91621
425.85337
419.83392
413.86747
407.96318
402.12968
396.37507
390.70685
385.1319
379.65648
374.28619
369.02599
363.88017
358.85241
353.94577
349.16267
344.505
339.97408
335.57073
331.29526
327.14756
323.12711
319.233
315.46398
311.81852
308.29479
304.89075
301.60412
564.68513
560.12271
555.41771
550.57159
545.58704
540.46754
535.21739
529.84163
524.34612
518.73742
513.02283
507.21031
501.30846
495.32645
489.27395
483.1611
476.99837
470.79656
464.56664
458.31974
452.06701
445.81954
439.58832
433.3841
427.21735
421.0982
415.03632
409.04092
403.12066
397.28364
391.53733
385.88856
380.34353
374.90775
369.58606
364.38266
359.30109
354.34427
349.51448
344.81346
340.24237
335.80187
331.49212
327.31286
323.2634
319.34269
315.54932
311.88162
308.33763
304.91514
301.61177
569.13146
564.44076
559.60504
554.62594
549.50645
544.25037
538.86233
533.34775
527.71281
521.96446
516.11036
510.15887
504.11895
498.00012
491.81244
485.56637
479.27273
472.94262
466.58733
460.21823
453.84673
447.48415
441.14165
434.83015
428.56026
422.3422
416.18572
410.10008
404.09395
398.17543
392.35194
386.63029
381.01657
375.51621
370.13396
364.87389
359.7394
354.73326
349.85764
345.11409
340.50363
336.02676
331.6835
327.4734
323.39564
319.449
315.63195
311.94265
308.37899
304.93866
301.61913
573.53532
568.71613
563.74954
558.63737
553.38291
547.99029
542.46448
536.81125
531.03715
525.14949
519.15633
513.06638
506.88897
500.63401
494.3119
487.93344
481.5098
475.05238
468.57275
462.08256
455.59344
449.11694
442.6644
436.2469
429.87518
423.55953
417.30979
411.13524
405.04459
399.04589
393.14656
387.35332
381.6722
376.10853
370.66694
365.35138
360.16513
355.1108
350.19042
345.40539
340.75656
336.24429
331.86843
327.62838
323.52316
319.55142
315.71145
312.00128
308.41869
304.9612
301.62617
577.87589
572.92868
567.83173
562.58708
557.1983
551.66987
546.00709
540.21609
534.30379
528.27788
522.14676
515.91954
509.60592
503.21617
496.76104
490.25168
483.69957
477.11641
470.51408
463.90447
457.29945
450.71077
444.14995
437.62822
431.15642
424.74496
418.40371
412.14201
405.96855
399.89137
393.91785
388.05464
382.3077
376.68225
371.1828
365.81319
360.57655
355.47537
350.51149
345.68619
341.00016
336.4536
332.04619
327.7772
323.64548
319.64953
315.78751
312.05731
308.45656
304.98266
301.63286
582.13531
577.06111
571.83492
566.45897
560.93715
555.27425
549.47593
543.54867
537.49975
531.33723
525.0699
518.70721
512.25925
505.73663
499.15046
492.51223
485.83373
479.12697
472.40408
465.67722
458.95848
452.25982
445.59291
438.96913
432.39943
425.8943
419.46367
413.11688
406.86265
400.70899
394.66321
388.73192
382.92096
377.23548
371.67987
366.25783
360.97236
355.8258
350.81985
345.95563
341.23368
336.65404
332.21624
327.9194
323.76222
319.74306
315.85992
312.11057
308.49251
305.003
301.63918
586.29837
581.09875
575.74499
570.23949
564.58644
558.79097
552.85909
546.79762
540.61421
534.31729
527.916
521.42018
514.84025
508.18721
501.47249
494.70791
487.90557
481.07777
474.23691
467.39539
460.56554
453.75946
446.98903
440.26573
433.60063
427.00429
420.48668
414.05717
407.72446
401.49654
395.38067
389.38337
383.51042
377.76684
372.15692
366.68422
361.3516
356.16127
351.11478
346.2131
341.45661
336.84519
332.37824
328.05471
323.87317
319.83182
315.92855
312.16097
308.52646
305.02218
301.64512
590.35235
585.02936
579.55017
573.91733
568.13536
562.20971
556.14673
549.95359
543.63831
537.20965
530.67715
524.05098
517.34193
510.56134
503.72098
496.83298
489.90975
482.96387
476.008
469.05478
462.11673
455.20615
448.33505
441.51506
434.75733
428.07249
421.47055
414.96089
408.5522
402.25243
396.0688
390.00775
384.07496
378.27535
372.61309
367.09161
361.71365
356.48125
351.39583
346.4582
341.66861
337.02678
332.53195
328.18294
323.97817
319.91571
315.99331
312.20846
308.5584
305.04018
301.65068
594.28678
588.8429
583.24083
577.48331
571.57514
565.52213
559.33094
553.00909
546.56495
540.00765
533.34706
526.59372
519.75878
512.85389
505.89116
498.88303
491.84219
484.78152
477.7139
470.65221
463.60916
456.59724
449.6286
442.71497
435.86759
429.09716
422.41372
415.82666
409.34465
402.97561
396.72668
390.60425
384.61389
378.76041
373.04788
367.47958
362.05813
356.78543
351.66275
346.69075
341.86954
337.19868
332.6773
328.30404
324.0772
319.99471
316.0542
312.25302
308.58831
305.057
301.65587
598.09325
592.53132
586.8093
580.93011
574.89886
568.72165
562.4055
555.95826
549.38864
542.70612
535.92093
529.04394
522.08664
515.06101
507.97948
500.85478
493.69991
486.52797
479.35213
472.18544
465.04083
457.93094
450.86805
443.86401
436.93015
430.07719
423.31523
416.65365
410.10109
403.66545
397.35379
391.17242
385.12684
379.22173
373.46104
367.84795
362.38492
357.07371
351.91547
346.9107
342.05937
337.36091
332.81429
328.41802
324.17028
320.06885
316.11124
312.29469
308.61623
305.07266
301.66067
601.76522
596.08838
590.24966
584.25213
578.1012
571.80329
565.36573
558.79672
552.1053
545.30128
538.39524
531.39839
524.32253
517.17998
509.98346
502.74601
495.48087
488.20143
480.92106
473.65304
466.41047
459.20614
452.05246
444.96138
437.9443
431.01201
424.1746
417.44146
410.82122
404.32171
397.94995
391.71216
385.61374
379.65928
373.85259
368.19674
362.69406
357.34617
352.15408
347.11815
342.23822
337.51356
332.94302
328.52499
324.25749
320.1382
316.16451
312.33353
308.64219
305.08719
301.66512
605.29778
599.50944
593.55753
587.44526
581.17833
574.76347
568.20833
561.52141
554.7121
547.79054
540.76764
533.65492
526.46453
519.20907
511.90157
504.55534
497.18391
489.80087
482.41984
475.05428
467.71747
460.42234
453.18143
446.00678
438.90985
431.90147
424.99176
418.1901
411.50508
404.94449
398.51529
392.22362
386.07477
380.07325
374.22274
368.52618
362.98577
357.60302
352.37879
347.31331
342.40626
337.65682
333.06367
328.62509
324.33898
320.20289
316.2141
312.36961
308.66625
305.10062
301.66921
608.68753
602.79131
596.72996
590.50677
584.12774
577.59989
570.93116
564.13041
557.20732
550.17237
543.03676
535.81236
528.51161
521.14742
513.73309
506.2822
498.80854
491.32594
483.84821
476.38902
468.96178
461.57959
454.25508
447.00038
439.82701
432.74585
425.76701
418.89988
412.15301
405.53415
399.05018
392.70717
386.51032
380.46401
374.57184
368.83661
363.2604
357.8446
352.58991
347.49645
342.56378
337.79093
333.17646
328.71853
324.41492
320.26307
316.26014
312.40304
308.68848
305.11299
301.67296
611.93239
605.93207
599.7652
593.4351
586.94803
580.31131
573.53318
566.62282
559.5902
552.44613
545.20213
537.87035
530.46354
522.99489
515.47799
507.92667
500.35495
492.77689
485.2065
477.65762
470.14383
462.67834
455.27389
447.9427
440.69634
433.5457
426.50093
419.57139
412.7656
406.09126
399.55519
393.16337
386.92091
380.83209
374.90039
369.12851
363.5184
358.07131
352.78783
347.66795
342.7111
337.91619
333.28166
328.80555
324.48552
320.3189
316.30276
312.43392
308.70896
305.12436
301.6764
615.03147
608.93086
602.66259
596.22974
589.63883
582.89748
576.01425
568.9986
561.86082
554.61202
547.26401
539.82925
532.32076
524.75202
517.13686
509.48938
501.82382
494.15445
486.49547
478.86089
471.26443
463.71943
456.23872
448.83459
441.51867
434.30187
427.19434
420.20543
413.34363
406.61659
400.03105
393.59292
387.30722
381.17812
375.20901
369.40245
363.76029
358.28365
352.973
347.82822
342.8486
338.03294
333.37957
328.8864
324.551
320.37059
316.34214
312.46236
308.72778
305.13476
301.67952
617.98489
611.78784
605.42235
598.89109
592.20064
585.35899
578.37503
571.25849
564.01998
556.67089
549.22333
541.69003
534.08428
526.41984
518.71078
510.97144
503.21627
495.45976
487.71627
479.99998
472.32474
464.704
457.15069
449.67716
442.29509
435.0154
427.84826
420.80299
413.88806
407.11103
400.47863
393.99664
387.67001
381.50283
375.49836
369.65906
363.98666
358.48216
353.14593
347.97772
342.97669
338.14155
333.47051
328.96137
324.6116
320.41833
316.37842
312.48851
308.74503
305.14426
301.68236
620.79318
614.50455
608.04569
601.42033
594.63469
587.69713
580.61683
573.40386
566.06909
558.62419
551.08154
543.45417
535.75561
527.99987
520.20127
512.37436
504.53382
496.69431
488.87037
481.07633
473.32616
465.63343
458.01115
450.47172
443.02685
435.68752
428.46386
421.36519
414.39993
407.57561
400.89887
394.37543
388.01015
381.80702
375.76919
369.89903
364.19814
358.66744
353.30715
348.11691
343.09581
338.24241
333.55482
329.03077
324.66759
320.46234
316.41179
312.51249
308.76079
305.15291
301.68493
617.08256
610.53473
603.81945
596.94291
589.91379
582.74159
575.43662
568.01006
560.47383
552.84058
545.12358
537.33664
529.49398
521.61018
513.69998
505.77826
497.85986
489.9595
482.09162
474.27034
466.5093
458.82161
451.21971
443.71537
436.31956
429.04242
421.89325
414.88042
408.01142
401.29282
394.73027
388.32854
382.09153
376.02229
370.12308
364.39541
358.84007
353.4572
348.24632
343.2064
338.33591
333.63287
329.09488
324.71922
320.50283
316.44241
312.53443
308.77517
305.16077
301.68725
619.52655
612.89236
606.09097
599.12772
592.01138
584.75167
577.35915
569.84524
562.22213
554.50272
546.70053
538.82959
530.90438
522.93965
514.95038
506.95163
498.95841
490.98557
483.04771
475.15906
467.33334
459.58374
451.92275
444.36217
436.91298
429.58532
422.38846
415.33075
408.41961
401.66155
395.06216
388.62612
382.35723
376.25845
370.33196
364.57914
359.0007
353.59666
348.36644
343.30892
338.42246
333.70499
329.15402
324.76674
320.54002
316.47046
312.55446
308.78825
305.16788
301.68934
621.83655
615.1209
608.23764
601.19195
593.99271
586.64985
579.17417
571.57733
563.87176
556.07059
548.18757
540.23697
532.23347
524.19205
516.12787
508.05616
499.99209
491.95067
483.94661
475.99425
468.1074
460.2993
452.58251
444.96884
437.46929
430.09399
422.85218
415.75218
408.80137
402.00619
395.37214
388.90385
382.60501
376.47851
370.52642
364.75003
359.14994
353.72608
348.47778
343.40382
338.50246
333.77154
329.2085
324.81042
320.57411
316.4961
312.57272
308.80012
305.17431
301.69121
624.01598
617.22347
610.26264
603.13876
595.86091
588.43923
580.88473
573.20931
565.42561
557.547
549.58746
541.56146
533.48389
525.36992
517.23489
509.09421
500.9632
492.85699
484.79042
476.77792
468.83339
460.97012
453.20073
445.53703
437.99004
430.56989
423.28579
416.14603
409.15792
402.32785
395.66127
389.1627
382.83578
376.6833
370.70722
364.90876
359.28843
353.84605
348.58086
343.49155
338.57631
333.83287
329.2586
324.85051
320.60533
316.51951
312.58933
308.81088
305.18011
301.69288
626.06873
619.20364
612.16946
604.97162
597.61939
590.12314
582.4941
574.74436
566.88681
558.93501
550.90315
542.80592
534.65839
526.47592
518.27403
510.06827
501.8741
493.70681
485.58132
477.51215
469.51329
461.59809
453.77918
446.06842
438.47683
431.01453
423.6907
416.51358
409.49047
402.62768
395.93059
389.40366
383.05043
376.87362
370.87511
365.05603
359.41677
353.95711
348.67617
343.57257
338.64439
333.88932
329.30463
324.88726
320.63387
316.54085
312.60442
308.82061
305.18532
301.69437
627.99887
621.0653
613.96191
606.69423
599.27179
591.70514
584.00573
576.18586
568.25861
560.23777
552.13771
543.97331
535.75983
527.51281
519.24792
510.98086
502.72725
494.50245
486.32152
478.19905
470.14911
462.18508
454.31966
446.56471
438.93124
431.42938
424.06828
416.85616
409.80024
402.9068
396.18115
389.62767
383.24985
377.0503
371.03083
365.19249
359.53559
354.05981
348.7642
343.64729
338.7071
333.94122
329.34687
324.92091
320.65993
316.56028
312.61811
308.8294
305.19
301.6957
629.81062
622.81254
615.64394
608.31047
600.82187
593.1889
585.4232
577.53728
569.5444
561.45855
553.29428
545.06667
536.79115
528.4834
520.15927
511.83459
503.52509
495.24626
487.01325
478.84075
470.74285
462.73302
454.82396
447.02757
439.35486
431.81594
424.41994
417.17504
410.08843
403.16632
396.41397
389.83569
383.43489
377.21412
371.17511
365.31881
359.64547
354.15468
348.84542
343.71614
338.76479
333.98889
329.38559
324.95168
320.6837
316.57795
312.63051
308.83732
305.1942
301.69687
631.50832
624.4496
617.21969
609.82436
602.27355
594.57822
586.7502
578.80217
570.74761
562.60066
554.37608
546.08909
537.75529
529.39053
521.01079
512.63203
504.2701
495.9406
487.65876
479.43935
471.29652
463.24378
455.29386
447.45868
439.74925
432.17566
424.74702
417.47149
410.3562
403.40733
396.63005
390.02863
383.60641
377.36585
371.30863
365.43561
359.74697
354.24223
348.92029
343.77952
338.81782
334.03264
329.42104
324.9798
320.70537
316.59399
312.64172
308.84445
305.19795
301.69791
633.09641
625.98078
618.69336
611.23997
603.63079
595.87694
587.99044
579.98415
571.87172
563.66747
555.38632
547.04366
538.65523
530.23704
521.80519
513.37577
504.96474
496.5878
488.26026
479.99695
471.81209
463.71922
455.73111
447.85967
440.11594
432.50997
425.05087
417.74675
410.60471
403.63087
396.83037
390.20739
383.76521
377.50624
371.43207
365.5435
359.84065
354.32294
348.98923
343.83782
338.86653
334.07274
329.45349
325.00547
320.72509
316.60855
312.65186
308.85086
305.2013
301.69883
634.57938
627.41048
620.06919
612.56144
604.89758
597.08892
589.14766
581.08682
572.92021
564.66232
556.32822
547.93346
539.49393
531.02575
522.54517
514.06838
505.61145
497.19017
488.81993
480.51562
472.29151
464.16118
456.13742
448.23216
440.45642
432.82027
425.33278
418.00202
410.83506
403.83798
397.01585
390.37281
383.91208
377.636
371.54608
365.64308
359.92702
354.3973
349.05267
343.89139
338.91122
334.10949
329.48316
325.02889
320.74304
316.62176
312.66102
308.85662
305.20428
301.69963
635.96176
628.74308
621.35146
613.79289
606.07792
598.21804
590.22559
582.11377
573.89654
565.58853
557.20498
548.76156
540.2743
531.75945
523.23337
514.71238
506.21262
497.74998
489.33991
480.99737
472.73667
464.57143
456.51446
448.57769
440.77216
433.1079
425.59399
418.23845
411.04833
404.02963
397.18741
390.52574
384.04778
377.7558
371.65128
365.73488
360.0066
354.46573
349.111
343.94059
338.95221
334.14314
329.51028
325.05025
320.75936
316.63373
312.66928
308.8618
305.20695
301.70034
637.24804
629.98296
622.5444
614.93843
607.17579
599.26813
591.22794
583.06857
574.80413
566.4494
558.01973
549.53095
540.99921
532.44087
523.87241
515.31023
506.77059
498.26943
489.82229
481.44416
473.14942
464.9517
456.86384
448.89778
441.06455
433.37418
425.83572
418.45717
411.24553
404.20678
397.34591
390.66695
384.17301
377.86631
371.74825
365.81945
360.07984
354.52867
349.16459
343.98575
338.98978
334.17393
329.53506
325.06972
320.7742
316.64458
312.67674
308.86644
305.20932
301.70097
638.4427
631.13446
623.65222
616.00214
608.19512
600.24297
592.15835
583.95472
575.64635
567.24814
558.77558
550.2446
541.67147
533.07269
524.46482
515.86435
507.28764
498.75068
490.26909
481.8579
473.53154
465.30366
457.18712
449.19388
441.33495
433.62036
426.05912
418.65923
411.42765
404.37031
397.49217
390.79721
384.28847
377.96814
371.83755
365.89729
360.1472
354.5865
349.21379
344.02716
339.0242
334.20209
329.55768
325.08746
320.78769
316.65441
312.68347
308.87061
305.21143
301.70151
639.55014
632.20185
624.67905
616.98799
609.13975
601.14629
593.02039
584.77567
576.4265
567.98791
559.47552
550.90537
542.29384
533.65752
525.01306
516.37708
507.76596
499.19581
490.68227
482.24044
473.88476
465.62893
457.48582
449.46739
441.58465
433.84763
426.26531
418.84567
411.59563
404.5211
397.62699
390.91722
384.39481
378.06187
371.91972
365.96886
360.2091
354.63961
349.25894
344.06512
339.05571
334.22785
329.57833
325.10363
320.79996
316.66332
312.68955
308.87435
305.21331
301.70199
640.57471
633.18934
625.62897
617.89993
610.01347
601.98171
593.81756
585.53475
577.14778
568.67179
560.1225
551.51606
542.86895
534.19787
525.51955
516.85067
508.20771
499.60683
491.06372
482.59353
474.21074
465.92906
457.76137
449.71965
441.81491
434.05715
426.45535
419.01746
411.75038
404.65997
397.7511
391.02766
384.49263
378.14807
371.99524
366.03461
360.26594
354.68834
349.30033
344.09989
339.08455
334.2514
329.59719
325.11836
320.81111
316.6714
312.69504
308.87771
305.21499
301.70241
641.52065
634.10103
626.50593
618.74176
610.81995
602.75277
594.55325
586.23524
577.81333
569.30276
560.71936
552.07938
543.3994
534.69619
525.98658
517.28731
508.61494
499.98568
491.41527
482.91889
474.51106
466.20552
458.01515
449.95194
442.0269
434.25001
426.63025
419.17553
411.89272
404.78767
397.86521
391.12918
384.58252
378.22725
372.06459
366.09496
360.31809
354.73303
349.33827
344.13174
339.11094
334.27292
329.6144
325.13179
320.82125
316.67873
312.7
308.88073
305.21649
301.70278
642.3921
634.94092
627.3138
619.5172
611.56277
603.46291
595.23077
586.88029
578.42615
569.88371
561.26887
552.59796
543.88767
535.15484
526.41638
517.68911
508.98963
500.33421
491.73865
483.21815
474.78726
466.45974
458.24849
450.16549
442.22175
434.42726
426.79096
419.32075
412.02348
404.90496
397.96999
391.22238
384.66502
378.2999
372.1282
366.15031
360.36589
354.77397
349.37301
344.16089
339.13507
334.29259
329.63011
325.14403
320.83048
316.68538
312.70449
308.88346
305.21783
301.70311
643.1931
635.71289
628.05632
620.22986
612.24539
604.11545
595.85329
587.47295
578.98919
570.41743
561.77366
553.07431
544.33614
535.57608
526.81109
518.05807
509.33368
500.65422
492.03553
483.49287
475.04079
466.69307
458.46263
450.36146
442.40054
434.58988
426.93839
419.45396
412.14341
405.01253
398.06607
391.30782
384.74065
378.36649
372.1865
366.20101
360.40967
354.81147
349.4048
344.18756
339.15714
334.31056
329.64446
325.1552
320.83889
316.69143
312.70857
308.88592
305.21903
301.7034
643.92756
636.4207
628.7371
620.8832
612.87114
604.71359
596.4239
588.01617
579.50523
570.90659
562.2363
553.51086
544.74712
535.96208
527.17277
518.39613
509.64889
500.94739
492.30751
483.74453
475.27303
466.9068
458.65878
450.54094
442.5643
434.73881
427.07341
419.57595
412.25323
405.11101
398.15403
391.38605
384.80988
378.42745
372.23985
366.24741
360.44973
354.84577
349.43389
344.21195
339.17732
334.32698
329.65756
325.16539
320.84656
316.69694
312.71227
308.88816
305.22012
301.70365
644.5993
637.06797
629.35962
621.48059
613.44324
605.26042
596.94555
588.51279
579.97701
571.35378
562.65923
553.90994
545.12281
536.31492
527.50337
518.70514
509.93701
501.21537
492.55611
483.97455
475.4853
467.10215
458.83806
450.705
442.71397
434.87494
427.19682
419.68745
412.35361
405.20104
398.23445
391.45756
384.87317
378.48317
372.28863
366.28983
360.48635
354.87712
349.46048
344.23424
339.19576
334.34199
329.66953
325.1747
320.85355
316.70196
312.71564
308.89018
305.2211
301.70389
645.21198
637.65818
629.92721
622.02521
613.96477
605.75891
597.42109
588.96551
580.4071
571.76147
563.0448
554.27377
545.46532
536.6366
527.80477
518.98686
510.19969
501.45968
492.78277
484.18428
475.67885
467.28029
459.00154
450.85461
442.85048
434.9991
427.30939
419.78917
412.4452
405.28318
398.30783
391.52282
384.93094
378.53404
372.33316
366.32857
360.5198
354.90576
349.48477
344.25461
339.21261
334.35571
329.68047
325.1832
320.85995
316.70655
312.71872
308.89204
305.222
301.7041
645.7691
638.19464
630.44298
622.52014
614.4387
606.21188
597.85323
589.37695
580.79799
572.13202
563.39527
554.60447
545.77665
536.929
528.07875
519.24297
510.4385
501.68181
492.98886
484.375
475.85487
467.44231
459.15026
450.99072
442.97468
435.11209
427.41185
419.88176
412.52857
405.35798
398.37466
391.58228
384.98357
378.5804
372.37376
366.36389
360.55031
354.9319
349.50694
344.27321
339.22801
334.36824
329.69048
325.19098
320.8658
316.71075
312.72154
308.89373
305.22282
301.70429
646.27393
638.68056
630.90988
622.96828
614.86783
606.62207
598.24458
589.74959
581.15207
572.4677
563.71277
554.90408
546.05872
537.19394
528.32701
519.47506
510.65494
501.88316
493.17569
484.54792
476.01449
467.58925
459.28516
451.11421
443.08739
435.21465
427.50486
419.96584
412.60431
405.42595
398.4354
391.63633
385.03145
378.62258
372.41071
366.39606
360.57811
354.95572
349.52717
344.29018
339.24206
334.3797
329.69962
325.19811
320.87116
316.71461
312.72413
308.89529
305.22358
301.70447
646.72937
639.11906
631.33079
623.37238
615.25488
606.99205
598.59762
590.08581
581.47159
572.77065
563.99935
555.17453
546.31335
537.43314
528.55118
519.68464
510.85042
502.06504
493.34449
484.70418
476.15876
467.7221
459.40715
451.22591
443.18937
435.30747
427.58908
420.04199
412.67293
405.48755
398.49048
391.68536
385.0749
378.66089
372.44429
366.4253
360.6034
354.97741
349.54559
344.30566
339.2549
334.39017
329.708
325.20464
320.87608
316.71816
312.72652
308.89674
305.22428
301.70463
639.51304
631.70851
623.73506
615.60238
607.3243
598.91474
590.38789
581.75872
573.04295
564.25695
555.41765
546.54229
537.64821
528.75277
519.87316
511.02629
502.22871
493.49643
484.84487
476.2887
467.84178
459.51708
451.32661
443.28134
435.39121
427.66509
420.11076
412.73492
405.54323
398.54029
391.72974
385.11425
378.6956
372.47474
366.45184
360.62637
354.99714
349.56237
344.31977
339.26661
334.39973
329.71566
325.21062
320.88061
316.72143
312.72874
308.89808
305.22494
301.70479
639.86541
632.04588
624.0588
615.9128
607.62119
599.19818
590.65798
582.01553
573.28654
564.48743
555.6352
546.74716
537.84072
528.93325
520.04197
511.18382
502.37535
493.63261
484.97101
476.40524
467.94917
459.61577
451.41704
443.36397
435.46649
427.73346
420.17264
412.79075
405.5934
398.58521
391.76978
385.14978
378.72697
372.50229
366.47588
360.6472
355.01504
349.57761
344.33262
339.27729
334.40848
329.72268
325.21612
320.88478
316.72445
312.73079
308.89934
305.22557
301.70495
640.17869
632.34548
624.34604
616.18843
607.88493
599.45009
590.89814
582.24396
573.50328
564.69253
555.82882
546.92953
538.01212
529.09399
520.19236
511.32421
502.5061
493.75408
485.08357
476.50929
468.04509
459.70397
451.49791
443.4379
435.53389
427.79471
420.22813
412.84083
405.63846
398.62558
391.8058
385.18178
378.75525
372.52715
366.4976
360.66605
355.03126
349.59145
344.3443
339.28702
334.41646
329.72911
325.22117
320.88862
316.72725
312.7327
308.90052
305.22616
301.7051
632.6098
624.59911
616.4315
608.11767
599.67252
591.11031
582.44588
573.69492
564.87392
556.00008
547.09087
538.1638
529.23628
520.32555
511.4486
502.62199
493.8618
485.18346
476.60167
468.13031
459.78237
451.56985
443.50373
435.59394
427.84932
420.27764
412.88558
405.67874
398.66172
391.83809
385.21049
378.78067
372.54952
366.51718
360.68306
355.04594
349.60399
344.3549
339.29588
334.42375
329.73499
325.22581
320.89217
316.72985
312.73449
308.90163
305.22672
301.70524
632.8409
624.82036
616.64406
608.32139
599.86739
591.29633
582.62303
573.86314
565.03316
556.15044
547.23256
538.29705
529.36133
520.44267