/*--------------------------------*- C++ -*----------------------------------*\
| =========                 |                                                 |
| \\      /  F ield         | OpenFOAM: The Open Source CFD Toolbox           |
|  \\    /   O peration     | Version:  2312                                  |
|   \\  /    A nd           | Website:  www.openfoam.com                      |
|    \\/     M anipulation  |                                                 |
\*---------------------------------------------------------------------------*/
FoamFile
{
    version     2.0;
    format      ascii;
    arch        "LSB;label=32;scalar=64";
    class       volVectorField;
    location    "0.02";
    object      U;
}
// * * * * * * * * * * * * * * * * * * * * * * * * * * * * * * * * * * * * * //

dimensions      [0 1 -1 0 0 0 0];

internalField   nonuniform List<vector> 
3257
(
(-0.033679819 -0.42645458 0)
(-0.044375911 -0.4245904 0)
(-0.055177118 -0.42285208 0)
(-0.066070664 -0.4212257 0)
(-0.077043767 -0.41969709 0)
(-0.0880824 -0.41825218 0)
(-0.09917116 -0.41687707 0)
(-0.11029338 -0.41555808 0)
(-0.12143122 -0.4142819 0)
(-0.1325657 -0.41303562 0)
(-0.14367685 -0.41180684 0)
(-0.15474381 -0.41058371 0)
(-0.16574493 -0.40935508 0)
(-0.17665797 -0.40811051 0)
(-0.18746018 -0.40684034 0)
(-0.19812853 -0.4055358 0)
(-0.20863982 -0.40418901 0)
(-0.2189709 -0.40279304 0)
(-0.22909882 -0.40134195 0)
(-0.23900101 -0.39983081 0)
(-0.24865549 -0.39825572 0)
(-0.258041 -0.39661381 0)
(-0.26713719 -0.39490326 0)
(-0.27592478 -0.39312324 0)
(-0.28438571 -0.39127397 0)
(-0.29250323 -0.3893566 0)
(-0.30026209 -0.38737328 0)
(-0.30764857 -0.38532704 0)
(-0.31465057 -0.38322182 0)
(-0.32125772 -0.38106239 0)
(-0.32746133 -0.37885432 0)
(-0.33325449 -0.37660394 0)
(-0.33863197 -0.37431834 0)
(-0.34359029 -0.3720053 0)
(-0.3481276 -0.36967326 0)
(-0.35224361 -0.36733134 0)
(-0.35593956 -0.36498934 0)
(-0.35921806 -0.36265772 0)
(-0.36208298 -0.36034763 0)
(-0.36453932 -0.35807102 0)
(-0.36659304 -0.35584068 0)
(-0.36825092 -0.35367043 0)
(-0.36952031 -0.35157531 0)
(-0.37040884 -0.34957191 0)
(-0.3709241 -0.34767874 0)
(-0.37107467 -0.34591697 0)
(-0.3708734 -0.3443135 0)
(-0.37033122 -0.342908 0)
(-0.36940473 -0.34175081 0)
(-0.36795084 -0.34084911 0)
(-0.36627215 -0.34014146 0)
(-0.034420244 -0.38811778 0)
(-0.045187095 -0.38702407 0)
(-0.056058982 -0.38606459 0)
(-0.067022657 -0.3852248 0)
(-0.07806511 -0.38448998 0)
(-0.08917217 -0.38384539 0)
(-0.10032829 -0.38327634 0)
(-0.11151668 -0.38276835 0)
(-0.12271931 -0.38230717 0)
(-0.13391708 -0.38187893 0)
(-0.14508986 -0.3814702 0)
(-0.15621664 -0.38106808 0)
(-0.16727564 -0.3806603 0)
(-0.17824448 -0.38023526 0)
(-0.1891003 -0.37978217 0)
(-0.19981995 -0.37929107 0)
(-0.21038015 -0.37875291 0)
(-0.22075767 -0.3781596 0)
(-0.2309295 -0.37750406 0)
(-0.24087304 -0.37678025 0)
(-0.25056627 -0.37598322 0)
(-0.25998795 -0.37510908 0)
(-0.26911773 -0.37415508 0)
(-0.27793639 -0.37311953 0)
(-0.28642591 -0.37200185 0)
(-0.29456965 -0.37080253 0)
(-0.30235244 -0.36952313 0)
(-0.3097607 -0.3681662 0)
(-0.3167825 -0.36673533 0)
(-0.32340761 -0.36523501 0)
(-0.32962757 -0.36367071 0)
(-0.33543568 -0.36204873 0)
(-0.34082701 -0.36037626 0)
(-0.34579835 -0.3586613 0)
(-0.3503482 -0.35691263 0)
(-0.35447671 -0.35513984 0)
(-0.35818557 -0.35335328 0)
(-0.36147799 -0.35156409 0)
(-0.36435856 -0.34978426 0)
(-0.36683318 -0.34802665 0)
(-0.368909 -0.34630511 0)
(-0.37059435 -0.34463464 0)
(-0.37189868 -0.34303152 0)
(-0.37283256 -0.34151366 0)
(-0.37340762 -0.34010088 0)
(-0.37363822 -0.33881535 0)
(-0.37354594 -0.33768187 0)
(-0.37315759 -0.33672724 0)
(-0.37246137 -0.33597848 0)
(-0.37135319 -0.33546418 0)
(-0.37002938 -0.33522279 0)
(-0.03523758 -0.3629932 0)
(-0.046133584 -0.36239898 0)
(-0.057134141 -0.36194455 0)
(-0.068225842 -0.36161484 0)
(-0.079395415 -0.36139467 0)
(-0.090628424 -0.36126877 0)
(-0.10190907 -0.36122195 0)
(-0.11322028 -0.36123911 0)
(-0.12454381 -0.36130542 0)
(-0.13586026 -0.36140632 0)
(-0.14714926 -0.36152771 0)
(-0.15838955 -0.36165598 0)
(-0.16955912 -0.36177812 0)
(-0.18063535 -0.36188181 0)
(-0.19159518 -0.36195549 0)
(-0.20241526 -0.36198844 0)
(-0.21307216 -0.36197088 0)
(-0.22354249 -0.36189397 0)
(-0.23380311 -0.36174991 0)
(-0.24383134 -0.36153198 0)
(-0.2536051 -0.36123455 0)
(-0.2631031 -0.36085313 0)
(-0.272305 -0.36038436 0)
(-0.2811916 -0.35982606 0)
(-0.28974497 -0.35917716 0)
(-0.29794855 -0.35843775 0)
(-0.30578732 -0.35760902 0)
(-0.31324787 -0.35669327 0)
(-0.32031849 -0.35569383 0)
(-0.32698922 -0.35461508 0)
(-0.3332519 -0.35346238 0)
(-0.33910016 -0.35224202 0)
(-0.34452948 -0.35096122 0)
(-0.34953712 -0.34962807 0)
(-0.35412211 -0.34825148 0)
(-0.3582852 -0.34684119 0)
(-0.36202882 -0.34540776 0)
(-0.365357 -0.3439625 0)
(-0.36827534 -0.34251754 0)
(-0.37079096 -0.34108582 0)
(-0.37291248 -0.33968114 0)
(-0.37465002 -0.33831819 0)
(-0.37601533 -0.33701258 0)
(-0.37702177 -0.3357809 0)
(-0.37768458 -0.33464072 0)
(-0.37802215 -0.33361044 0)
(-0.37805956 -0.33270857 0)
(-0.37782651 -0.33195183 0)
(-0.3773226 -0.33135355 0)
(-0.37647547 -0.33092966 0)
(-0.3754539 -0.33071243 0)
(-0.036257991 -0.33900596 0)
(-0.047335879 -0.33889176 0)
(-0.058517635 -0.33892231 0)
(-0.069789673 -0.33908206 0)
(-0.081138389 -0.33935532 0)
(-0.092548997 -0.33972632 0)
(-0.10400534 -0.34017928 0)
(-0.11548998 -0.34069854 0)
(-0.1269843 -0.34126862 0)
(-0.13846856 -0.34187436 0)
(-0.14992203 -0.34250095 0)
(-0.16132311 -0.34313412 0)
(-0.17264944 -0.34376016 0)
(-0.18387812 -0.34436602 0)
(-0.19498578 -0.34493946 0)
(-0.20594882 -0.34546904 0)
(-0.21674355 -0.34594428 0)
(-0.2273464 -0.34635567 0)
(-0.23773405 -0.34669475 0)
(-0.2478837 -0.34695416 0)
(-0.25777316 -0.34712768 0)
(-0.2673811 -0.34721025 0)
(-0.27668718 -0.347198 0)
(-0.28567225 -0.34708827 0)
(-0.29431844 -0.34687958 0)
(-0.30260935 -0.34657165 0)
(-0.31053014 -0.34616537 0)
(-0.31806764 -0.34566276 0)
(-0.32521042 -0.34506698 0)
(-0.33194885 -0.34438224 0)
(-0.33827518 -0.3436138 0)
(-0.3441835 -0.34276791 0)
(-0.34966978 -0.34185176 0)
(-0.35473188 -0.34087346 0)
(-0.35936948 -0.33984194 0)
(-0.36358408 -0.33876698 0)
(-0.36737893 -0.33765911 0)
(-0.37075903 -0.3365296 0)
(-0.37373106 -0.33539044 0)
(-0.37630336 -0.33425429 0)
(-0.37848596 -0.33313444 0)
(-0.38029058 -0.3320448 0)
(-0.38173072 -0.33099978 0)
(-0.38282174 -0.33001419 0)
(-0.38358094 -0.32910304 0)
(-0.38402851 -0.32828123 0)
(-0.38419 -0.32756279 0)
(-0.38409414 -0.32695962 0)
(-0.3837438 -0.32648097 0)
(-0.383081 -0.32613879 0)
(-0.38224673 -0.32595712 0)
(-0.037502054 -0.31620125 0)
(-0.048807759 -0.31654486 0)
(-0.060216472 -0.31703751 0)
(-0.07171438 -0.31766318 0)
(-0.083287479 -0.31840568 0)
(-0.094920541 -0.3192487 0)
(-0.10659696 -0.32017592 0)
(-0.11829886 -0.32117108 0)
(-0.13000717 -0.32221811 0)
(-0.14170169 -0.3233012 0)
(-0.15336126 -0.32440492 0)
(-0.16496385 -0.32551433 0)
(-0.1764867 -0.32661506 0)
(-0.18790652 -0.3276934 0)
(-0.1991996 -0.32873645 0)
(-0.210342 -0.32973211 0)
(-0.22130975 -0.33066927 0)
(-0.23207903 -0.3315378 0)
(-0.24262633 -0.33232863 0)
(-0.25292867 -0.33303385 0)
(-0.26296377 -0.33364669 0)
(-0.27271025 -0.33416161 0)
(-0.28214778 -0.33457429 0)
(-0.29125724 -0.33488163 0)
(-0.3000209 -0.3350818 0)
(-0.30842252 -0.33517419 0)
(-0.31644749 -0.33515943 0)
(-0.32408294 -0.33503932 0)
(-0.33131777 -0.33481681 0)
(-0.33814278 -0.33449599 0)
(-0.34455066 -0.33408201 0)
(-0.35053604 -0.33358104 0)
(-0.35609549 -0.33300021 0)
(-0.36122751 -0.33234756 0)
(-0.36593251 -0.33163198 0)
(-0.37021278 -0.33086315 0)
(-0.37407244 -0.33005147 0)
(-0.37751745 -0.329208 0)
(-0.38055549 -0.3283444 0)
(-0.38319604 -0.32747286 0)
(-0.38545029 -0.326606 0)
(-0.3873312 -0.32575676 0)
(-0.3888535 -0.3249383 0)
(-0.39003373 -0.32416375 0)
(-0.39089023 -0.32344602 0)
(-0.39144371 -0.32279745 0)
(-0.39171917 -0.32222922 0)
(-0.39174401 -0.32175055 0)
(-0.39152358 -0.32136874 0)
(-0.39101016 -0.32109362 0)
(-0.3903208 -0.32094389 0)
(-0.03897566 -0.29477661 0)
(-0.050548789 -0.29555221 0)
(-0.062223897 -0.29648035 0)
(-0.073986899 -0.29754456 0)
(-0.085823312 -0.29872813 0)
(-0.097717391 -0.30001425 0)
(-0.10965201 -0.30138604 0)
(-0.12160876 -0.30282667 0)
(-0.13356802 -0.30431948 0)
(-0.1455091 -0.30584805 0)
(-0.15741032 -0.30739636 0)
(-0.16924914 -0.30894883 0)
(-0.18100235 -0.31049047 0)
(-0.1926462 -0.31200698 0)
(-0.20415657 -0.31348483 0)
(-0.21550917 -0.31491135 0)
(-0.22667969 -0.31627484 0)
(-0.23764403 -0.31756462 0)
(-0.24837845 -0.31877111 0)
(-0.25885982 -0.31988588 0)
(-0.26906573 -0.32090171 0)
(-0.27897476 -0.32181264 0)
(-0.28856659 -0.32261394 0)
(-0.29782217 -0.32330219 0)
(-0.30672391 -0.32387524 0)
(-0.31525579 -0.32433222 0)
(-0.32340347 -0.32467352 0)
(-0.33115438 -0.32490075 0)
(-0.33849785 -0.32501672 0)
(-0.34542513 -0.32502538 0)
(-0.35192942 -0.32493178 0)
(-0.35800594 -0.32474198 0)
(-0.36365188 -0.32446305 0)
(-0.36886643 -0.32410293 0)
(-0.37365075 -0.32367038 0)
(-0.37800792 -0.32317494 0)
(-0.38194292 -0.32262678 0)
(-0.38546256 -0.32203669 0)
(-0.38857549 -0.32141591 0)
(-0.39129211 -0.3207761 0)
(-0.39362455 -0.32012917 0)
(-0.39558667 -0.31948717 0)
(-0.39719405 -0.31886211 0)
(-0.3984639 -0.31826577 0)
(-0.39941501 -0.31770946 0)
(-0.4000681 -0.31720373 0)
(-0.40044739 -0.31675795 0)
(-0.40057908 -0.31637965 0)
(-0.40047078 -0.31607479 0)
(-0.40008332 -0.31585134 0)
(-0.39951424 -0.31572444 0)
(-0.040678574 -0.27470129 0)
(-0.052552923 -0.27588349 0)
(-0.064528061 -0.27722094 0)
(-0.076589581 -0.27869668 0)
(-0.088722448 -0.28029354 0)
(-0.10091033 -0.28199417 0)
(-0.1131355 -0.28378114 0)
(-0.12537896 -0.28563709 0)
(-0.13762049 -0.28754478 0)
(-0.1498388 -0.28948722 0)
(-0.16201164 -0.2914478 0)
(-0.17411592 -0.29341036 0)
(-0.18612791 -0.29535936 0)
(-0.19802337 -0.29727992 0)
(-0.20977772 -0.29915796 0)
(-0.22136625 -0.30098028 0)
(-0.23276433 -0.30273468 0)
(-0.24394752 -0.30440998 0)
(-0.25489187 -0.30599615 0)
(-0.26557405 -0.30748434 0)
(-0.27597157 -0.30886695 0)
(-0.28606292 -0.31013764 0)
(-0.29582783 -0.31129138 0)
(-0.30524735 -0.31232446 0)
(-0.31430405 -0.31323449 0)
(-0.32298214 -0.31402038 0)
(-0.33126758 -0.31468235 0)
(-0.3391482 -0.31522185 0)
(-0.34661372 -0.31564158 0)
(-0.35365591 -0.31594538 0)
(-0.36026851 -0.3161382 0)
(-0.36644734 -0.31622602 0)
(-0.37219025 -0.31621581 0)
(-0.37749713 -0.3161154 0)
(-0.38236988 -0.31593343 0)
(-0.38681235 -0.31567924 0)
(-0.3908303 -0.31536278 0)
(-0.39443139 -0.3149945 0)
(-0.39762503 -0.31458528 0)
(-0.40042245 -0.31414622 0)
(-0.40283651 -0.31368861 0)
(-0.40488175 -0.31322371 0)
(-0.4065743 -0.31276262 0)
(-0.40793176 -0.31231606 0)
(-0.40897311 -0.31189417 0)
(-0.4097189 -0.31150628 0)
(-0.41019254 -0.31116054 0)
(-0.41041922 -0.31086345 0)
(-0.4104084 -0.31062005 0)
(-0.41012805 -0.310437 0)
(-0.40965956 -0.31032706 0)
(-0.042605217 -0.25592169 0)
(-0.054809242 -0.2574857 0)
(-0.067112709 -0.25920686 0)
(-0.079500839 -0.26106774 0)
(-0.09195798 -0.26305068 0)
(-0.10446715 -0.26513781 0)
(-0.11700996 -0.2673112 0)
(-0.12956675 -0.26955292 0)
(-0.14211664 -0.2718452 0)
(-0.15463771 -0.2741705 0)
(-0.16710707 -0.27651167 0)
(-0.17950104 -0.27885202 0)
(-0.19179531 -0.28117546 0)
(-0.2039651 -0.28346662 0)
(-0.21598536 -0.28571092 0)
(-0.22783095 -0.28789469 0)
(-0.23947684 -0.29000527 0)
(-0.2508983 -0.29203109 0)
(-0.26207111 -0.29396171 0)
(-0.27297176 -0.29578795 0)
(-0.28357765 -0.29750186 0)
(-0.29386726 -0.29909684 0)
(-0.30382032 -0.3005676 0)
(-0.31341803 -0.30191021 0)
(-0.32264312 -0.3031221 0)
(-0.33148007 -0.30420203 0)
(-0.33991518 -0.30515009 0)
(-0.34793665 -0.30596763 0)
(-0.3555347 -0.30665725 0)
(-0.36270157 -0.30722272 0)
(-0.36943162 -0.30766893 0)
(-0.37572125 -0.3080018 0)
(-0.38156899 -0.30822819 0)
(-0.38697542 -0.30835586 0)
(-0.39194315 -0.30839329 0)
(-0.39647677 -0.30834965 0)
(-0.4005828 -0.30823468 0)
(-0.40426961 -0.30805855 0)
(-0.40754735 -0.30783172 0)
(-0.41042789 -0.3075649 0)
(-0.41292473 -0.30726881 0)
(-0.41505291 -0.30695409 0)
(-0.41682894 -0.30663111 0)
(-0.41827068 -0.30630981 0)
(-0.41939715 -0.30599949 0)
(-0.42022868 -0.30570864 0)
(-0.42078798 -0.30544463 0)
(-0.42109933 -0.30521331 0)
(-0.42117378 -0.30501917 0)
(-0.42098522 -0.30486805 0)
(-0.42060158 -0.30477111 0)
(-0.044745608 -0.23838867 0)
(-0.05730287 -0.24031002 0)
(-0.069958073 -0.24238962 0)
(-0.082696023 -0.24460958 0)
(-0.09550039 -0.24695175 0)
(-0.10835348 -0.24939776 0)
(-0.1212362 -0.25192916 0)
(-0.13412816 -0.25452752 0)
(-0.1470078 -0.25717453 0)
(-0.15985248 -0.25985217 0)
(-0.17263864 -0.26254275 0)
(-0.18534196 -0.2652291 0)
(-0.19793753 -0.26789465 0)
(-0.21040002 -0.27052356 0)
(-0.22270384 -0.27310082 0)
(-0.23482342 -0.27561236 0)
(-0.24673332 -0.27804512 0)
(-0.25840848 -0.28038718 0)
(-0.26982444 -0.2826278 0)
(-0.28095751 -0.2847575 0)
(-0.29178496 -0.28676809 0)
(-0.30228526 -0.28865274 0)
(-0.31243821 -0.29040599 0)
(-0.32222511 -0.29202376 0)
(-0.33162892 -0.29350334 0)
(-0.34063441 -0.29484342 0)
(-0.3492282 -0.29604399 0)
(-0.35739894 -0.29710637 0)
(-0.36513731 -0.2980331 0)
(-0.3724361 -0.29882793 0)
(-0.37929023 -0.2994957 0)
(-0.38569674 -0.30004229 0)
(-0.39165482 -0.30047451 0)
(-0.39716573 -0.30080003 0)
(-0.40223277 -0.30102724 0)
(-0.40686123 -0.30116516 0)
(-0.41105834 -0.30122332 0)
(-0.41483312 -0.30121164 0)
(-0.41819638 -0.30114031 0)
(-0.42116057 -0.30101964 0)
(-0.42373969 -0.30085993 0)
(-0.4259492 -0.30067132 0)
(-0.42780592 -0.30046366 0)
(-0.42932786 -0.3002463 0)
(-0.43053405 -0.30002797 0)
(-0.43144462 -0.29981658 0)
(-0.43208164 -0.29961901 0)
(-0.43246866 -0.29944072 0)
(-0.43261803 -0.29928595 0)
(-0.43250874 -0.29916004 0)
(-0.43219734 -0.29907306 0)
(-0.047086474 -0.22204937 0)
(-0.060016062 -0.22430383 0)
(-0.073041949 -0.22671688 0)
(-0.086148482 -0.22927015 0)
(-0.0993186 -0.23194502 0)
(-0.11253385 -0.23472265 0)
(-0.12577437 -0.23758408 0)
(-0.13901903 -0.24051038 0)
(-0.15224549 -0.24348279 0)
(-0.1654304 -0.24648276 0)
(-0.17854948 -0.24949215 0)
(-0.19157774 -0.25249335 0)
(-0.20448963 -0.25546935 0)
(-0.21725923 -0.2584039 0)
(-0.22986043 -0.26128161 0)
(-0.24226718 -0.26408805 0)
(-0.25445363 -0.26680987 0)
(-0.2663944 -0.26943484 0)
(-0.27806476 -0.27195198 0)
(-0.28944084 -0.27435158 0)
(-0.30049984 -0.27662528 0)
(-0.3112202 -0.2787661 0)
(-0.32158177 -0.28076846 0)
(-0.33156602 -0.2826282 0)
(-0.34115613 -0.28434256 0)
(-0.35033716 -0.28591016 0)
(-0.35909612 -0.287331 0)
(-0.36742208 -0.28860637 0)
(-0.37530622 -0.28973884 0)
(-0.38274187 -0.29073215 0)
(-0.38972454 -0.29159115 0)
(-0.39625191 -0.29232171 0)
(-0.40232381 -0.29293063 0)
(-0.40794215 -0.29342551 0)
(-0.41311094 -0.29381469 0)
(-0.41783613 -0.29410706 0)
(-0.42212558 -0.29431203 0)
(-0.42598897 -0.2944393 0)
(-0.42943767 -0.29449883 0)
(-0.43248466 -0.29450065 0)
(-0.4351444 -0.29445472 0)
(-0.4374327 -0.29437083 0)
(-0.43936662 -0.29425841 0)
(-0.44096431 -0.29412643 0)
(-0.44224481 -0.29398322 0)
(-0.44322805 -0.29383632 0)
(-0.44393562 -0.2936923 0)
(-0.44439041 -0.29355645 0)
(-0.44460593 -0.2934329 0)
(-0.4445656 -0.29332674 0)
(-0.44431624 -0.29324731 0)
(-0.049612114 -0.20684762 0)
(-0.062929053 -0.20941122 0)
(-0.076340522 -0.21213299 0)
(-0.089830367 -0.21499413 0)
(-0.10338075 -0.21797555 0)
(-0.11697241 -0.22105792 0)
(-0.13058469 -0.22422184 0)
(-0.14419565 -0.22744792 0)
(-0.15778218 -0.2307169 0)
(-0.17132014 -0.23400983 0)
(-0.18478453 -0.23730812 0)
(-0.19814964 -0.24059375 0)
(-0.21138928 -0.24384934 0)
(-0.22447691 -0.24705827 0)
(-0.23738588 -0.25020485 0)
(-0.25008964 -0.25327434 0)
(-0.26256196 -0.25625313 0)
(-0.2747771 -0.25912878 0)
(-0.28671009 -0.26189011 0)
(-0.29833687 -0.26452728 0)
(-0.30963457 -0.26703181 0)
(-0.3205816 -0.26939663 0)
(-0.33115793 -0.2716161 0)
(-0.34134516 -0.27368605 0)
(-0.35112673 -0.27560371 0)
(-0.36048801 -0.27736773 0)
(-0.36941639 -0.27897813 0)
(-0.37790139 -0.28043627 0)
(-0.3859347 -0.28174474 0)
(-0.39351021 -0.28290736 0)
(-0.40062401 -0.283929 0)
(-0.40727441 -0.28481558 0)
(-0.41346188 -0.28557391 0)
(-0.419189 -0.28621159 0)
(-0.42446041 -0.2867369 0)
(-0.42928272 -0.2871587 0)
(-0.43366443 -0.28748627 0)
(-0.43761579 -0.28772919 0)
(-0.44114873 -0.28789724 0)
(-0.44427669 -0.28800022 0)
(-0.44701455 -0.28804789 0)
(-0.44937847 -0.28804974 0)
(-0.45138572 -0.28801495 0)
(-0.45305458 -0.28795219 0)
(-0.45440411 -0.28786954 0)
(-0.4554541 -0.28777432 0)
(-0.45622573 -0.28767294 0)
(-0.45674139 -0.28757063 0)
(-0.4570156 -0.28747154 0)
(-0.45703567 -0.28738064 0)
(-0.45684006 -0.28730682 0)
(-0.052305087 -0.19272527 0)
(-0.066020722 -0.19557429 0)
(-0.079829011 -0.19858036 0)
(-0.093713259 -0.20172425 0)
(-0.10765481 -0.20498644 0)
(-0.12163355 -0.20834715 0)
(-0.13562801 -0.21178653 0)
(-0.14961539 -0.21528475 0)
(-0.16357178 -0.21882215 0)
(-0.17747223 -0.22237934 0)
(-0.19129099 -0.22593738 0)
(-0.20500163 -0.22947787 0)
(-0.21857726 -0.23298309 0)
(-0.23199073 -0.23643614 0)
(-0.24521484 -0.23982103 0)
(-0.25822255 -0.24312283 0)
(-0.2709872 -0.2463277 0)
(-0.28348273 -0.24942305 0)
(-0.29568391 -0.25239758 0)
(-0.30756653 -0.25524136 0)
(-0.31910761 -0.25794586 0)
(-0.33028559 -0.26050399 0)
(-0.34108053 -0.26291012 0)
(-0.3514742 -0.26516011 0)
(-0.36145031 -0.26725125 0)
(-0.37099454 -0.26918226 0)
(-0.38009469 -0.27095326 0)
(-0.38874074 -0.27256569 0)
(-0.3969249 -0.27402226 0)
(-0.4046416 -0.27532686 0)
(-0.41188754 -0.27648446 0)
(-0.41866164 -0.27750104 0)
(-0.42496502 -0.27838348 0)
(-0.4308009 -0.2791394 0)
(-0.43617456 -0.27977709 0)
(-0.44109325 -0.28030539 0)
(-0.44556605 -0.28073351 0)
(-0.44960378 -0.28107096 0)
(-0.45321889 -0.2813274 0)
(-0.4564253 -0.28151249 0)
(-0.45923826 -0.2816358 0)
(-0.46167423 -0.28170666 0)
(-0.46375075 -0.28173405 0)
(-0.46548621 -0.28172648 0)
(-0.46689971 -0.28169185 0)
(-0.46801098 -0.28163736 0)
(-0.46884088 -0.28156935 0)
(-0.46941137 -0.28149307 0)
(-0.4697379 -0.28141278 0)
(-0.46981128 -0.28133345 0)
(-0.4696627 -0.28126366 0)
(-0.055146778 -0.17962304 0)
(-0.069269145 -0.18273402 0)
(-0.0834822 -0.18600029 0)
(-0.097768677 -0.18940222 0)
(-0.11210906 -0.19291984 0)
(-0.12648237 -0.19653297 0)
(-0.14086625 -0.20022135 0)
(-0.15523707 -0.20396473 0)
(-0.16957005 -0.20774308 0)
(-0.18383945 -0.21153663 0)
(-0.19801871 -0.21532611 0)
(-0.21208067 -0.21909281 0)
(-0.22599774 -0.22281872 0)
(-0.23974216 -0.22648668 0)
(-0.25328615 -0.23008052 0)
(-0.26660217 -0.23358509 0)
(-0.27966315 -0.23698645 0)
(-0.2924427 -0.2402719 0)
(-0.30491534 -0.24343007 0)
(-0.31705671 -0.246451 0)
(-0.32884375 -0.24932618 0)
(-0.34025492 -0.25204854 0)
(-0.35127039 -0.25461255 0)
(-0.36187211 -0.25701413 0)
(-0.37204406 -0.2592507 0)
(-0.38177227 -0.26132109 0)
(-0.39104494 -0.26322557 0)
(-0.39985253 -0.26496572 0)
(-0.40818775 -0.26654439 0)
(-0.4160456 -0.26796559 0)
(-0.4234234 -0.26923444 0)
(-0.43032066 -0.27035702 0)
(-0.43673914 -0.2713403 0)
(-0.4426827 -0.27219197 0)
(-0.44815725 -0.27292037 0)
(-0.45317065 -0.27353434 0)
(-0.45773256 -0.27404309 0)
(-0.46185437 -0.27445609 0)
(-0.46554901 -0.27478291 0)
(-0.46883085 -0.27503314 0)
(-0.47171553 -0.27521623 0)
(-0.47421982 -0.27534141 0)
(-0.47636149 -0.27541752 0)
(-0.4781591 -0.27545296 0)
(-0.47963182 -0.27545555 0)
(-0.48079934 -0.27543242 0)
(-0.4816823 -0.27538992 0)
(-0.48230234 -0.27533337 0)
(-0.48267576 -0.27526716 0)
(-0.48279657 -0.27519631 0)
(-0.48268957 -0.27512925 0)
(-0.058117869 -0.16748127 0)
(-0.072652033 -0.17083109 0)
(-0.087274862 -0.17433384 0)
(-0.10196848 -0.1779695 0)
(-0.11671248 -0.18171772 0)
(-0.13148499 -0.18555792 0)
(-0.14626277 -0.18946946 0)
(-0.16102129 -0.19343173 0)
(-0.17573491 -0.19742433 0)
(-0.19037706 -0.20142721 0)
(-0.20492037 -0.20542077 0)
(-0.21933694 -0.20938603 0)
(-0.23359849 -0.21330477 0)
(-0.24767658 -0.21715963 0)
(-0.26154289 -0.22093426 0)
(-0.27516939 -0.22461342 0)
(-0.28852857 -0.22818306 0)
(-0.30159374 -0.23163046 0)
(-0.31433916 -0.23494423 0)
(-0.32674031 -0.23811445 0)
(-0.33877409 -0.24113266 0)
(-0.35041898 -0.24399191 0)
(-0.36165525 -0.24668676 0)
(-0.37246508 -0.24921329 0)
(-0.38283271 -0.25156908 0)
(-0.39274452 -0.25375313 0)
(-0.40218913 -0.25576589 0)
(-0.41115748 -0.25760913 0)
(-0.4196428 -0.25928586 0)
(-0.42764068 -0.2608003 0)
(-0.43514899 -0.26215771 0)
(-0.44216789 -0.26336432 0)
(-0.44869976 -0.26442722 0)
(-0.4547491 -0.26535421 0)
(-0.46032242 -0.2661537 0)
(-0.4654282 -0.26683457 0)
(-0.47007667 -0.26740607 0)
(-0.47427974 -0.26787766 0)
(-0.47805086 -0.26825887 0)
(-0.48140482 -0.26855926 0)
(-0.48435765 -0.26878821 0)
(-0.48692645 -0.26895486 0)
(-0.48912921 -0.269068 0)
(-0.49098469 -0.26913596 0)
(-0.49251218 -0.26916651 0)
(-0.49373137 -0.26916677 0)
(-0.49466276 -0.26914312 0)
(-0.49532774 -0.26910099 0)
(-0.49574342 -0.26904491 0)
(-0.49590678 -0.26897999 0)
(-0.49583695 -0.26891461 0)
(-0.061198717 -0.15624055 0)
(-0.076147106 -0.15980645 0)
(-0.091182103 -0.1635224 0)
(-0.10628519 -0.167368 0)
(-0.12143506 -0.17132255 0)
(-0.1366089 -0.1753651 0)
(-0.15178257 -0.17947466 0)
(-0.16693064 -0.18363032 0)
(-0.18202659 -0.18781136 0)
(-0.197043 -0.19199743 0)
(-0.2119517 -0.1961687 0)
(-0.226724 -0.20030598 0)
(-0.24133092 -0.20439086 0)
(-0.25574341 -0.20840583 0)
(-0.26993253 -0.21233444 0)
(-0.28386977 -0.21616138 0)
(-0.29752724 -0.21987257 0)
(-0.31087787 -0.2234553 0)
(-0.32389572 -0.22689823 0)
(-0.33655612 -0.23019153 0)
(-0.34883591 -0.23332685 0)
(-0.36071362 -0.23629738 0)
(-0.37216963 -0.23909786 0)
(-0.38318633 -0.24172455 0)
(-0.39374826 -0.24417523 0)
(-0.40384215 -0.24644914 0)
(-0.41345706 -0.24854693 0)
(-0.42258439 -0.25047059 0)
(-0.43121791 -0.25222337 0)
(-0.43935377 -0.25380967 0)
(-0.44699045 -0.25523496 0)
(-0.45412873 -0.25650565 0)
(-0.46077159 -0.25762896 0)
(-0.46692417 -0.25861283 0)
(-0.4725936 -0.25946579 0)
(-0.47778893 -0.26019679 0)
(-0.48252097 -0.26081512 0)
(-0.48680218 -0.26133026 0)
(-0.49064646 -0.26175177 0)
(-0.49406907 -0.26208917 0)
(-0.49708642 -0.26235181 0)
(-0.49971593 -0.26254879 0)
(-0.50197587 -0.26268888 0)
(-0.50388518 -0.26278034 0)
(-0.5054633 -0.26283095 0)
(-0.50673 -0.26284784 0)
(-0.50770569 -0.26283744 0)
(-0.5084116 -0.26280528 0)
(-0.50886556 -0.26275606 0)
(-0.50906741 -0.26269497 0)
(-0.50903124 -0.26263041 0)
(-0.064369685 -0.14584233 0)
(-0.079732386 -0.149602 0)
(-0.095179639 -0.15350834 0)
(-0.11069226 -0.15754065 0)
(-0.12624799 -0.16167787 0)
(-0.1418231 -0.16589875 0)
(-0.15739251 -0.17018198 0)
(-0.17292989 -0.17450636 0)
(-0.18840782 -0.17885091 0)
(-0.20379802 -0.18319506 0)
(-0.21907149 -0.18751877 0)
(-0.23419878 -0.19180266 0)
(-0.24915021 -0.19602821 0)
(-0.26389605 -0.20017781 0)
(-0.27840681 -0.20423495 0)
(-0.29265349 -0.2081843 0)
(-0.30660777 -0.21201182 0)
(-0.32024229 -0.21570484 0)
(-0.33353084 -0.21925214 0)
(-0.34644864 -0.222644 0)
(-0.35897248 -0.22587224 0)
(-0.37108092 -0.22893025 0)
(-0.3827545 -0.23181297 0)
(-0.39397582 -0.2345169 0)
(-0.40472969 -0.23704006 0)
(-0.41500323 -0.23938194 0)
(-0.42478593 -0.24154345 0)
(-0.43406967 -0.24352684 0)
(-0.44284876 -0.2453356 0)
(-0.4511199 -0.24697437 0)
(-0.45888218 -0.24844883 0)
(-0.46613699 -0.24976559 0)
(-0.47288794 -0.25093207 0)
(-0.47914078 -0.25195635 0)
(-0.48490324 -0.25284707 0)
(-0.49018498 -0.25361329 0)
(-0.49499735 -0.25426438 0)
(-0.49935335 -0.25480986 0)
(-0.50326737 -0.25525931 0)
(-0.5067551 -0.25562226 0)
(-0.50983335 -0.25590805 0)
(-0.51251987 -0.25612577 0)
(-0.51483321 -0.25628414 0)
(-0.51679255 -0.25639144 0)
(-0.5184175 -0.25645543 0)
(-0.51972796 -0.25648326 0)
(-0.52074428 -0.25648142 0)
(-0.5214876 -0.25645556 0)
(-0.52197648 -0.25641049 0)
(-0.52221345 -0.25635151 0)
(-0.52220812 -0.25628709 0)
(-0.0676114 -0.13622935 0)
(-0.083386452 -0.14016097 0)
(-0.099244027 -0.14423548 0)
(-0.11516425 -0.14843187 0)
(-0.13112391 -0.15272881 0)
(-0.14709832 -0.15710474 0)
(-0.16306146 -0.1615381 0)
(-0.17898609 -0.16600744 0)
(-0.19484388 -0.17049157 0)
(-0.21060568 -0.17496973 0)
(-0.22624168 -0.1794217 0)
(-0.24172164 -0.18382801 0)
(-0.25701516 -0.18817003 0)
(-0.27209187 -0.19243012 0)
(-0.28692172 -0.19659175 0)
(-0.30147519 -0.20063964 0)
(-0.31572357 -0.2045598 0)
(-0.32963917 -0.20833967 0)
(-0.34319559 -0.21196819 0)
(-0.35636787 -0.21543581 0)
(-0.36913279 -0.21873454 0)
(-0.38146896 -0.22185802 0)
(-0.39335705 -0.22480142 0)
(-0.40477989 -0.22756153 0)
(-0.41572259 -0.23013663 0)
(-0.42617265 -0.23252651 0)
(-0.43611998 -0.23473235 0)
(-0.44555695 -0.23675669 0)
(-0.4544784 -0.23860329 0)
(-0.46288163 -0.24027705 0)
(-0.47076629 -0.24178388 0)
(-0.47813439 -0.24313063 0)
(-0.48499016 -0.24432489 0)
(-0.49133996 -0.24537493 0)
(-0.49719214 -0.24628952 0)
(-0.50255692 -0.24707785 0)
(-0.50744624 -0.24774936 0)
(-0.51187359 -0.24831364 0)
(-0.51585387 -0.24878031 0)
(-0.51940321 -0.24915891 0)
(-0.52253881 -0.24945879 0)
(-0.52527878 -0.24968903 0)
(-0.52764197 -0.24985834 0)
(-0.5296478 -0.249975 0)
(-0.5313161 -0.25004674 0)
(-0.53266689 -0.25008077 0)
(-0.5337206 -0.25008362 0)
(-0.53449827 -0.25006101 0)
(-0.53501916 -0.2500179 0)
(-0.53528845 -0.24995966 0)
(-0.53531174 -0.24989483 0)
(-0.07090498 -0.12734608 0)
(-0.087088629 -0.13142838 0)
(-0.10335284 -0.13564944 0)
(-0.11967701 -0.13998798 0)
(-0.13603696 -0.14442241 0)
(-0.15240705 -0.14893094 0)
(-0.16876033 -0.15349178 0)
(-0.1850686 -0.15808328 0)
(-0.20130264 -0.16268407 0)
(-0.21743242 -0.16727324 0)
(-0.2334273 -0.17183049 0)
(-0.24925628 -0.17633625 0)
(-0.26488821 -0.18077185 0)
(-0.2802921 -0.18511966 0)
(-0.29543731 -0.18936319 0)
(-0.31029385 -0.19348721 0)
(-0.32483258 -0.19747789 0)
(-0.33902551 -0.20132279 0)
(-0.35284601 -0.20501104 0)
(-0.36626902 -0.2085333 0)
(-0.37927125 -0.21188184 0)
(-0.3918314 -0.21505054 0)
(-0.40393026 -0.21803488 0)
(-0.4155509 -0.22083193 0)
(-0.42667874 -0.22344028 0)
(-0.43730163 -0.22586003 0)
(-0.44740994 -0.22809268 0)
(-0.45699653 -0.23014106 0)
(-0.46605677 -0.23200921 0)
(-0.47458851 -0.23370232 0)
(-0.48259201 -0.23522656 0)
(-0.49006989 -0.236589 0)
(-0.49702698 -0.23779745 0)
(-0.50347026 -0.23886035 0)
(-0.50940868 -0.23978664 0)
(-0.51485305 -0.24058561 0)
(-0.51981585 -0.24126681 0)
(-0.5243111 -0.2418399 0)
(-0.5283542 -0.24231455 0)
(-0.53196171 -0.24270032 0)
(-0.53515125 -0.24300657 0)
(-0.53794128 -0.24324238 0)
(-0.54035096 -0.24341645 0)
(-0.5424 -0.24353703 0)
(-0.54410844 -0.24361188 0)
(-0.54549652 -0.2436482 0)
(-0.54658471 -0.24365256 0)
(-0.54739407 -0.24363076 0)
(-0.54794449 -0.24358785 0)
(-0.54824376 -0.24352924 0)
(-0.54829392 -0.2434636 0)
(-0.074232211 -0.119139 0)
(-0.090819158 -0.12335134 0)
(-0.10748479 -0.12769799 0)
(-0.12420778 -0.13215748 0)
(-0.14096295 -0.13670798 0)
(-0.15772371 -0.14132751 0)
(-0.17446215 -0.1459941 0)
(-0.19114914 -0.15068594 0)
(-0.20775456 -0.15538153 0)
(-0.22424749 -0.16005987 0)
(-0.24059645 -0.16470059 0)
(-0.25676967 -0.16928408 0)
(-0.2727353 -0.1737917 0)
(-0.28846167 -0.17820584 0)
(-0.30391759 -0.18251011 0)
(-0.31907257 -0.18668939 0)
(-0.33389708 -0.19073 0)
(-0.34836281 -0.1946197 0)
(-0.36244292 -0.19834783 0)
(-0.37611222 -0.20190531 0)
(-0.38934739 -0.20528467 0)
(-0.40212719 -0.2084801 0)
(-0.41443257 -0.21148739 0)
(-0.42624682 -0.21430392 0)
(-0.43755566 -0.21692862 0)
(-0.44834734 -0.21936191 0)
(-0.45861264 -0.22160563 0)
(-0.46834491 -0.22366291 0)
(-0.47754007 -0.22553811 0)
(-0.48619652 -0.2272367 0)
(-0.49431513 -0.22876511 0)
(-0.5018991 -0.23013066 0)
(-0.50895389 -0.23134137 0)
(-0.51548707 -0.23240587 0)
(-0.52150821 -0.23333326 0)
(-0.52702867 -0.23413296 0)
(-0.5320615 -0.23481461 0)
(-0.53662125 -0.23538796 0)
(-0.54072378 -0.23586271 0)
(-0.54438615 -0.23624846 0)
(-0.54762635 -0.23655457 0)
(-0.55046323 -0.23679012 0)
(-0.55291629 -0.23696379 0)
(-0.5550055 -0.23708383 0)
(-0.55675118 -0.23715797 0)
(-0.55817377 -0.2371934 0)
(-0.55929388 -0.23719672 0)
(-0.56013259 -0.23717379 0)
(-0.5607104 -0.2371297 0)
(-0.5610377 -0.23706988 0)
(-0.56111338 -0.23700312 0)
(-0.077575698 -0.11155686 0)
(-0.094559318 -0.11587925 0)
(-0.11161987 -0.12033127 0)
(-0.12873529 -0.12489128 0)
(-0.14587938 -0.12953727 0)
(-0.16302461 -0.13424711 0)
(-0.1801421 -0.13899868 0)
(-0.19720179 -0.14377007 0)
(-0.21417265 -0.1485397 0)
(-0.23102288 -0.15328651 0)
(-0.24772018 -0.1579901 0)
(-0.26423197 -0.16263089 0)
(-0.28052571 -0.16719028 0)
(-0.29656907 -0.17165076 0)
(-0.3123303 -0.17599603 0)
(-0.3277784 -0.18021117 0)
(-0.34288346 -0.18428265 0)
(-0.35761687 -0.18819849 0)
(-0.37195155 -0.19194826 0)
(-0.3858622 -0.19552317 0)
(-0.39932548 -0.19891605 0)
(-0.4123202 -0.2021214 0)
(-0.42482747 -0.20513534 0)
(-0.43683079 -0.20795561 0)
(-0.44831622 -0.21058147 0)
(-0.45927235 -0.2130137 0)
(-0.46969042 -0.21525446 0)
(-0.47956426 -0.21730722 0)
(-0.48889031 -0.21917664 0)
(-0.49766755 -0.22086849 0)
(-0.50589741 -0.22238947 0)
(-0.51358372 -0.22374715 0)
(-0.52073252 -0.22494976 0)
(-0.52735201 -0.22600612 0)
(-0.53345232 -0.22692548 0)
(-0.53904541 -0.2277174 0)
(-0.54414488 -0.22839163 0)
(-0.5487658 -0.22895798 0)
(-0.55292453 -0.22942619 0)
(-0.55663856 -0.22980589 0)
(-0.55992632 -0.23010645 0)
(-0.56280704 -0.23033693 0)
(-0.56530056 -0.23050599 0)
(-0.56742715 -0.23062183 0)
(-0.56920741 -0.23069219 0)
(-0.57066203 -0.23072421 0)
(-0.57181177 -0.23072449 0)
(-0.57267778 -0.23069891 0)
(-0.57328114 -0.23065259 0)
(-0.57363481 -0.23059095 0)
(-0.57373495 -0.23052285 0)
(-0.08091898 -0.10455086 0)
(-0.098291528 -0.10896402 0)
(-0.11573941 -0.11350196 0)
(-0.13323979 -0.11814288 0)
(-0.15076549 -0.12286466 0)
(-0.16828798 -0.12764504 0)
(-0.18577747 -0.13246182 0)
(-0.20320294 -0.13729302 0)
(-0.22053244 -0.14211702 0)
(-0.23773331 -0.14691275 0)
(-0.2547724 -0.15165984 0)
(-0.27161638 -0.15633877 0)
(-0.28823195 -0.16093101 0)
(-0.30458618 -0.16541919 0)
(-0.32064671 -0.16978717 0)
(-0.33638208 -0.17402022 0)
(-0.35176198 -0.17810503 0)
(-0.36675747 -0.18202987 0)
(-0.38134128 -0.18578461 0)
(-0.39548798 -0.18936074 0)
(-0.4091742 -0.19275143 0)
(-0.42237882 -0.19595151 0)
(-0.43508308 -0.19895746 0)
(-0.44727074 -0.20176736 0)
(-0.45892813 -0.20438084 0)
(-0.47004424 -0.20679903 0)