/*--------------------------------*- C++ -*----------------------------------*\
| =========                 |                                                 |
| \\      /  F ield         | OpenFOAM: The Open Source CFD Toolbox           |
|  \\    /   O peration     | Version:  2312                                  |
|   \\  /    A nd           | Website:  www.openfoam.com                      |
|    \\/     M anipulation  |                                                 |
\*---------------------------------------------------------------------------*/
FoamFile
{
    version     2.0;
    format      ascii;
    arch        "LSB;label=32;scalar=64";
    class       volScalarField;
    location    "0.07";
    object      alphat;
}
// * * * * * * * * * * * * * * * * * * * * * * * * * * * * * * * * * * * * * //

dimensions      [1 -1 -1 0 0 0 0];

internalField   nonuniform List<scalar> 
3221
(
0.028313237
0.028411537
0.028519679
0.028637284
0.028763289
0.028896277
0.02903456
0.029176278
0.029319509
0.029462362
0.02960318
0.029741383
0.029881577
0.030053902
0.030408206
0.030810406
0.031060584
0.031374239
0.031615296
0.031860105
0.032062217
0.032250779
0.032411503
0.032555177
0.032677439
0.03278251
0.032869496
0.032940785
0.032996989
0.033039912
0.033070484
0.033090231
0.033100195
0.033101703
0.033095811
0.03308374
0.033066499
0.033045144
0.033020601
0.032993803
0.032965486
0.032936428
0.032907279
0.032878608
0.032850895
0.032824594
0.032800162
0.032778449
0.032761891
0.032758188
0.032794391
0.032674969
0.028304512
0.028391251
0.028489519
0.028597667
0.028714159
0.028837457
0.02896589
0.02909766
0.029230911
0.029363799
0.029494576
0.029621796
0.02974503
0.029867128
0.029998346
0.030134266
0.030261734
0.030397635
0.030525209
0.030652261
0.030770122
0.030882776
0.030985825
0.031081475
0.031167597
0.031245203
0.031313865
0.031374244
0.031426082
0.03146995
0.031506212
0.031535436
0.031558066
0.031574639
0.03158559
0.031591439
0.031592763
0.031590271
0.031584691
0.031576753
0.031567132
0.031556366
0.031544944
0.031533295
0.031521809
0.031510856
0.031500812
0.031492236
0.031486282
0.031485317
0.031491139
0.0314907
0.028292579
0.028356577
0.028433173
0.02852056
0.028616941
0.028720572
0.02882969
0.028942498
0.029057201
0.029172056
0.02928542
0.029395812
0.029502038
0.029603422
0.02970013
0.029792036
0.029878034
0.029958926
0.030033049
0.030100609
0.03016051
0.030213112
0.03025808
0.030296007
0.030327022
0.030351756
0.03037063
0.03038425
0.030393064
0.030397645
0.030398523
0.030396225
0.030391212
0.030383906
0.030374655
0.030363798
0.030351704
0.030338789
0.030325487
0.030312219
0.030299365
0.030287256
0.030276179
0.030266395
0.030258156
0.030251716
0.03024735
0.030245417
0.030246453
0.030251214
0.030260233
0.030272258
0.028279074
0.028315862
0.028365104
0.028425409
0.028495093
0.028572417
0.028655625
0.028742963
0.028832718
0.02892325
0.02901303
0.029100665
0.029184933
0.029264826
0.029339592
0.029408677
0.029471506
0.029527678
0.029576825
0.029618536
0.029652564
0.029678912
0.029697699
0.029709266
0.029714025
0.029712529
0.029705357
0.029693151
0.029676556
0.029656231
0.02963282
0.029606958
0.029579241
0.029550223
0.029520403
0.02949024
0.02946017
0.029430616
0.029401978
0.029374627
0.029348896
0.029325078
0.029303432
0.029284191
0.029267567
0.029253775
0.02924302
0.029235526
0.029231548
0.02923136
0.029235119
0.029242564
0.028265013
0.028273052
0.028292663
0.028322954
0.028362528
0.028409821
0.028463208
0.028521063
0.028581805
0.028643931
0.028706047
0.028766883
0.028825312
0.028880362
0.028931225
0.028977251
0.029017816
0.029052659
0.029081345
0.02910358
0.029119201
0.029128182
0.029130628
0.029126782
0.02911699
0.029101687
0.029081381
0.029056631
0.029028009
0.028996117
0.02896156
0.028924932
0.02888681
0.028847739
0.028808232
0.028768763
0.028729774
0.028691675
0.028654848
0.02861964
0.028586362
0.028555297
0.028526694
0.02850078
0.028477761
0.028457818
0.028441128
0.02842786
0.028418183
0.028412248
0.028410165
0.028411827
0.028251081
0.028230569
0.028220404
0.028220099
0.028228572
0.028244502
0.028266471
0.028293042
0.028322815
0.028354461
0.028386747
0.02841855
0.028448872
0.028476846
0.028501736
0.028522909
0.028539838
0.028552346
0.02856002
0.028562668
0.028560193
0.028552603
0.028540005
0.028522608
0.028500708
0.02847468
0.028444937
0.028411907
0.028376067
0.028337916
0.028297955
0.028256679
0.028214569
0.028172087
0.028129666
0.028087713
0.028046605
0.028006688
0.027968281
0.027931672
0.027897123
0.027864869
0.027835119
0.027808061
0.027783865
0.027762681
0.027744647
0.027729888
0.02771852
0.027710651
0.027706371
0.027705667
0.028237623
0.028189559
0.028150507
0.028120272
0.028098054
0.02808278
0.028073264
0.028068288
0.02806666
0.028067246
0.028068994
0.028070949
0.028072261
0.028072191
0.02807012
0.02806543
0.02805786
0.028047189
0.028033113
0.028015523
0.02799439
0.027969771
0.027941798
0.027910672
0.027876658
0.027840073
0.027801278
0.027760661
0.027718575
0.027675394
0.027631527
0.02758737
0.027543303
0.027499685
0.027456854
0.027415122
0.027374776
0.027336075
0.027299256
0.027264529
0.027232084
0.02720209
0.027174694
0.02715003
0.027128213
0.027109346
0.02709352
0.027080817
0.027071307
0.027065058
0.027062131
0.027062553
0.028224731
0.028150311
0.028083568
0.028024519
0.027972598
0.027926968
0.027886672
0.027850716
0.027818125
0.027787969
0.027759388
0.027731604
0.027703927
0.027675764
0.027646623
0.027615918
0.027583725
0.027549713
0.027513725
0.027475726
0.027435754
0.027393905
0.027350334
0.027305266
0.027258959
0.027211698
0.027163784
0.027115524
0.027067232
0.027019157
0.026971614
0.02692491
0.02687933
0.026835139
0.026792575
0.026751855
0.026713173
0.026676697
0.026642577
0.026610943
0.026581907
0.026555565
0.026532
0.026511281
0.026493468
0.026478612
0.026466756
0.026457936
0.026452184
0.026449527
0.026449994
0.026453614
0.028212347
0.028112633
0.028019307
0.027932543
0.027851981
0.027776999
0.02770686
0.027640792
0.027578032
0.02751786
0.027459611
0.02740269
0.027346575
0.027290827
0.02723503
0.027178832
0.027122411
0.027065436
0.027007897
0.026949841
0.026891371
0.026832637
0.026773835
0.026715172
0.026656875
0.02659919
0.026542367
0.026486655
0.026432295
0.026379506
0.026328464
0.026279396
0.026232501
0.026187947
0.026145881
0.026106427
0.026069685
0.026035737
0.026004649
0.025976469
0.025951234
0.025928971
0.025909696
0.02589342
0.025880147
0.025869878
0.025862611
0.02585834
0.02585706
0.025858767
0.02586346
0.025871146
0.028200344
0.02807612
0.027957048
0.027843437
0.02773511
0.02763165
0.027532532
0.027437196
0.027345093
0.027255709
0.027168576
0.027083286
0.026999489
0.026916908
0.026835133
0.026754354
0.026674497
0.026595472
0.026517328
0.026440167
0.026364137
0.026289416
0.026216203
0.026144706
0.026075144
0.026007728
0.025942659
0.025880121
0.02582028
0.025763279
0.025709211
0.025658212
0.025610388
0.025565818
0.025524555
0.025486629
0.025452055
0.025420829
0.025392934
0.025368345
0.025347027
0.025328939
0.025314039
0.025302282
0.025293621
0.025288011
0.025285411
0.025285779
0.025289078
0.025295276
0.025304347
0.025316276
0.028188569
0.028040294
0.027895977
0.027756056
0.027620536
0.027489203
0.027361744
0.027237818
0.027117094
0.026999268
0.026884077
0.026771304
0.026660779
0.026552285
0.02644573
0.026341478
0.026239337
0.0261394
0.026041802
0.025946712
0.025854319
0.025764823
0.025678423
0.025595316
0.025515683
0.025439688
0.025367467
0.025299134
0.025234771
0.025174435
0.025118144
0.025065943
0.025017842
0.024973826
0.024933855
0.024897871
0.0248658
0.024837559
0.024813054
0.024792189
0.024774864
0.024760978
0.024750435
0.024743139
0.024739
0.024737935
0.024739866
0.024744722
0.024752441
0.024762966
0.024776252
0.024792266
0.028176876
0.028004708
0.027835354
0.027669385
0.027506993
0.027348171
0.027192824
0.027040831
0.02689208
0.026746485
0.026603988
0.026464563
0.026328221
0.026194712
0.02606471
0.025938074
0.025814935
0.025695474
0.025579894
0.025468405
0.025361218
0.025258536
0.025160541
0.025067395
0.024979226
0.024896134
0.024818178
0.024745386
0.024677747
0.024615223
0.024557762
0.02450531
0.02445778
0.024415059
0.024377015
0.024343504
0.024314369
0.024289449
0.024268583
0.024251607
0.024238363
0.0242287
0.024222471
0.02421954
0.024219781
0.024223076
0.02422932
0.024238419
0.024250288
0.024264856
0.024282061
0.024301856
0.028165114
0.027968909
0.027774407
0.027582336
0.027393089
0.02720688
0.027023845
0.026844097
0.026667755
0.026494954
0.026325852
0.026160622
0.025999227
0.025842232
0.025689871
0.025542259
0.025399651
0.025262302
0.025130462
0.025004365
0.024884221
0.024770212
0.024662479
0.024561124
0.024466204
0.024377731
0.024295672
0.024219954
0.024150464
0.024087057
0.024029618
0.023977986
0.023931971
0.023891365
0.023855945
0.023825484
0.023799747
0.023778504
0.023761529
0.023748604
0.02373952
0.02373408
0.0237321
0.023733408
0.02373785
0.023745282
0.023755579
0.023768627
0.023784329
0.023802599
0.023823368
0.023846578
0.028153143
0.027932473
0.027712434
0.027493936
0.027277599
0.027063883
0.026853174
0.026645834
0.026442229
0.026242729
0.026047712
0.025857371
0.025672283
0.025492986
0.025319664
0.025152668
0.024992329
0.024838953
0.02469281
0.024554133
0.024423101
0.024299845
0.024184437
0.024076893
0.023977171
0.023885178
0.02380077
0.023723757
0.023653917
0.023590994
0.023534808
0.023485086
0.023441536
0.023403854
0.023371734
0.023344867
0.023322952
0.023305698
0.023292824
0.023284063
0.023279168
0.023277904
0.023280058
0.023285434
0.023293855
0.02330516
0.023319208
0.023335875
0.023355054
0.023376654
0.023400599
0.023426826
0.028140824
0.027894993
0.027648764
0.027403268
0.027159385
0.026917851
0.026679328
0.026444454
0.026213855
0.02598815
0.025767794
0.025553459
0.02534599
0.025145686
0.024953029
0.024768455
0.024592349
0.024425036
0.024266777
0.024117762
0.02397811
0.023847864
0.023726994
0.023615401
0.023512922
0.023419333
0.023334362
0.023257696
0.023188994
0.023127903
0.023074162
0.023027384
0.022987176
0.022953147
0.022924912
0.022902095
0.022884337
0.022871293
0.022862639
0.022858075
0.022857319
0.022860112
0.022866221
0.022875433
0.022887555
0.022902419
0.022919875
0.022939793
0.022962063
0.022986591
0.0230133
0.023042129
0.028128019
0.027856071
0.027582748
0.027309454
0.027037373
0.026767553
0.026500966
0.02623855
0.025981214
0.025729705
0.025484881
0.025247901
0.025019237
0.024799542
0.024589394
0.024389282
0.024199607
0.024020676
0.023852696
0.023695776
0.023549929
0.023415074
0.023291046
0.023177601
0.023074427
0.022981155
0.022897372
0.022822627
0.022756454
0.022698471
0.022648265
0.022605346
0.022569231
0.022539453
0.02251556
0.022497121
0.022483727
0.022474998
0.022470578
0.02247014
0.022473381
0.02248003
0.02248984
0.022502589
0.02251808
0.02253614
0.022556619
0.022579386
0.022604332
0.022631361
0.022660407
0.022691418
0.02811459
0.027815307
0.027513748
0.027211648
0.026910543
0.026611843
0.026316868
0.026026883
0.025742976
0.02546628
0.02519829
0.024939714
0.024691427
0.02445419
0.024228636
0.024015267
0.023814454
0.023626434
0.02345131
0.023289063
0.023139554
0.023002539
0.022877683
0.022764568
0.022662715
0.022571596
0.022490646
0.022419283
0.022356921
0.022303162
0.022257414
0.022219101
0.022187665
0.022162575
0.022143325
0.022129444
0.022120489
0.022116054
0.022115765
0.022119278
0.022126285
0.022136506
0.022149692
0.02216562
0.022184096
0.022204948
0.02222803
0.022253214
0.022280406
0.02230949
0.022340508
0.022373216
0.028100395
0.027772301
0.027441131
0.027109019
0.026777921
0.026449654
0.026125929
0.025808247
0.025498109
0.025197393
0.024907113
0.024628428
0.024362335
0.024109655
0.023871033
0.023646928
0.02343762
0.023243219
0.023063667
0.022898763
0.022748171
0.022611444
0.022488045
0.022377362
0.022278731
0.022191456
0.022114821
0.022048113
0.02199072
0.021942091
0.021901531
0.021868382
0.021842029
0.021821889
0.021807424
0.021798133
0.021793556
0.021793273
0.021796904
0.021804103
0.021814561
0.021828002
0.021844182
0.021862884
0.021883921
0.021907132
0.021932379
0.021959518
0.021988581
0.022019287
0.022051689
0.022085717
0.028085289
0.027726646
0.027364264
0.027000758
0.026638571
0.02627999
0.02592703
0.025581671
0.025246253
0.024922176
0.024610958
0.024313901
0.024032079
0.023766321
0.023517216
0.023285113
0.023070135
0.022872193
0.022691011
0.022526149
0.022377029
0.022242967
0.022123197
0.022016897
0.021923212
0.021841276
0.021770234
0.021709256
0.021657768
0.021614976
0.021580123
0.021552499
0.021531444
0.021516349
0.021506654
0.021501847
0.021501464
0.021505087
0.021512337
0.021522878
0.02153641
0.021552668
0.021571419
0.02159246
0.021615612
0.02164073
0.021667727
0.021696445
0.021726769
0.021758671
0.021792101
0.02182702
0.028069121
0.027677928
0.027282513
0.026886068
0.026491602
0.026101796
0.025719242
0.02534686
0.024986543
0.024640261
0.024309713
0.023996298
0.0237011
0.023424888
0.023168115
0.022930939
0.022713246
0.022514679
0.022334677
0.022172511
0.022027322
0.021898159
0.021784011
0.021683837
0.021596594
0.021521254
0.021456827
0.021402545
0.021357601
0.021321113
0.021292272
0.021270335
0.02125462
0.021244505
0.021239427
0.02123888
0.021242408
0.021249603
0.021260103
0.021273587
0.021289773
0.021308412
0.021329289
0.021352227
0.021377037
0.02140372
0.021431917
0.021461692
0.021492946
0.021525622
0.021559683
0.021595098
0.028051735
0.027625722
0.027195242
0.026764167
0.026336022
0.025914173
0.025502299
0.025102923
0.024718597
0.024351526
0.024003541
0.023676069
0.023370127
0.023086327
0.022824896
0.022585709
0.022368328
0.022172056
0.021995986
0.021839054
0.021700087
0.021577849
0.021471079
0.021378522
0.021298957
0.021231216
0.021174272
0.021127307
0.021089314
0.021059373
0.021036649
0.021020382
0.021009889
0.021004555
0.021003829
0.021007222
0.021014298
0.021024673
0.021038006
0.021054002
0.021072402
0.021092975
0.021115522
0.021139985
0.021166039
0.021193648
0.021222711
0.021253165
0.021284946
0.021318011
0.02135233
0.021387882
0.028032968
0.027569595
0.027101808
0.026634151
0.02617095
0.025716872
0.025275262
0.024849428
0.024442238
0.024056086
0.023692861
0.023353929
0.023040135
0.022751827
0.022488897
0.022250836
0.022036798
0.021845672
0.021676151
0.021526801
0.021396116
0.021282568
0.021184652
0.021100915
0.02102998
0.020970572
0.020921779
0.020882469
0.020851604
0.020828249
0.020811562
0.020800794
0.020795276
0.020794415
0.020797688
0.020804632
0.020814844
0.020827968
0.020843694
0.020861758
0.020881931
0.020904005
0.020927912
0.020953282
0.020980136
0.021008366
0.021037887
0.021068644
0.021100591
0.021133693
0.021167938
0.021203299
0.028012653
0.027509099
0.027001439
0.026495163
0.025996167
0.025508887
0.02503762
0.024586107
0.02415749
0.02375428
0.023378326
0.023030816
0.022712298
0.02242273
0.02216155
0.021927761
0.021720023
0.021536749
0.021376192
0.021236521
0.021115894
0.021012499
0.020924605
0.020850584
0.02078893
0.020738531
0.020698141
0.020666586
0.020642818
0.020625906
0.02061503
0.020609464
0.020608571
0.020611797
0.020618654
0.02062872
0.020641628
0.020657057
0.020674731
0.020694422
0.020716027
0.020739181
0.020763818
0.020789823
0.020817109
0.020845595
0.020875219
0.020905939
0.020937732
0.020970557
0.021004451
0.021039293
0.027990627
0.027443666
0.026893346
0.026347047
0.025810605
0.025289618
0.024788984
0.024312851
0.023864568
0.023446655
0.023060794
0.022707852
0.022387933
0.022100463
0.021844302
0.021617863
0.021419235
0.021246306
0.021096859
0.020968665
0.020859551
0.020767449
0.02069043
0.020626726
0.02057496
0.020533763
0.0205018
0.020477895
0.020461016
0.020450263
0.02044485
0.020444096
0.020447412
0.020454287
0.020464283
0.020477022
0.020492179
0.020509479
0.020528664
0.020549732
0.020572136
0.020595956
0.020621053
0.020647328
0.020674705
0.020703123
0.020732535
0.02076292
0.020794295
0.020826542
0.020859938
0.020894124
0.027966665
0.02737266
0.026777484
0.026188701
0.025613576
0.025058539
0.024529086
0.02402971
0.023563863
0.023133939
0.022741292
0.022386294
0.022068436
0.021786466
0.021538539
0.021322384
0.021135459
0.020975089
0.020838585
0.02072333
0.02062685
0.020546852
0.020481253
0.020428376
0.020386674
0.020354627
0.020330914
0.020314386
0.020304053
0.020299062
0.020298684
0.020302294
0.020309358
0.020319422
0.020332101
0.020347067
0.020364043
0.020382849
0.020403251
0.020424977
0.020447968
0.020472127
0.020497359
0.02052359
0.020550761
0.020578834
0.020607762
0.020637535
0.020668349
0.020699911
0.020732389
0.020765663
0.027940396
0.027296203
0.026652775
0.026019383
0.025404428
0.024815205
0.024257771
0.023736873
0.023255925
0.022817015
0.022420969
0.02206747
0.021755215
0.021482115
0.021245506
0.021042355
0.020869443
0.020723526
0.020601451
0.020500249
0.020417183
0.020349785
0.020296035
0.020254143
0.020222374
0.020199231
0.020183431
0.02017388
0.020169649
0.020169954
0.020174133
0.020181626
0.020191966
0.020204759
0.020219675
0.020236445
0.020254965
0.020274794
0.020295859
0.020318068
0.020341311
0.020365509
0.020390593
0.020416516
0.02044323
0.02047074
0.020498961
0.020528081
0.020557954
0.020588557
0.020619978
0.020652191
0.027911881
0.027213296
0.026518486
0.02583835
0.025182544
0.02455924
0.023974992
0.023434664
0.022941439
0.022496879
0.022101052
0.021752727
0.021449617
0.021188651
0.020966241
0.020778534
0.020621618
0.020491691
0.020385175
0.020298791
0.020229598
0.020175166
0.020133398
0.020102293
0.020080144
0.020065506
0.020057165
0.020054102
0.02005547
0.020060565
0.020068801
0.020079695
0.020092847
0.020107926
0.020124659
0.02014305
0.020162444
0.020182958
0.020204461
0.020226859
0.020250075
0.020274059
0.020298755
0.02032416
0.020350192
0.020377001
0.020404409
0.020432529
0.020461314
0.020490856
0.020521114
0.02055216
0.027880798
0.027123418
0.026373884
0.02564486
0.024947333
0.024290334
0.023680796
0.023123512
0.022621192
0.022174601
0.021782783
0.021443358
0.021152865
0.020907114
0.020701514
0.020531363
0.020392067
0.020279303
0.020189119
0.020117993
0.020062995
0.020021639
0.019991596
0.019970902
0.019957917
0.019951279
0.019949866
0.019952754
0.019959189
0.019968557
0.019980357
0.019994185
0.020009713
0.020026673
0.020045095
0.020064294
0.020084414
0.020105352
0.020127021
0.020149363
0.02017232
0.020195889
0.02021999
0.020244746
0.020270006
0.020295827
0.020322204
0.020349286
0.020376928
0.020405346
0.020434279
0.020463971
0.027846876
0.027025973
0.026218196
0.025438155
0.024698225
0.02400823
0.023375311
0.022803937
0.022296041
0.021851276
0.021467367
0.021140543
0.020865987
0.02063828
0.020451781
0.02030094
0.020180516
0.020085726
0.020012319
0.019956751
0.019916042
0.019887454
0.019868707
0.019857919
0.019853549
0.019854342
0.019859287
0.019867571
0.019878542
0.019891683
0.019906581
0.01992291
0.019940448
0.019959145
0.019978411
0.019998374
0.020018945
0.020040065
0.020061675
0.020083768
0.020106267
0.020129295
0.020152721
0.020176549
0.020200884
0.020225663
0.020250956
0.020276958
0.02030326
0.020330342
0.020358041
0.02038656
0.027809834
0.026920307
0.026050598
0.025217451
0.024434655
0.023712711
0.023058727
0.022476517
0.02196687
0.021527969
0.021155908
0.020845282
0.020589762
0.020382622
0.020217158
0.020087004
0.019986341
0.019910005
0.019853679
0.019813758
0.019786995
0.019770707
0.019762711
0.019761239
0.01976488
0.01977251
0.019783241
0.019796378
0.019811378
0.019827825
0.019845393
0.019863894
0.019883251
0.019902895
0.019922987
0.01994346
0.019964253
0.019985368
0.020006728
0.020028453
0.020050402
0.02007262
0.020095271
0.02011813
0.020141535
0.020165132
0.020189175
0.020213939
0.020239303
0.020264866
0.020291125
0.020318404
0.027769366
0.026805704
0.025870201
0.024981918
0.024156052
0.023403588
0.022731272
0.022141854
0.021634548
0.021205664
0.020849346
0.020558335
0.020324668
0.020140271
0.019997401
0.019888949
0.019808599
0.019751054
0.019711917
0.019687286
0.019673973
0.019669409
0.019671544
0.019678761
0.019689798
0.019703675
0.019719641
0.019737122
0.019755687
0.019775022
0.019794954
0.019815428
0.019835846
0.019856431
0.019877117
0.019897906
0.01991873
0.019939722
0.019960743
0.019981854
0.020003141
0.020024554
0.020046446
0.020068073
0.020090347
0.020113131
0.020135826
0.020159209
0.020183294
0.02020772
0.020232748
0.020258553
0.027725135
0.026681372
0.025676031
0.02473067
0.023861823
0.023080679
0.022393192
0.021800544
0.021299873
0.020885198
0.020548399
0.020280173
0.020070843
0.019910997
0.019791917
0.01970584
0.019646209
0.019607615
0.019585318
0.019575476
0.019575023
0.019581545
0.019593165
0.019608442
0.019626277
0.019645848
0.019666541
0.019687909
0.019709625
0.019731551
0.019753695
0.019775363
0.019796866
0.019818193
0.019839275
0.019860262
0.019881019
0.019901647
0.01992223
0.019942829
0.019963329
0.019983703
0.020004813
0.020025466
0.020046417
0.020068075
0.020089804
0.020111969
0.020134663
0.020157819
0.020181553
0.020205973
0.02767676
0.026546425
0.025467013
0.024462741
0.023551333
0.022743788
0.022044715
0.021453121
0.020963521
0.020567202
0.020253499
0.020010923
0.01982806
0.019694209
0.019599775
0.019536587
0.019497935
0.019477987
0.01947205
0.019476409
0.019488176
0.019505133
0.019525606
0.019548343
0.019572424
0.019597186
0.019622159
0.019647018
0.019671563
0.019696042
0.019719545
0.01974248
0.019764872
0.019786818
0.019808198
0.019829128
0.019849735
0.019870101
0.019890074
0.019909791
0.019929883
0.019949254
0.019969207
0.019989096
0.020009096
0.020029451
0.020050034
0.020070982
0.020092378
0.020114253
0.020136689
0.020159773
0.027623807
0.02639986
0.025241943
0.024177064
0.02322389
0.022392686
0.021686018
0.021100019
0.020625978
0.020252034
0.019964738
0.019750338
0.019595713
0.019488964
0.019419848
0.019379973
0.01936208
0.019360352
0.019370218
0.019388158
0.019411506
0.019438274
0.019467009
0.019496663
0.019526499
0.019556018
0.01958489
0.019612913
0.01964037
0.019666438
0.019691457
0.01971548
0.019738708
0.01976098
0.019782579
0.019803565
0.019823843
0.019843568
0.019863422
0.019882212
0.019901484
0.019920322
0.019939221
0.019958108
0.019977079
0.019996266
0.02001569
0.020035438
0.020055592
0.020076212
0.020097378
0.020119169
0.02756578
0.026240528
0.024999457
0.023872453
0.022878726
0.022027081
0.021317189
0.020741503
0.020287475
0.019939712
0.019681817
0.019497767
0.019372817
0.019294057
0.019250923
0.019234284
0.019236827
0.019252833
0.019277932
0.019308849
0.019343179
0.01937919
0.019415663
0.019451763
0.01948694
0.019520854
0.019553316
0.01958458
0.019614086
0.019641852
0.019668267
0.019693183
0.01971714
0.019739853
0.01976149
0.019782097
0.01980261
0.019821631
0.01984093
0.019859434
0.019877785
0.019895843
0.019913797
0.019931701
0.019949645
0.019967732
0.019986028
0.020004616
0.020023577
0.020042985
0.020062923
0.020083471
0.027502096
0.026067099
0.024738002
0.02354757
0.022514968
0.021646587
0.020938164
0.020377599
0.019947903
0.019629844
0.019403999
0.019252138
0.019158029
0.019108256
0.019091243
0.01909768
0.019120297
0.019153561
0.019193358
0.019236706
0.01928149
0.019326254
0.019370027
0.019412187
0.019452369
0.019490393
0.019526479
0.01956035
0.019591849
0.019621235
0.019648876
0.019674686
0.019699418
0.019721973
0.019744221
0.019764494
0.019784724
0.019803769
0.019822355
0.019840315
0.0198579
0.019875162
0.019892228
0.019909189
0.019926142
0.019943184
0.019960401
0.019977878
0.0199957
0.020013948
0.02003271
0.020052071
0.027432068
0.025878021
0.02445579
0.023200908
0.022131623
0.02125068
0.02054867
0.02000801
0.019606732
0.019321562
0.019130073
0.019011953
0.018950063
0.018929706
0.018938899
0.018968253
0.019010623
0.019060729
0.01911477
0.019170091
0.019224895
0.019278017
0.019328745
0.019376666
0.019421598
0.019463691
0.019503122
0.019539269
0.01957266
0.019603696
0.019632672
0.019658999
0.019684412
0.019707291
0.019729568
0.019750267
0.019770078
0.019788857
0.019806907
0.019824295
0.019841185
0.019857685
0.019873916
0.019889985
0.019905996
0.019922052
0.019938246
0.019954669
0.019971411
0.019988555
0.020006201
0.020024434
0.027354873
0.025671464
0.024150766
0.022830754
0.021727538
0.020838645
0.020148131
0.01963201
0.019262911
0.019013452
0.018858326
0.018775686
0.018746866
0.018756363
0.018791904
0.018844101
0.018906005
0.018972647
0.019040588
0.019107536
0.019172034
0.019233219
0.019290652
0.019344123
0.019393666
0.019439979
0.019481922
0.01952057
0.019556018
0.019588461
0.019618432
0.019645754
0.019671498
0.019695316
0.019717605
0.019738364
0.019757934
0.019776413
0.019794009
0.019810856
0.019827109
0.019842898
0.019858351
0.019873585
0.019888713
0.019903843
0.019919075
0.019934508
0.019950233
0.027269513
0.02544526
0.023820548
0.02243517
0.021301368
0.020409501
0.019735557
0.019248316
0.018914761
0.018703488
0.018586793
0.01854102
0.018546155
0.018586075
0.018648268
0.018723397
0.01880477
0.018887787
0.018969418
0.01904777
0.019121744
0.019190794
0.019254781
0.019313656
0.019368138
0.019417697
0.019462567
0.019503761
0.019540559
0.019575121
0.019605742
0.019634542
0.019660908
0.019685148
0.01970758
0.019728372
0.019747786
0.019765996
0.019783198
0.019799556
0.019815231
0.019830368
0.019845102
0.019859563
0.019873869
0.019888136
0.019902471
0.019916978
0.019931755
0.027174764
0.025196823
0.023462387
0.022011951
0.020851519
0.019961892
0.019309392
0.018854933
0.018559858
0.018389106
0.018312781
0.018305262
0.018345476
0.018416667
0.018506076
0.018604454
0.018705425
0.018804819
0.018900071
0.018989726
0.01907307
0.019149866
0.019220359
0.019284693
0.01934385
0.019396742
0.01944439
0.019487751
0.019526676
0.019562604
0.019595089
0.019624731
0.019651739
0.019676415
0.019699062
0.019719919
0.019739237
0.019757228
0.019774095
0.019790022
0.019805179
0.019819724
0.019833803
0.019847552
0.019861101
0.019874569
0.019888072
0.019901718
0.019915612
0.027069109
0.024923056
0.0230731
0.021558588
0.020376065
0.019493938
0.018867319
0.018448972
0.018194884
0.018067072
0.018032949
0.018065433
0.018142296
0.018246027
0.01836357
0.018485791
0.018606699
0.018722642
0.018831583
0.018932557
0.019025266
0.019109875
0.019186539
0.019256967
0.019320156
0.019375959
0.019427092
0.01947242
0.019514033
0.019551579
0.019585377
0.019615954
0.019643651
0.019668801
0.019691722
0.019712691
0.019731972
0.019749799
0.01976639
0.019781945
0.019796645
0.019810659
0.019824144
0.019837246
0.019850099
0.019862832
0.019875567
0.019888417
0.019901493
0.026950642
0.024620233
0.02264901
0.021072214
0.019872625
0.019003022
0.018405999
0.018026429
0.017815893
0.017733121
0.017743471
0.017818362
0.017934113
0.018072217
0.018219231
0.018366186
0.018507584
0.018640401
0.018763221
0.018875628
0.018977804
0.019069994
0.019153507
0.019229595
0.019296245
0.019355978
0.019409765
0.019458475
0.019502117
0.019541266
0.019576377
0.019607947
0.019636383
0.019662055
0.019685304
0.019706436
0.019725735
0.019743454
0.019759827
0.019775067
0.01978937
0.019802915
0.019815867
0.019828381
0.019840601
0.019852662
0.019864691
0.019876809
0.019889128
0.026816945
0.024283857
0.022185867
0.020549509
0.019338173
0.018485487
0.017920729
0.017582105
0.017417323
0.017382193
0.017440097
0.017560799
0.017718578
0.017893574
0.018071855
0.018244731
0.018407356
0.0185575
0.018694483
0.018818457
0.018930062
0.019030485
0.019120796
0.019201325
0.019272452
0.019336316
0.01939371
0.019444932
0.01949064
0.019531451
0.019567903
0.019600515
0.019629739
0.01965598
0.019679607
0.019700955
0.019720324
0.019737988
0.019754198
0.019769181
0.019783143
0.019796275
0.019808753
0.019820739
0.019832386
0.019843834
0.019855217
0.019866662
0.019878287
0.026664904
0.023908477
0.02167876
0.01998656
0.01876873
0.017936216
0.017404966
0.017108951
0.016992463
0.01700847
0.017118248
0.017289569
0.017493646
0.017708829
0.017920627
0.018120863
0.01830559
0.018473603
0.018624975
0.01876074
0.018882279
0.018990267
0.019087779
0.019172933
0.019249317
0.019317362
0.019377869
0.019431657
0.019479472
0.019521993
0.019559824
0.01959352
0.019623574
0.019650429
0.019674482
0.01969609
0.019715578
0.019733238
0.019749336
0.019764112
0.019777787
0.019790562
0.01980262
0.019814135
0.019825263
0.019836155
0.019846951
0.019857782
0.019868769
0.026490454
0.023487462
0.021121985
0.019378606
0.018158897
0.017348045
0.016857015
0.016610557
0.01654728
0.016617479
0.016780826
0.017003908
0.017257747
0.017517223
0.017765176
0.017994395
0.018202162
0.018388443
0.018554724
0.018702734
0.018833254
0.018950557
0.019053807
0.019145414
0.019226623
0.019298512
0.019362185
0.019418582
0.019468541
0.019512809
0.019552051
0.019586866
0.019617789
0.019645295
0.019669812
0.019691723
0.019711373
0.019729073
0.019745105
0.019759723
0.01977316
0.019785627
0.019797317
0.019808411
0.019819075
0.019829465
0.019839727
0.019849999
0.019860405
0.026288187
0.023012704
0.020508868
0.018719589
0.017501099
0.016724584
0.016283876
0.016093772
0.016088094
0.016215043
0.016433246
0.016708672
0.017012221
0.017318625
0.017605623
0.017865523
0.018097
0.018302401
0.018484038
0.018643331
0.018784629
0.01891005
0.019020797
0.019118154
0.019204024
0.019279784
0.019346653
0.019405689
0.019457817
0.019503857
0.019544534
0.019580495
0.019612314
0.019640502
0.019665515
0.019687763
0.019707611
0.01972539
0.019741396
0.019755899
0.019769142
0.019781347
0.019792718
0.01980344
0.019813687
0.019823625
0.019833405
0.019843168
0.019853045
0.026050745
0.022474245
0.019831469
0.01800136
0.016801229
0.016073678
0.01569322
0.015565709
0.015621297
0.015806905
0.016080714
0.016408534
0.016761308
0.017113769
0.017442793
0.017734323
0.017990882
0.018215911
0.01841188
0.018584488
0.018735239
0.01887074
0.018988039
0.019091048
0.019181596
0.019261235
0.019331313
0.019392997
0.019447305
0.019495128
0.019537253
0.019574373
0.019607106
0.019635996
0.01966153
0.019684142
0.019704218
0.019722108
0.019738125
0.01975255
0.019765639
0.019777623
0.019788716
0.01979911
0.019808987
0.019818518
0.019827863
0.019837168
0.019846565
0.025767837
0.021859783
0.01908008
0.017227293
0.016067293
0.015403902
0.015093088
0.015033506
0.015153129
0.015398558
0.01572812
0.016107858
0.016508946
0.016906623
0.017277108
0.017602285
0.017884496
0.018128041
0.018340704
0.018524632
0.018687925
0.018831548
0.018955601
0.019064241
0.019159454
0.019242955
0.019316229
0.019380552
0.019437032
0.019486634
0.019530205
0.019568489