/*--------------------------------*- C++ -*----------------------------------*\
| =========                 |                                                 |
| \\      /  F ield         | OpenFOAM: The Open Source CFD Toolbox           |
|  \\    /   O peration     | Version:  2312                                  |
|   \\  /    A nd           | Website:  www.openfoam.com                      |
|    \\/     M anipulation  |                                                 |
\*---------------------------------------------------------------------------*/
FoamFile
{
    version     2.0;
    format      ascii;
    arch        "LSB;label=32;scalar=64";
    class       volScalarField;
    location    "0.07";
    object      CH4;
}
// * * * * * * * * * * * * * * * * * * * * * * * * * * * * * * * * * * * * * //

dimensions      [0 0 0 0 0 0 0];

internalField   nonuniform List<scalar> 
3221
(
0.00011640882
0.00035854058
0.00060697669
0.00085924209
0.0011129579
0.0013660018
0.0016166208
0.0018634921
0.0021057294
0.0023428164
0.0025743297
0.0027986407
0.0030061994
0.0031440113
0.0029295762
0.002791068
0.0027814519
0.0027116361
0.0026876679
0.002638094
0.0026115661
0.0025773462
0.0025563953
0.002535286
0.0025227893
0.0025129393
0.0025090985
0.0025084559
0.0025121758
0.0025188128
0.0025286267
0.0025407959
0.0025552409
0.0025714556
0.0025892336
0.0026082126
0.0026281793
0.002648862
0.0026700554
0.0026915469
0.0027131647
0.0027347453
0.0027561529
0.0027772717
0.0027980253
0.0028184109
0.0028387213
0.0028607403
0.0028945036
0.0029965779
0.0034868153
0.0038835179
0.00012232905
0.00037697706
0.00063875551
0.00090530853
0.0011743453
0.0014437959
0.0017119218
0.0019773791
0.0022392336
0.0024969306
0.0027501969
0.0029987387
0.0032411905
0.0034717428
0.0036742891
0.0038641394
0.0040558653
0.0042318548
0.0044065039
0.0045699693
0.0047320745
0.0048874253
0.0050418324
0.0051924464
0.0053424088
0.0054901971
0.0056372466
0.0057826534
0.0059269909
0.006069662
0.0062107928
0.0063499499
0.0064870681
0.0066218237
0.0067540744
0.006883557
0.0070100958
0.0071334591
0.0072534609
0.0073698992
0.007482605
0.0075914152
0.0076961961
0.0077968317
0.0078932359
0.0079853602
0.0080732644
0.0081574107
0.0082398514
0.0083281485
0.0084421698
0.0085646933
0.00013318207
0.00041074552
0.0006968762
0.00098942052
0.0012862499
0.0015853976
0.0018851629
0.0021841746
0.0024814151
0.0027762096
0.0030681857
0.0033571946
0.0036431551
0.0039257654
0.0042042546
0.0044794866
0.0047529425
0.005023716
0.0052934051
0.0055614372
0.0058292234
0.0060963802
0.0063638624
0.0066313046
0.0068991449
0.0071669318
0.0074346525
0.0077017567
0.0079679535
0.0082326564
0.008495436
0.0087557199
0.0090130424
0.0092668826
0.0095167906
0.009762297
0.010002975
0.010238393
0.010468152
0.010691868
0.01090919
0.011119795
0.0113234
0.01151975
0.011708627
0.011889843
0.01206325
0.012228784
0.012386595
0.012537369
0.012682684
0.012822658
0.0001478131
0.00045625596
0.00077513326
0.0011025184
0.0014364726
0.001775157
0.002116924
0.0024603782
0.0028044068
0.0031481804
0.0034911349
0.0038329381
0.0041734452
0.0045126498
0.0048506433
0.0051877038
0.0055242308
0.0058605118
0.0061970157
0.0065340392
0.0068720074
0.007211111
0.0075515907
0.0078934336
0.0082366125
0.0085808758
0.0089259321
0.009271327
0.0096165808
0.0099611184
0.01030436
0.010645683
0.010984475
0.011320113
0.011651992
0.011979509
0.012302076
0.012619116
0.012930068
0.013234394
0.013531583
0.013821155
0.014102666
0.014375704
0.014639895
0.014894895
0.015140389
0.015376093
0.015601764
0.015817217
0.016022379
0.016217278
0.00016523369
0.00051043611
0.00086822052
0.0012368656
0.0016146084
0.0019997315
0.0023906396
0.0027859147
0.0031843489
0.0035849537
0.0039869546
0.0043897733
0.0047930056
0.005196397
0.0055998195
0.0060032553
0.0064067714
0.0068104824
0.007214543
0.0076191043
0.0080243107
0.0084302472
0.0088369477
0.0092443473
0.0096523024
0.010060565
0.010468806
0.010876615
0.01128352
0.011689001
0.012092503
0.012493448
0.012891248
0.013285303
0.013675017
0.014059793
0.014439038
0.014812167
0.015178606
0.015537796
0.015889199
0.0162323
0.016566613
0.01689168
0.017207071
0.017512385
0.017807245
0.018091296
0.018364208
0.018625663
0.01887537
0.019113119
0.00018476577
0.00057117916
0.00097250106
0.0013871635
0.001813536
0.0022499917
0.0026949692
0.0031470209
0.0036048447
0.0040672996
0.0045334073
0.0050023455
0.0054734355
0.0059461275
0.0064199849
0.0068946681
0.0073699177
0.0078455323
0.0083213514
0.0087972361
0.0092730495
0.0097486358
0.010223807
0.010698326
0.011171906
0.011644199
0.012114805
0.012583277
0.013049127
0.013511836
0.013970865
0.014425659
0.014875659
0.015320301
0.015759021
0.016191262
0.01661647
0.017034102
0.017443626
0.017844524
0.018236298
0.018618472
0.018990592
0.019352228
0.019702977
0.020042459
0.020370314
0.020686208
0.02098982
0.021280849
0.021559001
0.021824019
0.00020603976
0.00063733934
0.0010860017
0.0015505459
0.0020294152
0.0025210263
0.0030238192
0.0035362983
0.0040570618
0.0045848197
0.0051184006
0.0056567517
0.0061989338
0.0067441136
0.0072915538
0.0078406032
0.008390684
0.0089412744
0.0094918991
0.010042114
0.010591494
0.011139614
0.011686042
0.01223033
0.012772007
0.013310577
0.013845519
0.014376293
0.01490234
0.015423095
0.015937985
0.01644644
0.016947894
0.017441789
0.017927575
0.018404719
0.018872698
0.019331008
0.019779162
0.020216693
0.020643156
0.021058131
0.02146122
0.021852053
0.022230281
0.02259558
0.022947648
0.023286204
0.023610983
0.023921738
0.024218234
0.024500246
0.00022892048
0.00070850285
0.0012080183
0.0017260044
0.0022609137
0.0028111522
0.0033751192
0.0039512424
0.0045380044
0.0051339611
0.0057377513
0.006348101
0.0069638239
0.0075838183
0.0082070629
0.0088326124
0.0094595862
0.010087157
0.010714548
0.011341022
0.011965868
0.012588397
0.013207929
0.013823792
0.014435316
0.015041831
0.01564267
0.016237168
0.016824667
0.017404519
0.017976091
0.018538766
0.019091947
0.019635059
0.02016755
0.020688892
0.021198583
0.021696148
0.02218114
0.022653139
0.023111754
0.023556622
0.02398741
0.024403812
0.024805547
0.025192362
0.025564022
0.025920318
0.026261056
0.026586062
0.026895171
0.027188227
0.00025342325
0.00078472681
0.0013386639
0.001913725
0.0025083091
0.0031207549
0.0037493733
0.0043924785
0.0050484118
0.0057155588
0.0063923608
0.0070773216
0.0077690112
0.0084660668
0.0091671931
0.0098711619
0.0105768
0.011282988
0.01198866
0.012692793
0.013394403
0.014092538
0.014786276
0.015474717
0.016156987
0.016832235
0.017499635
0.018158384
0.01880771
0.019446871
0.020075157
0.020691894
0.021296444
0.021888209
0.022466624
0.023031168
0.023581356
0.024116741
0.024636917
0.025141514
0.025630197
0.026102668
0.026558663
0.026997949
0.027420322
0.027825604
0.028213644
0.028584311
0.028937492
0.029273092
0.02959103
0.029891228
0.00027965021
0.0008663406
0.0014785224
0.0021145791
0.0027727964
0.0034513888
0.0041485291
0.004862375
0.0055910918
0.0063328685
0.0070859294
0.0078485429
0.0086190267
0.0093957526
0.010177151
0.010961709
0.011747962
0.012534504
0.013319983
0.014103095
0.014882586
0.015657246
0.016425909
0.017187452
0.017940797
0.018684908
0.019418798
0.020141526
0.0208522
0.021549983
0.022234091
0.022903794
0.023558416
0.024197339
0.024819996
0.025425877
0.026014523
0.026585529
0.027138536
0.027673235
0.028189362
0.028686693
0.029165045
0.029624269
0.03006425
0.0304849
0.030886159
0.031267985
0.031630358
0.031973272
0.032296732
0.032600753
0.00030775205
0.00095382621
0.0016284407
0.0023298164
0.003056069
0.0038052332
0.0045752906
0.0053641953
0.0061698945
0.0069903445
0.0078235224
0.0086674357
0.0095201295
0.010379694
0.011244272
0.012112049
0.012981265
0.013850221
0.014717272
0.015580832
0.016439375
0.017291431
0.018135591
0.018970511
0.019794906
0.020607563
0.021407336
0.022193148
0.022964001
0.023718968
0.024457202
0.025177929
0.025880451
0.026564144
0.027228456
0.027872906
0.028497082
0.029100633
0.029683273
0.03024477
0.030784947
0.031303673
0.031800862
0.032276468
0.032730478
0.033162909
0.033573805
0.033963228
0.034331259
0.034677992
0.03500353
0.035307985
0.00033790896
0.001047759
0.0017894256
0.0025609139
0.0033601135
0.0041848232
0.0050327784
0.0059016768
0.0067891987
0.0076930228
0.0086108388
0.0095403568
0.010479317
0.011425502
0.012376735
0.013330881
0.014285868
0.015239683
0.01619038
0.017136078
0.01807497
0.019005323
0.019925485
0.020833887
0.021729048
0.02260958
0.023474189
0.024321679
0.025150955
0.025961022
0.026750989
0.027520062
0.028267542
0.028992825
0.029695401
0.030374844
0.031030812
0.031663039
0.032271333
0.032855565
0.033415668
0.033951627
0.034463475
0.034951284
0.035415164
0.035855253
0.036271713
0.036664724
0.037034481
0.037381188
0.037705055
0.038006296
0.00037032254
0.0011487828
0.0019626014
0.0028095142
0.0036871279
0.0045929467
0.0055244007
0.0064788731
0.0074537209
0.008446292
0.0094539378
0.010474024
0.011503947
0.012541135
0.013583051
0.014627216
0.015671212
0.016712692
0.017749382
0.018779093
0.019799725
0.020809276
0.021805848
0.022787653
0.023753019
0.024700396
0.025628361
0.026535617
0.027420999
0.028283472
0.029122128
0.029936184
0.030724975
0.031487951
0.032224674
0.03293481
0.033618119
0.034274454
0.034903744
0.035505995
0.036081275
0.03662971
0.037151474
0.037646782
0.038115882
0.038559051
0.038976584
0.039368793
0.039735997
0.040078521
0.04039669
0.040690827
0.0004052136
0.001257604
0.0021492006
0.003077414
0.0040395081
0.0050326287
0.0060538361
0.0071001332
0.0081684896
0.0092558588
0.010359193
0.011475459
0.012601649
0.01373478
0.014871918
0.016010192
0.017146801
0.018279029
0.019404251
0.020519947
0.021623713
0.02271327
0.023786475
0.024841329
0.025875982
0.026888745
0.027878088
0.028842647
0.029781219
0.030692766
0.031576406
0.032431405
0.033257172
0.034053256
0.034819333
0.035555199
0.036260757
0.036936011
0.037581052
0.038196047
0.038781233
0.039336899
0.039863386
0.040361072
0.040830363
0.04127169
0.041685496
0.042072236
0.042432364
0.042766332
0.043074588
0.043357569
0.0004428223
0.0013749924
0.0023505669
0.0033665705
0.0044198579
0.0055071467
0.006625054
0.0077701285
0.0089388768
0.010127784
0.011333333
0.01255202
0.013780356
0.015014891
0.016252236
0.017489075
0.018722176
0.019948416
0.021164788
0.022368419
0.02355659
0.02472674
0.025876488
0.027003637
0.028106185
0.029182333
0.030230482
0.03124924
0.032237416
0.033194018
0.034118234
0.035009434
0.035867152
0.036691084
0.037481068
0.038237077
0.038959201
0.039647635
0.040302666
0.040924659
0.041514044
0.042071306
0.042596973
0.043091605
0.043555786
0.043990112
0.044395189
0.044771622
0.045120008
0.045440935
0.045734974
0.046002681
0.00048340914
0.0015017856
0.0025681637
0.0036791149
0.00483101
0.0060200592
0.0072423524
0.0084938978
0.0097706516
0.011068545
0.012383506
0.013711463
0.015048372
0.016390245
0.017733164
0.019073304
0.020406951
0.02173053
0.023040618
0.024333973
0.025607546
0.026858504
0.028084239
0.029282386
0.030450825
0.031587688
0.032691362
0.03376048
0.034793924
0.035790804
0.036750442
0.037672371
0.03855631
0.039402159
0.040209974
0.040979953
0.041712419
0.0424078
0.043066617
0.043689464
0.044276997
0.044829918
0.045348965
0.045834897
0.046288489
0.046710517
0.047101757
0.047462971
0.047794905
0.048098282
0.048373803
0.048622137
0.00052725654
0.0016388946
0.0028035858
0.0040173707
0.0052760518
0.0065752392
0.007910399
0.0092768974
0.01067004
0.0120851
0.013517335
0.014962011
0.01641444
0.01787
0.019324164
0.020772525
0.022210828
0.023634999
0.025041171
0.026425715
0.027785255
0.029116698
0.030417241
0.031684389
0.032915955
0.034110067
0.03526516
0.036379969
0.037453515
0.038485083
0.039474203
0.04042064
0.041324366
0.042185548
0.043004517
0.043781749
0.044517846
0.045213513
0.04586954
0.046486782
0.047066146
0.047608575
0.048115032
0.048586494
0.049023933
0.049428318
0.049800595
0.050141689
0.050452498
0.050733878
0.050986655
0.051211615
0.00057467082
0.0017873114
0.0030585725
0.0043838752
0.0057583543
0.0071769124
0.0086342771
0.010125056
0.011643781
0.013184934
0.01474298
0.016312413
0.017887783
0.01946373
0.02103502
0.02259659
0.024143578
0.02567137
0.027175629
0.02865233
0.030097789
0.03150868
0.032882055
0.034215349
0.035506383
0.036753355
0.037954837
0.03910975
0.040217342
0.041277156
0.042289013
0.043252988
0.044169381
0.04503869
0.045861581
0.046638863
0.047371463
0.048060401
0.04870677
0.049311715
0.049876416
0.050402073
0.050889892
0.051341073
0.051756798
0.052138225
0.052486479
0.052802644
0.053087762
0.053342829
0.053568786
0.053766533
0.00062598463
0.0019481178
0.0033350251
0.0047814045
0.0062816067
0.0078296994
0.0094195383
0.011044831
0.012699178
0.014376119
0.016069197
0.017771985
0.019478136
0.021181432
0.022875833
0.024555529
0.026214994
0.027849033
0.029452826
0.031021967
0.032552492
0.034040901
0.035484168
0.036879746
0.038225555
0.03951997
0.040761799
0.041950255
0.043084907
0.044165655
0.045192703
0.046166522
0.047087814
0.047957477
0.048776571
0.04954629
0.050267926
0.050942852
0.051572492
0.052158304
0.052701759
0.053204329
0.053667468
0.054092605
0.054481133
0.054834402
0.055153706
0.055440289
0.055695335
0.055919965
0.056115235
0.056282142
0.00068155987
0.0021224959
0.003635026
0.0052130033
0.0068498559
0.0085386677
0.010272261
0.012043258
0.013844152
0.015667382
0.017505382
0.019350639
0.021195758
0.023033525
0.024856981
0.026659489
0.028434798
0.03017711
0.031881127
0.033542096
0.035155836
0.036718753
0.038227846
0.039680695
0.041075444
0.042410767
0.043685832
0.044900255
0.04605404
0.047147554
0.048181481
0.049156775
0.050074616
0.050936369
0.051743543
0.052497761
0.053200722
0.05385418
0.054459914
0.055019709
0.055535342
0.056008558
0.056441066
0.056834525
0.057190532
0.057510621
0.057796257
0.058048831
0.058269658
0.058459975
0.058620942
0.058753642
0.00074179125
0.0023117409
0.0039608627
0.00568202
0.0074675562
0.0093093906
0.0111991
0.013128017
0.01508733
0.017068156
0.019061614
0.021058913
0.023051431
0.025030816
0.02698907
0.028918647
0.030812533
0.032664322
0.034468272
0.036219351
0.037913254
0.039546414
0.041115988
0.042619829
0.044056449
0.045424967
0.046725051
0.047956845
0.049120918
0.050218217
0.051250004
0.052217805
0.053123348
0.053968528
0.054755354
0.055485915
0.05616235
0.056786812
0.057361453
0.057888397
0.058369725
0.058807461
0.059203564
0.05955991
0.0598783
0.060160442
0.060407958
0.060622372
0.060805118
0.060957538
0.061080879
0.0611763
0.00080711034
0.0025172761
0.0043150553
0.0061921511
0.0081396257
0.010147996
0.012207359
0.01430752
0.0164381
0.018588638
0.020748697
0.022907981
0.025056452
0.027184456
0.029282846
0.031343099
0.033357421
0.035318826
0.037221204
0.039059349
0.040828974
0.042526696
0.044149999
0.045697187
0.047167312
0.048560107
0.049875883
0.051115462
0.052280112
0.053371473
0.054391484
0.055342319
0.056226328
0.057045984
0.057803837
0.058502478
0.059144499
0.059732474
0.06026893
0.060756329
0.061197056
0.061593405
0.061947572
0.062261649
0.062537622
0.062777361
0.06298262
0.063155046
0.063296177
0.063407441
0.063490165
0.063545547
0.00087799042
0.0027406707
0.0047003916
0.0067474916
0.0088714933
0.011061245
0.013305087
0.015590987
0.017906687
0.020239848
0.022578191
0.024909662
0.027222593
0.02950587
0.031749094
0.033942724
0.036078205
0.038148048
0.040145893
0.042066525
0.04390586
0.045660901
0.047329673
0.048911134
0.05040508
0.051812025
0.053133094
0.054369946
0.055524679
0.056599735
0.05759782
0.058521833
0.059374796
0.060159808
0.060879989
0.061538449
0.062138249
0.062682382
0.063173748
0.063615143
0.064009238
0.064358588
0.064665614
0.064932606
0.065161713
0.065354945
0.065514172
0.065641142
0.065737479
0.065804682
0.065844167
0.065857051
0.00095495196
0.002983662
0.0051199685
0.0073525758
0.0096691746
0.012056631
0.014501164
0.016988534
0.019504233
0.022033684
0.02456244
0.027076405
0.029562058
0.03200667
0.034398512
0.03672703
0.038982975
0.041158492
0.043247154
0.045243958
0.047145263
0.048948712
0.050653115
0.052258325
0.053765083
0.055174881
0.056489848
0.057712631
0.058846279
0.059894139
0.060859765
0.061746837
0.0625591
0.063300304
0.063974158
0.064584298
0.065134252
0.065627426
0.066067081
0.066456322
0.0667981
0.067095209
0.067350271
0.067565747
0.067743931
0.067886954
0.06799677
0.0680752
0.06812395
0.06814454
0.068138638
0.068107093
0.0010385708
0.0032481833
0.0055772211
0.0080124461
0.010539372
0.013142469
0.015805401
0.01851127
0.021242876
0.02398298
0.026714593
0.029421269
0.032087407
0.034698536
0.037241565
0.039704979
0.042078983
0.044355559
0.046528475
0.048593222
0.050546905
0.052388102
0.054116693
0.055733672
0.057240955
0.058641233
0.059937812
0.061134471
0.062235325
0.063244712
0.064167097
0.065006993
0.06576889
0.066457205
0.067076241
0.067630152
0.068122923
0.068558348
0.06894003
0.069271365
0.069555558
0.069795604
0.069994301
0.070154263
0.070277898
0.07036745
0.070424893
0.070452099
0.070450885
0.070422717
0.070370209
0.070292461
0.0011294881
0.0035363788
0.0060759791
0.0087327459
0.011489563
0.014328008
0.017228656
0.020171408
0.023135836
0.026101551
0.029048603
0.031957871
0.034811468
0.037593088
0.040288309
0.0428848
0.045372444
0.047743361
0.049991849
0.052114253
0.05410878
0.055975283
0.057715013
0.059330374
0.060824717
0.062202137
0.063467284
0.064625197
0.065681153
0.066640553
0.06750882
0.068291323
0.06899331
0.069619864
0.070175868
0.070665979
0.071094602
0.071465903
0.071783795
0.072051935
0.072273733
0.072452362
0.072590757
0.072691675
0.072757577
0.072790882
0.072793429
0.072767119
0.072714846
0.072635285
0.072534039
0.072409839
0.001228406
0.0038506425
0.0066205455
0.0095198015
0.012528116
0.01562356
0.018782968
0.021982376
0.025197498
0.028404237
0.031579219
0.034700329
0.037747215
0.04070172
0.043548212
0.046273788
0.048868348
0.051324545
0.053637634
0.055805243
0.057827092
0.059704673
0.061440932
0.063039989
0.064506873
0.065847279
0.067067349
0.068173486
0.06917221
0.07007003
0.070873352
0.071588406
0.072221192
0.07277744
0.073262587
0.073681744
0.074039722
0.07434102
0.07458981
0.074789969
0.07494507
0.075058442
0.075133075
0.075171935
0.075177315
0.075152189
0.075098618
0.075016058
0.074911087
0.074779974
0.07462784
0.074454713
0.0013361129
0.0041936668
0.0072157575
0.010380727
0.013664423
0.017040648
0.020481696
0.023958942
0.027443503
0.030906935
0.034321961
0.037663167
0.04090763
0.044035422
0.047029948
0.049878105
0.05257027
0.055100135
0.057464431
0.059662565
0.061696213
0.063568901
0.06528563
0.066852532
0.068276545
0.069565131
0.070726047
0.071767148
0.072696242
0.07352097
0.07424872
0.074886569
0.07544124
0.075919073
0.076326004
0.076667581
0.076948965
0.077174923
0.077349845
0.077477794
0.077562431
0.077607273
0.077615114
0.077589565
0.077532565
0.077447264
0.07733535
0.077195959
0.077035332
0.07685067
0.076649081
0.076428285
0.0014534912
0.0045684843
0.0078670759
0.011323552
0.014909054
0.018592177
0.02233969
0.026117355
0.029890829
0.033626622
0.037293066
0.040861201
0.044305533
0.047604582
0.050741188
0.053702572
0.056480189
0.059069391
0.061468987
0.063680708
0.065708667
0.067558858
0.069238699
0.070756603
0.072121617
0.073343116
0.074430562
0.075393315
0.07624049
0.076980853
0.07762275
0.078174065
0.078642193
0.079034028
0.079355968
0.079613937
0.079813361
0.079959242
0.080056104
0.080108224
0.080119144
0.08009291
0.080031864
0.07994052
0.079818741
0.07967117
0.079498936
0.079301098
0.079086999
0.07885028
0.07859614
0.078323492
0.0015815317
0.0049785246
0.0085806909
0.012357372
0.016273946
0.020292631
0.024373475
0.028475485
0.032557873
0.036581357
0.040509416
0.0443094
0.047953394
0.051418766
0.054688376
0.057750472
0.060598326
0.063229688
0.065646113
0.067852248
0.069855174
0.071663794
0.073288267
0.07473953
0.076028907
0.077167791
0.078167406
0.079038632
0.079791879
0.080436999
0.080983244
0.081439237
0.081812976
0.082111869
0.082342698
0.082511671
0.082624405
0.082686114
0.082701285
0.082674681
0.082609732
0.082511019
0.082377992
0.082218414
0.082029739
0.08182062
0.081589027
0.081333557
0.081058627
0.080771631
0.080467592
0.080143781
0.0017213515
0.0054276835
0.0093636487
0.013492533
0.017772621
0.022158309
0.026601459
0.031052978
0.03546453
0.039790268
0.043988439
0.048022715
0.051863119
0.055486492
0.058876518
0.062023356
0.064922995
0.067576407
0.069988624
0.072167867
0.074124727
0.075871416
0.077421129
0.078787529
0.07998434
0.081025034
0.081922612
0.082689449
0.0833372
0.083876739
0.084318138
0.084670666
0.084942864
0.085142587
0.085276868
0.085352169
0.085374125
0.085348308
0.08527933
0.085172169
0.085028545
0.084854242
0.084647232
0.08442188
0.084167752
0.083890211
0.083599842
0.083288083
0.082957164
0.082614105
0.082257212
0.081885819
0.001874215
0.0059204063
0.010224007
0.014740846
0.019420451
0.024207589
0.029044166
0.033871421
0.038632255
0.043273514
0.04774798
0.052015884
0.056045815
0.059814986
0.063308953
0.066520871
0.069450466
0.072102845
0.074487339
0.076616418
0.078504682
0.080168018
0.081622904
0.082885878
0.083973134
0.084900235
0.085681922
0.086332
0.086863288
0.087287579
0.087615648
0.087857336
0.088021592
0.088116685
0.088149711
0.088127459
0.088055853
0.087940289
0.087784088
0.087591884
0.087369755
0.087121753
0.08683965
0.086543632
0.086226017
0.085884312
0.085529671
0.085159351
0.084774299
0.084377473
0.083969194
0.083549688
0.0020415602
0.0064617908
0.011171025
0.016115862
0.02123497
0.026461248
0.031724508
0.036954511
0.042084121
0.047052228
0.051806143
0.056303209
0.060511542
0.064409944
0.067987148
0.071240575
0.07417483
0.076800185
0.079131122
0.081184993
0.082980872
0.084538627
0.085878204
0.087019098
0.087979987
0.08877848
0.089430966
0.089952577
0.090357181
0.090657331
0.090864441
0.090988764
0.091039419
0.091025305
0.090953674
0.090831394
0.090662602
0.090452898
0.090210053
0.089936614
0.089628915
0.089305792
0.088953253
0.088583663
0.088197515
0.087794343
0.087378428
0.08695018
0.086510536
0.086061083
0.085602535
0.085135394
0.0022250297
0.007057714
0.012215397
0.017633194
0.023236253
0.028942828
0.034668073
0.040328237
0.045844856
0.051148417
0.056181095
0.0608983
0.065269043
0.069275275
0.072910477
0.076177767
0.079087936
0.081657505
0.083906923
0.085859019
0.087537737
0.088967161
0.090170808
0.091171141
0.091989268
0.092644739
0.093155447
0.093537694
0.093806251
0.093974291
0.094053743
0.094055111
0.093987539
0.093861665
0.093681207
0.093454026
0.093188514
0.092888282
0.092550281
0.092195314
0.09180735
0.091402785
0.090978571
0.090539142
0.090086198
0.089620661
0.089144753
0.088659496
0.088165821
0.087664783
0.087157076
0.086643216
0.0024265095
0.0077149902
0.013369547
0.019310925
0.025447375
0.03167907
0.037903463
0.044021057
0.049940864
0.055584848
0.060890849
0.065813809
0.070325466
0.074412851
0.078075993
0.081325372
0.08417936
0.086661792
0.088799856
0.090622376
0.092158478
0.093436606
0.094483855
0.09532558
0.095985201
0.09648405
0.096841306
0.097074213
0.097198385
0.09722734
0.097173396
0.097049032
0.096857925
0.096614541
0.096325449
0.095997474
0.095625638
0.095234795
0.094807205
0.094362166
0.093895609
0.093413554
0.092917059
0.0924087
0.091890209
0.09136283
0.09082806
0.090286919
0.089740244
0.08918881
0.088633174
0.088073762
0.0026481771
0.0084415688
0.014647992
0.021170105
0.027894968
0.034700423
0.041462668
0.048064092
0.054400225
0.060384886
0.065953003
0.071061128
0.075686071
0.079822214
0.083478257
0.086673863
0.089436382
0.091797983
0.093793287
0.095457533
0.096825226
0.097929202
0.098800037
0.099465801
0.099952044
0.10028169
0.10047487
0.1005495
0.10052213
0.10040739
0.10021494
0.099959157
0.099641083
0.099286407
0.098878566
0.09844814
0.09797654
0.097485425
0.096970745
0.096439794
0.095893652
0.09533564
0.094767575
0.094191406
0.093608673
0.093020577
0.092428251
0.091832565
0.091234209
0.090633753
0.090031568
0.089427951
0.0028925604
0.0092467857
0.016067806
0.023235379
0.030609895
0.038041642
0.045381483
0.052491315
0.059252671
0.06557231
0.07138446
0.076650072
0.081353883
0.08550034
0.089109209
0.092211189
0.094843983
0.097049033
0.098868963
0.10034571
0.10151922
0.10242664
0.1031018
0.10357519
0.10387426
0.10402335
0.10404306
0.10395217
0.10376842
0.10350267
0.1031664
0.10278157
0.10233557
0.10186151
0.10134222
0.10079911
0.10023
0.099643249
0.099040317
0.098425287
0.097800279
0.097167708
0.096529352
0.095886799
0.095241339
0.094593998
0.093945646
0.093296959
0.092648455
0.09200053
0.091353311
0.090706984
0.0031626125
0.010141684
0.017649212
0.025535771
0.03362808
0.041742502
0.049699979
0.05733975
0.064529541
0.071171097
0.077201116
0.082588494
0.087329381
0.091441449
0.094958025
0.097922717
0.10038487
0.10239601
0.10400715
0.10526705
0.10622102
0.10691028
0.10737158
0.10763733
0.10773668
0.10769527
0.10753551
0.10727105
0.10692291
0.10650605
0.10602788
0.10550532
0.10493521
0.10433329
0.10370317
0.10305304
0.10238532
0.10170494
0.10101453
0.10031704
0.099614587
0.098909099
0.098202105
0.097494878
0.09678844
0.096083587
0.095380946
0.09468098
0.093984025
0.0034618061
0.011139429
0.019416341
0.028105677
0.036991529
0.04584863
0.054463047
0.062649691
0.07026373
0.077205178
0.083417473
0.088881917
0.093610251
0.097636784
0.10101099
0.10379121
0.10603956
0.10781822
0.10918683
0.11020084
0.11091068
0.11136135
0.11159197
0.11163618
0.11152548
0.11128647
0.11093708
0.11049375
0.10998801
0.1094069
0.10879025
0.10812279
0.10742482
0.10670278
0.10596136
0.10520624
0.10444077
0.10366858
0.10289228
0.10211419
0.10133616
0.1005597
0.099786018
0.099016086
0.098250637
0.097490214
0.096735197
0.095985829
0.095242225
0.0037942536
0.012255849
0.021398218
0.030986127
0.040749585
0.05041252
0.059721027
0.068464953
0.076489633
0.083698156
0.090046274
0.095533227
0.10019107
0.10407439
0.10725141
0.10979682
0.11178642
0.11329338
0.11438586
0.1151257
0.11556799
0.11576115
0.11574604
0.11555842
0.11522704
0.11477907
0.11423976
0.11361949
0.11294265
0.11220685
0.11143472
0.11063168
0.10980676
0.10896614
0.10811455
0.10725641
0.10639496
0.10553307
0.10467297
0.10381649
0.10296508
0.10211986
0.10128171
0.10045127
0.099628965
0.098815085
0.098009759
0.097212997
0.096424704
0.0041648618
0.01351015
0.023630059
0.034226403
0.044960498
0.055494747
0.065530458
0.074833188
0.083243114
0.090673019
0.09709816
0.10254229
0.107063
0.11073894
0.11365951
0.11591713
0.11760184
0.11879778
0.11958124
0.12001985
0.12017266
0.12009158
0.11982064
0.11938561
0.11882519
0.11817567
0.11743182
0.11663572
0.11577905
0.11488546
0.11396644
0.11302828
0.1120779
0.11112072
0.11016094
0.10920215
0.10824707
0.10729797
0.10635656
0.1054242
0.1045019
0.1035904
0.10269021
0.10180162
0.10092479
0.10005971
0.099206266
0.098364229
0.0975333
0.0045795332
0.014925877
0.026154986
0.037886132
0.049693387
0.061165472
0.071955034
0.081806327
0.090561477
0.098151892
0.1045813
0.10990555
0.11421343
0.11761148
0.12021239
0.12212725
0.1234604
0.12430653
0.12474935
0.12486138
0.12470612
0.12433757
0.12379346
0.1231044
0.12232006
0.12145108
0.12051351
0.11952068
0.11849432
0.11744466
0.11638094
0.11530947
0.1142359
0.11316472
0.11209941
0.11104276
0.10999688
0.1089634
0.10794351
0.10693806
0.10594762
0.10497252
0.10401289
0.1030687
0.10213979
0.10122588
0.10032659
0.099441478
0.09857003
0.0050454307
0.016532214
0.029026335
0.042038013
0.055030729
0.067506341
0.079066867
0.089441192
0.098483607
0.10615587
0.112501
0.11761557
0.12162569
0.12466931
0.12688405
0.12839992
0.12933504
0.12979381
0.12986623
0.12963126
0.12915043
0.12847256
0.1276546
0.12671514
0.1256931
0.12460011
0.12345497
0.12227914
0.12108465
0.11988073
0.11867498
0.11747296
0.11627917
0.11509713
0.11392947
0.11277819
0.11164471
0.11053003
0.10943476
0.10835925
0.10730361
0.10626775
0.10525144
0.1042543
0.10327587
0.10231558
0.1013728
0.10044687
0.09953707
0.0055713309
0.01836579
0.032310782
0.046771401
0.061071578
0.074612988
0.086948276
0.097800515
0.10705033
0.11470482
0.12085925
0.12566057
0.1292786
0.13188579
0.13364537
0.13470566
0.13519737
0.13523316
0.1349118
0.13430621
0.13347951
0.13250005
0.13139074
0.13019584
0.12892398
0.12760684
0.12626308
0.12490604
0.12354598
0.12219072
0.12084634
0.11951727
0.11820688
0.11691764
0.11565128
0.11440898
0.11319144
0.11199899
0.11083168
0.10968934
0.10857161
0.10747798
0.10640784
0.1053605
0.10433517
0.10333101
0.10234716
0.1013827
0.10043672
0.0061681015
0.020473217
0.036092661
0.052197102
0.067935808
0.082598465
0.095692656
0.10695109
0.11630104
0.12381397
0.12965225
0.13402325
0.1371461
0.13923019
0.1404642
0.14101304
0.14101788
0.14060306
0.1398572
0.13886075
0.13769578
0.13638694
0.13499537
0.13352097
0.13200665
0.13047261
0.12893252
0.12739732
0.1258753
0.12437259
0.12289369
0.12144175
0.12001892
0.1186266
0.11726558
0.1159362
0.11463839
0.11337185
0.11213603
0.11093023
0.10975363
0.10860532
0.10748431
0.10638957
0.10532002
0.10427455
0.10325203
0.10225135
0.1012714
0.0068493642
0.022914755
0.04048
0.058453888
0.075769948
0.091594275
0.10540091
0.11695839
0.12626836
0.13348943
0.13886715
0.1426787
0.14519641
0.14666755
0.14730553
0.14728896
0.14677311
0.1458686
0.14467675
0.1432972
0.14175795
0.14013663
0.13843079
0.13669094
0.13493942
0.13319171
0.13145907
0.12974998
0.12807058
0.12642514
0.12481652
0.12324645
0.12171583
0.12022496
0.11877365
0.11736138
0.11598734
0.11465055
0.11334988
0.11208412
0.11085198
0.10965214
0.10848325
0.10734396
0.1062329
0.10514867
0.10408992
0.10305532
0.10204357
0.0076324354
0.025769703
0.045613115
0.065717624
0.084750449
0.10174739
0.11617695
0.12788239
0.13697477
0.14372566
0.14847997
0.15159261
0.15339099
0.15415868
0.15413197
0.15350706
0.15242139
0.15100276
0.14937291
0.14756564
0.14567646
0.14370185
0.14170207
0.13970125
0.13771642
0.13575975
0.13383967
0.13196206
0.13013075
0.12834804
0.12661509
0.12493212
0.12329877
0.1217142
0.12017724
0.1186865
0.11724042
0.11583737
0.11447563
0.11315347
0.11186917
0.11062099
0.10940725
0.10822627
0.10707639
0.10595597
0.10486341
0.10379717
0.1027558
0.008539713
0.02914455
0.0516771
0.07420985
0.09508417
0.1132177
0.12812336
0.13977297
0.14842895
0.15450296
0.15845428
0.16072085
0.16168414
0.16166037
0.16091305
0.15961801
0.15793319
0.15600844
0.15388633
0.15168254
0.14939418
0.14709155
0.14480266
0.1425456
0.14033309
0.13817357
0.13607237
0.13403256
0.13205561