/*--------------------------------*- C++ -*----------------------------------*\
| =========                 |                                                 |
| \\      /  F ield         | OpenFOAM: The Open Source CFD Toolbox           |
|  \\    /   O peration     | Version:  2312                                  |
|   \\  /    A nd           | Website:  www.openfoam.com                      |
|    \\/     M anipulation  |                                                 |
\*---------------------------------------------------------------------------*/
FoamFile
{
    version     2.0;
    format      ascii;
    arch        "LSB;label=32;scalar=64";
    class       volScalarField;
    location    "0.07";
    object      k;
}
// * * * * * * * * * * * * * * * * * * * * * * * * * * * * * * * * * * * * * //

dimensions      [0 2 -2 0 0 0 0];

internalField   nonuniform List<scalar> 
3221
(
10.955272
10.875518
10.805998
10.746276
10.695567
10.652954
10.617441
10.588017
10.563711
10.543637
10.527074
10.513819
10.505838
10.515127
10.598653
10.672417
10.711657
10.75964
10.797795
10.83347
10.863913
10.889995
10.914527
10.935559
10.955974
10.973653
10.99067
11.005905
11.020327
11.033455
11.045949
11.057497
11.068375
11.078475
11.087954
11.096695
11.104772
11.112203
11.119069
11.125382
11.131193
11.136524
11.141372
11.145718
11.149527
11.152731
11.155281
11.157314
11.159809
11.166259
11.188123
11.188165
10.951625
10.868444
10.797028
10.735928
10.683987
10.640198
10.603578
10.573157
10.548002
10.527247
10.510117
10.496008
10.484777
10.477634
10.478684
10.485018
10.492766
10.506607
10.522896
10.54305
10.565348
10.590088
10.616621
10.644752
10.674297
10.704789
10.736277
10.768361
10.80094
10.833702
10.866617
10.899405
10.931942
10.963961
10.995255
11.025548
11.054728
11.082749
11.109648
11.13544
11.160159
11.183768
11.206224
11.227473
11.247468
11.266162
11.283524
11.299635
11.314972
11.330867
11.348738
11.363959
10.947646
10.856835
10.778902
10.712344
10.65582
10.608161
10.568293
10.535215
10.507995
10.485788
10.46784
10.453503
10.442287
10.433948
10.428617
10.426293
10.426495
10.429462
10.434786
10.442456
10.452231
10.464105
10.478007
10.493927
10.511852
10.531734
10.55356
10.57723
10.602674
10.629761
10.658392
10.688395
10.719606
10.751793
10.784714
10.818103
10.851749
10.885485
10.919187
10.952737
10.986018
11.018905
11.05127
11.082995
11.113982
11.144151
11.173455
11.201913
11.229692
11.257162
11.2847
11.311791
10.943994
10.845275
10.759713
10.686184
10.623459
10.570375
10.525843
10.488853
10.45848
10.433888
10.414332
10.399158
10.387811
10.379846
10.374944
10.372868
10.373344
10.376184
10.381223
10.388285
10.397253
10.408051
10.420629
10.434956
10.451006
10.468751
10.488156
10.509171
10.531744
10.555801
10.581264
10.608037
10.636014
10.665062
10.695036
10.725775
10.75713
10.788961
10.821142
10.85355
10.886063
10.918561
10.950929
10.983061
11.014863
11.046259
11.077189
11.10762
11.137559
11.167055
11.196137
11.224701
10.940861
10.835091
10.7423
10.661775
10.592526
10.533514
10.483726
10.4422
10.40805
10.38047
10.358732
10.342191
10.330274
10.322487
10.318413
10.317699
10.320004
10.325127
10.332798
10.3428
10.35495
10.369094
10.3851
10.402856
10.422263
10.443228
10.465664
10.48948
10.51458
10.54087
10.568252
10.596622
10.625874
10.655892
10.686555
10.717739
10.749319
10.781175
10.813192
10.845258
10.877268
10.909118
10.940715
10.971973
11.002817
11.033179
11.063005
11.092253
11.120894
11.148907
11.176264
11.202901
10.938367
10.826938
10.72814
10.641579
10.566501
10.502032
10.447279
10.401372
10.363495
10.332894
10.308879
10.290825
10.278164
10.270385
10.267036
10.267703
10.272014
10.279722
10.290491
10.304061
10.320196
10.33868
10.359318
10.38193
10.406349
10.432417
10.459981
10.488894
10.51901
10.550185
10.582274
10.615135
10.648625
10.682603
10.716928
10.751464
10.786077
10.820639
10.855027
10.889127
10.922833
10.956044
10.988672
11.020637
11.051869
11.082307
11.1119
11.140607
11.168392
11.195225
11.221077
11.245908
10.936555
10.821023
10.717763
10.626598
10.546962
10.478138
10.41936
10.369864
10.328918
10.295838
10.269982
10.250758
10.237614
10.230041
10.227572
10.229741
10.236204
10.246631
10.260654
10.277971
10.298296
10.321366
10.346932
10.374756
10.404615
10.43629
10.469576
10.50427
10.540173
10.577089
10.614826
10.653196
10.692017
10.731112
10.770309
10.809444
10.848361
10.886913
10.924962
10.962381
10.999054
11.034877
11.069755
11.103606
11.136361
11.16796
11.198353
11.227498
11.255362
11.281919
11.307144
11.331015
10.935416
10.817306
10.711174
10.616974
10.534283
10.462511
10.401006
10.349108
10.30617
10.271577
10.244745
10.225117
10.212165
10.205391
10.204322
10.208444
10.217479
10.230988
10.248591
10.269943
10.294718
10.322602
10.353295
10.386516
10.421992
10.459456
10.498644
10.539299
10.581171
10.624016
10.667598
10.711687
10.756063
10.800512
10.844831
10.888829
10.932327
10.975156
11.017163
11.058207
11.098162
11.136916
11.17437
11.210439
11.245053
11.278151
11.309687
11.339623
11.367929
11.394585
11.419577
11.442897
10.934913
10.815649
10.708157
10.612465
10.52825
10.455028
10.392242
10.339318
10.295692
10.260812
10.234147
10.21518
10.203407
10.198341
10.199486
10.206357
10.218653
10.235872
10.257621
10.28352
10.313202
10.346314
10.382513
10.421461
10.462827
10.50629
10.551536
10.598261
10.646167
10.694967
10.744382
10.794143
10.843993
10.893687
10.942994
10.991698
11.039598
11.08651
11.132265
11.176714
11.219721
11.261171
11.300963
11.339013
11.37525
11.40962
11.442081
11.472601
11.501161
11.527749
11.552363
11.575008
10.935007
10.815897
10.708445
10.612716
10.528462
10.455274
10.392676
10.340168
10.297251
10.263434
10.238231
10.221159
10.211739
10.209492
10.21387
10.224532
10.241019
10.262853
10.289598
10.320829
10.356133
10.395107
10.437354
10.482486
10.530125
10.579901
10.631449
10.684418
10.738463
10.793253
10.848469
10.903805
10.958973
11.013699
11.067727
11.120821
11.172764
11.223359
11.272429
11.319817
11.365388
11.409024
11.450628
11.49012
11.527437
11.562533
11.595374
11.625942
11.654229
11.680237
11.703978
11.725474
10.935661
10.81792
10.711804
10.617398
10.534504
10.462779
10.40181
10.35116
10.310389
10.279056
10.256716
10.242914
10.237188
10.239027
10.247942
10.263594
10.285411
10.312916
10.345636
10.383106
10.424865
10.470458
10.519436
10.571358
10.625791
10.68231
10.740502
10.799964
10.860307
10.921158
10.982161
11.042976
11.103286
11.162793
11.221223
11.278324
11.333868
11.387651
11.439493
11.489238
11.536753
11.581927
11.624672
11.664916
11.702611
11.737722
11.770231
11.800136
11.827445
11.852179
11.874367
11.894049
10.936852
10.821635
10.718089
10.626308
10.546134
10.477274
10.419366
10.372027
10.334864
10.307475
10.289447
10.280347
10.279719
10.286975
10.301852
10.323744
10.352131
10.386496
10.42632
10.471086
10.520277
10.57338
10.629888
10.689301
10.751128
10.814888
10.880114
10.946355
11.013178
11.080169
11.146938
11.213117
11.278363
11.342361
11.404823
11.465487
11.524123
11.580527
11.634521
11.685958
11.734715
11.780693
11.823818
11.864037
11.901316
11.935642
11.967017
11.995458
12.020994
12.043667
12.063529
12.080639
10.938567
10.826982
10.727189
10.639284
10.56314
10.498506
10.445066
10.402481
10.370396
10.348442
10.336228
10.333332
10.339208
10.353512
10.37573
10.405275
10.441595
10.484123
10.532283
10.585496
10.643182
10.704761
10.76966
10.837312
10.907166
10.978681
11.051337
11.124633
11.198094
11.27127
11.343739
11.41511
11.485023
11.55315
11.619197
11.682904
11.744042
11.802416
11.857862
11.910246
11.959462
12.005434
12.048107
12.087451
12.123458
12.156138
12.185517
12.211638
12.234555
12.254335
12.271052
12.284791
10.940797
10.833937
10.739058
10.656257
10.585436
10.526382
10.47882
10.442447
10.41694
10.401956
10.397115
10.401923
10.415995
10.438886
10.469976
10.50868
10.554388
10.606469
10.664278
10.727161
10.794461
10.865522
10.939697
11.016347
11.094853
11.174614
11.255055
11.335628
11.415818
11.495144
11.573159
11.649456
11.723665
11.795457
11.864541
11.930664
11.993612
12.053207
12.109307
12.161802
12.210613
12.255688
12.297005
12.334563
12.368382
12.398503
12.424982
12.447889
12.467309
12.483334
12.496068
12.505619
10.943545
10.842499
10.75369
10.677218
10.613016
10.560907
10.520653
10.491984
10.474604
10.468184
10.472286
10.486514
10.510496
10.543589
10.58519
10.634653
10.691293
10.754396
10.82323
10.897054
10.975118
11.05668
11.141008
11.227387
11.315124
11.403557
11.492058
11.580035
11.666939
11.752264
11.835549
11.916378
11.994385
12.069247
12.140689
12.208477
12.272424
12.332379
12.388231
12.439904
12.487353
12.530565
12.569551
12.604348
12.635011
12.661615
12.684251
12.703022
12.718045
12.729441
12.737342
12.741885
10.946815
10.852682
10.771109
10.702207
10.645939
10.602167
10.57069
10.551269
10.543627
10.547388
10.562172
10.587677
10.623262
10.668319
10.722171
10.784085
10.853279
10.928938
11.010224
11.096286
11.186271
11.279336
11.374655
11.471429
11.568894
11.666325
11.763043
11.85842
11.951882
12.042908
12.131034
12.21585
12.297002
12.374191
12.447168
12.515735
12.57974
12.639074
12.693667
12.743487
12.788533
12.828837
12.864451
12.895456
12.921948
12.944043
12.961867
12.97556
12.985273
12.991159
12.993381
12.992109
10.950618
10.864514
10.791365
10.731295
10.684309
10.650309
10.629134
10.620572
10.62431
10.640012
10.667446
10.705996
10.755062
10.813954
10.881896
10.95804
11.041485
11.131287
11.226478
11.326079
11.429117
11.534635
11.641707
11.749446
11.857013
11.963628
12.068568
12.171179
12.270873
12.367127
12.459489
12.547571
12.631049
12.709661
12.783201
12.85152
12.914515
12.97213
13.024349
13.071194
13.112717
13.148999
13.180147
13.206286
13.227559
13.244126
13.256153
13.263819
13.267314
13.26681
13.262561
13.25465
10.954964
10.878034
10.814522
10.764585
10.728271
10.705536
10.696258
10.7002
10.717093
10.746782
10.788698
10.842273
10.906818
10.981529
11.065499
11.157737
11.257188
11.362751
11.473303
11.587717
11.704881
11.823715
11.943186
12.062319
12.180205
12.296015
12.408996
12.518479
12.62388
12.724694
12.820497
12.91094
12.995749
13.074717
13.147698
13.214605
13.275399
13.330091
13.378729
13.421398
13.458211
13.48931
13.514854
13.535025
13.550013
13.560025
13.565274
13.565959
13.562381
13.554637
13.54302
13.527734
10.959868
10.893284
10.84066
10.802196
10.778004
10.768094
10.772338
10.790561
10.822703
10.868264
10.926732
10.997446
11.079594
11.172222
11.274255
11.384519
11.50177
11.624719
11.752059
11.882494
12.014759
12.147642
12.28
12.410775
12.538998
12.663803
12.784424
12.9002
13.010567
13.115059
13.213304
13.305016
13.389987
13.468085
13.539241
13.603447
13.660743
13.711216
13.754991
13.792222
13.823095
13.847813
13.866599
13.879688
13.887324
13.889763
13.887284
13.880112
13.868488
13.85269
13.832971
13.809577
10.965345
10.910314
10.869867
10.84427
10.833709
10.838212
10.857736
10.892353
10.94166
11.005232
11.082469
11.172578
11.274583
11.387338
11.509552
11.639826
11.776685
11.918617
12.064104
12.21166
12.359856
12.507344
12.652876
12.795319
12.933661
13.067018
13.194636
13.315881
13.43024
13.537311
13.636797
13.728496
13.812293
13.888147
13.956087
14.016195
14.068606
14.113494
14.151068
14.181565
14.205241
14.222371
14.233241
14.238152
14.237383
14.231325
14.220113
14.20415
14.183709
14.15908
14.130541
14.098363
10.97141
10.929174
10.902237
10.890956
10.895556
10.916182
10.953091
11.00602
11.074676
11.158559
11.256938
11.368848
11.493097
11.62829
11.772871
11.925164
12.083418
12.245862
12.410742
12.576363
12.741127
12.903551
13.062295
13.216169
13.36414
13.505338
13.639043
13.764682
13.881821
13.99015
14.089477
14.179709
14.260843
14.332952
14.396176
14.450706
14.49678
14.534671
14.56468
14.587128
14.602353
14.610699
14.612514
14.608224
14.598057
14.582417
14.561644
14.536082
14.506054
14.471877
14.433855
14.392282
10.978079
10.949917
10.93787
10.94236
10.963757
11.002572
11.058752
11.132191
11.222548
11.329209
11.451273
11.587541
11.736545
11.896578
12.065755
12.242065
12.423439
12.607808
12.793158
12.977579
13.159301
13.336721
13.508426
13.673196
13.830012
13.978047
14.116653
14.245353
14.363824
14.471884
14.569468
14.656622
14.733474
14.800232
14.857161
14.904574
14.942823
14.972285
14.993358
15.006458
15.012003
15.010407
15.002161
14.987516
14.96698
14.940938
14.909771
14.873852
14.833536
14.789165
14.741067
14.689555
10.985371
10.972597
10.976815
10.998608
11.038797
11.09762
11.17524
11.271554
11.386143
11.518238
11.666702
11.830037
12.00642
12.193759
12.389768
12.592043
12.798146
13.005682
13.212359
13.416049
13.614823
13.806982
13.99107
14.165877
14.330436
14.484004
14.626047
14.756223
14.874359
14.980428
15.074528
15.156861
15.227714
15.287439
15.336444
15.375174
15.404099
15.42371
15.434502
15.436985
15.43173
15.419085
15.399592
15.373726
15.341948
15.304696
15.262389
15.21543
15.164202
15.10907
15.050381
14.988464
10.993304
10.997219
11.019115
11.060112
11.120804
11.201726
11.303116
11.424853
11.566403
11.726781
11.904539
12.097791
12.304271
12.521414
12.746455
12.976537
13.208809
13.440521
13.669099
13.892207
14.107784
14.314069
14.509609
14.693251
14.864125
15.021623
15.165371
15.295205
15.411139
15.513334
15.602077
15.677751
15.740816
15.791787
15.831222
15.859705
15.877832
15.886209
15.885418
15.876206
15.85886
15.834117
15.802503
15.764538
15.720725
15.671539
15.617435
15.558841
15.496164
15.429787
15.360073
15.287363
11.001878
11.023766
11.065118
11.126886
11.210049
11.315309
11.442976
11.592887
11.764338
11.956047
12.166163
12.392308
12.631666
12.8811
13.137288
13.396853
13.656496
13.913098
14.163811
14.406117
14.637863
14.857277
15.062965
15.253887
15.429328
15.588868
15.732344
15.859813
15.971511
16.067822
16.149243
16.216359
16.269816
16.310305
16.33854
16.355248
16.361153
16.357014
16.343503
16.321214
16.290867
16.253101
16.208515
16.157678
16.101131
16.039385
15.97292
15.90219
15.827617
15.749599
15.668511
15.584705
11.011038
11.052528
11.114746
11.199088
11.30681
11.438805
11.595452
11.776503
11.981012
12.207305
12.453006
12.715118
12.990155
13.274304
13.563599
13.854091
14.142003
14.423851
14.696538
14.957407
15.204274
15.43542
15.649574
15.845876
16.023831
16.183268
16.324282
16.447193
16.552497
16.640825
16.712908
16.769546
16.811586
16.839894
16.855348
16.85882
16.851263
16.833296
16.805787
16.76953
16.725246
16.673628
16.615325
16.550949
16.481075
16.406243
16.326956
16.243684
16.156861
16.066898
15.974174
15.879051
11.020896
11.083342
11.168058
11.276865
11.411362
11.572664
11.761201
11.976588
12.217541
12.481864
12.766514
13.067729
13.381216
13.702374
14.026514
14.349069
14.665777
14.97281
15.266867
15.545221
15.805727
16.046799
16.267369
16.46683
16.644977
16.801943
16.938135
17.054174
17.150845
17.229049
17.28977
17.334033
17.362889
17.377385
17.378555
17.3676
17.345084
17.312167
17.269726
17.218598
17.15957
17.093384
17.020732
16.942263
16.858579
16.770243
16.677773
16.581652
16.482324
16.380202
16.275663
16.169084
11.031419
11.11624
11.22511
11.360352
11.523977
11.717342
11.940906
12.194064
12.47507
12.781049
13.108118
13.45158
13.806191
14.166448
14.526869
14.882245
15.227839
15.559527
15.873875
16.16817
16.440398
16.689197
16.913788
17.113901
17.28969
17.441649
17.570538
17.677317
17.763085
17.829034
17.876404
17.906457
17.920446
17.919598
17.905315
17.878282
17.839836
17.791004
17.73275
17.665974
17.591521
17.510176
17.422666
17.329666
17.231802
17.129649
17.023742
16.914564
16.802565
16.688159
16.571711
16.453614
11.042597
11.151223
11.285934
11.449666
11.644914
11.873299
12.135262
12.42987
12.754752
13.106164
13.479177
13.867975
14.266209
14.667369
15.065127
15.45363
15.82771
16.183016
16.516081
16.824306
17.105916
17.359877
17.585797
17.783822
17.954529
18.098826
18.217869
18.312983
18.385601
18.437213
18.469327
18.483433
18.481018
18.463619
18.432173
18.388177
18.332823
18.267225
18.192417
18.109356
18.018931
17.921965
17.819209
17.711358
17.599054
17.482882
17.363379
17.241031
17.116282
16.989548
16.861196
16.731589
11.054414
11.188269
11.350536
11.544898
11.774418
12.04099
12.344966
12.684941
13.057717
13.458443
13.880919
14.318005
14.762099
15.205592
15.641288
16.062713
16.464341
16.841703
17.19141
17.511104
17.799371
18.055615
18.279928
18.472949
18.635739
18.769669
18.876319
18.9574
19.014691
19.049987
19.065058
19.061673
19.041582
19.005937
18.956469
18.894552
18.821468
18.738402
18.646446
18.546603
18.439795
18.326875
18.20861
18.085706
17.958815
17.82852
17.695362
17.559824
17.422335
17.283306
17.14311
17.002078
11.066853
11.227334
11.418888
11.646108
11.912707
12.220852
12.570701
12.960182
13.38502
13.838988
14.314354
14.802453
15.294286
15.781087
16.254793
16.708377
17.136062
17.533387
17.897182
18.225474
18.51734
18.772738
18.992331
19.177327
19.329324
19.450191
19.541958
19.606732
19.646641
19.663784
19.660248
19.638073
19.598612
19.543878
19.475464
19.394841
19.303367
19.202288
19.092741
18.975762
18.852296
18.723216
18.589298
18.45125
18.309731
18.165312
18.018528
17.869861
17.719724
17.568515
17.416596
17.264285
11.079884
11.268346
11.490929
11.753315
12.059968
12.413293
12.813106
13.256424
13.737586
14.24868
14.780175
15.321678
15.86268
16.393229
16.904439
17.388837
17.840527
18.255215
18.630113
18.963786
19.255934
19.507178
19.718842
19.892761
20.031119
20.136306
20.210814
20.257152
20.277785
20.275182
20.251765
20.20906
20.149429
20.074713
19.986609
19.886669
19.776314
19.656834
19.529402
19.395075
19.254808
19.109489
18.95989
18.806715
18.650621
18.492169
18.331878
18.170218
18.007595
17.844386
17.680936
17.517549
11.093468
11.311205
11.566552
11.866498
12.216342
12.61867
13.072746
13.574361
14.116117
14.688074
15.278632
15.875488
16.466552
17.040695
17.588299
18.10158
18.574694
19.003691
19.386346
19.721914
20.010853
20.254547
20.455056
20.614897
20.736868
20.823897
20.878944
20.904909
20.904604
20.881083
20.83594
20.771974
20.691317
20.595922
20.487571
20.367882
20.23832
20.10021
19.954743
19.802992
19.645912
19.484385
19.319186
19.151005
18.980479
18.808166
18.634564
18.460125
18.285241
18.11027
17.935536
17.761326
11.107557
11.355776
11.645603
11.985577
12.381914
12.837262
13.350054
13.914474
14.520982
15.157259
15.809378
16.462994
17.1044
17.721358
18.303645
18.84333
19.334817
19.774701
20.161497
20.495307
20.777466
21.010216
21.196415
21.339303
21.442306
21.5089
21.542501
21.546387
21.524085
21.477665
21.410158
21.324116
21.221788
21.105215
20.97625
20.836554
20.687625
20.530807
20.367297
20.19817
20.024382
19.846793
19.66617
19.483189
19.298465
19.11254
18.925892
18.738951
18.552091
18.365648
18.179926
17.995192
11.122088
11.401885
11.727874
12.110415
12.55669
13.069226
13.645259
14.276911
14.952062
15.655676
16.371291
17.082438
17.773822
18.432199
19.046895
19.610033
20.116475
20.563561
20.950726
21.279062
21.550896
21.769405
21.938296
22.061553
22.143241
22.187369
22.197799
22.178538
22.132333
22.062371
21.971739
21.863036
21.738605
21.600556
21.450792
21.291005
21.122705
20.947241
20.765813
20.57948
20.38919
20.195783
20.000005
19.802514
19.6039
19.404681
19.205314
19.006203
18.807702
18.610126
18.413752
18.218828
11.136985
11.449321
11.813098
12.240798
12.74057
13.314539
13.958276
14.661326
15.408553
16.181911
16.962268
17.731025
18.471382
19.169218
19.81359
20.39688
20.914621
21.365093
21.74882
22.068023
22.326117
22.52728
22.6761
22.777316
22.835623
22.855544
22.841688
22.797631
22.726675
22.632554
22.518278
22.386554
22.239797
22.08017
21.909599
21.729793
21.542264
21.348352
21.149245
20.945987
20.739503
20.53061
20.320028
20.10839
19.896257
19.684122
19.472416
19.261516
19.051754
18.843418
18.636765
18.432019
11.152157
11.497824
11.900944
12.376424
12.933308
13.572909
14.288556
15.06667
15.88871
16.733423
17.578983
18.404737
19.19249
19.927389
20.5984
21.198358
21.723659
22.173717
22.550301
22.856885
23.098059
23.279049
23.405343
23.482431
23.515619
23.510111
23.470736
23.400709
23.304582
23.185857
23.047654
22.892771
22.72367
22.542541
22.351322
22.151717
21.945233
21.733191
21.516757
21.296952
21.074672
20.850703
20.625738
20.400378
20.175155
19.950531
19.726911
19.504644
19.284034
19.065345
18.848814
18.634638
11.1675
11.547092
11.991009
12.516884
13.13445
13.84364
14.634864
15.490897
16.389518
17.306234
18.216632
19.098145
19.931307
20.70065
21.395175
22.008329
22.537554
22.983569
23.349544
23.640314
23.861715
24.020058
24.121737
24.172979
24.179723
24.148051
24.081582
23.985406
23.863744
23.720223
23.558049
23.380079
23.188801
22.986415
22.774852
22.555808
22.330766
22.101021
21.86771
21.631821
21.394217
21.155652
20.916782
20.678179
20.440341
20.203698
19.968626
19.735446
19.504433
11.182893
11.59677
12.082812
12.661627
13.343245
14.125445
14.994982
15.930579
16.906288
17.89456
18.868642
19.804243
20.680695
21.481932
22.197029
22.820155
23.34996
23.788638
24.140902
24.413056
24.612243
24.745883
24.821271
24.84533
24.825121
24.765718
24.672048
24.549461
24.402178
24.233915
24.047944
23.847151
23.634032
23.410786
23.179326
22.941322
22.698226
22.451301
22.201644
21.950208
21.697818
21.445191
21.192948
20.941624
20.691683
20.443525
20.197493
19.953879
19.712932
11.198197
11.646457
12.175784
12.809914
13.558498
14.416163
15.365281
16.3804
17.432151
18.490383
19.526383
20.514312
21.432212
22.263245
22.996478
23.626854
24.154384
24.582911
24.918845
25.170062
25.345069
25.452411
25.50028
25.496481
25.448519
25.360776
25.239936
25.090968
24.918231
24.725507
24.516109
24.292928
24.058465
23.814896
23.564105
23.307727
23.047175
22.78367
22.51827
22.251884
21.985299
21.719192
21.454145
21.190658
20.929158
20.670013
20.413535
20.159985
19.909587
11.21326
11.695696
12.269253
12.960738
13.778356
14.712348
15.740131
16.83249
17.957447
19.082984
20.178885
21.217831
22.176167
23.035832
23.785629
24.421291
24.944357
25.360531
25.67809
25.906595
26.055974
26.135909
26.155505
26.123883
26.046924
25.931301
25.783425
25.608369
25.410573
25.193869
24.961592
24.716625
24.461453
24.198217
23.928764
23.654686
23.377351
23.097935
22.81745
22.536763
22.256616
21.977646
21.700396
21.425328
21.152836
20.883252
20.616856
20.353883
20.094526
11.227909
11.743976
12.362412
13.112689
13.99997
15.008676
16.111096
17.275575
18.468983
19.658426
20.81257
21.902448
22.901767
23.790389
24.556422
25.196398
25.713629
26.115952
26.413725
26.618329
26.741171
26.793085
26.784474
26.7244
26.618667
26.47553
26.301051
26.100436
25.878184
25.638169
25.383723
25.117708
24.842577
24.56043
24.27307
23.982039
23.688657
23.394051
23.099186
22.804882
22.511839
22.220651
21.931821
21.645775
21.362871
21.083407
20.807634
20.535756
20.267939
11.241952
11.790718
12.45426
13.263731
14.218969
15.297081
16.4658
17.693858
18.94917
20.199023
21.411027
22.554051
23.597359
24.517381
25.300921
25.945422
26.456359
26.84409
27.121328
27.301434
27.397379
27.421184
27.384932
27.295797
27.162204
26.992113
26.791698
26.566262
26.320353
26.057856
25.782085
25.495872
25.201629
24.90141
24.596966
24.289787
23.981142
23.672108
23.3636
23.056392
22.75114
22.448397
22.148626
21.852215
21.559488
21.270712
20.986104
20.705843
20.430067
11.25517
11.835262
12.543499
13.410811
14.428638
15.565499
16.786363
18.065592
19.375192
20.682801
21.954831
23.156973
24.250808
25.207437
26.011651
26.662173
27.1673
27.540453
27.797059
27.952648
28.021831
28.01822
27.954405
27.836885
27.676264
27.48005
27.254591
27.005268
26.736655
26.452633
26.156492
25.851024
25.538593
25.221203
24.90055
24.578072
24.254983
23.932311
23.61092
23.29154
22.974781
22.661156
22.351089
22.044932
21.742975
21.445453
21.152555
20.86443
20.581193
11.267299
11.876817
12.628327
13.549199
14.618619
15.796053
17.061213
18.389001
19.750423
21.112817
22.44149
23.700177
24.850022
25.851849
26.681958
27.341269
27.841959
28.201258
28.437735
28.56931
28.612315
28.582728
28.491111
28.346669
28.159991
27.938709
27.689285
27.41716
27.126922
26.822439
26.506969
26.183257
25.85362
25.520007
25.184059
24.847159
24.51047
24.174966
23.841467
23.510655
23.183098
22.859267
22.539552
22.224267
21.91367
21.607967
21.307317
21.011844
20.721638
11.277988
11.914379
12.706069
13.671325
14.772822
15.987371
17.294382
18.66797
20.078451
21.492659
22.874879
24.187355
25.390274
26.443155
27.306383
27.978356
28.476736
28.823499
29.040864
29.149417
29.167425
29.112952
28.994433
28.824404
28.612907
28.367792
28.095628
27.801906
27.491221
27.167419
26.833723
26.492832
26.14701
25.798152
25.447846
25.09742
24.747985
24.400467
24.055638
23.714136
23.376488
23.043127
22.714406
22.390606
22.071954
21.758626
21.450756
21.148441
20.851749
11.286705
11.946554
12.772476
13.76474
14.894511
16.143774
17.489903
18.90633
20.362922
21.825973
23.258781
24.622269
25.875425
26.976189
27.880992
28.570272
29.069
29.404982
29.604685
29.691545
29.686334
29.607764
29.464013
29.269795
29.034877
28.767301
28.473735
28.159711
27.829825
27.487902
27.137126
26.780151
26.419189
26.056082
25.692365
25.329315
24.967992
24.609276
24.253893
23.902439
23.555402
23.213178
22.876085
22.544373
22.218239
21.897832
21.583262
21.274602
20.971897
11.292503
11.971212
12.820445
13.831276
14.988001
16.269502
17.651734
19.107834
20.607464
22.116388
23.596913
25.008676
26.309378
27.455591
28.403552
29.115136
29.617105
29.94436
30.128128
30.194875
30.168678
30.066707
29.899758
29.682894
29.426074
29.137507
28.823953
28.490979
28.143184
27.78437
27.417684
27.045736
26.670688
26.294333
25.918154
25.543379
25.171021
24.801916
24.436745
24.076067
23.720331
23.3699
23.025056
22.686023
22.352965
22.026013
21.70525
21.390727
21.082468
11.293483
11.984806
12.845151
13.875393
15.057718
16.368704
17.783716
19.276126
20.815641
22.367487
23.892922
25.350278
26.695897
27.884939
28.872146
29.612332
30.120409
30.441051
30.610802
30.659295
30.614061
30.490174
30.301889
30.064057
29.786938
29.478913
29.146829
28.796292
28.431901
28.057439
27.67602
27.290211
26.902129
26.513519
26.125817
25.740206
25.357654
24.978953
24.604748
24.235558
23.871798
23.513798
23.161811
22.81603
22.476592
22.143612
21.817149
21.49723
21.183862
11.285564
11.979598
12.852001
13.901985
15.108134
16.445402
17.889527
19.414717
20.990926
22.582782
24.150378
25.650688
27.03867
28.26801
29.291927
30.062848
30.579144
30.895191
31.052913
31.085113
31.022742
30.87876
30.670979
30.413913
30.118141
29.792218
29.44308
29.076374
28.696702
28.307832
27.912848
27.514279
27.114201
26.714314
26.316013
25.920436
25.528512
25.140993
24.758486
24.381477
24.01035
23.645402
23.286859
22.934886
22.589592
22.251086
21.919397
21.594534
21.276484
11.271384
11.961759
12.846674
13.916164
15.143662
16.503421
17.972649
19.526968
21.136695
22.765707
24.372762
25.913431
27.341265
28.608428
29.66685
30.468279
30.994235
31.307532
31.455157
31.473109
31.395416
31.233322
31.007874
30.733318
30.420545
30.078283
29.713561
29.332067
28.938414
28.536357
28.128956
27.718707
27.307648
26.89744
26.489439
26.084744
25.684246
25.288662
24.898565
24.51441
24.136548
23.765253
23.400722
23.043096
11.252776
11.93648
12.834974
13.923084
15.168515
16.546317
18.036342
19.616086
21.256216
22.919603
24.563465
26.14191
27.607088
28.909676
30.000291
30.830481
31.367145
31.679298
31.818694
31.82444
31.733091
31.554973
31.31364
31.023311
30.695165
30.338097
29.959232
29.564303
29.157939
28.743887
28.325187
27.904307
27.483253
27.063652
26.646822
26.233829
25.825529
25.422608
25.025607
24.634951
24.250967
23.8739
23.503927
23.141167
11.231267
11.908943
12.822933
13.927754
15.186542
16.577301
18.08362
19.685118
21.352647
23.047728
24.725761
26.339366
27.839445
29.175044
30.295369
31.151392
31.699727
32.012155
32.14501
32.140607
32.037044
31.844993
31.589503
31.285071
30.94313
30.572744
30.181133
29.774081
29.356235
28.93134
28.502422
28.071925
27.641827
27.213725
26.788906
26.368404
25.953045
25.543484
25.140237
24.743701
24.35418
23.971895
23.597002
23.229603
11.208496
11.884977
12.816809
13.934772
15.20105
16.59917
18.117236
19.736941
21.429028
23.153221
24.862766
26.508937
28.041456
29.407638
30.555143
31.43351
31.994243
32.308076
32.435883
32.423217
32.308863
32.104772
31.836811
31.519874
31.165654
30.783376
30.380361
29.962444
29.534295
29.099664
28.661565
28.222424
27.784195
27.348448
26.916444
26.489188
26.06748
25.651949
25.243085
24.841263
24.446763
24.059788
23.680473
23.308904
11.186664
11.87173
12.822754
13.947939
15.214606
16.614244
18.139669
19.774274
21.488264
23.239064
24.977478
26.653608
28.216027
29.610411
30.782584
31.680571
32.25326
32.569242
32.693302
32.67393
32.550296
32.335838
32.056993
31.729064
31.364
30.971186
30.558043
30.13046
29.693135
29.249823
28.803532
28.356675
27.911185
27.468611
27.030189
26.5969
26.169521
25.748657
25.334776
24.928232
24.529286
24.138122
23.754859
23.379566
11.169252
11.878023
12.846294
13.969764
15.228859
16.624336
18.153132
19.799685
21.533047
23.308086
25.072743
26.776049
28.365969
29.786136
30.980413
31.895764
32.479383
32.79794
32.919335
32.894573
32.763104
32.539785
32.251526
31.914019
31.539459
31.137387
30.715321
30.279207
29.833772
29.382781
28.929239
28.475548
28.023625
27.575
27.130889
26.692252
26.259845
25.834253
25.415924
25.005194
24.602308
24.20743
23.820669
23.442076
11.162113
11.914366
12.890936
14.000882
15.244411
16.630745
18.159543
19.815538
21.565939
23.362915
25.151049
26.878819
28.49394
29.937282
31.151218
32.081895
32.67517
32.99648
33.116075
33.087036
32.949053
32.718225
32.421901
32.076127
31.693326
31.283192
30.853336
30.409761
29.957222
29.499498
29.039594
28.579902
28.12233
27.66839
27.21928
26.775944
26.339118
25.909371
25.487133
25.072726
24.666376
24.268236
23.8784
23.496907
11.175651
11.990705
12.956157
14.039574
15.260808
16.63431
18.160711
19.823957
21.589368
23.405922
25.214617
26.964338
28.602285
30.066121
31.297413
32.241489
32.843073
33.167133
33.2856
33.253213
33.109887
32.872765
32.569601
32.216762
31.826884
31.409802
30.973214
30.52318
30.064484
29.600917
29.135487
28.670584
28.208101
27.749539
27.296083
26.84866
26.407991
25.974629
25.548992
25.131385
24.722023
24.321046
23.928536
23.544522
11.231428
12.108782
13.03519
14.081755
15.276755
16.635505
18.158093
19.826988
21.605474
23.439007
25.26566
27.03484
28.69303
30.174768
31.421199
32.376842
32.985415
33.312088
33.429927
33.39496
33.247313
33.004974
32.696079
32.337275
31.941393
31.518394
31.076061
30.620503
30.156535