/*--------------------------------*- C++ -*----------------------------------*\
| =========                 |                                                 |
| \\      /  F ield         | OpenFOAM: The Open Source CFD Toolbox           |
|  \\    /   O peration     | Version:  2312                                  |
|   \\  /    A nd           | Website:  www.openfoam.com                      |
|    \\/     M anipulation  |                                                 |
\*---------------------------------------------------------------------------*/
FoamFile
{
    version     2.0;
    format      ascii;
    arch        "LSB;label=32;scalar=64";
    class       volScalarField;
    location    "0.07";
    object      Ma;
}
// * * * * * * * * * * * * * * * * * * * * * * * * * * * * * * * * * * * * * //

dimensions      [0 0 0 0 0 0 0];

internalField   nonuniform List<scalar> 
3221
(
0.0031473695
0.0030859244
0.0030052043
0.0029107043
0.0028075826
0.0026985996
0.002586139
0.0024727959
0.0023616724
0.0022567781
0.0021642442
0.0020950872
0.0020676086
0.0021384455
0.0023447339
0.0022564376
0.0021058809
0.0019377437
0.001868652
0.0017728837
0.0017384203
0.0016963207
0.0016733933
0.0016479157
0.001629355
0.0016102755
0.0015940924
0.0015758181
0.0015569077
0.0015356021
0.0015125991
0.0014873472
0.0014603168
0.0014313088
0.0014006006
0.0013680906
0.0013338725
0.0012978127
0.0012598342
0.0012196807
0.0011770472
0.0011313902
0.0010819292
0.001027362
0.0009655673
0.00089287629
0.00080277892
0.0006840185
0.00052055552
0.00034544064
0.00048953502
0.00080137187
0.0031605023
0.0031120013
0.0030377327
0.0029448328
0.0028420333
0.0027343291
0.0026250577
0.0025172426
0.0024138796
0.0023183442
0.0022344268
0.0021666191
0.0021192885
0.0020977766
0.0021072441
0.0020763059
0.0019812464
0.0018634989
0.001754012
0.0016387366
0.0015484645
0.0014677008
0.0014014811
0.0013450395
0.0012969621
0.0012501114
0.001204033
0.0011610272
0.0011212738
0.001085309
0.0010535858
0.0010259342
0.0010019661
0.00098134135
0.00096344506
0.0009477791
0.00093374173
0.00092084486
0.00090853893
0.00089635479
0.00088374859
0.00087015168
0.0008548564
0.0008368877
0.00081496007
0.00078704194
0.00075023839
0.00070017308
0.00063050695
0.00053540595
0.00043512603
0.00045748912
0.0031621433
0.0031335198
0.0030784435
0.0030036654
0.0029171806
0.0028243814
0.002729084
0.0026344054
0.0025430083
0.0024572769
0.0023792837
0.0023106537
0.0022521794
0.0022027985
0.0021578481
0.0021047425
0.0020365298
0.0019576849
0.0018744121
0.0017921288
0.0017181794
0.0016536983
0.0015994033
0.0015534527
0.0015148425
0.0014806528
0.0014499305
0.0014224826
0.0013983678
0.0013771276
0.0013589667
0.0013435657
0.0013307747
0.001320276
0.0013118168
0.0013050555
0.0012997076
0.0012954504
0.0012919872
0.001288988
0.0012861093
0.0012829216
0.0012789191
0.001273393
0.0012654423
0.001253813
0.001236811
0.0012123482
0.0011780072
0.0011325253
0.0010797814
0.0010339079
0.0031645546
0.0031501993
0.0031140513
0.0030599869
0.0029939264
0.0029204682
0.0028431303
0.0027647438
0.0026875445
0.0026132778
0.0025432078
0.0024780268
0.0024176891
0.0023610554
0.0023054998
0.0022469952
0.0021834811
0.0021148096
0.0020435799
0.0019740317
0.0019088662
0.001850044
0.001798743
0.0017549716
0.0017180508
0.0016869176
0.0016607046
0.0016387009
0.0016204896
0.0016057153
0.001594177
0.0015856551
0.0015799242
0.0015767313
0.0015757953
0.0015768107
0.0015794564
0.0015834009
0.0015883013
0.0015937983
0.0015995093
0.0016050013
0.00160979
0.0016132901
0.0016148171
0.0016135705
0.0016086348
0.0015991035
0.0015843159
0.0015645142
0.0015419712
0.0015218765
0.0031662209
0.0031627342
0.0031426942
0.0031075644
0.0030611951
0.003007027
0.002947905
0.0028861538
0.0028235854
0.0027615439
0.0027009222
0.0026421517
0.0025851652
0.002529318
0.002473435
0.0024160783
0.0023564248
0.0022944856
0.0022314686
0.0021693058
0.0021098611
0.0020548946
0.0020053574
0.0019615772
0.0019235903
0.0018910023
0.0018633113
0.001840033
0.0018207818
0.0018052498
0.0017932056
0.001784435
0.0017787291
0.0017758547
0.0017755548
0.0017775421
0.0017815069
0.0017871183
0.0017940298
0.0018018763
0.0018102769
0.0018188234
0.0018270847
0.0018345954
0.0018408671
0.0018454046
0.0018477434
0.0018475457
0.0018447403
0.0018397762
0.001833886
0.0018290831
0.003167353
0.0031717536
0.0031642388
0.0031445851
0.00311496
0.003077695
0.0030348944
0.0029883417
0.00293945
0.0028892713
0.0028385173
0.0027875786
0.0027365418
0.0026852024
0.002633151
0.0025799348
0.0025253499
0.0024696057
0.0024134356
0.0023579671
0.0023044569
0.0022541017
0.0022077688
0.002165982
0.0021289554
0.0020966234
0.0020687674
0.002045104
0.0020253507
0.0020092465
0.0019965661
0.0019870988
0.0019806378
0.0019769636
0.001975838
0.0019770007
0.0019801696
0.0019850446
0.0019913105
0.0019986395
0.0020066951
0.0020151314
0.002023601
0.0020317565
0.0020392664
0.0020458349
0.002051235
0.0020553606
0.0020583005
0.0020604063
0.0020623465
0.0020650306
0.0031681533
0.0031780764
0.0031798137
0.0031720522
0.003155726
0.0031322611
0.0031031065
0.0030695567
0.0030326744
0.0029932812
0.0029519746
0.0029091533
0.0028650437
0.0028197287
0.0027732097
0.002725491
0.0026766997
0.0026271704
0.0025774933
0.0025284704
0.0024809996
0.0024359589
0.0023940758
0.0023558747
0.0023216517
0.002291503
0.0022653745
0.0022431171
0.0022245378
0.0022094264
0.002197572
0.0021887642
0.0021827914
0.0021794334
0.0021784567
0.0021796128
0.0021826384
0.0021872577
0.0021931857
0.0022001317
0.0022078051
0.0022159178
0.0022241931
0.0022323715
0.0022402242
0.0022475681
0.002254288
0.0022603595
0.0022658835
0.0022710971
0.0022763664
0.0022821472
0.0031687539
0.0031825085
0.0031909194
0.0031920198
0.0031858959
0.0031732952
0.0031551421
0.0031323289
0.0031056273
0.0030756709
0.0030429675
0.0030079196
0.002970846
0.0029320026
0.0028916184
0.0028499366
0.0028072681
0.0027640323
0.0027207752
0.0026781512
0.0026368671
0.0025976163
0.0025610047
0.0025275056
0.002497434
0.0024709519
0.0024480899
0.00242878
0.002412888
0.0024002423
0.0023906493
0.0023838999
0.0023797779
0.0023780579
0.0023785047
0.0023808736
0.0023849111
0.0023903574
0.00239695
0.002404427
0.0024125327
0.002421022
0.0024296677
0.0024382665
0.0024466494
0.0024546904
0.0024623198
0.0024695339
0.0024764077
0.0024830884
0.0024897862
0.0024967419
0.0031692446
0.0031856967
0.0031989079
0.0032065516
0.0032081564
0.0032039856
0.0031945683
0.0031804838
0.0031622724
0.0031404159
0.0031153457
0.003087457
0.003057121
0.0030246954
0.0029905389
0.0029550285
0.002918581
0.0028816691
0.002844826
0.0028086334
0.0027736903
0.0027405749
0.0027097991
0.0026817783
0.0026568086
0.0026350655
0.0026166119
0.0026014178
0.0025893838
0.0025803581
0.0025741551
0.0025705694
0.0025693802
0.0025703561
0.0025732584
0.0025778425
0.0025838604
0.0025910631
0.0025992041
0.002608043
0.0026173503
0.0026269111
0.0026365319
0.0026460443
0.0026553128
0.0026642401
0.0026727733
0.0026809059
0.0026886845
0.0026961993
0.0027035684
0.002710929
0.003169687
0.0031881115
0.0032048245
0.0032173275
0.0032247973
0.0032271629
0.0032246666
0.0032176539
0.0032064888
0.0031915343
0.0031731583
0.0031517425
0.0031276865
0.0031014075
0.0030733408
0.0030439417
0.0030136891
0.0029830875
0.0029526644
0.0029229591
0.0028945026
0.0028677933
0.0028432692
0.0028212873
0.0028021067
0.0027858864
0.0027726879
0.0027624882
0.0027551948
0.002750662
0.0027487059
0.0027491164
0.0027516666
0.0027561189
0.0027622299
0.002769754
0.0027784464
0.0027880659
0.0027983786
0.0028091606
0.0028202025
0.0028313121
0.0028423195
0.0028530799
0.0028634787
0.0028734332
0.0028828966
0.0028918576
0.0029003399
0.0029083953
0.0029160962
0.0029235201
0.0031701218
0.0031900746
0.0032094131
0.0032255835
0.0032375516
0.0032450221
0.0032480357
0.0032467704
0.0032414614
0.0032323837
0.0032198571
0.0032042508
0.0031859808
0.0031655017
0.0031432966
0.0031198684
0.0030957329
0.003071412
0.0030474259
0.0030242824
0.0030024613
0.0029823983
0.0029644671
0.0029489653
0.0029361046
0.0029260079
0.0029187128
0.0029141798
0.0029123047
0.0029129323
0.0029158693
0.0029208958
0.0029277756
0.0029362635
0.0029461109
0.0029570705
0.0029689
0.0029813649
0.0029942419
0.0030073215
0.0030204109
0.0030333366
0.0030459474
0.0030581166
0.0030697444
0.0030807594
0.0030911188
0.0031008067
0.0031098342
0.0031182329
0.0031260453
0.0031333226
0.0031705749
0.0031917999
0.0032131843
0.0032321887
0.0032476635
0.0032591679
0.0032666065
0.0032700426
0.0032696234
0.0032655648
0.0032581557
0.0032477596
0.0032348066
0.0032197788
0.0032031924
0.0031855815
0.0031674835
0.0031494274
0.003131922
0.0031154447
0.0031004292
0.0030872536
0.0030762286
0.0030675899
0.003061492
0.0030580083
0.0030571352
0.0030587999
0.0030628712
0.0030691715
0.0030774889
0.0030875883
0.0030992209
0.0031121322
0.0031260684
0.0031407807
0.0031560298
0.003171588
0.0031872427
0.0032027978
0.0032180762
0.0032329216
0.0032471998
0.0032608002
0.003273637
0.0032856487
0.0032967982
0.0033070708
0.0033164714
0.0033250207
0.0033327512
0.003339698
0.0031710635
0.0031934296
0.0032164866
0.0032377487
0.0032560152
0.0032707562
0.0032817891
0.0032891051
0.0032927985
0.0032930527
0.0032901445
0.0032844425
0.0032763951
0.0032665097
0.0032553296
0.0032434112
0.0032313045
0.0032195373
0.0032086006
0.0031989378
0.0031909338
0.0031849068
0.0031811011
0.0031796834
0.003180742
0.0031842892
0.003190267
0.0031985561
0.0032089865
0.0032213485
0.0032354046
0.0032508996
0.0032675699
0.0032851515
0.0033033856
0.0033220235
0.0033408298
0.0033595855
0.0033780895
0.0033961602
0.0034136369
0.0034303804
0.003446274
0.0034612235
0.0034751574
0.0034880263
0.0034998016
0.0035104728
0.0035200464
0.0035285419
0.0035359862
0.003542413
0.0031715996
0.0031950612
0.0032195628
0.0032426922
0.0032632404
0.0032806286
0.0032946241
0.0033051803
0.0033123688
0.0033163657
0.0033174549
0.0033160241
0.003312548
0.0033075627
0.0033016369
0.003295345
0.0032892429
0.0032838491
0.0032796292
0.0032769848
0.0032762445
0.003277659
0.0032813977
0.00328755
0.0032961276
0.0033070709
0.003320257
0.0033355103
0.003352613
0.003371317
0.0033913542
0.0034124471
0.0034343166
0.0034566897
0.0034793047
0.003501915
0.0035242922
0.0035462278
0.003567535
0.0035880485
0.0036076257
0.0036261462
0.0036435121
0.0036596469
0.0036744955
0.0036880224
0.0037002104
0.0037110585
0.0037205786
0.0037287937
0.0037357358
0.0037414389
0.0031721918
0.0031967645
0.0032225882
0.0032473321
0.0032698072
0.0032894139
0.0033058983
0.0033192046
0.003329408
0.0033367012
0.0033413957
0.0033439135
0.0033447662
0.0033445243
0.0033437835
0.0033431331
0.0033431283
0.00334427
0.0033469877
0.00335163
0.0033584577
0.0033676422
0.0033792671
0.003393333
0.0034097647
0.0034284212
0.0034491063
0.0034715807
0.0034955737
0.0035207949
0.0035469442
0.0035737212
0.0036008332
0.0036280006
0.0036549617
0.0036814758
0.0037073249
0.0037323149
0.003756276
0.0037790623
0.0038005518
0.0038206451
0.0038392649
0.0038563549
0.0038718782
0.0038858159
0.0038981651
0.0039089366
0.0039181527
0.0039258451
0.0039320514
0.0039368145
0.0031728472
0.0031985921
0.003225695
0.0032519055
0.0032760728
0.0032975965
0.0033162248
0.0033319165
0.0033447753
0.0033550337
0.003363051
0.0033693002
0.0033743423
0.0033787887
0.0033832639
0.0033883684
0.0033946497
0.0034025792
0.0034125373
0.0034248042
0.0034395577
0.0034568754
0.003476741
0.0034990546
0.0035236439
0.0035502783
0.0035786821
0.0036085483
0.0036395511
0.0036713576
0.0037036369
0.0037360688
0.00376835
0.0038001989
0.0038313585
0.0038615987
0.0038907164
0.0039185361
0.003944909
0.003969712
0.0039928465
0.0040142369
0.0040338291
0.0040515887
0.0040674993
0.0040815608
0.004093787
0.0041042036
0.0041128456
0.0041197555
0.0041249827
0.0041285781
0.0031735719
0.0032005864
0.0032289877
0.0032565997
0.0032823197
0.0033055621
0.0033260954
0.003343916
0.0033591788
0.00337218
0.0033833471
0.0033932223
0.0034024271
0.0034116217
0.0034214587
0.0034325451
0.0034454091
0.0034604785
0.0034780662
0.0034983659
0.0035214532
0.0035472949
0.0035757598
0.0036066352
0.003639643
0.0036744568
0.0037107185
0.0037480526
0.00378608
0.0038244281
0.0038627398
0.00390068
0.0039379412
0.0039742456
0.0040093473
0.0040430321
0.0040751176
0.0041054514
0.0041339102
0.0041603972
0.0041848406
0.0042071909
0.0042274198
0.0042455168
0.0042614881
0.0042753542
0.0042871474
0.00429691
0.004304692
0.0043105496
0.0043145432
0.0043167365
0.0031743723
0.0032027835
0.0032325536
0.0032615684
0.0032887798
0.0033136271
0.0033359172
0.0033557043
0.0033732199
0.0033888459
0.0034031014
0.0034166137
0.0034300785
0.0034442075
0.0034596806
0.0034771004
0.0034969613
0.0035196268
0.0035453207
0.0035741265
0.003605997
0.0036407684
0.0036781802
0.0037178958
0.0037595246
0.0038026418
0.0038468072
0.0038915807
0.0039365343
0.0039812629
0.0040253901
0.0040685746
0.0041105121
0.0041509365
0.0041896197
0.0042263707
0.0042610331
0.0042934832
0.0043236271
0.0043513984
0.0043767547
0.004399676
0.0044201609
0.0044382254
0.0044538994
0.0044672255
0.0044782558
0.0044870507
0.0044936762
0.0044982028
0.004500705
0.004501258
0.0031752541
0.0032052171
0.0032364691
0.0032669444
0.0032956503
0.0033220606
0.0033460366
0.0033677139
0.0033874242
0.0034056616
0.0034230581
0.0034403446
0.0034582996
0.003477689
0.0034992112
0.0035234501
0.0035508439
0.0035816663
0.0036160239
0.0036538641
0.0036949924
0.0037390962
0.0037857714
0.0038345497
0.0038849247
0.0039363747
0.0039883826
0.0040404505
0.0040921115
0.0041429369
0.0041925426
0.0042405903
0.004286789
0.004330893
0.0043727004
0.0044120497
0.0044488172
0.0044829125
0.0045142761
0.0045428746
0.0045686989
0.0045917592
0.0046120844
0.0046297169
0.0046447125
0.0046571358
0.0046670602
0.004674564
0.0046797307
0.0046826455
0.0046833967
0.0046820718
0.0031762245
0.0032079187
0.0032408048
0.0032728462
0.0033031049
0.0033310979
0.003356759
0.0033803291
0.0034022677
0.0034232089
0.0034439203
0.003465253
0.0034880743
0.0035132006
0.0035413343
0.0035730177
0.0036086025
0.0036482405
0.0036918883
0.0037393276
0.0037901926
0.0038440039
0.0039002036
0.0039581873
0.0040173353
0.0040770353
0.004136703
0.0041957946
0.0042538166
0.0043103309
0.0043649576
0.0044173739
0.0044673127
0.0045145585
0.0045589437
0.0046003442
0.0046386739
0.0046738816
0.0047059449
0.0047348678
0.0047606751
0.0047834111
0.0048031338
0.0048199151
0.004833835
0.0048449825
0.0048534507
0.0048593376
0.0048627421
0.004863766
0.0048625098
0.0048590752
0.0031772901
0.0032109213
0.0032456286
0.0032793841
0.0033113026
0.0033409526
0.0033683616
0.0033939032
0.0034181976
0.0034420465
0.0034663784
0.0034921765
0.0035203994
0.0035519013
0.0035873658
0.0036272594
0.00367181
0.0037210069
0.0037746203
0.0038322351
0.0038932911
0.0039571288
0.0040230299
0.0040902575
0.004158085
0.0042258229
0.0042928335
0.0043585439
0.0044224499
0.0044841204
0.0045431937
0.0045993762
0.0046524359
0.0047021977
0.0047485365
0.004791372
0.0048306622
0.0048663983
0.0048985993
0.0049273078
0.004952586
0.0049745109
0.0049931729
0.0050086708
0.0050211118
0.0050306062
0.0050372689
0.0050412142
0.005042559
0.0050414182
0.0050379082
0.0050321382
0.0031784595
0.0032142586
0.0032510079
0.003286665
0.0033203932
0.0033518245
0.0033811046
0.0034087749
0.0034356503
0.0034627338
0.003491136
0.0035219824
0.0035563155
0.0035950051
0.0036386798
0.0036876863
0.0037420801
0.0038016423
0.0038659173
0.0039342628
0.0040059063
0.0040799991
0.0041556658
0.0042320444
0.0043083182
0.004383737
0.0044576306
0.0045294158
0.0045985983
0.0046647702
0.0047276055
0.0047868522
0.004842326
0.004893901
0.0049415031
0.0049851017
0.0050247036
0.005060346
0.0050920918
0.0051200241
0.0051442425
0.0051648585
0.0051819931
0.005195774
0.0052063322
0.0052138013
0.005218314
0.0052200025
0.0052189985
0.0052154316
0.0052094313
0.0052011162
0.0031797413
0.0032179664
0.0032570121
0.0032947945
0.0033305222
0.0033639059
0.0033952422
0.00342528
0.0034550709
0.0034858527
0.0035189384
0.0035555974
0.0035969378
0.0036438084
0.003696732
0.0037558783
0.0038210733
0.0038918394
0.0039674556
0.0040470277
0.0041295585
0.0042140114
0.0042993638
0.0043846472
0.0044689757
0.004551563
0.0046317299
0.0047089068
0.0047826301
0.0048525348
0.0049183455
0.0049798666
0.0050369716
0.0050895936
0.0051377158
0.005181363
0.005220594
0.0052554951
0.0052861741
0.0053127558
0.0053353771
0.0053541837
0.005369327
0.0053809615
0.0053892421
0.0053943228
0.0053963545
0.0053954832
0.0053918567
0.0053856149
0.0053769065
0.0053658462
0.0031811455
0.0032220837
0.0032637137
0.0033038794
0.0033418334
0.0033773876
0.0034110298
0.0034437659
0.0034769309
0.0035120323
0.0035506004
0.0035940385
0.0036434858
0.003699715
0.0037630765
0.0038334922
0.003910494
0.0039932942
0.0040808716
0.0041720625
0.0042656439
0.0043604029
0.0044551904
0.0045489579
0.0046407789
0.0047298595
0.00481554
0.0048972899
0.0049746984
0.0050474622
0.0051153727
0.0051783029
0.0052361948
0.0052890479
0.0053369084
0.0053798605
0.0054180178
0.0054515166
0.0054805106
0.0055051656
0.0055256557
0.0055421598
0.0055548578
0.0055639297
0.0055695521
0.0055718986
0.0055711353
0.0055674191
0.0055609148
0.0055517652
0.0055401574
0.005526185
0.003182683
0.0032266532
0.0032711887
0.0033140286
0.0033544727
0.0033924639
0.003428734
0.0034646055
0.0035017493
0.0035419755
0.003587037
0.0036384438
0.0036973105
0.0037642574
0.0038393764
0.0039222601
0.0040120784
0.0041076851
0.0042077336
0.0043107857
0.0044154046
0.0045202253
0.0046240035
0.0047256447
0.0048242169
0.0049189524
0.0050092411
0.0050946179
0.0051747467
0.0052494044
0.0053184638
0.005381878
0.0054396659
0.0054918995
0.0055386926
0.0055801908
0.0056165638
0.0056479984
0.0056746932
0.0056968543
0.0057146921
0.005728416
0.0057382325
0.0057443452
0.00574695
0.0057462378
0.005742387
0.0057355614
0.0057259529
0.0057136978
0.0056989917
0.0056819482
0.0031843665
0.0032317212
0.0032795175
0.0033253558
0.0033685901
0.0034093381
0.0034486428
0.0034882143
0.0035301163
0.0035764891
0.0036292965
0.0036901047
0.0037599205
0.0038391105
0.0039274053
0.0040239784
0.0041275717
0.0042366431
0.0043495092
0.0044644689
0.004579899
0.0046943194
0.0048064322
0.0049151386
0.0050195411
0.0051189346
0.0052127893
0.0053007312
0.0053825207
0.0054580312
0.0055272296
0.0055901587
0.0056469209
0.0056976651
0.0057425749
0.0057818589
0.0058157421
0.0058444608
0.0058682572
0.0058873759
0.0059020608
0.0059125499
0.0059190731
0.0059218561
0.0059211096
0.0059170422
0.0059098344
0.0058996829
0.0058867431
0.0058711838
0.0058532242
0.0058329819
0.0031862101
0.0032373385
0.0032887866
0.0033379792
0.0033843425
0.003428229
0.003471078
0.0035150708
0.003562722
0.0036165173
0.0036785955
0.0037504958
0.0038330015
0.0039260979
0.0040290378
0.0041404846
0.0042586966
0.0043817147
0.0045075277
0.0046342024
0.0047599728
0.0048832936
0.0050028632
0.0051176268
0.0052267646
0.0053296704
0.0054259255
0.0055152715
0.0055975838
0.0056728471
0.0057411329
0.0058025805
0.0058573804
0.0059057609
0.0059479762
0.0059842962
0.0060150008
0.0060403735
0.0060606967
0.0060762506
0.0060873106
0.0060941403
0.006096988
0.0060961011
0.0060916976
0.006084012
0.0060732188
0.006059513
0.0060430618
0.0060240417
0.0060026963
0.0059791474
0.003188229
0.0032435611
0.0032990882
0.0033520235
0.003401897
0.0034493787
0.0034964109
0.0035457415
0.00360039
0.0036631807
0.0037363558
0.0038213027
0.0039184286
0.0040271868
0.0041462279
0.0042736237
0.004407112
0.00454432
0.0046829419
0.0048208633
0.0049562353
0.0050875075
0.0052134327
0.005333052
0.0054456669
0.0055508059
0.0056481896
0.0057376972
0.0058193353
0.0058932113
0.0059595088
0.0060184683
0.0060703703
0.0061155229
0.0061542488
0.0061868788
0.0062137439
0.006235171
0.0062514784
0.0062629791
0.0062699768
0.006272758
0.0062715812
0.0062667222
0.0062583986
0.0062468437
0.00623225
0.0062148182
0.0061947123
0.0061721169
0.0061472647
0.0061203019
0.003190441
0.0032504509
0.0033105207
0.0033676202
0.003421435
0.0034730639
0.0035250835
0.0035809129
0.0036441176
0.0037178183
0.0038042397
0.0039044427
0.0040182679
0.0041444691
0.004280975
0.0044252044
0.0045743671
0.0047257097
0.0048766912
0.0050250873
0.0051690392
0.0053070617
0.0054380248
0.0055611175
0.0056758048
0.0057817833
0.0058789379
0.0059673036
0.0060470312
0.0061183586
0.0061815861
0.006237057
0.0062851414
0.0063262248
0.0063606969
0.0063889451
0.0064113464
0.0064282672
0.0064400559
0.0064470554
0.0064495923
0.0064479789
0.0064424764
0.0064333595
0.0064208756
0.0064052517
0.00638669
0.0063653835
0.0063414868
0.006315237
0.0062868091
0.0062563586
0.0031928655
0.0032580753
0.0033231894
0.0033849099
0.0034431587
0.0034996107
0.0035576355
0.0036214313
0.0036951229
0.0037820331
0.0038841832
0.0040020767
0.0041347648
0.0042801292
0.0044352776
0.0045969479
0.0047618518
0.0049269227
0.005089469
0.0052472456
0.0053984694
0.0055417966
0.0056762769
0.0058012978
0.0059165272
0.006021859
0.0061173631
0.0062032444
0.0062798063
0.0063474216
0.006406509
0.0064575128
0.0065008891
0.0065370988
0.0065665934
0.0065898111
0.0066071689
0.0066190693
0.0066258813
0.0066279802
0.0066257105
0.006619377
0.006609281
0.0065956841
0.0065788493
0.0065589718
0.0065362988
0.0065109935
0.0064832572
0.0064532587
0.0064211936
0.0063872122
0.0031955246
0.0032665089
0.0033372069
0.0034040446
0.0034672995
0.0035294154
0.0035947407
0.0036683519
0.0037548995
0.0038577377
0.0039784209
0.0041166076
0.0042703155
0.0044363971
0.0046110772
0.0047904322
0.0049707485
0.0051487474
0.0053216951
0.0054874304
0.0056443391
0.0057912951
0.005927589
0.0060528536
0.0061669938
0.0062701246
0.0063625168
0.0064445541
0.0065166968
0.0065794533
0.0066333584
0.0066789525
0.0067167738
0.0067473534
0.0067711958
0.0067887861
0.0068005711
0.0068069919
0.0068084272
0.0068052559
0.0067978734
0.0067865673
0.0067716592
0.0067533703
0.0067320133
0.0067077893
0.0066808786
0.0066514982
0.0066198258
0.0065860524
0.0065503392
0.0065128017
0.0031984429
0.003275833
0.003352694
0.0034251918
0.003494132
0.0035629739
0.003637254
0.0037229991
0.0038252753
0.0039471971
0.0040894998
0.0042506607
0.0044274221
0.0046154887
0.0048101967
0.0050070361
0.0052019866
0.0053916892
0.0055734971
0.0057454483
0.0059061915
0.0060548927
0.0061911394
0.0063148504
0.0064261958
0.0065255293
0.0066133324
0.0066901712
0.0067566631
0.0068134482
0.0068611716
0.0069004644
0.0069319387
0.0069561888
0.0069737611
0.0069851882
0.0069909338
0.0069914502
0.0069871592
0.0069784405
0.006965675
0.006949162
0.0069292637
0.006906155
0.0068801398
0.0068514476
0.0068202592
0.0067867641
0.006751122
0.0067135319
0.006674143
0.0066330666
0.0032016483
0.0032861378
0.0033697817
0.0034485416
0.0035239937
0.003600922
0.0036862725
0.0037870375
0.0039084749
0.004053063
0.0042202751
0.0044070459
0.0046086319
0.0048195368
0.0050342754
0.0052478864
0.0054562031
0.0056559469
0.0058447015
0.0060208209
0.0061833086
0.0063316913
0.0064659026
0.0065861801
0.0066929794
0.006786904
0.0068686491
0.0069389618
0.0069986122
0.0070483626
0.0070889645
0.0071211263
0.0071455245
0.0071628145
0.0071735702
0.007178338
0.0071776359
0.0071719194
0.0071615931
0.0071470448
0.0071287373
0.0071068467
0.0070817897
0.0070537691
0.0070230474
0.0069898172
0.0069542902
0.006916642
0.0068770271
0.0068356228
0.0067925697
0.0067479791
0.0032051719
0.0032975228
0.0033886137
0.0034743174
0.003557314
0.0036440896
0.0037432123
0.0038625531
0.00400718
0.0041783926
0.004373885
0.0045886981
0.0048164624
0.0050505181
0.0052847067
0.005513809
0.0057337125
0.0059413988
0.0061348297
0.0063127904
0.0064747239
0.0066205779
0.006750671
0.0068655838
0.0069660695
0.0070529847
0.007127235
0.0071897417
0.0072414174
0.0072831363
0.0073157496
0.0073400204
0.0073566991
0.0073664413
0.007369903
0.0073676243
0.0073601116
0.0073478304
0.0073312965
0.0073107204
0.007286671
0.0072593315
0.0072290295
0.0071960058
0.0071605084
0.0071227228
0.0070828459
0.0070410449
0.0069974699
0.0069522771
0.0069055966
0.0068575359
0.0032090495
0.0033100997
0.0034093511
0.0035027925
0.003594656
0.003693575
0.0038099037
0.0039521421
0.0041245805
0.0043266471
0.0045537015
0.0047986006
0.0050533186
0.0053101791
0.0055625793
0.0058052918
0.0060344872
0.0062475956
0.0064431028
0.0066203318
0.0067792404
0.0069202451
0.0070440784
0.007151677
0.0072440948
0.0073224377
0.0073878112
0.0074412971
0.0074839408
0.0075167099
0.0075405504
0.0075562436
0.0075646255
0.0075663584
0.0075621003
0.0075523816
0.0075378572
0.0075187756
0.0074957989
0.0074691355
0.0074392218
0.0074063241
0.007370727
0.0073326703
0.0072923817
0.0072500427
0.0072058326
0.0071599074
0.0071124084
0.0070634744
0.0070132227
0.0069617528
0.0032133219
0.0033239949
0.0034321801
0.0035343166
0.0036367771
0.0037508424
0.0038887052
0.0040590014
0.0042644086
0.0045016621
0.0047632554
0.0050396936
0.0053214074
0.0055999652
0.005868629
0.006122457
0.0063581453
0.0065737608
0.0067684501
0.0069421691
0.0070954508
0.0072292155
0.0073446249
0.0074429742
0.0075256123
0.0075938831
0.0076490714
0.0076924059
0.0077250551
0.0077480419
0.0077623994
0.007768939
0.0077685535
0.007761786
0.0077495576
0.0077321363
0.0077103184
0.0076843704
0.0076548006
0.0076219214
0.0075860962
0.007547601
0.0075066959
0.0074636095
0.0074185499
0.007371689
0.0073231886
0.0072731914
0.0072218267
0.0071692178
0.007115469
0.007060668
0.0032180364
0.0033393549
0.0034573246
0.0035693554
0.0036847138
0.0038178488
0.0039826344
0.0041870127
0.0044309459
0.0047075873
0.005006142
0.0053147759
0.0056226514
0.005920959
0.0062032023
0.0064650417
0.0067039457
0.0069187966
0.0071095243
0.0072767952
0.0074217616
0.0075458665
0.007650703
0.0077379151
0.0078091325
0.0078659185
0.0079097054
0.0079418709
0.0079636296
0.0079761249
0.0079804195
0.0079772631
0.0079676945
0.0079521783
0.0079316317
0.0079064209
0.0078771396
0.0078441766
0.0078079595
0.0077688147
0.0077270651
0.0076829765
0.0076367872
0.0075887086
0.0075389284
0.0074876048
0.0074348819
0.0073808867
0.0073257354
0.0072695357
0.0072123776
0.007154336
0.0032232487
0.0033563537
0.0034850662
0.0036085507
0.0037399007
0.0038972042
0.0040955108
0.004340808
0.0046289972
0.0049487972
0.0052859101
0.0056264018
0.0059586114
0.0062738321
0.0065662271
0.0068323866
0.0070707897
0.0072812958
0.0074647197
0.0076224949
0.0077564179
0.0078684572
0.0079606245
0.0080348898
0.0080931419
0.0081371385
0.0081684115
0.0081884918
0.0081986383
0.0081999925
0.0081936702
0.0081804948
0.0081613721
0.00813696
0.0081079114
0.008074726
0.0080379154
0.0079978791
0.0079549995
0.0079095914
0.0078619449
0.0078123061
0.0077608905
0.0077078882
0.0076534656
0.0075977639
0.0075409086
0.0074830103
0.0074241703
0.0032290261
0.0033752058
0.0035157756
0.0036528098
0.0038043337
0.0039923683
0.004232101
0.0045258046
0.004863824
0.0052297756
0.0056059435
0.0059767851
0.0063304224
0.0066588036
0.0069571923
0.0072234312
0.0074572287
0.0076595581
0.0078321945
0.0079773709
0.0080975315
0.0081951557
0.0082726483
0.0083322655
0.008376137
0.0084061267
0.0084239431
0.0084311642
0.0084289459
0.0084187752
0.0084013729
0.0083779515
0.0083490945
0.0083155447
0.008277905
0.0082366747
0.0081923147
0.0081452071
0.0080956964
0.0080440732
0.0079905963
0.0079354861
0.0078789334
0.0078211041
0.0077621422
0.0077021693
0.0076412918
0.0075796029
0.0075171878
0.0032354509
0.0033961843
0.0035499626
0.0037034382
0.0038807896
0.0041078807
0.00439825
0.0047481969
0.0051410429
0.0055549844
0.0059693431
0.0063677149
0.0067387363
0.0070756073
0.0073751342
0.0076367148
0.0078614763
0.0080516101
0.0082098961
0.0083393718
0.008443109
0.0085240661
0.0085850065
0.0086284021
0.0086566002
0.0086715974
0.0086750781
0.0086687101
0.0086537498
0.0086315268
0.0086029612
0.0085689692
0.0085302462
0.0084874753
0.0084412155
0.0083919398
0.0083400649
0.0082859414
0.0082298758
0.0081721277
0.0081129225
0.008052452
0.0079908793
0.0079283451
0.007864969
0.0078008516
0.0077360792
0.0076707266
0.007604862
0.0032426269
0.0034196518
0.0035883533
0.003762333
0.0039731143
0.0042496167
0.0046009817
0.0050149015
0.0054664942
0.0059287275
0.0063788205
0.0068004802
0.0071836735
0.0075234655
0.0078186285
0.0080703835
0.0082814256
0.0084552295
0.0085955897
0.0087063233
0.0087910846
0.0088532793
0.0088958827
0.0089217025
0.0089331303
0.008932111
0.0089206987
0.0089001679
0.0088721715
0.0088376661
0.0087976589
0.0087529961
0.0087043549
0.0086523563
0.0085975118
0.008540253
0.0084809504
0.0084199147
0.0083574122
0.0082936664
0.0082288679
0.0081631766
0.0080967269
0.0080296317
0.0079619859
0.0078938674
0.0078253418
0.0077564654
0.0076872875
0.0032506875
0.0034461059
0.0036320103
0.0038322611
0.0040865898
0.0044250518
0.0048485519
0.0053334592
0.0058460979
0.0063550209
0.0068366011
0.0072758003
0.0076647793
0.0080010672
0.0082857871
0.0085222008
0.0087146703
0.0088679731
0.0089868891
0.0090759592
0.0091393577
0.0091807996
0.0092035936
0.0092106234
0.0092042047
0.0091866226
0.0091596177
0.0091248015
0.0090833804
0.0090364341
0.0089848992
0.00892955
0.0088710184
0.008809859
0.0087465276
0.0086814048
0.0086148104
0.00854701
0.0084782263
0.0084086435
0.0083384154
0.0082676684
0.0081965061
0.0081250134
0.0080532586
0.0079812969
0.0079091725
0.007836922
0.0077645779
0.0032598071
0.0034762518
0.0036825201
0.0039172543
0.0042283809
0.0046435121
0.0051504502
0.0057119089
0.00628571
0.0068374774
0.0073443323
0.0077937583
0.0081809814
0.0085065503
0.0087742598
0.008989565
0.009158532
0.0092872093
0.0093812908
0.0094459462
0.0094857621
0.009504828
0.009506392
0.0094935139
0.0094686146
0.0094339327
0.0093911408
0.0093416403
0.0092866723
0.0092272387
0.0091641906
0.0090982246
0.0090299077
0.008959722
0.0088880598
0.0088152434
0.0087415377
0.0086671587
0.0085922831
0.0085170533
0.0084415846
0.0083659686
0.0082902773
0.0082145661
0.0081388774
0.0080632421
0.0079876829
0.0079122178
0.0078368599
0.0032702156
0.0035111133
0.003742282
0.0040231582
0.0044080551
0.0049163899
0.005517362
0.0061586703
0.0067910124
0.0073792092
0.0079029976
0.0083537296
0.0087305447
0.0090374847
0.009281241
0.0094695321
0.0096100919
0.0097101549
0.0097761877
0.0098139192
0.0098282899
0.0098232985
0.0098026511
0.0097690724
0.0097252669
0.0096731207
0.0096142283
0.0095499568
0.009481436
0.0094095738
0.009335123
0.0092586908
0.0091807654
0.0091017495
0.0090219655
0.0089416718
0.0088610747
0.0087803375
0.0086995885