/*--------------------------------*- C++ -*----------------------------------*\
| =========                 |                                                 |
| \\      /  F ield         | OpenFOAM: The Open Source CFD Toolbox           |
|  \\    /   O peration     | Version:  2312                                  |
|   \\  /    A nd           | Website:  www.openfoam.com                      |
|    \\/     M anipulation  |                                                 |
\*---------------------------------------------------------------------------*/
FoamFile
{
    version     2.0;
    format      ascii;
    arch        "LSB;label=32;scalar=64";
    class       volScalarField;
    location    "0.07";
    object      N2;
}
// * * * * * * * * * * * * * * * * * * * * * * * * * * * * * * * * * * * * * //

dimensions      [0 0 0 0 0 0 0];

internalField   nonuniform List<scalar> 
3221
(
0.76989956
0.76969063
0.76947626
0.76925856
0.76903959
0.76882115
0.76860477
0.76839157
0.7681823
0.7679774
0.76777723
0.76758319
0.76740352
0.76728401
0.76746877
0.76758793
0.76759568
0.76765546
0.76767558
0.76771782
0.76774012
0.76776905
0.76778648
0.76780404
0.76781412
0.76782189
0.76782443
0.76782418
0.76782012
0.76781351
0.76780411
0.76779265
0.76777918
0.76776414
0.76774772
0.76773022
0.76771183
0.76769278
0.76767326
0.76765344
0.76763347
0.7676135
0.76759363
0.76757398
0.76755461
0.76753552
0.76751646
0.76749586
0.76746492
0.76737402
0.76694265
0.76659283
0.76989446
0.76967477
0.76944892
0.76921892
0.76898675
0.76875419
0.76852272
0.76829349
0.76806731
0.76784463
0.76762569
0.76741072
0.7672009
0.76700124
0.76682565
0.76666091
0.76649442
0.7663414
0.7661894
0.76604694
0.76590552
0.76576981
0.76563478
0.76550289
0.76537143
0.76524171
0.76511249
0.76498455
0.7648574
0.76473156
0.76460691
0.76448384
0.76436239
0.76424286
0.76412536
0.76401013
0.76389731
0.76378712
0.76367971
0.76357526
0.76347392
0.76337583
0.7632811
0.76318984
0.76310213
0.76301802
0.76293745
0.76286002
0.76278396
0.76270261
0.76259853
0.76248676
0.76988513
0.76964573
0.76939892
0.76914656
0.76889047
0.76863234
0.76837362
0.76811547
0.76785878
0.7676041
0.76735175
0.76710185
0.76685444
0.76660979
0.76636855
0.76612996
0.76589273
0.76565764
0.76542331
0.76519021
0.76495713
0.76472439
0.76449115
0.76425773
0.76402374
0.76378958
0.76355524
0.76332121
0.76308773
0.76285531
0.76262431
0.76239525
0.76216851
0.76194455
0.76172376
0.76150655
0.76129329
0.76108436
0.7608801
0.76068085
0.76048692
0.76029858
0.7601161
0.75993968
0.75976953
0.75960582
0.75944867
0.75929816
0.75915416
0.75901607
0.75888249
0.75875328
0.76987255
0.76960661
0.76933165
0.76904932
0.7687613
0.76846913
0.76817425
0.76787782
0.7675808
0.7672839
0.76698757
0.7666921
0.76639759
0.76610404
0.76581135
0.76551928
0.76522746
0.76493564
0.7646434
0.76435047
0.76405648
0.76376125
0.76346457
0.76316645
0.76286689
0.7625661
0.76226435
0.76196201
0.76165949
0.76135729
0.76105591
0.76075588
0.76045773
0.76016201
0.75986924
0.75957993
0.75929459
0.75901374
0.75873786
0.75846741
0.75820283
0.75794456
0.75769297
0.75744843
0.75721126
0.75698178
0.75676025
0.75654693
0.75634204
0.75614574
0.75595809
0.75577904
0.76985759
0.76956007
0.76925168
0.76893389
0.76860822
0.76827612
0.76793894
0.76759791
0.76725403
0.76690815
0.76656092
0.76621281
0.76586416
0.76551517
0.76516594
0.76481647
0.76446668
0.76411647
0.76376568
0.76341419
0.76306184
0.76270856
0.76235431
0.76199914
0.76164316
0.76128658
0.76092968
0.76057281
0.76021638
0.75986082
0.75950663
0.75915428
0.75880431
0.75845721
0.7581135
0.75777371
0.75743835
0.75710792
0.75678292
0.75646384
0.75615115
0.75584529
0.75554668
0.75525574
0.75497283
0.7546983
0.75443249
0.75417571
0.75392824
0.75369038
0.75346236
0.75324436
0.76984083
0.76950793
0.76916217
0.76880487
0.76843742
0.7680612
0.76767754
0.76728767
0.76689268
0.76649353
0.76609106
0.76568595
0.76527876
0.76486995
0.76445988
0.76404882
0.76363698
0.76322453
0.76281158
0.76239825
0.76198464
0.76157087
0.7611571
0.76074352
0.76033038
0.75991797
0.75950663
0.75909675
0.75868874
0.75828304
0.75788013
0.75748048
0.75708458
0.75669291
0.75630596
0.75592421
0.75554816
0.75517825
0.75481497
0.75445876
0.75411005
0.75376926
0.75343678
0.75311299
0.75279824
0.75249287
0.75219718
0.75191148
0.75163604
0.75137112
0.75111698
0.75087385
0.76982259
0.7694512
0.76906484
0.76866474
0.76825224
0.76782867
0.76739534
0.76695353
0.76650442
0.76604908
0.76558851
0.7651236
0.76465512
0.76418377
0.76371018
0.76323487
0.76275834
0.76228102
0.76180329
0.76132553
0.76084811
0.76037136
0.75989566
0.75942139
0.75894895
0.75847876
0.75801126
0.75754693
0.75708624
0.75662969
0.75617776
0.75573095
0.75528976
0.75485466
0.75442614
0.75400466
0.75359067
0.75318462
0.75278693
0.752398
0.75201823
0.75164799
0.75128761
0.75093743
0.75059774
0.75026884
0.74995099
0.74964443
0.7493494
0.74906611
0.74879478
0.74853558
0.76980299
0.76939024
0.76896031
0.76851441
0.76805386
0.76758
0.76709418
0.76659772
0.76609189
0.76557793
0.76505696
0.76453006
0.76399823
0.76346238
0.76292338
0.76238202
0.76183904
0.76129513
0.76075095
0.76020713
0.75966425
0.75912292
0.7585837
0.75804717
0.75751391
0.75698448
0.75645948
0.75593946
0.755425
0.75491665
0.75441499
0.75392052
0.75343379
0.75295528
0.75248549
0.75202488
0.75157387
0.7511329
0.75070235
0.75028259
0.74987396
0.74947679
0.74909136
0.74871796
0.74835681
0.74800815
0.74767218
0.74734909
0.74703905
0.74674221
0.74645872
0.74618871
0.76978202
0.76932502
0.7688485
0.76835374
0.76784208
0.76731491
0.76677366
0.76621974
0.76565454
0.76507942
0.76449569
0.76390461
0.76330737
0.76270513
0.76209898
0.76148994
0.76087901
0.76026713
0.75965522
0.75904412
0.75843469
0.75782774
0.75722405
0.75662439
0.75602953
0.75544018
0.75485707
0.7542809
0.75371232
0.753152
0.75260055
0.75205855
0.75152657
0.75100513
0.75049473
0.74999583
0.74950885
0.74903419
0.74857221
0.74812324
0.74768757
0.74726546
0.74685716
0.74646287
0.74608277
0.74571701
0.74536574
0.74502908
0.74470712
0.74439994
0.74410763
0.74383026
0.7697596
0.76925525
0.76872893
0.768182
0.76761589
0.7670321
0.76643216
0.76581761
0.76518999
0.76455082
0.76390159
0.76324376
0.76257873
0.76190789
0.76123255
0.760554
0.75987346
0.75919214
0.75851118
0.75783169
0.75715474
0.75648138
0.75581259
0.75514934
0.75449258
0.75384318
0.75320202
0.7525699
0.75194761
0.75133588
0.75073539
0.75014679
0.74957067
0.74900757
0.74845801
0.74792242
0.74740122
0.74689478
0.7464034
0.74592738
0.74546694
0.74502229
0.74459359
0.74418098
0.74378457
0.74340444
0.74304064
0.74269322
0.74236219
0.74204757
0.74174935
0.74146753
0.76973561
0.76918055
0.7686009
0.76799816
0.76737389
0.76672975
0.76606741
0.76538858
0.764695
0.76398836
0.76327037
0.7625427
0.76180699
0.76106486
0.76031787
0.75956756
0.75881541
0.75806288
0.75731136
0.7565622
0.75581672
0.75507618
0.75434178
0.75361469
0.75289602
0.75218683
0.75148811
0.75080079
0.75012577
0.74946384
0.74881576
0.7481822
0.74756379
0.74696109
0.74637457
0.74580468
0.74525179
0.74471621
0.74419821
0.74369799
0.74321573
0.74275154
0.74230551
0.74187769
0.74146809
0.74107671
0.74070352
0.74034846
0.74001148
0.73969248
0.7393914
0.73910812
0.76970989
0.76910042
0.76846356
0.76780097
0.76711441
0.76640571
0.76567677
0.76492951
0.76416587
0.76338778
0.7625972
0.76179604
0.7609862
0.76016956
0.75934796
0.75852319
0.75769703
0.75687118
0.75604731
0.75522702
0.75441187
0.75360335
0.75280288
0.75201182
0.75123146
0.75046301
0.74970759
0.74896626
0.74823997
0.74752961
0.74683596
0.74615973
0.74550155
0.74486195
0.7442414
0.74364028
0.74305891
0.74249754
0.74195634
0.74143545
0.74093493
0.74045482
0.73999509
0.73955569
0.73913654
0.73873751
0.73835849
0.73799931
0.73765982
0.73733983
0.73703917
0.73675766
0.76968227
0.76901432
0.76831596
0.76758905
0.76683559
0.76605766
0.76525739
0.76443697
0.76359861
0.76274453
0.76187695
0.76099808
0.76011012
0.75921523
0.75831556
0.75741321
0.75651025
0.75560866
0.7547104
0.75381734
0.75293129
0.75205398
0.75118704
0.75033204
0.74949042
0.74866354
0.74785266
0.7470589
0.7462833
0.74552679
0.74479015
0.74407411
0.74337926
0.74270611
0.74205504
0.74142639
0.74082037
0.74023714
0.73967677
0.73913928
0.73862463
0.73813271
0.73766341
0.73721652
0.73679186
0.73638919
0.73600826
0.73564881
0.73531055
0.73499322
0.73469654
0.73442022
0.76965256
0.76892168
0.76815708
0.76736091
0.76653544
0.76568304
0.76480617
0.76390731
0.76298901
0.7620538
0.76110424
0.76014289
0.75917227
0.75819491
0.75721328
0.75622984
0.75524696
0.75426696
0.75329209
0.75232452
0.75136632
0.75041947
0.74948582
0.74856711
0.74766496
0.74678085
0.74591613
0.74507201
0.74424956
0.7434497
0.74267322
0.74192081
0.74119299
0.74049019
0.73981272
0.73916079
0.7385345
0.73793388
0.73735887
0.73680934
0.73628511
0.73578595
0.73531157
0.73486166
0.73443587
0.73403385
0.7336552
0.73329956
0.73296651
0.73265567
0.73236667
0.7320991
0.76962058
0.76882185
0.7679858
0.7671149
0.76621177
0.76527913
0.76431978
0.76333661
0.76233252
0.76131047
0.76027339
0.75922423
0.75816594
0.75710143
0.75603356
0.75496517
0.75389901
0.75283776
0.75178398
0.75074017
0.74970867
0.74869169
0.74769133
0.74670948
0.74574792
0.74480822
0.74389181
0.74299992
0.74213362
0.74129382
0.74048124
0.73969648
0.73893998
0.73821204
0.73751283
0.73684241
0.73620073
0.73558766
0.73500298
0.73444638
0.73391751
0.73341598
0.73294135
0.73249313
0.73207083
0.73167395
0.73130197
0.73095436
0.73063061
0.73033021
0.73005266
0.72979748
0.7695861
0.76871412
0.76780089
0.76684926
0.76586222
0.76484293
0.76379462
0.76272063
0.76162431
0.76050909
0.75937836
0.75823556
0.7570841
0.75592734
0.75476862
0.75361119
0.75245822
0.7513128
0.75017784
0.74905617
0.74795042
0.74686305
0.74579635
0.74475239
0.74373304
0.74273995
0.74177458
0.74083814
0.73993165
0.73905593
0.73821162
0.73739917
0.73661887
0.73587085
0.73515511
0.7344715
0.73381979
0.73319964
0.73261063
0.73205226
0.731524
0.73102525
0.73055539
0.73011378
0.72969975
0.72931263
0.72895177
0.72861649
0.72830617
0.72802016
0.72775786
0.72751868
0.76954889
0.76859774
0.76760103
0.76656203
0.76548421
0.76437121
0.76322679
0.7620548
0.76085915
0.75964381
0.75841274
0.75716994
0.75591935
0.75466489
0.75341041
0.75215967
0.75091632
0.74968384
0.74846559
0.7472647
0.7460841
0.74492651
0.74379437
0.74268989
0.74161502
0.74057142
0.7395605
0.73858343
0.73764111
0.73673421
0.73586321
0.73502836
0.73422975
0.73346728
0.73274072
0.73204969
0.73139371
0.73077222
0.73018456
0.72963001
0.72910782
0.72861719
0.72815729
0.7277273
0.72732637
0.72695369
0.72660843
0.72628978
0.72599698
0.72572927
0.72548594
0.72526629
0.76950869
0.76847189
0.76738478
0.76625112
0.76507494
0.76386045
0.76261203
0.76133416
0.76003139
0.75870834
0.75736966
0.75601998
0.7546639
0.75330597
0.75195064
0.75060225
0.74926496
0.74794274
0.74663935
0.74535829
0.74410277
0.7428757
0.74167969
0.74051701
0.73938963
0.73829916
0.73724691
0.73623391
0.73526086
0.73432823
0.73343627
0.73258496
0.73177411
0.73100336
0.73027217
0.7295799
0.7289258
0.72830901
0.72772863
0.72718369
0.72667319
0.72619612
0.72575144
0.72533812
0.72495516
0.72460155
0.72427631
0.72397851
0.72370724
0.72346162
0.72324085
0.72304412
0.76946523
0.76833567
0.76715055
0.76591422
0.76463133
0.76330681
0.76194572
0.76055331
0.75913491
0.75769592
0.75624176
0.75477784
0.75330953
0.75184212
0.75038075
0.74893039
0.7474958
0.74608147
0.74469156
0.74332993
0.74200006
0.74070502
0.7394475
0.7382298
0.73705379
0.73592096
0.73483245
0.73378903
0.73279116
0.73183901
0.73093249
0.73007127
0.72925483
0.72848244
0.72775325
0.72706629
0.72642048
0.72581468
0.72524769
0.72471827
0.72422517
0.72376714
0.72334294
0.72295133
0.72259111
0.72226111
0.72196022
0.72168734
0.72144145
0.72122157
0.72102676
0.72085615
0.76941821
0.76818811
0.76689662
0.76554879
0.76415003
0.76270605
0.7612228
0.75970639
0.75816309
0.75659922
0.75502114
0.75343518
0.7518476
0.75026453
0.74869193
0.74713548
0.74560056
0.74409221
0.74261503
0.74117319
0.73977036
0.73840975
0.73709405
0.73582544
0.73460566
0.73343595
0.73231714
0.7312497
0.73023371
0.72926896
0.72835496
0.72749098
0.72667607
0.72590913
0.72518892
0.72451409
0.72388322
0.72329484
0.72274744
0.7222395
0.72176952
0.72133599
0.72093744
0.72057245
0.72023963
0.71993765
0.71966523
0.71942117
0.71920432
0.71901358
0.71884794
0.71870644
0.7693673
0.76802814
0.76662111
0.76515209
0.76362735
0.76205357
0.76043771
0.75878698
0.75710871
0.75541035
0.75369935
0.75198312
0.75026899
0.74856407
0.74687519
0.74520884
0.74357109
0.74196751
0.7404031
0.73888231
0.73740895
0.73598622
0.73461671
0.73330241
0.73204474
0.73084461
0.72970243
0.72861822
0.7275916
0.72662189
0.7257081
0.724849
0.7240432
0.72328914
0.72258514
0.72192947
0.72132032
0.72075586
0.72023429
0.71975377
0.71931253
0.71890883
0.71854097
0.71820735
0.71790639
0.7176366
0.71739658
0.71718499
0.71700058
0.71684216
0.71670864
0.71659898
0.76931216
0.76785458
0.76632194
0.76472104
0.76305921
0.76134427
0.75958441
0.75778809
0.75596396
0.75412078
0.75226732
0.75041229
0.74856421
0.7467313
0.74492142
0.74314191
0.74139952
0.73970035
0.73804978
0.73645241
0.73491209
0.73343189
0.73201415
0.73066051
0.72937195
0.72814888
0.72699119
0.72589832
0.72486932
0.72390292
0.72299755
0.72215144
0.72136266
0.72062916
0.71994881
0.71931941
0.71873879
0.71820476
0.71771515
0.71726787
0.71686085
0.71649214
0.71615981
0.71586207
0.71559718
0.71536351
0.71515952
0.71498379
0.71483495
0.71471175
0.71461301
0.71453764
0.76925238
0.76766615
0.76599681
0.76425227
0.76244113
0.76057256
0.7586562
0.75670204
0.75472029
0.75272129
0.75071538
0.74871275
0.74672332
0.74475658
0.74282148
0.74092626
0.73907837
0.73728437
0.73554989
0.7338796
0.7322772
0.73074548
0.72928636
0.72790095
0.72658962
0.72535214
0.72418772
0.7230951
0.72207263
0.72111837
0.72023009
0.71940541
0.71864182
0.71793673
0.71728751
0.71669154
0.7161462
0.71564897
0.71519733
0.71478891
0.71442139
0.71409256
0.71380033
0.7135427
0.71331779
0.71312385
0.71295924
0.71282242
0.712712
0.71262658
0.71256503
0.71252601
0.76918756
0.76746141
0.76564317
0.76374206
0.76176814
0.75973224
0.75764573
0.75552043
0.75336843
0.75120196
0.74903318
0.74687404
0.74473604
0.74263009
0.74056629
0.7385538
0.7366007
0.73471393
0.73289922
0.73116111
0.72950298
0.72792711
0.7264348
0.72502641
0.72370156
0.72245919
0.72129767
0.72021493
0.7192085
0.71827567
0.71741349
0.71661892
0.71588882
0.71522003
0.71460943
0.71405392
0.71355049
0.71309624
0.71268835
0.71232415
0.7120011
0.71171676
0.71146886
0.71125524
0.71107391
0.71092298
0.71080072
0.71070556
0.71063608
0.71059063
0.7105685
0.71056785
0.76911721
0.7672388
0.76525822
0.76318625
0.76103474
0.75881645
0.75654488
0.75423404
0.75189828
0.74955207
0.74720973
0.74488521
0.74259181
0.74034196
0.73814697
0.73601688
0.73396029
0.73198435
0.73009468
0.72829546
0.72658949
0.72497832
0.72346235
0.72204103
0.720713
0.71947619
0.71832799
0.71726537
0.71628497
0.7153832
0.71455637
0.7138007
0.71311241
0.71248778
0.71192314
0.71141496
0.71095982
0.71055447
0.7101958
0.70988087
0.7096069
0.7093713
0.70917161
0.70900555
0.708871
0.70876599
0.70868871
0.70863751
0.70861138
0.70860813
0.70862621
0.70866537
0.76904081
0.76699656
0.76483881
0.76258022
0.76023476
0.75781756
0.75534466
0.75283274
0.75029886
0.74776011
0.74523336
0.74273483
0.74027981
0.73788236
0.73555497
0.73330845
0.73115175
0.72909198
0.7271344
0.72528251
0.72353825
0.72190212
0.72037342
0.71895041
0.71763055
0.71641059
0.71528678
0.71425504
0.71331099
0.71245016
0.71166802
0.71096005
0.71032182
0.70974901
0.70923747
0.7087832
0.70838243
0.70803156
0.70772721
0.7074662
0.70724556
0.70706254
0.70691454
0.70679919
0.70671425
0.70665772
0.70662767
0.70662295
0.70664094
0.70668172
0.70674184
0.70682144
0.7689578
0.76673273
0.76438144
0.76191878
0.75936133
0.75672707
0.75403514
0.75130543
0.7485582
0.74581372
0.74309173
0.74041105
0.73778913
0.73524164
0.73278222
0.73042223
0.72817073
0.72603444
0.7240179
0.72212361
0.72035227
0.71870306
0.71717386
0.71576153
0.71446211
0.713271
0.7121832
0.71119344
0.71029631
0.70948637
0.70875824
0.70810666
0.70752653
0.70701297
0.70656134
0.70616724
0.70582652
0.70553529
0.70528993
0.70508707
0.70492357
0.70479655
0.70470332
0.70464141
0.70460847
0.70460264
0.70462143
0.70466481
0.70472838
0.70481388
0.70491775
0.70503962
0.76886753
0.76644514
0.76388215
0.76119612
0.75840675
0.75553552
0.7526053
0.74963987
0.74666334
0.74369965
0.74077187
0.7379017
0.73510881
0.7324105
0.72982131
0.72735291
0.72501404
0.72281067
0.72074617
0.71882161
0.71703611
0.71538717
0.71387097
0.71248269
0.71121675
0.71006707
0.70902728
0.70809085
0.70725128
0.70650214
0.7058372
0.70525045
0.70473617
0.70428893
0.70390364
0.70357552
0.70330008
0.70307321
0.70289106
0.70275012
0.70264709
0.70257906
0.70254318
0.70253709
0.70255821
0.70260424
0.70267344
0.70276601
0.70287743
0.70300927
0.70315619
0.70331958
0.76876929
0.7661313
0.76333649
0.76040567
0.75736236
0.75423229
0.7510429
0.74782263
0.74460019
0.74140377
0.73826023
0.73519433
0.73222804
0.72938009
0.72666565
0.72409623
0.72167982
0.71942108
0.71732172
0.71538095
0.71359588
0.71196196
0.71047338
0.70912338
0.70790461
0.70680937
0.70582981
0.70495814
0.70418671
0.7035081
0.70291525
0.70240145
0.70196036
0.70158608
0.70127308
0.70101625
0.70081084
0.70065254
0.70053731
0.70046158
0.70042184
0.70041534
0.7004391
0.7004898
0.70056678
0.70066654
0.70078784
0.70093105
0.70108909
0.70126626
0.7014586
0.70166674
0.76866228
0.76578846
0.76273944
0.75954002
0.75621839
0.7528055
0.74933434
0.74583896
0.74235349
0.73891106
0.7355427
0.73227638
0.72913628
0.72614226
0.72330965
0.72064925
0.71816766
0.71586764
0.71374871
0.71180767
0.7100392
0.70843633
0.70699095
0.70569418
0.70453674
0.70350919
0.70260219
0.70180661
0.70111368
0.70051504
0.70000281
0.69956961
0.69920859
0.69891339
0.69867808
0.69849733
0.69836614
0.69828012
0.69823496
0.6982273
0.69825321
0.69830927
0.69839498
0.69850454
0.69863931
0.69879265
0.69896555
0.69915888
0.69936918
0.69959043
0.69982629
0.70007875
0.76854561
0.76541344
0.76208527
0.75859075
0.7549638
0.75124179
0.74746447
0.74367263
0.73990678
0.73620561
0.7326047
0.72913527
0.72582344
0.72268971
0.71974891
0.71701043
0.71447873
0.712154
0.71003292
0.70810938
0.70637514
0.70482047
0.7034347
0.70220664
0.70112496
0.70017845
0.69935622
0.69864784
0.69804344
0.69753376
0.69711018
0.69676473
0.69649008
0.69627948
0.69612668
0.69602625
0.69597282
0.69596237
0.69598993
0.69605169
0.69614538
0.69626658
0.6964162
0.69658316
0.69677482
0.696987
0.69721118
0.69745368
0.69771267
0.69798247
0.69826422
0.69855828
0.76841824
0.76500266
0.76136745
0.75754823
0.75358603
0.74952611
0.74541642
0.74130584
0.73724227
0.73327065
0.72943131
0.7257586
0.72228008
0.71901618
0.71598039
0.71317979
0.71061588
0.7082855
0.70618183
0.70429524
0.70261416
0.70112578
0.69981663
0.6986731
0.69768173
0.69682949
0.69610399
0.69549353
0.69498723
0.69457496
0.69424749
0.69399629
0.69381365
0.69369261
0.69362641
0.69361008
0.69363742
0.69370414
0.6938068
0.69394163
0.69410354
0.69428882
0.69450337
0.69473152
0.69497866
0.6952466
0.69552637
0.69581986
0.69612616
0.69644277
0.69676928
0.69710536
0.76827903
0.76455201
0.76057848
0.75640147
0.7520708
0.74764145
0.74317138
0.73871906
0.73434087
0.73008859
0.72600738
0.7221343
0.71849759
0.71511665
0.71200258
0.70915909
0.70658378
0.70426929
0.70220456
0.70037591
0.69876802
0.69736474
0.69614965
0.69510659
0.69421997
0.69347497
0.69285772
0.6923554
0.69195614
0.69164912
0.69142454
0.69127335
0.69118768
0.69116063
0.69118462
0.69125418
0.69136508
0.69151271
0.69169063
0.69189609
0.69213162
0.69238221
0.69265829
0.69295002
0.69325666
0.69357832
0.69391143
0.69425542
0.6946094
0.69497194
0.69534233
0.69572004
0.76812667
0.76405675
0.75970972
0.75513778
0.75040174
0.74556857
0.74070835
0.73589086
0.7311821
0.72664111
0.72231768
0.71825082
0.71446842
0.71098756
0.70781567
0.70495193
0.70238894
0.70011423
0.6981118
0.69636341
0.69484966
0.6935508
0.69244738
0.69152065
0.69075291
0.69012765
0.68962963
0.68924496
0.68896105
0.68876631
0.68865067
0.68860448
0.68862061
0.6886895
0.68880689
0.68896653
0.68916132
0.68938757
0.68964729
0.68992377
0.69022907
0.69055004
0.69088865
0.69124118
0.69160599
0.69198211
0.69236756
0.69276135
0.69316255
0.69357018
0.69398356
0.69440213
0.76795964
0.76351141
0.75875112
0.75374252
0.74856009
0.74328562
0.73800386
0.7327978
0.72774409
0.72290924
0.71834705
0.7140974
0.71018629
0.706627
0.70342176
0.70056388
0.69803977
0.69583094
0.69391582
0.69227112
0.69087308
0.68969823
0.68872402
0.68792918
0.68729398
0.68680033
0.68643174
0.68617351
0.68601246
0.6859361
0.68593483
0.68599696
0.68611856
0.68628813
0.68649962
0.68674673
0.68703282
0.68733795
0.68767544
0.68802975
0.68840362
0.68879198
0.68919364
0.68960629
0.69002831
0.69045846
0.69089537
0.69133803
0.69178561
0.69223736
0.6926927
0.69315118
0.7677762
0.76290959
0.75769099
0.75219862
0.74652418
0.74076774
0.73503169
0.72941424
0.72400358
0.71887347
0.71408066
0.70966423
0.70564647
0.70203494
0.698825
0.69600253
0.69354658
0.69143179
0.68963036
0.68811363
0.68685325
0.68582198
0.68499423
0.6843463
0.68385659
0.68350564
0.68327584
0.68315187
0.68312046
0.68316741
0.68328427
0.68345909
0.68368982
0.68395608
0.68426946
0.68460555
0.6849782
0.68536993
0.68578337
0.68621235
0.68665563
0.68711022
0.68757437
0.68804627
0.68852445
0.68900774
0.68949502
0.68998546
0.69047833
0.69097304
0.6914692
0.69196644
0.76757434
0.7622438
0.75651555
0.75048615
0.74426893
0.73798657
0.73176249
0.72571217
0.7199359
0.7145139
0.70950417
0.70494277
0.70084598
0.69721345
0.69403168
0.69127756
0.68892163
0.68693081
0.68527059
0.68390663
0.68280592
0.68193751
0.68127293
0.68078619
0.68045403
0.68025601
0.68017329
0.680191
0.68029293
0.68046886
0.68070898
0.68099548
0.6813365
0.68170584
0.68211583
0.68254912
0.68300671
0.68348152
0.68397189
0.68447417
0.6849863
0.68550603
0.68603165
0.68656165
0.68709475
0.68762994
0.68816634
0.68870326
0.68924012
0.68977649
0.69031218
0.69084692
0.76735171
0.7615052
0.75520852
0.74858163
0.74176516
0.73490966
0.72816342
0.72166108
0.71551503
0.70981043
0.70460402
0.69992604
0.69578393
0.69216685
0.68905037
0.68640081
0.68417907
0.68234365
0.68085293
0.67966676
0.6787475
0.67806064
0.67757518
0.67726293
0.6770993
0.6770635
0.67713422
0.67729931
0.67754149
0.67784765
0.67821018
0.67861522
0.6790639
0.67954329
0.68004963
0.68057581
0.68111931
0.68167569
0.68224241
0.68281672
0.68339657
0.68398011
0.68456585
0.68515252
0.6857391
0.68632475
0.6869088
0.68749075
0.68807018
0.76710554
0.76068323
0.75375048
0.74645726
0.73897879
0.73149981
0.72419766
0.71722772
0.7107136
0.70474288
0.6993677
0.69460888
0.69046166
0.6869019
0.68389206
0.68138634
0.679335
0.67768753
0.67639502
0.67541151
0.6746949
0.67420737
0.67391601
0.67379042
0.6738057
0.67393763
0.6741697
0.67448774
0.67486614
0.67531277
0.67579544
0.67632506
0.6768846
0.67746821
0.67807138
0.67868897
0.67931773
0.67995426
0.68059607
0.6812409
0.68188694
0.68253269
0.68317692
0.68381863
0.68445703
0.6850915
0.68572159
0.68634698
0.68696743
0.76683256
0.75976524
0.7521181
0.7440799
0.73586976
0.72771419
0.71982393
0.71237588
0.70550291
0.69929126
0.69378406
0.68898827
0.68488306
0.681428
0.67857024
0.67625044
0.67440733
0.67298111
0.67191551
0.67115902
0.67066537
0.67039364
0.67031031
0.67038157
0.67058346
0.67089286
0.67128806
0.67175836
0.67228362
0.67286388
0.67348033
0.67412752
0.67479735
0.67548409
0.67618328
0.67689074
0.67760336
0.67831836
0.67903355
0.67974708
0.68045749
0.6811636
0.68186446
0.68255935
0.68324774
0.68392924
0.68460361
0.68527072
0.68593053
0.7665289
0.75873586
0.75028308
0.74140975
0.73239082
0.72350341
0.71499582
0.70706614
0.69985294
0.69343596
0.68784358
0.68306359
0.67905484
0.6757574
0.67310105
0.67101165
0.66941581
0.66824435
0.66743392
0.66692788
0.66667635
0.66663686
0.66676955
0.66704983
0.66744667
0.66792955
0.66849932
0.66912152
0.66980105
0.67051781
0.67126151
0.67202609
0.67280511
0.67359347
0.6743871
0.67518256
0.67597713
0.67676855
0.67755504
0.67833519
0.67910788
0.67987225
0.68062769
0.68137375
0.68211016
0.68283676
0.68355353
0.68426054
0.68495793
0.76618985
0.7575763
0.74821077
0.73839869
0.72848589
0.71881021
0.70966098
0.70125541
0.69373232
0.68715794
0.68153868
0.67683704
0.6729868
0.66990541
0.66750334
0.66569075
0.66438185
0.66349838
0.66297047
0.662737
0.66274572
0.66294854
0.66331159
0.66380804
0.66439728
0.66506773
0.66580446
0.66659536
0.66742163
0.66827373
0.66914313
0.67002375
0.6709102
0.67179812
0.67268407
0.67356522
0.6744394
0.67530488
0.67616032
0.67700473
0.67783737
0.67865774
0.67946553
0.6802606
0.68104291
0.68181258
0.68256978
0.6833148
0.68404795
0.76580977
0.75626323
0.74585836
0.73498805
0.72408804
0.71356792
0.70376006
0.69489644
0.68710823
0.68043885
0.67486409
0.67031402
0.66669229
0.66389063
0.66179875
0.66031074
0.65932844
0.6587653
0.6585458
0.65860494
0.65888707
0.65935018
0.65994687
0.66065783
0.66145042
0.66231276
0.6632279
0.66417706
0.66514907
0.66613521
0.66712826
0.66812276
0.66911425
0.67009918
0.6710748
0.67203898
0.67299009
0.67392695
0.67484871
0.67575481
0.67664489
0.67751882
0.67837661
0.6792184
0.68004443
0.68085504
0.68165065
0.68243172
0.68319876
0.76538169
0.75476744
0.74317232
0.73110571
0.71911688
0.70769836
0.69722516
0.68793689
0.67994603
0.67326126
0.66781725
0.66350364
0.6601885
0.65773516
0.65601175
0.65489676
0.65427993
0.65406796
0.65417972
0.65454898
0.65512233
0.65584278
0.65668702
0.65761709
0.65862332
0.65967835
0.66076519
0.6618714
0.66298725
0.66410516
0.66521914
0.66632467
0.66741823
0.66849713
0.66955939
0.67060355
0.67162862
0.67263394
0.67361918
0.6745842
0.67552907
0.676454
0.67735931
0.67824545
0.67911292
0.67996231
0.68079424
0.68160937
0.68240839
0.76489705
0.75305174
0.74008498
0.72666226
0.71347503
0.701109
0.68997911
0.68032084
0.67221208
0.66561152
0.66040053
0.65641985
0.65349702
0.65146487
0.65016964
0.649476
0.64926181
0.64942778
0.64989354
0.65059155
0.65145314
0.65245272
0.6535387
0.65470735
0.65592211
0.65716445
0.65842135
0.65968229
0.66093913
0.66218567
0.66341722
0.66463033
0.66582249
0.66699191
0.6681374
0.66925821
0.67035398
0.67142464
0.67247033
0.67349138
0.67448824
0.6754615
0.6764118
0.67733985
0.67824644
0.67913238
0.67999852
0.68084572
0.68167481
0.76434507
0.75106806
0.73650965
0.72154566
0.70704339
0.69369204
0.68193832
0.67199331
0.66387834
0.65748372
0.65262414
0.64908334
0.64664461
0.64510957
0.64430237
0.64407761
0.64429763
0.64487052
0.64571068
0.64673443
0.64791241
0.64917941
0.65053295
0.65192976
0.65334917
0.65477642
0.65620044
0.6576127
0.65900681
0.6603781
0.66172324
0.66303997
0.66432681
0.66558291
0.6668079
0.66800177
0.6691648
0.67029749
0.67140047
0.67247453
0.67352052
0.67453937
0.67553205
0.67649954
0.67744289
0.67836316
0.67926139
0.68013863
0.68099589
0.76371211
0.74875318
0.73233375
0.71561391
0.69967842
0.68532686
0.67301656
0.66290376
0.65492533
0.64888201
0.64450812
0.64152331
0.63966422
0.63870321
0.63844663
0.63872471
0.63941786
0.64042138
0.64163304
0.64301739
0.64449437
0.64606153
0.64766729
0.64928896
0.65091008
0.65251854
0.65410556
0.65566474
0.65719158
0.65868306
0.66013726
0.66155316
0.66293038
0.66426903
0.66556955
0.66683269
0.66805936
0.66925063
0.67040764
0.67153162
0.6726238
0.67368547
0.67471789
0.67572233
0.67670008
0.67765243
0.67858064
0.67948592
0.68036945
0.76298052
0.74602223
0.72740876
0.70868804
0.69121174
0.67588211
0.66312859
0.65301021
0.64534554
0.63982309
0.63608376
0.63377803
0.63259528
0.63228819
0.63262565
0.63345702
0.63465085
0.63608245
0.6377079
0.63943028
0.64124562
0.64309371
0.64494812
0.64679099
0.64860932
0.650394
0.6521388
0.65383963
0.65549394
0.65710044
0.65865869
0.66016895
0.66163194
0.66304873
0.66442061
0.66574906
0.66703564
0.66828196
0.66948966
0.67066041
0.67179582
0.6728975
0.67396702
0.67500592
0.67601569
0.67699791
0.67795401
0.67888535
0.67979328
0.76212696
0.74275856
0.72153714
0.70054535
0.68144902
0.66521911
0.65219548
0.64228417
0.6351472
0.63033853
0.62739471
0.62589522
0.6254884
0.62589252
0.62688728
0.62830668
0.62999905
0.63190961
0.63392141
0.63602781
0.63815896
0.64028362
0.64238201
0.6444406
0.6464502
0.64840493
0.65030135
0.65213774
0.65391364
0.65562948
0.65728637
0.65888584
0.66042973
0.66192007
0.663359
0.66474869
0.66609134
0.66738912
0.66864415
0.66985849
0.67103415
0.67217306
0.67327706
0.67434793
0.67538739
0.67639727
0.67737919
0.67833466
0.67926516
0.76111967
0.73879792
0.71445551
0.6909114
0.67017098
0.65319818
0.64015183
0.63071649
0.62435811
0.62047686
0.61849764
0.61793105
0.61838355
0.61957545
0.62127018
0.62327637
0.62552848
0.62788585
0.63033676
0.63280215
0.6352431
0.63763849
0.63997414
0.64224131
0.6444349
0.64655246
0.64859347
0.65055868
0.65244972
0.65426883
0.65601861
0.6577019
0.65932163
0.66088079
0.66238232
0.66382912
0.66522398
0.66656959
0.66786856
0.66912334
0.67033629
0.67150964
0.67264552
0.67374593
0.67481274
0.67584817
0.67685389
0.67783158
0.67878285
0.7599137
0.73390485
0.705813
0.67945228
0.65713838
0.63968837
0.62695502
0.61832385
0.61302927
0.61030521
0.60946258
0.60994253
0.61134624
0.61338626
0.61577803
0.61844434
0.62121949
0.62408328
0.62694735
0.62976262
0.63250613
0.635164
0.63772832
0.64019542
0.64256451
0.64483675
0.64701458
0.64910129
0.65110061
0.65301656
0.65485324
0.65661476
0.65830515
0.6599283
0.66148795
0.66298767
0.66443086
0.6658207
0.66716024
0.66845231
0.66969962
0.6709047
0.67206991
0.67319748
0.75844261
0.72773423
0.69514113
0.66577037
0.64210318
0.62458163
0.61259627
0.60515536
0.60123794
0.59991019
0.60036366
0.60200946
0.60444084
0.60733083
0.61050429
0.61378905
0.61715326
0.62049969
0.62376244
0.62691843
0.62995439
0.63286432
0.63564694
0.63830398
0.64083907
0.64325703
0.64556333
0.64776376
0.64986415
0.65187026
0.65378767
0.65562173
0.65737749
0.65905976
0.66067303
0.66222151
0.66370915
0.66513964
0.66651642
0.6678427
0.6691215
0.67035561
0.67154766
0.67270011
0.75660112
0.71976709
0.68181826
0.64940871
0.62482843
0.60781144
0.597113
0.59129856
0.58908943
0.58938932
0.59129722
0.59422267
0.59767084
0.60152611
0.60542636
0.60939901
0.61333781
0.61714295
0.62079272
0.62427684