/*--------------------------------*- C++ -*----------------------------------*\
| =========                 |                                                 |
| \\      /  F ield         | OpenFOAM: The Open Source CFD Toolbox           |
|  \\    /   O peration     | Version:  2312                                  |
|   \\  /    A nd           | Website:  www.openfoam.com                      |
|    \\/     M anipulation  |                                                 |
\*---------------------------------------------------------------------------*/
FoamFile
{
    version     2.0;
    format      ascii;
    arch        "LSB;label=32;scalar=64";
    class       volScalarField;
    location    "0.07";
    object      nut;
}
// * * * * * * * * * * * * * * * * * * * * * * * * * * * * * * * * * * * * * //

dimensions      [0 2 -1 0 0 0 0];

internalField   nonuniform List<scalar> 
3221
(
0.024518524
0.02466797
0.024828069
0.024997901
0.025175984
0.025360569
0.025549748
0.025741562
0.0259341
0.026125592
0.026314575
0.026500605
0.026687702
0.026901043
0.027263273
0.027581533
0.027818906
0.028060538
0.028269033
0.028462452
0.02863225
0.028783407
0.028917514
0.029034379
0.029136631
0.029223573
0.029297315
0.02935804
0.02940726
0.029445681
0.029474505
0.029494619
0.029507039
0.029512685
0.029512471
0.029507318
0.029498066
0.02948554
0.029470497
0.029453682
0.02943569
0.029417149
0.029398584
0.029380448
0.029363119
0.02934694
0.029332246
0.029319721
0.029311702
0.029317041
0.029373737
0.029397765
0.024513028
0.02465573
0.024810795
0.024976205
0.025150086
0.02533061
0.025515895
0.025704037
0.025893178
0.026081562
0.026267603
0.026450048
0.026628549
0.026805466
0.026988924
0.027171849
0.027346281
0.027521092
0.027689223
0.027853497
0.028010397
0.028160799
0.028303286
0.028437971
0.028564481
0.028682655
0.028792697
0.028894602
0.028988574
0.029074803
0.029153737
0.029225693
0.029291096
0.029350289
0.029403645
0.029451535
0.029494445
0.029532948
0.029567667
0.029599215
0.029628174
0.029654996
0.029680097
0.029703844
0.029726567
0.029748575
0.029770183
0.029791886
0.029814814
0.029841594
0.029875632
0.029909554
0.024505959
0.024634892
0.024777438
0.024931517
0.025095082
0.025266159
0.025442809
0.02562313
0.025805299
0.025987613
0.026168523
0.026346678
0.026521016
0.02669094
0.026856546
0.027017528
0.027172873
0.027322979
0.027467061
0.027605207
0.027736978
0.027862525
0.027981834
0.028095154
0.028202704
0.028304786
0.028401743
0.028493885
0.028581567
0.028665112
0.028744883
0.028821184
0.028894308
0.028964482
0.0290319
0.029096736
0.029159215
0.029219608
0.029278218
0.029335339
0.029391247
0.029446174
0.029500327
0.029553897
0.029607074
0.029660056
0.029713068
0.029766428
0.029820644
0.029876496
0.029934726
0.029994698
0.024498512
0.02461183
0.024739029
0.02487846
0.02502823
0.025186417
0.025351112
0.025520455
0.025692676
0.025866125
0.026039297
0.026210851
0.026379633
0.026544696
0.026705334
0.026861006
0.027011158
0.027155437
0.027293613
0.027425445
0.027550854
0.0276699
0.027782731
0.027889604
0.027990831
0.028086783
0.028177861
0.028264485
0.028347098
0.028426133
0.028502026
0.028575195
0.028646037
0.028714908
0.028782126
0.028847975
0.028912727
0.02897665
0.029039999
0.029103013
0.029165904
0.029228856
0.029292034
0.029355587
0.029419655
0.029484391
0.029549946
0.0296165
0.029684272
0.029753517
0.029824404
0.029896781
0.024491276
0.024589127
0.024700507
0.024824252
0.024958771
0.025102332
0.025253162
0.025409516
0.025569722
0.025732213
0.025895553
0.026058445
0.026219745
0.026378467
0.026533787
0.026685032
0.026831566
0.026973118
0.027109284
0.027239816
0.02736459
0.027483589
0.027596893
0.027704666
0.027807141
0.027904605
0.027997397
0.028085894
0.028170479
0.028251565
0.02832957
0.028404909
0.028477985
0.028549179
0.028618846
0.028687312
0.028754878
0.028821826
0.028888413
0.028954875
0.029021422
0.029088242
0.029155504
0.029223362
0.029291963
0.029361433
0.029431905
0.029503512
0.029576391
0.029650674
0.029726451
0.029803626
0.024484651
0.024568308
0.024664836
0.024773457
0.024892884
0.025021618
0.02515808
0.025300687
0.025447906
0.025598288
0.025750489
0.025903288
0.026055588
0.026206428
0.026354978
0.026500512
0.02664242
0.02678043
0.02691407
0.02704309
0.027167337
0.027286746
0.027401342
0.027511224
0.027616558
0.027717572
0.02781452
0.027907665
0.02799732
0.02808382
0.028167508
0.028248731
0.028327829
0.028405132
0.028480951
0.028555578
0.028629283
0.028702315
0.028774902
0.028847253
0.028919554
0.028991978
0.029064677
0.029137793
0.029211454
0.029285779
0.02936088
0.029436863
0.029513828
0.029591873
0.029671077
0.029751421
0.024478834
0.024550059
0.024633385
0.024728294
0.02483375
0.024948477
0.025071094
0.025200197
0.025334408
0.025472416
0.025612994
0.025755011
0.025897447
0.026039395
0.026180062
0.026318674
0.026454796
0.026588049
0.026717988
0.026844366
0.026967019
0.027085868
0.02720091
0.027312201
0.027419855
0.027524033
0.027624938
0.027722804
0.027817832
0.027910252
0.028000339
0.028088362
0.028174587
0.028259269
0.028342653
0.028424964
0.028506411
0.028587189
0.028667471
0.028747417
0.028827173
0.028906868
0.028986624
0.029066549
0.029146743
0.029227299
0.029308302
0.029389831
0.029471963
0.029554768
0.029638313
0.02972263
0.024473873
0.024534526
0.024606487
0.024689405
0.024782433
0.024884483
0.024994355
0.025110813
0.025232639
0.025358661
0.025487776
0.025618963
0.025751291
0.025883924
0.026016133
0.026147109
0.026276676
0.026404292
0.026529592
0.026652341
0.026772385
0.026889639
0.027004078
0.027115756
0.027224763
0.02733122
0.027435271
0.027537077
0.027636811
0.027734593
0.027830621
0.027925098
0.028018216
0.028110157
0.028201093
0.028291178
0.028380554
0.028469349
0.028557676
0.028645641
0.028733334
0.028820839
0.028908232
0.028995584
0.029082959
0.029170418
0.029258016
0.029345808
0.029433844
0.029522175
0.02961085
0.029699917
0.024469729
0.024521558
0.024583923
0.02465657
0.024738792
0.024829651
0.024928102
0.025033062
0.025143461
0.025258265
0.025376497
0.02549725
0.025619692
0.025743077
0.02586669
0.025989888
0.026112549
0.026234078
0.026354203
0.026472726
0.026589519
0.026704517
0.026817711
0.026929119
0.027038792
0.027146809
0.027253269
0.027358281
0.027461959
0.02756441
0.02766571
0.027766003
0.027865413
0.027964052
0.02806202
0.0281594
0.028256266
0.02835268
0.028448696
0.028544359
0.028639708
0.028734777
0.0288296
0.028924205
0.029018621
0.029112878
0.029207005
0.02930103
0.029394985
0.029488902
0.029582816
0.029676774
0.024466321
0.02451089
0.024565249
0.024629201
0.02470214
0.02478325
0.024871616
0.024966288
0.025066331
0.025170841
0.025278966
0.025389914
0.02550296
0.025617456
0.025732645
0.025848352
0.025964174
0.026079709
0.02619471
0.026309004
0.02642248
0.026535083
0.026646793
0.026757625
0.026867618
0.026976824
0.027085301
0.027193108
0.027300299
0.027406927
0.027513001
0.027618595
0.027723768
0.027828559
0.027932997
0.028037097
0.028140867
0.028244304
0.028347403
0.028450154
0.028552546
0.028654568
0.02875621
0.028857466
0.028958333
0.029058811
0.029158907
0.029258629
0.029357994
0.02945702
0.029555734
0.029654175
0.024463563
0.024502227
0.024549959
0.024606587
0.024671585
0.024744239
0.024823749
0.024909292
0.025000058
0.025095273
0.02519421
0.025296197
0.025400625
0.025506852
0.025614376
0.025723158
0.025832644
0.02594258
0.026052781
0.026163121
0.02627352
0.026383936
0.026494353
0.026604775
0.026715215
0.026825689
0.026936208
0.027046778
0.027157393
0.027268037
0.027378672
0.027489301
0.027599912
0.027710474
0.027820944
0.027931271
0.028041397
0.028151262
0.028260804
0.028369962
0.02847868
0.028586907
0.028694597
0.028801713
0.028908225
0.029014113
0.029119364
0.029223975
0.02932795
0.029431301
0.029534051
0.029636233
0.024461377
0.024495328
0.024537646
0.024588172
0.024646446
0.024711839
0.024783656
0.024861187
0.024943741
0.02503067
0.02512137
0.025215289
0.025311931
0.025410577
0.025511423
0.025613911
0.025717774
0.02582283
0.025928945
0.026036031
0.026144031
0.026252911
0.02636265
0.026473229
0.02658463
0.026696823
0.026809766
0.026923402
0.027037657
0.027152444
0.027267684
0.027383307
0.027499226
0.02761534
0.027731535
0.027847697
0.027963706
0.028079448
0.02819481
0.028309689
0.02842399
0.028537627
0.028650528
0.028762631
0.028873888
0.028984264
0.029093735
0.029202289
0.029309928
0.029416663
0.029522516
0.029627522
0.024459689
0.024489954
0.024527896
0.024573366
0.024625958
0.024685129
0.02475028
0.024820813
0.024896158
0.024975792
0.025059238
0.02514607
0.025235691
0.025328125
0.025423113
0.025520318
0.025619583
0.025720788
0.02582385
0.025928711
0.026035327
0.026143659
0.026253668
0.0263653
0.026478489
0.026593148
0.026709169
0.026826424
0.026944763
0.027064022
0.027184089
0.027304815
0.027426037
0.027547581
0.027669269
0.027790925
0.027912376
0.028033458
0.028154019
0.028273918
0.028393031
0.028511249
0.028628478
0.028744645
0.028859689
0.028973567
0.029086254
0.029197738
0.02930802
0.029417118
0.029525059
0.029631886
0.024458437
0.024485911
0.024520379
0.024561701
0.024609531
0.024663408
0.024722836
0.02478733
0.024856446
0.024929789
0.025007016
0.025087655
0.025171648
0.025258961
0.025349261
0.025442428
0.025538375
0.025637041
0.025738376
0.02584234
0.025948884
0.026057947
0.02616945
0.026283288
0.026399328
0.02651741
0.026637348
0.026758931
0.02688193
0.0270061
0.0271313
0.027257298
0.027383853
0.027510724
0.027637671
0.027764465
0.027890887
0.028016736
0.028141827
0.028265997
0.0283891
0.028511013
0.028631636
0.028750887
0.028868706
0.028985051
0.029099902
0.029213251
0.029325112
0.029435509
0.029544482
0.029652085
0.024457564
0.02448303
0.024514809
0.024552784
0.024596672
0.024646105
0.024700695
0.024760081
0.024823952
0.024892052
0.024964032
0.025039814
0.025119569
0.025202995
0.025290036
0.025380658
0.025474837
0.025572549
0.025673762
0.025778429
0.025886472
0.025997784
0.026112221
0.026229604
0.026349714
0.026472303
0.02659709
0.026723775
0.026852043
0.026981589
0.027112227
0.02724364
0.027375514
0.027507546
0.027639446
0.027770941
0.02790178
0.028031735
0.028160604
0.028288209
0.028414398
0.028539048
0.028662057
0.02878335
0.028902875
0.029020601
0.029136518
0.029250634
0.029362974
0.029473581
0.02958251
0.02968983
0.024457021
0.024481161
0.024510941
0.024546279
0.024586971
0.024632754
0.024683365
0.024738579
0.02479823
0.024862084
0.0249301
0.025002626
0.025079428
0.025160537
0.025245991
0.025335822
0.025430048
0.02552866
0.025631614
0.025738822
0.025850149
0.025965411
0.026084373
0.026206754
0.026332232
0.02646045
0.026591025
0.026723556
0.026857639
0.026992987
0.027129293
0.027266162
0.027403224
0.027540127
0.027676544
0.027812175
0.02794675
0.02808003
0.028211807
0.028341907
0.028470183
0.028596521
0.028720833
0.028843059
0.028963165
0.029081138
0.029196986
0.029310738
0.029422441
0.029532152
0.029639953
0.029745944
0.024456762
0.024480171
0.02450856
0.024541903
0.024580093
0.024622994
0.024670486
0.024722499
0.02477891
0.024839751
0.024905533
0.024976119
0.02505165
0.025132257
0.025218054
0.025309114
0.025405466
0.02550708
0.02561386
0.025725644
0.025842199
0.025963231
0.026088382
0.026217248
0.026349382
0.026484309
0.026621536
0.026760568
0.026900921
0.027042348
0.027184383
0.027326582
0.02746853
0.027609844
0.027750176
0.027889218
0.028026696
0.028162379
0.028296071
0.02842761
0.028556872
0.028683764
0.028808222
0.028930212
0.029049724
0.029166773
0.029281392
0.029393632
0.029503579
0.029611279
0.029716974
0.029820523
0.024456744
0.024479942
0.02450748
0.024539416
0.02457577
0.024616556
0.024661824
0.02471156
0.024765904
0.024825522
0.024890396
0.024960799
0.025036984
0.025119167
0.025207503
0.025302074
0.025402874
0.025509807
0.02562268
0.025741209
0.025865026
0.025993686
0.026126684
0.026263467
0.026403452
0.026546037
0.026690622
0.02683662
0.02698358
0.027131139
0.027278756
0.027425946
0.02757227
0.027717336
0.027860795
0.028002349
0.028141744
0.028278768
0.028413254
0.028545072
0.028674129
0.028800366
0.028923755
0.029044294
0.029162006
0.02927694
0.029389165
0.029498726
0.029605894
0.029710509
0.029812845
0.029913004
0.024456928
0.024480366
0.02450754
0.024538624
0.024573801
0.024613267
0.024657144
0.024705707
0.024759778
0.024819481
0.024885243
0.024957467
0.0250365
0.025122606
0.025215943
0.025316547
0.025424328
0.025539064
0.025660414
0.025787922
0.025921039
0.02605914
0.026201543
0.026347535
0.026496387
0.026647374
0.026799798
0.026953005
0.027106663
0.02726017
0.027412975
0.027564579
0.027714545
0.027862494
0.028008103
0.028151103
0.028291275
0.028428451
0.028562505
0.028693352
0.028820944
0.028945265
0.029066331
0.029184182
0.029298875
0.029410503
0.02951922
0.029625071
0.029728147
0.029828637
0.029926696
0.030022474
0.024457275
0.024481349
0.024508604
0.02453938
0.024574055
0.024612923
0.02465642
0.024705554
0.024760611
0.024822196
0.024890893
0.024967215
0.025051568
0.025144215
0.02524526
0.025354631
0.025472085
0.025597213
0.025729464
0.02586816
0.026012533
0.026161746
0.026314926
0.026471189
0.026629666
0.026789517
0.02694996
0.027110493
0.02727057
0.027429549
0.027586874
0.027742064
0.027894711
0.028044473
0.028191075
0.0283343
0.028473985
0.028610018
0.02874233
0.028870894
0.028995716
0.029116833
0.02923431
0.029348245
0.029458708
0.02956601
0.029669948
0.029770889
0.029868955
0.029964317
0.030057151
0.030147635
0.024457754
0.024482808
0.024510568
0.024541581
0.024576346
0.024615495
0.024660274
0.024711155
0.024768957
0.024834477
0.024908434
0.024991419
0.025083842
0.025185904
0.025297579
0.025418609
0.025548523
0.025686656
0.025832182
0.025984159
0.026141563
0.026303326
0.026468378
0.026635672
0.026804212
0.026973074
0.027141513
0.027309055
0.027474973
0.027638647
0.027799554
0.02795726
0.028111411
0.028261733
0.028408018
0.028550121
0.028687953
0.028821472
0.028950681
0.029075618
0.029196354
0.02931298
0.029425607
0.029534524
0.029639627
0.0297412
0.02983941
0.029934461
0.030026541
0.030115845
0.030202573
0.030286926
0.024458333
0.024484679
0.024513354
0.024545053
0.024580622
0.024621605
0.024668714
0.024723022
0.024785583
0.024857372
0.024939213
0.025031717
0.025135231
0.025249806
0.025375198
0.025510875
0.02565605
0.02580973
0.025970764
0.026137898
0.026309832
0.026485264
0.026662932
0.026841644
0.027020312
0.02719797
0.027374118
0.027547961
0.027718818
0.027886122
0.028049417
0.028208346
0.02836264
0.028512114
0.02865665
0.028796193
0.028930741
0.029060336
0.029185058
0.029305023
0.029420376
0.029531265
0.029638011
0.029740486
0.029839092
0.029934023
0.030025488
0.03011371
0.030198911
0.030281312
0.030361137
0.030438609
0.024458991
0.02448691
0.024516804
0.024549706
0.024587497
0.024631195
0.024682189
0.02474185
0.024811468
0.024892166
0.024984821
0.025089988
0.025207855
0.025338223
0.025480522
0.025633843
0.025797001
0.025968606
0.02614713
0.026330986
0.02651859
0.026708412
0.026899024
0.027089124
0.027277563
0.027463696
0.027646688
0.027825782
0.028000368
0.028169969
0.028334231
0.028492902
0.028645828
0.028792931
0.028934203
0.029069694
0.0291995
0.029323753
0.029442616
0.029556292
0.029665132
0.029769084
0.029868498
0.029963625
0.03005473
0.030142063
0.030225874
0.030306416
0.030383937
0.030458686
0.030530905
0.030600837
0.024459718
0.024489374
0.024520789
0.024556148
0.024596834
0.024644627
0.024701294
0.024768516
0.024847799
0.024940368
0.025047073
0.025168313
0.025303998
0.025453554
0.025615967
0.025789849
0.025973532
0.026165168
0.026362823
0.026564566
0.026768541
0.026973022
0.027176452
0.027377473
0.027575222
0.027768833
0.027957454
0.028140427
0.028317256
0.028487593
0.028651214
0.028808005
0.028957943
0.029101081
0.029237533
0.029367464
0.029491076
0.029608605
0.029720275
0.029826647
0.029927456
0.030023316
0.030114491
0.030201272
0.030283953
0.030362827
0.03043818
0.030510291
0.030579435
0.030645881
0.030709891
0.030771722
0.024460468
0.02449192
0.024525904
0.024564158
0.024608902
0.024662385
0.02472678
0.024804079
0.024895966
0.025003693
0.025127976
0.025268927
0.025426037
0.025598216
0.025783877
0.025981051
0.026187513
0.026400916
0.026618908
0.026839229
0.027059784
0.0272787
0.027494355
0.027705645
0.027911611
0.028111308
0.028304014
0.028489216
0.028666575
0.028835903
0.028997141
0.029150331
0.029295603
0.029433152
0.029563226
0.029686112
0.029802124
0.029911676
0.03001506
0.030112471
0.030204377
0.030291155
0.030373149
0.030450701
0.030524145
0.030593808
0.030660007
0.030723046
0.030783222
0.030840819
0.030896117
0.030949388
0.024461081
0.024495111
0.024531857
0.024573913
0.02462406
0.024685072
0.02475955
0.024849774
0.024957544
0.025084035
0.025229688
0.025394165
0.025576372
0.025774551
0.025986414
0.026209315
0.026440421
0.026676866
0.026915893
0.027154951
0.027391768
0.027624392
0.027851435
0.028071794
0.028284395
0.028488449
0.028683416
0.02886897
0.02904497
0.029211419
0.029368445
0.029516269
0.029655183
0.029785535
0.02990771
0.030022129
0.030129402
0.030229591
0.030323257
0.030410883
0.030492884
0.030569677
0.030641661
0.030709222
0.030772731
0.030832545
0.030889007
0.030942444
0.030993167
0.031041477
0.031087664
0.031132014
0.024461794
0.024498553
0.024538732
0.024585652
0.024642763
0.024713417
0.024800653
0.024906999
0.025034275
0.025183433
0.025354463
0.025546386
0.025757338
0.025984729
0.026225455
0.026476119
0.026733246
0.026993467
0.027253662
0.027511055
0.027763277
0.028008599
0.028245703
0.028473354
0.028690666
0.028897067
0.029092245
0.02927611
0.029448745
0.029610375
0.029761332
0.029902027
0.030032924
0.030154526
0.030267352
0.03037228
0.03046913
0.030558831
0.03064188
0.030718779
0.03079001
0.030856037
0.030917303
0.030974232
0.031027228
0.031076674
0.031122931
0.031166345
0.031207242
0.031245931
0.031282705
0.031317868
0.024462529
0.024502335
0.02454668
0.024599687
0.024665558
0.024748266
0.02485128
0.024977303
0.025128037
0.025304027
0.025504593
0.025727895
0.025971103
0.026230642
0.026502488
0.026782446
0.027066407
0.02735054
0.027631437
0.027906194
0.028172653
0.028429204
0.028674392
0.028907207
0.029127025
0.029333544
0.02952673
0.029706758
0.02987397
0.030028827
0.030171878
0.030303731
0.030425026
0.030536419
0.030638939
0.030732456
0.030818034
0.030896293
0.030967821
0.031033181
0.03109291
0.031147519
0.031197486
0.031243268
0.031285292
0.031323964
0.031359663
0.031392744
0.031423543
0.031452377
0.031479533
0.031505336
0.024463279
0.024506536
0.024555896
0.024616399
0.024693083
0.024790579
0.024912749
0.025062357
0.025240807
0.025447996
0.025682324
0.025940848
0.026219571
0.026513798
0.026818509
0.027128704
0.027439682
0.027747232
0.028047766
0.028338574
0.028617653
0.028883256
0.029134196
0.02936977
0.029589676
0.029793939
0.029982839
0.030156848
0.030316582
0.030462753
0.03059613
0.030717518
0.030827782
0.030927965
0.031018187
0.031099595
0.031172928
0.031238887
0.03129813
0.031351276
0.031398909
0.031441578
0.031479792
0.031514032
0.031544747
0.031572354
0.031597249
0.031619788
0.031640313
0.031659148
0.031676588
0.031692938
0.024464055
0.024511254
0.024566615
0.02463623
0.024726062
0.02484142
0.024986488
0.025163929
0.025374607
0.025617491
0.025889769
0.026187146
0.026504269
0.026835211
0.027173927
0.027514648
0.027852163
0.028182001
0.028500738
0.02880584
0.029095165
0.02936728
0.029621359
0.02985708
0.030074525
0.030274086
0.030456388
0.030622221
0.030772483
0.030908142
0.031030188
0.031139706
0.031237846
0.031324884
0.031402151
0.031470507
0.031530773
0.031583717
0.031630055
0.031670452
0.031705529
0.031735868
0.031762001
0.031784425
0.031803605
0.031819965
0.031833909
0.031845799
0.03185597
0.031864748
0.031872441
0.031879328
0.024464885
0.024516608
0.02457911
0.024659682
0.024765298
0.024901941
0.025074008
0.025283835
0.025531446
0.025814549
0.026128809
0.026468325
0.026826232
0.027195303
0.027568487
0.027939327
0.02830223
0.028652832
0.028987889
0.029304723
0.029601551
0.029877358
0.030131767
0.030364904
0.030577282
0.030769696
0.030943136
0.031098716
0.031237621
0.031361076
0.031470387
0.031566913
0.031651023
0.031724275
0.031787689
0.031842218
0.031888751
0.031928115
0.031961071
0.031988323
0.032010517
0.032028264
0.032042106
0.032052551
0.03206008
0.032065112
0.032068053
0.032069273
0.032069096
0.032067846
0.032065826
0.03206331
0.024465803
0.024522746
0.024593696
0.024687308
0.024811658
0.024973368
0.02517687
0.025423888
0.025713237
0.02604099
0.026400964
0.026785431
0.027185891
0.027593807
0.028001198
0.028401049
0.028787761
0.029157151
0.029505802
0.029831431
0.030132737
0.030409227
0.030661049
0.030888834
0.031093563
0.031276454
0.031438873
0.031582258
0.031708069
0.031817896
0.031913402
0.031994975
0.032064468
0.032123076
0.03217191
0.032211998
0.032244289
0.032269656
0.032288898
0.032302743
0.032311856
0.032316865
0.032318321
0.032316733
0.032312589
0.032306306
0.032298283
0.032288887
0.032278443
0.032267262
0.032255639
0.032243842
0.024466858
0.024529834
0.024610717
0.024719711
0.024866067
0.025056969
0.025296643
0.025585826
0.025921699
0.026298294
0.026707272
0.027138889
0.02758296
0.028029689
0.02847029
0.028897562
0.029306072
0.029691388
0.030050519
0.030381723
0.030684303
0.030958375
0.031204677
0.031424386
0.031618977
0.031790102
0.031939499
0.032068927
0.032180137
0.032275434
0.032355025
0.03242115
0.032475208
0.03251849
0.032552186
0.032577384
0.03259508
0.03260618
0.032611508
0.032611813
0.032607768
0.032600003
0.032589081
0.032575504
0.032559753
0.032542249
0.032523379
0.032503501
0.032482936
0.032461984
0.032440927
0.032420026
0.02446811
0.024538064
0.024630549
0.024757525
0.02492948
0.025154021
0.025434837
0.02577122
0.026158232
0.026587457
0.02704813
0.027528374
0.028016335
0.028501074
0.028973341
0.029426061
0.029853417
0.030251404
0.030617622
0.030951014
0.031251586
0.031520144
0.031758063
0.031967096
0.032149218
0.032306515
0.032441094
0.032555012
0.032650894
0.032729354
0.032792656
0.032842555
0.032880547
0.032908002
0.032926173
0.032936192
0.032939086
0.032935788
0.032927133
0.032913879
0.032896708
0.03287624
0.032853037
0.0328276
0.032800395
0.032771838
0.032742306
0.032712144
0.032681663
0.032651153
0.032620883
0.0325911
0.024469627
0.024547643
0.024653586
0.024801407
0.025002864
0.025265764
0.025592824
0.025981347
0.026423762
0.026908823
0.027423138
0.027952669
0.028483997
0.029005303
0.029507397
0.02998259
0.030425447
0.030832578
0.031202337
0.031534473
0.031829788
0.032089835
0.032316659
0.032512601
0.032680137
0.032821774
0.032939972
0.033037629
0.033115999
0.033177215
0.033223503
0.033256602
0.033278088
0.033289392
0.033291812
0.033286514
0.033274542
0.033256839
0.033234251
0.03320753
0.033177359
0.033144348
0.033109051
0.033071959
0.033033523
0.032994148
0.032954198
0.032914004
0.032873866
0.032834059
0.032794837
0.032756435
0.024471492
0.024558789
0.024680233
0.024852021
0.025087162
0.025393335
0.025771728
0.026217039
0.026718552
0.027261883
0.027830918
0.028409538
0.028982943
0.029539217
0.030068223
0.03056253
0.031017289
0.031429907
0.031799636
0.032127135
0.032414075
0.032662798
0.032876038
0.03305672
0.03320781
0.03333221
0.033433191
0.033512794
0.033572905
0.033616331
0.03364509
0.033661012
0.033665732
0.03366073
0.033647331
0.033626715
0.033599941
0.033567947
0.033531577
0.03349158
0.033448626
0.033403315
0.033356182
0.033307708
0.033258325
0.033208424
0.033158353
0.033108427
0.033058931
0.033010125
0.03296225
0.032915526
0.024473795
0.024571731
0.024710893
0.024910011
0.025183245
0.025537672
0.025972266
0.026478467
0.027041964
0.02764505
0.028268934
0.028895591
0.029509728
0.030098195
0.030650837
0.031160682
0.031623657
0.032038124
0.032404354
0.032724007
0.032999679
0.033234524
0.03343197
0.033595518
0.033728593
0.033834747
0.033917317
0.033977601
0.034019156
0.034044339
0.034055257
0.034053813
0.034041684
0.034020376
0.033991228
0.033955426
0.033914025
0.033867959
0.03381806
0.033765063
0.033709623
0.033652321
0.033593676
0.03353415
0.033474156
0.033414067
0.033354213
0.033294893
0.033236375
0.033178902
0.0331227
0.033067975
0.024476635
0.024586691
0.024745956
0.024975979
0.025291846
0.025699379
0.026194542
0.026764879
0.027392177
0.028055405
0.028733301
0.029406777
0.030059141
0.030676728
0.031249588
0.031771383
0.032238974
0.032651815
0.033011305
0.033320178
0.033581991
0.033800726
0.033980497
0.034125357
0.034239237
0.034326636
0.034388917
0.034429886
0.034452496
0.034459196
0.034452161
0.034433341
0.034404437
0.034366965
0.034322266
0.034271523
0.034215778
0.034155953
0.034092859
0.034027213
0.033959649
0.033890728
0.033820947
0.033750747
0.033680521
0.03361062
0.033541357
0.033473012
0.033405836
0.024480116
0.024603881
0.024785778
0.025050436
0.025413458
0.02587854
0.026437755
0.027074247
0.027765838
0.028488408
0.029219003
0.029937111
0.030624904
0.031268507
0.03185828
0.032388638
0.032857506
0.033265553
0.0336154
0.033910914
0.034156645
0.034357406
0.03451798
0.034642919
0.03473736
0.034804107
0.03484614
0.034867492
0.034871002
0.034859186
0.034834268
0.03479822
0.034752755
0.03469939
0.034639456
0.03457412
0.034504406
0.034431213
0.03435533
0.034277449
0.03419818
0.03411806
0.034037563
0.033957106
0.033877061
0.033797756
0.033719486
0.03364251
0.033567062
0.024484341
0.02462349
0.024830658
0.025133747
0.025548188
0.026074437
0.026699804
0.027402821
0.028157657
0.028937796
0.029719022
0.030479164
0.031199709
0.031866541
0.032470318
0.033006275
0.03347351
0.033874025
0.034211754
0.034491755
0.034719595
0.034900915
0.035041153
0.035145628
0.035219758
0.035265114
0.035286942
0.035288614
0.03527308
0.035242901
0.035200331
0.035147347
0.035085668
0.035016796
0.034942041
0.034862548
0.034779316
0.034693215
0.034605007
0.034515358
0.034424849
0.03433399
0.034243231
0.034152966
0.034063541
0.033975263
0.033888406
0.033803211
0.033719892
0.02448941
0.02464567
0.024880806
0.025226033
0.025695524
0.026285148
0.026976749
0.02774456
0.028559886
0.029395168
0.030224246
0.031024097
0.031775329
0.032463325
0.033078897
0.033618119
0.034081384
0.034472156
0.034795788
0.035058592
0.035267172
0.035427993
0.035547159
0.035631367
0.0356835
0.035708018
0.035709644
0.035691787
0.035657447
0.03560922
0.035549375
0.035479883
0.035402449
0.035318552
0.035229476
0.035136337
0.0350401
0.034941607
0.034841587
0.034740675
0.034639426
0.034538321
0.034437782
0.034338178
0.034239833
0.03414303
0.034048022
0.033955031
0.033864252
0.02449541
0.024670511
0.024936295
0.025327014
0.02585399
0.026506974
0.027262077
0.028090428
0.028962402
0.029849115
0.030723537
0.03156173
0.032342797
0.033051059
0.033677209
0.034218177
0.034675815
0.035055229
0.035363322
0.035607734
0.035796135
0.035935802
0.036034026
0.036097039
0.036127299
0.036131215
0.036112896
0.03607585
0.036023111
0.035957304
0.035880692
0.035795227
0.035702591
0.035604234
0.035501407
0.035395189
0.035286514
0.035176187
0.035064905
0.034953271
0.034841808
0.034730971
0.034621153
0.034512697
0.034405904
0.034301035
0.034198321
0.034097963
0.034000141
0.024502406
0.024698023
0.024996976
0.025435763
0.026020601
0.0267336
0.027545709
0.028427781
0.029350758
0.03028529
0.031203676
0.03208069
0.032892653
0.033621919
0.034258683
0.034800822
0.035251923
0.035618987
0.035910646
0.03613596
0.036303709
0.036422016
0.036499869
0.036540579
0.036549839
0.036533489
0.036495668
0.036439938
0.036369365
0.036286572
0.036193806
0.036092995
0.03598579
0.035873603
0.035757649
0.03563897
0.03551846
0.035396891
0.035274923
0.035153129
0.035031999
0.034911959
0.034793375
0.034676564
0.034561804
0.034449332
0.03433936
0.03423207
0.034127621
0.024510424
0.024728083
0.025062337
0.025550275
0.026190022
0.026954902
0.027812603
0.028738741
0.029706396
0.030686162
0.031649377
0.032568675
0.033415287
0.034168378
0.034817234
0.035360977
0.035805383
0.036159722
0.036434579
0.036640555
0.036787575
0.036885102
0.036942276
0.036961125
0.036949983
0.036913932
0.036857226
0.036783476
0.036695753
0.036596671
0.036488455
0.036372999
0.036251916
0.036126581
0.035998167
0.035867676
0.035735966
0.035603769
0.035471713
0.035340335
0.035210095
0.03508139
0.034954559
0.034829895
0.03470765
0.034588041
0.034471259
0.034357469
0.03424681
0.024519426
0.02476037
0.02513126
0.025666751
0.026353259
0.027155242
0.028052809
0.029020803
0.030030791
0.031052947
0.032057864
0.033016949
0.033901377
0.034683573
0.035347525
0.035894277
0.036332532
0.036674335
0.036932507
0.037119321
0.037245873
0.037323961
0.037359555
0.037357862
0.037326966
0.037271949
0.037197127
0.037106136
0.037002049
0.036887461
0.036764565
0.03663522
0.036500998
0.036363233
0.036223056
0.036081429
0.035939171
0.035796976
0.035655437
0.035515059
0.035376272
0.035239443
0.035104886
0.034972868
0.03484362
0.034717337
0.034594191
0.034474327
0.03435787
0.024529253
0.024794239
0.025201578
0.025778366
0.026495591
0.027332793
0.028268738
0.029276258
0.030325945
0.031387567
0.032431161
0.033427343
0.034346936
0.035161712
0.035845204
0.036397204
0.036830444
0.037160375
0.037402388
0.037570608
0.037677526
0.037736867
0.037751327
0.037730107
0.037680332
0.037607229
0.037515172
0.037407817
0.037288229
0.037158978
0.037022225
0.036879788
0.036733198
0.036583746
0.036432522
0.036280448
0.036128303
0.035976746
0.035826335
0.035677543
0.035530771
0.035386358
0.035244592
0.035105717
0.034969941
0.034837441
0.034708367
0.034582851
0.034461
0.024539515
0.024828491
0.025269277
0.025873136
0.026619268
0.027490853
0.028463208
0.029507644
0.03059413
0.031692175
0.032771431
0.03380194
0.034754061
0.035598777
0.03630711
0.036867182
0.037296964
0.037616041
0.037842766
0.037993216
0.038081923
0.038122678
0.038117339
0.038077567
0.03800991
0.037919709
0.037811389
0.037688617
0.037554446
0.037411421
0.037261666
0.03710696
0.036948792
0.036788411
0.036626866
0.036465039
0.036303672
0.036143389
0.035984714
0.035828091
0.035673891
0.035522426
0.035373961
0.035228717
0.035086881
0.03494861
0.034814039
0.034683282
0.03455643
0.024549333
0.024860951
0.025327028
0.025952166
0.026727851
0.027632723
0.028639183
0.029717583
0.030837706
0.031969009
0.033080886
0.034142926
0.035124996
0.035997443
0.036731347
0.037302605
0.037730691
0.038040189
0.038252729
0.038386417
0.038458789
0.038480909
0.038457462
0.038400225
0.038315778
0.038209546
0.038085995
0.037948802
0.037801005
0.037645121
0.03748324
0.037317101
0.037148153
0.036977604