/*--------------------------------*- C++ -*----------------------------------*\
| =========                 |                                                 |
| \\      /  F ield         | OpenFOAM: The Open Source CFD Toolbox           |
|  \\    /   O peration     | Version:  2312                                  |
|   \\  /    A nd           | Website:  www.openfoam.com                      |
|    \\/     M anipulation  |                                                 |
\*---------------------------------------------------------------------------*/
FoamFile
{
    version     2.0;
    format      ascii;
    arch        "LSB;label=32;scalar=64";
    class       volScalarField;
    location    "0.07";
    object      O2;
}
// * * * * * * * * * * * * * * * * * * * * * * * * * * * * * * * * * * * * * //

dimensions      [0 0 0 0 0 0 0];

internalField   nonuniform List<scalar> 
3221
(
0.22991399
0.22973508
0.22955145
0.22936489
0.22917711
0.22898963
0.2288037
0.22862025
0.22843988
0.22826292
0.22808964
0.22792121
0.2277647
0.2276596
0.22781655
0.22791697
0.22792112
0.22797017
0.22798479
0.22801852
0.22803484
0.22805688
0.22806881
0.2280808
0.22808616
0.22808943
0.22808804
0.2280841
0.22807672
0.228067
0.2280547
0.22804045
0.2280243
0.22800662
0.22798756
0.2279674
0.22794629
0.22792442
0.22790196
0.22787907
0.22785586
0.22783247
0.227809
0.22778552
0.2277621
0.22773872
0.22771515
0.22768991
0.2276548
0.22756357
0.22715484
0.22681989
0.2299097
0.22972171
0.22952839
0.22933144
0.22913249
0.22893303
0.22873428
0.22853718
0.22834236
0.22815019
0.2279608
0.22777435
0.22759183
0.2274175
0.22726334
0.22711796
0.22697049
0.22683405
0.22669787
0.22656934
0.22644107
0.22631713
0.22619315
0.22607128
0.22594915
0.22582791
0.22570647
0.22558553
0.22546464
0.22534425
0.22522428
0.22510505
0.22498662
0.22486923
0.22475299
0.22463811
0.22452472
0.22441302
0.22430313
0.22419524
0.22408946
0.22398594
0.22388477
0.22378606
0.22368986
0.22359621
0.22350507
0.22341606
0.2233275
0.22323323
0.22311698
0.22299269
0.22990185
0.22969727
0.22948631
0.22927049
0.22905133
0.22883022
0.22860834
0.22838664
0.22816581
0.22794628
0.22772825
0.22751179
0.22729687
0.22708368
0.22687272
0.2266633
0.22645427
0.22624626
0.22603804
0.22582999
0.22562103
0.22541141
0.22520039
0.22498821
0.22477453
0.22455966
0.22434359
0.22412673
0.22390928
0.22369167
0.22347422
0.22325737
0.22304145
0.22282688
0.22261398
0.22240313
0.22219465
0.22198889
0.22178614
0.22158673
0.22139092
0.22119898
0.22101113
0.22082758
0.2206485
0.22047405
0.22030435
0.22013946
0.21997928
0.21982328
0.21967023
0.21952005
0.2298913
0.22966445
0.22942984
0.22918882
0.22894274
0.22869289
0.2284404
0.22818622
0.22793108
0.22767553
0.22741989
0.22716434
0.22690891
0.22665352
0.22639804
0.2261422
0.22588563
0.22562805
0.22536906
0.22510839
0.22484566
0.22458068
0.22431323
0.22404328
0.2237708
0.22349596
0.22321895
0.22294007
0.22265967
0.22237816
0.22209596
0.22181352
0.22153131
0.22124978
0.22096938
0.22069059
0.22041384
0.22013957
0.21986822
0.2196002
0.21933592
0.21907575
0.21882003
0.21856909
0.21832323
0.21808273
0.21784782
0.21761876
0.21739576
0.21717901
0.21696862
0.21676458
0.2298788
0.22962556
0.22936298
0.22909225
0.22881456
0.2285311
0.22824294
0.22795103
0.22765616
0.22735896
0.22705991
0.22675933
0.22645743
0.22615433
0.22585001
0.22554442
0.22523744
0.22492889
0.22461861
0.22430641
0.22399213
0.22367565
0.22335689
0.22303587
0.22271264
0.22238735
0.22206023
0.22173154
0.22140163
0.22107085
0.22073962
0.22040834
0.22007747
0.21974743
0.21941868
0.21909167
0.21876684
0.21844464
0.21812551
0.21780988
0.21749817
0.21719078
0.21688807
0.21659042
0.21629816
0.2160116
0.21573104
0.21545678
0.21518909
0.21492826
0.21467456
0.21442818
0.22986486
0.2295822
0.2292885
0.22898481
0.22867221
0.2283518
0.2280246
0.22769155
0.22735351
0.22701118
0.22666518
0.226316
0.22596403
0.22560958
0.22525285
0.22489402
0.22453319
0.22417042
0.22380577
0.22343925
0.22307091
0.22270082
0.22232906
0.22195576
0.2215811
0.2212053
0.22082865
0.22045144
0.22007403
0.21969679
0.21932012
0.21894443
0.21857013
0.21819765
0.21782741
0.21745984
0.21709536
0.21673439
0.21637734
0.21602461
0.21567659
0.21533365
0.21499615
0.21466441
0.21433877
0.21401951
0.21370693
0.2134013
0.21310288
0.21281194
0.21252873
0.21225348
0.22984978
0.22953527
0.22920794
0.22886874
0.22851869
0.22815881
0.2277901
0.22741353
0.22702998
0.22664026
0.22624509
0.22584512
0.22544091
0.22503295
0.22462167
0.22420745
0.22379061
0.22337146
0.22295025
0.22252724
0.2221027
0.22167686
0.22125001
0.22082244
0.22039447
0.21996644
0.21953871
0.21911169
0.21868578
0.21826139
0.21783896
0.21741892
0.21700171
0.21658774
0.21617746
0.21577127
0.21536958
0.21497279
0.21458128
0.21419543
0.21381559
0.21344209
0.21307525
0.21271536
0.21236271
0.21201755
0.21168013
0.21135069
0.21102944
0.21071659
0.21041236
0.21011693
0.22983366
0.22948513
0.22912191
0.22874493
0.22835516
0.2279536
0.22754125
0.22711912
0.22668813
0.22624918
0.22580312
0.22535072
0.22489271
0.22442976
0.2239625
0.22349149
0.22301728
0.22254039
0.22206128
0.22158045
0.22109833
0.2206154
0.22013211
0.21964892
0.21916631
0.21868476
0.21820475
0.21772678
0.21725135
0.21677895
0.21631007
0.21584518
0.21538477
0.21492928
0.21447915
0.21403482
0.21359668
0.21316512
0.21274051
0.2123232
0.2119135
0.21151171
0.21111811
0.21073296
0.21035648
0.20998889
0.20963038
0.20928115
0.20894134
0.20861112
0.20829063
0.20798002
0.22981653
0.2294318
0.22903044
0.22861338
0.22818159
0.2277361
0.22727794
0.22680814
0.22632773
0.2258377
0.22533899
0.22483254
0.22431921
0.22379986
0.22327529
0.22274627
0.22221354
0.22167782
0.22113981
0.22060018
0.22005959
0.2195187
0.21897815
0.21843858
0.21790063
0.21736492
0.21683207
0.2163027
0.21577739
0.21525674
0.21474129
0.2142316
0.21372817
0.2132315
0.21274206
0.21226028
0.21178656
0.21132129
0.21086482
0.21041745
0.20997949
0.2095512
0.2091328
0.2087245
0.20832648
0.20793891
0.20756193
0.20719564
0.20684017
0.2064956
0.20616202
0.2058395
0.22979831
0.22937509
0.2289332
0.2284736
0.22799732
0.22750542
0.22699901
0.22647919
0.22594708
0.22540379
0.22485039
0.22428794
0.2237175
0.22314007
0.22255664
0.22196818
0.22137563
0.22077992
0.22018194
0.21958259
0.21898272
0.21838318
0.21778481
0.21718843
0.21659482
0.21600478
0.21541905
0.21483837
0.21426344
0.21369493
0.21313348
0.2125797
0.21203414
0.21149733
0.21096975
0.21045186
0.20994406
0.2094467
0.20896012
0.20848461
0.2080204
0.20756772
0.20712675
0.20669763
0.20628049
0.20587543
0.20548252
0.20510181
0.20473334
0.20437715
0.20403323
0.20370161
0.22977894
0.22931474
0.2288297
0.22832485
0.22780131
0.22726022
0.22670278
0.22613021
0.22554374
0.22494459
0.22433401
0.22371321
0.22308341
0.22244581
0.22180158
0.22115189
0.22049791
0.21984076
0.21918156
0.2185214
0.21786135
0.21720247
0.21654577
0.21589225
0.21524289
0.2145986
0.2139603
0.21332882
0.21270499
0.21208955
0.21148322
0.21088665
0.21030045
0.20972518
0.20916131
0.20860931
0.20806956
0.20754239
0.2070281
0.20652693
0.20603907
0.20556468
0.20510387
0.20465673
0.2042233
0.20380362
0.20339767
0.20300544
0.20262689
0.20226196
0.2019106
0.20157273
0.22975829
0.22925038
0.22871932
0.22816624
0.22759235
0.22699894
0.22638731
0.22575884
0.22511489
0.22445686
0.22378615
0.22310415
0.22241229
0.22171196
0.22100454
0.22029145
0.21957404
0.21885369
0.21813172
0.21740945
0.21668817
0.21596915
0.21525359
0.21454269
0.21383758
0.21313935
0.21244903
0.21176759
0.21109594
0.21043491
0.20978527
0.20914774
0.20852293
0.20791141
0.20731367
0.20673013
0.20616115
0.20560702
0.20506799
0.20454421
0.20403583
0.20354292
0.20306552
0.20260362
0.20215719
0.20172617
0.20131046
0.20090996
0.20052453
0.20015405
0.19979836
0.19945731
0.22973625
0.22918165
0.2286014
0.22799677
0.22736911
0.22671986
0.2260505
0.22536254
0.22465756
0.22393713
0.22320286
0.22245636
0.22169926
0.22093318
0.22015978
0.21938068
0.2185975
0.21781184
0.2170253
0.21623942
0.21545572
0.21467569
0.21390075
0.21313227
0.21237156
0.21161986
0.21087833
0.21014805
0.20943001
0.20872512
0.20803419
0.20735795
0.20669703
0.20605198
0.20542327
0.20481128
0.2042163
0.20363856
0.20307823
0.20253539
0.20201008
0.20150229
0.20101195
0.20053896
0.20008318
0.19964445
0.19922257
0.19881734
0.19842853
0.19805591
0.19769924
0.19735829
0.22971269
0.22910813
0.22847521
0.22781537
0.22713015
0.22642115
0.22569007
0.22493862
0.22416859
0.22338179
0.22258006
0.22176526
0.22093929
0.22010404
0.21926143
0.21841336
0.21756173
0.21670842
0.21585529
0.21500414
0.21415675
0.21331483
0.21248001
0.21165387
0.21083787
0.21003341
0.20924176
0.2084641
0.20770149
0.20695487
0.20622507
0.20551284
0.20481877
0.20414338
0.20348708
0.20285017
0.20223287
0.20163532
0.20105757
0.2004996
0.19996134
0.19944266
0.19894338
0.19846327
0.19800208
0.19755953
0.19713531
0.19672911
0.19634059
0.19596943
0.19561528
0.19527781
0.22968747
0.22902936
0.22833996
0.2276209
0.22687391
0.22610084
0.22530361
0.22448419
0.22364463
0.22278701
0.22191345
0.22102612
0.22012721
0.21921894
0.21830354
0.21738322
0.2164602
0.21553668
0.21461479
0.21369665
0.21278429
0.21187965
0.21098461
0.21010091
0.20923021
0.208374
0.20753368
0.20671048
0.20590552
0.20511974
0.20435398
0.20360893
0.20288514
0.20218306
0.20150299
0.20084515
0.20020963
0.19959645
0.19900553
0.19843671
0.1978898
0.19736451
0.19686054
0.19637752
0.19591507
0.19547278
0.19505021
0.19464694
0.19426251
0.19389648
0.19354842
0.19321789
0.22966045
0.22894487
0.2281948
0.22741209
0.22659873
0.22575681
0.22488854
0.2239962
0.22308213
0.22214875
0.22119853
0.22023397
0.21925764
0.21827212
0.21728001
0.21628389
0.21528634
0.2142899
0.21329704
0.2123102
0.21133167
0.21036367
0.20940828
0.20846744
0.20754294
0.2066364
0.20574928
0.20488286
0.20403825
0.20321639
0.20241805
0.20164386
0.20089427
0.2001696
0.19947004
0.19879567
0.19814642
0.19752215
0.19692263
0.19634755
0.19579654
0.19526917
0.19476496
0.19428341
0.19382399
0.19338614
0.1929693
0.19257291
0.19219641
0.19183922
0.19150082
0.19118066
0.22963146
0.22885415
0.22803883
0.22718763
0.22630281
0.22538679
0.22444209
0.22347135
0.2224773
0.22146272
0.22043051
0.21938359
0.21832495
0.2172576
0.21618457
0.21510888
0.21403352
0.21296141
0.21189541
0.21083825
0.20979257
0.20876083
0.20774531
0.20674814
0.20577121
0.20481624
0.20388472
0.20297793
0.20209693
0.20124259
0.2004156
0.19961644
0.19884545
0.19810277
0.19738843
0.19670231
0.19604418
0.19541369
0.19481044
0.19423392
0.19368358
0.1931588
0.19265895
0.19218336
0.19173133
0.19130216
0.19089516
0.19050962
0.19014485
0.18980018
0.18947496
0.18916855
0.22960033
0.22875663
0.22787106
0.22694605
0.22598421
0.2249883
0.22396125
0.22290611
0.22182605
0.22072433
0.21960432
0.21846946
0.21732323
0.21616916
0.21501078
0.2138516
0.21269508
0.2115446
0.21040339
0.20927457
0.20816106
0.20706558
0.20599061
0.20493842
0.203911
0.20291008
0.20193714
0.20099342
0.20007987
0.19919725
0.19834608
0.19752668
0.19673917
0.19598351
0.1952595
0.19456679
0.19390494
0.19327338
0.19267148
0.19209853
0.19155378
0.1910364
0.19054559
0.19008049
0.18964024
0.18922398
0.18883088
0.18846009
0.18811081
0.18778224
0.18747362
0.18718422
0.22956689
0.22865172
0.22769044
0.22668582
0.22564084
0.22455871
0.2234428
0.22229667
0.22112401
0.21992866
0.21871456
0.21748573
0.21624627
0.21500031
0.21375197
0.21250532
0.21126436
0.21003293
0.20881473
0.20761322
0.20643164
0.20527294
0.20413978
0.2030345
0.20195915
0.20091542
0.19990472
0.19892816
0.19798654
0.19708042
0.19621012
0.1953757
0.19457705
0.19381385
0.19308565
0.19239184
0.1917317
0.19110444
0.19050916
0.18994493
0.18941077
0.18890566
0.18842858
0.18797849
0.18755437
0.18715519
0.18677998
0.18642776
0.18609759
0.18578856
0.18549983
0.18523054
0.22953095
0.22853879
0.22749584
0.22640524
0.22527044
0.22409512
0.22288323
0.2216389
0.22036648
0.21907045
0.21775545
0.21642623
0.21508758
0.21374435
0.21240133
0.21106326
0.2097347
0.20842004
0.20712343
0.20584871
0.20459939
0.20337862
0.20218919
0.20103348
0.19991349
0.19883082
0.19778673
0.19678211
0.19581754
0.19489333
0.19400948
0.19316578
0.19236179
0.19159688
0.19087029
0.19018112
0.18952835
0.18891091
0.18832764
0.18777735
0.18725883
0.18677084
0.18631215
0.18588153
0.1854778
0.18509976
0.1847463
0.1844163
0.18410871
0.18382251
0.18355676
0.1833105
0.22949228
0.22841715
0.22728602
0.2261025
0.22487054
0.22359443
0.22227875
0.22092837
0.21954837
0.21814404
0.21672087
0.21528441
0.21384034
0.21239431
0.21095191
0.20951858
0.20809956
0.20669979
0.20532388
0.20397603
0.20265999
0.20137908
0.20013611
0.19893342
0.19777289
0.19665593
0.19558355
0.19455636
0.19357463
0.19263831
0.19174704
0.19090023
0.19009709
0.18933663
0.18861772
0.18793914
0.18729954
0.18669755
0.18613172
0.18560061
0.18510274
0.18463666
0.18420093
0.18379413
0.1834149
0.1830619
0.18273386
0.18242955
0.18214782
0.18188754
0.18164766
0.18142714
0.22945068
0.22828606
0.22705965
0.2257756
0.22443846
0.22305322
0.22162524
0.22016024
0.2186642
0.21714339
0.21560426
0.2140534
0.21249746
0.21094305
0.20939665
0.20786451
0.20635258
0.20486638
0.20341095
0.20199081
0.20060992
0.19927164
0.19797874
0.19673341
0.19553729
0.1943915
0.19329671
0.19225315
0.19126066
0.19031876
0.18942666
0.18858335
0.18778758
0.18703798
0.18633303
0.18567112
0.18505057
0.18446968
0.18392672
0.18341995
0.18294766
0.18250817
0.18209983
0.18172103
0.18137023
0.18104596
0.1807468
0.18047144
0.18021862
0.1799871
0.17977581
0.17958341
0.22940591
0.22814471
0.22681529
0.22542238
0.22397128
0.22246779
0.22091822
0.21932928
0.21770806
0.21606198
0.21439867
0.21272592
0.21105154
0.20938322
0.20772846
0.20609439
0.20448768
0.20291442
0.20138007
0.19988941
0.19844647
0.19705458
0.19571631
0.19443361
0.19320774
0.19203943
0.19092887
0.18987579
0.18887955
0.18793911
0.18705321
0.1862203
0.1854387
0.18470656
0.18402195
0.18338286
0.18278726
0.1822331
0.18171834
0.18124098
0.18079905
0.18039065
0.18001392
0.17966708
0.17934843
0.17905634
0.17878927
0.17854584
0.17832478
0.17812453
0.17794449
0.17778179
0.22935771
0.22799224
0.22655134
0.22504048
0.2234658
0.2218341
0.22015278
0.21842978
0.21667354
0.21489283
0.21309671
0.21129437
0.20949494
0.20770739
0.2059403
0.20420174
0.20249912
0.20083908
0.1992274
0.197669
0.19616788
0.19472717
0.19334915
0.19203531
0.19078645
0.18960272
0.18848376
0.18742867
0.18643619
0.1855047
0.18463235
0.18381704
0.18305657
0.18234861
0.18169078
0.18108065
0.18051582
0.1799939
0.17951255
0.17906949
0.1786625
0.17828947
0.17794835
0.17763718
0.17735412
0.1770974
0.17686532
0.17665646
0.17646994
0.17630275
0.17615767
0.17602795
0.2293058
0.22782767
0.22626608
0.22462731
0.22291851
0.22114768
0.21932355
0.21745556
0.21555372
0.21362847
0.21169055
0.20975077
0.20781983
0.20590805
0.20402524
0.20218041
0.20038168
0.19863615
0.19694985
0.19532765
0.19377338
0.19228979
0.19087867
0.18954092
0.1882767
0.18708548
0.18596615
0.18491711
0.18393638
0.18302168
0.1821705
0.18138016
0.1806479
0.17997086
0.17934621
0.1787711
0.17824274
0.17775841
0.17731547
0.17691137
0.17654366
0.17621002
0.17590821
0.17563617
0.17539185
0.17517347
0.1749789
0.17480661
0.1746583
0.17452779
0.1744171
0.17432121
0.22924987
0.22764998
0.2259576
0.22418
0.22232555
0.22040365
0.21842467
0.21639986
0.21434112
0.2122609
0.21017191
0.20808685
0.20601816
0.20397771
0.20197653
0.2000246
0.19813068
0.1963022
0.19454522
0.19286444
0.19126327
0.18974389
0.1883074
0.18695396
0.18568289
0.18449281
0.18338176
0.18234731
0.18138671
0.18049691
0.17967471
0.1789168
0.17821982
0.17758041
0.17699524
0.17646105
0.17597468
0.17553307
0.17513329
0.17477253
0.17444813
0.1741576
0.17389851
0.17366875
0.17346595
0.17328881
0.17313402
0.17300296
0.17289268
0.17279844
0.17272369
0.17266404
0.22918961
0.22745803
0.22562381
0.22369541
0.22168262
0.2195966
0.21744969
0.21525529
0.21302766
0.21078157
0.20853206
0.20629402
0.20408183
0.20190897
0.19978777
0.19772907
0.19574215
0.19383459
0.19201227
0.19027947
0.18863893
0.18709204
0.18563901
0.18427903
0.18301041
0.18183077
0.18073717
0.17972627
0.17879444
0.17793783
0.17715251
0.17643449
0.17577982
0.17518461
0.17464505
0.17415748
0.17371835
0.1733243
0.17297211
0.17265878
0.17238139
0.17213741
0.171924
0.17173953
0.17158025
0.17144779
0.17133681
0.17124482
0.17117416
0.17111927
0.17108122
0.17105803
0.22912465
0.22725054
0.22526238
0.22317001
0.22098499
0.21872056
0.2163915
0.21401383
0.21160459
0.20918136
0.20676186
0.20436346
0.20200265
0.19969462
0.19745291
0.19528915
0.19321291
0.19123164
0.1893508
0.18757394
0.18590287
0.18433795
0.18287824
0.18152174
0.18026559
0.17910625
0.17803972
0.17706163
0.17616741
0.17535238
0.17461181
0.17394107
0.17333559
0.17279095
0.1723029
0.17186736
0.17148041
0.17113845
0.17083793
0.17057581
0.17034868
0.17015452
0.16998898
0.1698534
0.16974147
0.16965316
0.16958563
0.16953648
0.16950597
0.16949139
0.16949194
0.16950605
0.22905461
0.22702613
0.22487073
0.2225999
0.22022737
0.21776893
0.21524229
0.21266669
0.21006248
0.20745056
0.20485174
0.20228613
0.19977249
0.19732771
0.19496647
0.19270091
0.19054062
0.18849266
0.18656167
0.18475015
0.18305873
0.18148641
0.18003085
0.17868865
0.17745562
0.17632694
0.17529741
0.1743616
0.17351392
0.17274882
0.17206081
0.17144455
0.17089492
0.17040699
0.16997601
0.16959758
0.16926738
0.16898171
0.16873649
0.16852918
0.16835475
0.16821427
0.16810066
0.1680138
0.16794956
0.16790724
0.16788454
0.16787971
0.1678913
0.16791747
0.16795725
0.16800974
0.22897904
0.22678323
0.22444596
0.22198073
0.21940387
0.21673434
0.21399344
0.21120427
0.20839118
0.20557889
0.20279176
0.20005288
0.19738335
0.19480172
0.19232353
0.18996119
0.18772394
0.185618
0.18364685
0.18181159
0.18011127
0.17854326
0.17710357
0.17578721
0.17458848
0.17350117
0.17251881
0.17163482
0.17084261
0.17013572
0.16950787
0.16895306
0.16846562
0.1680402
0.16767148
0.16735492
0.16708555
0.16686019
0.16667301
0.16652468
0.16640731
0.16632047
0.16625914
0.16622263
0.16620818
0.16621392
0.16623712
0.16627704
0.1663323
0.16639942
0.1664786
0.16656986
0.22889748
0.22652012
0.22398483
0.22130758
0.21850789
0.21560861
0.21263541
0.2096161
0.20657972
0.20355547
0.20057162
0.19765447
0.19482746
0.19211057
0.18951994
0.18706779
0.18476254
0.18260914
0.18060948
0.17876283
0.17706631
0.17551533
0.17410403
0.17282565
0.17167281
0.17063784
0.16971292
0.1688903
0.16816237
0.16752175
0.16696142
0.16647467
0.1660554
0.16569797
0.16539617
0.16514607
0.16494068
0.16478019
0.16465583
0.16456649
0.16450668
0.16447522
0.16446895
0.1644846
0.16452072
0.16457593
0.16464566
0.16473048
0.16482918
0.16493868
0.16505844
0.16518781
0.22880939
0.22623485
0.2234837
0.22057492
0.217532
0.21438256
0.21115764
0.20789071
0.20461633
0.20136881
0.19818073
0.19508169
0.19209735
0.18924881
0.18655234
0.18401944
0.1816572
0.17946875
0.17745388
0.1756096
0.17393072
0.17241042
0.17104073
0.16981292
0.16871787
0.16774633
0.16688911
0.16613729
0.16548226
0.16491569
0.1644299
0.16401739
0.16367171
0.16338763
0.16315643
0.16297794
0.16284189
0.16274624
0.16268541
0.16265722
0.16265806
0.1626837
0.16273371
0.16280269
0.16288961
0.16299432
0.1631123
0.16324288
0.16338484
0.16353634
0.16369636
0.16386403
0.22871419
0.22592522
0.22293842
0.21977648
0.21646781
0.21304593
0.20954845
0.20601558
0.20248838
0.19900688
0.19560826
0.19232543
0.18918599
0.18621168
0.1834183
0.180816
0.17840988
0.17620068
0.17418552
0.1723587
0.17071237
0.1692372
0.1679229
0.16675863
0.16573343
0.16483644
0.16405704
0.1633852
0.1628114
0.16232628
0.16192171
0.16158904
0.16132151
0.16111683
0.16096231
0.16085547
0.16078958
0.16076173
0.16076764
0.16080242
0.16086524
0.16094912
0.16105523
0.16117915
0.16131866
0.16147255
0.16163831
0.16181455
0.16199998
0.16219319
0.16239313
0.16259887
0.22861121
0.22558874
0.22234426
0.21890511
0.21530579
0.21158716
0.20779481
0.20397702
0.20018232
0.19645704
0.19284319
0.18937679
0.1860869
0.18299525
0.18011642
0.17745848
0.17502379
0.17281
0.17081103
0.169018
0.16742009
0.16600519
0.1647605
0.16367294
0.16272968
0.16191824
0.16122652
0.16064348
0.16015897
0.15976207
0.15944521
0.1591974
0.159016
0.15889118
0.15881435
0.15878257
0.15879056
0.15883237
0.15890688
0.1590056
0.15913054
0.15927512
0.159438
0.15961643
0.15980821
0.1600117
0.16022498
0.16044658
0.16067524
0.16090974
0.16114909
0.16139242
0.22849971
0.22522254
0.22169581
0.2179526
0.21403511
0.20999323
0.20588229
0.20176009
0.19768366
0.19370617
0.18987443
0.18622717
0.18279424
0.17959651
0.17664645
0.17394913
0.17150337
0.16930302
0.1673382
0.16559646
0.16406366
0.16272471
0.16156413
0.16056651
0.15971716
0.15900209
0.15840746
0.15792147
0.1575342
0.15723114
0.15700882
0.15685294
0.15675672
0.15671473
0.15672013
0.1567656
0.1568497
0.15696228
0.15710556
0.1572714
0.15745856
0.15766327
0.15788325
0.15811615
0.15835991
0.15861281
0.15887319
0.15913966
0.15941103
0.1596862
0.15996431
0.16024455
0.22837885
0.22482335
0.2209868
0.21690952
0.21264333
0.20824937
0.20379475
0.19934843
0.19497692
0.19074059
0.18669081
0.18286838
0.17930294
0.1760135
0.17300937
0.17029156
0.16785443
0.16568732
0.16377602
0.16210407
0.16065373
0.15940679
0.15834501
0.15745042
0.15670666
0.15609857
0.15560986
0.15522813
0.15494671
0.1547461
0.1546185
0.15455586
0.1545511
0.15459503
0.154685
0.15480934
0.15496973
0.15515678
0.15536881
0.15560112
0.15585109
0.15611572
0.15639264
0.15667967
0.1569749
0.15727668
0.15758352
0.15789416
0.15820747
0.15852252
0.15883855
0.15915488
0.22824766
0.22438736
0.22020993
0.21576487
0.21111614
0.20633883
0.20151421
0.19672415
0.19204559
0.18754616
0.18328127
0.17929273
0.17560887
0.17224551
0.16920752
0.16649074
0.16408415
0.16197182
0.16013468
0.15855186
0.15720183
0.15606316
0.15511491
0.1543361
0.15370903
0.15321855
0.15284378
0.15257812
0.15240349
0.15230718
0.15228129
0.15231583
0.15240505
0.15253751
0.1527123
0.15291966
0.15315652
0.15341732
0.15369883
0.15399733
0.15430999
0.15463412
0.15496745
0.15530796
0.15565391
0.15600378
0.15635624
0.15671013
0.15706446
0.15741838
0.15777138
0.15812282
0.22810504
0.22391012
0.21935664
0.21450582
0.20943699
0.20424248
0.19902053
0.1938677
0.18887207
0.1841083
0.17963484
0.17549324
0.17170897
0.16829312
0.16524471
0.16255321
0.16020122
0.15816683
0.15642557
0.1549519
0.15372029
0.15270616
0.15188619
0.15123526
0.15073483
0.15037336
0.15012342
0.1499729
0.14991099
0.14992545
0.15000425
0.15013887
0.1503229
0.15054833
0.15080893
0.15109843
0.1514126
0.15174688
0.15209777
0.15246198
0.15283676
0.15321966
0.15360857
0.15400166
0.15439736
0.15479429
0.15519129
0.15558735
0.15598161
0.2279497
0.22338638
0.21841681
0.21311726
0.2075866
0.20193845
0.19629112
0.19075763
0.1854376
0.18041199
0.17574088
0.17146379
0.16760143
0.16415843
0.16112641
0.15848719
0.15621594
0.1542841
0.15266138
0.15131727
0.15022222
0.14934851
0.14867189
0.14815995
0.14780195
0.14757129
0.14744897
0.14742303
0.14747879
0.14760772
0.14779243
0.14803164
0.14831308
0.14863039
0.14897757
0.14934908
0.1497405
0.15014775
0.15056743
0.15099655
0.15143253
0.15187317
0.15231656
0.15276106
0.1532053
0.15364807
0.15408837
0.15452537
0.15495837
0.22778015
0.22280989
0.21737834
0.21158127
0.20554241
0.19940156
0.19330054
0.18737039
0.18172215
0.1764418
0.17158911
0.16719923
0.1632859
0.15984529
0.15685998
0.15430277
0.15214035
0.15033691
0.14885603
0.14766212
0.14672147
0.146003
0.14548601
0.14512793
0.1449121
0.14482031
0.14483422
0.14493668
0.14511461
0.14535874
0.14565618
0.14599879
0.1463781
0.14678752
0.14722129
0.14767434
0.14814239
0.14862172
0.14910918
0.14960205
0.15009801
0.15059508
0.1510916
0.15158613
0.15207749
0.15256469
0.15304691
0.15352346
0.15399382
0.22759464
0.22217312
0.21622664
0.2098764
0.20327783
0.19660273
0.19002002
0.18367996
0.17770428
0.17218198
0.16716983
0.16269572
0.15876379
0.15535961
0.15245491
0.15001214
0.14798837
0.14634013
0.14502476
0.14400155
0.14323275
0.14269283
0.14233901
0.14213923
0.14207796
0.14213268
0.1422872
0.1425206
0.14282647
0.14318904
0.14359783
0.14404463
0.14452179
0.14502296
0.14554271
0.14607636
0.14661995
0.1471701
0.14772397
0.14827913
0.14883354
0.14938549
0.14993354
0.15047652
0.15101343
0.1515435
0.15206608
0.15258068
0.15308691
0.22739107
0.22146693
0.21494394
0.20797678
0.20076131
0.19350813
0.18641684
0.1796575
0.17336098
0.16761647
0.1624741
0.15795103
0.15403872
0.15070975
0.1479232
0.14562988
0.14377592
0.14231026
0.14118403
0.14035157
0.13977991
0.13942093
0.13923955
0.13921099
0.13931066
0.13951776
0.1398143
0.14018728
0.14062029
0.14110187
0.14162214
0.14217301
0.1427474
0.14333938
0.14394393
0.14455679
0.1451744
0.14579374
0.14641231
0.147028
0.14763909
0.14824413
0.14884195
0.1494316
0.15001234
0.15058357
0.15114486
0.15169588
0.15223641
0.22716696
0.22068004
0.21350834
0.20585094
0.19795516
0.19007813
0.18245343
0.17527071
0.16866744
0.16272892
0.15749413
0.15296513
0.14911709
0.14590705
0.14327965
0.1411732
0.13952105
0.1382654
0.13735149
0.1367381
0.13636585
0.13619918
0.13620562
0.13635347
0.13661921
0.13698405
0.13743026
0.13794038
0.13850127
0.13910195
0.13973315
0.14038718
0.14105756
0.14173886
0.14242652
0.14311678
0.14380649
0.14449305
0.14517431
0.14584854
0.1465143
0.14717044
0.14781608
0.1484505
0.14907319
0.14968378
0.15028202
0.15086776
0.15144096
0.22691927
0.2197984
0.21189259
0.20346022
0.19481395
0.18626589
0.17808619
0.17048305
0.16359669
0.15750297
0.15222389
0.147741
0.14400877
0.14096636
0.13854223
0.13666232
0.13524389
0.13422516
0.13355547
0.13316296
0.13300663
0.13304693
0.1332476
0.13357708
0.13401686
0.13454342
0.13513803
0.13578583
0.13647438
0.13719337
0.1379342
0.13868981
0.13945433
0.14022291
0.14099155
0.14175698
0.14251653
0.14326803
0.14400973
0.14474024
0.14545847
0.14616358
0.14685494
0.14753209
0.14819477
0.1488428
0.14947616
0.15009488
0.15069904
0.2266443
0.21880418
0.21006225
0.20075663
0.1912824
0.18201532
0.17326471
0.16525462
0.15812167
0.15192468
0.14666122
0.14228598
0.13872805
0.13590676
0.13373224
0.13212085
0.13096651
0.13022103
0.12979772
0.12964734
0.12972097
0.12997687
0.13037611
0.13089791
0.13151308
0.1322007
0.13294395
0.13372886
0.13454388
0.13537951
0.13622796
0.1370829
0.13793915
0.13879251
0.13963956
0.14047759
0.14130441
0.1421183
0.14291794
0.14370231
0.14447065
0.14522242
0.14595728
0.14667504
0.14737564
0.14805916
0.14872575
0.14937562
0.15000904
0.22633746
0.21767444
0.20797331
0.19767995
0.18729236
0.17726036
0.16793359
0.15954526
0.15221882
0.14598597
0.14081081
0.13661415
0.13329481
0.13075221
0.12887415
0.12757644
0.12672418
0.12625497
0.12610399
0.12621028
0.12652451
0.12699913
0.1276108
0.12832379
0.12911415
0.12996265
0.13085353
0.1317739
0.13271325
0.13366305
0.13461643
0.13556786
0.13651292
0.1374481
0.13837063
0.13927834
0.14016959
0.14104311
0.141898
0.14273363
0.14354958
0.14434562
0.14512168
0.14587783
0.14661424
0.14733121
0.14802911
0.14870831
0.14936922
0.225993
0.2163791
0.20556861
0.19415354
0.18276119
0.17192643
0.16203484
0.15331739
0.14587108
0.13968752
0.13468681
0.13074856
0.12773574
0.12553236
0.12401989
0.12305067
0.12251774
0.12235728
0.12249464
0.12287055
0.12342718
0.12413723
0.12495831
0.1258624
0.1268273
0.12783511
0.1288714
0.12992455
0.13098522
0.13204598
0.13310094
0.13414547
0.13517596
0.13618963
0.13718436
0.13815859
0.13911118
0.14004137
0.14094868
0.14183284
0.14269379
0.14353161
0.1443465
0.14513877
0.14590882
0.14665721
0.14738447
0.14809115
0.14877781
0.22560354
0.21487784
0.2027727
0.19008061
0.17759154
0.16593153
0.15551063
0.14653986
0.13907194
0.13304226
0.12831529
0.12472287
0.12208474
0.12030724
0.11917513
0.11856432
0.11838479
0.11855092
0.11899191
0.11963821
0.12045654
0.12139735
0.12242758
0.12352154
0.12465875
0.12582297
0.12700131
0.12818356
0.12936173
0.13052953
0.13168216
0.13281593
0.13392806
0.13501655
0.13607994
0.13711728
0.13812796
0.13911171
0.14006845
0.14099833
0.1419016
0.14277865
0.14362996
0.14445605
0.14525756
0.14603529
0.14678996
0.14752228
0.14823295
0.22515946
0.21311536
0.19948529
0.18534056
0.1716704
0.15918861
0.14830813
0.13919378
0.1318308
0.12607921
0.12173634
0.11858285
0.11641143
0.11508524
0.11436791
0.11415933
0.11435207
0.11486216
0.11560668
0.11654504
0.11761899
0.11878964
0.12002706
0.12130787
0.12261367
0.12393012
0.12524606
0.12655288
0.12784396
0.12911429
0.13036017
0.13157888
0.13276854
0.13392788
0.13505617
0.13615302
0.13721839
0.13825246
0.13925559
0.14022828
0.14117114
0.14208485
0.14297013
0.14382774
0.14465849
0.14546352
0.14624367
0.14699979
0.14773273
0.22464779
0.21101393
0.19557287
0.1797846
0.16486967
0.15161087
0.14038761
0.13128053
0.12417913
0.1188472
0.11500537
0.11238152
0.11076037
0.10990411
0.10964986
0.10986636
0.11045047
0.11130341
0.1123751
0.11359834
0.11492582
0.11632335
0.11776394
0.11922684
0.12069607
0.1221594
0.12360755
0.12503358
0.12643235
0.12780015
0.12913442
0.13043344
0.13169621
0.13292225
0.13411147
0.13526411
0.13638065
0.13746173
0.13850813
0.13952071
0.14050041
0.14144818
0.142365
0.14325183
0.1441096
0.1449399
0.14574362
0.14652173
0.14727523
0.22405031
0.20846251
0.19085804
0.17323125
0.15705009
0.14312208
0.13173492
0.12283191
0.11617686
0.11141761
0.10819382
0.10621169
0.10514687
0.10482421
0.10505843
0.10572133
0.10669463
0.10791541
0.10930652
0.11081049
0.11238726
0.11400628
0.11564401
0.11728267
0.11890887
0.12051265
0.12208675
0.12362594
0.12512662
0.12658639
0.12800384
0.12937826
0.13070952
0.13199789
0.13324396
0.13444857
0.13561269
0.13673743
0.13782396
0.13887349
0.13988726
0.1408665
0.14181245
0.14272625
0.22334039
0.20529898
0.18510421
0.16546432
0.14807222
0.13367492
0.1223788
0.11392094
0.1079171
0.10388493
0.10142339
0.10009187
0.099648276
0.099892752
0.10063614
0.10174207
0.10312986
0.10471114
0.10641418
0.10819279
0.11001174
0.11184463
0.11367168
0.11547829
0.11725383
0.11899074
0.12068378
0.12232951
0.12392584
0.12547172
0.12696685
0.12841154
0.12980649
0.13115272
0.1324515
0.13370419
0.13491227
0.13607729
0.1372008
0.13828434
0.13932944
0.14033761
0.1413103
0.1422489
0.22247612
0.20128045
0.17799761
0.15623836
0.13782085
0.12327964
0.11241114
0.10466989
0.099527178
0.096410994
0.094723835
0.094115279
0.094326017
0.09516143
0.09640548
0.097977687
0.099775413
0.10170421
0.10371059
0.10575446
0.1078059
0.10984296