/*--------------------------------*- C++ -*----------------------------------*\
| =========                 |                                                 |
| \\      /  F ield         | OpenFOAM: The Open Source CFD Toolbox           |
|  \\    /   O peration     | Version:  2312                                  |
|   \\  /    A nd           | Website:  www.openfoam.com                      |
|    \\/     M anipulation  |                                                 |
\*---------------------------------------------------------------------------*/
FoamFile
{
    version     2.0;
    format      ascii;
    arch        "LSB;label=32;scalar=64";
    class       volScalarField;
    location    "0.07";
    object      omega;
}
// * * * * * * * * * * * * * * * * * * * * * * * * * * * * * * * * * * * * * //

dimensions      [0 0 -1 0 0 0 0];

internalField   nonuniform List<scalar> 
3221
(
446.81614
440.8761
435.23314
429.88714
424.83215
420.05974
415.55951
411.31991
407.32899
403.57503
400.0473
396.73883
393.65838
390.88175
388.75204
386.94068
385.04953
383.44382
381.9655
380.62323
379.42924
378.34279
377.43657
376.64175
376.02062
375.50688
375.14255
374.88556
374.74851
374.70537
374.76281
374.8988
375.10964
375.3801
375.70401
376.06587
376.45763
376.86956
377.29492
377.72465
378.15293
378.57251
378.97649
379.35833
379.71193
380.03045
380.30778
380.53957
380.72881
380.87945
380.88864
380.57877
446.7675
440.80804
435.17461
429.84625
424.80917
420.05297
415.56756
411.34227
407.36608
403.62794
400.11708
396.8238
393.74194
390.87678
388.25869
385.87795
383.69994
381.76564
380.0358
378.51799
377.19379
376.05778
375.10206
374.31475
373.69128
373.21472
372.88195
372.67727
372.59302
372.61482
372.73496
372.93914
373.21725
373.55546
373.94191
374.36243
374.80711
375.26728
375.73637
376.20728
376.67386
377.1293
377.56695
377.98046
378.36419
378.71267
379.02098
379.28567
379.50839
379.70045
379.86604
379.9441
446.73402
440.70966
435.0289
429.67076
424.61787
419.85649
415.37448
411.16034
407.20301
403.49179
400.01645
396.76742
393.73633
390.91721
388.30819
385.90846
383.70971
381.71029
379.90181
378.2785
376.83382
375.56198
374.45749
373.51379
372.72496
372.08314
371.58142
371.21051
370.96197
370.82574
370.79267
370.85206
370.99367
371.20611
371.47808
371.79781
372.15503
372.5404
372.94577
373.36322
373.78538
374.20497
374.61516
375.0096
375.38265
375.72927
376.04514
376.32709
376.57443
376.7899
376.97689
377.12635
446.72078
440.65293
434.92869
429.53559
424.45907
419.68555
415.20243
410.9979
407.06077
403.38042
399.94674
396.7501
393.78149
391.03279
388.49706
386.16828
384.03921
382.10335
380.35356
378.78273
377.38407
376.15065
375.07577
374.15218
373.37248
372.72872
372.21264
371.81542
371.52812
371.34143
371.24603
371.23237
371.29093
371.41202
371.58602
371.8034
372.05519
372.33295
372.62888
372.9356
373.24619
373.55416
373.85349
374.13871
374.40491
374.6477
374.86325
375.04836
375.20068
375.31883
375.40186
375.44847
446.72484
440.64562
434.902
429.49028
424.40094
419.62295
415.14507
410.95626
407.04588
403.40368
400.01975
396.88442
393.98834
391.32248
388.87825
386.64742
384.62177
382.79322
381.15348
379.69418
378.4069
377.2831
376.31409
375.49111
374.80526
374.24748
373.80846
373.47859
373.24819
373.10747
373.04667
373.05602
373.12591
373.24688
373.40972
373.60555
373.82592
374.06286
374.30895
374.55724
374.80133
375.03532
375.25385
375.45211
375.6258
375.77113
375.88477
375.96382
376.00578
376.00855
375.97036
375.89055
446.74385
440.68718
434.95686
429.55566
424.47877
419.71836
415.26535
411.11024
407.24351
403.65565
400.33723
397.27873
394.47061
391.9033
389.56726
387.45301
385.55109
383.852
382.34615
381.02381
379.87515
378.89017
378.05877
377.37069
376.81555
376.38277
376.0619
375.84277
375.71491
375.66774
375.69082
375.77387
375.90684
376.08002
376.28407
376.51013
376.74982
376.99533
377.23941
377.47537
377.69713
377.89917
378.07653
378.22484
378.34025
378.41939
378.45937
378.45768
378.41216
378.32092
378.18235
377.99565
446.77599
440.77378
435.09096
429.73436
424.70275
419.99111
415.59256
411.49931
407.70316
404.19557
400.96767
398.01023
395.31362
392.86785
390.66265
388.68755
386.93187
385.38483
384.03544
382.87255
381.88486
381.06092
380.38917
379.85793
379.45549
379.17011
378.99004
378.9036
378.89988
378.96786
379.09632
379.27438
379.49154
379.73777
380.00356
380.27996
380.55864
380.83188
381.09264
381.33447
381.55162
381.73892
381.89182
382.00635
382.07911
382.10717
382.08808
382.01982
381.90067
381.72922
381.5043
381.22519
446.81999
440.90135
435.29881
430.02149
425.07056
420.44315
416.13421
412.13749
408.44598
405.05205
401.94739
399.12298
396.56907
394.27526
392.23055
390.42345
388.84213
387.47443
386.3079
385.32987
384.52747
383.8877
383.39745
383.04358
382.81298
382.69261
382.66958
382.73122
382.86511
383.0601
383.30434
383.58639
383.89535
384.22096
384.55357
384.88428
385.20485
385.50781
385.7864
386.03457
386.24695
386.41887
386.54628
386.62574
386.65435
386.62975
386.55004
386.41372
386.21966
385.96701
385.65517
385.28379
446.87513
441.06694
435.57558
430.41122
425.57658
421.07028
416.88862
413.02651
409.47791
406.23583
403.29235
400.6385
398.26424
396.15859
394.30967
392.70491
391.33112
390.17466
389.22145
388.45716
387.86719
387.43684
387.15135
386.99599
386.95617
387.01749
387.16589
387.38767
387.66962
387.99913
388.36458
388.75394
389.156
389.56037
389.95746
390.3385
390.69557
391.02157
391.3102
391.55595
391.75404
391.90042
391.99168
392.02504
391.99829
391.90973
391.75811
391.54259
391.2627
390.91824
390.50925
390.03593
446.94118
441.26907
435.91843
430.89974
426.2166
421.86857
417.85287
414.16519
410.80008
407.75092
405.00987
402.56771
400.41387
398.53652
396.92267
395.55835
394.42882
393.51869
392.81206
392.29266
391.94403
391.74955
391.69267
391.75696
391.92627
392.18481
392.51731
392.90905
393.34599
393.81479
394.30337
394.79942
395.29162
395.76963
396.22411
396.64666
397.02985
397.36717
397.65297
397.88246
398.05165
398.15726
398.19671
398.16801
398.06978
397.90109
397.66148
397.35087
396.96952
396.51794
395.99687
395.4072
447.01831
441.50764
436.32676
431.486
426.98937
422.83698
419.02655
415.55416
412.41461
409.60129
407.10606
404.91911
403.02899
401.42263
400.08556
399.0021
398.15558
397.52855
397.10296
396.86038
396.78219
396.84972
397.04445
397.34815
397.74305
398.21197
398.73845
399.30685
399.90242
400.51134
401.12101
401.71904
402.29424
402.8366
403.33725
403.78842
404.18341
404.51652
404.78299
404.97896
405.10139
405.14798
405.11709
405.00773
404.81941
404.55214
404.20632
403.78272
403.28238
402.70659
402.05684
401.33471
447.10698
441.78363
436.80184
432.17152
427.89676
423.97789
420.41278
417.19758
414.32692
411.79381
409.58942
407.70292
406.1215
404.83042
403.81329
403.05225
402.52827
402.22145
402.11124
402.17673
402.39688
402.75076
403.21776
403.77777
404.41142
405.10018
405.82651
406.57399
407.32738
408.07263
408.79666
409.48731
410.13383
410.72684
411.25825
411.72121
412.11001
412.42003
412.64762
412.79007
412.84546
412.81265
412.69111
412.48093
412.18267
411.79733
411.32626
410.77114
410.13385
409.4165
408.6213
407.75056
447.20791
442.09891
437.34649
432.95997
428.94331
425.29678
422.01811
419.10316
416.54602
414.33889
412.47176
410.93229
409.70577
408.7753
408.12194
407.72515
407.56305
407.61281
407.85099
408.25385
408.79771
409.45916
410.21543
411.04454
411.92555
412.83872
413.76566
414.6894
415.59447
416.46692
417.29334
418.06216
418.76348
419.3889
419.93148
420.38557
420.74677
421.01178
421.17831
421.24497
421.21119
421.07709
420.84341
420.51141
420.08277
419.55958
418.94418
418.23918
417.44734
416.57155
415.61481
414.58012
447.32202
442.45595
437.96461
433.85662
430.13562
426.80159
423.85185
421.28162
419.08406
417.25006
415.76792
414.62319
413.79867
413.27457
413.02885
413.03764
413.27564
413.71661
414.33376
415.10023
415.98942
416.97538
418.03311
419.13886
420.27029
421.40669
422.5291
423.62036
424.66514
425.64989
426.56116
427.38851
428.12329
428.75852
429.28873
429.70984
430.01901
430.21454
430.29569
430.26263
430.11623
429.85805
429.49014
429.01505
428.43564
427.75508
426.97675
426.1042
425.14105
424.091
422.95776
421.745
447.45032
442.85771
438.66097
434.86793
431.48181
428.50208
425.92539
423.74595
421.95555
420.54323
419.49499
418.79361
418.41863
418.34666
418.55181
419.00621
419.68051
420.54454
421.56775
422.71985
423.97118
425.29319
426.65877
428.04256
429.42112
430.77315
432.07952
433.32334
434.48981
435.56605
436.53915
437.40038
438.14284
438.76133
439.25226
439.61339
439.84376
439.94346
439.91353
439.75579
439.47273
439.06739
438.54325
437.90412
437.1541
436.29746
435.33859
434.28196
433.13202
431.89325
430.57002
429.16665
447.59398
443.30748
439.44087
436.00119
432.99106
430.4093
428.25157
426.5107
425.17659
424.23586
423.67147
423.46259
423.5847
424.00998
424.70787
425.64573
426.78955
428.10466
429.55642
431.11087
432.73525
434.3985
436.07162
437.72797
439.34346
440.89668
442.36891
443.7441
445.00868
446.14952
447.15629
448.02233
448.74288
449.31493
449.73707
450.00921
450.13249
450.10898
449.94164
449.63406
449.19042
448.6153
447.91359
447.09044
446.15112
445.10097
443.94537
442.68965
441.33909
439.89882
438.37387
436.7691
447.7542
443.80876
440.31002
437.2642
434.67324
432.53509
430.84412
429.59136
428.76422
428.34618
428.31633
428.64928
429.31552
430.28184
431.51211
432.96815
434.61062
436.39992
438.29701
440.26417
442.26564
444.2681
446.24105
448.1571
449.99209
451.72514
453.33855
454.81768
456.15065
457.32446
458.33261
459.17089
459.83709
460.33078
460.65298
460.80605
460.79334
460.6191
460.28827
459.80629
459.17903
458.41262
457.51337
456.48769
455.34199
454.08266
452.71596
451.24805
449.68491
448.0323
446.29583
444.48082
447.93224
444.36519
441.27434
438.66507
436.53857
434.8917
433.71722
433.00381
432.73577
432.89251
433.44823
434.37204
435.62826
437.17726
438.97639
440.98115
443.14625
445.42679
447.7792
450.1621
452.53698
454.86874
457.12599
459.28127
461.3111
463.19587
464.9197
466.47004
467.83562
469.007
469.98099
470.75642
471.33403
471.71623
471.90678
471.91057
471.73336
471.38161
470.86227
470.18266
469.3503
468.37285
467.25795
466.01322
464.64613
463.16402
461.57398
459.88288
458.09733
456.22367
454.26793
452.23589
448.1294
444.98046
442.33979
440.21198
438.59735
437.49146
436.88506
436.76389
437.10825
437.89249
439.08483
440.64755
442.53765
444.70791
447.10819
449.68688
452.39231
455.17402
457.98399
460.77747
463.51377
466.15666
468.67469
471.0412
473.23427
475.23645
477.03436
478.61824
479.97671
481.10701
482.00914
482.68526
483.13934
483.37685
483.40443
483.22963
482.86063
482.30613
481.57507
480.67658
479.61978
478.41375
477.0674
475.58943
473.98831
472.27218
470.44887
468.52588
466.51034
464.40907
462.22849
459.97466
448.34695
445.65821
443.51227
441.91294
440.85964
440.34639
440.36143
440.88681
441.89781
443.36255
445.24192
447.48997
450.055
452.88101
455.90942
459.08087
462.33692
465.62164
468.88284
472.07301
475.15006
478.07759
480.82509
483.36773
485.68619
487.76611
489.59761
491.17074
492.48108
493.5302
494.32193
494.86209
495.15813
495.21869
495.05336
494.67236
494.08631
493.30603
492.34243
491.2063
489.90827
488.45873
486.86771
485.14493
483.29963
481.34072
479.27664
477.11541
474.8646
472.53137
470.12243
467.64409
448.58616
446.40198
444.79741
443.77564
443.33507
443.46792
444.15933
445.38671
447.1192
449.31725
451.93278
454.91007
458.18725
461.69834
465.37543
469.15091
472.95956
476.74023
480.43721
484.00116
487.38964
490.56728
493.50568
496.18303
498.5836
500.69702
502.51592
504.03363
505.2533
506.18072
506.82385
507.19238
507.2973
507.15051
506.76453
506.15218
505.3264
504.30009
503.08591
501.69624
500.14305
498.43787
496.59175
494.6152
492.51823
490.31031
488.0004
485.59691
483.10774
480.54029
477.9015
475.19783
448.84822
447.21508
446.20049
445.80716
446.03251
446.86654
448.29055
450.2763
452.78529
455.76859
459.16737
462.91436
466.93603
471.15523
475.49401
479.87632
484.23037
488.49049
492.59847
496.50433
500.16666
503.55251
506.63693
509.40233
511.83762
513.93713
515.69343
517.11096
518.19758
518.96364
519.42143
519.58459
519.46766
519.08576
518.45422
517.58835
516.50328
515.21375
513.73407
512.078
510.2587
508.28865
506.17975
503.94322
501.58965
499.12897
496.57049
493.92293
491.1944
488.39248
485.52421
482.59615
449.13425
448.10051
447.7262
448.01383
448.95978
450.55141
452.76536
455.56633
458.90646
462.72542
466.9516
471.5043
476.29678
481.23972
486.24467
491.22728
496.10985
500.82328
505.30822
509.51563
513.40675
516.95255
520.133
522.93598
525.35618
527.38729
529.03433
530.30758
531.22014
531.78717
532.02532
531.95217
531.58573
530.94418
530.0455
528.90731
527.54669
525.98008
524.22319
522.291
520.19758
517.95631
515.57973
513.07963
510.467
507.7521
504.94451
502.0531
499.08615
496.05129
492.95562
489.80569
449.44525
449.06083
449.37851
450.40092
452.12337
454.53013
457.59206
461.26515
465.49006
470.19278
475.28661
480.67547
486.25798
491.93183
497.59804
503.16453
508.54882
513.67991
518.49908
522.96006
527.0285
530.68097
533.90371
536.69126
539.03917
540.95262
542.44464
543.5314
544.23136
544.56459
544.55205
544.2151
543.57506
542.65294
541.46916
540.0434
538.39447
536.54027
534.49768
532.28263
529.91007
527.394
524.74746
521.9826
519.11072
516.14229
513.08701
509.95387
506.75115
503.48649
500.16697
496.79908
449.78201
450.0981
451.16047
452.9724
455.5282
458.80838
462.77665
467.37826
472.53992
478.17125
484.16805
490.41686
496.80041
503.20304
509.5156
515.6394
521.48886
526.993
532.09587
536.75599
540.9453
544.64756
547.85665
550.56965
552.79244
554.54082
555.83438
556.69531
557.14752
557.21583
556.92535
556.30101
555.36717
554.14742
552.66433
550.93938
548.99285
546.84378
544.51009
542.00846
539.35449
536.5626
533.64618
530.61761
527.48835
524.26898
520.96923
517.59808
514.16375
510.67382
507.13528
503.55455
450.14517
451.21366
453.07398
455.73075
459.1773
463.38958
468.32241
473.90785
480.05573
486.65636
493.5854
500.71021
507.89669
515.01592
521.94962
528.59416
534.86302
540.68763
546.0171
550.81696
555.06727
558.76053
561.89473
564.4768
566.52551
568.06418
569.11917
569.71874
569.89205
569.66849
569.07702
568.14586
566.90209
565.37156
563.57869
561.54646
559.2963
556.84828
554.22104
551.43186
548.49671
545.43031
542.24622
538.95696
535.57402
532.10797
528.56849
524.96446
521.30398
517.5945
513.84285
510.05538
450.53506
452.40804
455.11963
458.67667
463.07153
468.27453
474.2295
480.85232
488.03254
495.63791
503.52136
511.52944
519.51085
527.32412
534.84347
541.96271
548.59695
554.68274
560.17674
565.05362
569.30336
572.92403
575.92367
578.32421
580.15303
581.44113
582.22164
582.52869
582.39646
581.85854
580.94744
579.69425
578.12848
576.27785
574.16834
571.82404
569.26743
566.5193
563.59878
560.5235
557.30965
553.97211
550.52448
546.97926
543.3479
539.64086
535.86769
532.03711
528.15704
524.23473
520.27672
516.28941
450.95171
453.68085
457.29647
461.8088
467.20925
473.46113
480.4946
488.20581
496.46018
505.09942
513.95125
522.84026
531.59819
540.07248
548.13226
555.67159
562.6103
568.89287
574.48605
579.37568
583.55876
587.04412
589.8569
592.02887
593.59616
594.59739
595.07227
595.06045
594.60076
593.73061
592.48562
590.89941
589.00346
586.82708
584.39738
581.73946
578.87651
575.82974
572.61858
569.26082
565.77275
562.16922
558.46379
554.66882
550.79561
546.85446
542.85473
538.80488
534.71262
530.585
526.42812
522.24848
451.3948
455.03055
459.6018
465.12352
471.58609
478.94401
487.1105
495.95773
505.3227
515.01754
524.84258
534.59991
544.10536
553.19758
561.74366
569.6413
576.81827
583.22993
588.85548
593.68921
597.74001
601.03602
603.61361
605.51453
606.78356
607.46672
607.60989
607.25786
606.4536
605.23792
603.64911
601.72287
599.49229
596.98784
594.2376
591.26741
588.10078
584.75916
581.2621
577.62739
573.87125
570.00844
566.0523
562.01499
557.90762
553.7402
549.52188
545.2608
540.96439
536.63945
532.29203
527.92797
451.86353
456.45437
462.03092
468.61465
476.19464
484.71425
494.06568
504.09223
514.59781
525.36149
536.15459
546.757
556.9706
566.6284
575.59909
583.7877
591.13332
597.60496
603.19174
607.9012
611.76388
614.82083
617.11983
618.71251
619.652
619.99128
619.78192
619.07332
617.91214
616.34205
614.40355
612.13401
609.56769
606.73605
603.66785
600.38919
596.92378
593.29313
589.51673
585.61221
581.59558
577.48143
573.28282
569.01159
564.67859
560.29351
555.86521
551.40157
546.90958
542.39581
537.86624
533.3261
452.35663
457.94808
464.57697
472.27324
481.02419
490.75901
501.34389
512.58769
524.25627
536.09256
547.83799
559.25158
570.12427
580.28726
589.61497
598.02361
605.46684
611.92509
617.40205
621.92958
625.55304
628.32655
630.30924
631.56224
632.14658
632.12166
631.54418
630.46758
628.94164
627.01241
624.72215
622.10939
619.20944
616.05436
612.67314
609.09202
605.33469
601.42255
597.37487
593.20903
588.94067
584.58418
580.1522
575.65622
571.10683
566.51327
561.88407
557.22688
552.54829
547.85455
543.15134
538.44363
452.87226
459.5059
467.23068
476.08736
486.06054
497.06123
508.92371
521.41606
534.26125
547.16353
559.83467
572.01535
583.48945
594.09088
603.70414
612.26038
619.72611
626.09733
631.40508
635.69815
639.037
641.48877
643.12351
644.01141
644.22077
643.81677
642.86064
641.40924
639.51497
637.22572
634.58496
631.63232
628.40366
624.93123
621.2441
617.3684
613.32764
609.14297
604.83334
600.41572
595.90536
591.31629
586.66075
581.94978
577.19366
572.40122
567.58059
562.73907
557.88302
553.01829
548.15022
543.28353
453.40796
461.12033
469.98029
480.04193
491.28567
503.59923
516.7779
530.54221
544.56758
558.51815
572.07759
584.97193
596.98278
607.95162
617.77732
626.4051
633.81726
640.04049
645.12517
649.13744
652.15278
654.25098
655.51251
656.01591
655.83613
655.04343
653.70291
651.8743
649.61201
646.96521
643.97849
640.69208
637.14195
633.36034
629.37619
625.21538
620.90107
616.45399
611.89266
607.23369
602.49178
597.68045
592.81164
587.89588
582.94297
577.96146
572.95905
567.94265
562.91835
557.89165
552.86754
547.85046
453.96059
462.78206
472.81133
484.11857
496.6776
510.34632
524.8728
539.923
555.12092
570.09056
584.49059
598.03728
610.51528
621.77861
631.74091
640.36196
647.65841
653.67877
658.49324
662.18532
664.84517
666.56471
667.43412
667.53961
666.96198
665.77592
664.04975
661.84547
659.21887
656.22025
652.89491
649.2831
645.42076
641.33991
637.06918
632.63399
628.05705
623.35861
618.55666
613.66727
608.70475
603.68196
598.61041
593.50025
588.36076
583.20012
578.02564
572.84386
567.66054
562.48085
557.30945
552.15049
454.52626
464.47985
475.70662
488.29549
502.21006
517.27016
533.16737
549.50616
565.85666
581.80455
596.98826
611.12009
623.99327
635.47687
645.49562
654.04733
661.1727
666.94265
671.44733
674.7873
677.0669
678.38943
678.85409
678.55392
677.5749
675.99542
673.88641
671.31145
668.32749
664.98564
661.33121
657.40438
653.24081
648.87207
644.32636
639.62857
634.80078
629.86266
624.83168
619.72331
614.55133
609.32809
604.06459
598.77054
593.45471
588.12492
582.78808
577.45033
572.11714
566.79333
561.48327
556.19081
455.10036
466.20053
478.64615
492.54739
507.85217
524.33204
541.61196
559.2289
576.69866
593.57274
609.47568
624.12224
637.31908
648.9413
658.95446
667.38193
674.28913
679.76953
683.93299
686.89669
688.77846
689.6923
689.74554
689.03738
687.65819
685.68943
683.20393
680.26649
676.93502
673.2607
669.28867
665.05886
660.60637
655.9623
651.15417
646.20623
641.13996
635.97433
630.72621
625.41052
620.0405
614.62792
609.18327
603.71583
598.23389
592.74484
587.25522
581.77082
576.29674
570.83751
565.39725
559.97949
455.67748
467.92894
481.60721
496.8454
513.56795
531.48576
550.14667
569.01595
587.55753
605.29544
621.8481
636.93928
650.37841
662.07921
672.03386
680.29183
686.9433
692.10411
695.90345
698.47452
699.948
700.44779
700.08864
698.97511
697.20129
694.85108
691.9986
688.70985
685.04291
681.04882
676.77228
672.25281
667.52484
662.6188
657.56146
652.37636
647.0843
641.70361
636.2505
630.73929
625.18266
619.59184
613.9768
608.34637
602.70839
597.06983
591.43686
585.81489
580.20872
574.62255
569.06033
563.52523
456.25145
469.64806
484.56438
501.1569
519.31561
538.67604
558.699
578.77702
598.32842
616.85919
633.99023
649.44708
663.06973
674.7998
684.65464
692.70917
699.0779
703.89868
707.31962
709.48942
710.55095
710.63733
709.87004
708.35826
706.19924
703.47851
700.27159
696.64495
692.65646
688.35682
683.79016
678.99538
674.00614
668.85204
663.5591
658.15016
652.64526
647.06207
641.41615
635.7212
629.98933
624.23126
618.45644
612.67325
606.8891
601.11056
595.34341
589.59276
583.86305
456.81535
471.33907
487.48971
505.44538
525.04642
545.83623
567.18063
588.4034
608.88809
628.13477
645.76613
661.52818
675.29011
687.01494
696.74288
704.57286
710.64311
715.11326
718.15007
719.91737
720.5697
720.24886
719.08238
717.1835
714.65192
711.5746
708.02816
704.07879
699.78425
695.19452
690.35308
685.29801
680.06212
674.67426
669.15964
663.54031
657.83559
652.06245
646.23581
640.36876
634.47288
628.55833
622.63411
616.70815
610.78745
604.87818
598.98579
593.11504
587.27011
457.36159
472.98157
490.35287
509.66989
530.70294
552.88491
575.4829
597.76325
619.09098
638.96998
657.03317
673.06018
686.93628
698.64016
708.23076
715.82918
721.59697
725.71568
728.37088
729.74142
729.99323
729.27631
727.72378
725.45244
722.56371
719.14629
715.27695
711.02164
706.43763
701.57413
696.47383
691.17386
685.70635
680.09924
674.3769
668.56063
662.66901
656.71833
650.72287
644.69516
638.64622
632.58572
626.52221
620.46318
614.41524
608.3842
602.37517
596.39261
590.44041
457.88199
474.5538
493.12122
513.78425
536.21621
559.72094
583.47028
606.69518
628.76465
649.18779
667.63898
683.91452
697.9052
709.59558
719.05749
726.4324
731.90562
735.68161
737.96546
738.95139
738.81664
737.71914
735.79735
733.17095
729.9431
726.20388
722.02975
717.48633
712.63019
707.50972
702.16683
696.63773
690.9537
685.14182
679.22566
673.22574
667.15993
661.04388
654.89125
648.714
642.52265
636.32641
630.13338
623.95064
617.78445
611.64026
605.52287
599.43644
593.38462
458.36786
476.03292
495.75977
517.73531
541.50134
566.21613
590.97097
614.99866
637.68823
658.59326
677.41451
693.95586
708.09483
719.80716
729.17032
736.34542
741.54361
744.99449
746.92431
747.54346
747.04074
745.58196
743.3106
740.34881
736.80203
732.76058
728.30079
723.48777
718.37725
713.017
707.44799
701.70552
695.81999
689.81768
683.72136
677.55081
671.32324
665.05365
658.75513
652.43914
646.11568
639.79353
633.48038
627.18294
620.90712
614.65805
608.44023
602.25754
596.11339
458.81013
477.39522
498.23068
521.45991
546.45045
572.2043
597.76279
622.41434
645.61094
666.95823
686.17003
703.04134
717.40517
729.20823
738.5258
745.54048
750.49408
753.64552
755.24478
755.51981
754.67162
752.87389
750.27481
746.99957
743.15523
738.83205
734.10626
729.04246
723.6957
718.11291
712.33418
706.39391
700.32169
694.14299
687.87985
681.55134
675.17403
668.76236
662.32886
655.88449
649.43882
643.00021
636.57595
630.17244
623.79523
617.44918
611.13849
604.8668
598.6373
459.19931
478.61622
500.49199
524.87933
550.92119
577.4645
603.55238
628.61458
652.2229
674.0107
693.6892
711.0198
725.73994
737.74168
747.09125
753.99989
758.74904
761.63345
762.93069
762.88823
761.71997
759.60805
756.70499
753.13955
749.01966
744.43573
739.46396
734.16846
728.60353
722.81527
716.84296
710.72016
704.47567
698.13423
691.71717
685.24294
678.72751
672.18475
665.62672
659.06393
652.50552
645.95946
639.43272
632.93135
626.46061
620.02509
613.62874
607.27496
600.96672
459.52538
479.67041
502.4948
527.88915
554.71767
581.69443
608.18198
633.64895
657.67243
679.89736
700.03072
717.8185
733.00921
745.36292
754.84659
761.71669
766.30935
768.9644
769.99201
769.66145
768.20093
765.80103
762.61912
758.78724
754.41414
749.59077
744.3931
738.8848
733.11947
727.14247
720.9923
714.70179
708.299
701.80797
695.24942
688.64121
681.99875
675.33544
668.66288
661.99116
655.32903
648.68413
642.06309
635.47167
628.91487
622.39701
615.92184
609.49253
603.11184
459.77706
480.53014
504.1775
530.341
557.55776
584.91539
611.78473
637.64877
662.08821
684.75072
705.3364
723.57993
739.22965
752.04401
761.78623
768.69521
773.1847
775.65145
776.44412
775.85694
774.13324
771.47241
768.03745
763.96295
759.35921
754.31752
748.91375
743.21114
737.26272
731.1132
724.80039
718.35642
711.80871
705.18072
698.49256
691.76156
685.00268
678.22885
671.45126
664.67961
657.92234
651.18674
644.47917
637.80511
631.16931
624.57589
618.02836
611.52972
605.08254
459.94003
481.16312
505.45475
532.00895
559.5387
587.24168
614.47404
640.72651
665.58263
688.68647
709.72734
728.42767
744.52953
757.78416
767.921
774.95135
779.39321
781.7139
782.30765
781.49596
779.53872
776.64437
772.9819
768.68869
763.87651
758.63718
753.04653
747.16753
741.05273
734.74626
728.28535
721.70156
715.02172
708.26875
701.46228
694.61915
687.7539
680.87905
674.00543
667.14241
660.2981
653.47953
646.69278
639.94307
633.23493
626.57233
619.95857
613.39646
606.88841
459.99227
481.52673
506.1962
532.95266
560.76344
588.77664
616.34908
642.98077
668.25542
691.80712
713.30958
732.47022
749.02152
762.70947
773.27826
780.51214
784.96058
787.17694
787.6073
786.60313
784.4417
781.34088
777.47612
772.9875
767.98843
762.5714
756.81238
750.77414
744.50889
738.06032
731.46516
724.75448
717.95463
711.08805
704.17395
697.22877
690.26664
683.29976
676.33862
669.39228
662.4686
655.57434
648.71532
641.89656
635.12237
628.39661
621.72239
615.10234
608.53873
459.89327
481.55597
506.32271
533.27582
561.32836
589.61187
617.49828
644.50009
670.19674
694.20519
716.17787
735.80394
752.80363
766.916
777.88135
785.41462
789.91958
792.0703
792.37132
791.20571
788.8683
785.58755
781.54473
776.88307
771.71773
766.14204
760.23223
754.05103
747.65043
741.07378
734.35745
727.53208
720.62364
713.65418
706.64251
699.60476
692.55471
685.50425
678.46359
671.44154
664.4457
657.48259
650.55785
643.67624
636.84185
630.05862
623.32938
616.6566
610.04244
459.55888
481.10598
505.9581
533.08084
561.32474
589.83082
618.00251
645.36608
671.49003
695.9658
718.41843
738.5155
755.96339
770.49286
781.84016
789.71
794.30827
796.42741
796.63072
795.33268
792.8464
789.41082
785.21293
780.3994
775.08729
769.37087
763.32683
757.01797
750.4962
743.80465
736.97941
730.05081
723.04449
715.98219
708.88243
701.76099
694.63143
687.50533
680.39268
673.30204
666.24081
659.21531
652.23096
645.29234
638.40321
631.5679
624.78877
618.06815
611.40812
459.05245
480.31669
505.2235
532.46939
560.83826
589.51121
617.93788
645.65606
672.21424
697.16877
720.11091
740.68401
758.57937
773.5188
785.23756
793.45007
798.16755
800.28423
800.41804
799.01465
796.40464
792.83757
788.5061
783.56047
778.11976
772.27936
766.11651
759.69427
753.06455
746.27039
739.34768
732.32655
725.23237
718.08664
710.90761
703.71083
696.50961
689.31531
682.13771
674.98518
667.8649
660.78305
653.74487
646.75473
458.42191
479.30797
504.23908
531.54038
559.95
588.72717
617.378
645.44512
672.44557
697.89008
721.32994
742.38209
760.7224
776.0641
788.14147
796.68354
801.53954
803.67784
803.76723
802.28275
799.57191
795.89473
791.44944
786.38993
780.83738
774.88845
768.62106
762.09864
755.37323
748.48785
741.47832
734.37459
727.20188
719.98147
712.73141
705.46707
698.20153
690.94599
683.71003
676.50185
669.32848
662.19593
655.10931
648.07291
457.70954
478.19874
503.12856
530.38889
558.7371
587.55104
616.39595
644.80773
672.2587
698.20302
722.14586
743.67662
762.4574
778.19148
790.61098
799.45473
804.46632
806.64619
806.71245
805.16814
802.37695
798.60888
794.06767
788.91082
783.26172
777.21839
770.85955
764.24909
757.43928
750.47322
743.3867
736.20959
728.96699
721.68003
714.36662
707.04195
699.71894
692.40864
685.12046
677.86248
670.64157
663.46361
656.33359
649.25573
456.96004
477.12103
502.01522
529.10388
557.27298
586.05469
615.06562
643.81867
671.72746
698.1785
722.62493
744.63007
763.84335
779.9573
792.70021
801.81065
806.9907
809.22697
809.28745
807.70147
804.84784
801.00587
796.3847
791.14538
785.41354
779.28863
772.85026
766.16285
759.27899
752.24192
745.08747
737.84549
730.54101
723.19505
715.8254
708.44712
701.07301
693.71398
686.37933
679.07698
671.81371
664.59528
657.42658
650.31175
456.23031
476.23426
501.01909
527.7646
555.62705
584.31034
613.46234
642.55346
670.92477
697.88485
722.83004
745.30054
764.93358
781.41248
794.45882
803.8099
809.15545
811.45691
811.52502
809.91242
807.01166
803.11055
798.42346
793.11486
787.31263
781.11767
774.61056
767.85629
760.90783
753.80861
746.59457
739.29557
731.93658
724.5386
717.1193
709.69366
702.27437
694.87223
687.49642
680.15479
672.85399
665.5997
658.39671
651.24908
455.60592
475.72757
500.24446
526.43525
553.86382
582.39052
611.66287
641.08827
669.92144
697.38763
722.82068
745.73996
765.77747
782.60304
795.93024
805.50038
811.00044
813.37097
813.45649
811.82931
808.89417
804.94652
800.20568
794.83939
788.97772
782.72304
776.15688
769.3449
762.34043
755.18717
747.92117
740.57235
733.16569
725.72212
718.25928
710.79206
703.33308
695.89304
688.48106
681.10486
673.77103
666.48517
659.25197
652.07545
455.22736
475.80309
499.75742
525.15843
552.04152
580.36737
609.74484
639.49839
668.78684
696.74856
722.64994
745.99652
766.42014
783.56872
797.15349
806.92228
812.56214
815.00186
815.11129
813.47878
810.51958
806.53596
801.75178
796.33787
790.42641
784.12118
777.5047
770.64325
763.59059
756.39068
749.07972
741.6877
734.23963
726.75643
719.25569
711.75225
704.25867
696.78559
689.34202
681.93565
674.57299
667.25954
659.99996
652.79819
455.34928
476.61375
499.55429
523.94928
550.21075
578.31158
607.78441
637.85668
667.58766
696.02492
722.3654
746.11437
766.90061
784.34453
798.16317
808.11006
813.8734
816.37961
816.51666
814.88557
811.91045
807.89953
803.08082
797.62798
791.67517
785.32753
778.66851
771.76502
764.67125
757.43142
750.0819
742.65277
735.16907
727.65172
720.1183
712.58361
705.06015
697.55851
690.08765
682.65519
675.26757
667.93026
660.64785
653.42422
456.47519
478.12271
499.53402
522.79645
548.4148
576.28984
605.85494
636.23305
666.38504
695.26518
722.01233
746.13317
767.2517
784.96141
798.9893
809.09349
814.96357
817.53153
817.69756
816.07244
813.08758
809.05638
804.21049
798.72615
792.73935
786.35648
779.66188
772.72305