/*--------------------------------*- C++ -*----------------------------------*\
| =========                 |                                                 |
| \\      /  F ield         | OpenFOAM: The Open Source CFD Toolbox           |
|  \\    /   O peration     | Version:  2312                                  |
|   \\  /    A nd           | Website:  www.openfoam.com                      |
|    \\/     M anipulation  |                                                 |
\*---------------------------------------------------------------------------*/
FoamFile
{
    version     2.0;
    format      ascii;
    arch        "LSB;label=32;scalar=64";
    class       volScalarField;
    location    "0.07";
    object      p;
}
// * * * * * * * * * * * * * * * * * * * * * * * * * * * * * * * * * * * * * //

dimensions      [1 -1 -2 0 0 0 0];

internalField   nonuniform List<scalar> 
3221
(
100002.07
100001.87
100001.77
100001.75
100001.73
100001.68
100001.56
100001.34
100000.95
100000.26
99999.064
99996.945
99993.144
99986.48
99972.547
99939.27
99923.036
99934.04
99940.403
99951.353
99961.102
99967.967
99974.04
99978.415
99982.24
99985.565
99988.28
99990.332
99992.119
99993.532
99994.714
99995.683
99996.484
99997.139
99997.684
99998.134
99998.512
99998.834
99999.115
99999.369
99999.611
99999.857
100000.13
100000.47
100000.95
100001.71
100003.01
100005.37
100009.84
100018.82
100038.76
100076.01
99999.898
99999.588
99999.231
99998.932
99998.64
99998.3
99997.866
99997.288
99996.494
99995.384
99993.827
99991.655
99988.686
99984.802
99979.8
99972.84
99970.658
99975.682
99981.885
99988.642
99994.622
99998.607
100001.12
100002.31
100002.38
100001.69
100001.05
100000.7
100000.43
100000.32
100000.3
100000.31
100000.34
100000.37
100000.41
100000.45
100000.51
100000.59
100000.69
100000.83
100001.02
100001.27
100001.63
100002.13
100002.83
100003.84
100005.31
100007.43
100010.5
100014.89
100021.04
100027.97
99998.102
99997.797
99997.439
99997.086
99996.706
99996.261
99995.713
99995.026
99994.149
99993.027
99991.597
99989.809
99987.64
99985.129
99982.423
99979.94
99978.851
99979.666
99981.701
99984.471
99987.283
99989.672
99991.467
99992.727
99993.564
99994.137
99994.656
99995.215
99995.781
99996.347
99996.904
99997.425
99997.902
99998.335
99998.726
99999.086
99999.425
99999.756
100000.09
100000.45
100000.85
100001.3
100001.85
100002.51
100003.33
100004.37
100005.7
100007.38
100009.47
100011.96
100014.68
100016.94
99996.318
99996.073
99995.76
99995.418
99995.028
99994.566
99994.009
99993.332
99992.509
99991.512
99990.319
99988.925
99987.352
99985.672
99984.029
99982.689
99982.043
99982.295
99983.473
99985.261
99987.323
99989.353
99991.172
99992.673
99993.856
99994.778
99995.519
99996.149
99996.711
99997.227
99997.71
99998.158
99998.574
99998.959
99999.318
99999.657
99999.987
100000.32
100000.66
100001.04
100001.45
100001.92
100002.46
100003.1
100003.86
100004.76
100005.82
100007.07
100008.48
100010
100011.49
100012.67
99994.651
99994.463
99994.204
99993.899
99993.539
99993.11
99992.599
99991.995
99991.284
99990.459
99989.517
99988.473
99987.36
99986.247
99985.241
99984.49
99984.168
99984.382
99985.146
99986.354
99987.834
99989.406
99990.899
99992.232
99993.362
99994.295
99995.065
99995.714
99996.281
99996.792
99997.265
99997.708
99998.127
99998.525
99998.907
99999.278
99999.646
100000.02
100000.4
100000.82
100001.26
100001.75
100002.3
100002.91
100003.6
100004.38
100005.24
100006.19
100007.19
100008.19
100009.1
100009.81
99993.164
99993.023
99992.816
99992.56
99992.248
99991.876
99991.439
99990.931
99990.35
99989.697
99988.981
99988.22
99987.449
99986.72
99986.105
99985.69
99985.561
99985.777
99986.347
99987.224
99988.317
99989.519
99990.725
99991.857
99992.87
99993.75
99994.505
99995.156
99995.728
99996.241
99996.714
99997.157
99997.578
99997.983
99998.377
99998.764
99999.15
99999.542
99999.947
100000.37
100000.82
100001.31
100001.84
100002.41
100003.03
100003.69
100004.4
100005.14
100005.88
100006.59
100007.22
100007.72
99991.864
99991.76
99991.6
99991.392
99991.136
99990.829
99990.472
99990.064
99989.608
99989.111
99988.583
99988.044
99987.523
99987.057
99986.694
99986.485
99986.48
99986.709
99987.179
99987.865
99988.717
99989.669
99990.653
99991.611
99992.505
99993.312
99994.029
99994.662
99995.227
99995.737
99996.206
99996.646
99997.064
99997.467
99997.86
99998.249
99998.637
99999.031
99999.435
99999.854
100000.29
100000.76
100001.25
100001.77
100002.32
100002.89
100003.48
100004.08
100004.66
100005.2
100005.68
100006.06
99990.737
99990.662
99990.541
99990.378
99990.175
99989.932
99989.652
99989.338
99988.994
99988.628
99988.253
99987.885
99987.547
99987.265
99987.073
99987.001
99987.078
99987.324
99987.74
99988.312
99989.011
99989.793
99990.615
99991.435
99992.221
99992.952
99993.62
99994.224
99994.771
99995.271
99995.732
99996.164
99996.576
99996.972
99997.359
99997.741
99998.123
99998.508
99998.901
99999.305
99999.724
100000.16
100000.61
100001.08
100001.57
100002.07
100002.57
100003.06
100003.54
100003.97
100004.36
100004.67
99989.762
99989.708
99989.618
99989.495
99989.34
99989.156
99988.946
99988.713
99988.465
99988.209
99987.956
99987.72
99987.517
99987.369
99987.295
99987.318
99987.454
99987.714
99988.1
99988.601
99989.198
99989.864
99990.568
99991.28
99991.975
99992.637
99993.254
99993.823
99994.347
99994.83
99995.279
99995.701
99996.103
99996.49
99996.867
99997.239
99997.609
99997.981
99998.358
99998.743
99999.137
99999.542
99999.958
100000.38
100000.82
100001.25
100001.69
100002.11
100002.51
100002.87
100003.19
100003.46
99988.915
99988.876
99988.811
99988.721
99988.608
99988.475
99988.326
99988.164
99987.996
99987.829
99987.673
99987.538
99987.439
99987.388
99987.4
99987.491
99987.669
99987.942
99988.31
99988.764
99989.293
99989.876
99990.493
99991.122
99991.744
99992.344
99992.913
99993.447
99993.944
99994.408
99994.842
99995.252
99995.642
99996.018
99996.384
99996.744
99997.1
99997.457
99997.816
99998.179
99998.549
99998.924
99999.306
99999.692
100000.08
100000.47
100000.85
100001.21
100001.56
100001.87
100002.15
100002.39
99988.174
99988.146
99988.101
99988.038
99987.961
99987.871
99987.773
99987.67
99987.568
99987.474
99987.395
99987.34
99987.318
99987.341
99987.418
99987.558
99987.768
99988.051
99988.407
99988.83
99989.311
99989.835
99990.387
99990.952
99991.514
99992.063
99992.589
99993.089
99993.559
99994.002
99994.42
99994.815
99995.193
99995.557
99995.91
99996.257
99996.599
99996.939
99997.28
99997.622
99997.967
99998.315
99998.666
99999.017
99999.368
99999.714
100000.05
100000.37
100000.68
100000.96
100001.2
100001.42
99987.522
99987.501
99987.47
99987.429
99987.381
99987.327
99987.272
99987.218
99987.171
99987.136
99987.118
99987.125
99987.165
99987.243
99987.368
99987.546
99987.779
99988.071
99988.42
99988.821
99989.267
99989.748
99990.251
99990.766
99991.281
99991.787
99992.276
99992.744
99993.19
99993.612
99994.012
99994.393
99994.758
99995.109
99995.449
99995.782
99996.109
99996.433
99996.756
99997.078
99997.401
99997.724
99998.046
99998.368
99998.686
99998.998
99999.301
99999.591
99999.862
100000.11
100000.34
100000.53
99986.94
99986.924
99986.903
99986.88
99986.856
99986.832
99986.812
99986.798
99986.796
99986.808
99986.84
99986.897
99986.984
99987.106
99987.269
99987.475
99987.727
99988.026
99988.37
99988.755
99989.176
99989.624
99990.09
99990.566
99991.043
99991.513
99991.971
99992.412
99992.834
99993.236
99993.62
99993.986
99994.337
99994.675
99995.002
99995.322
99995.635
99995.943
99996.249
99996.552
99996.854
99997.155
99997.453
99997.749
99998.039
99998.323
99998.598
99998.86
99999.105
99999.331
99999.535
99999.714
99986.417
99986.402
99986.389
99986.379
99986.373
99986.374
99986.383
99986.403
99986.437
99986.488
99986.56
99986.657
99986.782
99986.939
99987.13
99987.359
99987.626
99987.931
99988.272
99988.646
99989.048
99989.471
99989.909
99990.355
99990.801
99991.242
99991.673
99992.09
99992.491
99992.875
99993.243
99993.595
99993.933
99994.258
99994.573
99994.88
99995.179
99995.473
99995.763
99996.049
99996.333
99996.613
99996.89
99997.163
99997.43
99997.69
99997.941
99998.18
99998.404
99998.611
99998.799
99998.965
99985.939
99985.924
99985.915
99985.915
99985.925
99985.946
99985.978
99986.026
99986.09
99986.173
99986.278
99986.407
99986.563
99986.748
99986.963
99987.21
99987.489
99987.8
99988.139
99988.505
99988.892
99989.297
99989.713
99990.135
99990.557
99990.974
99991.382
99991.779
99992.161
99992.529
99992.882
99993.221
99993.547
99993.86
99994.163
99994.458
99994.744
99995.025
99995.301
99995.571
99995.838
99996.101
99996.359
99996.613
99996.86
99997.1
99997.33
99997.55
99997.756
99997.947
99998.121
99998.276
99985.497
99985.48
99985.474
99985.481
99985.503
99985.54
99985.592
99985.663
99985.752
99985.862
99985.994
99986.15
99986.331
99986.539
99986.774
99987.036
99987.325
99987.641
99987.98
99988.339
99988.717
99989.107
99989.506
99989.909
99990.311
99990.709
99991.099
99991.478
99991.845
99992.198
99992.538
99992.865
99993.179
99993.481
99993.774
99994.057
99994.332
99994.601
99994.863
99995.121
99995.373
99995.62
99995.862
99996.099
99996.329
99996.551
99996.765
99996.968
99997.159
99997.336
99997.499
99997.645
99985.083
99985.063
99985.057
99985.07
99985.101
99985.151
99985.22
99985.31
99985.42
99985.553
99985.708
99985.887
99986.09
99986.317
99986.568
99986.843
99987.142
99987.462
99987.801
99988.157
99988.527
99988.906
99989.292
99989.68
99990.067
99990.449
99990.823
99991.188
99991.541
99991.882
99992.21
99992.526
99992.83
99993.123
99993.405
99993.678
99993.943
99994.201
99994.452
99994.697
99994.937
99995.17
99995.398
99995.62
99995.836
99996.043
99996.242
99996.431
99996.61
99996.775
99996.928
99997.066
99984.691
99984.666
99984.658
99984.675
99984.714
99984.775
99984.858
99984.964
99985.093
99985.245
99985.42
99985.619
99985.84
99986.084
99986.35
99986.637
99986.944
99987.269
99987.609
99987.963
99988.327
99988.699
99989.074
99989.451
99989.825
99990.194
99990.556
99990.909
99991.25
99991.581
99991.899
99992.205
99992.5
99992.784
99993.058
99993.322
99993.578
99993.826
99994.067
99994.301
99994.53
99994.752
99994.967
99995.177
99995.379
99995.575
99995.761
99995.939
99996.106
99996.261
99996.405
99996.536
99984.313
99984.283
99984.273
99984.291
99984.336
99984.406
99984.502
99984.623
99984.768
99984.938
99985.131
99985.347
99985.586
99985.845
99986.124
99986.422
99986.736
99987.066
99987.408
99987.761
99988.122
99988.488
99988.856
99989.223
99989.588
99989.947
99990.299
99990.641
99990.973
99991.294
99991.604
99991.902
99992.189
99992.465
99992.731
99992.988
99993.235
99993.475
99993.707
99993.933
99994.151
99994.363
99994.568
99994.767
99994.959
99995.143
99995.319
99995.486
99995.644
99995.791
99995.927
99996.051
99983.945
99983.908
99983.895
99983.914
99983.964
99984.043
99984.15
99984.284
99984.445
99984.631
99984.841
99985.074
99985.327
99985.601
99985.893
99986.2
99986.523
99986.858
99987.203
99987.556
99987.914
99988.276
99988.639
99989
99989.356
99989.707
99990.051
99990.385
99990.709
99991.023
99991.325
99991.616
99991.896
99992.166
99992.425
99992.675
99992.915
99993.148
99993.373
99993.59
99993.8
99994.003
99994.2
99994.389
99994.572
99994.747
99994.914
99995.072
99995.222
99995.361
99995.491
99995.61
99983.582
99983.538
99983.52
99983.54
99983.595
99983.681
99983.799
99983.946
99984.122
99984.323
99984.549
99984.798
99985.067
99985.354
99985.658
99985.976
99986.306
99986.646
99986.995
99987.349
99987.707
99988.066
99988.425
99988.781
99989.132
99989.477
99989.813
99990.141
99990.459
99990.766
99991.062
99991.347
99991.621
99991.885
99992.139
99992.382
99992.617
99992.844
99993.062
99993.272
99993.475
99993.671
99993.86
99994.042
99994.216
99994.383
99994.543
99994.694
99994.836
99994.97
99995.093
99995.207
99983.22
99983.168
99983.145
99983.165
99983.224
99983.318
99983.447
99983.607
99983.798
99984.015
99984.257
99984.522
99984.805
99985.106
99985.422
99985.75
99986.089
99986.435
99986.788
99987.144
99987.502
99987.86
99988.216
99988.568
99988.915
99989.255
99989.586
99989.909
99990.221
99990.523
99990.814
99991.094
99991.364
99991.623
99991.871
99992.11
99992.34
99992.561
99992.774
99992.978
99993.175
99993.365
99993.547
99993.722
99993.89
99994.051
99994.203
99994.348
99994.485
99994.613
99994.732
99994.842
99982.856
99982.794
99982.765
99982.786
99982.85
99982.952
99983.092
99983.267
99983.472
99983.706
99983.965
99984.245
99984.544
99984.859
99985.187
99985.526
99985.873
99986.226
99986.583
99986.942
99987.302
99987.659
99988.014
99988.364
99988.707
99989.043
99989.371
99989.689
99989.997
99990.295
99990.582
99990.858
99991.123
99991.378
99991.622
99991.857
99992.083
99992.299
99992.507
99992.707
99992.899
99993.083
99993.26
99993.43
99993.592
99993.747
99993.894
99994.033
99994.165
99994.288
99994.403
99994.509
99982.485
99982.412
99982.378
99982.4
99982.469
99982.581
99982.733
99982.923
99983.145
99983.396
99983.672
99983.97
99984.285
99984.614
99984.955
99985.305
99985.661
99986.021
99986.383
99986.746
99987.107
99987.465
99987.819
99988.168
99988.509
99988.842
99989.167
99989.482
99989.786
99990.08
99990.364
99990.636
99990.898
99991.15
99991.391
99991.622
99991.844
99992.057
99992.261
99992.457
99992.644
99992.824
99992.997
99993.161
99993.319
99993.469
99993.612
99993.746
99993.874
99993.993
99994.104
99994.207
99982.103
99982.02
99981.981
99982.004
99982.079
99982.202
99982.369
99982.575
99982.816
99983.086
99983.381
99983.696
99984.028
99984.372
99984.727
99985.088
99985.453
99985.821
99986.189
99986.556
99986.92
99987.28
99987.634
99987.981
99988.321
99988.652
99988.974
99989.286
99989.588
99989.88
99990.16
99990.43
99990.689
99990.938
99991.176
99991.404
99991.623
99991.833
99992.034
99992.226
99992.41
99992.586
99992.755
99992.916
99993.069
99993.215
99993.354
99993.485
99993.609
99993.725
99993.833
99993.933
99981.709
99981.615
99981.57
99981.595
99981.679
99981.815
99981.998
99982.223
99982.484
99982.774
99983.09
99983.425
99983.774
99984.135
99984.504
99984.877
99985.253
99985.629
99986.003
99986.375
99986.742
99987.103
99987.458
99987.805
99988.144
99988.474
99988.794
99989.104
99989.403
99989.692
99989.97
99990.238
99990.494
99990.741
99990.976
99991.202
99991.419
99991.626
99991.824
99992.013
99992.195
99992.368
99992.533
99992.691
99992.841
99992.984
99993.119
99993.247
99993.368
99993.481
99993.587
99993.684
99981.299
99981.192
99981.142
99981.171
99981.265
99981.416
99981.619
99981.865
99982.149
99982.463
99982.801
99983.157
99983.526
99983.904
99984.288
99984.674
99985.061
99985.445
99985.827
99986.203
99986.573
99986.937
99987.293
99987.64
99987.978
99988.307
99988.625
99988.934
99989.231
99989.518
99989.794
99990.059
99990.314
99990.558
99990.792
99991.016
99991.23
99991.435
99991.631
99991.818
99991.997
99992.167
99992.33
99992.485
99992.633
99992.773
99992.906
99993.031
99993.149
99993.26
99993.363
99993.459
99980.868
99980.748
99980.695
99980.729
99980.836
99981.006
99981.23
99981.502
99981.812
99982.151
99982.514
99982.893
99983.283
99983.68
99984.08
99984.48
99984.878
99985.272
99985.66
99986.042
99986.416
99986.782
99987.139
99987.486
99987.824
99988.152
99988.469
99988.775
99989.071
99989.356
99989.63
99989.894
99990.146
99990.389
99990.621
99990.843
99991.056
99991.259
99991.453
99991.638
99991.815
99991.984
99992.144
99992.297
99992.443
99992.581
99992.711
99992.834
99992.95
99993.059
99993.161
99993.254
99980.414
99980.28
99980.224
99980.267
99980.389
99980.581
99980.833
99981.133
99981.472
99981.84
99982.23
99982.634
99983.047
99983.464
99983.881
99984.296
99984.706
99985.109
99985.505
99985.892
99986.27
99986.638
99986.997
99987.344
99987.682
99988.008
99988.324
99988.629
99988.923
99989.207
99989.479
99989.741
99989.992
99990.233
99990.463
99990.684
99990.895
99991.096
99991.289
99991.473
99991.648
99991.815
99991.974
99992.126
99992.269
99992.405
99992.534
99992.655
99992.77
99992.877
99992.976
99993.068
99979.932
99979.784
99979.726
99979.78
99979.923
99980.142
99980.424
99980.758
99981.13
99981.531
99981.951
99982.383
99982.82
99983.258
99983.694
99984.124
99984.546
99984.959
99985.362
99985.755
99986.137
99986.507
99986.867
99987.215
99987.552
99987.877
99988.192
99988.495
99988.787
99989.069
99989.34
99989.6
99989.849
99990.088
99990.318
99990.537
99990.747
99990.947
99991.138
99991.321
99991.495
99991.661
99991.819
99991.968
99992.11
99992.246
99992.373
99992.492
99992.606
99992.712
99992.809
99992.9
99979.419
99979.256
99979.198
99979.267
99979.436
99979.687
99980.005
99980.377
99980.787
99981.224
99981.677
99982.139
99982.603
99983.064
99983.518
99983.964
99984.399
99984.822
99985.233
99985.631
99986.017
99986.389
99986.749
99987.097
99987.433
99987.758
99988.071
99988.372
99988.663
99988.943
99989.212
99989.47
99989.718
99989.956
99990.183
99990.402
99990.61
99990.809
99991
99991.181
99991.355
99991.519
99991.676
99991.826
99991.965
99992.1
99992.226
99992.344
99992.456
99992.561
99992.658
99992.749
99978.869
99978.69
99978.636
99978.725
99978.925
99979.214
99979.575
99979.99
99980.443
99980.92
99981.41
99981.904
99982.396
99982.882
99983.357
99983.819
99984.267
99984.7
99985.119
99985.522
99985.91
99986.284
99986.645
99986.993
99987.327
99987.65
99987.961
99988.261
99988.549
99988.827
99989.094
99989.351
99989.597
99989.833
99990.06
99990.277
99990.485
99990.683
99990.872
99991.053
99991.226
99991.389
99991.545
99991.695
99991.833
99991.966
99992.092
99992.21
99992.321
99992.425
99992.521
99992.611
99978.277
99978.082
99978.035
99978.15
99978.388
99978.723
99979.134
99979.599
99980.1
99980.621
99981.151
99981.681
99982.204
99982.715
99983.211
99983.69
99984.151
99984.594
99985.019
99985.427
99985.818
99986.193
99986.554
99986.9
99987.233
99987.554
99987.863
99988.16
99988.446
99988.722
99988.987
99989.242
99989.486
99989.721
99989.947
99990.162
99990.369
99990.566
99990.756
99990.935
99991.107
99991.271
99991.425
99991.574
99991.713
99991.845
99991.97
99992.087
99992.198
99992.301
99992.397
99992.487
99977.638
99977.427
99977.391
99977.539
99977.824
99978.214
99978.683
99979.205
99979.759
99980.33
99980.904
99981.471
99982.026
99982.564
99983.082
99983.578
99984.052
99984.505
99984.936
99985.347
99985.74
99986.116
99986.475
99986.82
99987.151
99987.469
99987.775
99988.07
99988.353
99988.626
99988.889
99989.142
99989.385
99989.618
99989.842
99990.057
99990.263
99990.459
99990.648
99990.828
99990.998
99991.162
99991.316
99991.464
99991.603
99991.735
99991.859
99991.976
99992.086
99992.189
99992.285
99992.374
99976.944
99976.717
99976.699
99976.889
99977.231
99977.686
99978.221
99978.808
99979.423
99980.048
99980.669
99981.278
99981.867
99982.433
99982.972
99983.486
99983.972
99984.433
99984.87
99985.284
99985.678
99986.053
99986.41
99986.752
99987.08
99987.395
99987.698
99987.989
99988.27
99988.54
99988.801
99989.051
99989.292
99989.524
99989.747
99989.96
99990.165
99990.361
99990.548
99990.728
99990.899
99991.062
99991.216
99991.363
99991.502
99991.634
99991.758
99991.875
99991.984
99992.087
99992.183
99992.271
99976.189
99975.946
99975.952
99976.196
99976.607
99977.138
99977.751
99978.412
99979.094
99979.778
99980.451
99981.103
99981.728
99982.322
99982.884
99983.414
99983.912
99984.38
99984.821
99985.237
99985.63
99986.003
99986.358
99986.697
99987.021
99987.332
99987.631
99987.918
99988.196
99988.463
99988.721
99988.968
99989.208
99989.438
99989.659
99989.872
99990.075
99990.271
99990.458
99990.637
99990.807
99990.97
99991.124
99991.271
99991.41
99991.541
99991.666
99991.782
99991.892
99991.994
99992.09
99992.178
99975.362
99975.105
99975.146
99975.457
99975.951
99976.573
99977.275
99978.019
99978.775
99979.525
99980.253
99980.951
99981.612
99982.235
99982.819
99983.364
99983.872
99984.347
99984.79
99985.206
99985.597
99985.967
99986.318
99986.652
99986.972
99987.279
99987.573
99987.857
99988.13
99988.393
99988.649
99988.894
99989.131
99989.359
99989.578
99989.79
99989.992
99990.188
99990.374
99990.553
99990.723
99990.886
99991.04
99991.187
99991.326
99991.457
99991.581
99991.698
99991.808
99991.91
99992.006
99992.094
99974.453
99974.184
99974.274
99974.668
99975.264
99975.991
99976.795
99977.633
99978.472
99979.292
99980.079
99980.824
99981.523
99982.175
99982.779
99983.338
99983.855
99984.333
99984.778
99985.192
99985.58
99985.945
99986.29
99986.619
99986.933
99987.235
99987.524
99987.803
99988.072
99988.332
99988.584
99988.826
99989.06
99989.286
99989.504
99989.715
99989.917
99990.111
99990.297
99990.476
99990.646
99990.808
99990.963
99991.11
99991.249
99991.38
99991.504
99991.621
99991.731
99973.451
99973.171
99973.327
99973.826
99974.544
99975.395
99976.317
99977.259
99978.189
99979.085
99979.934
99980.728
99981.465
99982.144
99982.767
99983.337
99983.86
99984.34
99984.783
99985.194
99985.576
99985.935
99986.274
99986.596
99986.904
99987.2
99987.483
99987.757
99988.021
99988.277
99988.526
99988.764
99988.996
99989.221
99989.437
99989.646
99989.848
99990.041
99990.227
99990.405
99990.575
99990.738
99990.892
99991.039
99991.178
99991.31
99991.434
99991.551
99991.661
99972.338
99972.054
99972.3
99972.929
99973.792
99974.789
99975.844
99976.903
99977.932
99978.91
99979.823
99980.667
99981.44
99982.144
99982.784
99983.363
99983.889
99984.368
99984.807
99985.211
99985.587
99985.938
99986.269
99986.583
99986.884
99987.173
99987.45
99987.719
99987.977
99988.228
99988.473
99988.709
99988.939
99989.161
99989.376
99989.584
99989.784
99989.977
99990.162
99990.34
99990.51
99990.673
99990.827
99990.974
99991.114
99991.246
99991.37
99991.487
99991.597
99971.1
99970.818
99971.182
99971.972
99973.012
99974.178
99975.385
99976.575
99977.712
99978.775
99979.754
99980.647
99981.454
99982.18
99982.831
99983.416
99983.942
99984.416
99984.848
99985.244
99985.61
99985.953
99986.274
99986.579
99986.873
99987.153
99987.423
99987.685
99987.938
99988.185
99988.426
99988.66
99988.887
99989.107
99989.32
99989.526
99989.726
99989.918
99990.103
99990.28
99990.45
99990.613
99990.768
99990.915
99991.055
99991.187
99991.312
99991.429
99991.539
99969.714
99969.442
99969.968
99970.956
99972.207
99973.569
99974.949
99976.284
99977.536
99978.689
99979.734
99980.672
99981.509
99982.252
99982.911
99983.497
99984.018
99984.485
99984.906
99985.291
99985.646
99985.978
99986.288
99986.584
99986.869
99987.141
99987.402
99987.657
99987.906
99988.149
99988.385
99988.616
99988.84
99989.058
99989.269
99989.474
99989.672
99989.864
99990.048
99990.226
99990.396
99990.558
99990.713
99990.861
99991.001
99991.133
99991.258
99991.376
99991.486
99968.158
99967.907
99968.648
99969.88
99971.383
99972.974
99974.55
99976.043
99977.42
99978.663
99979.771
99980.75
99981.61
99982.364
99983.025
99983.605
99984.117
99984.572
99984.98
99985.352
99985.693
99986.012
99986.312
99986.597
99986.87
99987.132
99987.386
99987.636
99987.879
99988.117
99988.35
99988.576
99988.798
99989.013
99989.223
99989.426
99989.624
99989.814
99989.998
99990.175
99990.345
99990.508
99990.663
99990.811
99990.951
99991.084
99991.209
99991.327
99991.438
99966.403
99966.187
99967.215
99968.746
99970.55
99972.406
99974.202
99975.87
99977.375
99978.708
99979.875
99980.887
99981.761
99982.517
99983.172
99983.741
99984.239
99984.678
99985.069
99985.424
99985.751
99986.056
99986.343
99986.614
99986.875
99987.129
99987.377
99987.62
99987.857
99988.09
99988.318
99988.541
99988.76
99988.973
99989.181
99989.383
99989.579
99989.769
99989.953
99990.13
99990.3
99990.462
99990.618
99990.766
99990.907
99991.04
99991.165
99991.283
99991.394
99964.42
99964.251
99965.664
99967.558
99969.722
99971.883
99973.925
99975.777
99977.413
99978.833
99980.051
99981.087
99981.965
99982.713
99983.353
99983.904
99984.382
99984.8
99985.171
99985.509
99985.818
99986.106
99986.377
99986.635
99986.887
99987.133
99987.373
99987.608
99987.84
99988.067
99988.291
99988.511
99988.726
99988.937
99989.143
99989.344
99989.539
99989.728
99989.911
99990.088
99990.258
99990.42
99990.576
99990.725
99990.866
99990.999
99991.125
99991.243
99991.354
99962.172
99962.064
99963.991
99966.326
99968.917
99971.425
99973.735
99975.78
99977.546
99979.045
99980.304
99981.352
99982.222
99982.951
99983.567
99984.092
99984.544
99984.937
99985.287
99985.602
99985.891
99986.161
99986.416
99986.663
99986.905
99987.141
99987.372
99987.6
99987.826
99988.048
99988.268
99988.484
99988.696
99988.905
99989.109
99989.308
99989.502
99989.691
99989.874
99990.05
99990.22
99990.382
99990.538
99990.687
99990.829
99990.962
99991.088
99991.207
99991.318
99959.623
99959.583
99962.198
99965.063
99968.157
99971.053
99973.651
99975.893
99977.783
99979.349
99980.635
99981.683
99982.533
99983.231
99983.812
99984.303
99984.723
99985.088
99985.411
99985.702
99985.969
99986.219
99986.461
99986.696
99986.926
99987.152
99987.375
99987.596
99987.815
99988.033
99988.248
99988.46
99988.67
99988.876
99989.079
99989.277
99989.47
99989.657
99989.839
99990.015
99990.185
99990.348
99990.504
99990.653
99990.795
99990.929
99991.055
99991.174
99991.285
99956.735
99956.756
99960.292
99963.787
99967.467
99970.792
99973.693
99976.13
99978.131
99979.748
99981.046
99982.078
99982.892
99983.549
99984.086
99984.534
99984.918
99985.25
99985.542
99985.806
99986.049
99986.284
99986.511
99986.732
99986.95
99987.166
99987.381
99987.595
99987.808
99988.02
99988.231
99988.44
99988.647
99988.851
99989.052
99989.248
99989.44
99989.627
99989.809
99989.984
99990.154
99990.317
99990.473
99990.622
99990.764
99990.899
99991.026
99991.145
99991.256
99953.472
99953.524
99958.285
99962.522
99966.877
99970.67
99973.883
99976.505
99978.598
99980.245
99981.535
99982.534
99983.298
99983.9
99984.383
99984.784
99985.124
99985.418
99985.677
99985.911
99986.136
99986.353
99986.564
99986.771
99986.977
99987.183
99987.39
99987.597
99987.804
99988.011
99988.218
99988.424
99988.628
99988.829
99989.028
99989.223
99989.414
99989.6
99989.781
99989.957
99990.126
99990.289
99990.445
99990.595
99990.737
99990.872
99990.999
99991.118
99991.229
99949.803
99949.818
99956.203
99961.301
99966.426
99970.717
99974.242
99977.03
99979.188
99980.838
99982.098
99983.046
99983.743
99984.28
99984.703
99985.045
99985.337
99985.588
99985.812
99986.023
99986.226
99986.424
99986.618
99986.812
99987.006
99987.203
99987.401
99987.601
99987.802
99988.005
99988.208
99988.41
99988.611
99988.811
99989.008
99989.202
99989.392
99989.577
99989.757
99989.932
99990.101
99990.264
99990.42
99990.57
99990.713
99990.847
99990.974
99991.094
99991.205
99945.71
99945.555
99954.078
99960.167
99966.158
99970.969
99974.79
99977.712
99979.901
99981.523
99982.73
99983.606
99984.219
99984.684
99985.037
99985.314
99985.551
99985.758
99985.952
99986.138
99986.318
99986.495
99986.673
99986.853
99987.037
99987.224
99987.414
99987.608
99987.804
99988.001
99988.2
99988.4
99988.598
99988.796
99988.991
99989.183
99989.372
99989.556
99989.736
99989.911
99990.079
99990.242
99990.398
99990.548
99941.186
99940.637
99951.96
99959.179
99966.127
99971.461
99975.546
99978.558
99980.734
99982.293
99983.421
99984.208
99984.721
99985.102
99985.378
99985.583
99985.763
99985.932
99986.095
99986.252
99986.409
99986.567
99986.729
99986.896
99987.068
99987.246
99987.429
99987.616
99987.807
99988.001
99988.196
99988.392
99988.588
99988.783
99988.977
99989.168
99989.356
99989.539
99989.718
99989.892
99990.061
99990.223
99990.379
99990.529
99936.208
99934.948
99949.92
99958.418
99966.394
99972.228
99976.522
99979.566
99981.679
99983.134
99984.161
99984.847
99985.237
99985.524
99985.719
99985.845
99985.976
99986.108
99986.236
99986.365
99986.498
99986.638
99986.784
99986.939
99987.101
99987.27
99987.446
99987.627
99987.813
99988.002
99988.194
99988.387
99988.581
99988.774
99988.966
99989.156
99989.342
99989.525
99989.703
99989.877
99990.045
99990.207
99990.363
99990.512
99930.743
99928.386
99948.062
99957.989
99967.025
99973.3
99977.724
99980.731
99982.717
99984.03
99984.94
99985.508
99985.761
99985.939
99986.049
99986.104
99986.19
99986.28
99986.374
99986.475
99986.586
99986.707
99986.839
99986.982
99987.134
99987.296
99987.465
99987.64
99987.821
99988.006
99988.195
99988.385
99988.576
99988.768
99988.958
99989.146
99989.332
99989.514
99989.691
99989.864
99990.031
99990.193
99990.349
99990.498
99925.061
99920.967
99946.53
99958.019
99968.086
99974.699
99979.149
99982.035
99983.832
99984.96
99985.74
99986.174
99986.292
99986.345
99986.356
99986.364
99986.399
99986.446
99986.506
99986.581
99986.67
99986.775
99986.894
99987.025
99987.168
99987.322
99987.485
99987.655
99987.832
99988.013
99988.198
99988.386
99988.575
99988.765
99988.953
99989.14
99989.325
99989.505
99989.682
99989.854
99990.021
99990.183
99990.338
99990.487
99920.309
99912.845
99945.468
99958.65
99969.63
99976.432
99980.78
99983.451
99985.012
99985.896
99986.531
99986.851
99986.808
99986.724
99986.66
99986.616
99986.598
99986.603
99986.632
99986.681
99986.751
99986.84
99986.946
99987.068
99987.202
99987.349
99987.506
99987.672
99987.844
99988.022
99988.204
99988.39
99988.577
99988.764
99988.952
99989.137
99989.32
99989.5
99989.676
99989.847
99990.014
99990.174
99990.329
99990.478
99915.796
99903.662
99944.987
99960.04
99971.698
99978.48
99982.579
99984.95
99986.224
99986.813
99987.313
99987.526
99987.278
99987.082
99986.957
99986.853
99986.784
99986.751
99986.75
99986.777
99986.829
99986.903
99986.998
99987.11
99987.237
99987.377
99987.529
99987.69
99987.859
99988.034
99988.213
99988.396
99988.581
99988.767
99988.953
99989.137
99989.319
99989.498
99989.673
99989.843
99990.009
99990.169
99990.323
99990.471
99895.537
99891.702
99945.447
99962.438
99974.328
99980.795
99984.502
99986.499
99987.415
99987.676
99988.104
99988.182
99987.69
99987.426
99987.236
99987.072
99986.957
99986.889
99986.861
99986.867
99986.902
99986.963
99987.048
99987.151
99987.272
99987.407
99987.554
99987.711
99987.876
99988.048
99988.225
99988.405
99988.589
99988.773
99988.957
99989.14
99989.321
99989.498
99989.672
99989.842
99990.007
99990.166
99990.32
99990.467
99819.697
99878.405
99948.271
99966.206
99977.581
99983.352
99986.489
99988.04
99988.542
99988.513
99988.86
99988.791
99988.059
99987.754
99987.491
99987.273
99987.115
99987.015
99986.963
99986.95
99986.971
99987.021
99987.096
99987.193
99987.307
99987.437
99987.58
99987.733
99987.896
99988.065
99988.239
99988.418