/*--------------------------------*- C++ -*----------------------------------*\
| =========                 |                                                 |
| \\      /  F ield         | OpenFOAM: The Open Source CFD Toolbox           |
|  \\    /   O peration     | Version:  2312                                  |
|   \\  /    A nd           | Website:  www.openfoam.com                      |
|    \\/     M anipulation  |                                                 |
\*---------------------------------------------------------------------------*/
FoamFile
{
    version     2.0;
    format      ascii;
    arch        "LSB;label=32;scalar=64";
    class       volVectorField;
    location    "0.07";
    object      U;
}
// * * * * * * * * * * * * * * * * * * * * * * * * * * * * * * * * * * * * * //

dimensions      [0 1 -1 0 0 0 0];

internalField   nonuniform List<vector> 
3221
(
(1.0950263 -0.037286695 0)
(1.0716046 -0.092918185 0)
(1.0402871 -0.1336799 0)
(1.0040893 -0.1627024 0)
(0.96541589 -0.18205894 0)
(0.92553446 -0.1933975 0)
(0.88538118 -0.19815 0)
(0.84587052 -0.19745892 0)
(0.80808784 -0.19206606 0)
(0.77350805 -0.18213233 0)
(0.74446539 -0.1670198 0)
(0.72507757 -0.14499764 0)
(0.72181289 -0.11260646 0)
(0.7540674 -0.058838231 0)
(0.82831734 0.052217881 0)
(0.77668353 0.18314922 0)
(0.6899987 0.28056618 0)
(0.58199813 0.36117393 0)
(0.50640455 0.42400918 0)
(0.41868463 0.46590269 0)
(0.36441125 0.49432692 0)
(0.3095983 0.51290611 0)
(0.27225027 0.52447878 0)
(0.23693118 0.53140905 0)
(0.21052272 0.53531906 0)
(0.18704699 0.53678071 0)
(0.17005543 0.53638358 0)
(0.1550375 0.53418033 0)
(0.14365843 0.53043632 0)
(0.13397834 0.52521087 0)
(0.12651659 0.51872118 0)
(0.12030575 0.51106807 0)
(0.1155265 0.5024158 0)
(0.11160718 0.49284422 0)
(0.10859053 0.48245375 0)
(0.10614062 0.47128568 0)
(0.10423376 0.45937807 0)
(0.1026654 0.44672472 0)
(0.10138613 0.43330372 0)
(0.10025161 0.41904922 0)
(0.099179372 0.4038635 0)
(0.098017094 0.38757915 0)
(0.096575909 0.3699534 0)
(0.094530497 0.3505918 0)
(0.091303122 0.32887539 0)
(0.085768695 0.30378232 0)
(0.075712502 0.27355686 0)
(0.056597771 0.2351658 0)
(0.018884638 0.18313051 0)
(-0.056890786 0.10813978 0)
(-0.1731634 -0.0051318045 0)
(-0.23357599 -0.16200148 0)
(1.1002657 -0.00063425667 0)
(1.0846341 -0.019925842 0)
(1.0595462 -0.041691974 0)
(1.02763 -0.059569474 0)
(0.99220328 -0.071819701 0)
(0.95520085 -0.078527913 0)
(0.91786459 -0.080453881 0)
(0.88123953 -0.078582919 0)
(0.84631785 -0.07386608 0)
(0.81420721 -0.067210446 0)
(0.78616094 -0.059512662 0)
(0.76367147 -0.052026884 0)
(0.74816694 -0.046957535 0)
(0.74135877 -0.048139685 0)
(0.74425329 -0.065542772 0)
(0.72760853 -0.11686406 0)
(0.68611745 -0.15733821 0)
(0.63803215 -0.17916842 0)
(0.59218075 -0.19787586 0)
(0.54834234 -0.20049329 0)
(0.51482144 -0.19963732 0)
(0.48748104 -0.19168363 0)
(0.46671431 -0.18104634 0)
(0.45089933 -0.16698722 0)
(0.43870967 -0.15113892 0)
(0.42727663 -0.13335864 0)
(0.41575305 -0.11529681 0)
(0.40483962 -0.097242909 0)
(0.39443105 -0.079723183 0)
(0.38465598 -0.063087853 0)
(0.37568666 -0.047563663 0)
(0.36751294 -0.033314181 0)
(0.36008201 -0.020443924 0)
(0.35337667 -0.0090224846 0)
(0.34728949 0.00091805181 0)
(0.34175285 0.0093474852 0)
(0.33665379 0.016260093 0)
(0.33190746 0.021639959 0)
(0.32739063 0.025479395 0)
(0.32299207 0.027753313 0)
(0.31855377 0.028434853 0)
(0.31388813 0.027479949 0)
(0.30873307 0.024836355 0)
(0.30270026 0.020463354 0)
(0.29525516 0.014339913 0)
(0.28555118 0.0065935576 0)
(0.27239928 -0.002355386 0)
(0.25410474 -0.01129814 0)
(0.22850207 -0.017307391 0)
(0.19421441 -0.013499276 0)
(0.1575308 0.015547043 0)
(0.14766722 0.076981639 0)
(1.1008311 0.012181842 0)
(1.0924203 0.013796744 0)
(1.074877 0.0065306544 0)
(1.0503697 -0.0019139812 0)
(1.0216529 -0.0082497984 0)
(0.99063532 -0.011479921 0)
(0.95866834 -0.011696603 0)
(0.92683725 -0.0095075803 0)
(0.89605801 -0.0057257497 0)
(0.86715474 -0.001223546 0)
(0.84085975 0.0030575173 0)
(0.81777135 0.0060656586 0)
(0.7982123 0.0064460716 0)
(0.78183491 0.0025906263 0)
(0.766914 -0.0078486987 0)
(0.74861146 -0.027339778 0)
(0.72447176 -0.044286319 0)
(0.69653292 -0.054590294 0)
(0.66702716 -0.061483037 0)
(0.63826006 -0.062490611 0)
(0.61260023 -0.061489376 0)
(0.59039551 -0.059344745 0)
(0.57177042 -0.057584935 0)
(0.55601099 -0.05680419 0)
(0.54268754 -0.0577281 0)
(0.53073436 -0.060317436 0)
(0.51986593 -0.063851678 0)
(0.510031 -0.068027765 0)
(0.5012609 -0.072678989 0)
(0.49341042 -0.077589011 0)
(0.4865582 -0.082715934 0)
(0.48058991 -0.088031068 0)
(0.47545414 -0.093510166 0)
(0.47102994 -0.099167248 0)
(0.46722158 -0.1050054 0)
(0.46389332 -0.11104968 0)
(0.46093042 -0.11731517 0)
(0.45819638 -0.1238342 0)
(0.45556219 -0.13063212 0)
(0.45287904 -0.1377433 0)
(0.44998895 -0.14519554 0)
(0.44669663 -0.15300806 0)
(0.44277674 -0.1611777 0)
(0.43793156 -0.16965605 0)
(0.43181339 -0.1783045 0)
(0.42398237 -0.18685308 0)
(0.41395018 -0.19474784 0)
(0.40127074 -0.20106618 0)
(0.38577077 -0.20421832 0)
(0.36832768 -0.20180241 0)
(0.35234682 -0.19092279 0)
(0.34329332 -0.17211267 0)
(1.1016286 0.020577475 0)
(1.0979358 0.037587265 0)
(1.0869247 0.04275227 0)
(1.0698009 0.04348283 0)
(1.0484647 0.043488284 0)
(1.0244325 0.044348814 0)
(0.99889462 0.04648012 0)
(0.972832 0.049666124 0)
(0.94704124 0.053375761 0)
(0.9221692 0.056960916 0)
(0.89871527 0.059725446 0)
(0.87699322 0.060964462 0)
(0.85706194 0.059943552 0)
(0.83857528 0.055951175 0)
(0.82060378 0.048469497 0)
(0.8016195 0.037660887 0)
(0.78068664 0.025679401 0)
(0.75766216 0.013902687 0)
(0.73346615 0.003058223 0)
(0.70964924 -0.006428148 0)
(0.6872182 -0.015103316 0)
(0.66689445 -0.023403915 0)
(0.64909367 -0.031918889 0)
(0.63380397 -0.040848296 0)
(0.62074874 -0.050442899 0)
(0.60952755 -0.060585564 0)
(0.59982372 -0.071092292 0)
(0.59138988 -0.081768656 0)
(0.58407321 -0.092595931 0)
(0.57775842 -0.10347922 0)
(0.57237376 -0.11443417 0)
(0.56784358 -0.12546047 0)
(0.56408498 -0.13658185 0)
(0.56100639 -0.14780798 0)
(0.5585022 -0.15915636 0)
(0.55645896 -0.17063001 0)
(0.55475474 -0.18223338 0)
(0.55326385 -0.19396099 0)
(0.55185393 -0.20580576 0)
(0.55038691 -0.21774978 0)
(0.54871568 -0.22976666 0)
(0.54667812 -0.24180934 0)
(0.54410111 -0.25380249 0)
(0.54078892 -0.26562677 0)
(0.53654159 -0.2770892 0)
(0.53116113 -0.28790957 0)
(0.52449317 -0.29766073 0)
(0.51649979 -0.30576173 0)
(0.50739534 -0.31145219 0)
(0.49788862 -0.31389561 0)
(0.48940803 -0.3126018 0)
(0.48378621 -0.30845164 0)
(1.1022015 0.025635576 0)
(1.1019604 0.05345457 0)
(1.0961643 0.068325265 0)
(1.0853532 0.076900354 0)
(1.070715 0.082802185 0)
(1.0533259 0.087813407 0)
(1.034113 0.092633138 0)
(1.0138731 0.097326001 0)
(0.99326445 0.10161385 0)
(0.97280819 0.10508122 0)
(0.95288433 0.1072712 0)
(0.93371464 0.10775036 0)
(0.91533713 0.10612871 0)
(0.89756032 0.10211024 0)
(0.87995968 0.095579606 0)
(0.86195302 0.086777762 0)
(0.84311861 0.076440615 0)
(0.82334925 0.065305116 0)
(0.80299214 0.054171106 0)
(0.78272334 0.043303079 0)
(0.76322094 0.032705248 0)
(0.74513276 0.022257341 0)
(0.72881244 0.011718701 0)
(0.7143759 0.00087183297 0)
(0.70182149 -0.010453807 0)
(0.69098293 -0.022297976 0)
(0.68165297 -0.034648918 0)
(0.67363336 -0.047443343 0)
(0.66676559 -0.06062465 0)
(0.66092396 -0.074135293 0)
(0.65601392 -0.087936884 0)
(0.65194949 -0.10200273 0)
(0.64864879 -0.11631324 0)
(0.64602289 -0.13085112 0)
(0.64397574 -0.14559894 0)
(0.6424022 -0.16053473 0)
(0.64119063 -0.17563265 0)
(0.64022378 -0.19085987 0)
(0.63938077 -0.20617753 0)
(0.63853702 -0.22153627 0)
(0.63756628 -0.23687542 0)
(0.63633892 -0.25211596 0)
(0.63472737 -0.26715449 0)
(0.63260641 -0.28185628 0)
(0.62986737 -0.29603996 0)
(0.62642994 -0.30947632 0)
(0.62227166 -0.32187118 0)
(0.61746753 -0.3328807 0)
(0.61224605 -0.34213003 0)
(0.6070519 -0.34930243 0)
(0.60255716 -0.35430936 0)
(0.59949843 -0.35753477 0)
(1.1026376 0.028444435 0)
(1.1049176 0.063584774 0)
(1.1030807 0.0857346 0)
(1.097266 0.10067128 0)
(1.0881501 0.11171416 0)
(1.076441 0.12063134 0)
(1.0628088 0.12823563 0)
(1.0478617 0.13475581 0)
(1.0321197 0.14009534 0)
(1.0160012 0.144018 0)
(0.99981568 0.14625251 0)
(0.98375522 0.14655811 0)
(0.9678894 0.14475233 0)
(0.95215835 0.14074352 0)
(0.9363939 0.13456846 0)
(0.92037268 0.12643702 0)
(0.90392776 0.11674677 0)
(0.88703638 0.10596218 0)
(0.86987607 0.094564468 0)
(0.8528027 0.08286218 0)
(0.83624521 0.071022092 0)
(0.82063005 0.059067186 0)
(0.8062727 0.046898117 0)
(0.79335749 0.034433468 0)
(0.78195132 0.02157426 0)
(0.7720113 0.0082651147 0)
(0.76343432 -0.0055087891 0)
(0.7560926 -0.019723564 0)
(0.74986068 -0.034341148 0)
(0.74462476 -0.049314015 0)
(0.74028791 -0.064601226 0)
(0.73676234 -0.080165839 0)
(0.73396471 -0.09597856 0)
(0.73181006 -0.11201177 0)
(0.7302088 -0.12823984 0)
(0.72906597 -0.14463367 0)
(0.72828108 -0.16116126 0)
(0.7277501 -0.17778351 0)
(0.7273665 -0.19445506 0)
(0.7270234 -0.2111201 0)
(0.72661571 -0.22771227 0)
(0.72604184 -0.24414996 0)
(0.72520862 -0.26033403 0)
(0.72403491 -0.27614406 0)
(0.72246134 -0.29143435 0)
(0.72046039 -0.30603528 0)
(0.71805249 -0.31975354 0)
(0.71532348 -0.33238735 0)
(0.71244654 -0.34374895 0)
(0.70968756 -0.35371193 0)
(0.7073898 -0.36227919 0)
(0.7058995 -0.36964853 0)
(1.102999 0.029877591 0)
(1.1071199 0.069924317 0)
(1.1082137 0.097486295 0)
(1.1061923 0.11750021 0)
(1.1013953 0.13291274 0)
(1.0942613 0.14537181 0)
(1.0852536 0.15569968 0)
(1.0748201 0.16420098 0)
(1.0633616 0.17088851 0)
(1.0512128 0.17564758 0)
(1.0386326 0.17833573 0)
(1.0257997 0.17884131 0)
(1.0128127 0.1771088 0)
(0.99969397 0.17315641 0)
(0.98640827 0.16708853 0)
(0.97289419 0.15910482 0)
(0.95911406 0.14949416 0)
(0.94509838 0.13859319 0)
(0.93097648 0.12674356 0)
(0.91697312 0.11422726 0)
(0.90336893 0.10124091 0)
(0.89045489 0.087890788 0)
(0.87847884 0.074202496 0)
(0.86761734 0.060169187 0)
(0.85796344 0.045762241 0)
(0.84953412 0.030963253 0)
(0.84228901 0.015770439 0)
(0.83615253 0.00020362675 0)
(0.83103471 -0.015704632 0)
(0.8268425 -0.031912972 0)
(0.82348648 -0.04837917 0)
(0.82088147 -0.065063261 0)
(0.81894549 -0.081929629 0)
(0.81759642 -0.098945332 0)
(0.81675008 -0.11607928 0)
(0.81631929 -0.13329929 0)
(0.81621379 -0.15057112 0)
(0.81634145 -0.16785551 0)
(0.8166096 -0.18510788 0)
(0.81692718 -0.20227544 0)
(0.81720713 -0.21929703 0)
(0.81736896 -0.23610043 0)
(0.81734279 -0.25260191 0)
(0.81707317 -0.26870497 0)
(0.81652551 -0.28430053 0)
(0.81569238 -0.29926961 0)
(0.81460175 -0.31348839 0)
(0.81332311 -0.32683897 0)
(0.811975 -0.33922537 0)
(0.81071824 -0.35059812 0)
(0.80973901 -0.36097945 0)
(0.80921893 -0.37048351 0)
(1.1033203 0.030513742 0)
(1.1088163 0.073881784 0)
(1.112073 0.10551343 0)
(1.1128847 0.12959522 0)
(1.1113838 0.14870098 0)
(1.1078282 0.16431676 0)
(1.1025314 0.17721801 0)
(1.0958198 0.18772774 0)
(1.0880007 0.19591416 0)
(1.0793433 0.20173609 0)
(1.0700681 0.20513356 0)
(1.0603426 0.20607818 0)
(1.0502825 0.20459329 0)
(1.0399563 0.20076199 0)
(1.029398 0.19472821 0)
(1.018626 0.18669426 0)
(1.0076683 0.17691192 0)
(0.99658642 0.16566156 0)
(0.9854916 0.15322741 0)
(0.97454626 0.13986504 0)
(0.96394738 0.12578182 0)
(0.95390259 0.11112695 0)
(0.94459953 0.095995172 0)
(0.93618524 0.08044194 0)
(0.92875274 0.06449808 0)
(0.9223407 0.048187063 0)
(0.91694071 0.031533693 0)
(0.91250978 0.014570768 0)
(0.90898335 -0.0026623734 0)
(0.9062866 -0.020121155 0)
(0.90434098 -0.03776075 0)
(0.90306624 -0.055537004 0)
(0.90238334 -0.073409016 0)
(0.90221315 -0.091338589 0)
(0.90247574 -0.10928998 0)
(0.90309003 -0.12722778 0)
(0.90397377 -0.14511612 0)
(0.90504456 -0.16291624 0)
(0.90622108 -0.180586 0)
(0.90742498 -0.19807774 0)
(0.90858307 -0.2153383 0)
(0.90962974 -0.23230732 0)
(0.91051018 -0.2489179 0)
(0.91118335 -0.26509619 0)
(0.91162615 -0.2807635 0)
(0.91183664 -0.2958386 0)
(0.9118382 -0.31024309 0)
(0.91168095 -0.32390845 0)
(0.91144306 -0.33678622 0)
(0.91122264 -0.34885995 0)
(0.91112807 -0.3601554 0)
(0.91125974 -0.37074638 0)
(1.1036243 0.030715051 0)
(1.1101932 0.076396474 0)
(1.1150742 0.11116502 0)
(1.1180107 0.13855719 0)
(1.1190175 0.16080131 0)
(1.1182395 0.17921232 0)
(1.1158905 0.1944925 0)
(1.1122119 0.20694979 0)
(1.1074439 0.2166723 0)
(1.1018076 0.22365808 0)
(1.0954941 0.22789658 0)
(1.0886605 0.22941149 0)
(1.0814301 0.22827601 0)
(1.073895 0.22461467 0)
(1.066125 0.21859892 0)
(1.0581779 0.21044015 0)
(1.0501141 0.2003805 0)
(1.0420094 0.18867938 0)
(1.0339638 0.17559814 0)
(1.0261043 0.16138165 0)
(1.0185763 0.14624465 0)
(1.0115314 0.13036317 0)
(1.0051097 0.11387337 0)
(0.99942583 0.096877688 0)
(0.99455848 0.079452802 0)
(0.99054745 0.061660561 0)
(0.98739569 0.043554917 0)
(0.98507604 0.025188468 0)
(0.98354012 0.0066135162 0)
(0.9827247 -0.012116569 0)
(0.98255878 -0.030950461 0)
(0.98296833 -0.049838364 0)
(0.98387756 -0.068733931 0)
(0.9852101 -0.087593966 0)
(0.98688945 -0.10637843 0)
(0.98883912 -0.12504896 0)
(0.99098299 -0.14356824 0)
(0.99324619 -0.1618981 0)
(0.99555617 -0.17999913 0)
(0.99784428 -0.19782891 0)
(1.0000476 -0.21534223 0)
(1.002111 -0.23248995 0)
(1.0039893 -0.24921997 0)
(1.0056496 -0.26547729 0)
(1.0070736 -0.28120625 0)
(1.0082597 -0.29635246 0)
(1.0092241 -0.31086711 0)
(1.0100004 -0.32471131 0)
(1.0106394 -0.33786227 0)
(1.0112031 -0.35031945 0)
(1.0117555 -0.3621084 0)
(1.0123564 -0.3732824 0)
(1.103927 0.030706346 0)
(1.1113831 0.078082984 0)
(1.1175257 0.11535627 0)
(1.122088 0.14550507 0)
(1.1250259 0.17044729 0)
(1.1264207 0.19133252 0)
(1.1264252 0.20878042 0)
(1.1252268 0.22306655 0)
(1.1230217 0.23427781 0)
(1.119998 0.2424295 0)
(1.1163266 0.24753887 0)
(1.1121555 0.24966179 0)
(1.1076099 0.24890384 0)
(1.1027932 0.24541805 0)
(1.0977918 0.2393973 0)
(1.092682 0.23106508 0)
(1.0875373 0.22066625 0)
(1.0824365 0.20845682 0)
(1.0774685 0.19469314 0)
(1.0727343 0.1796202 0)
(1.068343 0.16346199 0)
(1.0644048 0.14641465 0)
(1.0610211 0.12864387 0)
(1.0582754 0.11028677 0)
(1.0562259 0.091455855 0)
(1.0549023 0.072245635 0)
(1.0543062 0.052737579 0)
(1.0544142 0.033005492 0)
(1.0551835 0.013117535 0)
(1.0565572 -0.0068621704 0)
(1.0584693 -0.02687304 0)
(1.0608489 -0.046858629 0)
(1.0636225 -0.066767099 0)
(1.066716 -0.086550717 0)
(1.0700554 -0.10616587 0)
(1.0735678 -0.12557192 0)
(1.0771814 -0.14473073 0)
(1.0808273 -0.16360512 0)
(1.0844395 -0.18215853 0)
(1.0879569 -0.20035367 0)
(1.0913242 -0.21815265 0)
(1.0944936 -0.23551621 0)
(1.0974267 -0.25240463 0)
(1.1000955 -0.26877791 0)
(1.1024841 -0.28459765 0)
(1.1045893 -0.29982852 0)
(1.1064211 -0.31444134 0)
(1.1080019 -0.32841574 0)
(1.1093646 -0.34174383 0)
(1.1105483 -0.35443338 0)
(1.1115945 -0.36650938 0)
(1.1125393 -0.37801359 0)
(1.1042395 0.030626147 0)
(1.1124763 0.079341323 0)
(1.1196433 0.11870257 0)
(1.1254881 0.1512109 0)
(1.1299469 0.17850827 0)
(1.1330717 0.20159052 0)
(1.1349837 0.22099417 0)
(1.1358408 0.23695512 0)
(1.135814 0.24954792 0)
(1.1350723 0.25879257 0)
(1.133774 0.26472127 0)
(1.132061 0.26741036 0)
(1.130058 0.26698787 0)
(1.1278724 0.26362843 0)
(1.1255971 0.25754348 0)
(1.123314 0.24897048 0)
(1.1210988 0.23816376 0)
(1.1190255 0.22538544 0)
(1.1171695 0.21089699 0)
(1.1156088 0.19495072 0)
(1.1144227 0.17778263 0)
(1.1136873 0.15960685 0)
(1.1134704 0.14061268 0)
(1.1138259 0.12096453 0)
(1.1147883 0.10080357 0)
(1.1163714 0.080251582 0)
(1.118567 0.059414326 0)
(1.1213472 0.038385605 0)
(1.1246678 0.017249454 0)
(1.128472 -0.0039177166 0)
(1.132695 -0.025046421 0)
(1.1372664 -0.046073337 0)
(1.1421136 -0.06694138 0)
(1.1471637 -0.087599 0)
(1.1523443 -0.10799997 0)
(1.1575847 -0.12810235 0)
(1.162817 -0.14786803 0)
(1.1679765 -0.16726147 0)
(1.1730026 -0.18624932 0)
(1.1778399 -0.20479933 0)
(1.1824393 -0.22288038 0)
(1.1867588 -0.24046188 0)
(1.190765 -0.25751446 0)
(1.1944336 -0.27401011 0)
(1.1977502 -0.28992362 0)
(1.200711 -0.30523353 0)
(1.2033218 -0.31992424 0)
(1.2055973 -0.33398765 0)
(1.2075598 -0.34742525 0)
(1.2092362 -0.36024979 0)
(1.2106531 -0.37248563 0)
(1.2118361 -0.38416841 0)
(1.1045697 0.030560478 0)
(1.113533 0.080434932 0)
(1.1215735 0.12162205 0)
(1.1284679 0.15621175 0)
(1.1341595 0.18560096 0)
(1.1386953 0.21064474 0)
(1.142187 0.23180043 0)
(1.1447819 0.2492628 0)
(1.1466414 0.2630896 0)
(1.1479268 0.27329952 0)
(1.1487909 0.27993338 0)
(1.149373 0.28308209 0)
(1.1497969 0.28289146 0)
(1.1501701 0.27955488 0)
(1.1505858 0.27330166 0)
(1.1511241 0.26438543 0)
(1.1518555 0.25307451 0)
(1.1528435 0.23964324 0)
(1.154147 0.22436457 0)
(1.1558213 0.20750319 0)
(1.1579174 0.18930968 0)
(1.1604809 0.17001587 0)
(1.1635481 0.14983177 0)
(1.1671435 0.12894465 0)
(1.171277 0.10751939 0)
(1.1759419 0.085700606 0)
(1.1811153 0.06361487 0)
(1.1867588 0.041373745 0)
(1.1928213 0.019075787 0)
(1.199242 -0.0031912653 0)
(1.2059529 -0.025349462 0)
(1.2128823 -0.047329309 0)
(1.2199567 -0.069069389 0)
(1.227103 -0.090515397 0)
(1.2342496 -0.11161965 0)
(1.2413278 -0.13234009 0)
(1.2482724 -0.15263966 0)
(1.2550223 -0.17248529 0)
(1.2615215 -0.19184734 0)
(1.2677196 -0.21069874 0)
(1.2735729 -0.2290148 0)
(1.2790444 -0.24677275 0)
(1.2841051 -0.26395211 0)
(1.2887344 -0.28053477 0)
(1.29292 -0.29650589 0)
(1.2966581 -0.31185459 0)
(1.2999528 -0.32657526 0)
(1.3028152 -0.34066847 0)
(1.3052617 -0.35414215 0)
(1.3073117 -0.36701252 0)
(1.3089866 -0.37930398 0)
(1.3103048 -0.39104831 0)
(1.104923 0.030563951 0)
(1.1145941 0.081541716 0)
(1.1234159 0.12440534 0)
(1.1312044 0.16088892 0)
(1.1379289 0.19217087 0)
(1.1436492 0.21897813 0)
(1.1484842 0.24169464 0)
(1.1525856 0.26047605 0)
(1.1561178 0.27536303 0)
(1.159244 0.28637158 0)
(1.1621181 0.29354937 0)
(1.1648801 0.29700032 0)
(1.1676531 0.29688711 0)
(1.1705432 0.29342189 0)
(1.1736394 0.2868532 0)
(1.1770152 0.27745367 0)
(1.1807306 0.26550952 0)
(1.1848342 0.25131193 0)
(1.1893648 0.23515003 0)
(1.1943533 0.21730473 0)
(1.1998226 0.1980435 0)
(1.2057878 0.17761626 0)
(1.2122542 0.15625235 0)
(1.2192169 0.13415913 0)
(1.2266591 0.11152166 0)
(1.2345514 0.088503761 0)
(1.2428522 0.065249527 0)
(1.251509 0.041885565 0)
(1.2604597 0.018522801 0)
(1.2696357 -0.0047414504 0)
(1.2789636 -0.027822178 0)
(1.2883677 -0.050645091 0)
(1.2977725 -0.073145809 0)
(1.3071039 -0.095268654 0)
(1.3162906 -0.1169659 0)
(1.3252654 -0.13819664 0)
(1.3339654 -0.15892613 0)
(1.3423333 -0.17912467 0)
(1.3503174 -0.19876705 0)
(1.3578721 -0.21783165 0)
(1.3649587 -0.23630018 0)
(1.3715455 -0.25415716 0)
(1.3776082 -0.27139007 0)
(1.38313 -0.28798925 0)
(1.3881017 -0.3039485 0)
(1.3925213 -0.31926541 0)
(1.3963933 -0.3339421 0)
(1.3997275 -0.3479858 0)
(1.4025385 -0.36140942 0)
(1.4048435 -0.37423189 0)
(1.4066603 -0.38647797 0)
(1.4080065 -0.39817771 0)
(1.105304 0.030672313 0)
(1.1156887 0.082785393 0)
(1.1252403 0.12725982 0)
(1.1338225 0.16551924 0)
(1.1414443 0.19854608 0)
(1.1481923 0.22695069 0)
(1.1542056 0.25105011 0)
(1.1596527 0.27096479 0)
(1.1647109 0.28672085 0)
(1.1695537 0.29833339 0)
(1.1743415 0.30585847 0)
(1.1792181 0.30941466 0)
(1.1843068 0.30918341 0)
(1.1897106 0.30539791 0)
(1.1955116 0.29832911 0)
(1.2017726 0.2882721 0)
(1.2085387 0.27553504 0)
(1.2158391 0.26043015 0)
(1.2236892 0.24326667 0)
(1.2320929 0.22434487 0)
(1.2410431 0.20395121 0)
(1.2505231 0.18235431 0)
(1.2605066 0.15980212 0)
(1.2709582 0.1365202 0)
(1.2818326 0.11271106 0)
(1.2930758 0.08855469 0)
(1.304625 0.064209567 0)
(1.3164106 0.039814438 0)
(1.3283572 0.015489998 0)
(1.3403856 -0.0086591743 0)
(1.352415 -0.032543059 0)
(1.3643648 -0.056084444 0)
(1.3761563 -0.079217752 0)
(1.387714 -0.10188763 0)
(1.3989668 -0.1240479 0)
(1.4098491 -0.14566033 0)
(1.420301 -0.16669374 0)
(1.4302686 -0.1871229 0)
(1.4397051 -0.20692781 0)
(1.4485702 -0.2260928 0)
(1.4568307 -0.24460611 0)
(1.4644604 -0.26245933 0)
(1.4714405 -0.27964731 0)
(1.477759 -0.29616801 0)
(1.4834108 -0.31202267 0)
(1.4883971 -0.32721602 0)
(1.4927247 -0.34175665 0)
(1.4964052 -0.35565719 0)
(1.4994535 -0.36893463 0)
(1.501887 -0.38161039 0)
(1.5037246 -0.39371008 0)
(1.5049843 -0.40526273 0)
(1.1057162 0.030909676 0)
(1.1168382 0.084254461 0)
(1.1270983 0.13033692 0)
(1.1364139 0.17030747 0)
(1.1448461 0.20497147 0)
(1.1525192 0.23483306 0)
(1.1596035 0.26014898 0)
(1.1662943 0.28100969 0)
(1.1727908 0.29743108 0)
(1.179283 0.30943156 0)
(1.185943 0.31707954 0)
(1.1929203 0.32051243 0)
(1.2003392 0.31993437 0)
(1.208298 0.31560416 0)
(1.2168692 0.3078194 0)
(1.226101 0.29690221 0)
(1.2360191 0.28318694 0)
(1.2466291 0.26701111 0)
(1.2579191 0.24870756 0)
(1.2698621 0.22859888 0)
(1.2824186 0.20699218 0)
(1.295538 0.18417555 0)
(1.3091605 0.16041491 0)
(1.3232184 0.13595254 0)
(1.3376369 0.11100602 0)
(1.3523351 0.085768716 0)
(1.3672277 0.060410376 0)
(1.382226 0.035078922 0)
(1.3972394 0.0099018235 0)
(1.4121773 -0.015011817 0)
(1.4269502 -0.039569419 0)
(1.441472 -0.063693087 0)
(1.4556606 -0.087318218 0)
(1.4694394 -0.11039171 0)
(1.482738 -0.13287075 0)
(1.4954929 -0.15472137 0)
(1.5076477 -0.17591738 0)
(1.5191533 -0.19643913 0)
(1.5299682 -0.21627274 0)
(1.5400581 -0.23540904 0)
(1.5493963 -0.25384311 0)
(1.5579631 -0.27157357 0)
(1.5657459 -0.28860237 0)
(1.5727388 -0.30493448 0)
(1.5789419 -0.3205779 0)
(1.5843612 -0.33554366 0)
(1.5890077 -0.3498459 0)
(1.5928959 -0.36350196 0)
(1.5960439 -0.37653242 0)
(1.5984717 -0.38896104 0)
(1.6002001 -0.40081438 0)
(1.6012508 -0.41212151 0)
(1.1061633 0.031292889 0)
(1.1180603 0.086013779 0)
(1.1290297 0.13374938 0)
(1.1390497 0.17540695 0)
(1.1482435 0.21163094 0)
(1.156783 0.24282822 0)
(1.1648796 0.26920232 0)
(1.1727638 0.29081933 0)
(1.1806643 0.30769111 0)
(1.1887932 0.31984499 0)
(1.1973376 0.32736821 0)
(1.2064547 0.33042255 0)
(1.2162691 0.32924148 0)
(1.2268726 0.32411485 0)
(1.2383247 0.31537302 0)
(1.2506548 0.30336995 0)
(1.2638645 0.28847155 0)
(1.277931 0.27104432 0)
(1.2928101 0.25144873 0)
(1.3084402 0.23003177 0)
(1.3247456 0.20712317 0)
(1.341639 0.18303049 0)
(1.3590249 0.1580374 0)
(1.3768016 0.13240097 0)
(1.3948629 0.10635185 0)
(1.4131003 0.080093598 0)
(1.4314046 0.05380439 0)
(1.4496672 0.027637774 0)
(1.4677818 0.0017250455 0)
(1.4856458 -0.023823364 0)
(1.5031613 -0.048914998 0)
(1.5202366 -0.073474084 0)
(1.536787 -0.097439202 0)
(1.5527357 -0.12076181 0)
(1.568014 -0.14340429 0)
(1.5825615 -0.1653387 0)
(1.5963268 -0.1865452 0)
(1.6092666 -0.20701104 0)
(1.621346 -0.22672921 0)
(1.632538 -0.2456978 0)
(1.6428233 -0.26391898 0)
(1.6521899 -0.28139855 0)
(1.6606326 -0.29814535 0)
(1.6681527 -0.31417109 0)
(1.6747569 -0.32948996 0)
(1.6804573 -0.34411872 0)
(1.6852702 -0.35807651 0)
(1.6892153 -0.37138485 0)
(1.692315 -0.38406753 0)
(1.6945932 -0.39615054 0)
(1.6960754 -0.40766167 0)
(1.6967868 -0.41863009 0)
(1.1066484 0.031834025 0)
(1.1193699 0.088112176 0)
(1.1310678 0.13758224 0)
(1.1417881 0.1809334 0)
(1.1517262 0.21866193 0)
(1.1611111 0.2510865 0)
(1.170204 0.27836346 0)
(1.1792787 0.30054217 0)
(1.1885994 0.3176367 0)
(1.1984051 0.3296919 0)
(1.2089004 0.3368205 0)
(1.2202504 0.33921778 0)
(1.2325789 0.33715315 0)
(1.245968 0.330956 0)
(1.2604602 0.32099502 0)
(1.2760608 0.30766334 0)
(1.2927417 0.29136247 0)
(1.310446 0.27249354 0)
(1.3290922 0.25144674 0)
(1.3485791 0.22859692 0)
(1.3687906 0.20429647 0)
(1.3895998 0.17887358 0)
(1.4108728 0.15262766 0)
(1.432472 0.12582965 0)
(1.4542589 0.098719766 0)
(1.4760965 0.071509547 0)
(1.4978515 0.044381364 0)
(1.5193955 0.017491579 0)
(1.5406068 -0.0090289135 0)
(1.5613715 -0.035070892 0)
(1.5815842 -0.060545825 0)
(1.6011489 -0.085382384 0)
(1.6199797 -0.10952543 0)
(1.6380009 -0.13293279 0)
(1.6551473 -0.15557449 0)
(1.6713636 -0.17742995 0)
(1.6866046 -0.19848753 0)
(1.7008346 -0.21874208 0)
(1.7140268 -0.23819482 0)
(1.7261629 -0.25685127 0)
(1.7372325 -0.2747214 0)
(1.7472325 -0.29181799 0)
(1.7561665 -0.30815697 0)
(1.7640437 -0.32375621 0)
(1.7708791 -0.338636 0)
(1.7766918 -0.35281817 0)
(1.781505 -0.3663265 0)
(1.7853443 -0.37918621 0)
(1.788238 -0.3914241 0)
(1.7902153 -0.40306812 0)
(1.7913064 -0.41414729 0)
(1.7915421 -0.42469141 0)
(1.107175 0.032542426 0)
(1.1207806 0.09058695 0)
(1.1332413 0.14190092 0)
(1.1446792 0.18697389 0)
(1.1553719 0.22616634 0)
(1.1656147 0.25971527 0)
(1.1757274 0.28773824 0)
(1.1860345 0.31027423 0)
(1.1968414 0.32734946 0)
(1.208417 0.33903386 0)
(1.2209847 0.34547691 0)
(1.234717 0.34691545 0)
(1.2497336 0.34366575 0)
(1.266103 0.33610372 0)
(1.2838448 0.32464592 0)
(1.3029339 0.30972972 0)
(1.323306 0.29179963 0)
(1.3448634 0.27129405 0)
(1.3674811 0.24863779 0)
(1.3910131 0.2242337 0)
(1.4152987 0.19845919 0)
(1.4401677 0.17166085 0)
(1.4654454 0.14415394 0)
(1.4909571 0.11621929 0)
(1.5165311 0.088105168 0)
(1.5420022 0.06002604 0)
(1.5672133 0.032166125 0)
(1.5920176 0.0046793013 0)
(1.6162793 -0.022306348 0)
(1.6398748 -0.048687808 0)
(1.662693 -0.07438245 0)
(1.6846361 -0.099327721 0)
(1.7056189 -0.12347618 0)
(1.7255694 -0.14679567 0)
(1.7444277 -0.16926463 0)
(1.7621459 -0.19087277 0)
(1.7786872 -0.21161679 0)
(1.7940253 -0.23150147 0)
(1.8081432 -0.25053579 0)
(1.821033 -0.26873443 0)
(1.8326947 -0.28611432 0)
(1.8431354 -0.3026963 0)
(1.8523684 -0.31850236 0)
(1.8604127 -0.33355711 0)
(1.867292 -0.3478858 0)
(1.8730338 -0.36151552 0)
(1.8776687 -0.37447387 0)
(1.88123 -0.38678958 0)
(1.8837519 -0.39849203 0)
(1.88527 -0.40961103 0)
(1.8858206 -0.42017685 0)
(1.88544 -0.43021913 0)
(1.1077465 0.033425306 0)
(1.1223057 0.093468107 0)
(1.1355772 0.14675577 0)
(1.1477688 0.19359426 0)
(1.1592513 0.2342169 0)
(1.1703963 0.26878726 0)
(1.1815907 0.29739097 0)
(1.1932168 0.32006625 0)
(1.2056256 0.3368606 0)
(1.2191186 0.34788081 0)
(1.2339375 0.35332387 0)
(1.2502596 0.35348024 0)
(1.2681963 0.34872315 0)
(1.287796 0.33948576 0)
(1.3090481 0.32624047 0)
(1.3318895 0.30947709 0)
(1.3562117 0.28968806 0)
(1.3818686 0.26735432 0)
(1.408685 0.242937 0)
(1.4364644 0.21686937 0)
(1.4649968 0.18955248 0)
(1.4940653 0.16135142 0)
(1.5234528 0.13259347 0)
(1.5529464 0.10356783 0)
(1.5823415 0.074525377 0)
(1.6114456 0.045681196 0)
(1.6400796 0.017215144 0)
(1.6680804 -0.0107237 0)
(1.6953006 -0.038016091 0)
(1.7216096 -0.06456696 0)
(1.7468939 -0.090305386 0)
(1.7710564 -0.11517834 0)
(1.7940159 -0.13915127 0)
(1.8157067 -0.16220184 0)
(1.8360773 -0.18432141 0)
(1.8550894 -0.20550899 0)
(1.8727171 -0.22577342 0)
(1.8889455 -0.24512777 0)
(1.9037696 -0.26359195 0)
(1.9171933 -0.28118774 0)
(1.9292286 -0.29794148 0)
(1.939894 -0.31387994 0)
(1.949214 -0.32903281 0)
(1.957218 -0.34342954 0)
(1.9639395 -0.35710126 0)
(1.9694152 -0.37007882 0)
(1.9736843 -0.38239386 0)
(1.9767872 -0.39407798 0)
(1.978766 -0.40516273 0)
(1.9796627 -0.41567977 0)
(1.97952 -0.42565961 0)
(1.9783798 -0.43513344 0)
(1.1083671 0.034489053 0)
(1.1239581 0.09677981 0)
(1.1381012 0.15218652 0)
(1.1511006 0.20084287 0)
(1.1634323 0.24286298 0)
(1.1755551 0.27834481 0)
(1.1879318 0.30735 0)
(1.2010091 0.32992692 0)
(1.2151874 0.34615532 0)
(1.2308019 0.35619306 0)
(1.2481107 0.36029674 0)
(1.2672911 0.35882501 0)
(1.2884395 0.35221913 0)
(1.311576 0.34098202 0)
(1.3366507 0.3256502 0)
(1.3635527 0.30677489 0)
(1.39212 0.28490119 0)
(1.4221498 0.26055746 0)
(1.4534092 0.23424247 0)
(1.4856451 0.20642084 0)
(1.518594 0.17751592 0)
(1.5519897 0.14790897 0)
(1.5855713 0.11793626 0)
(1.6190876 0.087890704 0)
(1.6523029 0.058022153 0)
(1.6849991 0.028540339 0)
(1.7169786 -0.00038262571 0)
(1.7480647 -0.028608743 0)
(1.7781023 -0.05602998 0)
(1.806958 -0.082565505 0)
(1.8345193 -0.10815725 0)
(1.8606938 -0.13276746 0)
(1.885408 -0.15637433 0)
(1.9086058 -0.17897049 0)
(1.9302472 -0.20055896 0)
(1.9503065 -0.2211525 0)
(1.968771 -0.24077005 0)
(1.9856397 -0.2594367 0)
(2.0009212 -0.2771808 0)
(2.0146334 -0.29403418 0)
(2.0268011 -0.31003002 0)
(2.037456 -0.32520315 0)
(2.0466343 -0.33958861 0)
(2.0543771 -0.35322196 0)
(2.0607281 -0.36613838 0)
(2.0657341 -0.37837295 0)
(2.0694425 -0.38996036 0)
(2.0719028 -0.40093454 0)
(2.0731637 -0.41132931 0)
(2.0732749 -0.42117704 0)
(2.0722849 -0.43050963 0)
(2.0702427 -0.43935689 0)
(1.1090406 0.035739525 0)
(1.1257518 0.10054264 0)
(1.1408396 0.15822471 0)
(1.1547183 0.20875418 0)
(1.1679833 0.25213416 0)
(1.1811916 0.28840345 0)
(1.1948915 0.31761089 0)
(1.2096002 0.33982555 0)
(1.225771 0.35517555 0)
(1.2437713 0.36388301 0)
(1.2638719 0.36628203 0)
(1.2862429 0.3628124 0)
(1.3109564 0.35399977 0)
(1.3379933 0.34042685 0)
(1.367253 0.32270677 0)
(1.3985655 0.3014578 0)
(1.4317045 0.27728541 0)
(1.4664012 0.25076653 0)
(1.502357 0.22244059 0)
(1.539257 0.19280104 0)
(1.57678 0.16229268 0)
(1.614609 0.13130804 0)
(1.6524386 0.10018897 0)
(1.6899816 0.069226125 0)
(1.7269731 0.038663506 0)
(1.7631736 0.008699601 0)
(1.7983706 -0.020506372 0)
(1.8323791 -0.048832195 0)
(1.8650407 -0.076186107 0)
(1.8962243 -0.10250511 0)
(1.9258231 -0.12774817 0)
(1.9537541 -0.15189504 0)
(1.9799554 -0.17493999 0)
(2.0043844 -0.19689162 0)
(2.027016 -0.21776715 0)
(2.04784 -0.23759311 0)
(2.0668598 -0.25640036 0)
(2.0840901 -0.27422542 0)
(2.0995555 -0.29110619 0)
(2.1132888 -0.30708371 0)
(2.1253297 -0.32219847 0)
(2.1357232 -0.33649239 0)
(2.144519 -0.35000585 0)
(2.1517695 -0.36277967 0)
(2.1575301 -0.37485276 0)
(2.1618569 -0.38626368 0)
(2.1648073 -0.39704939 0)
(2.166438 -0.40724615 0)
(2.1668063 -0.41688914 0)
(2.1659681 -0.42601147 0)
(2.1639796 -0.4346455 0)
(2.1608941 -0.44281965 0)
(1.1097717 0.03718228 0)
(1.1277009 0.10477527 0)
(1.1438193 0.16489529 0)
(1.1586673 0.21735166 0)
(1.1729754 0.26204181 0)
(1.1874114 0.2989548 0)
(1.2026188 0.32813732 0)
(1.2191917 0.34969495 0)
(1.2376373 0.36381987 0)
(1.2583527 0.37081773 0)
(1.2816142 0.37111728 0)
(1.3075748 0.36525802 0)
(1.3362699 0.3538645 0)
(1.3676275 0.33761375 0)
(1.4014824 0.31720485 0)
(1.4375921 0.29333216 0)
(1.4756543 0.26666496 0)
(1.515324 0.23783226 0)
(1.5562299 0.20741237 0)
(1.5979892 0.17592674 0)
(1.6402211 0.14383615 0)
(1.6825567 0.11154088 0)
(1.7246484 0.079380816 0)
(1.7661752 0.047639829 0)
(1.806848 0.016547897 0)
(1.8464108 -0.013712084 0)
(1.8846421 -0.043001111 0)
(1.9213538 -0.071216307 0)
(1.9563914 -0.098288792 0)
(1.989631 -0.12417547 0)
(2.0209777 -0.14885766 0)
(2.0503624 -0.17233335 0)