/*--------------------------------*- C++ -*----------------------------------*\
| =========                 |                                                 |
| \\      /  F ield         | OpenFOAM: The Open Source CFD Toolbox           |
|  \\    /   O peration     | Version:  2312                                  |
|   \\  /    A nd           | Website:  www.openfoam.com                      |
|    \\/     M anipulation  |                                                 |
\*---------------------------------------------------------------------------*/
FoamFile
{
    version     2.0;
    format      ascii;
    arch        "LSB;label=32;scalar=64";
    class       volScalarField;
    location    "0.07";
    object      Ma;
}
// * * * * * * * * * * * * * * * * * * * * * * * * * * * * * * * * * * * * * //

dimensions      [0 0 0 0 0 0 0];

internalField   nonuniform List<scalar> 
3275
(
0.072403498
0.06510827
0.05591883
0.047747758
0.041079097
0.035854748
0.031760039
0.028500363
0.025880879
0.023730141
0.021982507
0.02053237
0.019322612
0.018269017
0.017370531
0.016589922
0.015905514
0.01529978
0.014759486
0.014274216
0.013835685
0.013437132
0.013073011
0.012738773
0.0124306
0.012145286
0.011880111
0.011632755
0.011401227
0.011183805
0.010978998
0.010785503
0.01060218
0.010428024
0.01026215
0.01010377
0.0099521877
0.0098067776
0.0096669814
0.0095322976
0.0094022744
0.0092765042
0.0091546181
0.0090362807
0.0089211899
0.0088090697
0.0086996721
0.0085927679
0.0084881457
0.0083856158
0.0082850007
0.0081861392
0.071687657
0.063345572
0.054070324
0.046339981
0.040096843
0.035181763
0.031295625
0.028171965
0.025643156
0.023554196
0.021848996
0.02042876
0.019240342
0.018203032
0.017316521
0.016545103
0.015867843
0.015267764
0.014732004
0.014250415
0.013814904
0.013418854
0.013056827
0.012724355
0.012417684
0.012133657
0.011869591
0.011623198
0.011392509
0.011175825
0.010971668
0.010778749
0.010595938
0.01042224
0.010256777
0.010098768
0.0099475189
0.0098024115
0.0096628903
0.0095284569
0.0093986626
0.009273102
0.0091514083
0.0090332482
0.0089183209
0.008806352
0.0086970944
0.00859032
0.0084858187
0.0083834007
0.00828289
0.0081841261
0.069603896
0.059429109
0.050362285
0.043613918
0.038213761
0.033886969
0.030395673
0.027532858
0.025178416
0.0232089
0.02158614
0.020224279
0.019077621
0.018072338
0.017209426
0.016456161
0.015793046
0.015204176
0.014677415
0.014203137
0.01377363
0.013382562
0.013024705
0.012695752
0.012392074
0.01211061
0.011848755
0.01160428
0.011375264
0.011160047
0.010957183
0.010765409
0.010583616
0.010410827
0.010246178
0.010088902
0.0099383138
0.0097938044
0.009654826
0.0095208866
0.0093915429
0.0092663946
0.0091450789
0.0090272664
0.0089126593
0.0088009861
0.0086920019
0.0085854806
0.0084812143
0.0083790145
0.008278707
0.0081801333
0.06401423
0.052661777
0.044822597
0.039755668
0.03558573
0.03206344
0.029115985
0.026616688
0.024507209
0.022707014
0.021202095
0.019924356
0.018838082
0.01787947
0.017051056
0.016324426
0.01568212
0.015109777
0.01459631
0.014132852
0.013712244
0.013328567
0.012976903
0.012653182
0.012353957
0.012076309
0.011817746
0.011576127
0.011349604
0.011136573
0.010935635
0.010745567
0.010565291
0.010393856
0.01023042
0.010074233
0.0099246281
0.0097810077
0.0096428356
0.0095096295
0.0093809545
0.0092564174
0.0091356618
0.0090183638
0.0089042303
0.0087929943
0.0086844137
0.008578266
0.0084743464
0.0083724682
0.0082724603
0.0081741659
0.049801999
0.042016082
0.037788058
0.035094475
0.032397372
0.029868672
0.027538151
0.025469606
0.023658092
0.022066497
0.020708451
0.019536806
0.018527006
0.01762814
0.016844097
0.016151883
0.015536568
0.014985728
0.014489606
0.014040296
0.013631348
0.013257372
0.012913848
0.012597011
0.012303652
0.012031035
0.011776814
0.011538966
0.011315734
0.01110559
0.010907198
0.010719384
0.010541111
0.010371463
0.010209628
0.01005488
0.0099065717
0.0097641234
0.0096270138
0.0094947735
0.0093669785
0.0092432452
0.0091232255
0.0090066031
0.0088930908
0.0087824274
0.0086743753
0.0085687165
0.0084652499
0.0083637921
0.008264175
0.0081662453
0.021337273
0.029619335
0.030553755
0.030400233
0.029120906
0.027536969
0.025862113
0.024222495
0.022721502
0.021352276
0.020153014
0.019097885
0.01817245
0.017340403
0.016606304
0.015953049
0.015368434
0.01484215
0.014365902
0.013932852
0.013537337
0.013174559
0.01284045
0.012531588
0.012245032
0.011978257
0.011729084
0.011495621
0.011276219
0.011069439
0.010874012
0.010688823
0.010512884
0.01034532
0.01018535
0.010032277
0.0098854793
0.0097443959
0.0096085234
0.0094774069
0.0093506356
0.0092278369
0.0091086725
0.0089928347
0.0088800438
0.0087700449
0.008662606
0.0085575139
0.0084545725
0.0083536017
0.0082544373
0.0081569288
0.0094368644
0.020746074
0.024379558
0.026041435
0.025983143
0.025233179
0.024154842
0.022942914
0.021741183
0.020596685
0.019559976
0.018626122
0.017788851
0.017027576
0.016346772
0.015735327
0.015183824
0.014684135
0.01422949
0.013814167
0.013433333
0.013082824
0.012759048
0.012458953
0.012179886
0.011919551
0.011675948
0.011447329
0.011232162
0.0110291
0.010836955
0.010654674
0.010481323
0.010316069
0.010158168
0.010006956
0.009861836
0.0097222695
0.0095877724
0.0094579065
0.0093322749
0.0092105174
0.0090923066
0.0089773441
0.0088653583
0.0087561015
0.0086493478
0.0085448896
0.0084425357
0.0083421104
0.0082434533
0.0081464182
0.0055222359
0.014831576
0.019255845
0.021990766
0.022884643
0.022875699
0.022350268
0.021565471
0.020671727
0.019758703
0.018895061
0.01809333
0.01735247
0.016669465
0.016048381
0.015484041
0.014970073
0.014500686
0.014070759
0.013675793
0.013311872
0.012975533
0.012663719
0.012373794
0.01210343
0.011850588
0.011613474
0.011390505
0.011180282
0.010981568
0.010793262
0.010614384
0.010444062
0.010281515
0.010126041
0.009977011
0.0098338589
0.0096960733
0.0095631917
0.0094347951
0.0093105033
0.0091899704
0.0090728815
0.0089589492
0.0088479115
0.0087395289
0.0086335829
0.0085298721
0.0084282114
0.00832843
0.0082303722
0.0081338957
0.004418127
0.010952393
0.015178421
0.018389926
0.01994508
0.020539974
0.020511089
0.0201188
0.019533894
0.018853276
0.018166111
0.017504867
0.016867241
0.016267838
0.015712137
0.015199636
0.014727267
0.014291668
0.013889441
0.013517385
0.013172566
0.012852281
0.012554057
0.012275712
0.012015278
0.011771003
0.011541318
0.011324826
0.011120278
0.010926558
0.010742665
0.010567704
0.01040087
0.010241441
0.010088763
0.0099422499
0.0098013685
0.0096656376
0.0095346205
0.0094079201
0.0092851752
0.0091660565
0.0090502634
0.0089375211
0.0088275786
0.008720206
0.008615193
0.008512346
0.0084114864
0.0083124491
0.008215084
0.0081192538
0.0039623314
0.0083941066
0.012031963
0.015299264
0.017249118
0.018295015
0.018683154
0.018643706
0.018344921
0.017897556
0.017385379
0.016864668
0.016337863
0.015825206
0.015339553
0.014882968
0.014455794
0.014057159
0.013685411
0.013338687
0.013015079
0.012712685
0.012429654
0.012164291
0.011915016
0.011680386
0.011459083
0.01124991
0.011051783
0.01086372
0.010684833
0.010514318
0.010351448
0.010195563
0.010046067
0.0099024176
0.0097641216
0.0096307313
0.0095018388
0.0093770718
0.0092560905
0.0091385843
0.009024269
0.008912884
0.0088041907
0.0086979702
0.0085940218
0.0084921603
0.0083922147
0.0082940265
0.0081974519
0.0081023585
0.0037257414
0.0067245837
0.0096656099
0.012722106
0.014844692
0.016193628
0.016908481
0.017172285
0.017132364
0.016902611
0.016565471
0.016180837
0.01576867
0.015345723
0.014932705
0.014535367
0.01415641
0.013797523
0.013458766
0.013139613
0.012839203
0.012556458
0.012290171
0.012039161
0.011802259
0.011578349
0.011366382
0.011165376
0.010974426
0.010792697
0.01061942
0.010453895
0.010295477
0.010143578
0.0099976618
0.0098572368
0.0097218537
0.0095911019
0.0094646054
0.0093420196
0.0092230288
0.0091073431
0.0089946965
0.0088848444
0.0087775623
0.0086726435
0.0085698979
0.0084691501
0.0083702374
0.008273009
0.008177328
0.008083068
0.0035977365
0.0056474931
0.0079252298
0.01062495
0.012750998
0.014270967
0.015222961
0.015732203
0.015919357
0.015885848
0.015715907
0.015465179
0.015163336
0.014834077
0.014494329
0.014158596
0.013830273
0.013513445
0.013209857
0.012920282
0.012644891
0.012383435
0.012135368
0.011900031
0.011676681
0.011464548
0.01126286
0.011070868
0.010887853
0.010713139
0.010546087
0.010386103
0.010232636
0.010085176
0.0099432493
0.0098064212
0.00967429
0.0095464858
0.0094226677
0.0093025215
0.009185758
0.0090721104
0.0089613327
0.0088531981
0.0087474974
0.0086440378
0.008542641
0.0084431423
0.0083453884
0.0082492373
0.0081545589
0.0080612343
0.0035191235
0.0049519503
0.0066688762
0.0089539039
0.010965482
0.012546952
0.013652533
0.014349038
0.014724975
0.014865925
0.014847275
0.014725482
0.014531063
0.014292578
0.014028694
0.013754848
0.013478936
0.013205955
0.012939318
0.012681038
0.012432283
0.01219361
0.01196513
0.011746711
0.011538042
0.011338704
0.011148218
0.010966072
0.010791746
0.010624726
0.010464513
0.01031063
0.010162621
0.010020058
0.0098825403
0.0097496909
0.0096211602
0.0094966223
0.0093757745
0.009258336
0.0091440461
0.0090326632
0.0089239634
0.0088177393
0.0087137986
0.0086119635
0.008512069
0.0084139621
0.0083175
0.0082225494
0.0081289901
0.0080367092
0.0034628021
0.0044974445
0.0057754672
0.007646744
0.0094705428
0.011028591
0.012214417
0.013042457
0.013567737
0.013856749
0.013973445
0.013969452
0.013878492
0.013727253
0.01353886
0.013327405
0.013104311
0.012876417
0.012648071
0.012422472
0.012201724
0.011987143
0.011779485
0.011579129
0.011386197
0.011200625
0.011022226
0.010850734
0.010685832
0.010527178
0.010374417
0.01022719
0.010085148
0.0099479471
0.0098152615
0.0096867791
0.0095622045
0.0094412594
0.009323682
0.0092092271
0.0090976652
0.0089887819
0.0088823771
0.0087782643
0.0086762698
0.0085762321
0.0084780007
0.0083814353
0.0082864043
0.0081927856
0.0081004661
0.0080093436
0.0034188984
0.0041948433
0.0051469916
0.0066409188
0.008239413
0.0097128078
0.010917939
0.011826707
0.012462736
0.012871901
0.013105353
0.013207605
0.013211582
0.013144632
0.013028141
0.012879382
0.012708944
0.012526494
0.012337326
0.012145426
0.011953769
0.011764378
0.011578612
0.011397345
0.011221115
0.011050209
0.010884734
0.010724667
0.0105699
0.010420265
0.010275554
0.010135535
0.0099999631
0.0098685882
0.0097411611
0.009617437
0.0094971788
0.0093801582
0.0092661571
0.0091549683
0.0090463954
0.0089402532
0.0088363671
0.0087345734
0.0086347181
0.0085366574
0.0084402564
0.0083453884
0.0082519348
0.0081597833
0.0080688329
0.0079789887
0.0033835666
0.0039884124
0.0047070307
0.005878066
0.0072407086
0.0085892473
0.0097657395
0.010711018
0.011421575
0.01192323
0.012253342
0.012448584
0.012538535
0.012549231
0.012502174
0.012413228
0.012295744
0.012158274
0.012008549
0.011850983
0.011689191
0.011525843
0.011362854
0.011201554
0.01104288
0.010887457
0.010735675
0.010587756
0.010443798
0.010303807
0.010167727
0.010035452
0.0099068475
0.0097817565
0.0096600111
0.0095414365
0.0094258561
0.0093130943
0.0092029789
0.0090953427
0.0089900246
0.0088868702
0.0087857323
0.0086864709
0.0085889536
0.0084930552
0.0083986575
0.008305649
0.0082139236
0.0081233824
0.0080339336
0.0079454933
0.0033547495
0.003843369
0.0043981001
0.0053062312
0.0064416128
0.0076427478
0.0087551425
0.0097001364
0.010452611
0.011020253
0.011426873
0.011700421
0.011866297
0.011947603
0.011964704
0.011933643
0.011866648
0.011774393
0.011663509
0.011540452
0.011408974
0.011272257
0.011132716
0.010992096
0.010851701
0.010712475
0.010575078
0.010439967
0.010307443
0.010177687
0.01005079
0.009926775
0.009805618
0.0096872583
0.0095716105
0.0094585719
0.0093480285
0.0092398592
0.0091339397
0.0090301447
0.0089283499
0.0088284334
0.0087302766
0.0086337651
0.0085387889
0.0084452428
0.0083530263
0.0082620437
0.0081722033
0.0080834186
0.0079956094
0.0079087041
0.0033310246
0.0037379941
0.0041785389
0.0048808695
0.0058099676
0.0068553195
0.0078794792
0.0087949915
0.0095611412
0.010170315
0.010633798
0.010970728
0.011201289
0.011345444
0.011421125
0.01144372
0.011425629
0.011376457
0.011304571
0.01121537
0.011114296
0.011004524
0.010888869
0.010769457
0.010647916
0.010525481
0.010403066
0.010281349
0.010160827
0.010041847
0.0099246487
0.0098093817
0.0096961314
0.0095849339
0.0094757875
0.0093686626
0.0092635091
0.0091602621
0.0090588465
0.0089591804
0.0088611778
0.0087647507
0.0086698103
0.0085762688
0.0084840399
0.0083930393
0.0083031856
0.0082143993
0.0081266042
0.0080397263
0.0079537004
0.0078684635
0.0033113165
0.0036586898
0.0040191903
0.0045651717
0.0053156379
0.0062076529
0.007129273
0.0079934138
0.0087497339
0.0093786377
0.0098804801
0.010265999
0.010549813
0.010747984
0.010876172
0.01094796
0.010975301
0.010967864
0.010933121
0.010877853
0.010806527
0.010723716
0.01063215
0.010534269
0.010431992
0.010326811
0.010219866
0.010112042
0.010004017
0.0098963001
0.0097892703
0.0096832023
0.009578289
0.0094746619
0.0093724028
0.0092715555
0.0091721346
0.0090741321
0.0089775231
0.0088822701
0.0087883265
0.0086956391
0.0086041502
0.0085137997
0.0084245258
0.0083362663
0.008248959
0.0081625425
0.0080769553
0.0079921395
0.0079080404
0.0078246106
0.0032947898
0.0035969055
0.0039002583
0.0043298528
0.004931424
0.0056802432
0.0064932336
0.007290834
0.0080186066
0.0086484631
0.0091717774
0.0095916975
0.0099172884
0.010160549
0.010334233
0.01045036
0.010519481
0.010550873
0.01055209
0.010529138
0.010487552
0.010431076
0.010363545
0.010287311
0.010204529
0.010116917
0.01002581
0.0099322767
0.0098371644
0.0097411291
0.0096446841
0.0095482222
0.0094520401
0.0093563624
0.0092613531
0.0091671289
0.0090737685
0.0089813211
0.0088898124
0.00879925
0.0087096273
0.0086209267
0.0085331225
0.0084461828
0.0083600714
0.0082747487
0.0081901729
0.0081063004
0.008023087
0.0079404891
0.0078584681
0.0032807821
0.0035471998
0.003808583
0.0041524844
0.0046336463
0.0052542373
0.0059590672
0.006680919
0.007366039
0.0079812613
0.0085111051
0.0089522214
0.0093084572
0.0095877509
0.0097998371
0.0099546799
0.010061574
0.010128773
0.010163476
0.010171771
0.010158519
0.010128282
0.010084201
0.0100295
0.0099662598
0.0098963729
0.0098213382
0.0097423842
0.0096605072
0.0095764961
0.0094909886
0.0094044873
0.0093173872
0.0092300023
0.0091425763
0.0090552963
0.0089683049
0.0088817074
0.0087955802
0.0087099758
0.008624928
0.0085404554
0.0084565644
0.0083732523
0.0082905087
0.0082083174
0.0081266573
0.0080455042
0.0079648302
0.0078846084
0.0078048149
0.0032687731
0.0035060593
0.0037355427
0.0040164817
0.0044024353
0.0049120779
0.0055141329
0.0061561271
0.0067887728
0.0073769713
0.0079005452
0.0083509186
0.0087272866
0.0090337338
0.0092769843
0.0094647807
0.0096048729
0.0097045064
0.0097701555
0.009807554
0.0098216453
0.0098164291
0.0097956112
0.0097619137
0.0097180402
0.0096658733
0.0096070036
0.0095427952
0.0094743745
0.0094026446
0.0093283548
0.0092521086
0.0091743905
0.0090955996
0.0090160547
0.0089360112
0.0088556727
0.0087751999
0.0086947186
0.0086143261
0.0085340962
0.0084540837
0.0083743276
0.0082948542
0.0082156797
0.0081368114
0.0080582497
0.007979989
0.0079020194
0.0078243321
0.0077469173
0.003258361
0.0034711845
0.0036755088
0.003909925
0.0042217613
0.0046380033
0.0051459839
0.0057081857
0.0062823861
0.0068342555
0.0073409859
0.0077901293
0.0081769678
0.0085020949
0.0087693398
0.0089841835
0.0091527099
0.00928098
0.0093746965
0.0094390356
0.0094785872
0.0094974422
0.0094988489
0.0094858659
0.009460911
0.0094262226
0.009383467
0.0093340435
0.00927919
0.0092199034
0.0091570312
0.0090912665
0.0090231728
0.0089532278
0.0088818207
0.0088092707
0.0087358399
0.0086617416
0.0085871502
0.008512206
0.0084370228
0.0083616908
0.0082862812
0.0082108499
0.0081354394
0.0080600807
0.0079847956
0.0079095984
0.0078344972
0.0077594984
0.0076846096
0.0032492398
0.0034410484
0.0036248033
0.0038244013
0.0040790978
0.0044184304
0.0048428726
0.0053285314
0.005841636
0.0063507476
0.00683229
0.0072712845
0.007659946
0.0079958487
0.0082801513
0.0085161425
0.0087082039
0.0088611269
0.0089797018
0.0090684765
0.0091316295
0.0091728783
0.0091955315
0.0092024721
0.0091960139
0.0091784399
0.0091514883
0.0091167639
0.0090754732
0.0090286897
0.0089773463
0.0089222146
0.0088639225
0.0088030201
0.0087399603
0.0086751204
0.0086088174
0.0085413144
0.0084728315
0.008403551
0.0083336251
0.0082631789
0.0081923152
0.0081211187
0.0080496585
0.0079779888
0.0079061533
0.0078341855
0.0077621115
0.0076899573
0.0032411784
0.0034146201
0.0035810116
0.0037540492
0.0039648757
0.004241986
0.0045941437
0.0050087741
0.0054608637
0.0059233522
0.006373485
0.006795016
0.007177961
0.0075174283
0.007812226
0.0080636026
0.0082742742
0.0084477308
0.0085877784
0.0086982418
0.0087827806
0.008844803
0.0088872854
0.0089130349
0.0089244418
0.0089234482
0.0089121058
0.0088916846
0.0088638357
0.00882951
0.0087897108
0.0087452824
0.0086968979
0.0086451731
0.008590617
0.0085336579
0.0084746635
0.008413942
0.0083517573
0.0082883306
0.0082238512
0.0081584777
0.0080923433
0.0080255612
0.0079582261
0.0078904157
0.0078221945
0.007753616
0.0076847255
0.0076155636
0.0032340015
0.0033911891
0.0035425343
0.0036948208
0.003871922
0.0040993533
0.0043903314
0.0047409032
0.0051342387
0.0055484761
0.0059629378
0.0063612508
0.0067320917
0.0070687003
0.0073679171
0.0076291676
0.0078536007
0.0080434242
0.0082014305
0.0083306654
0.0084342068
0.0085150161
0.0085758583
0.0086192054
0.0086474033
0.0086624462
0.0086660155
0.0086597769
0.0086449816
0.0086229574
0.0085946171
0.008560877
0.0085224287
0.0084799489
0.0084339948
0.0083850359
0.0083334863
0.008279694
0.0082239633
0.0081665513
0.0081076823
0.0080475465
0.0079863061
0.0079241018
0.0078610533
0.0077972603
0.0077328084
0.0076677703
0.0076022086
0.0075361833
0.0032275755
0.0033702539
0.0035082983
0.0036439348
0.0037949439
0.0039830584
0.0042231959
0.0045174025
0.0048558669
0.0052221252
0.0055984399
0.0059692816
0.0063228016
0.0066509818
0.006949117
0.007215077
0.007448592
0.0076506522
0.0078230456
0.0079680145
0.0080880096
0.0081855139
0.0082629343
0.0083225274
0.0083664217
0.0083964794
0.0084144058
0.0084217764
0.0084197433
0.0084097903
0.0083926324
0.0083694814
0.0083409177
0.0083076769
0.0082703606
0.0082294645
0.0081854472
0.0081386882
0.0080895296
0.0080382598
0.0079851361
0.0079303779
0.0078741742
0.0078166917
0.0077580746
0.0076984432
0.0076379028
0.007576545
0.0075144514
0.0074516951
0.0032217963
0.0033514491
0.0034775694
0.0035994814
0.0037300829
0.0038872215
0.0040857217
0.0043313742
0.0046199307
0.004940018
0.0052772985
0.0056178343
0.0059499813
0.0062650585
0.0065572561
0.0068231894
0.0070613583
0.0072716392
0.0074548603
0.0076124647
0.0077462558
0.0078582063
0.0079503304
0.0080245985
0.008082899
0.0081269877
0.0081583939
0.0081786461
0.0081889991
0.0081905911
0.008184534
0.0081716482
0.008152838
0.0081287531
0.0081000462
0.008067213
0.0080307629
0.0079910928
0.0079485828
0.0079035451
0.0078562691
0.0078069996
0.0077559499
0.0077033114
0.0076492513
0.0075939085
0.0075374075
0.0074798576
0.0074213563
0.0073619962
0.0032165815
0.0033344995
0.003449831
0.0035601442
0.0036745499
0.0038072955
0.0039720661
0.0041766364
0.0044208328
0.0046977138
0.0049964322
0.0053051359
0.0056129918
0.0059112067
0.0061933058
0.006454971
0.0066936902
0.0069083621
0.0070989298
0.0072660694
0.0074109404
0.0075349905
0.0076398153
0.0077270599
0.0077983535
0.0078552579
0.0078992032
0.0079315642
0.0079535525
0.0079663076
0.0079708885
0.0079680423
0.0079588051
0.0079436355
0.0079234497
0.0078986094
0.0078697067
0.0078371278
0.007801298
0.0077625408
0.0077211788
0.0076774771
0.0076316704
0.0075839728
0.0075345734
0.0074836268
0.0074312753
0.0073776451
0.0073228505
0.0072669985
0.0032118641
0.0033191891
0.0034247072
0.0035250067
0.0036263377
0.003739811
0.0038774597
0.0040477785
0.0042533259
0.0044907468
0.0047524762
0.00502899
0.0053107124
0.0055892189
0.0058577861
0.0061114895
0.006347042
0.0065625256
0.0067570992
0.0069307286
0.0070839538
0.0072177
0.0073331317
0.0074315454
0.0075142897
0.0075827073
0.0076380809
0.0076816364
0.0077145394
0.0077378093
0.0077524756
0.0077593469
0.0077593125
0.0077529117
0.0077410631
0.0077240314
0.0077026108
0.0076770652
0.0076479006
0.0076154257
0.0075800055
0.0075419151
0.0075014091
0.007458721
0.0074140613
0.0073675961
0.007319485
0.0072698692
0.0072188763
0.0071666344
0.0032075884
0.0033053431
0.0034019122
0.0034934195
0.0035840015
0.0036821481
0.0037980773
0.00394017
0.0041126148
0.0043147576
0.0045418987
0.0047868593
0.0050415978
0.0052984365
0.0055507798
0.0057934127
0.006022519
0.0062355419
0.0064309784
0.0066081607
0.0067670534
0.0069080779
0.0070319695
0.0071396664
0.0072322224
0.0073107423
0.0073763297
0.0074300638
0.0074729871
0.0075060637
0.0075302364
0.0075462835
0.0075550378
0.0075571578
0.007553299
0.0075439897
0.0075298812
0.0075112212
0.0074886676
0.0074624247
0.0074329334
0.0074004591
0.0073652774
0.0073276364
0.0072877676
0.0072458444
0.0072020417
0.0071565145
0.0071094038
0.0070608547
0.0032037072
0.0032928141
0.0033812189
0.0034649107
0.0035464962
0.0036323402
0.0037308938
0.0038499273
0.0039944224
0.0041656069
0.0043611191
0.0045759609
0.0048037408
0.0050377905
0.0052719521
0.005501013
0.00572087
0.0059285151
0.0061219197
0.0062998768
0.006461836
0.0066077494
0.0067379385
0.0068529853
0.0069536429
0.007040767
0.0071152614
0.0071780449
0.0072300272
0.0072720794
0.0073050493
0.0073296972
0.0073467701
0.0073569207
0.0073608021
0.0073589522
0.0073518752
0.0073400349
0.007323942
0.007303802
0.0072801923
0.0072532958
0.0072234256
0.0071908354
0.0071557786
0.0071184293
0.0070789792
0.0070375936
0.0069944211
0.0069496332
0.0032001799
0.0032814756
0.0033624388
0.0034391257
0.003513057
0.0035889143
0.0036735429
0.003773849
0.0038950178
0.0040394663
0.0042066175
0.0043933682
0.004594949
0.0048058494
0.0050205793
0.0052341787
0.0054424859
0.0056422291
0.0058309996
0.0060071579
0.0061697128
0.0063181953
0.0064525413
0.0065729896
0.006679996
0.0067741629
0.0068561837
0.0069268031
0.0069867885
0.007036899
0.0070778829
0.0071104459
0.0071352611
0.0071529811
0.0071641775
0.0071693942
0.0071691478
0.0071638914
0.0071540243
0.0071399272
0.0071220774
0.0071006499
0.0070760417
0.0070484728
0.0070182127
0.0069854402
0.0069503598
0.006913144
0.0068739463
0.006832966
0.003196971
0.0032712157
0.0033454089
0.0034157872
0.0034831147
0.0035507648
0.0036241866
0.0037093332
0.0038112092
0.0039328777
0.0040750303
0.0042361093
0.0044128303
0.0046008801
0.0047955855
0.0049924332
0.0051874037
0.0053771412
0.0055590039
0.0057310344
0.0058918855
0.0060407266
0.0061771471
0.0063010668
0.0064126555
0.0065122658
0.0066003775
0.0066775541
0.0067444105
0.0068015836
0.0068497154
0.0068894342
0.006921349
0.0069460513
0.0069640856
0.0069759822
0.0069822033
0.0069831992
0.0069793853
0.0069711347
0.006958846
0.0069428149
0.0069233834
0.006900746
0.0068752119
0.0068469985
0.0068162778
0.0067832323
0.0067480185
0.0067108756
0.0031940495
0.0032619351
0.0033299842
0.0033946689
0.0034562351
0.0035170551
0.0035814017
0.0036542876
0.0037403115
0.0038427843
0.0039632239
0.0041012576
0.0042548778
0.0044209178
0.0045955895
0.0047749619
0.0049553189
0.0051333819
0.0053064184
0.0054722703
0.0056293258
0.0057764609
0.0059129676
0.0060384788
0.0061528991
0.0062563421
0.0063490768
0.0064314841
0.0065040218
0.0065671951
0.0066215359
0.0066675815
0.0067058675
0.0067369223
0.0067612482
0.0067793285
0.0067916086
0.0067985276
0.0068004587
0.0067977754
0.0067908887
0.006780082
0.0067656599
0.0067478613
0.0067270049
0.0067032796
0.0066768581
0.0066479424
0.0066167135
0.0065834152
0.0031913876
0.0032535438
0.0033160332
0.0033755785
0.0034320771
0.0034871446
0.0035440853
0.003607042
0.0036800958
0.0037665331
0.0038683452
0.0039860091
0.0041185531
0.0042638399
0.0044189626
0.0045806492
0.0047456052
0.0049107614
0.005073425
0.0052313512
0.0053827577
0.0055263014
0.0056610323
0.0057863376
0.0059018842
0.0060075641
0.0061034452
0.0061897295
0.0062667177
0.0063347795
0.0063943305
0.0064458121
0.0064896778
0.0065263859
0.0065563859
0.0065801143
0.0065979867
0.0066104038
0.0066177308
0.0066203394
0.0066185842
0.0066127666
0.0066031764
0.0065900894
0.0065737726
0.0065544123
0.0065322462
0.006507426
0.0064801537
0.0064506705
0.0031889611
0.0032459608
0.0033034346
0.003358347
0.0034103634
0.0034605334
0.0035113774
0.0035662667
0.0036287294
0.0037018564
0.0037878474
0.0038877416
0.00400136
0.0041274386
0.0042638917
0.004408126
0.0045573429
0.0047087838
0.0048599041
0.0050084777
0.0051526443
0.0052909181
0.0054221681
0.005545582
0.0056606231
0.0057669858
0.0058645523
0.0059533546
0.0060335405
0.0061053446
0.0061690643
0.0062250399
0.0062736388
0.0063152441
0.0063502438
0.0063790235
0.0064019589
0.0064194151
0.0064317381
0.0064392684
0.0064423382
0.0064412572
0.0064362809
0.006427693
0.006415743
0.0064006521
0.0063826158
0.0063618165
0.0063384211
0.0063127249
0.0031867481
0.0032391122
0.003292076
0.0033428217
0.0033908606
0.0034368224
0.0034826005
0.0035309021
0.0035847149
0.0036468383
0.0037194945
0.0038040535
0.0039009061
0.0040094904
0.0041284427
0.0042558228
0.0043893585
0.0045266695
0.0046654443
0.0048035649
0.0049391791
0.0050707339
0.0051969799
0.0053169558
0.0054299604
0.0055355194
0.00563335
0.005723328
0.0058054569
0.0058798404
0.0059466591
0.0060061504
0.0060585924
0.0061042907
0.0061435664
0.0061767487
0.0062041676
0.0062261487
0.0062430092
0.0062550607
0.0062626093
0.0062659402
0.0062653094
0.0062609977
0.0062532239
0.0062422178
0.0062281689
0.0062112763
0.00619171
0.0061696927
0.0031847292
0.0032329313
0.0032818528
0.003328862
0.0033733659
0.0034156836
0.0034572124
0.0035000987
0.0035468304
0.0035998728
0.0036613487
0.0037327838
0.0038149482
0.0039078147
0.0040106232
0.0041220257
0.0042402697
0.0043633872
0.0044893601
0.0046162491
0.0047422839
0.0048659147
0.004985836
0.0051009895
0.0052105517
0.0053139125
0.0054106493
0.0055004997
0.0055833354
0.0056591373
0.0057279735
0.0057899803
0.0058453457
0.0058942957
0.0059370829
0.0059739759
0.0060052536
0.0060311989
0.0060520934
0.0060682167
0.0060798452
0.0060872422
0.0060906548
0.006090333
0.0060864954
0.006079376
0.006069153
0.0060560271
0.0060401499
0.0060217096
0.0031828873
0.0032273573
0.0032726674
0.0033163369
0.0033576979
0.0033968398
0.0034347697
0.003473168
0.0035140762
0.0035596182
0.0036117455
0.003672014
0.0037414206
0.0038203218
0.0039084377
0.0040049309
0.0041085333
0.004217693
0.0043307184
0.0044459014
0.0045616122
0.0046763653
0.0047888575
0.0048979848
0.0050028447
0.0051027273
0.005197098
0.0052855781
0.0053679236
0.0054440038
0.0055137819
0.0055772975
0.0056346506
0.0056859878
0.0057314913
0.0057713684
0.0058058436
0.0058351528
0.0058595379
0.0058792434
0.005894514
0.0059055874
0.0059126935
0.0059160591
0.005915895
0.0059124109
0.0059058015
0.0058962763
0.0058839317
0.0058689372
0.0031812071
0.0032223351
0.003264429
0.0033051232
0.0033436904
0.0033800493
0.0034149009
0.0034495426
0.0034856273
0.0035249523
0.0035692614
0.0036200573
0.0036784477
0.0037450453
0.003819934
0.0039026969
0.0039924945
0.0040881713
0.0041883718
0.0042916496
0.0043965602
0.0045017316
0.0046059131
0.0047080035
0.0048070643
0.0049023219
0.0049931602
0.0050791086
0.0051598258
0.0052350842
0.0053047524
0.0053687803
0.005427184
0.0054800335
0.0055274412
0.0055695519
0.0056065349
0.0056385768
0.0056658766
0.0056886407
0.0057070802
0.0057214047
0.0057318212
0.0057385339
0.0057417381
0.0057416285
0.0057384024
0.005732239
0.0057232421
0.0057115473
0.0031796751
0.003217815
0.003257053
0.0032951043
0.0033311884
0.0033650949
0.0033972852
0.0034287445
0.0034607934
0.0034949299
0.0035326785
0.0035754376
0.0036243425
0.0036801612
0.0037432379
0.0038134871
0.0038904329
0.0039732785
0.0040609941
0.004152407
0.0042462858
0.0043414093
0.0044366204
0.0045308625
0.0046232015
0.0047128359
0.0047990988
0.0048814533
0.0049594823
0.0050328774
0.0051014254
0.0051649958
0.0052235277
0.0052770186
0.0053255137
0.0053690963
0.00540788
0.0054420016
0.0054716153
0.0054968878
0.0055179942
0.0055351142
0.0055484285
0.0055581179
0.0055643596
0.0055673303
0.0055672109
0.0055641661
0.0055582883
0.0055497265
0.0031782787
0.0032137527
0.0032504611
0.0032861695
0.0033200444
0.0033517757
0.0033816369
0.0034103598
0.003438985
0.0034687443
0.0035009475
0.0035368623
0.0035775951
0.0036239927
0.0036765743
0.0037355046
0.0038006028
0.003871384
0.0039471186
0.0040269037
0.0041097325
0.0041945596
0.0042803525
0.0043661337
0.0044510079
0.0045341795
0.004614961
0.0046927749
0.0047671505
0.0048377167
0.004904193
0.0049663798
0.005024148
0.0050774283
0.0051262033
0.0051704971
0.0052103692
0.0052459064
0.0052772178
0.0053044293
0.0053276795
0.0053471153
0.0053628895
0.0053751578
0.0053840766
0.0053898023
0.0053924922
0.0053922931
0.0053893145
0.0053837005
0.0031770074
0.0032101064
0.0032445802
0.0032782131
0.0033101166
0.0033399015
0.0033676929
0.0033940184
0.0034196854
0.0034456938
0.0034731538
0.003503192
0.0035368523
0.0035750049
0.0036182775
0.0036670139
0.0037212654
0.0037808068
0.003845175
0.0039137191
0.0039856572
0.0040601302
0.004136252
0.0042131497
0.0042899956
0.0043660287
0.0044405687
0.0045130231
0.0045828892
0.0046497523
0.0047132804
0.0047732175
0.0048293758
0.004881628
0.0049298987
0.0049741579
0.0050144126
0.0050507017
0.0050830895
0.0051116611
0.005136518
0.0051577739
0.0051755515
0.0051899801
0.0052011925
0.0052093237
0.005214509
0.005216878
0.0052165455
0.0052136434
0.0031758516
0.0032068396
0.0032393413
0.0032711332
0.0033012663
0.0033292866
0.0033552028
0.0033793778
0.0034024268
0.0034251518
0.0034484836
0.0034734097
0.0035008927
0.0035317906
0.0035667885
0.0036063532
0.0036507103
0.0036998451
0.0037535215
0.0038113161
0.0038726594
0.0039368805
0.0040032495
0.0040710164
0.0041394423
0.0042078245
0.0042755137
0.0043419254
0.0044065464
0.004468937
0.0045287296
0.0045856253
0.0046393893
0.0046898443
0.0047368651
0.0047803716
0.0048203231
0.0048567126
0.0048895616
0.0049189151
0.0049448378
0.0049674096
0.0049867231
0.0050028796
0.0050159875
0.0050261592
0.0050335088
0.0050381498
0.0050401903
0.0050397474
0.003174803
0.0032039189
0.0032346796
0.0032648299
0.003293355
0.0033197461
0.0033439199
0.0033661084
0.0033867697
0.0034065403
0.003426194
0.0034465886