/*--------------------------------*- C++ -*----------------------------------*\
| =========                 |                                                 |
| \\      /  F ield         | OpenFOAM: The Open Source CFD Toolbox           |
|  \\    /   O peration     | Version:  2312                                  |
|   \\  /    A nd           | Website:  www.openfoam.com                      |
|    \\/     M anipulation  |                                                 |
\*---------------------------------------------------------------------------*/
FoamFile
{
    version     2.0;
    format      ascii;
    arch        "LSB;label=32;scalar=64";
    class       volScalarField;
    location    "0.07";
    object      N2;
}
// * * * * * * * * * * * * * * * * * * * * * * * * * * * * * * * * * * * * * //

dimensions      [0 0 0 0 0 0 0];

internalField   nonuniform List<scalar> 
3275
(
0.023540649
0.10428867
0.19115277
0.26603455
0.32751962
0.37645558
0.41630887
0.44921852
0.47683059
0.50025005
0.52035128
0.53491103
0.54905504
0.56126312
0.57180713
0.58098228
0.58903402
0.59616336
0.60252784
0.60825079
0.61342966
0.61814329
0.62245622
0.62642107
0.63008141
0.63347369
0.63662861
0.63957224
0.64232689
0.64491172
0.64734336
0.64963625
0.65180307
0.65385493
0.65580168
0.65765204
0.6594138
0.66109391
0.66269864
0.66423362
0.66570394
0.66711426
0.66846877
0.66977134
0.67102559
0.67223479
0.67340187
0.67452962
0.67562063
0.6766773
0.67770189
0.67869645
0.036543497
0.12906843
0.21096226
0.28015851
0.33727973
0.38294858
0.42079493
0.45238586
0.47913766
0.50196492
0.52164209
0.5359526
0.5498741
0.56191846
0.572341
0.58142393
0.58940443
0.59647785
0.6027978
0.60848482
0.61363434
0.61832375
0.62261648
0.62656431
0.6302102
0.6335901
0.63673436
0.63966874
0.6424153
0.64499304
0.64741842
0.64970576
0.65186763
0.65391506
0.65585784
0.65770462
0.65946313
0.66114031
0.66274236
0.6642749
0.665743
0.66715126
0.6685039
0.66980476
0.67105741
0.6722651
0.6734308
0.67455726
0.67564707
0.67670262
0.67772616
0.67871977
0.073415898
0.17974689
0.24964044
0.30739046
0.35612821
0.39545322
0.42943655
0.45856237
0.48366359
0.50534156
0.52419154
0.53801557
0.55149611
0.56321913
0.57340217
0.58230282
0.59014226
0.59710481
0.60333638
0.60895201
0.61404319
0.61868439
0.62293687
0.62685078
0.63046785
0.63382308
0.63694605
0.63986194
0.64259236
0.64515592
0.64756878
0.64984501
0.65199698
0.65403555
0.65597037
0.65780997
0.65956199
0.66123327
0.66282996
0.6643576
0.66582122
0.66722537
0.66857424
0.66987162
0.67112105
0.67232575
0.67348867
0.67461255
0.67569996
0.67675328
0.67777473
0.6787664
0.15570266
0.25924563
0.30384398
0.34506887
0.38245846
0.41286334
0.44167687
0.46742365
0.49021199
0.51025793
0.5279234
0.54105064
0.55388282
0.56514007
0.5749733
0.58360653
0.59123842
0.59803746
0.60413842
0.60964839
0.61465309
0.61922273
0.62341541
0.62727889
0.63085306
0.63417152
0.63726276
0.64015109
0.64285742
0.64539981
0.64779396
0.65005359
0.65219076
0.65421608
0.65613899
0.65796785
0.65971015
0.66137261
0.66296126
0.66448156
0.66593847
0.66733646
0.66867966
0.66997182
0.67121643
0.67241664
0.67357541
0.67469543
0.67577924
0.6768292
0.67784753
0.67883629
0.32384105
0.36081659
0.37135527
0.38962205
0.41241712
0.43523711
0.45704684
0.47853084
0.49851763
0.51654739
0.53273133
0.54498895
0.55698151
0.56764623
0.57702982
0.58531735
0.59267987
0.59926604
0.60519651
0.61056822
0.61545955
0.61993522
0.62404924
0.62784629
0.63136391
0.63463385
0.63768317
0.64053506
0.64320952
0.64572388
0.64809326
0.6503309
0.65244844
0.65445619
0.6563633
0.6581779
0.6599073
0.66155803
0.66313601
0.66464657
0.66609454
0.66748435
0.66882001
0.67010522
0.6713434
0.67253766
0.67369089
0.67480578
0.67588481
0.67693031
0.67794447
0.67892935
0.59160002
0.46730118
0.43638278
0.43388833
0.44247354
0.4571104
0.47414399
0.4907412
0.50771224
0.52358229
0.53815311
0.54947215
0.56051363
0.57051934
0.57939677
0.58729264
0.5943485
0.60069136
0.60642631
0.61163901
0.6163996
0.62076668
0.62478963
0.62850965
0.63196158
0.6351751
0.63817563
0.64098506
0.64362234
0.64610399
0.64844444
0.65065636
0.65275096
0.65473815
0.65662676
0.65842467
0.66013894
0.66177594
0.66334141
0.66484053
0.66627803
0.66765822
0.66898503
0.67026209
0.67149271
0.67267998
0.67382672
0.67493558
0.67600899
0.67704925
0.67805853
0.67903883
0.68545162
0.54486446
0.49124275
0.4734575
0.47227357
0.47930375
0.49100963
0.50372008
0.51735882
0.53104856
0.54395013
0.55431634
0.56434009
0.5736479
0.58198428
0.58945905
0.59618359
0.6022625
0.60778456
0.61282358
0.617441
0.62168887
0.62561166
0.62924681
0.63262626
0.63577744
0.63872399
0.6414864
0.64408249
0.64652785
0.64883617
0.65101954
0.65308863
0.65505295
0.65692098
0.65870031
0.66039774
0.66201944
0.66357096
0.66505733
0.66648315
0.66785262
0.66916956
0.6704375
0.6716597
0.67283917
0.67397866
0.67508078
0.67614792
0.67718233
0.67818615
0.67916135
0.72171547
0.60413192
0.54116074
0.51221714
0.50214399
0.50245507
0.50858134
0.51772913
0.52816477
0.53936403
0.55044923
0.55981877
0.56871212
0.57723653
0.58496528
0.5919644
0.5983126
0.60409021
0.60936821
0.6142074
0.61865956
0.62276947
0.62657606
0.63011254
0.63340759
0.63648605
0.63936955
0.64207697
0.64462482
0.64702766
0.64929831
0.65144815
0.65348728
0.65542472
0.65726855
0.65902601
0.66070362
0.66230729
0.66384237
0.66531372
0.66672577
0.66808258
0.66938787
0.67064506
0.67185732
0.67302757
0.67415851
0.67525267
0.6763124
0.6773399
0.67833726
0.67930642
0.73773146
0.64576885
0.5829369
0.5478199
0.53099359
0.52548886
0.52685554
0.53216722
0.53984021
0.54847178
0.55754839
0.56592023
0.57363549
0.5812706
0.58833328
0.59480737
0.60073742
0.60617834
0.61118226
0.61579606
0.62006116
0.62401439
0.62768867
0.63111253
0.63431103
0.63730617
0.64011731
0.64276152
0.64525386
0.64760771
0.64983491
0.65194605
0.65395057
0.65585693
0.65767276
0.6594049
0.66105955
0.66264233
0.66415836
0.66561228
0.66700834
0.66835046
0.66964222
0.67088692
0.67208763
0.67324716
0.67436816
0.67545307
0.67650418
0.67752364
0.67851349
0.67947563
0.74599118
0.67462423
0.61679786
0.57935114
0.55804856
0.54792325
0.54519158
0.54705377
0.55184394
0.55832194
0.56528997
0.57240892
0.57909163
0.58572826
0.59207591
0.59798225
0.60345666
0.60852823
0.61322977
0.6175937
0.62165053
0.62542871
0.62895469
0.63225197
0.6353417
0.63824278
0.64097207
0.64354467
0.64597404
0.64827223
0.65045001
0.65251709
0.65448216
0.65635308
0.65813694
0.65984016
0.66146857
0.66302746
0.66452168
0.66595564
0.6673334
0.66865869
0.66993494
0.67116531
0.67235276
0.6735
0.67460958
0.67568387
0.67672509
0.67773532
0.67871654
0.67967061
0.75091255
0.69479192
0.64373995
0.60662664
0.58282078
0.56931725
0.56318625
0.56205434
0.56418486
0.56847334
0.57364333
0.57925195
0.58498499
0.59062233
0.59617495
0.6014789
0.60646546
0.61113853
0.61551172
0.61960281
0.62343115
0.62701651
0.63037853
0.63353547
0.63650426
0.63930049
0.64193838
0.64443085
0.64678964
0.64902535
0.65114759
0.65316508
0.65508572
0.65691667
0.65866446
0.66033501
0.66193375
0.66346562
0.66493515
0.66634652
0.66770354
0.66900974
0.6702684
0.67148252
0.67265492
0.67378821
0.67488482
0.67594705
0.67697702
0.67797675
0.67894817
0.67989306
0.7542049
0.70919212
0.66500772
0.62983549
0.60507924
0.58933504
0.58056238
0.57684746
0.57667786
0.5788223
0.58236779
0.58656365
0.59113927
0.59594051
0.60060885
0.60528287
0.60975549
0.61400511
0.61802684
0.62182412
0.62540508
0.62878073
0.63196375
0.6349669
0.63780279
0.64048349
0.64302042
0.64542421
0.64770473
0.64987105
0.65193151
0.65389377
0.65576485
0.65755118
0.65925865
0.66089266
0.66245818
0.66395978
0.66540164
0.66678765
0.66812139
0.66940616
0.67064504
0.67184089
0.67299637
0.67411396
0.67519598
0.67624462
0.67726193
0.67824984
0.6792102
0.68014475
0.7565989
0.71975597
0.68179651
0.64937855
0.62479343
0.60777468
0.59707655
0.59126352
0.58905623
0.58935799
0.5912677
0.59419469
0.59764412
0.6015005
0.60540175
0.60937533
0.613315
0.61712097
0.62077154
0.62425643
0.62757284
0.63072309
0.63371286
0.63654937
0.63924074
0.64179545
0.64422199
0.64652859
0.64872315
0.65081311
0.65280548
0.65470678
0.65652309
0.65826003
0.65992283
0.66151632
0.66304497
0.66451293
0.66592402
0.66728182
0.66858963
0.66985052
0.67106737
0.67224284
0.67337943
0.67447949
0.67554522
0.67657868
0.67758183
0.67855652
0.67950451
0.68042749
0.75844071
0.72772528
0.69512342
0.66574503
0.64207274
0.62454859
0.61256251
0.60512204
0.60120562
0.59987912
0.60033384
0.60198083
0.60441323
0.60730414
0.61047847
0.61376406
0.61712907
0.62047629
0.62373982
0.62689657
0.62993329
0.63284395
0.63562729
0.63828503
0.64082081
0.64323943
0.64554637
0.64774741
0.64984839
0.65185506
0.65377301
0.65560758
0.65736383
0.65904655
0.66066025
0.66220914
0.66369717
0.66512804
0.66650517
0.66783181
0.66911096
0.67034544
0.67153789
0.67269079
0.67380646
0.67488709
0.67593474
0.67695136
0.6779388
0.67889881
0.67983307
0.68074318
0.75991207
0.73389753
0.70579846
0.67943096
0.65711199
0.63965883
0.62692396
0.61829238
0.61299806
0.6102746
0.60943272
0.60991344
0.6113179
0.61335864
0.61575112
0.61841814
0.621194
0.62405852
0.62692333
0.62973934
0.6324836
0.63514221
0.63770726
0.64017508
0.64254487
0.64481779
0.6469963
0.64908364
0.65108358
0.65300012
0.65483737
0.65659943
0.65829032
0.65991395
0.66147406
0.66297422
0.66441781
0.66580805
0.66714796
0.66844041
0.66968809
0.67089354
0.67205917
0.67318722
0.67427985
0.67533907
0.6763668
0.67736485
0.67833495
0.67927875
0.68019784
0.68109374
0.76111826
0.73879184
0.71444344
0.69089339
0.67014809
0.65317184
0.64012337
0.63068692
0.62432812
0.62044688
0.61846792
0.6179017
0.61835464
0.61954703
0.6212423
0.62324906
0.62550177
0.62785979
0.63031139
0.63277749
0.63521917
0.63761529
0.63995168
0.64221958
0.64441388
0.64653215
0.64857384
0.65053971
0.6524314
0.65425112
0.65600149
0.65768534
0.65930561
0.66086527
0.66236728
0.66381453
0.66520982
0.66655585
0.6678552
0.66911037
0.6703237
0.67149744
0.67263374
0.67373462
0.67480203
0.6758378
0.67684368
0.67782137
0.67877245
0.67969846
0.68060089
0.68148117
0.76212572
0.74275343
0.72152699
0.70053002
0.68142911
0.66519562
0.65216945
0.64225647
0.63511851
0.63030931
0.62736526
0.62586577
0.62545908
0.62586345
0.62685855
0.62827837
0.62997122
0.63188234
0.63389476
0.63600183
0.63813367
0.64025905
0.64235816
0.64441747
0.6464278
0.64838325
0.65028037
0.65211744
0.653894
0.65561048
0.65726798
0.65886803
0.66041247
0.66190334
0.66334276
0.66473293
0.66607602
0.66737422
0.66862966
0.6698444
0.67102044
0.67215974
0.67326415
0.67433547
0.67537541
0.67638562
0.6773677
0.67832317
0.67925349
0.68016007
0.68104429
0.68190749
0.76297944
0.74601784
0.72740011
0.70867485
0.69119431
0.67586109
0.66310476
0.65298431
0.64531816
0.63979471
0.63605473
0.6337486
0.63256568
0.63225859
0.6325962
0.63342781
0.634622
0.63605405
0.63768003
0.63940301
0.64121901
0.64306779
0.6449229
0.64676648
0.64858554
0.65037094
0.65211645
0.65381797
0.65547296
0.65708011
0.65863899
0.66014984
0.6616134
0.66303073
0.66440314
0.66573207
0.6670191
0.66826586
0.66947398
0.67064513
0.67178093
0.672883
0.67395293
0.67499223
0.67600241
0.67698493
0.67794117
0.67887252
0.67978028
0.68066575
0.68153016
0.68237475
0.76371116
0.74874938
0.73232629
0.71560244
0.69966304
0.68530797
0.6729947
0.66287952
0.65489923
0.6488545
0.64447958
0.64149404
0.63963447
0.6386732
0.63841655
0.63869471
0.63938806
0.64039193
0.64160402
0.6429889
0.64446647
0.64603429
0.64764073
0.6492631
0.65088493
0.6524941
0.65408183
0.65564171
0.65716924
0.65866137
0.66011621
0.66153273
0.66291053
0.66424973
0.66555078
0.66681442
0.66804156
0.66923327
0.67039071
0.67151509
0.67260767
0.67366972
0.67470252
0.67570734
0.67668544
0.67763806
0.67856641
0.67947169
0.68035506
0.68121767
0.68206063
0.68288503
0.76434422
0.75106472
0.73650311
0.72153557
0.7070297
0.69367494
0.68191819
0.67197059
0.66385346
0.6574571
0.65259615
0.64905431
0.64661481
0.64507927
0.64427177
0.6440469
0.64426699
0.64484009
0.64568058
0.64670478
0.64788328
0.64915087
0.65050507
0.65190254
0.65332264
0.6547506
0.65617533
0.65758828
0.65898307
0.66035503
0.66170082
0.66301817
0.6643056
0.66556226
0.66678779
0.66798217
0.66914568
0.67027881
0.67138222
0.67245669
0.67350307
0.6745223
0.67551534
0.67648318
0.67742684
0.67834734
0.6792457
0.68012293
0.68098004
0.68181803
0.68263787
0.76489628
0.75304877
0.74007918
0.72665326
0.71346271
0.70109342
0.68996049
0.68029949
0.67218835
0.66558578
0.66037313
0.65639112
0.65346726
0.65143436
0.65013862
0.6494447
0.64923042
0.64939647
0.64986245
0.6505608
0.65142282
0.65242294
0.6535095
0.65467881
0.65589423
0.65713725
0.65839484
0.65965647
0.66091398
0.66216119
0.66339339
0.66460713
0.66579988
0.66696987
0.66811589
0.66923721
0.67033347
0.67140458
0.67245069
0.67347215
0.6744694
0.67544302
0.67639366
0.67732204
0.6782289
0.67911505
0.6799813
0.68082848
0.68165743
0.682469
0.68326407
0.76538099
0.75476476
0.7431671
0.73109759
0.71910567
0.70768404
0.69720783
0.68791675
0.67992336
0.67323637
0.66779046
0.66347527
0.66015885
0.65770454
0.65598041
0.65486495
0.65424787
0.65403585
0.6541477
0.6545172
0.6550909
0.65581178
0.65665657
0.65758721
0.65859409
0.65964978
0.66073729
0.66184417
0.66296068
0.66407924
0.66519386
0.66630001
0.66739417
0.66847364
0.66953643
0.6705811
0.67160665
0.67261243
0.67359809
0.6745635
0.67550875
0.67643402
0.67733967
0.6782261
0.67909382
0.67994338
0.6807754
0.68159052
0.6823894
0.68317274
0.68394128
0.76580911
0.75626078
0.7458536
0.73498063
0.72407774
0.71355465
0.70374383
0.69487738
0.68708654
0.68041477
0.67483791
0.67028604
0.66666282
0.66385997
0.66176718
0.66027852
0.65929581
0.65873246
0.65851293
0.65857219
0.65885458
0.65931804
0.65991517
0.66062669
0.66141982
0.66228281
0.66319861
0.66414839
0.66512105
0.66610783
0.6671015
0.66809661
0.66908869
0.67007418
0.67105034
0.67201501
0.6729666
0.67390391
0.67482608
0.67573256
0.67662301
0.67749727
0.67835537
0.67919742
0.68002367
0.68083444
0.68163012
0.68241117
0.68317807
0.68393135
0.68467158
0.76618924
0.75757402
0.74820638
0.73839185
0.72847634
0.71879782
0.7096457
0.70123729
0.6937115
0.68713461
0.6815131
0.67680949
0.67295756
0.66987479
0.66747162
0.66565821
0.66434873
0.66346489
0.66293682
0.66270336
0.66271222
0.6629153
0.66327871
0.66377564
0.66436536
0.66503636
0.66577378
0.66656525
0.66739213
0.66824485
0.66911486
0.66999607
0.6708831
0.67177157
0.67265803
0.67353968
0.67441432
0.67528023
0.67613607
0.67698085
0.67781383
0.67863452
0.67944259
0.68023789
0.6810204
0.6817902
0.68254747
0.68329245
0.68402547
0.68474689
0.76652831
0.75873373
0.75027899
0.74140338
0.7323819
0.72349177
0.71498136
0.70704887
0.69983292
0.69341336
0.6878186
0.68303649
0.67902588
0.67572689
0.67306927
0.67097886
0.66938228
0.6682103
0.66739958
0.66689341
0.66664191
0.66660257
0.66673554
0.6670162
0.66741347
0.66789682
0.66846719
0.66908994
0.66977007
0.67048742
0.67123169
0.67199684
0.67277641
0.67356529
0.67435943
0.67515536
0.67595037
0.67674221
0.67752909
0.67830959
0.67908259
0.67984726
0.68060295
0.68134923
0.6820858
0.68281251
0.68352932
0.68423629
0.68493357
0.68562136
0.766832
0.75976322
0.75211426
0.74407391
0.73586137
0.72770319
0.7198102
0.71235937
0.70548365
0.69926935
0.69375967
0.68896164
0.68485444
0.68139766
0.67853846
0.67621749
0.67437348
0.67294659
0.67188053
0.67112378
0.67063004
0.67035836
0.6702752
0.67034674
0.67054899
0.67085881
0.67125448
0.67172533
0.67225109
0.67283196
0.67344892
0.67409664
0.674767
0.67545424
0.6761539
0.67686182
0.67757486
0.67829025
0.67900579
0.67971965
0.68043036
0.68113673
0.68183782
0.6825329
0.68322142
0.68390301
0.6845774
0.68524447
0.68590417
0.68655657
0.76710499
0.7606813
0.75374684
0.74645159
0.73897084
0.73148937
0.72418457
0.7172119
0.71069504
0.70472164
0.69934391
0.69458274
0.6904334
0.68687178
0.68386034
0.68135331
0.67930089
0.6776526
0.67635949
0.67537558
0.67465875
0.67417114
0.67387985
0.67375443
0.67376998
0.67390226
0.67413473
0.67445323
0.67483208
0.67527924
0.67576241
0.67629251
0.67685255
0.67743662
0.67804023
0.67865824
0.67928739
0.67992429
0.68056643
0.68121155
0.68185786
0.68250384
0.68314826
0.68379012
0.68442863
0.68506316
0.68569325
0.68631859
0.68693896
0.68755425
0.76735118
0.76150335
0.75520504
0.74857623
0.7417576
0.73489971
0.7281509
0.72164589
0.71549712
0.70978983
0.70458083
0.69990041
0.69575607
0.69213701
0.68901879
0.68636775
0.68414479
0.68230839
0.68081692
0.6796302
0.67871058
0.67802352
0.67753801
0.67722583
0.67706236
0.67702681
0.67709785
0.67726332
0.6775059
0.67781248
0.67817549
0.67858093
0.67903011
0.67950989
0.68001665
0.68054321
0.68108706
0.68164376
0.68221077
0.68278534
0.68336542
0.68394916
0.68453505
0.68512184
0.68570849
0.68629417
0.68687821
0.68746008
0.68803943
0.68861598
0.76757383
0.76224202
0.75651221
0.75048099
0.74426169
0.73797704
0.73175048
0.72569755
0.7199186
0.71449392
0.70948157
0.70491767
0.70081856
0.69718392
0.69400028
0.69124454
0.68888723
0.68689528
0.68523416
0.6838695
0.68276829
0.68189954
0.68123479
0.68074799
0.6804159
0.68021802
0.68013553
0.68015352
0.68025578
0.68043206
0.68067257
0.68095943
0.68130087
0.68167055
0.68208094
0.68251454
0.68297245
0.68344754
0.68393816
0.68444066
0.68495297
0.68547286
0.6859986
0.68652868
0.68706182
0.687597
0.68813334
0.68867016
0.68920691
0.68974316
0.7677757
0.76290786
0.75768776
0.75219366
0.74651723
0.74075859
0.73502014
0.72940014
0.72398685
0.71885407
0.71405863
0.70963966
0.7056195
0.70200576
0.69879383
0.6959696
0.69351214
0.69139606
0.68959358
0.688076
0.68681497
0.68578322
0.68495516
0.68430705
0.68381728
0.68346637
0.68323668
0.68311291
0.68308173
0.68312895
0.68324612
0.68342124
0.6836523
0.68391886
0.68423256
0.68456893
0.68494185
0.6853338
0.68574743
0.68617659
0.68662001
0.68707471
0.68753894
0.68801088
0.68848906
0.68897228
0.68945947
0.68994976
0.69044247
0.69093699
0.76795914
0.76350972
0.758748
0.75373773
0.7485534
0.7432768
0.73799273
0.73278419
0.72772789
0.7228904
0.71832558
0.71407335
0.71015979
0.7065982
0.70339086
0.7005311
0.69800533
0.69579507
0.69387874
0.69223305
0.6908342
0.68965873
0.68868406
0.68788891
0.68725351
0.68675978
0.6863912
0.68613305
0.68597214
0.68589596
0.6858949
0.68595725
0.68607911
0.6862489
0.68646062
0.68670798
0.68699426
0.68729957
0.68763719
0.68799162
0.68836559
0.688754
0.68915569
0.68956834
0.68999031
0.69042036
0.69085711
0.69129958
0.69174695
0.69219846
0.76812618
0.7640551
0.75970668
0.75513314
0.75039527
0.74556005
0.74069759
0.7358777
0.7311664
0.72662281
0.72229674
0.7182273
0.71444239
0.71095917
0.70778507
0.70491934
0.70235455
0.70007826
0.69807447
0.69632494
0.69481023
0.6935106
0.69240657
0.69147938
0.69071132
0.69008584
0.6895877
0.689203
0.68891912
0.68872445
0.68860893
0.68856288
0.68857916
0.68864821
0.68876576
0.68892555
0.68912047
0.68934683
0.68960661
0.68988315
0.6901885
0.69050947
0.69084805
0.69120054
0.69156524
0.6919412
0.69232644
0.69271998
0.69312092
0.69352827
0.76827855
0.76455039
0.76057552
0.75639695
0.75206452
0.74763319
0.74316095
0.7387063
0.73432562
0.73007078
0.72598696
0.72211128
0.71847203
0.71508867
0.71197231
0.70912671
0.70654948
0.70423328
0.70216704
0.70033709
0.69872809
0.69732388
0.69610803
0.69506436
0.69417726
0.69343191
0.69281442
0.69231192
0.69191258
0.69160552
0.69138095
0.69122979
0.69114419
0.69111721
0.69114127
0.6912109
0.69132185
0.6914695
0.69164743
0.69185287
0.69208839
0.69233893
0.6926149
0.69290656
0.693213
0.69353445
0.69386729
0.69421096
0.69456464
0.69492687
0.76841776
0.76500107
0.76136455
0.75754382
0.75357992
0.74951808
0.74540629
0.74129344
0.73722744
0.7332533
0.72941137
0.72573606
0.72225498
0.7189886
0.71595046
0.71314765
0.7105817
0.70824948
0.70614416
0.70425612
0.70257377
0.70108429
0.69977423
0.69862994
0.69763794
0.6967852
0.69605931
0.69544855
0.69494202
0.6945296
0.69420202
0.69395075
0.69376807
0.693647
0.69358077
0.69356441
0.69359172
0.69365838
0.69376096
0.69389569
0.69405755
0.69424267
0.69445708
0.69468512
0.69493193
0.69519962
0.69547906
0.69577213
0.69607809
0.69639439
0.76854513
0.76541187
0.76208242
0.75858643
0.75495782
0.75123396
0.7474546
0.74366054
0.73989232
0.73618867
0.73258519
0.72911318
0.72579877
0.72266253
0.71971931
0.71697853
0.71444469
0.71211798
0.70999512
0.70806997
0.70633431
0.7047784
0.70339154
0.70216256
0.7010801
0.70013294
0.69931016
0.69860134
0.69799658
0.69748661
0.6970628
0.69671716
0.69644235
0.69623161
0.69607868
0.69597813
0.69592457
0.69591397
0.69594137
0.69600295
0.69609648
0.69621747
0.69636686
0.69653362
0.69672493
0.69693679
0.69716059
0.69740248
0.69766114
0.69793064
0.76866181
0.7657869
0.76273663
0.75953578
0.75621253
0.75279784
0.74932469
0.74582714
0.74233936
0.73889449
0.73552359
0.73225469
0.72911201
0.72611545
0.72328036
0.7206176
0.71813377
0.71583166
0.7137108
0.71176801
0.70999796
0.70839369
0.70694707
0.70564922
0.70449083
0.70346247
0.70255477
0.7017586
0.70106516
0.70046609
0.69995349
0.69951997
0.69915867
0.69886321
0.69862767
0.69844668
0.69831526
0.698229
0.69818358
0.69817566
0.69820131
0.69825709
0.69834248
0.69845173
0.69858612
0.69873908
0.69891139
0.69910418
0.69931406
0.69953504
0.76876882
0.76612976
0.76333371
0.76040148
0.75735659
0.75422477
0.75103344
0.74781105
0.74458634
0.74138752
0.73824148
0.73517301
0.73220413
0.72935361
0.72663665
0.7240648
0.72164606
0.71938513
0.71728372
0.71534106
0.71355426
0.71191878
0.7104288
0.70907755
0.70785767
0.70676145
0.70578104
0.70490862
0.70413652
0.70345734
0.70286398
0.70234971
0.70190822
0.70153356
0.7012202
0.70096302
0.70075727
0.70059863
0.70048304
0.70040695
0.70036685
0.70035998
0.70038334
0.70043364
0.70051015
0.70060942
0.70073012
0.70087272
0.7010302
0.70120667
0.76886706
0.76644359
0.76387938
0.76119197
0.75840105
0.7555281
0.75259598
0.74962848
0.74664972
0.74368366
0.74075342
0.73788069
0.73508522
0.73238432
0.72979257
0.72732167
0.7249804
0.72277474
0.72070807
0.71878149
0.71699412
0.71534347
0.71382571
0.71243601
0.71116879
0.71001797
0.70897716
0.70803982
0.70719944
0.70644957
0.70578396
0.70519661
0.70468178
0.70423403
0.70384825
0.70351965
0.70324376
0.70301644
0.70283383
0.70269243
0.70258894
0.70252042
0.70248405
0.70247746
0.70249804
0.70254352
0.70261203
0.70270392
0.70281454
0.70294481
0.76895732
0.76673119
0.76437868
0.76191466
0.75935567
0.75671973
0.75402593
0.75129418
0.74854477
0.74579795
0.74307352
0.74039031
0.7377658
0.73521571
0.73275369
0.73039116
0.72813718
0.72599851
0.7239797
0.72208327
0.72030992
0.71865884
0.71712793
0.71571402
0.71441316
0.71322074
0.71213175
0.71114092
0.71024281
0.70943198
0.70870304
0.7080507
0.70746988
0.70695567
0.70650342
0.70610872
0.70576742
0.70547562
0.7052297
0.70502627
0.7048622
0.7047346
0.70464077
0.70457826
0.70454469
0.70453821
0.70455631
0.70459893
0.70466175
0.70474634
0.76904033
0.76699501
0.76483605
0.7625761
0.76022912
0.75781025
0.75533551
0.75282159
0.75028555
0.7477445
0.74521533
0.74271428
0.74025669
0.73785662
0.73552661
0.73327749
0.73111826
0.72905603
0.72709607
0.72524193
0.72349553
0.7218574
0.72032682
0.71890209
0.71758062
0.71635919
0.71523403
0.71420104
0.71325586
0.71239398
0.71161086
0.71090199
0.71026292
0.70968931
0.70917701
0.70872202
0.70832054
0.70796897
0.70766394
0.70740225
0.70718093
0.70699722
0.70684854
0.70673248
0.70664682
0.70658956
0.70655874
0.70655324
0.70657041
0.70661036
0.76911672
0.76723724
0.76525544
0.76318212
0.7610291
0.75880915
0.75653576
0.75422294
0.75188505
0.74953656
0.74719183
0.7448648
0.74256883
0.74031635
0.73811872
0.735986
0.73392681
0.73194833
0.7300562
0.72825462
0.7265464
0.7249331
0.72341512
0.72199191
0.72066212
0.71942368
0.71827397
0.71720994
0.71622823
0.71532526
0.7144973
0.71374057
0.71305129
0.71242571
0.71186017
0.71135113
0.71089515
0.71048898
0.71012951
0.70981378
0.70953903
0.70930263
0.70910214
0.70893528
0.70879993
0.70869411
0.70861599
0.70856392
0.70853688
0.70853277
0.76918706
0.76745983
0.76564037
0.76373789
0.76176248
0.75972492
0.7576366
0.75550933
0.75335522
0.7511865
0.74901534
0.74685371
0.74471314
0.74260456
0.7405381
0.73852294
0.7365672
0.73467782
0.73286057
0.73112001
0.72945951
0.72788139
0.72638693
0.72497652
0.72364976
0.7224056
0.72124242
0.72015811
0.71915022
0.71821602
0.71735256
0.71655677
0.71582553
0.71515566
0.71454401
0.7139875
0.7134831
0.7130279
0.71261909
0.71225398
0.71193002
0.71164478
0.71139598
0.71118147
0.71099923
0.7108474
0.71072422
0.71062812
0.71055767
0.71051128
0.76925188
0.76766453
0.76599396
0.76424806
0.76243541
0.76056519
0.75864703
0.75669091
0.75470706
0.75270582
0.75069754
0.74869243
0.74670043
0.74473106
0.74279328
0.74089537
0.73904479
0.73724813
0.73551104
0.73383821
0.73223335
0.73069927
0.72923789
0.72785032
0.72653695
0.72529753
0.72413129
0.72303696
0.72201288
0.72105709
0.72016738
0.71934134
0.71857646
0.71787013
0.71721974
0.71662263
0.71607619
0.71557788
0.71512521
0.71471575
0.71434721
0.71401738
0.71372415
0.71346552
0.71323962
0.71304469
0.71287907
0.71274124
0.71262979
0.71254337
0.76931164
0.76785293
0.76631904
0.76471676
0.76305342
0.76133682
0.75957516
0.75777688
0.75595066
0.75410525
0.75224943
0.75039193
0.74854128
0.74670574
0.74489317
0.74311094
0.74136583
0.73966396
0.73801071
0.73641073
0.73486786
0.7333852
0.73196509
0.73060918
0.72931845
0.72809332
0.72693367
0.72583895
0.72480819
0.72384012
0.72293317
0.72208556
0.72129536
0.72056049
0.71987882
0.71924816
0.71866631
0.71813108
0.71764031
0.71719189
0.71678375
0.71641392
0.7160805
0.71578167
0.71551569
0.71528094
0.71507587
0.71489906
0.71474914
0.71462487
0.76936677
0.76802645
0.76661816
0.76514773
0.76362147
0.76204602
0.76042836
0.75877567
0.75709531
0.75539472
0.75368136
0.75196267
0.75024598
0.74853841
0.74684684
0.74517776
0.74353726
0.74193093
0.7403638
0.73884034
0.73736436
0.73593909
0.73456712
0.73325045
0.7319905
0.73078818
0.72964393
0.72855773
0.72752923
0.72655773
0.72564222
0.72478149
0.72397413
0.72321857
0.72251313
0.72185607
0.72124557
0.72067981
0.72015696
0.71967519
0.71923273
0.71882782
0.71845878
0.71812398
0.71782185
0.7175509
0.71730973
0.717097
0.71691145
0.71675192
0.76941767
0.76818639
0.7668936
0.76554435
0.76414405
0.76269839
0.76121331
0.75969494
0.75814955
0.75658345
0.75500302
0.7534146
0.75182446
0.75023875
0.74866345
0.74710425
0.74556657
0.74405545
0.74257551
0.74113095
0.73972545
0.73836223
0.73704399
0.73577292
0.73455077
0.73337878
0.73225779
0.73118826
0.73017027
0.72920361
0.72828779
0.72742205
0.72660546
0.72583691
0.72511515
0.72443882
0.72380649
0.7232167
0.72266793
0.72215865
0.72168735
0.72125253
0.72085271
0.72048646
0.7201524
0.7198492
0.71957557
0.71933031
0.71911227
0.71892037
0.76946467
0.7683339
0.76714745
0.76590968
0.76462523
0.763299
0.76193609
0.76054172
0.75912121
0.75767999
0.75622349
0.75475711
0.75328625
0.7518162
0.75035213
0.74889902
0.74746166
0.74604453
0.74465185
0.74328747
0.74195488
0.74065718
0.73939707
0.73817684
0.73699839
0.73586322
0.73477244
0.73372684
0.73272687
0.73177271
0.73086427
0.73000121
0.72918298
0.72840889
0.72767805
0.72698949
0.72634214
0.72573484
0.72516638
0.72463554
0.72414105
0.72368166
0.72325612
0.72286319
0.72250168
0.7221704
0.72186825
0.72159413
0.72134702
0.72112593
0.76950811
0.76847007
0.7673816
0.76624648
0.76506871
0.76385251
0.76260225
0.7613224
0.76001753
0.75869226
0.75735123
0.7559991
0.75464047
0.75327992
0.7519219
0.75057076
0.74923069
0.74790569
0.74659951
0.74531568
0.74405742
0.74282766
0.74162902
0.74046379
0.73933392
0.73824104
0.73718647
0.73617121
0.735196
0.7342613
0.73336733
0.7325141
0.7317014
0.73092886
0.73019594
0.72950201
0.72884629
0.72822793
0.72764602
0.72709959
0.72658765
0.72610915
0.72566309
0.72524841
0.72486412
0.72450919
0.72418266
0.7238836
0.72361108
0.72336423
0.7695483
0.76859587
0.76759778
0.76655729
0.76547787
0.76436314
0.76321686
0.76204289
0.76084514
0.75962758
0.75839418
0.75714893
0.75589581
0.75463874
0.75338159
0.75212812
0.75088201
0.74964676
0.74842572
0.74722207
0.74603874
0.74487845
0.74374367
0.74263661
0.74155922
0.74051319
0.73949991
0.73852056
0.73757603
0.73666701
0.73579396
0.73495714
0.73415662
0.73339231
0.73266397
0.73197122
0.73131358
0.73069047
0.73010124
0.72954517
0.72902149
0.72852941
0.7280681
0.72763672
0.72723445
0.72686044
0.72651388
0.72619396
0.72589992
0.76958549
0.7687122
0.76779757
0.76684443
0.76585577
0.76483473
0.76378457
0.76270859
0.76161019
0.76049275
0.75935971
0.75821449
0.75706051
0.75590117
0.7547398
0.75357968
0.75242399
0.75127581
0.75013811
0.7490137
0.74790523
0.74681519
0.74574586
0.74469933
0.74367747
0.74268195
0.74171421
0.74077548
0.73986678
0.73898892
0.73814254
0.7373281
0.73654587
0.73579599
0.73507844
0.73439309
0.73373969
0.7331179
0.7325273
0.7319674
0.73143764
0.73093744
0.73046616
0.73002317
0.7296078
0.72921937
0.72885723
0.72852072
0.72820918
0.76961996
0.7688199
0.76798242
0.76711
0.76620524
0.76527085
0.76430964
0.7633245
0.76231833
0.76129409
0.76025472
0.75920318
0.75814242
0.75707536
0.7560049
0.75493386
0.75386502
0.75280107
0.7517446
0.75069809
0.74966393
0.74864432
0.74764137
0.746657
0.74569296
0.74475086
0.74383212
0.74293796
0.74206947
0.74122754
0.7404129
0.73962616
0.73886773
0.73813793
0.73743692
0.73676477
0.73612141
0.73550671
0.73492045
0.73436232
0.73383198
0.73332902
0.73285299
0.73240343
0.73197983
0.73158169
0.73120848
0.73085968
0.73053478
0.76965194
0.76891971
0.76815367
0.76735597
0.76652886
0.76567473
0.76479601
0.7638952
0.76297484
0.76203748
0.76108567
0.76012198
0.75914895
0.75816911
0.75718495
0.75619893
0.75521344
0.75423082
0.75325333
0.75228315
0.75132237
0.75037296
0.7494368
0.74851563
0.74761108
0.74672463
0.74585764
0.74501131
0.74418671
0.74338477
0.74260629
0.74185192
0.74112222
0.74041759
0.73973836
0.73908472
0.73845678
0.73785456
0.73727801
0.736727
0.73620134
0.7357008
0.73522509
0.73477389
0.73434687
0.73394366
0.73356388
0.73320713
0.73287302
0.76968163
0.76901234
0.76831254
0.76758411
0.76682903
0.76604937
0.76524729
0.76442496
0.76358459
0.76272841
0.76185864
0.7609775
0.7600872
0.75918991
0.7582878
0.75738297
0.7564775
0.75557339
0.75467261
0.75377705
0.75288853
0.75200877
0.75113943
0.75028207
0.74943816
0.74860904
0.74779597
0.74700009
0.74622243
0.7454639
0.74472533
0.7440074
0.74331073
0.7426358
0.74198303