/*--------------------------------*- C++ -*----------------------------------*\
| =========                 |                                                 |
| \\      /  F ield         | OpenFOAM: The Open Source CFD Toolbox           |
|  \\    /   O peration     | Version:  2312                                  |
|   \\  /    A nd           | Website:  www.openfoam.com                      |
|    \\/     M anipulation  |                                                 |
\*---------------------------------------------------------------------------*/
FoamFile
{
    version     2.0;
    format      ascii;
    arch        "LSB;label=32;scalar=64";
    class       volScalarField;
    location    "0.07";
    object      omega;
}
// * * * * * * * * * * * * * * * * * * * * * * * * * * * * * * * * * * * * * //

dimensions      [0 0 -1 0 0 0 0];

internalField   nonuniform List<scalar> 
3275
(
460.05574
476.5888
495.2364
516.29434
540.39312
567.72267
597.79404
629.43391
661.22252
691.81326
720.11681
745.62903
767.96221
786.62228
801.38272
812.02235
818.23335
821.02898
821.3234
819.74977
816.76055
812.68566
807.76926
802.19681
796.11093
789.62276
782.81998
775.77242
768.53628
761.15713
753.67221
746.11215
738.50228
730.86367
723.2139
715.56772
707.93751
700.33371
692.7651
685.23912
677.76201
670.33905
662.97465
655.67247
648.43566
641.26687
634.16798
627.1407
620.18638
613.30606
606.50048
599.77012
461.27618
477.77365
496.00936
516.89675
540.94644
568.25206
598.28288
629.84665
661.53872
692.02981
720.24415
745.6783
767.94449
786.55272
801.27405
811.88583
818.0805
820.86379
821.15047
819.57304
816.58303
812.50954
807.59606
802.02755
795.94625
789.46305
782.66542
775.62308
768.39213
761.01808
753.53812
745.98287
738.37764
730.74349
723.098
715.45592
707.82963
700.22958
692.66456
685.14201
677.66818
670.24836
662.88696
655.58769
648.35364
641.18744
634.09107
627.06621
620.11423
613.23616
606.43273
599.70445
463.64919
479.69143
497.25692
517.95048
541.97501
569.26545
599.22688
630.64538
662.15021
692.44736
720.48747
745.76847
767.90277
786.40879
801.05261
811.60892
817.77041
820.5292
820.80074
819.21603
816.22471
812.15421
807.24673
801.6862
795.61417
789.14098
782.35375
775.32193
768.10144
760.73767
753.26774
745.7222
738.12635
730.50121
722.86439
715.23061
707.61228
700.01983
692.4621
684.94651
677.47935
670.06591
662.71062
655.41721
648.18877
641.02792
633.93668
626.91677
619.96954
613.09603
606.29699
599.57294
466.63113
481.43115
498.50592
519.23109
543.36225
570.69644
600.5692
631.7814
663.01877
693.03735
720.82601
745.88449
767.8263
786.18271
800.71239
811.18642
817.29763
820.02049
820.2704
818.67579
815.68333
811.61797
806.71996
801.1718
795.11395
788.65602
781.88456
774.86867
767.664
760.31577
752.86097
745.33009
737.74838
730.13685
722.51309
714.89183
707.28549
699.70452
692.15777
684.65269
677.19559
669.79177
662.44569
655.16111
647.94113
640.78836
633.70489
626.69244
619.75238
612.88575
606.09333
599.37565
467.83307
481.74698
499.32065
520.51892
545.00092
572.46748
602.23124
633.18802
664.09206
693.76019
721.23054
746.00504
767.69962
785.86314
800.2445
810.61066
816.65428
819.33084
819.55397
817.94804
814.95561
810.89832
806.0139
800.48294
794.44456
788.00739
781.2573
774.2629
767.07952
759.75217
752.31769
744.80647
737.24371
729.6504
722.04412
714.43963
706.84933
699.28372
691.75166
684.26064
676.81698
669.42602
662.09227
654.81948
647.61081
640.46887
633.39579
626.39332
619.46283
612.60542
605.82185
599.11267
459.70207
479.99985
499.52905
521.68544
546.70141
574.36771
604.02923
634.69856
665.23794
694.52171
721.6403
746.09809
767.51473
785.4601
799.67227
809.91407
815.87763
818.50207
818.69668
817.08016
814.09005
810.04408
805.17704
799.66741
793.65278
787.24068
780.51624
773.54754
766.38955
759.08703
751.67666
744.18876
736.64845
729.07672
721.49112
713.90644
706.33511
698.78765
691.27294
683.79852
676.37074
668.99498
661.67578
654.41692
647.22159
640.09244
633.03163
626.04093
619.12175
612.2752
605.50207
598.80294
456.47646
478.12842
499.54064
522.80249
548.42008
576.29488
605.86049
636.23978
666.39344
695.27542
722.02437
746.14683
767.26671
784.97746
799.00627
809.11192
814.98566
817.55466
817.72082
816.09566
813.11078
809.07957
804.23362
798.74913
792.76205
786.37878
779.68365
772.74418
765.61498
758.34054
750.95742
743.4958
735.98079
728.43334
720.87102
713.30861
705.7586
698.23153
690.73632
683.28054
675.87059
668.51189
661.20901
653.96578
646.78543
639.67063
632.62359
625.6461
618.73961
611.90524
605.14383
598.45596
455.35036
476.61928
499.5611
523.95577
550.2167
578.3175
607.79105
637.86472
667.5976
696.03692
722.3794
746.13017
766.9179
784.36298
798.18266
808.13122
813.89874
816.40611
816.54329
814.91215
811.937
807.92607
803.10728
797.65425
791.70111
785.353
778.69337
771.78916
764.69454
757.45377
750.10323
742.67302
735.18819
727.66968
720.13507
712.59919
705.07454
697.57171
690.09967
682.66605
675.27729
667.93885
660.65536
653.43071
646.26814
639.17038
632.13968
625.17788
618.28645
611.46655
604.71904
598.04455
455.22816
475.80791
499.76402
525.16519
552.04813
580.37425
609.75269
639.50789
668.79846
696.76246
722.66603
746.01459
766.43982
783.58967
797.1756
806.94628
812.59079
815.03178
815.14135
813.50878
810.54955
806.56589
801.78161
796.36748
790.45564
784.14988
777.53271
770.67043
763.61682
756.41585
749.10374
741.71051
734.26117
726.77666
719.27459
711.76981
704.27489
696.80047
689.35558
681.9479
674.58394
667.26923
660.00843
652.8055
645.66374
638.58592
631.57434
624.63088
617.75707
610.95408
604.22284
597.56397
455.60644
475.73148
500.25061
526.44218
553.87111
582.39846
611.67209
641.09938
669.93489
697.40356
722.83898
745.76038
765.79964
782.62657
795.95506
805.52734
811.03244
813.40432
813.48999
811.86275
808.92756
804.97987
800.23891
794.87236
789.01027
782.75499
776.18807
769.37516
762.36964
755.2152
747.94793
740.59775
733.18967
725.74465
718.28033
710.81162
703.35115
695.90963
688.49617
681.11851
673.78325
666.49597
659.26142
652.0836
644.9659
637.91113
630.92165
623.99939
617.14593
610.3625
603.65003
597.00924
456.23057
476.23729
501.02472
527.77168
555.63507
584.31946
613.47308
642.56635
670.94021
697.90296
722.85069
745.32345
764.95833
781.4387
794.4865
803.84003
809.19083
811.49366
811.56194
809.94927
807.04848
803.14731
798.46009
793.1512
787.34851
781.15289
774.64493
767.88965
760.94002
753.83951
746.62406
739.32357
731.96304
724.56345
717.14253
709.71524
702.29431
694.89053
687.51311
680.16987
672.86749
665.61164
658.40715
651.2581
644.16793
637.13955
630.17537
623.27738
616.4472
609.68614
602.99518
596.37505
456.96004
477.12327
502.02039
529.11117
557.28184
586.06514
615.07804
643.83351
671.74506
698.19893
722.64805
744.65556
763.87078
779.98631
792.7309
801.84425
807.02955
809.26713
809.32776
807.74173
804.88807
801.04605
796.42473
791.18509
785.45274
779.32711
772.88782
766.19931
759.31417
752.27569
745.11972
737.87612
730.56994
723.22224
715.85081
708.47074
701.09484
693.73403
686.3976
679.0935
671.8285
664.60837
657.43803
650.32166
643.26277
636.26436
629.3289
622.45846
615.65473
608.91906
602.2525
595.65583
457.7092
478.20033
503.13341
530.39654
558.74694
587.56297
616.41021
644.82469
672.2786
698.22592
722.17158
743.70481
762.4876
778.22338
790.64488
799.49239
804.50873
806.68974
806.75613
805.21178
802.42057
798.65245
794.11108
788.95389
783.30423
777.26012
770.90029
764.28864
757.47745
750.50987
743.4217
736.24284
728.99841
721.70957
714.39424
707.06762
699.74267
692.43043
685.14034
677.88045
670.65766
663.47786
656.34607
649.26656
642.24297
635.27836
628.37529
621.53592
614.76201
608.05498
601.41593
594.84571
458.42094
479.30887
504.24374
531.54855
559.961
588.74075
617.39427
645.46435
672.46794
697.91559
721.35838
742.41309
760.75549
776.099
788.17877
796.72637
801.5856
803.72477
803.81425
802.32975
799.61891
795.94169
791.49622
786.43634
780.88319
774.93342
768.66496
762.14126
755.41438
748.52738
741.51608
734.41047
727.23579
720.01336
712.76123
705.4948
698.22717
690.96955
683.73152
676.52129
669.34589
662.21135
655.12282
648.08468
641.10067
634.17396
627.30723
620.50269
613.76221
607.08727
600.47906
593.93849
459.05012
480.31659
505.22807
532.47829
560.85062
589.52662
617.95633
645.67771
672.23921
697.19702
720.14218
740.71791
758.61543
773.55682
785.2783
793.49713
798.21715
800.33448
800.46836
799.06497
796.45498
792.88788
788.55622
783.6102
778.16884
772.32755
766.16356
759.73996
753.10867
746.31277
739.38818
732.36504
725.26877
718.12087
710.93963
703.74062
696.53716
689.34063
682.16081
675.00608
667.88364
660.79965
653.75941
646.76745
639.82762
632.94321
626.117
619.35133
612.64814
606.009
599.43518
592.92766
459.55357
481.10424
505.96268
533.09069
561.33869
589.84825
618.02331
645.39031
671.51774
695.99691
718.45265
738.5524
756.00253
770.53411
781.88441
789.7608
794.36125
796.48091
796.6843
795.3863
792.90007
789.46445
785.26636
780.45241
775.13961
769.42225
763.37699
757.0667
750.54327
743.84987
737.02263
730.0919
723.08336
716.01876
708.91665
701.79284
694.66089
687.53241
680.4174
673.32442
666.26087
659.23309
652.24654
645.30589
638.41515
631.57774
624.79655
618.07404
611.41226
604.81287
598.27722
591.80641
459.88147
481.55142
506.32724
533.28683
561.34411
589.63153
617.52158
644.52703
670.22731
694.23926
716.21514
735.84395
752.84599
766.96065
777.92933
785.46893
789.97581
792.127
792.42812
791.26259
788.92525
785.64448
781.60145
776.93933
771.77327
766.19657
760.28548
754.10276
747.70041
741.12182
734.40337
727.57576
720.66496
713.69307
706.67892
699.63865
692.58608
685.53309
678.48992
671.46539
664.46708
657.50156
650.57445
643.6906
636.85419
630.06878
623.33741
616.66265
610.04666
603.49124
596.99782
590.5676
459.97755
481.51915
506.20067
532.965
560.78125
588.79872
616.37506
643.01057
668.28898
691.84428
713.35
732.51347
749.06726
762.75781
773.33052
780.56991
785.01997
787.23676
787.66727
786.66323
784.5019
781.40106
777.53608
773.04698
768.04714
762.62905
756.86868
750.82884
744.56175
738.11114
731.51376
724.80072
717.99839
711.12925
704.21253
697.26469
690.2999
683.33035
676.36656
669.4176
662.49132
655.59448
648.73295
641.91177
635.13527
628.4072
621.73074
615.10862
608.54312
602.03615
595.58926
589.20374
459.92446
481.15445
505.45907
532.02276
559.55886
587.26641
614.50287
640.75931
665.61931
688.72684
709.77105
728.47431
744.57889
757.8366
767.97878
775.0126
779.4557
781.77679
782.37075
781.55925
779.60213
776.70777
773.04506
768.75134
763.93834
758.69789
753.10584
747.22516
741.10843
734.79982
728.33659
721.75032
715.06789
708.31223
701.50301
694.65709
687.78904
680.91139
674.03498
667.16919
660.32214
653.50086
646.71144
639.95914
633.2485
626.58344
619.96733
613.40304
606.89301
600.43927
594.04348
587.70703
459.7617
480.52144
504.18217
530.3563
557.58026
584.943
611.81659
637.68475
662.12814
684.79447
705.38359
723.63018
739.28298
752.10098
761.84835
768.75974
773.25019
775.71735
776.51031
775.92336
774.19981
771.53897
768.10375
764.02871
759.42411
754.38125
748.97601
743.27164
737.32122
731.16947
724.85423
718.40768
711.85726
705.22645
698.53541
691.8015
685.03968
678.26291
671.48239
664.70784
657.94769
651.20925
644.49888
637.82207
631.1836
624.58759
618.03759
611.53666
605.08738
598.69195
592.35214
459.51074
479.66218
502.49995
527.90564
554.7426
581.72522
608.21709
633.68833
657.71581
679.94475
700.08168
717.87272
733.06711
745.42545
754.91246
761.78426
766.37773
769.03325
770.06122
769.73096
768.27062
765.87069
762.68851
758.85605
754.48205
749.65745
744.45826
738.94813
733.18071
727.20139
721.0487
714.7555
708.34988
701.85593
695.29438
688.68311
682.03759
675.37121
668.69559
662.02082
655.35568
648.70781
642.08383
635.48953
628.92992
622.40935
615.93159
609.49986
603.11696
596.7852
590.50658
459.18563
478.60868
500.49757
524.89659
550.94774
577.49813
603.59092
628.65768
652.26996
674.06218
693.74443
711.07848
725.80328
737.80842
747.16032
754.07029
758.82023
761.70518
763.00287
762.96077
761.79271
759.68076
756.7774
753.21135
749.09051
744.50531
739.53195
734.23455
728.66745
722.87679
716.90186
710.77627
704.52885
698.18437
691.76419
685.28678
678.76816
672.22219
665.66097
659.09501
652.53346
645.9843
639.4545
632.95012
626.47645
620.03808
613.63902
607.28271
600.97211
594.70974
588.49775
458.79748
477.38839
498.23655
521.47751
546.47787
572.23975
597.80499
622.46163
645.66189
667.01458
686.23038
703.10514
717.47249
729.27821
738.59763
745.61353
750.56797
753.72006
755.31986
755.59531
754.74734
752.94958
750.35018
747.07429
743.22896
738.90445
734.17701
729.11125
723.76225
718.17697
712.39553
706.45237
700.37712
694.19527
687.92889
681.59709
675.21647
668.80146
662.36464
655.91697
649.46803
643.02619
636.59875
630.19211
623.81184
617.46282
611.1493
604.87494
598.64292
592.45595
586.31635
458.35625
476.02678
495.76577
517.75286
541.52894
566.25237
591.01468
615.04895
637.74298
658.65297
677.47829
694.02305
708.16503
719.8797
729.24459
736.42094
741.62009
745.07177
747.00223
747.62184
747.11937
745.66055
743.38885
740.42638
736.87856
732.83574
728.37424
723.55919
718.44635
713.08354
707.51174
701.76628
695.87762
689.87205
683.77239
677.59843
671.36742
665.09437
658.79241
652.47298
646.14613
639.82063
633.50417
627.20348
620.92448
614.67233
608.45154
602.26604
596.11923
590.01401
457.87139
474.54828
493.1272
513.80145
536.24345
559.75712
583.51441
606.74634
628.82159
649.2497
667.70504
683.98401
697.97757
709.67025
719.13395
726.51025
731.98461
735.76153
738.04611
739.03256
738.89808
737.80055
735.87839
733.25127
730.02235
726.28171
722.10582
717.56031
712.70179
707.57868
702.23291
696.70074
691.01348
685.19824
679.27863
673.27518
667.20582
661.08619
654.92998
648.74919
642.55432
636.3546
630.15813
623.97203
617.80254
611.65514
605.53466
599.44527
593.39063
587.3739
457.35194
472.9766
490.35871
509.68649
530.7294
552.9204
575.52662
597.81447
619.14925
639.0333
657.10074
673.1313
687.01035
698.71664
708.30921
715.90923
721.67834
725.79813
728.45416
729.82529
730.07738
729.36043
727.80752
725.53544
722.64561
719.22671
715.35557
711.0981
706.51165
701.64543
696.54218
691.23905
685.76822
680.15765
674.43176
668.61185
662.71656
656.76219
650.76303
644.73165
638.67905
632.61496
626.54789
620.48537
614.43401
608.39964
602.38738
596.40171
590.44656
584.52532
456.8066
471.33458
487.4953
505.46119
525.07179
545.87055
567.22332
588.45384
608.94573
628.19894
645.8347
661.60047
675.36552
687.09298
696.82313
704.65495
710.72672
715.1981
718.23585
720.00379
720.65645
720.33559
719.16872
717.26908
714.73636
711.65753
708.10923
704.15766
699.86062
695.26811
690.42363
685.36532
680.12602
674.73461
669.21633
663.59326
657.88476
652.10781
646.27734
640.4065
634.50684
628.58857
622.66068
616.7311
610.80685
604.89412
598.99836
593.12436
587.27633
581.45794
456.24354
469.64397
484.56964
501.1718
519.33966
538.70885
558.74017
578.82609
598.38485
616.92237
634.05945
649.52021
663.14616
674.87914
684.73648
692.7931
699.16356
703.98573
707.40774
709.57826
710.64015
710.72654
709.95886
708.4463
706.28612
703.56386
700.35503
696.72614
692.73508
688.4326
683.86284
679.06474
674.072
668.91427
663.61757
658.20478
652.69599
647.10887
641.45901
635.76014
630.02438
624.26245
618.48383
612.6969
606.90907
601.12692
595.35627
589.60223
583.86928
578.16139
455.67035
467.9252
481.61209
496.8593
513.59054
531.51682
550.18598
569.06321
587.61232
605.3572
621.9162
637.01299
650.45554
662.15959
672.11704
680.37738
687.0308
692.19318
695.99371
698.5656
700.0395
700.53932
700.17981
699.0655
697.2905
694.93872
692.0843
688.79326
685.12371
681.12671
676.847
672.32414
667.59259
662.68282
657.62163
652.43259
647.13652
641.75178
636.29461
630.77936
625.21871
619.62392
614.00496
608.37065
602.72885
597.08655
591.44992
585.82441
580.21482
574.62541
455.09395
466.19709
478.65062
492.56024
507.87321
524.36119
541.64918
559.27404
576.75144
593.63272
609.54229
624.19481
637.39644
649.0224
659.0387
667.46882
674.37821
679.86037
684.02518
686.9898
688.87207
689.78599
689.83889
689.12997
687.74959
685.77925
683.29178
680.35201
677.01788
673.3406
669.36534
665.13207
660.67592
656.02803
651.21595
646.26397
641.19358
636.02379
630.7715
625.45165
620.07748
614.6608
609.2121
603.74064
598.25475
592.76182
587.2684
581.78029
576.30261
570.83992
454.52052
464.47668
475.71064
488.30727
502.22951
517.29731
533.20232
549.54894
565.90714
581.86242
597.05308
611.19138
624.07078
635.55842
645.58062
654.13526
661.26307
667.03499
671.54117
674.88219
677.16239
678.48508
678.94943
678.64853
677.66833
676.08727
673.97627
671.39895
668.41229
665.06743
661.40971
657.47936
653.31206
648.93941
644.38966
639.68773
634.85572
629.91333
624.87805
619.76539
614.58914
609.36167
604.09398
598.79577
593.47584
588.14203
582.80124
577.45963
572.12268
566.79521
453.95546
462.77912
472.81492
484.12928
496.69545
510.37142
524.90539
539.96325
555.16885
570.14602
584.55326
598.10675
610.59117
621.8603
631.82636
640.4506
647.74974
653.77228
658.58844
662.28172
664.94229
666.66206
667.53124
667.63603
667.05726
665.86962
664.14146
661.9348
659.30547
656.3038
652.97512
649.35972
645.49357
641.40874
637.13388
632.69445
628.11317
623.41035
618.60399
613.71019
608.74326
603.71611
598.64024
593.52576
588.38201
583.2172
578.03863
572.85284
567.6656
562.48207
453.4034
461.11761
469.98344
480.0516
491.30193
503.62228
516.80808
530.57982
544.61279
558.57095
572.13777
585.03917
597.05666
608.03162
617.86283
626.4941
633.90919
640.13482
645.22139
649.23502
652.25121
654.34976
655.61113
656.11391
655.93301
655.13876
653.79626
651.96526
649.70022
647.05033
644.06023
640.77017
637.21617
633.4305
629.44213
625.27698
620.95823
616.50665
611.9408
607.2773
602.53082
597.71501
592.84173
587.92148
582.96416
577.97833
572.97168
567.95113
562.92276
557.89203
452.86823
459.50337
467.23341
476.09602
486.07525
497.08225
508.95146
521.45096
534.30359
547.21344
559.89206
572.07998
583.56095
594.16878
603.78787
612.34932
619.81825
626.1921
631.50193
635.79655
639.1364
641.58864
643.22333
644.11067
644.31898
643.91347
642.95537
641.5016
639.60456
637.31221
634.66802
631.71168
628.47908
625.00252
621.31108
617.43094
613.38564
609.19636
604.88208
600.45981
595.94472
591.35103
586.69087
581.97525
577.21456
572.41765
567.59263
562.74681
557.88653
553.01755
452.35308
457.94574
464.57929
472.28093
481.03742
490.77806
501.36925
512.61985
524.29565
536.13941
547.89234
559.31329
570.19303
580.36264
589.69646
598.11061
605.55873
612.01986
617.49912
622.02838
625.653
628.42712
630.40987
631.66241
632.24578
632.2194
631.63999
630.56103
629.03233
627.09998
624.80626
622.18976
619.28581
616.12652
612.74092
609.15526
605.39328
601.47641
597.42396
593.25331
588.98011
584.61884
580.18208
575.68129
571.12718
566.52899
561.89523
557.23359
552.5506
547.85236
451.86043
456.4522
462.03287
468.62143
476.20643
484.7314
494.08869
504.12167
514.63418
525.40515
536.20569
546.8155
557.03628
566.70088
575.6779
583.87228
591.22308
597.69923
603.28854
607.99992
611.86394
614.92165
617.22085
618.81317
619.75177
620.08966
619.87843
619.1675
618.00358
616.43035
614.48838
612.21506
609.64469
606.80877
603.7361
600.45281
596.98264
593.34714
589.56583
585.65636
581.63475
577.51566
573.3121
569.03592
564.69804
560.30816
555.87514
551.40686
546.91027
542.39176
451.39212
455.02856
459.6034
465.12944
471.59653
478.95933
487.13122
495.98447
505.35603
515.05791
524.89026
534.65495
544.16762
553.26677
561.81935
569.72297
576.90535
583.32179
588.95145
593.78732
597.83964
601.13656
603.71448
605.61516
606.88341
607.56526
607.70662
607.3523
606.54533
605.32653
603.73423
601.80418
599.56951
597.0607
594.30592
591.331
588.1595
584.81292
581.31081
577.67101
573.90975
570.04183
566.08057
562.03816
557.92575
553.75334
549.53011
545.26417
540.96292
536.63311
450.94942
453.67903
457.29777
461.81393
467.21842
473.4747
480.51312
488.22992
496.49049
505.13646
513.99538
522.89162
531.65673
540.138
548.20439
555.74986
562.69417
568.98173
574.57926
579.47254
583.65734
587.14378
589.95703
592.12888
593.69549
594.6955
595.16864
595.1546
594.69223
593.81897
592.5705
590.98046
589.08037
586.89959
584.46525
581.80251
578.9346
575.88274
572.6664
569.30341
565.81006
562.20126
558.49055
554.69031
550.81189
546.86556
542.8607
538.80576
534.70846
530.57585
450.53313
452.4064
455.12067
458.68106
463.07951
468.28645
474.2459
480.87386
488.05987
495.6716
503.56183
511.57693
519.56541
527.38562
534.91162
542.03709
548.67706
554.768
560.26653
565.14728
569.40017
573.02211
576.02236
578.4229
580.25114
581.53811
582.31697
582.62186
582.487
581.946
581.03142
579.77439
578.20444
576.34935
574.23514
571.88594
569.32425
566.57091
563.64509
560.56443
557.34516
554.00217
550.54909
546.99844
543.36169
539.64928
535.87078
532.0349
528.14966
524.22228
450.14357
451.2122
453.0748
455.7345
459.1842
463.39996
468.33681
473.92692
480.08014
486.68671
493.62218
500.75372
507.94706
515.0731
522.01339
528.66418
534.93882
540.76868
546.10281
550.90668
555.16034
558.85622
561.99118
564.57336
566.62159
568.15922
569.21264
569.81012
569.98085
569.75425
569.15932
568.2243
566.97633
565.4413
563.64366
561.60644
559.3511
556.89775
554.26508
551.47038
548.52966
545.45765
542.26796
538.97309
535.58458
532.11297
528.56795
524.95844
521.29272
517.578
449.78073
450.09685
451.16113
452.97558
455.53411
458.81735
462.78918
467.39499
472.56151
478.19833
484.20113
490.45631
496.84643
503.25564
509.57465
515.70462
521.55984
527.06926
532.17683
536.84105
541.03381
544.73884
547.94995
550.66317
552.88556
554.63299
555.92505
556.78396
557.23365
557.29895
557.00502
556.37682
555.43877
554.21447
552.72655
550.99653
549.04472
546.89023
544.55098
542.04369
539.384
536.58636
533.66416
530.62983
527.49482
524.2697
520.96422
517.58742
514.14779
510.6524
449.44427
449.0598
449.37906
450.40361
452.12841
454.53781
457.60286
461.27967
465.50896
470.21667
475.31604
480.71084
486.29954
491.97967
497.65209
503.22456
508.6145
513.75079
518.57465
523.03975
527.11168
530.76697
533.99184
536.78073
539.1283
541.04087
542.53147
543.61626
544.31375
544.644
544.62803
544.28722
543.64294
542.71623
541.52757
540.09666
538.44238
536.58264
534.53438
532.31355
529.93513
527.41316
524.7607
521.98992
519.11213
516.1378
513.07667
509.93776
506.72945
503.45915
449.13356
448.09972
447.7267
448.01614
448.96407
450.55796
452.7746
455.57883
458.92284
462.74629
466.97749
471.53565
476.33387
481.28268
486.29349
491.28181
496.16982
500.88829
505.3778
509.58926
513.48382
517.03245
520.21505
523.01944
525.44022
527.47048
529.11616
530.3875
531.29759
531.86167
532.0964
532.01938
531.64869
531.00251
530.09889
528.95549
527.58943
526.0172
524.25453
522.31644
520.21704
517.96975
515.58711
513.08095
510.46227
507.74135
504.92778
502.03048
499.05771
496.01704
448.8478
447.21457
446.20103
445.8092
446.03621
446.87213
448.29844
450.287
452.79938
455.78664
459.18991
462.94182
466.96871
471.1933
475.53751
479.92516
484.28432
488.54922
492.66155
496.57128
500.23693
503.62551
506.71205
509.47894
511.91498
514.01408
515.76908
517.18469
518.26884
519.03194
519.4863
519.64558
519.52437
519.13781
518.50128
517.63014
516.53956
515.24432
513.75877
512.09671
510.27132
508.29514
506.18007
503.93736
501.57763
499.11082
496.54626
493.89267
491.15817
488.35034
448.58601
446.40178
444.79808
443.77754
443.33834
443.47277
444.1661
445.39586
447.13127
449.33275
451.95222
454.93385
458.21569
461.73163
465.41363
469.19397
473.0073
476.79238
480.49339
484.06093
487.45248
490.63266
493.57303
496.25176
498.6531
500.76664
502.58417
504.0999
505.31707
506.24149
506.88115
507.24577
507.34636
507.19488
506.80386
506.18618
505.35483
504.32274
503.10261
501.70687
500.14752
498.43612
496.58374
494.60093
492.49772
490.28358
487.9675
485.5579
483.06268
480.48924
448.34707
445.65837
443.51315
441.91485
440.86268
440.35071
440.36734
440.89472
441.90817
443.37586
445.2586
447.51041
450.0795
452.90975
455.94249
459.11823
462.37844
465.66709
468.93188
472.12524
475.20502
478.13477
480.88395
483.42773
485.74673
487.82656
489.65727
491.2283
492.53607
493.58211
494.37031
494.90651
495.19816
495.25398
495.08356
494.69718
494.1055
493.31938
492.34977
491.20751
489.90327
488.44744
486.85012
485.12102
483.26944
481.30427
479.23398
477.06659
474.8097
472.47044
448.12979
444.98103
442.34099
440.21405
438.60036
437.49553
436.89044
436.77092
437.11732
437.90401
439.09919
440.66508
442.55862
444.73248
447.13645
449.71881
452.42779
455.21285
458.02586
460.82203
463.56059
466.20528
468.72459
471.09187
473.28516
475.28698
477.08388
478.66591
480.02175
481.14888
482.04737
482.71943
483.16905
483.40174
483.42417
483.24393
482.86925
482.30886
481.57176
480.6671
479.60405
478.39171
477.03904
475.55475
473.94733
472.22495
470.39543
468.4663
466.44469
464.33742
447.93291
444.36623
441.27598
438.66748
436.54179
434.89582
433.72243
433.01038
432.74402
432.90277
433.46083
434.38723
435.64627
437.19823
439.00038
441.00812
443.1761
445.45932
447.81415
450.19913
452.5757
454.90871
457.16674
459.32231
461.35193
463.23598
464.95854
466.5071
467.8698
469.03784
470.00803
470.77927
471.35231
471.72959
471.91491
471.91319
471.73025
471.37257
470.84717
470.16137
469.32277
468.33902
467.21782
465.96679
464.59346
463.10514
461.50896
459.81178
458.02023
456.14064
447.75516
443.81034
440.31223
437.26714
434.67693
432.53959
430.84957
429.59795
428.7722
428.3558
428.32782
428.66285
429.33132
430.29995
431.53256
432.99088
434.63551
436.42677
438.32557
440.29412
442.29661
444.29968
446.2728
448.18856
450.0228
451.75461
453.36631
454.84319
456.17327
457.34358
458.34775
459.18166
459.84314
460.33177
460.64864
460.79612
460.77762
460.59743
460.26051
459.77236
459.13887
458.36621
457.46072
456.42883
455.27696
454.01152
452.63879
451.16492
449.59592
447.59525
443.30967
439.44378
436.00487
432.99552
430.41457
428.25773
426.51788
425.18495
424.24556
423.68267
423.47541
423.5992
424.02619
424.72575
425.66519
426.81043
428.12675
429.57946
431.13454
432.7592
434.42233
436.09492
437.75031
439.36441
440.9158
442.38579
443.75829
445.01973
446.15674
447.15926
448.02069
448.7363
449.30314
449.7198
449.98626
450.10367
450.07417
449.90073
449.587
449.13718
448.55588
447.84803
447.01878
446.07342
445.01732
443.85585
442.59435
441.23808
447.45192
442.8606
438.66474
434.87259
431.48736
428.50854
425.93279
423.75436
421.96503
420.55387
419.50684
418.80669
418.43293
418.36213
418.56834
419.02364
419.69864
420.56312
421.5865
422.73843
423.98924
425.31035
426.67463
428.05671
429.43316
430.78268
432.08618
433.32675
434.48958
435.56165
436.53017
437.38648
438.12374
438.73679
439.22207
439.57739
439.80181
439.89546
439.85942
439.69555
439.40637
438.99494
438.46476
437.81968
437.0638
436.2014
435.23686
434.17465
433.01924
447.32398
442.45963
437.96941
433.86251
430.14262
426.80971
423.86109
421.29198
419.09553
417.26261
415.78151
414.63775
413.81409
413.2907
413.04549
413.05456
413.29258
413.73326
414.34979
415.11528
416.00312
416.98735
418.04296
419.14618
420.27472
421.40786
422.52667
423.614
424.65452
425.63466
426.54094
427.36301
428.09227
428.72178
429.24611
429.66121
429.9643
430.1537
430.22871
430.18952
430.03705
429.77287
429.39906
428.91817
428.33308
427.64697
426.86322
425.98534
425.01698
447.21027
442.10347
437.35249
432.96737
428.95217
425.3071
422.02987
419.11629
416.56043
414.35446
412.48834
410.9497
409.72379
408.79367
408.14038
407.74332
407.58061
407.62939
407.86619
408.26727
408.80893
409.46779
410.22106
411.04679
411.92405
412.83314
413.75569
414.67475
415.57488
416.44212
417.26303
418.0261
418.72148
419.34082
419.87721
420.32506
420.67998
420.93871
421.09901
421.15951
421.11968
420.97964
420.74017
420.40252
419.9684
419.43988
418.8193
418.10925
417.31248
447.10978
441.7892
436.80924
432.18073
427.9079
423.99099
420.42778
417.21436
414.34531
411.81359
409.61031
407.72464
406.1437
404.85274
403.83532
403.07355
402.54841
402.23995
402.12763
402.19054
402.40765
402.75804
403.22113
403.77685
404.40585
405.08962
405.81069
406.55266
407.30031
408.03963
408.7575
409.44181
410.08185
410.66829
411.19309
411.64944
412.03166
412.33517
412.55636
412.69255
412.74184
412.7031
412.57584
412.36014
412.05656
411.66611
411.19011
410.63022
409.98831
447.0216
441.51431
436.33573
431.49733
427.00324
422.85345
419.04553
415.57549
412.43801
409.62642
407.13255
404.94653
403.05688
401.45049
400.11286
399.02829
398.1801
397.5508
397.12238
396.87641
396.7943
396.8574
397.04725
397.34566
397.7349
398.19786
398.7181
399.28003
399.86893
400.47104
401.07373
401.66466
402.23268
402.76783
403.26129
403.70534
404.09332
404.41955
404.67934
404.86883
404.98502
405.02562
404.98903
404.87424
404.68076
404.4086
404.05812
403.63006
403.12543
446.94502
441.27692
435.92914
430.91345
426.23357
421.8889
417.87645
414.19177
410.82928
407.78229
405.04289
402.60183
400.44849
398.57101
396.95635
395.59056
394.45885
393.54582
392.83559
392.31192
391.95839
391.75845
391.69559
391.75347
391.91598
392.16742
392.49253
392.87667
393.30584
393.76675
394.24733
394.73532
395.21945
395.68943
396.13596
396.55071
396.9263
397.25624
397.53495
397.75767
397.92041
398.01994
398.05368
398.01966
397.91647
397.74318
397.49929
397.18465
396.79945
446.87954
441.076
435.58808
430.42742
425.59683
421.09469
416.91703
413.05856
409.5131
406.27356
403.33196
400.67928
398.30547
396.19951
394.3495
392.74282
391.36627
390.20617
389.24849
388.4789
387.8829
387.44586
387.15312
386.99002
386.94207
386.99494
387.13462
387.34747
387.62034
387.94069
388.29694
388.6771
389.07003
389.46537
389.85362
390.22609
390.57488
390.89297
391.1741
391.41278
391.60429
391.74459
391.83029
391.85863
391.82737
391.73478
391.57955
391.36076
391.07779
446.82497
440.91149
435.31293
430.03994
425.09376
420.47117
416.16679
412.17413
408.48602
405.0947
401.99185
399.16841
396.61465
394.32014
392.27386
390.46427
388.87946
387.50723
386.33515
385.35059
384.5408
383.89288
383.39386
383.03074
382.79048
382.66014
382.6269
382.67816
382.80161
382.98609
383.21989
383.49159
383.79036
384.10603
384.42904
384.75055
385.0624
385.35717
385.62815
385.86934
386.07543
386.24175
386.36429
386.43961
386.4648
386.43744
386.35553
386.21742
386.02176
446.78143
440.78461
435.10604
429.75414
424.72762
420.02102
415.62709
411.53776
407.74465