/*--------------------------------*- C++ -*----------------------------------*\
| =========                 |                                                 |
| \\      /  F ield         | OpenFOAM: The Open Source CFD Toolbox           |
|  \\    /   O peration     | Version:  2312                                  |
|   \\  /    A nd           | Website:  www.openfoam.com                      |
|    \\/     M anipulation  |                                                 |
\*---------------------------------------------------------------------------*/
FoamFile
{
    version     2.0;
    format      ascii;
    arch        "LSB;label=32;scalar=64";
    class       volScalarField;
    location    "0.07";
    object      p;
}
// * * * * * * * * * * * * * * * * * * * * * * * * * * * * * * * * * * * * * //

dimensions      [1 -1 -2 0 0 0 0];

internalField   nonuniform List<scalar> 
3275
(
99985.877
99984.557
99992.636
99995.292
99996.576
99996.606
99995.664
99994.581
99993.418
99992.076
99991.799
99991.111
99989.536
99989.038
99988.5
99988.088
99987.785
99987.578
99987.445
99987.372
99987.346
99987.36
99987.407
99987.479
99987.574
99987.687
99987.816
99987.956
99988.105
99988.263
99988.426
99988.594
99988.765
99988.938
99989.111
99989.283
99989.453
99989.621
99989.785
99989.946
99990.101
99990.252
99990.397
99990.535
99990.668
99990.794
99990.914
99991.026
99991.132
99991.231
99991.324
99991.409
99985.235
99981.136
99990.532
99993.38
99995.287
99995.791
99995.09
99994.189
99993.146
99991.895
99991.662
99991.011
99989.486
99989.005
99988.484
99988.085
99987.792
99987.593
99987.466
99987.398
99987.376
99987.392
99987.441
99987.516
99987.612
99987.726
99987.854
99987.995
99988.145
99988.302
99988.465
99988.632
99988.802
99988.974
99989.145
99989.316
99989.485
99989.651
99989.814
99989.973
99990.127
99990.276
99990.42
99990.557
99990.689
99990.814
99990.932
99991.044
99991.149
99991.247
99991.338
99991.423
99991.884
99975.34
99986.046
99989.53
99992.829
99994.247
99993.976
99993.408
99992.6
99991.525
99991.374
99990.795
99989.367
99988.913
99988.425
99988.049
99987.775
99987.589
99987.474
99987.414
99987.398
99987.42
99987.473
99987.55
99987.649
99987.765
99987.894
99988.035
99988.185
99988.343
99988.505
99988.672
99988.841
99989.012
99989.183
99989.352
99989.52
99989.685
99989.846
99990.004
99990.156
99990.304
99990.446
99990.582
99990.712
99990.836
99990.953
99991.063
99991.167
99991.264
99991.355
99991.439
100003.37
99964.745
99978.499
99983.902
99989.456
99992.049
99992.424
99992.3
99991.812
99990.984
99990.947
99990.471
99989.182
99988.766
99988.325
99987.983
99987.735
99987.569
99987.468
99987.42
99987.414
99987.443
99987.501
99987.583
99987.685
99987.803
99987.935
99988.077
99988.228
99988.386
99988.548
99988.715
99988.883
99989.053
99989.223
99989.391
99989.558
99989.721
99989.881
99990.037
99990.189
99990.335
99990.475
99990.61
99990.739
99990.861
99990.977
99991.086
99991.189
99991.285
99991.375
99991.457
99929.813
99934.118
99967.147
99977.485
99985.426
99989.267
99990.638
99990.994
99990.834
99990.299
99990.401
99990.056
99988.941
99988.57
99988.188
99987.89
99987.674
99987.533
99987.452
99987.419
99987.424
99987.462
99987.528
99987.616
99987.722
99987.843
99987.977
99988.121
99988.273
99988.432
99988.595
99988.761
99988.929
99989.098
99989.267
99989.435
99989.6
99989.762
99989.921
99990.075
99990.225
99990.369
99990.508
99990.642
99990.769
99990.89
99991.004
99991.112
99991.214
99991.309
99991.397
99991.479
99725.593
99882.693
99955.478
99971.437
99981.474
99986.291
99988.634
99989.657
99989.799
99989.541
99989.787
99989.59
99988.665
99988.342
99988.028
99987.778
99987.6
99987.488
99987.429
99987.413
99987.432
99987.48
99987.554
99987.648
99987.76
99987.885
99988.022
99988.168
99988.322
99988.481
99988.645
99988.811
99988.979
99989.148
99989.316
99989.482
99989.646
99989.807
99989.964
99990.117
99990.265
99990.408
99990.545
99990.677
99990.803
99990.922
99991.035
99991.142
99991.242
99991.336
99991.423
99991.504
99819.694
99878.438
99948.353
99966.321
99977.724
99983.519
99986.679
99988.252
99988.775
99988.767
99989.136
99989.089
99988.379
99988.095
99987.855
99987.657
99987.52
99987.438
99987.403
99987.405
99987.438
99987.499
99987.581
99987.683
99987.8
99987.929
99988.07
99988.218
99988.374
99988.534
99988.698
99988.865
99989.032
99989.2
99989.367
99989.533
99989.695
99989.855
99990.01
99990.162
99990.308
99990.45
99990.586
99990.716
99990.84
99990.957
99991.069
99991.174
99991.273
99991.366
99991.452
99991.531
99895.562
99891.765
99945.554
99962.577
99974.497
99980.991
99984.723
99986.744
99987.685
99987.971
99988.424
99988.527
99988.06
99987.821
99987.656
99987.516
99987.424
99987.377
99987.368
99987.391
99987.441
99987.514
99987.607
99987.717
99987.84
99987.975
99988.119
99988.27
99988.428
99988.589
99988.754
99988.921
99989.089
99989.256
99989.422
99989.587
99989.748
99989.906
99990.061
99990.21
99990.355
99990.495
99990.629
99990.758
99990.88
99990.996
99991.106
99991.21
99991.308
99991.399
99991.484
99991.562
99915.854
99903.757
99945.12
99960.205
99971.894
99978.705
99982.832
99985.23
99986.531
99987.148
99987.676
99987.917
99987.698
99987.529
99987.432
99987.355
99987.312
99987.303
99987.324
99987.37
99987.438
99987.525
99987.63
99987.748
99987.878
99988.019
99988.167
99988.322
99988.482
99988.645
99988.811
99988.979
99989.147
99989.314
99989.479
99989.643
99989.803
99989.96
99990.113
99990.261
99990.405
99990.543
99990.675
99990.802
99990.923
99991.037
99991.146
99991.248
99991.344
99991.434
99991.518
99991.594
99920.402
99912.973
99945.63
99958.843
99969.855
99976.686
99981.065
99983.765
99985.356
99986.27
99986.936
99987.287
99987.275
99987.223
99987.189
99987.175
99987.186
99987.217
99987.27
99987.341
99987.428
99987.532
99987.649
99987.777
99987.915
99988.062
99988.215
99988.374
99988.537
99988.702
99988.87
99989.038
99989.206
99989.373
99989.538
99989.701
99989.86
99990.016
99990.167
99990.314
99990.456
99990.593
99990.723
99990.849
99990.968
99991.081
99991.188
99991.289
99991.383
99991.472
99991.554
99991.63
99925.19
99921.128
99946.721
99958.241
99968.339
99974.984
99979.466
99982.383
99984.212
99985.374
99986.188
99986.655
99986.807
99986.894
99986.939
99986.98
99987.046
99987.121
99987.207
99987.304
99987.414
99987.534
99987.664
99987.804
99987.951
99988.104
99988.263
99988.426
99988.592
99988.76
99988.929
99989.098
99989.267
99989.434
99989.599
99989.761
99989.919
99990.074
99990.224
99990.37
99990.51
99990.645
99990.774
99990.898
99991.016
99991.127
99991.233
99991.332
99991.425
99991.512
99991.593
99991.667
99930.906
99928.58
99948.284
99958.24
99967.308
99973.615
99978.072
99981.113
99983.134
99984.482
99985.429
99986.033
99986.324
99986.538
99986.684
99986.774
99986.894
99987.015
99987.136
99987.262
99987.394
99987.532
99987.677
99987.828
99987.984
99988.146
99988.31
99988.478
99988.648
99988.819
99988.99
99989.16
99989.329
99989.497
99989.661
99989.823
99989.981
99990.134
99990.284
99990.428
99990.567
99990.7
99990.828
99990.95
99991.066
99991.176
99991.28
99991.378
99991.47
99991.556
99991.635
99991.708
99936.404
99935.174
99950.172
99958.699
99966.707
99972.574
99976.902
99979.983
99982.132
99983.625
99984.691
99985.416
99985.846
99986.172
99986.406
99986.569
99986.735
99986.9
99987.059
99987.214
99987.369
99987.526
99987.687
99987.85
99988.017
99988.186
99988.357
99988.53
99988.704
99988.878
99989.051
99989.223
99989.394
99989.561
99989.726
99989.887
99990.045
99990.197
99990.345
99990.488
99990.626
99990.758
99990.885
99991.005
99991.12
99991.228
99991.331
99991.427
99991.518
99991.602
99991.68
99991.751
99941.413
99940.894
99952.242
99959.49
99966.47
99971.838
99975.959
99979.009
99981.224
99982.823
99983.992
99984.821
99985.376
99985.799
99986.115
99986.359
99986.577
99986.781
99986.976
99987.161
99987.341
99987.518
99987.694
99987.871
99988.048
99988.226
99988.404
99988.583
99988.761
99988.938
99989.114
99989.288
99989.459
99989.628
99989.793
99989.954
99990.111
99990.263
99990.41
99990.552
99990.688
99990.819
99990.944
99991.063
99991.176
99991.283
99991.384
99991.479
99991.568
99991.651
99991.728
99991.798
99945.966
99945.841
99954.389
99960.507
99966.531
99971.377
99975.235
99978.197
99980.427
99982.091
99983.341
99984.262
99984.918
99985.428
99985.824
99986.142
99986.419
99986.663
99986.89
99987.105
99987.309
99987.506
99987.699
99987.89
99988.078
99988.265
99988.451
99988.635
99988.818
99988.999
99989.178
99989.354
99989.527
99989.696
99989.861
99990.022
99990.179
99990.33
99990.477
99990.618
99990.753
99990.883
99991.006
99991.124
99991.235
99991.341
99991.441
99991.534
99991.622
99991.704
99991.779
99991.848
99950.086
99950.131
99956.542
99961.67
99966.828
99971.156
99974.719
99977.548
99979.749
99981.444
99982.749
99983.743
99984.487
99985.07
99985.539
99985.924
99986.257
99986.547
99986.805
99987.046
99987.275
99987.493
99987.703
99987.907
99988.107
99988.303
99988.497
99988.688
99988.876
99989.061
99989.242
99989.421
99989.595
99989.766
99989.932
99990.093
99990.25
99990.401
99990.546
99990.686
99990.821
99990.949
99991.071
99991.188
99991.298
99991.402
99991.5
99991.593
99991.679
99991.759
99991.833
99991.901
99953.78
99953.863
99958.651
99962.919
99967.308
99971.138
99974.392
99977.057
99979.195
99980.888
99982.225
99983.272
99984.086
99984.736
99985.266
99985.712
99986.095
99986.428
99986.723
99986.989
99987.24
99987.479
99987.706
99987.924
99988.136
99988.342
99988.543
99988.741
99988.934
99989.123
99989.309
99989.49
99989.666
99989.838
99990.005
99990.166
99990.323
99990.473
99990.619
99990.758
99990.891
99991.019
99991.14
99991.255
99991.364
99991.467
99991.564
99991.655
99991.74
99991.819
99991.891
99991.957
99957.067
99957.118
99960.683
99964.211
99967.926
99971.29
99974.233
99976.715
99978.762
99980.428
99981.775
99982.857
99983.722
99984.429
99985.015
99985.51
99985.939
99986.311
99986.64
99986.936
99987.207
99987.464
99987.708
99987.941
99988.164
99988.38
99988.59
99988.794
99988.993
99989.187
99989.376
99989.56
99989.738
99989.912
99990.079
99990.242
99990.398
99990.549
99990.694
99990.832
99990.965
99991.091
99991.211
99991.325
99991.433
99991.535
99991.631
99991.72
99991.804
99991.882
99991.953
99992.018
99959.976
99959.966
99962.613
99965.512
99968.643
99971.58
99974.221
99976.51
99978.448
99980.064
99981.402
99982.502
99983.404
99984.154
99984.786
99985.326
99985.791
99986.199
99986.56
99986.884
99987.179
99987.452
99987.711
99987.958
99988.193
99988.42
99988.638
99988.849
99989.054
99989.252
99989.445
99989.632
99989.813
99989.988
99990.157
99990.32
99990.477
99990.627
99990.772
99990.91
99991.042
99991.167
99991.287
99991.399
99991.506
99991.607
99991.701
99991.79
99991.872
99991.948
99992.018
99992.082
99962.544
99962.468
99964.427
99966.798
99969.429
99971.979
99974.335
99976.428
99978.245
99979.796
99981.107
99982.21
99983.134
99983.916
99984.584
99985.16
99985.659
99986.095
99986.483
99986.833
99987.151
99987.444
99987.717
99987.976
99988.223
99988.46
99988.687
99988.905
99989.116
99989.319
99989.516
99989.706
99989.889
99990.066
99990.236
99990.4
99990.558
99990.708
99990.853
99990.991
99991.122
99991.247
99991.365
99991.477
99991.583
99991.682
99991.776
99991.863
99991.944
99992.019
99992.088
99964.809
99964.673
99966.119
99968.052
99970.258
99972.464
99974.553
99976.455
99978.144
99979.618
99980.891
99981.982
99982.916
99983.719
99984.413
99985.015
99985.541
99986.003
99986.415
99986.787
99987.126
99987.438
99987.727
99987.997
99988.255
99988.501
99988.737
99988.962
99989.179
99989.387
99989.588
99989.782
99989.968
99990.147
99990.318
99990.483
99990.642
99990.793
99990.937
99991.075
99991.206
99991.33
99991.448
99991.559
99991.664
99991.762
99991.854
99991.941
99992.021
99992.094
99992.162
99966.808
99966.625
99967.689
99969.26
99971.108
99973.011
99974.858
99976.577
99978.137
99979.526
99980.749
99981.819
99982.75
99983.563
99984.273
99984.895
99985.441
99985.925
99986.357
99986.747
99987.104
99987.434
99987.739
99988.023
99988.291
99988.545
99988.789
99989.022
99989.244
99989.458
99989.663
99989.86
99990.049
99990.23
99990.404
99990.57
99990.729
99990.88
99991.025
99991.163
99991.293
99991.417
99991.534
99991.645
99991.749
99991.846
99991.937
99992.023
99992.102
99992.174
99992.241
99968.577
99968.36
99969.138
99970.412
99971.961
99973.602
99975.23
99976.779
99978.211
99979.513
99980.68
99981.718
99982.636
99983.448
99984.165
99984.799
99985.361
99985.861
99986.311
99986.718
99987.09
99987.434
99987.753
99988.05
99988.331
99988.593
99988.844
99989.083
99989.312
99989.531
99989.741
99989.941
99990.133
99990.316
99990.492
99990.659
99990.819
99990.972
99991.117
99991.254
99991.385
99991.508
99991.625
99991.735
99991.838
99991.935
99992.025
99992.109
99992.187
99992.259
99992.325
99970.146
99969.908
99970.473
99971.505
99972.805
99974.219
99975.654
99977.045
99978.357
99979.569
99980.675
99981.674
99982.571
99983.373
99984.089
99984.729
99985.301
99985.814
99986.278
99986.699
99987.085
99987.442
99987.771
99988.081
99988.373
99988.646
99988.903
99989.149
99989.383
99989.607
99989.821
99990.025
99990.22
99990.406
99990.583
99990.752
99990.913
99991.067
99991.212
99991.35
99991.481
99991.604
99991.72
99991.83
99991.932
99992.028
99992.118
99992.201
99992.278
99992.349
99971.543
99971.295
99971.701
99972.537
99973.627
99974.848
99976.112
99977.361
99978.559
99979.684
99980.726
99981.681
99982.549
99983.336
99984.045
99984.685
99985.263
99985.784
99986.259
99986.692
99987.089
99987.457
99987.798
99988.117
99988.418
99988.7
99988.966
99989.219
99989.458
99989.686
99989.905
99990.112
99990.31
99990.499
99990.678
99990.849
99991.011
99991.166
99991.312
99991.45
99991.581
99991.704
99991.82
99991.929
99992.031
99992.127
99992.216
99992.299
99992.375
99992.445
99972.792
99972.543
99972.83
99973.507
99974.424
99975.477
99976.592
99977.713
99978.805
99979.846
99980.824
99981.732
99982.568
99983.334
99984.032
99984.668
99985.246
99985.773
99986.254
99986.696
99987.104
99987.481
99987.831
99988.16
99988.468
99988.759
99989.033
99989.292
99989.537
99989.77
99989.993
99990.203
99990.405
99990.596
99990.777
99990.95
99991.114
99991.269
99991.416
99991.555
99991.686
99991.809
99991.925
99992.034
99992.136
99992.231
99992.32
99992.402
99992.477
99992.546
99973.913
99973.669
99973.868
99974.417
99975.19
99976.101
99977.084
99978.09
99979.085
99980.047
99980.962
99981.822
99982.623
99983.365
99984.048
99984.675
99985.251
99985.78
99986.266
99986.714
99987.129
99987.514
99987.873
99988.21
99988.526
99988.823
99989.103
99989.369
99989.62
99989.859
99990.085
99990.299
99990.503
99990.697
99990.881
99991.056
99991.221
99991.377
99991.525
99991.665
99991.796
99991.92
99992.036
99992.145
99992.247
99992.341
99992.429
99992.511
99992.586
99992.654
99974.924
99974.69
99974.824
99975.27
99975.923
99976.712
99977.58
99978.483
99979.39
99980.278
99981.133
99981.945
99982.71
99983.426
99984.091
99984.707
99985.278
99985.805
99986.293
99986.746
99987.166
99987.558
99987.924
99988.267
99988.59
99988.894
99989.18
99989.451
99989.708
99989.951
99990.182
99990.4
99990.607
99990.803
99990.989
99991.166
99991.333
99991.491
99991.64
99991.78
99991.912
99992.036
99992.153
99992.262
99992.363
99992.458
99992.546
99992.626
99992.701
99992.768
99975.84
99975.619
99975.705
99976.069
99976.622
99977.307
99978.075
99978.887
99979.714
99980.533
99981.331
99982.097
99982.826
99983.514
99984.159
99984.763
99985.325
99985.849
99986.337
99986.792
99987.216
99987.613
99987.984
99988.334
99988.662
99988.972
99989.264
99989.54
99989.802
99990.049
99990.284
99990.506
99990.716
99990.916
99991.103
99991.282
99991.45
99991.61
99991.76
99991.901
99992.034
99992.159
99992.276
99992.385
99992.487
99992.581
99992.669
99992.749
99992.823
99992.89
99976.673
99976.467
99976.519
99976.817
99977.288
99977.884
99978.566
99979.297
99980.05
99980.807
99981.551
99982.273
99982.966
99983.627
99984.251
99984.84
99985.393
99985.911
99986.397
99986.852
99987.279
99987.679
99988.055
99988.409
99988.742
99989.057
99989.355
99989.635
99989.901
99990.153
99990.392
99990.616
99990.831
99991.033
99991.224
99991.404
99991.573
99991.735
99991.886
99992.029
99992.163
99992.288
99992.405
99992.515
99992.617
99992.712
99992.799
99992.88
99992.953
99993.02
99977.434
99977.244
99977.271
99977.517
99977.92
99978.442
99979.048
99979.708
99980.396
99981.094
99981.789
99982.469
99983.128
99983.761
99984.365
99984.938
99985.48
99985.991
99986.473
99986.927
99987.354
99987.757
99988.136
99988.494
99988.832
99989.151
99989.453
99989.738
99990.008
99990.264
99990.506
99990.734
99990.951
99991.156
99991.35
99991.531
99991.704
99991.867
99992.019
99992.163
99992.298
99992.424
99992.543
99992.653
99992.755
99992.85
99992.938
99993.019
99993.092
99993.159
99978.132
99977.959
99977.969
99978.174
99978.521
99978.98
99979.521
99980.117
99980.747
99981.393
99982.041
99982.682
99983.309
99983.915
99984.497
99985.054
99985.584
99986.088
99986.565
99987.016
99987.443
99987.847
99988.228
99988.589
99988.931
99989.253
99989.559
99989.848
99990.122
99990.381
99990.627
99990.859
99991.078
99991.286
99991.482
99991.667
99991.842
99992.005
99992.16
99992.305
99992.441
99992.569
99992.687
99992.799
99992.902
99992.997
99993.085
99993.166
99993.24
99993.306
99978.776
99978.618
99978.618
99978.79
99979.092
99979.497
99979.982
99980.523
99981.1
99981.699
99982.305
99982.91
99983.505
99984.085
99984.647
99985.188
99985.706
99986.2
99986.672
99987.12
99987.545
99987.949
99988.332
99988.695
99989.039
99989.365
99989.674
99989.967
99990.245
99990.507
99990.756
99990.991
99991.213
99991.423
99991.622
99991.809
99991.986
99992.152
99992.308
99992.454
99992.593
99992.722
99992.841
99992.954
99993.057
99993.153
99993.242
99993.323
99993.397
99993.464
99979.371
99979.23
99979.223
99979.369
99979.634
99979.994
99980.43
99980.923
99981.454
99982.01
99982.578
99983.148
99983.714
99984.27
99984.812
99985.337
99985.842
99986.328
99986.793
99987.237
99987.66
99988.063
99988.447
99988.812
99989.158
99989.487
99989.799
99990.095
99990.375
99990.641
99990.893
99991.131
99991.356
99991.569
99991.77
99991.96
99992.138
99992.306
99992.465
99992.613
99992.753
99992.882
99993.004
99993.119
99993.222
99993.319
99993.409
99993.49
99993.564
99993.632
99979.925
99979.798
99979.788
99979.915
99980.149
99980.472
99980.867
99981.317
99981.807
99982.324
99982.857
99983.396
99983.935
99984.468
99984.991
99985.5
99985.993
99986.47
99986.928
99987.367
99987.788
99988.19
99988.574
99988.939
99989.288
99989.619
99989.933
99990.232
99990.515
99990.784
99991.039
99991.28
99991.508
99991.723
99991.927
99992.119
99992.3
99992.47
99992.63
99992.781
99992.922
99993.053
99993.177
99993.292
99993.397
99993.496
99993.587
99993.668
99993.743
99993.812
99980.441
99980.329
99980.319
99980.43
99980.639
99980.931
99981.29
99981.704
99982.157
99982.64
99983.141
99983.652
99984.166
99984.677
99985.181
99985.676
99986.157
99986.624
99987.076
99987.511
99987.928
99988.329
99988.712
99989.079
99989.428
99989.761
99990.078
99990.379
99990.665
99990.937
99991.194
99991.438
99991.669
99991.887
99992.093
99992.287
99992.471
99992.644
99992.806
99992.959
99993.102
99993.235
99993.36
99993.477
99993.584
99993.685
99993.776
99993.858
99993.935
99994.004
99980.924
99980.826
99980.817
99980.918
99981.107
99981.372
99981.701
99982.083
99982.504
99982.956
99983.428
99983.913
99984.404
99984.895
99985.383
99985.863
99986.333
99986.791
99987.236
99987.666
99988.081
99988.48
99988.862
99989.229
99989.58
99989.914
99990.233
99990.537
99990.825
99991.099
99991.359
99991.606
99991.839
99992.06
99992.269
99992.466
99992.652
99992.827
99992.992
99993.147
99993.292
99993.428
99993.555
99993.674
99993.783
99993.885
99993.977
99994.062
99994.14
99994.209
99981.379
99981.295
99981.288
99981.38
99981.553
99981.797
99982.1
99982.454
99982.847
99983.272
99983.718
99984.179
99984.649
99985.121
99985.593
99986.06
99986.52
99986.97
99987.408
99987.833
99988.245
99988.642
99989.024
99989.391
99989.742
99990.078
99990.399
99990.705
99990.996
99991.273
99991.535
99991.785
99992.021
99992.245
99992.456
99992.656
99992.845
99993.022
99993.19
99993.347
99993.495
99993.634
99993.763
99993.883
99993.995
99994.098
99994.193
99994.279
99994.358
99994.428
99981.809
99981.737
99981.734
99981.821
99981.981
99982.206
99982.487
99982.817
99983.186
99983.586
99984.009
99984.448
99984.899
99985.355
99985.812
99986.267
99986.716
99987.158
99987.59
99988.011
99988.42
99988.816
99989.197
99989.564
99989.917
99990.254
99990.577
99990.885
99991.178
99991.457
99991.723
99991.975
99992.214
99992.44
99992.654
99992.857
99993.049
99993.229
99993.4
99993.56
99993.711
99993.852
99993.984
99994.107
99994.221
99994.326
99994.423
99994.512
99994.592
99994.663
99982.217
99982.157
99982.159
99982.241
99982.391
99982.601
99982.864
99983.172
99983.52
99983.898
99984.3
99984.72
99985.153
99985.593
99986.037
99986.481
99986.921
99987.356
99987.783
99988.2
99988.606
99989.001
99989.382
99989.749
99990.102
99990.441
99990.766
99991.076
99991.372
99991.654
99991.922
99992.176
99992.418
99992.648
99992.865
99993.071
99993.265
99993.449
99993.623
99993.786
99993.94
99994.084
99994.219
99994.345
99994.462
99994.57
99994.67
99994.76
99994.842
99994.915
99982.607
99982.558
99982.564
99982.644
99982.785
99982.983
99983.23
99983.52
99983.848
99984.207
99984.591
99984.994
99985.41
99985.837
99986.268
99986.702
99987.134
99987.563
99987.985
99988.399
99988.803
99989.196
99989.577
99989.945
99990.3
99990.641
99990.967
99991.28
99991.578
99991.862
99992.133
99992.391
99992.635
99992.868
99993.088
99993.297
99993.495
99993.683
99993.86
99994.027
99994.184
99994.332
99994.471
99994.6
99994.72
99994.831
99994.934
99995.026
99995.11
99995.185
99982.981
99982.942
99982.954
99983.031
99983.166
99983.353
99983.586
99983.861
99984.172
99984.514
99984.881
99985.268
99985.67
99986.084
99986.505
99986.929
99987.354
99987.777
99988.195
99988.607
99989.01
99989.402
99989.784
99990.153
99990.509
99990.852
99991.181
99991.495
99991.796
99992.084
99992.357
99992.618
99992.866
99993.102
99993.326
99993.538
99993.74
99993.931
99994.112
99994.283
99994.444
99994.596
99994.739
99994.872
99994.996
99995.11
99995.216
99995.312
99995.398
99995.476
99983.342
99983.312
99983.329
99983.405
99983.535
99983.712
99983.934
99984.195
99984.491
99984.817
99985.169
99985.542
99985.931
99986.333
99986.745
99987.161
99987.58
99987.998
99988.414
99988.823
99989.226
99989.619
99990.001
99990.372
99990.73
99991.075
99991.406
99991.724
99992.028
99992.318
99992.595
99992.859
99993.11
99993.35
99993.577
99993.794
99993.999
99994.195
99994.38
99994.555
99994.721
99994.878
99995.025
99995.163
99995.291
99995.41
99995.519
99995.618
99995.708
99995.788
99983.693
99983.672
99983.693
99983.769
99983.893
99984.063
99984.273
99984.522
99984.804
99985.117
99985.455
99985.815
99986.193
99986.585
99986.987
99987.397
99987.811
99988.226
99988.639
99989.048
99989.451
99989.845
99990.229
99990.602
99990.963
99991.311
99991.645
99991.966
99992.273
99992.566
99992.847
99993.114
99993.369
99993.612
99993.844
99994.065
99994.275
99994.475
99994.665
99994.846
99995.017
99995.178
99995.331
99995.473
99995.607
99995.73
99995.844
99995.947
99996.041
99996.124
99984.036
99984.022
99984.048
99984.123
99984.244
99984.405
99984.606
99984.843
99985.113
99985.412
99985.738
99986.086
99986.454
99986.837
99987.232
99987.636
99988.046
99988.459
99988.871
99989.28
99989.684
99990.08
99990.467
99990.843
99991.208
99991.559
99991.897
99992.221
99992.531
99992.829
99993.113
99993.384
99993.643
99993.89
99994.127
99994.352
99994.567
99994.772
99994.968
99995.154
99995.331
99995.499
99995.657
99995.806
99995.945
99996.074
99996.193
99996.301
99996.399
99996.485
99984.374
99984.367
99984.397
99984.471
99984.587
99984.742
99984.933
99985.159
99985.417
99985.704
99986.018
99986.355
99986.713
99987.088
99987.477
99987.877
99988.284
99988.696
99989.108
99989.519
99989.926
99990.325
99990.716
99991.096
99991.464
99991.82
99992.162
99992.49
99992.804
99993.106
99993.394
99993.669
99993.933
99994.185
99994.426
99994.656
99994.877
99995.088
99995.29
99995.483
99995.667
99995.841
99996.007
99996.162
99996.308
99996.444
99996.569
99996.683
99996.785
99996.875
99984.71
99984.709
99984.742
99984.815
99984.926
99985.074
99985.256
99985.47
99985.716
99985.992
99986.294
99986.621
99986.97
99987.338
99987.722
99988.118
99988.524
99988.936
99989.351
99989.765
99990.175
99990.579
99990.975
99991.36
99991.733
99992.094
99992.44
99992.773
99993.092
99993.398
99993.69
99993.97
99994.239
99994.496
99994.742
99994.979
99995.205
99995.423
99995.632
99995.833
99996.024
99996.207
99996.38
99996.544
99996.698
99996.841
99996.973
99997.093
99997.201
99997.297
99985.047
99985.051
99985.086
99985.157
99985.263
99985.402
99985.574
99985.777
99986.011
99986.275
99986.566
99986.882
99987.223
99987.584
99987.964
99988.359
99988.765
99989.179
99989.597
99990.016
99990.432
99990.842
99991.244
99991.636
99992.015
99992.381
99992.733
99993.071
99993.395
99993.705
99994.002
99994.287
99994.561
99994.823
99995.076
99995.319
99995.553
99995.778
99995.995
99996.204
99996.404
99996.596
99996.779
99996.953
99997.116
99997.268
99997.408
99997.536
99997.651
99997.752
99985.388
99985.397
99985.433
99985.501
99985.6
99985.73
99985.891
99986.081
99986.302
99986.552
99986.832
99987.138
99987.47
99987.826
99988.202
99988.596
99989.004
99989.422
99989.846
99990.272
99990.696
99991.114
99991.524
99991.923
99992.309
99992.681
99993.039
99993.383
99993.712
99994.028
99994.33
99994.62
99994.899
99995.168
99995.427
99995.677
99995.919
99996.153
99996.379
99996.598
99996.809
99997.011
99997.205
99997.39
99997.564
99997.727
99997.878
99998.015
99998.137
99985.739
99985.751
99985.787
99985.85
99985.941
99986.059
99986.207
99986.383
99986.589
99986.825
99987.091
99987.387
99987.711
99988.061
99988.435
99988.83
99989.242
99989.666
99990.098
99990.533
99990.966
99991.394
99991.814
99992.222
99992.616
99992.996
99993.361
99993.71
99994.045
99994.366
99994.673
99994.969
99995.254
99995.529
99995.796
99996.054
99996.304
99996.548
99996.785
99997.015
99997.238
99997.453
99997.661
99997.859
99998.046
99998.222
99998.384
99998.532
99998.664
99986.104
99986.118
99986.151
99986.208
99986.288
99986.393
99986.524
99986.684
99986.872
99987.092
99987.343
99987.627
99987.942
99988.287
99988.66
99989.057
99989.475
99989.907
99990.35
99990.797
99991.243
99991.683
99992.114
99992.533
99992.937
99993.325
99993.696
99994.052
99994.393
99994.719
99995.032
99995.334
99995.625
99995.907
99996.181
99996.448
99996.708
99996.963
99997.212
99997.455
99997.693
99997.923
99998.146
99998.36
99998.563
99998.754
99998.931
99999.092
99999.236
99986.491
99986.504
99986.534
99986.581
99986.647
99986.735
99986.847
99986.985
99987.153
99987.353
99987.587
99987.856
99988.161
99988.501
99988.873
99989.275
99989.701
99990.145
99990.602
99991.064
99991.526
99991.982
99992.426
99992.857
99993.271
99993.667
99994.047
99994.409
99994.755
99995.087
99995.405
99995.713
99996.011
99996.3
99996.582
99996.859
99997.13
99997.397
99997.66
99997.919
99998.173
99998.421
99998.663
99998.896
99999.119
99999.329
99999.524
99999.701
99999.858
99986.907
99986.919
99986.941
99986.975
99987.024
99987.09
99987.177
99987.29
99987.433
99987.608
99987.821
99988.073
99988.367
99988.701
99989.074
99989.481
99989.919
99990.379
99990.854
99991.335
99991.816
99992.29
99992.75
99993.194
99993.619
99994.025
99994.411
99994.78
99995.131
99995.468
99995.792
99996.105
99996.409
99996.706
99996.997
99997.284
99997.568
99997.849
99998.127
99998.404
99998.678
99998.948
99999.212
99999.469
99999.715
99999.949
100000.17
100000.36
100000.54
99987.365
99987.372
99987.383
99987.4
99987.426
99987.464
99987.522
99987.602
99987.713
99987.859
99988.045
99988.276
99988.555
99988.883
99989.257
99989.674
99990.126
99990.607
99991.105
99991.611
99992.115
99992.609
99993.088
99993.546
99993.983
99994.398
99994.791
99995.164
99995.52
99995.861
99996.19
99996.508
99996.819
99997.123
99997.423
99997.721
99998.018
99998.315
99998.612
99998.909
99999.206
99999.502
99999.794
100000.08
100000.36
100000.62
100000.86
100001.09
100001.28
99987.877
99987.876
99987.873
99987.867
99987.864
99987.868
99987.887
99987.927
99987.997
99988.105
99988.258
99988.463
99988.724
99989.044
99989.42
99989.849
99990.323
99990.83
99991.357
99991.893
99992.425
99992.944
99993.442
99993.916
99994.363
99994.785
99995.184
99995.561
99995.92
99996.265
99996.597
99996.92
99997.236
99997.548
99997.857
99998.167
99998.478
99998.791
99999.109
99999.43
99999.755
100000.08
100000.41
100000.73
100001.04
100001.35
100001.63
100001.88
100002.11
99988.463
99988.451
99988.427
99988.392
99988.351
99988.313
99988.283
99988.273
99988.293
99988.352
99988.462
99988.633
99988.871
99989.181
99989.562
99990.008
99990.509
99991.05
99991.615
99992.188
99992.753
99993.299
99993.817
99994.305
99994.762
99995.189
99995.591
99995.97
99996.33
99996.676
99997.01
99997.337
99997.657
99997.976
99998.294
99998.615
99998.941
99999.274
99999.614
99999.963
100000.32
100000.69
100001.05
100001.42
100001.78
100002.13
100002.47
100002.77
100003.03
99989.146
99989.118
99989.066
99988.994
99988.908
99988.815
99988.726
99988.653
99988.608
99988.606
99988.662
99988.788
99988.997
99989.295
99989.682
99990.151
99990.689
99991.275
99991.888
99992.505
99993.108
99993.682
99994.22
99994.719
99995.181
99995.61
99996.011
99996.389
99996.748
99997.094
99997.428
99997.756
99998.08
99998.404
99998.73
99999.062
99999.403
99999.755
100000.12
100000.5
100000.9
100001.31
100001.73
100002.15
100002.58
100003
100003.39
100003.76
100004.08
99989.955
99989.904
99989.818
99989.699
99989.557
99989.399
99989.238
99989.086
99988.961
99988.881
99988.866
99988.935
99989.105
99989.387
99989.784
99990.286
99990.874
99991.521
99992.194
99992.864
99993.506
99994.107
99994.66
99995.164
99995.626
99996.051
99996.446
99996.819
99997.175
99997.517
99997.85
99998.178
99998.502
99998.829
99999.16
99999.501
99999.856
100000.23
100000.62
100001.04
100001.48
100001.94
100002.43
100002.93
100003.44
100003.95
100004.44
100004.89
100005.28
99990.926
99990.845
99990.713
99990.539
99990.331
99990.097
99989.849
99989.603