/*--------------------------------*- C++ -*----------------------------------*\
| =========                 |                                                 |
| \\      /  F ield         | OpenFOAM: The Open Source CFD Toolbox           |
|  \\    /   O peration     | Version:  2312                                  |
|   \\  /    A nd           | Website:  www.openfoam.com                      |
|    \\/     M anipulation  |                                                 |
\*---------------------------------------------------------------------------*/
FoamFile
{
    version     2.0;
    format      ascii;
    arch        "LSB;label=32;scalar=64";
    class       surfaceScalarField;
    location    "0.07";
    object      phi;
}
// * * * * * * * * * * * * * * * * * * * * * * * * * * * * * * * * * * * * * //

dimensions      [1 0 -1 0 0 0 0];

oriented        oriented;

internalField   nonuniform List<scalar> 
6433
(
8.3098349e-07
3.3402545e-08
7.5663004e-07
7.457973e-08
6.7566062e-07
8.1257385e-08
6.0222863e-07
7.3739456e-08
5.4130043e-07
6.124128e-08
4.9211345e-07
4.9501239e-08
4.5236381e-07
4.0064171e-08
4.2004621e-07
3.2631525e-08
3.935022e-07
2.6856496e-08
3.7146657e-07
2.2345103e-08
3.5284931e-07
1.8921958e-08
3.3705421e-07
1.6091569e-08
3.2358597e-07
1.3755945e-08
3.119129e-07
1.1949293e-08
3.0169097e-07
1.0484504e-08
2.9264573e-07
9.2924054e-09
2.8456812e-07
8.3077872e-09
2.7729932e-07
7.4806062e-09
2.7071586e-07
6.7756727e-09
2.6471904e-07
6.1683464e-09
2.5922791e-07
5.6410418e-09
2.541754e-07
5.1800115e-09
2.4950565e-07
4.7742668e-09
2.4517154e-07
4.4152624e-09
2.4113296e-07
4.09618e-09
2.3735558e-07
3.8114072e-09
2.3380982e-07
3.5564015e-09
2.3047003e-07
3.3273402e-09
2.2731388e-07
3.1210798e-09
2.2432183e-07
2.934913e-09
2.214767e-07
2.7665958e-09
2.1876332e-07
2.6141628e-09
2.1616827e-07
2.475965e-09
2.1367958e-07
2.3505237e-09
2.112866e-07
2.2366044e-09
2.0897979e-07
2.1330759e-09
2.0675058e-07
2.0389837e-09
2.0459126e-07
1.9534348e-09
2.0249487e-07
1.875675e-09
2.0045513e-07
1.8049897e-09
1.9846632e-07
1.740776e-09
1.9652328e-07
1.6824527e-09
1.9462125e-07
1.6295466e-09
1.9275598e-07
1.5815698e-09
1.9092356e-07
1.538153e-09
1.8912051e-07
1.4989951e-09
1.8734352e-07
1.4638449e-09
1.8558965e-07
1.4322467e-09
1.8385613e-07
1.4040652e-09
1.8214049e-07
1.3789426e-09
1.8044041e-07
1.356635e-09
1.3369255e-09
8.215541e-07
7.6158091e-08
7.3980842e-07
1.5634742e-07
6.5896337e-07
1.621271e-07
5.8910605e-07
1.4362358e-07
5.3179106e-07
1.1858464e-07
4.8531234e-07
9.6009518e-08
4.4746508e-07
7.7942011e-08
4.1645489e-07
6.3672996e-08
3.9081723e-07
5.2525639e-08
3.694159e-07
4.3777468e-08
3.5125407e-07
3.711381e-08
3.3578894e-07
3.1585305e-08
3.2256335e-07
2.7008544e-08
3.1107178e-07
2.3465379e-08
3.0098903e-07
2.0588821e-08
2.9205252e-07
1.8247223e-08
2.8406131e-07
1.6313779e-08
2.7686216e-07
1.4690821e-08
2.7033554e-07
1.3309479e-08
2.6438561e-07
1.2121454e-08
2.5893354e-07
1.1092175e-08
2.5391385e-07
1.0194566e-08
2.492719e-07
9.4068264e-09
2.449615e-07
8.7119709e-09
2.409433e-07
8.096371e-09
2.3718354e-07
7.5488098e-09
2.336531e-07
7.0601346e-09
2.3032672e-07
6.622663e-09
2.2718236e-07
6.2300327e-09
2.2420073e-07
5.8768004e-09
2.2136484e-07
5.5584162e-09
2.1865971e-07
5.2709313e-09
2.1607203e-07
5.0110083e-09
2.1358997e-07
4.7756958e-09
2.1120296e-07
4.5624995e-09
2.0890155e-07
4.3691753e-09
2.0667724e-07
4.1938096e-09
2.0452237e-07
4.0346513e-09
2.0243005e-07
3.8902032e-09
2.0039402e-07
3.7590799e-09
1.9840862e-07
3.6400954e-09
1.964687e-07
3.5321352e-09
1.9456956e-07
3.4342576e-09
1.9270694e-07
3.3455587e-09
1.9087699e-07
3.2653191e-09
1.890762e-07
3.1928365e-09
1.8730133e-07
3.1275959e-09
1.8554941e-07
3.0688228e-09
1.8381771e-07
3.0161436e-09
1.8210375e-07
2.968948e-09
1.8040525e-07
2.9267875e-09
2.8892304e-09
7.9801047e-07
1.4251495e-07
7.0249894e-07
2.5188239e-07
6.2513916e-07
2.3951355e-07
5.6355033e-07
2.0524132e-07
5.1345911e-07
1.6870615e-07
4.7213334e-07
1.3736644e-07
4.3792701e-07
1.1218019e-07
4.0944696e-07
9.2185343e-08
3.855605e-07
7.6444345e-08
3.65388e-07
6.398156e-08
3.4811262e-07
5.4419602e-08
3.3329137e-07
4.6435442e-08
3.2054074e-07
3.9786337e-08
3.0940636e-07
3.4624373e-08
2.9959813e-07
3.0418683e-08
2.9087647e-07
2.6987233e-08
2.8305627e-07
2.414881e-08
2.7599519e-07
2.1763034e-08
2.6958138e-07
1.9730558e-08
2.6372461e-07
1.7981529e-08
2.5835019e-07
1.6465811e-08
2.5339578e-07
1.5144032e-08
2.4880915e-07
1.3984304e-08
2.4454597e-07
1.296175e-08
2.4056833e-07
1.205632e-08
2.3684365e-07
1.1251511e-08
2.3334371e-07
1.0533782e-08
2.3004399e-07
9.8917773e-09
2.2692307e-07
9.3160461e-09
2.2396212e-07
8.7985303e-09
2.2114459e-07
8.3324513e-09
2.1845579e-07
7.9119548e-09
2.1588271e-07
7.5320614e-09
2.1341375e-07
7.1884023e-09
2.1103853e-07
6.8772532e-09
2.0874777e-07
6.595292e-09
2.0653309e-07
6.3396637e-09
2.0438698e-07
6.107788e-09
2.0230262e-07
5.8974345e-09
2.0027386e-07
5.7065679e-09
1.9829512e-07
5.5334262e-09
1.9636129e-07
5.3763773e-09
1.9446776e-07
5.2340182e-09
1.9261031e-07
5.105037e-09
1.9078513e-07
4.9883509e-09
1.8898873e-07
4.8828965e-09
1.8721793e-07
4.7878562e-09
1.8546978e-07
4.7021879e-09
1.8374158e-07
4.6252474e-09
1.8203088e-07
4.5562024e-09
1.8033543e-07
4.4943919e-09
4.4391848e-09
7.4345204e-07
2.6353047e-07
6.3780904e-07
3.5755104e-07
5.7368165e-07
3.0367001e-07
5.2693966e-07
2.5201458e-07
4.8753105e-07
2.0814704e-07
4.5332407e-07
1.7160616e-07
4.242589e-07
1.4127853e-07
3.9934444e-07
1.1713311e-07
3.7793515e-07
9.7886605e-08
3.595142e-07
8.2434616e-08
3.4351261e-07
7.0451944e-08
3.2962018e-07
6.0356972e-08
3.175576e-07
5.1876172e-08
3.0694521e-07
4.5261412e-08
2.9753936e-07
3.9846175e-08
2.8913348e-07
3.5411463e-08
2.8156521e-07
3.1731905e-08
2.7470796e-07
2.863143e-08
2.6846101e-07
2.5984825e-08
2.6274221e-07
2.3703697e-08
2.5748296e-07
2.1724392e-08
2.5262548e-07
1.9996718e-08
2.4812106e-07
1.8479767e-08
2.439281e-07
1.7141554e-08
2.4001083e-07
1.5956191e-08
2.3633836e-07
1.4902333e-08
2.3288384e-07
1.3962389e-08
2.2962384e-07
1.3121597e-08
2.2653782e-07
1.2367621e-08
2.2360769e-07
1.168995e-08
2.2081747e-07
1.1079706e-08
2.1815299e-07
1.0529231e-08
2.1560164e-07
1.0031986e-08
2.1315216e-07
9.5822529e-09
2.1079446e-07
9.1751284e-09
2.085195e-07
8.8062597e-09
2.0631913e-07
8.4718866e-09
2.0418599e-07
8.1686293e-09
2.0211343e-07
7.8935505e-09
2.0009544e-07
7.6439859e-09
1.9812652e-07
7.4176143e-09
1.962017e-07
7.2123043e-09
1.9431644e-07
7.0262042e-09
1.924666e-07
6.8576027e-09
1.9064842e-07
6.7050533e-09
1.8885849e-07
6.567157e-09
1.8709366e-07
6.4427816e-09
1.8535104e-07
6.3306422e-09
1.8362798e-07
6.2298191e-09
1.8192204e-07
6.1392715e-09
1.8023103e-07
6.0581309e-09
5.9855726e-09
6.1158151e-07
5.1578342e-07
5.3888528e-07
4.3027594e-07
5.0802425e-07
3.3456328e-07
4.8150804e-07
2.785646e-07
4.5572802e-07
2.3396138e-07
4.30564e-07
1.968046e-07
4.0726735e-07
1.6460952e-07
3.8659681e-07
1.3783788e-07
3.6822708e-07
1.1628995e-07
3.5198255e-07
9.8711686e-08
3.3758056e-07
8.4884954e-08
3.2486013e-07
7.3106654e-08
3.1367296e-07
6.3090616e-08
3.0373103e-07
5.5227958e-08
2.9484454e-07
4.8754256e-08
2.8684776e-07
4.3426526e-08
2.7960698e-07
3.8987453e-08
2.7301545e-07
3.5234067e-08
2.6698655e-07
3.2021036e-08
2.6144844e-07
2.9245196e-08
2.5634027e-07
2.6831953e-08
2.5161016e-07
2.4722153e-08
2.4721389e-07
2.2867231e-08
2.431134e-07
2.1229085e-08
2.3927571e-07
1.9776739e-08
2.3567212e-07
1.8484577e-08
2.3227754e-07
1.7331399e-08
2.2906999e-07
1.629937e-08
2.2603006e-07
1.5373541e-08
2.2314062e-07
1.4541154e-08
2.2038648e-07
1.3791403e-08
2.1775411e-07
1.3114953e-08
2.1523144e-07
1.2503819e-08
2.1280765e-07
1.1951017e-08
2.1047306e-07
1.1450539e-08
2.0821893e-07
1.0997056e-08
2.0603739e-07
1.0585952e-08
2.0392131e-07
1.0213088e-08
2.0186427e-07
9.8748531e-09
1.9986039e-07
9.5679806e-09
1.9790437e-07
9.2896165e-09
1.9599134e-07
9.0371473e-09
1.9411689e-07
8.8082926e-09
1.9227698e-07
8.6009514e-09
1.9046794e-07
8.4133233e-09
1.8868643e-07
8.2436902e-09
1.8692938e-07
8.0906114e-09
1.8519395e-07
7.9525687e-09
1.8347755e-07
7.8283755e-09
1.8177779e-07
7.7167894e-09
1.8009253e-07
7.6167406e-09
7.5272198e-09
3.0078362e-07
3.0486858e-07
3.7730908e-07
3.5378011e-07
3.8915275e-07
3.227513e-07
3.847225e-07
2.8302709e-07
3.7342062e-07
2.452953e-07
3.5947396e-07
2.10783e-07
3.4451181e-07
1.7960306e-07
3.2993972e-07
1.5244091e-07
3.1649259e-07
1.2976729e-07
3.0418294e-07
1.1105042e-07
2.929747e-07
9.6120805e-08
2.8284791e-07
8.3259391e-08
2.7380576e-07
7.2156838e-08
2.6566788e-07
6.338753e-08
2.5831883e-07
5.6122302e-08
2.5164934e-07
5.0112083e-08
2.4556864e-07
4.5081116e-08
2.4000144e-07
4.0811008e-08
2.3488482e-07
3.7144069e-08
2.3016529e-07
3.3967701e-08
2.2579663e-07
3.1200086e-08
2.2173873e-07
2.8775957e-08
2.1795696e-07
2.6641299e-08
2.1442115e-07
2.4753558e-08
2.1110489e-07
2.307801e-08
2.0798498e-07
2.1585813e-08
2.0504101e-07
2.0253013e-08
2.0225493e-07
1.9059392e-08
1.9961077e-07
1.7987955e-08
1.9709431e-07
1.7024166e-08
1.9469289e-07
1.6155677e-08
1.923952e-07
1.5371811e-08
1.901911e-07
1.4663407e-08
1.8807148e-07
1.4022447e-08
1.8602815e-07
1.3442018e-08
1.8405371e-07
1.2915986e-08
1.8214148e-07
1.2439027e-08
1.802854e-07
1.2006366e-08
1.7847996e-07
1.1613836e-08
1.7672017e-07
1.1257663e-08
1.7500148e-07
1.0934545e-08
1.7331972e-07
1.0641462e-08
1.7167109e-07
1.0375771e-08
1.7005214e-07
1.013504e-08
1.6845972e-07
9.9171673e-09
1.6689092e-07
9.7201637e-09
1.6534311e-07
9.542328e-09
1.6381384e-07
9.3819382e-09
1.6230088e-07
9.2375873e-09
1.6080216e-07
9.107855e-09
1.5931582e-07
8.991508e-09
8.8873755e-09
2.0645695e-07
1.9086289e-07
3.0509284e-07
2.5517941e-07
3.4264359e-07
2.8523633e-07
3.5437662e-07
2.713294e-07
3.5362474e-07
2.4608192e-07
3.4683077e-07
2.1761085e-07
3.3699226e-07
1.8947466e-07
3.2590219e-07
1.6356329e-07
3.1489164e-07
1.4080921e-07
3.0440249e-07
1.2156964e-07
2.9453244e-07
1.0601927e-07
2.8535504e-07
9.2463406e-08
2.769842e-07
8.0552259e-08
2.6935242e-07
7.1041417e-08
2.6237201e-07
6.3122043e-08
2.5597316e-07
5.6527251e-08
2.5009186e-07
5.0975559e-08
2.4467119e-07
4.6241532e-08
2.3966121e-07
4.2160522e-08
2.3501789e-07
3.8614004e-08
2.3070204e-07
3.5515353e-08
2.2667886e-07
3.2794947e-08
2.2291769e-07
3.039461e-08
2.1939144e-07
2.8268269e-08
2.1607604e-07
2.637815e-08
2.1295016e-07
2.4692721e-08
2.0999477e-07
2.3185673e-08
2.0719298e-07
2.1834719e-08
2.0452965e-07
2.0621053e-08
2.0199129e-07
1.9528547e-08
1.9956577e-07
1.8543459e-08
1.972422e-07
1.7653876e-08
1.9501081e-07
1.6849557e-08
1.9286275e-07
1.6121519e-08
1.9079004e-07
1.5461999e-08
1.8878547e-07
1.4864101e-08
1.8684247e-07
1.4321829e-08
1.8495511e-07
1.3829805e-08
1.8311796e-07
1.3383322e-08
1.8132609e-07
1.2978121e-08
1.79575e-07
1.2610467e-08
1.7786058e-07
1.2276944e-08
1.7617906e-07
1.1974556e-08
1.74527e-07
1.1700548e-08
1.7290127e-07
1.1452523e-08
1.7129898e-07
1.1228224e-08
1.6971749e-07
1.1025698e-08
1.6815438e-07
1.0843016e-08
1.666074e-07
1.067856e-08
1.6507449e-07
1.0530729e-08
1.6355381e-07
1.0398128e-08
1.0279432e-08
1.6960103e-07
1.1635341e-07
2.5342631e-07
1.7139614e-07
3.0075564e-07
2.3794739e-07
3.2375365e-07
2.4837026e-07
3.3213697e-07
2.3773591e-07
3.3214646e-07
2.1763736e-07
3.2746232e-07
1.9419355e-07
3.202358e-07
1.7082351e-07
3.1190795e-07
1.4916956e-07
3.0341092e-07
1.3009764e-07
2.9509471e-07
1.1436467e-07
2.8705021e-07
1.0053514e-07
2.794851e-07
8.8142397e-08
2.7247785e-07
7.8071121e-08
2.6596476e-07
6.9654725e-08
2.5991791e-07
6.2590619e-08
2.5430356e-07
5.6603179e-08
2.4908583e-07
5.1469191e-08
2.4422978e-07
4.7023047e-08
2.3970251e-07
4.3144214e-08
2.354732e-07
3.9743983e-08
2.315134e-07
3.6750405e-08
2.2779732e-07
3.4102633e-08
2.2430162e-07
3.1752179e-08
2.2100517e-07
2.9659045e-08
2.1788892e-07
2.7789647e-08
2.1493566e-07
2.6115806e-08
2.1212991e-07
2.4613543e-08
2.0945769e-07
2.3262533e-08
2.069064e-07
2.2045288e-08
2.0446464e-07
2.0946847e-08
2.0212211e-07
1.9954209e-08
1.998695e-07
1.905616e-08
1.9769835e-07
1.8242846e-08
1.9560099e-07
1.7505724e-08
1.9357044e-07
1.6837197e-08
1.9160036e-07
1.6230641e-08
1.8968497e-07
1.5680114e-08
1.8781898e-07
1.5180399e-08
1.8599757e-07
1.472678e-08
1.8421634e-07
1.4315104e-08
1.8247123e-07
1.394158e-08
1.8075854e-07
1.3602872e-08
1.7907489e-07
1.3295913e-08
1.7741717e-07
1.3018017e-08
1.7578253e-07
1.2766672e-08
1.7416837e-07
1.2539675e-08
1.7257225e-07
1.2334898e-08
1.7099197e-07
1.2150515e-08
1.6942548e-07
1.1984751e-08
1.6787094e-07
1.1836049e-08
1.1702933e-08
1.4998889e-07
6.4116252e-08
2.156697e-07
1.0576444e-07
2.643553e-07
1.8930687e-07
2.9426206e-07
2.1850574e-07
3.0989278e-07
2.2214506e-07
3.1611002e-07
2.1145812e-07
3.1635394e-07
1.9398606e-07
3.1302906e-07
1.7418339e-07
3.0764163e-07
1.5459056e-07
3.0125629e-07
1.3651484e-07
2.9465288e-07
1.2099797e-07
2.8792839e-07
1.0728741e-07
2.8129096e-07
9.4805265e-08
2.7501159e-07
8.437323e-08
2.6906258e-07
7.5623536e-08
2.6344964e-07
6.822021e-08
2.581713e-07
6.1894856e-08
2.5321496e-07
5.6435484e-08
2.4856243e-07
5.1682012e-08
2.4419338e-07
4.7516115e-08
2.400866e-07
4.3849937e-08
2.36221e-07
4.0611456e-08
2.3257651e-07
3.7738825e-08
2.291342e-07
3.5182393e-08
2.2587647e-07
3.2900878e-08
2.22787e-07
3.0859386e-08
2.198508e-07
2.9028428e-08
2.1705413e-07
2.7382781e-08
2.1438443e-07
2.5900941e-08
2.118302e-07
2.4564336e-08
2.09381e-07
2.3357e-08
2.0702725e-07
2.2265019e-08
2.0476024e-07
2.1276338e-08
2.0257203e-07
2.038035e-08
2.0045533e-07
1.9567814e-08
1.9840353e-07
1.883051e-08
1.9641053e-07
1.816124e-08
1.9447079e-07
1.7553549e-08
1.9257923e-07
1.7001747e-08
1.9073116e-07
1.6500695e-08
1.8892232e-07
1.6045846e-08
1.8714876e-07
1.5633061e-08
1.8540688e-07
1.5258676e-08
1.8369337e-07
1.4919331e-08
1.8200517e-07
1.4612062e-08
1.803395e-07
1.4334111e-08
1.7869379e-07
1.4083039e-08
1.7706566e-07
1.3856523e-08
1.7545291e-07
1.3652535e-08
1.7385352e-07
1.346913e-08
1.722657e-07
1.3304592e-08
1.3157303e-08
1.3691353e-07
2.7670345e-08
1.8725312e-07
5.5480563e-08
2.3354621e-07
1.4306337e-07
2.6693959e-07
1.8515783e-07
2.8785486e-07
2.0127212e-07
2.9931947e-07
2.0003346e-07
3.0412981e-07
1.8921372e-07
3.0452806e-07
1.7382143e-07
3.0216048e-07
1.569927e-07
2.9808217e-07
1.4062583e-07
2.9322422e-07
1.2588648e-07
2.879467e-07
1.1259319e-07
2.8239055e-07
1.0038721e-07
2.769274e-07
8.9859336e-08
2.716357e-07
8.0935181e-08
2.6653705e-07
7.3335588e-08
2.6166389e-07
6.6781381e-08
2.5702837e-07
6.1080911e-08
2.5263046e-07
5.6086276e-08
2.4846356e-07
5.1685718e-08
2.4451717e-07
4.7795307e-08
2.4077848e-07
4.4345351e-08
2.3723388e-07
4.1274832e-08
2.3386954e-07
3.8534292e-08
2.306719e-07
3.608222e-08
2.2762788e-07
3.3883233e-08
2.2472506e-07
3.1907173e-08
2.2195179e-07
3.0128076e-08
2.1929716e-07
2.8523656e-08
2.1675108e-07
2.7074572e-08
2.1430419e-07
2.5764103e-08
2.1194784e-07
2.4577627e-08
2.0967408e-07
2.3502409e-08
2.0747556e-07
2.2527218e-08
2.0534553e-07
2.1642222e-08
2.0327777e-07
2.0838667e-08
2.0126658e-07
2.010885e-08
1.9930669e-07
1.9445862e-08
1.9739326e-07
1.8843588e-08
1.9552183e-07
1.8296505e-08
1.936883e-07
1.7799706e-08
1.9188888e-07
1.7348731e-08
1.901201e-07
1.693961e-08
1.8837873e-07
1.6568712e-08
1.8666183e-07
1.6232807e-08
1.8496668e-07
1.592891e-08
1.8329077e-07
1.5654354e-08
1.8163179e-07
1.5406631e-08
1.7998757e-07
1.5183518e-08
1.7835616e-07
1.498291e-08
1.7673577e-07
1.480294e-08
1.4641841e-08
1.2829123e-07
2.6351239e-09
1.661077e-07
1.7725319e-08
2.0809897e-07
1.0112565e-07
2.4241696e-07
1.5088822e-07
2.6677271e-07
1.7696096e-07
2.8237158e-07
1.8447632e-07
2.9118349e-07
1.8044126e-07
2.9507604e-07
1.6996634e-07
2.9560938e-07
1.5649485e-07
2.9391423e-07
1.4235439e-07
2.9089095e-07
1.2894096e-07
2.8711506e-07
1.1639771e-07
2.8278257e-07
1.0474576e-07
2.7822266e-07
9.4442393e-08
2.7366141e-07
8.5516452e-08
2.6915319e-07
7.7860544e-08
2.6475299e-07
7.1194893e-08
2.6049758e-07
6.5346144e-08
2.5640599e-07
6.0184068e-08
2.5248629e-07
5.5607917e-08
2.4873954e-07
5.1540792e-08
2.4516198e-07
4.7917821e-08
2.4174713e-07
4.4680732e-08
2.3848689e-07
4.1781709e-08
2.3537223e-07
3.9180141e-08
2.3239373e-07
3.6841057e-08
2.2954195e-07
3.4734332e-08
2.2680762e-07
3.2833821e-08
2.2418182e-07
3.1116893e-08
2.2165603e-07
2.9563802e-08
2.1922221e-07
2.815735e-08
2.1687281e-07
2.6882442e-08
2.1460076e-07
2.5725847e-08
2.1239946e-07
2.4675865e-08
2.1026279e-07
2.3722192e-08
2.0818506e-07
2.2855646e-08
2.0616099e-07
2.2068098e-08
2.0418568e-07
2.1352259e-08
2.022546e-07
2.0701641e-08
2.0036357e-07
2.0110388e-08
1.985087e-07
1.9573273e-08
1.9668639e-07
1.9085547e-08
1.9489334e-07
1.8642961e-08
1.9312645e-07
1.8241638e-08
1.9138292e-07
1.7878103e-08
1.8966011e-07
1.7549159e-08
1.8795561e-07
1.7251926e-08
1.8626717e-07
1.6983724e-08
1.8459272e-07
1.6742146e-08
1.8293032e-07
1.6524935e-08
1.8127828e-07
1.6330073e-08
1.6155665e-08
1.2296167e-07
-1.4206452e-08
1.5083418e-07
-1.0081796e-08
1.8759022e-07
6.4426359e-08
2.2099931e-07
1.1752997e-07
2.4717982e-07
1.5082699e-07
2.6579594e-07
1.659035e-07
2.7791064e-07
1.6836729e-07
2.8494297e-07
1.6297248e-07
2.8820795e-07
1.5326618e-07
2.8884226e-07
1.4175411e-07
2.8774552e-07
1.3006934e-07
2.8548874e-07
1.1868354e-07
2.8244398e-07
1.0781671e-07
2.7890267e-07
9.8006958e-08
2.7512366e-07
8.9315509e-08
2.7127678e-07
8.1724075e-08
2.6741423e-07
7.507064e-08
2.6359674e-07
6.9173295e-08
2.5986281e-07
6.3923986e-08
2.5623573e-07
5.9237244e-08
2.5272867e-07
5.5046276e-08
2.4934755e-07
5.12935e-08
2.4609358e-07
4.7925361e-08
2.4296485e-07
4.4897164e-08
2.3995737e-07
4.2170389e-08
2.3706578e-07
3.9711428e-08
2.3428395e-07
3.7490944e-08
2.3160533e-07
3.548321e-08
2.290232e-07
3.3665741e-08
2.2653091e-07
3.201877e-08
2.2412191e-07
3.0524944e-08
2.2178991e-07
2.916895e-08
2.195289e-07
2.7937272e-08
2.1733315e-07
2.681791e-08
2.1519729e-07
2.5800233e-08
2.1311622e-07
2.487474e-08
2.1108521e-07
2.4032981e-08
2.090998e-07
2.3267359e-08
2.0715583e-07
2.2571085e-08
2.0524945e-07
2.1938023e-08
2.0337704e-07
2.1362672e-08
2.0153524e-07
2.0840035e-08
1.9972095e-07
2.0365618e-08
1.9793126e-07
1.9935323e-08
1.9616349e-07
1.9545457e-08
1.9441516e-07
1.919263e-08
1.9268396e-07
1.8873769e-08
1.9096775e-07
1.8586033e-08
1.8926452e-07
1.8326844e-08
1.8757243e-07
1.8093806e-08
1.8588984e-07
1.7884765e-08
1.7697681e-08
1.1997708e-07
-2.5122019e-08
1.4016997e-07
-3.0206427e-08
1.7145349e-07
3.3201887e-08
2.0274445e-07
8.6291761e-08
2.2942541e-07
1.2419411e-07
2.500033e-07
1.453702e-07
2.6469478e-07
1.5371759e-07
2.7440466e-07
1.5330191e-07
2.801827e-07
1.4752509e-07
2.8302398e-07
1.3894738e-07
2.8381959e-07
1.2930567e-07
2.8314761e-07
1.1938477e-07
2.8140108e-07
1.095896e-07
2.7894318e-07
1.004881e-07
2.7603326e-07
9.2245449e-08
2.7289345e-07
8.488035e-08
2.6962821e-07
7.8348872e-08
2.6630365e-07
7.2507279e-08
2.6297728e-07
6.7256067e-08
2.5968773e-07
6.252871e-08
2.5646059e-07
5.8271472e-08
2.5331181e-07
5.4436427e-08
2.5025069e-07
5.0976683e-08
2.4728192e-07
4.785215e-08
2.4440693e-07
4.50276e-08
2.4162477e-07
4.2471772e-08
2.3893294e-07
4.0156907e-08
2.3632788e-07
3.8058326e-08
2.3380537e-07
3.6154214e-08
2.3136078e-07
3.4425198e-08
2.2898931e-07
3.285412e-08
2.2668609e-07
3.1425725e-08
2.244463e-07
3.0126446e-08
2.2226522e-07
2.8944171e-08
2.2013834e-07
2.7868101e-08
2.1806128e-07
2.6888547e-08
2.1602992e-07
2.5996843e-08
2.1404032e-07
2.5185177e-08
2.1208878e-07
2.4446534e-08
2.1017182e-07
2.3774562e-08
2.0828615e-07
2.316354e-08
2.0642871e-07
2.2608268e-08
2.0459663e-07
2.2104045e-08
2.0278722e-07
2.1646586e-08
2.00998e-07
2.1232008e-08
1.9922662e-07
2.0856751e-08
1.9747093e-07
2.0517574e-08
1.957289e-07
2.0211484e-08
1.9399864e-07
1.9935758e-08
1.9227841e-07
1.9687862e-08
1.9056664e-07
1.9465522e-08
1.9266575e-08
1.1872012e-07
-3.1759467e-08
1.3306037e-07
-4.4476604e-08
1.5907595e-07
7.2468292e-09
1.875381e-07
5.7883611e-08
2.1369908e-07
9.8082305e-08
2.3530189e-07
1.2381288e-07
2.5185312e-07
1.3720892e-07
2.6374773e-07
1.4144724e-07
2.7173046e-07
1.3957978e-07
2.7662579e-07
1.340869e-07
2.7922127e-07
1.2674237e-07
2.8011499e-07
1.1852036e-07
2.7970045e-07
1.1003048e-07
2.7836194e-07
1.0184979e-07
2.7639109e-07
9.4236109e-08
2.7400711e-07
8.728063e-08
2.7138162e-07
8.0987051e-08
2.6860044e-07
7.5297551e-08
2.6572896e-07
7.0132895e-08
2.6282049e-07
6.5438692e-08
2.5991294e-07
6.117664e-08
2.5703242e-07
5.7310607e-08
2.5419655e-07
5.3802238e-08
2.5141687e-07
5.0617476e-08
2.4870051e-07
4.7725565e-08
2.4605123e-07
4.5098577e-08
2.4347043e-07
4.2711136e-08
2.4095779e-07
4.0540259e-08
2.3851179e-07
3.8565341e-08
2.361301e-07
3.6767851e-08
2.3380978e-07
3.5131186e-08
2.3154758e-07
3.3640457e-08
2.2934002e-07
3.2282293e-08
2.2718353e-07
3.1044674e-08
2.2507454e-07
2.9916809e-08
2.2300953e-07
2.888896e-08
2.2098506e-07
2.7952369e-08
2.189978e-07
2.7099109e-08
2.1704458e-07
2.6322023e-08
2.1512235e-07
2.5614615e-08
2.1322821e-07
2.4971006e-08
2.1135945e-07
2.4385841e-08
2.0951347e-07
2.3854262e-08
2.0768785e-07
2.3371828e-08
2.0588031e-07
2.2934504e-08
2.0408873e-07
2.2538586e-08
2.0231109e-07
2.2180687e-08
2.0054552e-07
2.1857687e-08
1.9879027e-07
2.1566725e-08
1.970437e-07
2.1305162e-08
1.9530438e-07
2.1070596e-08
2.0860768e-08
1.1878718e-07
-3.5360418e-08
1.2868516e-07
-5.430346e-08
1.4987306e-07
-1.3879793e-08
1.75162e-07
3.2649309e-08
2.0006361e-07
7.3230421e-08
2.2190226e-07
1.0202023e-07
2.3964227e-07
1.195119e-07
2.5321987e-07
1.2790993e-07
2.6306088e-07
1.2977643e-07
2.6979464e-07
1.2738813e-07
2.7408206e-07
1.2248714e-07
2.7647101e-07
1.1616067e-07
2.7738559e-07
1.0914207e-07
2.7718767e-07
1.0207066e-07
2.7618784e-07
9.5255482e-08
2.7462292e-07
8.8861522e-08
2.7267253e-07
8.2949821e-08
2.7047435e-07
7.7504374e-08
2.6810128e-07
7.2510861e-08
2.6561513e-07
6.7925857e-08
2.6306552e-07
6.3723344e-08
2.6048861e-07
5.9880627e-08
2.5791029e-07
5.6369634e-08
2.5534912e-07
5.3163663e-08
2.5281807e-07
5.023754e-08
2.503258e-07
4.7567637e-08
2.4787783e-07
4.513175e-08
2.4547729e-07
4.2909245e-08
2.431256e-07
4.0881279e-08
2.4082283e-07
3.9030615e-08
2.3856816e-07
3.7341591e-08
2.3636005e-07
3.5799998e-08
2.3419653e-07
3.4392927e-08
2.320753e-07
3.3108672e-08
2.2999386e-07
3.1936631e-08
2.2794962e-07
3.0867176e-08
2.2593993e-07
2.9891586e-08
2.2396216e-07
2.9001928e-08
2.2201372e-07
2.8191001e-08
2.2009207e-07
2.745224e-08
2.1819477e-07
2.6779679e-08
2.1631947e-07
2.6167864e-08
2.1446394e-07
2.5611828e-08
2.1262603e-07
2.510702e-08
2.1080373e-07
2.4649289e-08
2.0899514e-07
2.4234814e-08
2.0719844e-07
2.3860098e-08
2.0541194e-07
2.3521908e-08
2.0363404e-07
2.3217279e-08
2.0186326e-07
2.2943454e-08
2.0009827e-07
2.269795e-08
2.247842e-08
1.1987684e-07
-3.6862539e-08
1.2641168e-07
-6.0766639e-08
1.4331913e-07
-3.0725772e-08
1.6534494e-07
1.0678209e-08
1.8848831e-07
5.0136827e-08
2.0992911e-07
8.0625489e-08
2.2825845e-07
1.0122559e-07
2.4303036e-07
1.1317833e-07
2.5436825e-07
1.1847618e-07
2.6268846e-07
1.191028e-07
2.6851504e-07
1.1669257e-07
2.7232254e-07
1.1238216e-07
2.7451171e-07
1.0697875e-07
2.7545588e-07
1.0114902e-07
2.7544501e-07
9.5285454e-08
2.7473156e-07
8.9590536e-08
2.7350883e-07
8.418445e-08
2.7192073e-07
7.9100654e-08
2.7008206e-07
7.4353846e-08
2.6805617e-07
6.9952176e-08
2.6590076e-07
6.5875223e-08
2.6366153e-07
6.2112314e-08
2.6137247e-07
5.8647092e-08
2.5905904e-07
5.5461388e-08
2.5674013e-07
5.2536608e-08
2.5442942e-07
4.985434e-08
2.5213664e-07
4.739631e-08
2.4986857e-07
4.5144858e-08
2.4762966e-07
4.3083457e-08
2.4542262e-07
4.1196618e-08
2.4324883e-07
3.9470009e-08
2.4110866e-07
3.7890433e-08
2.3900174e-07
3.6445713e-08
2.3692716e-07
3.5124685e-08
2.3488361e-07
3.3917137e-08
2.3286954e-07
3.2813714e-08
2.3088317e-07
3.1805873e-08
2.2892264e-07
3.0885795e-08
2.2698601e-07
3.0046333e-08
2.2507134e-07
2.9280945e-08
2.2317669e-07
2.8583646e-08
2.2130014e-07
2.7948951e-08
2.1943984e-07
2.7371838e-08
2.17594e-07
2.6847693e-08
2.157609e-07
2.6372289e-08
2.1393888e-07
2.5941727e-08
2.1212638e-07
2.5552426e-08
2.103219e-07
2.5201072e-08
2.0852402e-07
2.4884604e-08
2.0673142e-07
2.4600191e-08
2.0494295e-07
2.4345254e-08
2.4117422e-08
1.2174882e-07
-3.696075e-08
1.2574876e-07
-6.4694765e-08
1.3895409e-07
-4.3869812e-08
1.5779684e-07
-8.1102159e-09
1.7887843e-07
2.9104574e-08
1.9943627e-07
6.0113301e-08
2.1784087e-07
8.2863663e-08
2.3335126e-07
9.7707927e-08
2.4582284e-07
1.060419e-07
2.5546215e-07
1.0949801e-07
2.62643e-07
1.0954332e-07
2.677583e-07
1.072954e-07
2.7116488e-07
1.035975e-07
2.7320914e-07
9.9126727e-08
2.7419217e-07
9.432091e-08
2.7434736e-07
8.945032e-08
2.7388174e-07
8.4661399e-08
2.7294788e-07
8.0042069e-08
2.716653e-07
7.5640115e-08
2.7013202e-07
7.1485169e-08
2.6840416e-07
6.7598832e-08
2.6653476e-07
6.3973415e-08
2.6456545e-07
6.0604023e-08
2.6252835e-07
5.7481965e-08
2.6044819e-07
5.4596072e-08
2.5834363e-07
5.1933993e-08
2.5622869e-07
4.9482079e-08
2.5411387e-07
4.7226223e-08
2.5200678e-07
4.515275e-08
2.4991287e-07
4.3248369e-08
2.4783587e-07
4.1500457e-08
2.4577813e-07
3.9897165e-08
2.4374104e-07
3.8427326e-08
2.4172518e-07
3.7080555e-08
2.3973053e-07
3.5847232e-08
2.3775665e-07
3.4718447e-08
2.3580274e-07
3.3685987e-08
2.3386779e-07
3.2742269e-08
2.3195058e-07
3.1880313e-08
2.3004983e-07
3.1093688e-08
2.2816414e-07
3.0376475e-08
2.262921e-07
2.9723224e-08
2.244323e-07
2.9128918e-08
2.2258332e-07
2.8588933e-08
2.2074377e-07
2.809901e-08
2.1891232e-07
2.7655215e-08
2.1708764e-07
2.7253912e-08
2.1526847e-07
2.6891736e-08
2.134536e-07
2.6565563e-08
2.116419e-07
2.6272501e-08
2.098324e-07
2.6009894e-08
2.5775361e-08
1.2421312e-07
-3.6157437e-08
1.2631546e-07
-6.6725403e-08
1.3638199e-07
-5.3875533e-08
1.5222988e-07
-2.3904519e-08
1.7109885e-07
1.0284104e-08
1.9042221e-07
4.0834753e-08
2.0847795e-07
6.4849823e-08
2.2431715e-07
8.1908001e-08
2.3757222e-07
9.2823456e-08
2.4825572e-07
9.884837e-08
2.565914e-07
1.0123856e-07
2.6287581e-07
1.0103884e-07
2.6741633e-07
9.9081564e-08
2.7051866e-07
9.6045614e-08
2.7246301e-07
9.2394282e-08
2.7349423e-07
8.8433286e-08
2.7380103e-07
8.4365182e-08
2.7354759e-07
8.0302329e-08
2.7285877e-07
7.6331852e-08
2.7183609e-07
7.2506807e-08
2.7056469e-07
6.8865119e-08
2.6909463e-07
6.5434312e-08
2.6747375e-07
6.2211631e-08
2.6574041e-07
5.9197864e-08
2.6392493e-07
5.6389897e-08
2.6205082e-07
5.3782194e-08
2.6013635e-07
5.1366333e-08
2.5819574e-07
4.9132272e-08
2.5623985e-07
4.7069694e-08
2.5427691e-07
4.5167928e-08
2.5231309e-07
4.3416431e-08
2.5035285e-07
4.1805036e-08
2.483994e-07
4.0323854e-08
2.4645492e-07
3.8963521e-08
2.4452076e-07
3.7715216e-08
2.4259769e-07
3.6570652e-08
2.4068597e-07
3.5522098e-08
2.3878549e-07
3.4562341e-08
2.3689585e-07
3.3684682e-08
2.3501646e-07
3.2882898e-08
2.3314655e-07
3.2151223e-08
2.3128527e-07
3.1484315e-08
2.2943167e-07
3.0877228e-08
2.2758477e-07
3.0325381e-08
2.2574357e-07
2.9824537e-08
2.2390703e-07
2.9370763e-08
2.2207416e-07
2.8960415e-08
2.2024395e-07
2.85901e-08
2.1841542e-07
2.8256669e-08
2.1658766e-07
2.7957175e-08
2.1475991e-07
2.7688962e-08
2.7449608e-08
1.2712424e-07
-3.4806972e-08
1.2781903e-07
-6.7348774e-08
1.3526727e-07
-6.1263662e-08
1.4837156e-07
-3.6956195e-08
1.6499224e-07
-6.2892475e-09
1.828445e-07
2.3026102e-08
2.0021508e-07
4.7519986e-08
2.1602718e-07
6.613409e-08
2.2973969e-07
7.9146563e-08
2.4119561e-07
8.7425334e-08
2.5047677e-07
9.1987369e-08
2.5777958e-07
9.3762917e-08
2.6334576e-07
9.3539001e-08
2.6744145e-07
9.1970163e-08
2.7031699e-07
8.9535523e-08
2.7219932e-07
8.6564242e-08
2.7328619e-07
8.3287946e-08
2.7372664e-07
7.9867787e-08
2.7365484e-07
7.6405681e-08
2.7317527e-07
7.2984403e-08
2.7237567e-07
6.9658708e-08
2.7133065e-07
6.6469167e-08
2.7008447e-07
6.3443522e-08
2.686806e-07
6.0583243e-08
2.671546e-07
5.7893172e-08
2.6553454e-07
5.5375225e-08
2.638428e-07
5.3026697e-08
2.6209727e-07
5.0842023e-08
2.6031203e-07
4.881472e-08
2.5849813e-07
4.6937109e-08
2.5666424e-07
4.5201075e-08
2.5481698e-07
4.3598459e-08
2.5296145e-07
4.2120909e-08
2.5110149e-07
4.0760312e-08
2.4923994e-07
3.9508861e-08
2.4737883e-07
3.8359067e-08
2.4551953e-07
3.7303841e-08
2.4366294e-07
3.6336473e-08
2.4180951e-07
3.5450663e-08
2.3995943e-07
3.46405e-08
2.3811261e-07
3.3900458e-08
2.3626879e-07
3.3225384e-08
2.3442755e-07
3.2610471e-08
2.3258838e-07
3.2051241e-08
2.3075069e-07
3.1543531e-08
2.2891384e-07
3.108346e-08
2.2707715e-07
3.0667406e-08
2.2523989e-07
3.0291998e-08
2.2340137e-07
2.9954073e-08
2.2156089e-07
2.9650713e-08
2.1971793e-07
2.9379267e-08
1.3037434e-07
-3.3153302e-08
1.3003774e-07
-6.6941205e-08
1.3533036e-07
-6.6497022e-08
1.4597223e-07
-4.7546616e-08
1.6039253e-07
-2.0663592e-08
1.7663238e-07
6.828357e-09
1.9306287e-07
3.1128736e-08
2.0854863e-07
5.0685081e-08
2.2242432e-07
6.5305128e-08
2.3439268e-07
7.5488549e-08
2.4440751e-07
8.2001241e-08
2.5256626e-07
8.5629817e-08
2.59041e-07
8.7086677e-08
2.6404583e-07
8.6984393e-08
2.6780215e-07
8.5794864e-08
2.7051259e-07
8.3865991e-08
2.7235957e-07
8.1449517e-08
2.7350099e-07
7.8731143e-08
2.7405821e-07
7.5849406e-08
2.7414245e-07
7.2897155e-08
2.7384296e-07
6.9951105e-08
2.7323636e-07
6.7064562e-08
2.7238757e-07
6.4276859e-08
2.7133666e-07
6.1614478e-08
2.7012331e-07
5.9082587e-08
2.6877979e-07
5.6690479e-08
2.673323e-07
5.4441514e-08
2.6580231e-07
5.2334902e-08
2.6420699e-07
5.0368427e-08
2.6256022e-07
4.8537713e-08
2.6087314e-07
4.6837378e-08
2.5915458e-07
4.5261589e-08
2.5741157e-07
4.3803763e-08
2.5564968e-07
4.2457264e-08
2.5387327e-07
4.1215508e-08
2.5208569e-07
4.0071976e-08
2.5028952e-07
3.9020381e-08
2.4848669e-07
3.805465e-08
2.466786e-07
3.7169004e-08
2.4486623e-07
3.6357946e-08
2.4305025e-07
3.5616287e-08
2.4123102e-07
3.4939141e-08
2.3940871e-07
3.4321914e-08
2.3758334e-07
3.3760293e-08
2.3575475e-07
3.3250248e-08
2.3392273e-07
3.2787993e-08
2.3208694e-07
3.2369983e-08
2.30247e-07
3.1992888e-08
2.2840249e-07
3.1653589e-08
2.2655303e-07
3.1349192e-08
3.1077178e-08
1.3388537e-07
-3.1359649e-08
1.3280532e-07
-6.5790827e-08
1.3634272e-07
-6.9976171e-08
1.4480946e-07
-5.5963203e-08
1.5713457e-07
-3.2944287e-08
1.7169725e-07
-7.6939183e-09
1.8700519e-07
1.5858264e-08
2.0192144e-07
3.5803833e-08
2.1570234e-07
5.1556793e-08
2.2794158e-07
6.3279268e-08
2.3848265e-07
7.1487307e-08
2.473301e-07
7.6806521e-08
2.54585e-07
7.9852746e-08
2.6040687e-07
8.1180215e-08
2.649771e-07
8.1238996e-08
2.684747e-07
8.0379272e-08
2.7106341e-07