/*--------------------------------*- C++ -*----------------------------------*\
| =========                 |                                                 |
| \\      /  F ield         | OpenFOAM: The Open Source CFD Toolbox           |
|  \\    /   O peration     | Version:  2312                                  |
|   \\  /    A nd           | Website:  www.openfoam.com                      |
|    \\/     M anipulation  |                                                 |
\*---------------------------------------------------------------------------*/
FoamFile
{
    version     2.0;
    format      ascii;
    arch        "LSB;label=32;scalar=64";
    class       volVectorField;
    location    "0.07";
    object      U;
}
// * * * * * * * * * * * * * * * * * * * * * * * * * * * * * * * * * * * * * //

dimensions      [0 1 -1 0 0 0 0];

internalField   nonuniform List<vector> 
3275
(
(54.963358 0.36736107 0)
(48.117719 0.87134369 0)
(39.999626 0.91123114 0)
(33.077157 0.77877971 0)
(27.622372 0.60620695 0)
(23.477932 0.46082874 0)
(20.304167 0.35256627 0)
(17.828325 0.27277069 0)
(15.87092 0.21418171 0)
(14.288699 0.17071747 0)
(13.014993 0.13897479 0)
(11.999281 0.11468825 0)
(11.142352 0.095086375 0)
(10.407238 0.080326603 0)
(9.7865873 0.068720655 0)
(9.2531637 0.059516812 0)
(8.7901133 0.052089661 0)
(8.384047 0.045982325 0)
(8.0248871 0.040879059 0)
(7.7047931 0.036560243 0)
(7.4175946 0.032869606 0)
(7.1583149 0.029688098 0)
(6.9229106 0.026923481 0)
(6.7080931 0.024505121 0)
(6.5111322 0.022377649 0)
(6.3297531 0.020496512 0)
(6.1620418 0.018826213 0)
(6.006378 0.017337486 0)
(5.8613803 0.016006534 0)
(5.7258641 0.014813231 0)
(5.5988074 0.013741028 0)
(5.4793246 0.012775664 0)
(5.3666437 0.011905226 0)
(5.2600894 0.011119196 0)
(5.1590681 0.010408811 0)
(5.063056 0.0097661699 0)
(4.9715893 0.0091845915 0)
(4.8842563 0.0086579215 0)
(4.8006891 0.0081809492 0)
(4.7205593 0.0077488075 0)
(4.6435718 0.0073573812 0)
(4.5694613 0.0070027768 0)
(4.4979886 0.0066818988 0)
(4.4289369 0.0063913761 0)
(4.3621102 0.0061286444 0)
(4.2973309 0.0058924593 0)
(4.2344395 0.005680849 0)
(4.173289 0.0054909768 0)
(4.1137441 0.0053220522 0)
(4.0556831 0.0051717723 0)
(3.9989928 0.0050385274 0)
(3.9435703 0.0049211569 0)
(54.202769 1.2100893 0)
(46.351994 2.6518703 0)
(38.295631 2.6817542 0)
(31.829098 2.257485 0)
(26.778388 1.7523682 0)
(22.918633 1.3356033 0)
(19.92812 1.0243607 0)
(17.568961 0.79399357 0)
(15.687256 0.62397311 0)
(14.15554 0.49733678 0)
(12.915966 0.40461012 0)
(11.923285 0.3334964 0)
(11.083111 0.27603236 0)
(10.360433 0.23279994 0)
(9.7488158 0.19883595 0)
(9.2222124 0.17195733 0)
(8.7643923 0.15033028 0)
(8.3624115 0.13261077 0)
(8.0064895 0.11786787 0)
(7.6889964 0.10545298 0)
(7.4039113 0.094903586 0)
(7.1463679 0.085866319 0)
(6.9124044 0.078065269 0)
(6.6987932 0.071288369 0)
(6.5028506 0.065368695 0)
(6.3223377 0.060171593 0)
(6.1553687 0.05558916 0)
(6.0003451 0.051532533 0)
(5.8559028 0.047929272 0)
(5.7208713 0.04471838 0)
(5.5942399 0.04184966 0)
(5.475132 0.039280155 0)
(5.3627832 0.036974091 0)
(5.2565241 0.034900241 0)
(5.1557665 0.033032555 0)
(5.0599908 0.031347952 0)
(4.9687369 0.029826961 0)
(4.8815956 0.028451971 0)
(4.7982021 0.027208125 0)
(4.7182298 0.026081837 0)
(4.6413857 0.02506161 0)
(4.5674062 0.024136804 0)
(4.4960531 0.02329851 0)
(4.4271111 0.022538257 0)
(4.3603856 0.021849195 0)
(4.2956996 0.021225131 0)
(4.2328942 0.020661335 0)
(4.1718232 0.020150761 0)
(4.1123522 0.019690319 0)
(4.0543594 0.019274514 0)
(3.9977326 0.018899424 0)
(3.942369 0.018561489 0)
(52.000613 2.6189811 0)
(42.535041 4.5816563 0)
(34.93628 4.3018372 0)
(29.445765 3.5289703 0)
(25.177429 2.7385063 0)
(21.852653 2.1065425 0)
(19.205856 1.6287219 0)
(17.067335 1.2716934 0)
(15.329943 1.0054153 0)
(13.895256 0.80513209 0)
(12.721654 0.65736879 0)
(11.773717 0.5432367 0)
(10.966254 0.45056558 0)
(10.267932 0.38062561 0)
(9.6740598 0.32549575 0)
(9.1608888 0.28177296 0)
(8.7133916 0.24653807 0)
(8.3194872 0.21763877 0)
(7.9699757 0.19357895 0)
(7.6576372 0.17331309 0)
(7.3767452 0.15609371 0)
(7.1226497 0.14134821 0)
(6.8915487 0.12862736 0)
(6.6803353 0.11758515 0)
(6.4864177 0.10794833 0)
(6.3076279 0.09949647 0)
(6.1421353 0.09205215 0)
(5.988385 0.085469214 0)
(5.8450473 0.079628138 0)
(5.7109796 0.074428681 0)
(5.5851933 0.069787819 0)
(5.4668301 0.065634923 0)
(5.3551405 0.061910803 0)
(5.2494674 0.05856427 0)
(5.1492327 0.055552306 0)
(5.0539255 0.052837015 0)
(4.9630925 0.050386286 0)
(4.8763308 0.048171464 0)
(4.7932806 0.046168099 0)
(4.7136196 0.044354148 0)
(4.6370586 0.042710801 0)
(4.5633372 0.041220818 0)
(4.4922201 0.0398696 0)
(4.4234943 0.038643535 0)
(4.3569674 0.037531512 0)
(4.2924645 0.036522765 0)
(4.2298278 0.035609206 0)
(4.1689127 0.03478052 0)
(4.1095859 0.034030454 0)
(4.0517268 0.033350921 0)
(3.9952241 0.032735717 0)
(3.9399762 0.032178853 0)
(46.36752 5.3566671 0)
(36.180868 6.597426 0)
(30.089471 5.5658035 0)
(26.163393 4.4457569 0)
(22.986404 3.4776816 0)
(20.377238 2.7199742 0)
(18.192452 2.1299963 0)
(16.355583 1.6819618 0)
(14.818073 1.3425095 0)
(13.519432 1.0832316 0)
(12.439296 0.88963522 0)
(11.555293 0.73846285 0)
(10.794937 0.61478665 0)
(10.131882 0.52091917 0)
(9.5638221 0.44653248 0)
(9.0702754 0.38730264 0)
(8.6379087 0.33941627 0)
(8.2558739 0.30003804 0)
(7.9158051 0.26718544 0)
(7.6110744 0.23946797 0)
(7.3363812 0.21588682 0)
(7.0873897 0.19567445 0)
(6.8605316 0.17822462 0)
(6.6528758 0.16307001 0)
(6.4619652 0.14983944 0)
(6.2857358 0.13823359 0)
(6.1224384 0.12800996 0)
(5.970582 0.11896927 0)
(5.8288881 0.11094745 0)
(5.6962547 0.10380744 0)
(5.5717265 0.097434904 0)
(5.4544719 0.09173312 0)
(5.3437636 0.086620388 0)
(5.2389627 0.082026594 0)
(5.1395062 0.077892122 0)
(5.0448959 0.074165136 0)
(4.954689 0.070801124 0)
(4.8684917 0.067760905 0)
(4.7859517 0.065010609 0)
(4.7067533 0.062520176 0)
(4.6306128 0.060263478 0)
(4.5572746 0.05821707 0)
(4.4865076 0.05636058 0)
(4.4181026 0.054675615 0)
(4.3518701 0.053146545 0)
(4.2876382 0.051758718 0)
(4.2252514 0.050500127 0)
(4.1645668 0.049357677 0)
(4.1054535 0.048321866 0)
(4.047792 0.047382296 0)
(3.9914727 0.046530211 0)
(3.9363953 0.045757556 0)
(33.59782 6.7246235 0)
(27.000584 7.778728 0)
(24.199867 6.1284128 0)
(22.347703 4.8927214 0)
(20.428708 3.9164837 0)
(18.620571 3.1395111 0)
(16.960687 2.506467 0)
(15.476682 2.0088715 0)
(14.177622 1.6233787 0)
(13.044079 1.3230712 0)
(12.079031 1.0951728 0)
(11.274699 0.91460939 0)
(10.57367 0.76533709 0)
(9.9553761 0.65113327 0)
(9.4202947 0.56000333 0)
(8.9519637 0.48704135 0)
(8.539127 0.42778071 0)
(8.1724699 0.37886354 0)
(7.8446734 0.33792508 0)
(7.5498567 0.30329597 0)
(7.28326 0.27377166 0)
(7.0409482 0.24842055 0)
(6.819652 0.2265025 0)
(6.6166665 0.20744423 0)
(6.4297082 0.19078902 0)
(6.2568476 0.17616696 0)
(6.0964408 0.16327764 0)
(5.9470802 0.1518731 0)
(5.8075535 0.14174907 0)
(5.6768121 0.13273428 0)
(5.5539438 0.12468583 0)
(5.4381523 0.11748235 0)
(5.3287392 0.11102145 0)
(5.2250896 0.10521494 0)
(5.1266602 0.099987957 0)
(5.0329694 0.095275071 0)
(4.9435886 0.091020327 0)
(4.8581356 0.087174275 0)
(4.7762683 0.083694314 0)
(4.6976795 0.080542424 0)
(4.6220929 0.077685753 0)
(4.5492592 0.075094626 0)
(4.478953 0.07274341 0)
(4.4109698 0.070608793 0)
(4.3451244 0.068670959 0)
(4.2812485 0.066911291 0)
(4.2191895 0.065314264 0)
(4.1588074 0.06386383 0)
(4.0999738 0.062547533 0)
(4.0425713 0.061352526 0)
(3.9864922 0.060267884 0)
(3.9316384 0.059283388 0)
(10.763265 7.343579 0)
(17.397233 6.9051616 0)
(18.586373 5.7573846 0)
(18.686611 4.8445462 0)
(17.898285 4.041614 0)
(16.829223 3.3411482 0)
(15.670402 2.7334245 0)
(14.535758 2.2317523 0)
(13.480758 1.8286046 0)
(12.519964 1.5074792 0)
(11.677487 1.2593191 0)
(10.959273 1.059303 0)
(10.323215 0.89175935 0)
(9.7544577 0.76232784 0)
(9.2561831 0.65823255 0)
(8.8161912 0.57433911 0)
(8.4254291 0.50581594 0)
(8.0762355 0.44898924 0)
(7.7624322 0.40124693 0)
(7.4789584 0.36073164 0)
(7.2216519 0.32609443 0)
(6.9870237 0.29628497 0)
(6.7721391 0.2704619 0)
(6.5745472 0.24797079 0)
(6.3921604 0.22828753 0)
(6.2232016 0.21098607 0)
(6.0661468 0.1957187 0)
(5.919683 0.18219792 0)
(5.7826738 0.17018571 0)
(5.6541316 0.15948233 0)
(5.5331939 0.14992043 0)
(5.4191049 0.14135786 0)
(5.3111993 0.13367419 0)
(5.2088898 0.12676582 0)
(5.1116562 0.12054438 0)
(5.019036 0.11493288 0)
(4.930617 0.10986507 0)
(4.8460307 0.10528262 0)
(4.7649465 0.101135 0)
(4.6870674 0.097377322 0)
(4.6121254 0.093970548 0)
(4.5398789 0.090879645 0)
(4.4701087 0.088074097 0)
(4.4026161 0.085526333 0)
(4.3372207 0.083212575 0)
(4.2737584 0.08111077 0)
(4.2120803 0.079202122 0)
(4.1520496 0.077468044 0)
(4.0935409 0.075893332 0)
(4.0364391 0.074462972 0)
(3.980639 0.073163909 0)
(3.9260441 0.071984048 0)
(4.1246247 3.0944188 0)
(11.527095 4.5627751 0)
(14.168396 4.8318497 0)
(15.471993 4.4763264 0)
(15.549474 3.9455761 0)
(15.102693 3.3814857 0)
(14.392635 2.8436009 0)
(13.582142 2.3710363 0)
(12.761692 1.9723195 0)
(11.971901 1.6455994 0)
(11.252965 1.3883363 0)
(10.62281 1.1770897 0)
(10.054076 0.99754084 0)
(9.5372684 0.85710073 0)
(9.0779346 0.74329907 0)
(8.6681369 0.6508922 0)
(8.3010361 0.57493466 0)
(7.9706553 0.51161198 0)
(7.6719904 0.45817965 0)
(7.4008319 0.41266902 0)
(7.153643 0.37363996 0)
(6.927405 0.33996225 0)
(6.7195373 0.31072232 0)
(6.5278597 0.28520561 0)
(6.3504944 0.26283697 0)
(6.185828 0.24314655 0)
(6.0324652 0.22574917 0)
(5.8891959 0.21032508 0)
(5.7549658 0.19660866 0)
(5.6288535 0.18437642 0)
(5.5100506 0.17344055 0)
(5.3978454 0.16364113 0)
(5.2916091 0.15484239 0)
(5.1907847 0.14692733 0)
(5.094877 0.13979591 0)
(5.0034449 0.13336083 0)
(4.9160937 0.12754689 0)
(4.8324701 0.12228785 0)
(4.7522564 0.11752623 0)
(4.6751664 0.11321094 0)
(4.6009419 0.10929746 0)
(4.5293492 0.10574584 0)
(4.4601763 0.10252122 0)
(4.3932306 0.099592121 0)
(4.3283372 0.096931223 0)
(4.2653366 0.094513364 0)
(4.2040839 0.092316732 0)
(4.1444459 0.090320379 0)
(4.0863004 0.088506626 0)
(4.0295351 0.08685849 0)
(3.9740472 0.085361092 0)
(3.919743 0.084000584 0)
(2.4423736 1.2055093 0)
(7.9195876 2.6591475 0)
(10.725353 3.7443903 0)
(12.620979 3.9012942 0)
(13.317863 3.6770984 0)
(13.385935 3.2911249 0)
(13.079203 2.8574364 0)
(12.576232 2.4402717 0)
(11.987044 2.0667211 0)
(11.372101 1.7481627 0)
(10.782589 1.4911892 0)
(10.246257 1.2758814 0)
(9.7502139 1.0899829 0)
(9.2903403 0.94187547 0)
(8.8741924 0.82100951 0)
(8.4981186 0.72197533 0)
(8.1576388 0.63994289 0)
(7.8485517 0.57112513 0)
(7.5671082 0.51275225 0)
(7.3100197 0.46281383 0)
(7.0744321 0.41982678 0)
(6.8578449 0.38261507 0)
(6.6580704 0.3502181 0)
(6.4732303 0.32187892 0)
(6.3016822 0.29698489 0)
(6.141997 0.27503197 0)
(5.9929257 0.25560524 0)
(5.8533745 0.23835819 0)
(5.7223827 0.2230022 0)
(5.5991051 0.20929309 0)
(5.4827949 0.19702538 0)
(5.3727912 0.18602321 0)
(5.2685074 0.17613722 0)
(5.169421 0.16723806 0)
(5.0750662 0.15921519 0)
(4.9850262 0.15197167 0)
(4.8989269 0.14542414 0)
(4.8164327 0.13949878 0)
(4.7372407 0.13413169 0)
(4.6610775 0.12926575 0)
(4.587696 0.12485138 0)
(4.5168718 0.12084383 0)
(4.4484014 0.1172042 0)
(4.3820993 0.11389708 0)
(4.3177967 0.11089189 0)
(4.2553399 0.10816024 0)
(4.1945883 0.10567764 0)
(4.1354131 0.10342064 0)
(4.077696 0.10136937 0)
(4.0213276 0.099504688 0)
(3.9662084 0.097809996 0)
(3.912247 0.096269738 0)
(1.9192542 0.58021796 0)
(5.6359615 1.4688877 0)
(8.1440265 2.7500401 0)
(10.209523 3.2431137 0)
(11.285902 3.293651 0)
(11.741779 3.0959516 0)
(11.773376 2.7847079 0)
(11.547164 2.4418405 0)
(11.17636 2.1107908 0)
(10.732713 1.8138968 0)
(10.274054 1.5658181 0)
(9.8348259 1.3534932 0)
(9.4148459 1.1672929 0)
(9.0155666 1.015157 0)
(8.6461319 0.89002182 0)
(8.3067974 0.78646901 0)
(7.9955642 0.69990689 0)
(7.7100377 0.62674867 0)
(7.4477617 0.56431191 0)
(7.2064113 0.51061897 0)
(6.9838562 0.46419437 0)
(6.7781504 0.42385492 0)
(6.58753 0.38861994 0)
(6.4104452 0.357711 0)
(6.2455109 0.33049239 0)
(6.0915011 0.30643806 0)
(5.9473282 0.28511133 0)
(5.8120276 0.26614622 0)
(5.6847435 0.24923558 0)
(5.5647151 0.23411916 0)
(5.4512653 0.22057634 0)
(5.3437904 0.20841832 0)
(5.2417509 0.19748356 0)
(5.1446639 0.18763242 0)
(5.0520967 0.17874457 0)
(4.96366 0.17071488 0)
(4.8790035 0.16345216 0)
(4.7978113 0.15687609 0)
(4.7197976 0.15091645 0)
(4.6447038 0.14551097 0)
(4.5722952 0.14060493 0)
(4.5023583 0.13614943 0)
(4.434699 0.1321014 0)
(4.3691402 0.12842207 0)
(4.3055203 0.12507737 0)
(4.2436916 0.12203623 0)
(4.1835192 0.11927122 0)
(4.1248791 0.11675678 0)
(4.0676571 0.11447061 0)
(4.0117478 0.1123918 0)
(3.9570549 0.1105019 0)
(3.9034903 0.10878373 0)
(1.6672046 0.27378245 0)
(4.1647994 0.74293672 0)
(6.2517947 1.928412 0)
(8.2374972 2.5894507 0)
(9.4976036 2.8490778 0)
(10.215816 2.8243542 0)
(10.512367 2.6395956 0)
(10.52216 2.3821809 0)
(10.349049 2.1059849 0)
(10.066899 1.8423056 0)
(9.7359144 1.6114778 0)
(9.3945011 1.4085694 0)
(9.0519686 1.2277633 0)
(8.715388 1.075707 0)
(8.3953341 0.94910834 0)
(8.095165 0.84329361 0)
(7.8153865 0.75390028 0)
(7.5554087 0.67768882 0)
(7.3140591 0.61218013 0)
(7.08999 0.55550402 0)
(6.8818159 0.50624602 0)
(6.6881686 0.463255 0)
(6.5077303 0.42556061 0)
(6.3392992 0.39238431 0)
(6.1817659 0.36308452 0)
(6.0341225 0.33712531 0)
(5.8954563 0.31405864 0)
(5.7649435 0.293506 0)
(5.6418422 0.27514817 0)
(5.5254851 0.25871284 0)
(5.4152714 0.24396841 0)
(5.3106606 0.23071547 0)
(5.2111657 0.21878307 0)
(5.1163478 0.20802261 0)
(5.0258106 0.1983059 0)
(4.9391962 0.18952037 0)
(4.8561803 0.18156839 0)
(4.7764695 0.17436348 0)
(4.6997973 0.16783017 0)
(4.6259212 0.16190112 0)
(4.5546208 0.15651731 0)
(4.4856951 0.15162569 0)
(4.4189606 0.14717964 0)
(4.3542493 0.14313698 0)
(4.2914078 0.13946066 0)
(4.2302957 0.13611676 0)
(4.170784 0.13307541 0)
(4.1127544 0.13030875 0)
(4.0560975 0.12779244 0)
(4.0007121 0.12550364 0)
(3.9465059 0.12342217 0)
(3.893394 0.12152956 0)
(1.5165531 0.079053291 0)
(3.2161318 0.29165635 0)
(4.8871115 1.2817605 0)
(6.6651419 1.9901379 0)
(7.9663111 2.3865622 0)
(8.8368631 2.504522 0)
(9.324983 2.4387921 0)
(9.5252174 2.2702806 0)
(9.5232324 2.0562991 0)
(9.3880174 1.8342927 0)
(9.1774912 1.6283639 0)
(8.9316171 1.4406298 0)
(8.6661913 1.2700261 0)
(8.3928543 1.1224658 0)
(8.1237867 0.99730809 0)
(7.864563 0.89148337 0)
(7.6179613 0.80105926 0)
(7.385181 0.7231885 0)
(7.166282 0.65569654 0)
(6.9608738 0.59689572 0)
(6.7683166 0.54548445 0)
(6.5878272 0.50038441 0)
(6.4185465 0.46066595 0)
(6.2596334 0.42557383 0)
(6.1102663 0.39447793 0)
(5.9696678 0.36684662 0)
(5.8371103 0.34223068 0)
(5.7119204 0.32024783 0)
(5.5934788 0.30057285 0)
(5.4812184 0.28292696 0)
(5.3746216 0.26707123 0)
(5.2732163 0.25279934 0)
(5.1765729 0.23993312 0)
(5.0843002 0.2283175 0)
(4.9960426 0.21781774 0)
(4.9114759 0.20831558 0)
(4.8303053 0.19970768 0)
(4.7522618 0.19190272 0)
(4.6771001 0.18482036 0)
(4.6045962 0.17838916 0)
(4.5345452 0.17254603 0)
(4.4667599 0.16723445 0)
(4.4010686 0.16240436 0)
(4.3373138 0.1580107 0)
(4.2753512 0.15401349 0)
(4.2150481 0.15037639 0)
(4.1562828 0.14706703 0)
(4.0989429 0.14405563 0)
(4.0429245 0.14131574 0)
(3.9881312 0.13882281 0)
(3.9344753 0.13655526 0)
(3.8818755 0.13449242 0)
(1.4189971 -0.041766377 0)
(2.5998908 0.011697471 0)
(3.911342 0.78919451 0)
(5.4346441 1.4689521 0)
(6.6835675 1.9377044 0)
(7.61857 2.161954 0)
(8.2312271 2.1995666 0)
(8.5757285 2.1166331 0)
(8.7152398 1.9676473 0)
(8.7086544 1.7924279 0)
(8.6082558 1.617229 0)
(8.4529147 1.4498718 0)
(8.262468 1.2935097 0)
(8.0515879 1.1545263 0)
(7.8338793 1.0339479 0)
(7.6166415 0.93023341 0)
(7.4044283 0.84060694 0)
(7.2001051 0.7625435 0)
(7.0049007 0.69423152 0)
(6.819333 0.63423528 0)
(6.6434855 0.58141663 0)
(6.4771515 0.53480921 0)
(6.3199318 0.49355481 0)
(6.1713502 0.4569446 0)
(6.0308801 0.42437827 0)
(5.8979816 0.39534275 0)
(5.7721201 0.36939905 0)
(5.6527796 0.34616985 0)
(5.5394701 0.32533116 0)
(5.431731 0.30660318 0)
(5.3291329 0.28974432 0)
(5.2312773 0.27454476 0)
(5.1377961 0.26082223 0)
(5.0483498 0.24841735 0)
(4.9626264 0.23719093 0)
(4.8803388 0.22702043 0)
(4.8012237 0.21779827 0)
(4.7250391 0.20942915 0)
(4.6515629 0.20182892 0)
(4.580591 0.19492261 0)
(4.511936 0.18864376 0)
(4.4454256 0.18293283 0)
(4.3809011 0.17773683 0)
(4.3182167 0.17300808 0)
(4.2572379 0.16870405 0)
(4.1978409 0.16478618 0)
(4.1399117 0.16121989 0)
(4.0833448 0.15797358 0)
(4.0280422 0.15501889 0)
(3.9739131 0.15232985 0)
(3.9208742 0.14988283 0)
(3.8688489 0.14765699 0)
(1.3515455 -0.11231086 0)
(2.1928044 -0.15978058 0)
(3.2143454 0.4232009 0)
(4.4838822 1.0327056 0)
(5.627336 1.5231531 0)
(6.5622911 1.8175238 0)
(7.2427218 1.9382292 0)
(7.6880947 1.9323293 0)
(7.9386875 1.8469571 0)
(8.0402755 1.7204781 0)
(8.0373219 1.5798269 0)
(7.9653752 1.4370192 0)
(7.8459521 1.2984169 0)
(7.695541 1.171432 0)
(7.528407 1.0584039 0)
(7.3533304 0.95897955 0)
(7.1761971 0.87189462 0)
(7.0011688 0.79512542 0)
(6.8305845 0.72720429 0)
(6.6658031 0.66699393 0)
(6.5075872 0.6135659 0)
(6.3562799 0.5661027 0)
(6.2119327 0.52384688 0)
(6.0744293 0.48615854 0)
(5.9435385 0.45248529 0)
(5.8189607 0.42234718 0)
(5.7003583 0.39532702 0)
(5.5873774 0.3710617 0)
(5.4796618 0.34923586 0)
(5.3768622 0.32957471 0)
(5.2786417 0.31183876 0)
(5.1846794 0.29581871 0)
(5.0946722 0.28133128 0)
(5.0083357 0.26821545 0)
(4.9254043 0.25632966 0)
(4.8456309 0.24554885 0)
(4.7687858 0.23576261 0)
(4.6946562 0.2268729 0)
(4.6230451 0.21879271 0)
(4.55377 0.21144442 0)
(4.4866623 0.20475889 0)
(4.4215659 0.1986741 0)
(4.3583366 0.19313465 0)
(4.2968408 0.18809065 0)
(4.2369553 0.18349737 0)
(4.1785657 0.17931433 0)
(4.1215666 0.17550502 0)
(4.0658597 0.1720362 0)
(4.0113541 0.16887788 0)
(3.9579645 0.1660024 0)
(3.9056135 0.16338554 0)
(3.8542285 0.16100348 0)
(1.3025718 -0.15163312 0)
(1.918428 -0.26325149 0)
(2.7143087 0.15624183 0)
(3.7548967 0.67777338 0)
(4.7688111 1.1542247 0)
(5.6604955 1.4867717 0)
(6.3637856 1.6689321 0)
(6.8717837 1.7281933 0)
(7.2041676 1.7015481 0)
(7.392841 1.6231228 0)
(7.473108 1.518907 0)
(7.4757616 1.4033993 0)
(7.4219808 1.2854145 0)
(7.3287499 1.1731873 0)
(7.2104674 1.0702058 0)
(7.0768815 0.97734378 0)
(6.9349008 0.89446758 0)
(6.7895823 0.82041035 0)
(6.6442 0.75409886 0)
(6.5008883 0.69468558 0)
(6.3610286 0.64148247 0)
(6.2254716 0.59385322 0)
(6.0946974 0.55116865 0)
(5.9689358 0.51287856 0)
(5.8482446 0.47849587 0)
(5.7325625 0.44758777 0)
(5.6217486 0.41977062 0)
(5.5156129 0.39470458 0)
(5.4139358 0.37209081 0)
(5.3164818 0.35166548 0)
(5.22301 0.33319653 0)
(5.1332797 0.31647908 0)
(5.0470559 0.30133243 0)
(4.964112 0.28759654 0)
(4.8842314 0.27512995 0)
(4.8072089 0.26380684 0)
(4.7328509 0.25351572 0)
(4.6609756 0.24415696 0)
(4.5914126 0.23564196 0)
(4.5240027 0.22789122 0)
(4.4585974 0.2208338 0)
(4.3950582 0.2144058 0)
(4.3332563 0.20855004 0)
(4.2730716 0.20321479 0)
(4.2143926 0.19835367 0)
(4.1571156 0.19392446 0)
(4.1011442 0.18988918 0)
(4.0463884 0.18621306 0)
(3.9927643 0.18286469 0)
(3.9401937 0.17981537 0)
(3.8886038 0.17703899 0)
(3.8379285 0.17451164 0)
(1.2661138 -0.1716952 0)
(1.7297719 -0.32393517 0)
(2.3528533 -0.035600534 0)
(3.1979614 0.3951293 0)
(4.0774153 0.83514173 0)
(4.9000242 1.1801086 0)
(5.5929627 1.4030808 0)
(6.131726 1.5140444 0)
(6.5192642 1.5388053 0)
(6.7744457 1.5055204 0)
(6.9231134 1.4378016 0)
(6.9904018 1.3510131 0)
(6.9957171 1.2555287 0)
(6.9553517 1.1601377 0)
(6.8833242 1.0693092 0)
(6.7898185 0.98503959 0)
(6.682391 0.90804825 0)
(6.56674 0.83802403 0)
(6.4467984 0.77448573 0)
(6.3253589 0.71688122 0)
(6.2043612 0.66475575 0)
(6.0851104 0.61767509 0)
(5.9684812 0.57516237 0)
(5.8550266 0.53677623 0)
(5.74508 0.50211013 0)
(5.6388109 0.47079217 0)
(5.5362714 0.4424829 0)
(5.4374337 0.41687523 0)
(5.342215 0.39369405 0)
(5.2504949 0.37269312 0)
(5.1621296 0.35365262 0)
(5.076961 0.33637677 0)
(4.9948239 0.32069069 0)
(4.9155516 0.30643848 0)
(4.8389784 0.29348102 0)
(4.7649431 0.28169402 0)
(4.6932899 0.27096633 0)
(4.6238693 0.26119846 0)
(4.5565395 0.25230114 0)
(4.4911656 0.24419426 0)
(4.4276206 0.23680575 0)
(4.3657848 0.23007072 0)
(4.3055457 0.22393064 0)
(4.2467976 0.21833269 0)
(4.1894419 0.21322905 0)
(4.1333859 0.20857642 0)
(4.0785433 0.20433543 0)
(4.0248327 0.20047026 0)
(3.9721783 0.19694826 0)
(3.9205082 0.19373961 0)
(3.8697571 0.19081715 0)
(3.8198635 0.18815664 0)
(1.2386228 -0.17956075 0)
(1.5974647 -0.35720888 0)
(2.0890415 -0.17141264 0)
(2.7726011 0.17384441 0)
(3.5239794 0.56532081 0)
(4.2648161 0.90355207 0)
(4.9246324 1.1492074 0)
(5.4690336 1.298258 0)
(5.8886742 1.3657238 0)
(6.1912442 1.3729652 0)
(6.3936467 1.340174 0)
(6.5150293 1.2822716 0)
(6.5720299 1.2102152 0)
(6.5794337 1.1330415 0)
(6.5503081 1.0560183 0)
(6.4948053 0.98199207 0)
(6.4207419 0.91243436 0)
(6.3342036 0.84774965 0)
(6.2395868 0.78805485 0)
(6.1401406 0.73322461 0)
(6.0382768 0.6830254 0)
(5.9357046 0.63721795 0)
(5.833648 0.59549456 0)
(5.7329525 0.55753831 0)
(5.6342076 0.52303723 0)
(5.5378003 0.49169195 0)
(5.4439677 0.46321772 0)
(5.3528397 0.43734834 0)
(5.2644675 0.41384014 0)
(5.178845 0.39247024 0)
(5.0959257 0.3730366 0)
(5.0156346 0.3553565 0)
(4.9378775 0.3392648 0)
(4.8625485 0.32461254 0)
(4.7895346 0.3112657 0)
(4.7187196 0.29910341 0)
(4.6499869 0.28801698 0)
(4.583221 0.27790826 0)
(4.5183096 0.26868891 0)
(4.4551435 0.26027902 0)
(4.3936182 0.25260657 0)
(4.3336338 0.24560626 0)
(4.275095 0.23921912 0)
(4.2179116 0.23339157 0)
(4.1619983 0.22807512 0)
(4.1072745 0.22322556 0)
(4.0536643 0.21880274 0)
(4.0010961 0.2147699 0)
(3.9495017 0.21109362 0)
(3.8988177 0.20774288 0)
(3.8489846 0.20469075 0)
(3.7999477 0.2019098 0)
(1.2176461 -0.17968464 0)
(1.502761 -0.37260622 0)
(1.8943181 -0.26576443 0)
(2.4469637 0.0031213415 0)
(3.0824421 0.34130218 0)
(3.7379532 0.65968187 0)
(4.3505024 0.91315074 0)
(4.8818256 1.0875697 0)
(5.3145279 1.1885397 0)
(5.6474767 1.2305836 0)
(5.8897223 1.2298494 0)
(6.0546014 1.1998375 0)
(6.1554134 1.1512733 0)
(6.204884 1.0930347 0)
(6.2147268 1.0309146 0)
(6.1945637 0.96840616 0)
(6.1521634 0.90756575 0)
(6.0937165 0.84944285 0)
(6.0239058 0.79463598 0)
(5.9462918 0.74345844 0)
(5.8636 0.69599382 0)
(5.7778837 0.65217665 0)
(5.6906696 0.6118644 0)
(5.6030604 0.57487486 0)
(5.5158744 0.54100162 0)
(5.4296987 0.51002853 0)
(5.3449428 0.48173415 0)
(5.2618862 0.4559009 0)
(5.1807095 0.43232326 0)
(5.1015177 0.41080766 0)
(5.0243598 0.39117461 0)
(4.9492433 0.37325896 0)
(4.8761448 0.35690871 0)
(4.80502 0.341985 0)
(4.7358088 0.32836141 0)
(4.6684413 0.31592282 0)
(4.6028408 0.30456471 0)
(4.5389268 0.29419205 0)
(4.4766173 0.28471861 0)
(4.4158301 0.27606603 0)
(4.3564839 0.26816314 0)
(4.2984994 0.26094525 0)
(4.2417996 0.25435354 0)
(4.1863102 0.24833444 0)
(4.1319603 0.24283923 0)
(4.0786817 0.23782335 0)
(4.0264098 0.23324619 0)
(3.9750828 0.22907056 0)
(3.9246417 0.22526215 0)
(3.8750306 0.22179018 0)
(3.8261976 0.21862501 0)
(3.778095 0.21574311 0)
(1.2013923 -0.17504597 0)
(1.4334846 -0.37624248 0)
(1.7487528 -0.32955611 0)
(2.1965217 -0.12673157 0)
(2.7305144 0.1581844 0)
(3.3030398 0.44860408 0)
(3.86086 0.6984281 0)
(4.3660582 0.88705723 0)
(4.7968138 1.0125332 0)
(5.1456113 1.083085 0)
(5.415051 1.1106185 0)
(5.6131993 1.1065434 0)
(5.7498483 1.0807124 0)
(5.8353368 1.0415103 0)
(5.8797465 0.99487273 0)
(5.8918114 0.94472524 0)
(5.8789186 0.8936054 0)
(5.847143 0.84306214 0)
(5.8012462 0.7941252 0)
(5.7449793 0.74744885 0)
(5.6812691 0.70344712 0)
(5.6123907 0.66230114 0)
(5.5401227 0.62401165 0)
(5.4657912 0.58852603 0)
(5.3904116 0.55574961 0)
(5.3147487 0.5255583 0)
(5.2393676 0.49780119 0)
(5.1646866 0.4723157 0)
(5.0910079 0.4489405 0)
(5.0185424 0.42751662 0)
(4.9474316 0.40789174 0)
(4.877763 0.38992237 0)
(4.8095832 0.37347306 0)
(4.7429085 0.35841808 0)
(4.677732 0.34464118 0)
(4.6140302 0.3320352 0)
(4.5517667 0.32050171 0)
(4.4908967 0.30995043 0)
(4.4313691 0.30029865 0)
(4.3731292 0.29147074 0)
(4.3161199 0.28339747 0)
(4.2602831 0.27601562 0)
(4.2055607 0.26926732 0)
(4.1518951 0.2630997 0)
(4.0992301 0.25746434 0)
(4.0475108 0.25231693 0)
(3.9966843 0.24761681 0)
(3.946699 0.24332656 0)
(3.8975056 0.23941208 0)
(3.8490563 0.23584111 0)
(3.8013078 0.23258591 0)
(3.7542184 0.2296193 0)
(1.1885633 -0.16764864 0)
(1.3816301 -0.37214333 0)
(1.6383862 -0.37087764 0)
(2.0026493 -0.22396484 0)
(2.4497029 0.010584945 0)
(2.9450261 0.2687947 0)
(3.4455332 0.50669227 0)
(3.916283 0.70025705 0)
(4.3338462 0.84194798 0)
(4.6865664 0.9346085 0)
(4.9720972 0.98605555 0)
(5.1940035 1.0052483 0)
(5.3587108 1.0007043 0)
(5.4740723 0.98002452 0)
(5.5483515 0.94897349 0)
(5.5891685 0.91163735 0)
(5.6032793 0.87091289 0)
(5.5963974 0.82874626 0)
(5.573207 0.78649629 0)
(5.5374978 0.74512129 0)
(5.492314 0.70528051 0)
(5.4400677 0.66741424 0)
(5.3826834 0.63172556 0)
(5.3216781 0.59826907 0)
(5.2582343 0.56705579 0)
(5.1932684 0.53805867 0)
(5.1274807 0.51120301 0)
(5.0614141 0.48638595 0)
(4.9954828 0.46349576 0)
(4.9299958 0.44241237 0)
(4.8651822 0.42301482 0)
(4.8012062 0.40518503 0)
(4.7381815 0.38880733 0)
(4.676184 0.37377188 0)
(4.6152591 0.35997522 0)
(4.5554289 0.3473202 0)
(4.4966977 0.3357165 0)
(4.4390561 0.32508009 0)
(4.3824846 0.31533335 0)
(4.3269562 0.30640449 0)
(4.2724383 0.2982274 0)
(4.2188946 0.29074118 0)
(4.1662864 0.28388981 0)
(4.1145733 0.27762173 0)
(4.0637144 0.27188956 0)
(4.0136685 0.26664967 0)
(3.9643948 0.26186185 0)
(3.9158527 0.25748913 0)
(3.8680023 0.25349698 0)
(3.8208053 0.24985422 0)
(3.7742255 0.24653224 0)
(3.7282304 0.24350532 0)
(1.1782318 -0.15881599 0)
(1.3418907 -0.3630158 0)
(1.553425 -0.39570606 0)
(1.8513282 -0.29538036 0)
(2.2249902 -0.10677206 0)
(2.6506127 0.1177735 0)
(3.0945698 0.33819691 0)
(3.5262844 0.52936878 0)
(3.9227239 0.6800043 0)
(4.269977 0.78863691 0)
(4.5621914 0.85940097 0)
(4.7993117 0.89871052 0)
(4.9847438 0.91347748 0)
(5.1239351 0.91027231 0)
(5.2232767 0.89443274 0)
(5.2891363 0.87000905 0)
(5.3274504 0.840053 0)
(5.3434089 0.8067975 0)
(5.341433 0.7718715 0)
(5.3252388 0.73646186 0)
(5.2978747 0.70144172 0)
(5.2618339 0.66743519 0)
(5.219114 0.63486001 0)
(5.1713411 0.60392599 0)
(5.119839 0.57472865 0)
(5.0656508 0.54733346 0)
(5.0095886 0.52174377 0)
(4.9523035 0.49791971 0)
(4.8943089 0.47580342 0)
(4.8360032 0.45531732 0)
(4.7776962 0.43637515 0)
(4.7196235 0.41888767 0)
(4.6619627 0.40276172 0)
(4.6048466 0.38790599 0)
(4.5483711 0.37423214 0)
(4.4926032 0.36165518 0)
(4.4375869 0.35009464 0)
(4.3833481 0.33947446 0)
(4.3298986 0.3297234 0)
(4.2772392 0.32077485 0)
(4.225362 0.31256682 0)
(4.1742529 0.30504176 0)
(4.1238928 0.29814627 0)
(4.0742588 0.29183089 0)
(4.0253257 0.2860499 0)
(3.9770663 0.28076094 0)
(3.9294524 0.2759248 0)
(3.8824544 0.27150502 0)
(3.836043 0.267468 0)
(3.7901886 0.2637828 0)
(3.7448649 0.2604211 0)
(1.1697378 -0.14940364 0)
(1.3107062 -0.35071136 0)
(1.4869773 -0.40845523 0)
(1.732082 -0.34648184 0)
(2.0443707 -0.19874035 0)
(2.4083678 -0.0074021764 0)
(2.7986727 0.19221537 0)
(3.1895806 0.37549712 0)
(3.5597476 0.52897693 0)
(3.8944777 0.64796864 0)
(4.1856868 0.73348268 0)
(4.4305913 0.78949872 0)
(4.6300482 0.82121318 0)
(4.7873053 0.83400912 0)
(4.9069512 0.83259893 0)
(4.9940409 0.82082751 0)
(5.0535569 0.80173842 0)
(5.0900623 0.77768857 0)
(5.1075882 0.75051237 0)
(5.1096365 0.72158119 0)
(5.0991794 0.6919275 0)
(5.0787041 0.6623297 0)
(5.0502455 0.63335415 0)
(5.0154764 0.6053777 0)
(4.9757994 0.5786179 0)
(4.9323621 0.55321815 0)
(4.8860656 0.52925278 0)
(4.8376511 0.50674454 0)
(4.7877178 0.48569283 0)
(4.7367411 0.46606498 0)
(4.6851037 0.44781198 0)
(4.6331066 0.43087644 0)
(4.580986 0.41518986 0)
(4.5289284 0.40068178 0)
(4.4770778 0.38728117 0)
(4.4255441 0.37491704 0)
(4.3744099 0.36352057 0)
(4.3237354 0.35302512 0)
(4.2735632 0.34336726 0)
(4.2239216 0.33448673 0)
(4.1748275 0.32632676 0)
(4.1262887 0.31883409 0)
(4.0783058 0.3119588 0)
(4.0308739 0.30565428 0)
(3.9839835 0.29987712 0)
(3.9376217 0.29458684 0)
(3.8917728 0.28974565 0)
(3.8464193 0.28531837 0)
(3.8015417 0.28127221 0)
(3.7571207 0.27757652 0)
(3.7131381 0.27420597 0)
(1.1626137 -0.13994649 0)
(1.2856626 -0.33650458 0)
(1.4341746 -0.41240037 0)
(1.637135 -0.38165602 0)
(1.8983632 -0.2696174 0)
(2.2086667 -0.10980271 0)
(2.5494432 0.067390956 0)
(2.899789 0.23890085 0)
(3.2407723 0.39031773 0)
(3.5579747 0.51473966 0)
(3.8421335 0.61067604 0)
(4.0885676 0.67992303 0)
(4.2961051 0.72597843 0)
(4.4660908 0.75298185 0)
(4.6014671 0.7648972 0)
(4.7059756 0.76519656 0)
(4.7835973 0.75678252 0)
(4.8381882 0.74201949 0)
(4.8733073 0.72282599 0)
(4.8921452 0.70071205 0)
(4.8974948 0.67684031 0)
(4.8917728 0.65210441 0)
(4.8769936 0.62718857 0)
(4.8548405 0.60257917 0)
(4.8267564 0.57862774 0)
(4.7939376 0.55558697 0)
(4.757352 0.53358889 0)
(4.7178153 0.51271148 0)
(4.6759974 0.49301215 0)
(4.6324377 0.47450352 0)
(4.5875825 0.45717571 0)
(4.5417902 0.44100572 0)
(4.4953494 0.42595125 0)
(4.4484966 0.41196453 0)
(4.4014202 0.39899381 0)
(4.3542706 0.38698369 0)
(4.3071669 0.37587865 0)
(4.2602025 0.3656228 0)
(4.2134499 0.35616187 0)
(4.166964 0.34744303 0)
(4.120786 0.33941582 0)
(4.0749457 0.33203218 0)
(4.0294631 0.32524655 0)
(3.984351 0.31901583 0)
(3.939616 0.31329969 0)
(3.8952594 0.30806007 0)
(3.8512785 0.30326121 0)
(3.8076673 0.2988695 0)
(3.764417 0.29485332 0)
(3.7215189 0.29118397 0)
(3.6789636 0.28783468 0)
(1.1565301 -0.13076349 0)
(1.2651078 -0.32127572 0)
(1.3915475 -0.4099803 0)
(1.5607348 -0.40438422 0)
(1.7795894 -0.32309368 0)
(2.0435481 -0.19241399 0)
(2.3394856 -0.038002795 0)
(2.6508743 0.11921439 0)
(2.9614901 0.26479459 0)
(3.2578934 0.39047797 0)
(3.5304574 0.49289124 0)
(3.7733302 0.57198046 0)
(3.9838313 0.62967306 0)
(4.161744 0.66888859 0)
(4.3085595 0.69276791 0)
(4.4267813 0.70429013 0)
(4.5194001 0.70610339 0)
(4.5895282 0.70047828 0)
(4.6401888 0.68932663 0)
(4.6741998 0.67421249 0)
(4.6941063 0.6563928 0)
(4.7021728 0.63685729 0)
(4.7003442 0.61637791 0)
(4.6902664 0.5955183 0)
(4.6734065 0.57472816 0)
(4.6509724 0.55436749 0)
(4.62395 0.53464751 0)
(4.5932144 0.51569945 0)
(4.5594928 0.49763236 0)
(4.5233741 0.48049981 0)
(4.4853587 0.46433154 0)