/*--------------------------------*- C++ -*----------------------------------*\
| =========                 |                                                 |
| \\      /  F ield         | OpenFOAM: The Open Source CFD Toolbox           |
|  \\    /   O peration     | Version:  2312                                  |
|   \\  /    A nd           | Website:  www.openfoam.com                      |
|    \\/     M anipulation  |                                                 |
\*---------------------------------------------------------------------------*/
FoamFile
{
    version     2.0;
    format      ascii;
    arch        "LSB;label=32;scalar=64";
    class       volScalarField;
    location    "0.1";
    object      CO2;
}
// * * * * * * * * * * * * * * * * * * * * * * * * * * * * * * * * * * * * * //

dimensions      [0 0 0 0 0 0 0];

internalField   nonuniform List<scalar> 
3275
(
0.0023177967
0.01409385
0.028930379
0.042420823
0.053304748
0.061371851
0.067130262
0.070982705
0.073279298
0.074339141
0.074461902
0.074016649
0.073055687
0.071790947
0.070357003
0.068841628
0.067302004
0.065772928
0.064275676
0.062823141
0.061422889
0.060078736
0.058791909
0.057562206
0.056388417
0.055268696
0.054200816
0.053182342
0.052210748
0.051283499
0.050398099
0.049552133
0.048743279
0.047969329
0.047228188
0.04651788
0.045836542
0.045182426
0.044553892
0.043949399
0.043367505
0.042806859
0.042266192
0.041744318
0.041240103
0.040752476
0.040280491
0.03982322
0.03937979
0.038949382
0.038531222
0.03812458
0.0033359797
0.016824063
0.031092419
0.043820877
0.054073983
0.06166693
0.067155828
0.070857534
0.073075756
0.07410173
0.074217774
0.073779093
0.072834668
0.071589811
0.070176188
0.068680148
0.067158192
0.065644898
0.06416156
0.062721211
0.061331593
0.059996716
0.058717986
0.057495365
0.056327784
0.055213521
0.054150452
0.053136232
0.052168413
0.051244521
0.050362119
0.049518836
0.048712392
0.04794061
0.047201428
0.046492891
0.045813162
0.04516051
0.04453331
0.043930037
0.043349261
0.042789639
0.042249914
0.041728904
0.04122549
0.040738616
0.040267325
0.039810698
0.039367867
0.038938018
0.038520381
0.038114225
0.0061685671
0.021913605
0.034926641
0.046258528
0.055386254
0.062111273
0.067128794
0.07056564
0.072647257
0.073616677
0.073725391
0.073302694
0.072393188
0.071188696
0.069815906
0.068358518
0.06687178
0.065389898
0.063934239
0.062518123
0.061149656
0.059833228
0.05857061
0.057362083
0.056206861
0.055103465
0.054049981
0.05304424
0.052083943
0.051166747
0.050290323
0.049452392
0.048650755
0.047883302
0.047148029
0.046443032
0.045766516
0.045116788
0.044492254
0.043891419
0.043312877
0.042755306
0.042217467
0.041698193
0.041196385
0.040711005
0.040241098
0.039785755
0.039344121
0.038915386
0.038498791
0.038093605
0.011413315
0.02852739
0.039240548
0.048974116
0.056802478
0.062426065
0.066910189
0.070033568
0.071957745
0.072868129
0.072979581
0.072587085
0.071733757
0.070590888
0.069279549
0.067879901
0.066445574
0.065010347
0.063595765
0.062215604
0.060878526
0.05958949
0.058350802
0.057163221
0.056026377
0.054939149
0.053899931
0.052906816
0.051957728
0.051050513
0.050183002
0.049353056
0.048558591
0.0477976
0.047068164
0.046368454
0.045696738
0.045051379
0.044430832
0.043833642
0.04325844
0.042703937
0.04216892
0.041652249
0.041152846
0.040669697
0.040201859
0.039748438
0.039308591
0.038881524
0.038466485
0.038062753
0.017771058
0.033127093
0.043140063
0.051006287
0.057449046
0.062544598
0.066361249
0.069171959
0.070963892
0.071837556
0.071974992
0.071633018
0.070860458
0.069801385
0.068572154
0.067248942
0.065883666
0.064509761
0.063149117
0.061816166
0.060520312
0.059267272
0.058060054
0.056900037
0.055787396
0.054721477
0.053701074
0.052724622
0.051790335
0.050896307
0.050040581
0.049221195
0.048436223
0.047683787
0.046962081
0.046269375
0.045604022
0.044964456
0.044349196
0.043756843
0.043186074
0.042635643
0.042104375
0.041591161
0.041094954
0.040614767
0.040149676
0.039698807
0.039261336
0.038836483
0.038423511
0.038021711
0.014675848
0.033637556
0.04404493
0.051344812
0.05710243
0.061837824
0.065468795
0.067982802
0.069703122
0.070585885
0.070781782
0.070512473
0.069841657
0.068883143
0.067750553
0.066516389
0.06523114
0.063928123
0.062629774
0.061351345
0.060103127
0.058891716
0.057720924
0.056592846
0.055508275
0.054467093
0.053468552
0.052511477
0.051594416
0.050715747
0.049873755
0.049066686
0.04829279
0.047550343
0.046837668
0.046153149
0.045495235
0.044862445
0.044253373
0.043666681
0.043101104
0.042555444
0.042028569
0.041519408
0.041026948
0.040550233
0.040088363
0.039640488
0.039205803
0.038783548
0.038373001
0.037973468
0.0082212873
0.029572529
0.041924334
0.050090411
0.055925052
0.060452867
0.064054894
0.066530576
0.068209861
0.069153281
0.069440561
0.069265648
0.068713646
0.067869298
0.066844403
0.065708571
0.064511293
0.063286038
0.062055981
0.060837338
0.05964139
0.058475699
0.057344957
0.056252031
0.055198387
0.054184489
0.053210083
0.052274419
0.05137641
0.050514741
0.049687961
0.048894545
0.048132934
0.047401572
0.046698925
0.0460235
0.045373855
0.044748601
0.044146411
0.043566019
0.043006222
0.042465876
0.041943895
0.04143925
0.040950967
0.040478122
0.040019843
0.039575307
0.03914373
0.038724373
0.038316532
0.037919529
0.0054071605
0.023764976
0.037586686
0.046992384
0.053618172
0.058386237
0.061997434
0.0646538
0.066390396
0.067432045
0.06785364
0.067805656
0.067396757
0.066689169
0.065790475
0.064768897
0.063673414
0.062537979
0.06138678
0.060237209
0.059101711
0.057988958
0.056904649
0.055852532
0.054834841
0.053852696
0.052906414
0.051995728
0.051119964
0.050278165
0.049469182
0.04869175
0.047944534
0.047226168
0.046535287
0.04587054
0.045230607
0.044614209
0.044020112
0.043447133
0.042894139
0.042360048
0.041843831
0.041344509
0.040861148
0.040392865
0.039938821
0.039498222
0.039070312
0.038654374
0.038249726
0.03785571
0.0041394283
0.01889042
0.032466186
0.042751228
0.050175908
0.055574106
0.059438123
0.062279291
0.064236086
0.065423744
0.06601733
0.066134835
0.065888752
0.065342355
0.064587963
0.063696187
0.062715976
0.061682135
0.060620148
0.059548792
0.05848184
0.05742921
0.056397721
0.055392102
0.054415437
0.053469583
0.052555485
0.051673421
0.050823181
0.050004203
0.049215683
0.048456646
0.047726011
0.04702263
0.046345323
0.045692903
0.045064192
0.044458032
0.043873296
0.043308895
0.042763777
0.042236934
0.041727398
0.041234245
0.040756594
0.040293604
0.039844475
0.039408447
0.038984794
0.038572828
0.03817189
0.037781344
0.0034509784
0.015334061
0.027661023
0.038079451
0.04608682
0.052039895
0.056413138
0.059515665
0.061709635
0.0631534
0.06393831
0.064258344
0.064195117
0.063831306
0.063238552
0.062491193
0.061638965
0.060717891
0.059755014
0.058770685
0.057780145
0.056794667
0.055822291
0.054868811
0.053938235
0.053033221
0.052155402
0.051305649
0.050484262
0.049691118
0.048925787
0.048187622
0.047475819
0.046789472
0.046127611
0.04548923
0.044873307
0.044278823
0.043704771
0.043150166
0.042614048
0.042095489
0.041593595
0.041107503
0.040636388
0.04017946
0.039735962
0.039305171
0.0388864
0.038478987
0.038082305
0.037695742
0.0030072055
0.012770067
0.023607906
0.033557611
0.041759062
0.048127919
0.052924431
0.056461681
0.058889532
0.060612269
0.061646657
0.062185878
0.062330502
0.062160192
0.061746818
0.061156837
0.060444065
0.059645981
0.058791391
0.05790236
0.056995699
0.056084116
0.055176946
0.054281112
0.053401606
0.052541935
0.051704472
0.050890725
0.050101542
0.049337274
0.048597903
0.04788313
0.047192459
0.046525248
0.045880757
0.045258176
0.044656661
0.044075342
0.043513344
0.042969799
0.04244385
0.041934658
0.041441407
0.040963308
0.040499595
0.040049533
0.039612416
0.039187565
0.038774329
0.038372085
0.037980233
0.037598191
0.0026821821
0.010878643
0.020319226
0.029498258
0.03753511
0.044094358
0.049216172
0.053119532
0.055874113
0.057839367
0.059168411
0.059945291
0.060309296
0.06034184
0.060119619
0.059698383
0.059134808
0.05846861
0.057730481
0.056944255
0.05612837
0.055296994
0.054460808
0.053627899
0.052804279
0.051994347
0.051201248
0.050427161
0.049673518
0.048941173
0.048230543
0.047541709
0.046874501
0.046228564
0.045603404
0.044998429
0.044412982
0.043846358
0.043297829
0.042766652
0.042252081
0.041753378
0.041269813
0.040800674
0.040345264
0.03990291
0.039472959
0.03905478
0.038647766
0.038251332
0.037864913
0.037487959
0.0024236799
0.009440497
0.017668157
0.025990591
0.033627034
0.040153771
0.0454539
0.049607453
0.052714907
0.054944569
0.056520009
0.057564327
0.058152493
0.058395759
0.058365526
0.058123614
0.05771665
0.057189542
0.056574757
0.055897856
0.055178888
0.054433456
0.053673593
0.05290856
0.052145401
0.051389422
0.050644567
0.049913709
0.049198884
0.048501475
0.047822355
0.047162005
0.046520603
0.045898096
0.045294254
0.044708718
0.044141032
0.04359067
0.043057057
0.042539591
0.042037645
0.041550588
0.041077786
0.04061861
0.040172439
0.039738666
0.039316697
0.038905954
0.038505878
0.038115925
0.037735571
0.037364296
0.0022076573
0.0083134392
0.015517185
0.023005944
0.030124773
0.036449584
0.041780683
0.046094237
0.049444112
0.051970143
0.053780496
0.055057791
0.055887201
0.056338836
0.056503768
0.056440131
0.05619695
0.055814115
0.055328004
0.054765744
0.054148901
0.053494424
0.052815666
0.052123027
0.051424572
0.050726512
0.050033593
0.049349392
0.048676563
0.048017031
0.047372145
0.046742798
0.046129532
0.04553261
0.044952083
0.044387834
0.043839622
0.043307109
0.04278989
0.042287505
0.04179946
0.041325238
0.040864306
0.040416127
0.039980161
0.039555871
0.039142729
0.038740215
0.038347821
0.037965048
0.037591414
0.037226438
0.0020217068
0.0074054179
0.01375212
0.020474328
0.027038056
0.033054963
0.038295682
0.042671806
0.046187598
0.048927369
0.050996558
0.052482189
0.053526328
0.054194995
0.054549852
0.054663616
0.054583384
0.054349203
0.05399531
0.053551615
0.053041
0.052481628
0.051888079
0.051271821
0.050641895
0.050005393
0.049367848
0.048733537
0.048105736
0.047486916
0.046878906
0.046283025
0.045700187
0.045130985
0.044575757
0.044034642
0.043507624
0.042994563
0.042495228
0.042009316
0.041536469
0.041076294
0.040628365
0.040192243
0.039767473
0.039353597
0.038950154
0.038556688
0.038172744
0.037797876
0.037431644
0.037073608
0.0018586191
0.0066559615
0.012284827
0.018320827
0.024336532
0.029991012
0.035054887
0.039406694
0.043011617
0.045908082
0.048169243
0.049881411
0.051112165
0.051975461
0.052524008
0.052808897
0.052888391
0.05280216
0.052583011
0.052260249
0.051858722
0.051397622
0.050892596
0.050356077
0.049798004
0.049226299
0.04864725
0.048065815
0.047485877
0.04691045
0.046341843
0.045781804
0.045231624
0.04469223
0.044164256
0.043648104
0.04314399
0.042651981
0.042172027
0.041703988
0.041247652
0.040802751
0.040368978
0.039945992
0.039533432
0.039130921
0.038738073
0.038354495
0.037979794
0.037613577
0.037255452
0.036905022
0.0017137254
0.006024454
0.011048801
0.016478419
0.021975319
0.027247621
0.032080258
0.03633944
0.039964721
0.042959724
0.045367663
0.047252074
0.048682579
0.049713078
0.050435977
0.050892846
0.051125724
0.051183067
0.05109798
0.050897448
0.05060652
0.050245768
0.049831699
0.049377561
0.048894085
0.048389947
0.047872137
0.047346258
0.046816775
0.046287229
0.045760402
0.045238461
0.044723074
0.044215505
0.043716688
0.043227292
0.042747767
0.042278394
0.041819312
0.041370546
0.040932035
0.040503646
0.04008519
0.039676434
0.039277114
0.038886937
0.038505596
0.038132769
0.037768123
0.037411323
0.03706203
0.036719891
0.0015837385
0.0054828899
0.0099940787
0.014890866
0.019907805
0.024799383
0.029371069
0.033488836
0.037078004
0.040117917
0.042626899
0.044647205
0.046232519
0.047439694
0.048311945
0.048923802
0.049309573
0.049504471
0.049548598
0.049469542
0.049289694
0.049030205
0.048708572
0.048338673
0.047931889
0.047497554
0.047043289
0.046575288
0.046098563
0.045617151
0.045134286
0.044652545
0.044173967
0.043700145
0.043232313
0.042771405
0.042318114
0.04187293
0.041436187
0.041008081
0.040588705
0.040178063
0.03977609
0.039382665
0.038997622
0.038620762
0.038251855
0.037890653
0.037536891
0.037190292
0.036850572
0.036517429
0.0014662588
0.0050115396
0.009082932
0.013512184
0.018090932
0.022615347
0.026913569
0.030857948
0.034367709
0.037406583
0.039973824
0.042093354
0.043803616
0.045149752
0.046178274
0.0469234
0.047447119
0.047778456
0.047946199
0.047983702
0.04791401
0.047755779
0.047527068
0.04724243
0.046913728
0.046550842
0.046161939
0.045753734
0.045331731
0.044900428
0.044463482
0.04402386
0.043583952
0.043145677
0.042710558
0.042279795
0.041854317
0.041434829
0.041021857
0.040615771
0.04021682
0.039825149
0.039440819
0.039063824
0.038694101
0.038331542
0.037976004
0.037627313
0.037285274
0.036949673
0.036620283
0.036296859
0.0013594558
0.0045963326
0.0082869569
0.012305169
0.016486888
0.020664141
0.024687714
0.028439772
0.031838807
0.034839425
0.03742721
0.039611271
0.041416486
0.042876708
0.044029602
0.044913444
0.045556727
0.046011212
0.046301211
0.046450087
0.046485801
0.046427685
0.046291656
0.046092432
0.045842456
0.045552031
0.045229772
0.044882832
0.044517143
0.04413761
0.043748278
0.043352472
0.042952917
0.042551837
0.042151039
0.041751975
0.041355809
0.040963459
0.040575638
0.040192893
0.039815627
0.039444127
0.039078585
0.038719108
0.03836574
0.038018468
0.037677235
0.037341946
0.037012476
0.036688676
0.03637038
0.0012618902
0.0042269814
0.0075847759
0.01124001
0.015063279
0.018916354
0.02267127
0.026221606
0.029488507
0.032422056
0.034998628
0.037215973
0.039087549
0.040636957
0.041893479
0.042889154
0.043656486
0.044218781
0.04461896
0.044877811
0.045014105
0.045051659
0.045007063
0.044892816
0.044721435
0.04450382
0.044248924
0.043964235
0.043656038
0.043329589
0.042989272
0.042638732
0.042281001
0.041918591
0.041553571
0.041187641
0.040822187
0.04045833
0.040096974
0.039738834
0.039384469
0.039034309
0.038688671
0.038347782
0.038011791
0.037680781
0.037354784
0.037033784
0.03671773
0.036406538
0.0361001
0.001172405
0.0038957767
0.0069602066
0.010293172
0.013792762
0.017345453
0.020842074
0.024188013
0.027309143
0.030154182
0.032693755
0.034917298
0.036829065
0.038443892
0.039783533
0.040873819
0.041742222
0.042416013
0.042913977
0.043271445
0.043506926
0.043635589
0.043678873
0.043647811
0.043554497
0.043409357
0.043221957
0.042999999
0.042750035
0.042477608
0.042187382
0.041883282
0.041568612
0.041246144
0.040918194
0.040586686
0.040253221
0.039919115
0.039585452
0.039253112
0.038922807
0.038595105
0.038270452
0.037949189
0.037631573
0.037317783
0.03700794
0.036702109
0.036400312
0.036102535
0.035808725
0.0010900551
0.0035968124
0.0064007767
0.0094462496
0.012652949
0.015928157
0.019179188
0.022322682
0.025290301
0.028031506
0.030513754
0.032720735
0.034649631
0.036308103
0.037711263
0.038879066
0.039834027
0.040599417
0.041197998
0.041644761
0.041968144
0.042186202
0.042314419
0.042362873
0.042345393
0.042272191
0.042151836
0.041992564
0.041801119
0.041583253
0.041343852
0.041087064
0.040816431
0.040534956
0.040245172
0.039949214
0.039648875
0.039345658
0.039040814
0.038735385
0.038430227
0.038126043
0.037823404
0.037522766
0.037224489
0.036928851
0.036636059
0.03634626
0.036059551
0.035775985
0.035495574
0.0010140584
0.0033254741
0.0058967166
0.0086846143
0.01162582
0.014644923
0.017663818
0.020609663
0.023420306
0.026047276
0.028456716
0.030628596
0.032554937
0.034237641
0.0356861
0.036914947
0.037942009
0.038786624
0.039468366
0.040006162
0.040411612
0.040708648
0.040917807
0.041044393
0.041099556
0.041095617
0.041041892
0.040944738
0.040811626
0.040648452
0.040460246
0.040251322
0.040025422
0.039785747
0.039535016
0.039275549
0.039009316
0.038737988
0.038462974
0.038185464
0.037906454
0.037626776
0.037347119
0.037068051
0.036790036
0.036513444
0.036238571
0.035965645
0.035694834
0.035426262
0.00094375993
0.0030780931
0.0054402612
0.0079964883
0.010696656
0.013479599
0.016279948
0.019034619
0.021687768
0.024193871
0.026519078
0.028641158
0.030548463
0.032238396
0.033715571
0.034989953
0.036075081
0.036986556
0.037740815
0.038354221
0.038842376
0.03921439
0.039496075
0.039695964
0.039822496
0.039885097
0.039895074
0.039859656
0.039784224
0.039675453
0.039538446
0.039377598
0.039196832
0.038999503
0.038788481
0.038566247
0.038334925
0.038096333
0.037852027
0.03760333
0.037351369
0.037097097
0.036841317
0.036584703
0.036327816
0.03607112
0.035814996
0.035559748
0.035305621
0.035052803
0.0008786056
0.0028517054
0.0050251531
0.0073722756
0.0098532796
0.012418637
0.015013954
0.017585074
0.020082389
0.022463864
0.024696625
0.02675739
0.028632022
0.030314498
0.031805542
0.033111123
0.034240966
0.035207219
0.03602333
0.036703143
0.037260127
0.037706105
0.0380598
0.038324748
0.038517256
0.038645322
0.038716634
0.03874037
0.038721777
0.038666814
0.038580641
0.038467728
0.038332185
0.038177477
0.038006578
0.037822104
0.037626306
0.03742113
0.03720826
0.036989141
0.036765017
0.036536953
0.036305857
0.036072505
0.03583755
0.035601544
0.035364949
0.035128148
0.034891454
0.034655122
0.00081812178
0.0026438818
0.0046462857
0.006804074
0.009085519
0.011450539
0.013854086
0.01625004
0.018594811
0.020850139
0.022984813
0.024975395
0.026806196
0.028468676
0.029960466
0.031284191
0.032446254
0.033455692
0.034323175
0.035060179
0.035678336
0.036189089
0.036606036
0.036938468
0.037191718
0.037378621
0.037510765
0.037591905
0.03762768
0.037625017
0.037589322
0.037523818
0.037433277
0.037321189
0.03719057
0.037044154
0.03688429
0.03671303
0.036532164
0.036343244
0.036147618
0.035946452
0.035740752
0.035531383
0.035319087
0.0351045
0.034888159
0.03467052
0.034451966
0.034232817
0.00076189984
0.0024526046
0.0042994409
0.0062853097
0.0083847954
0.010565449
0.012790101
0.01501975
0.017216479
0.019345913
0.021378957
0.023292702
0.02507067
0.026702567
0.028183632
0.029513753
0.030696498
0.031738156
0.03264687
0.033431903
0.034103074
0.034670494
0.035144961
0.035535501
0.0358506
0.036094017
0.036281151
0.036416729
0.036506151
0.036553914
0.036566759
0.03654822
0.036502162
0.036432426
0.036341969
0.036233678
0.036109945
0.035972905
0.035824439
0.035666184
0.03549958
0.035325879
0.035146174
0.034961413
0.034772419
0.034579902
0.034384473
0.034186655
0.033986898
0.033785582
0.00070958393
0.0022761774
0.0039810951
0.0058104622
0.0077438158
0.0097548562
0.011812994
0.013885447
0.015939527
0.017944724
0.019874329
0.021706457
0.023424468
0.025016953
0.026477373
0.027803433
0.028996327
0.030059962
0.03100022
0.031824316
0.032540295
0.033156706
0.033682432
0.034125624
0.034493837
0.034793396
0.035035105
0.035220372
0.035359341
0.035456995
0.035517012
0.03554347
0.035540928
0.03551324
0.035462527
0.035392196
0.03530457
0.035201851
0.035085998
0.03495871
0.034821502
0.034675699
0.03452247
0.034362835
0.034197688
0.034027808
0.033853871
0.033676467
0.033496101
0.033313217
0.00066086151
0.0021131574
0.0036882731
0.0053748532
0.0071563334
0.0090113581
0.010914795
0.012839227
0.014756694
0.01664041
0.018466202
0.020213545
0.021866117
0.023411944
0.024843243
0.026156029
0.027349557
0.028425703
0.029388359
0.030242878
0.030995616
0.031653577
0.032224106
0.032714325
0.033131044
0.033480733
0.033770994
0.034006454
0.034194784
0.034337266
0.034442099
0.034513175
0.034552639
0.034565539
0.034554203
0.034521476
0.034469702
0.034401189
0.034317979
0.034221781
0.034114185
0.033996571
0.033870168
0.03373606
0.033595199
0.033448427
0.03329648
0.033140002
0.032979557
0.03281564
0.0006154558
0.0019623046
0.0034184374
0.0049744839
0.0066169597
0.0083284809
0.010088414
0.011873918
0.013661243
0.015427096
0.017149877
0.018810648
0.020393757
0.021887109
0.023282147
0.024573637
0.025759288
0.026839287
0.027815803
0.028692524
0.029474246
0.030166524
0.030775353
0.031306809
0.031766898
0.032161548
0.032496919
0.03277816
0.033011058
0.033199995
0.033346749
0.033459159
0.033540162
0.033592746
0.03361925
0.033623308
0.033607106
0.033572458
0.033521741
0.033456567
0.033378638
0.033289349
0.033189986
0.033081677
0.032965429
0.032842133
0.032712576
0.032577455
0.032437382
0.032292901
0.00057311982
0.0018225428
0.0031694037
0.0046059084
0.0061210162
0.0077005327
0.0093275172
0.010982996
0.01264691
0.014299177
0.015920712
0.017494299
0.019005211
0.02044157
0.021794445
0.023057745
0.024227996
0.02530401
0.026286497
0.027177685
0.027980962
0.028700557
0.029341245
0.029908075
0.030406204
0.030840834
0.031217205
0.031540183
0.031814613
0.032044646
0.032233719
0.032387502
0.032506392
0.032596498
0.032660605
0.032700514
0.032718537
0.032717336
0.032698885
0.032664446
0.032616082
0.03255509
0.032482836
0.032400466
0.032309034
0.032209469
0.032102604
0.031989175
0.03186984
0.031745186
0.0005336317
0.00169293
0.002939275
0.0042661348
0.0056644154
0.0071224858
0.0086264254
0.010160503
0.011707859
0.013251301
0.01477414
0.016260924
0.017698033
0.019074064
0.020380022
0.021609309
0.022757595
0.023822609
0.024803856
0.025702309
0.026520114
0.027260306
0.027926548
0.02852291
0.029053697
0.029523346
0.029936344
0.030297037
0.030609659
0.030878077
0.031105898
0.031297168
0.031454435
0.031582142
0.031680617
0.031754728
0.03180682
0.031838231
0.031850906
0.031846976
0.031827963
0.031795055
0.031749835
0.031693401
0.03162686
0.031551162
0.031467178
0.031375678
0.031277355
0.031172835
0.00049679085
0.0015726347
0.0027263911
0.0039525467
0.0052435659
0.0065898804
0.0079800333
0.0094009962
0.010838647
0.012278364
0.013705676
0.015106878
0.016469558
0.017782986
0.019038343
0.020228807
0.02134949
0.022397307
0.023370797
0.024269882
0.025095633
0.025850026
0.026535725
0.027155879
0.027713967
0.02821368
0.028658811
0.029053138
0.029400367
0.029704021
0.029967474
0.030194119
0.030386855
0.030548886
0.030682288
0.030790626
0.030874055
0.030936774
0.030980438
0.031006201
0.031015695
0.031010687
0.030992316
0.030961651
0.030919947
0.030868124
0.030807096
0.030737652
0.030660517
0.030576347
0.00046241497
0.0014609178
0.0025292883
0.0036628414
0.0048552953
0.0060987443
0.007383739
0.0086994905
0.010034202
0.0113755
0.012710933
0.014028467
0.015316941
0.016566429
0.017768486
0.018916281
0.020004616
0.021029847
0.021989766
0.022883443
0.023711038
0.02447361
0.025172927
0.025811297
0.026391423
0.02691628
0.027389009
0.027812819
0.028190914
0.028526428
0.028822403
0.029081816
0.029307448
0.029502035
0.029667936
0.029807728
0.029923096
0.030017012
0.03008942
0.030143774
0.030181647
0.030203813
0.030211621
0.030206575
0.030189545
0.030161459
0.030123346
0.030075969
0.030020096
0.029956392
0.00043033755
0.0013571183
0.0023466678
0.00339498
0.0044967874
0.0056455279
0.0068333858
0.0080514215
0.0092897962
0.010538082
0.011785634
0.013021978
0.014237195
0.015422239
0.016569179
0.017671361
0.01872347
0.019721516
0.020662758
0.021545596
0.022369445
0.023134581
0.023841989
0.024493222
0.025090265
0.025635425
0.026131229
0.026580335
0.026985461
0.027349324
0.027674611
0.027963951
0.028219867
0.028444808
0.028641045
0.0288108
0.028956001
0.02907876
0.029180418
0.029263425
0.029327672
0.029376058
0.029409927
0.029429864
0.029436932
0.029432458
0.029417117
0.029391689
0.029357046
0.029313821
0.00040040594
0.0012606415
0.0021773705
0.0031471481
0.0041655316
0.0052270481
0.006325212
0.0074526057
0.00860103
0.0097617221
0.010925628
0.012083704
0.013227221
0.014348043
0.015438849
0.016493299
0.017506126
0.018473165
0.019391327
0.020258521
0.021073567
0.021836095
0.022546422
0.023205431
0.023814462
0.024375209
0.024889626
0.025359849
0.025788123
0.026176751
0.026528048
0.026844314
0.027127793
0.027380663
0.027605014
0.027802848
0.027976028
0.028126374
0.028255459
0.028365008
0.028456131
0.028530871
0.028589019
0.028633103
0.028664141
0.02868274
0.028689636
0.028686049
0.028672526
0.02864967
0.00037247962
0.0011709497
0.0020203565
0.0029177227
0.0038592805
0.0048404427
0.0058558078
0.0068992085
0.0079638109
0.0090422656
0.010126904
0.011209967
0.01228384
0.013341289
0.014375653
0.015381006
0.01635226
0.017285222
0.0181766
0.01902397
0.019825712
0.020580934
0.021289395
0.021951405
0.022567734
0.023139522
0.023668198
0.024155408
0.024602949
0.025012716
0.025386662
0.025726755
0.026034956
0.026313184
0.026563305
0.026787129
0.026986373
0.027162683
0.027317591
0.027452589
0.027568978
0.027668181
0.0277511
0.027819468
0.027872957
0.027913845
0.027942824
0.027960634
0.027967736
0.027965153
0.00034642896
0.0010875551
0.0018746892
0.0027052465
0.003576015
0.004483131
0.0054220778
0.0063877141
0.0073743388
0.0083757938
0.0093856038
0.010397144
0.011403826
0.012399276
0.013377514
0.014333088
0.015261187
0.016157706
0.017019281
0.017843282
0.018627781
0.019371494
0.020073728
0.020734314
0.021353528
0.021932022
0.022470753
0.022970916
0.023433887
0.023861175
0.024254377
0.024615141
0.024945138
0.025246035
0.02551947
0.025767046
0.025990317
0.026190775
0.026369836
0.026528859
0.02666911
0.026791819
0.026898062
0.026989014
0.027065401
0.027128709
0.027178499
0.027216906
0.027244569
0.02726188
0.00032213409
0.0010100131
0.0017395214
0.0025084061
0.003313916
0.0041527811
0.0050212088
0.0059148998
0.00682909
0.0077586198
0.008698032
0.0096416939
0.010583936
0.011519195
0.012442157
0.013347877
0.014231885
0.015090259
0.015919664
0.016717375
0.017481267
0.01820978
0.018901874
0.01955699
0.020174993
0.020756113
0.021300888
0.021810107
0.022284761
0.022725995
0.023135068
0.023513319
0.023862138
0.024182936
0.024477128
0.024746111
0.024991255
0.025213899
0.025415327
0.025596774
0.025759414
0.025904371
0.026032689
0.026145387
0.026243346
0.026327536
0.0263985
0.026457389
0.026505119
0.026541312
0.00029948461
0.00093791835
0.0016140842
0.0023260138
0.0030713397
0.0038472817
0.0046506416
0.0054778117
0.0063248016
0.007187285
0.008060667
0.0089401717
0.0098209443
0.010698162
0.011567147
0.012423469
0.013263036
0.014082171
0.014877654
0.015646758
0.016387253
0.017097396
0.017775904
0.018421916
0.01903496
0.019614915
0.020161956
0.020676514
0.021159232
0.021610921
0.022032527
0.022425095
0.022789741
0.023127631
0.023439954
0.023727906
0.023992675
0.024235433
0.024457325
0.02465946
0.024842905
0.025008684
0.025157768
0.025291087
0.025409503
0.025513855
0.025604867
0.02568338
0.02575012
0.025805544
0.00027837833
0.00087090073
0.001497679
0.002156993
0.0028467977
0.0035647184
0.0043080463
0.0050737431
0.0058584571
0.006658555
0.0074701678
0.0082892529
0.0091116684
0.0099332563
0.01074993
0.011557761
0.012353053
0.013132413
0.013892796
0.014631546
0.015346411
0.016035544
0.0166975
0.017331202
0.017935919
0.018511239
0.019057037
0.019573436
0.020060769
0.020519548
0.020950432
0.021354191
0.021731688
0.022083849
0.022411644
0.02271607
0.022998137
0.02325885
0.023499206
0.023720185
0.023922739
0.02410779
0.024276222
0.024428884
0.02456658
0.02469008
0.024800104
0.024897374
0.024982551
0.025056237
0.00025871801
0.00080861868
0.0013896709
0.0020003672
0.0026389401
0.0033033528
0.0039913009
0.0047002154
0.0054272723
0.0061694136
0.0069233788
0.007685748
0.0084529956
0.0092215522
0.0099878709
0.010748495
0.011500124
0.012239668
0.0129643
0.013671488
0.014359021
0.015025022
0.015667948
0.016286579
0.016879996
0.017447565
0.017988913
0.018503905
0.018992611
0.019455279
0.019892308
0.020304221
0.020691643
0.021055276
0.02139588
0.021714262
0.022011251
0.022287693
0.022544439
0.022782331
0.023002203
0.023204872
0.023391128
0.023561736
0.023717431
0.023858915
0.023986863
0.024101925
0.024204716
0.024295837
0.00024041507
0.00075075709
0.0012894769
0.0018552494
0.0024465416
0.0030616052
0.0036984718
0.0043549598
0.0050286818
0.0057170569
0.0064173326
0.0071266153
0.0078419075
0.0085601538
0.0092782902
0.0099932973
0.010702252
0.011402375
0.012091077
0.012765989
0.013424993
0.014066234
0.014688134
0.015289384
0.015868944
0.016426016
0.016960037
0.017470661
0.017957739
0.018421292
0.018861494
0.019278645
0.019673154
0.020045516
0.020396298
0.02072612
0.021035643
0.021325553
0.021596558
0.021849367
0.022084692
0.02230324
0.022505705
0.022692764
0.022865074
0.023023271
0.023167967
0.023299752
0.023419193
0.023526858
0.00022338711
0.00069702814
0.0011965628
0.0017208282
0.0022684896
0.0028380404
0.0034277976
0.0040359019
0.004660326
0.0052988854
0.0059492512
0.0066089718
0.0072754994
0.0079462227
0.0086185039
0.0092897189
0.009957298
0.010618766
0.011271777
0.01191415
0.012543892
0.013159216
0.013758555
0.014340566
0.014904132
0.015448349
0.015972516
0.016476123
0.016958843
0.017420511
0.017861107
0.018280737
0.018679618
0.01905806
0.019416448
0.019755234
0.020074915
0.020376028
0.020659137
0.020924825
0.021173684
0.021406309
0.021623294
0.021825227
0.022012685
0.02218623
0.022346409
0.022493752
0.022628772
0.022751997
0.0002075576
0.00064716702
0.0011104419
0.0015963628
0.0021037682
0.0026313542
0.0031776758
0.0037411462
0.004320039
0.0049124971
0.0055165448
0.0061301008
0.0067509977
0.007377005
0.0080058563
0.0086352795
0.0092630282
0.0098869133
0.010504834
0.011114803
0.011714976
0.012303662
0.012879346
0.013440691
0.013986547
0.014515945
0.015028094
0.015522367
0.015998298
0.016455571
0.016894006
0.017313547
0.017714244
0.018096241
0.018459764
0.018805106
0.019132616
0.019442688
0.019735754
0.02001227
0.020272713
0.02051757
0.020747335
0.020962505
0.021163573
0.021351028
0.021525346
0.021686995
0.021836435
0.021974144
0.00019285556
0.00060093022
0.0010306693
0.0014811801
0.0019514522
0.0024403569
0.0029466483
0.003468966
0.0040058371
0.0045556795
0.0051168098
0.0056874568
0.0062657735
0.0068498535
0.0074377512
0.0080275035
0.0086171543
0.0092047791
0.0097885093
0.010366556
0.010937229
0.011498958
0.012050303
0.012589967
0.013116803
0.013629813
0.014128153
0.014611118
0.015078142
0.015528795
0.015962771
0.016379875
0.016780019
0.017163206
0.01752952
0.017879113
0.0182122
0.018529045
0.018829952
0.019115262
0.019385338
0.019640565
0.01988134
0.020108069
0.020321161
0.020521028
0.020708078
0.020882712
0.021045334
0.021196371
0.00017921528
0.00055809408
0.00095683784
0.001374667
0.0018107028
0.0022639675
0.0027333862
0.0032177883
0.0037159103
0.0042264014
0.0047478258
0.0052786689
0.0058173533
0.0063622472
0.0069116794
0.0074639556
0.0080173766
0.0085702571
0.0091209452
0.0096678414
0.010209416
0.010744225
0.011270923
0.011788277
0.012295168
0.012790603