/*--------------------------------*- C++ -*----------------------------------*\
| =========                 |                                                 |
| \\      /  F ield         | OpenFOAM: The Open Source CFD Toolbox           |
|  \\    /   O peration     | Version:  2312                                  |
|   \\  /    A nd           | Website:  www.openfoam.com                      |
|    \\/     M anipulation  |                                                 |
\*---------------------------------------------------------------------------*/
FoamFile
{
    version     2.0;
    format      ascii;
    arch        "LSB;label=32;scalar=64";
    class       volScalarField;
    location    "0.1";
    object      f_Bilger;
}
// * * * * * * * * * * * * * * * * * * * * * * * * * * * * * * * * * * * * * //

dimensions      [0 0 0 0 0 0 0];

internalField   nonuniform List<scalar> 
3275
(
0.96942914
0.86456753
0.75178829
0.65459108
0.57480253
0.51131268
0.45962374
0.41695086
0.38114988
0.35078452
0.32471948
0.3058375
0.28757019
0.27175521
0.2580986
0.24621754
0.2357939
0.22656697
0.21833217
0.21092935
0.20423205
0.19813798
0.19256337
0.18743997
0.18271119
0.17832975
0.17425579
0.17045544
0.16689975
0.1635638
0.16042599
0.15746752
0.15467194
0.15202475
0.14951314
0.14712574
0.1448524
0.14268403
0.14061248
0.13863037
0.13673104
0.13490842
0.133157
0.13147172
0.12984791
0.12828131
0.12676801
0.12530438
0.12388705
0.12251287
0.12117893
0.11988248
0.95254043
0.83237788
0.72605108
0.63623836
0.56211872
0.50287234
0.45379244
0.41283413
0.37815137
0.34855578
0.32304195
0.30448403
0.2865058
0.27090378
0.25740513
0.24564398
0.23531296
0.22615874
0.21798183
0.21062573
0.20396657
0.197904
0.19235566
0.18725438
0.1825444
0.17817906
0.17411896
0.17033066
0.16678549
0.16345877
0.16032912
0.15737789
0.15458875
0.15194733
0.14944091
0.14705818
0.14478907
0.14262455
0.14055649
0.13857758
0.13668117
0.13486123
0.13311228
0.13142926
0.12980756
0.12824292
0.12673144
0.1252695
0.12385375
0.12248104
0.12114847
0.1198533
0.90465157
0.76655738
0.67581336
0.60086629
0.53763494
0.48662526
0.44256583
0.40481164
0.37227315
0.3441707
0.31973147
0.3018056
0.28440025
0.26921592
0.25602848
0.24450419
0.23435646
0.22534627
0.21728418
0.2100208
0.20343741
0.19743745
0.19194139
0.18688415
0.18221159
0.1778783
0.17384586
0.17008156
0.16655735
0.16324906
0.16013568
0.15719888
0.15442262
0.15179272
0.14929664
0.14692325
0.14466259
0.14250574
0.14044468
0.13847215
0.13658158
0.13476701
0.13302299
0.13134453
0.12972705
0.12816631
0.12665846
0.1251999
0.12378729
0.12241752
0.1210877
0.1197951
0.79778389
0.66331123
0.60541683
0.55193137
0.50343796
0.46400713
0.42667352
0.39330473
0.36377014
0.33778768
0.31488697
0.29786595
0.28130326
0.26672413
0.25399114
0.24281425
0.23293614
0.22413834
0.21624587
0.20911969
0.20264859
0.19674152
0.19132309
0.18633133
0.18171446
0.17742888
0.17343763
0.16970911
0.16621619
0.16293538
0.15984628
0.15693104
0.154174
0.15156131
0.14908071
0.14672128
0.14447325
0.14232788
0.14027727
0.13831429
0.13643247
0.13462593
0.1328893
0.13121767
0.12960649
0.12805161
0.12654919
0.12509568
0.12368778
0.12232241
0.1209967
0.11970794
0.57942246
0.53140074
0.5177423
0.49407121
0.46452923
0.43495697
0.4067035
0.37888259
0.35298658
0.329623
0.30864645
0.29275418
0.27728323
0.26347385
0.25132491
0.24059707
0.23106887
0.22254755
0.21487647
0.2079298
0.20160589
0.19582081
0.19050447
0.18559892
0.18105545
0.17683285
0.17289599
0.16921476
0.1657632
0.16251877
0.15946182
0.15657514
0.15384357
0.1512537
0.14879362
0.14645271
0.14422145
0.14209131
0.14005458
0.13810428
0.13623409
0.13443823
0.13271143
0.13104885
0.12944607
0.12789896
0.12640377
0.12495698
0.12355534
0.12219582
0.12087557
0.11959193
0.23168409
0.39311154
0.43329549
0.43658571
0.42549474
0.40655314
0.38450483
0.36301733
0.34104954
0.32049139
0.30160985
0.28693536
0.27270123
0.25974809
0.24825655
0.23803746
0.22890761
0.22070228
0.2132851
0.20654489
0.2003907
0.19474658
0.18954844
0.18474287
0.18028464
0.17613525
0.17226171
0.16863559
0.16523226
0.16203027
0.15901088
0.15615757
0.15345578
0.1508926
0.14845654
0.14613731
0.14392569
0.14181341
0.13979295
0.13785752
0.13600095
0.13421761
0.13250234
0.13085041
0.12925747
0.1277195
0.12623279
0.12479389
0.1233996
0.12204694
0.12073312
0.11945549
0.1098003
0.29238155
0.3620504
0.38520028
0.38680296
0.37773613
0.36260538
0.34615553
0.32852777
0.31080033
0.29408684
0.28064876
0.26773668
0.25569133
0.24490246
0.23523035
0.2265309
0.21866841
0.21152768
0.20501297
0.19904465
0.19355526
0.18848712
0.18379169
0.17942752
0.17535903
0.17155553
0.16799043
0.16464056
0.16148566
0.15850794
0.1556917
0.15302302
0.15048952
0.14808017
0.14578508
0.14359534
0.14150294
0.13950061
0.13758176
0.13574039
0.13397101
0.13226861
0.13062855
0.1290466
0.12751882
0.12604157
0.12461148
0.12322541
0.12188042
0.12057376
0.11930285
0.062705923
0.2154152
0.29722589
0.3348681
0.34801396
0.34767324
0.33978885
0.32797215
0.31448716
0.30000731
0.28565339
0.27351105
0.2620607
0.25103843
0.24103841
0.23198418
0.22377367
0.21630253
0.20947874
0.2032235
0.19746972
0.19215942
0.18724211
0.18267474
0.17842011
0.17444598
0.17072429
0.16723054
0.16394326
0.16084355
0.15791472
0.15514198
0.15251219
0.15001358
0.14763566
0.14536896
0.14320497
0.14113599
0.13915502
0.13725571
0.13543226
0.13367935
0.13199212
0.13036609
0.12879711
0.12728136
0.12581529
0.12439561
0.12301923
0.1216833
0.12038512
0.11912214
0.041906952
0.16134525
0.2429751
0.28863334
0.31054929
0.31776549
0.31605888
0.30922863
0.29933032
0.2881774
0.27644185
0.26560829
0.255656
0.24580924
0.23667271
0.22830062
0.22063344
0.21359966
0.20713181
0.20116923
0.19565833
0.19055142
0.18580586
0.18138466
0.17725533
0.17338933
0.16976154
0.16634982
0.16313457
0.16009844
0.15722599
0.15450348
0.15191861
0.14946035
0.14711878
0.14488496
0.14275079
0.14070895
0.13875275
0.1368761
0.13507344
0.13333966
0.13167006
0.13006031
0.1285064
0.12700463
0.12555156
0.12414397
0.12277888
0.12145349
0.12016516
0.11891142
0.031180873
0.12387412
0.19900341
0.24768628
0.27541536
0.28863365
0.29225195
0.28990024
0.28374643
0.27539192
0.26639066
0.25719727
0.24857032
0.24002683
0.23182103
0.22418701
0.21711201
0.21055805
0.20448291
0.19884481
0.19360434
0.1887247
0.18417166
0.17991475
0.1759266
0.17218269
0.16866112
0.16534232
0.1622088
0.1592449
0.15643659
0.15377127
0.1512376
0.14882535
0.14652528
0.14432901
0.14222894
0.14021814
0.13829029
0.13643959
0.13466075
0.13294888
0.13129949
0.12970841
0.1281718
0.12668607
0.12524792
0.12385422
0.12250209
0.1211888
0.11991179
0.11866867
0.024790245
0.097685129
0.16401678
0.21226595
0.24324583
0.26085234
0.26888628
0.2704262
0.26772338
0.26221479
0.25554481
0.24832497
0.2409316
0.23366798
0.22650718
0.21965649
0.21321567
0.20717941
0.20153076
0.19624699
0.19130324
0.18667398
0.1823338
0.17825909
0.17442792
0.1708201
0.16741717
0.16420237
0.16116046
0.15827764
0.15554142
0.15294046
0.15046447
0.14810411
0.14585089
0.14369705
0.14163552
0.13965983
0.13776406
0.13594276
0.1341909
0.13250388
0.1308774
0.12930751
0.12779053
0.12632303
0.12490181
0.1235239
0.12218649
0.12088696
0.11962284
0.11839178
0.020515171
0.078985942
0.13639894
0.18212665
0.21434057
0.23485768
0.24632334
0.25121972
0.25150534
0.24878005
0.24422806
0.23883249
0.23295208
0.22677028
0.22075201
0.2147278
0.20895525
0.20346911
0.19827698
0.19337483
0.18875237
0.18439545
0.1802877
0.17641265
0.17275403
0.16929618
0.16602431
0.16292462
0.15998431
0.15719157
0.15453555
0.15200628
0.14959463
0.14729221
0.14509134
0.14298496
0.14096659
0.13903025
0.13717045
0.13538212
0.13366057
0.13200145
0.13040074
0.12885467
0.12735977
0.12591277
0.12451063
0.12315048
0.12182966
0.12054564
0.11929603
0.11807859
0.017406734
0.065268696
0.11459758
0.15674777
0.18873915
0.21091192
0.22487909
0.23250116
0.23543584
0.23510408
0.23268106
0.22893501
0.22450867
0.21955926
0.21453149
0.20942673
0.20434603
0.19943617
0.19472619
0.19022985
0.18595106
0.18188688
0.1780301
0.17437146
0.17090048
0.16760621
0.16447767
0.16150416
0.15867544
0.15598183
0.15341421
0.1509641
0.14862357
0.14638528
0.14424243
0.14218869
0.14021822
0.13832561
0.13650582
0.13475419
0.13306638
0.13143836
0.12986636
0.12834687
0.12687661
0.12545251
0.12407167
0.12273139
0.12142911
0.12016243
0.11892906
0.11772684
0.0150154
0.054920732
0.097291892
0.13549405
0.16629951
0.18912888
0.20476949
0.2145062
0.21966222
0.22144881
0.22091604
0.21883448
0.21572993
0.21202663
0.20795417
0.20373142
0.1994072
0.19509323
0.1908861
0.18681612
0.18290073
0.17914782
0.17555916
0.17213269
0.16886379
0.16574625
0.16277301
0.15993658
0.15722937
0.15464391
0.15217293
0.14980948
0.14754695
0.14537908
0.14330001
0.14130422
0.13938654
0.13754215
0.13576653
0.13405544
0.13240494
0.13081132
0.12927111
0.12778106
0.12633812
0.1249394
0.12358219
0.12226395
0.12098227
0.11973484
0.11851952
0.11733423
0.013105125
0.046906423
0.083429969
0.11772132
0.14676873
0.16950594
0.18611967
0.19740442
0.2043517
0.20795497
0.20910962
0.20854209
0.20677398
0.20417632
0.20111553
0.1977017
0.19413622
0.19045646
0.18676748
0.18314035
0.17960504
0.17617965
0.17287461
0.16969486
0.16664155
0.16371327
0.16090685
0.15821808
0.1556421
0.15317371
0.15080755
0.14853827
0.14636063
0.14426954
0.14226009
0.14032764
0.13846773
0.13667616
0.13494896
0.13328236
0.13167284
0.13011704
0.1286118
0.12715416
0.1257413
0.12437055
0.12303941
0.12174548
0.12048652
0.11926036
0.11806497
0.11689839
0.011539203
0.040551646
0.072204329
0.10283611
0.12983918
0.1519569
0.16897841
0.18130958
0.18964106
0.19475027
0.19738399
0.19817864
0.19764512
0.19615181
0.19399905
0.19143766
0.18855728
0.18553096
0.18238408
0.17921187
0.17606992
0.17298572
0.16997781
0.16705783
0.16423254
0.16150519
0.15887652
0.15634556
0.15391022
0.15156759
0.1493143
0.14714663
0.14506076
0.14305278
0.14111885
0.13925517
0.13745806
0.13572399
0.13404956
0.1324315
0.13086671
0.12935223
0.12788524
0.12646306
0.12508314
0.12374305
0.12244048
0.12117323
0.11993921
0.11873641
0.11756291
0.11641689
0.010231324
0.035408065
0.063006397
0.090321973
0.11518879
0.13634158
0.15333447
0.16628553
0.17563062
0.18194719
0.18583653
0.18784491
0.18842915
0.18796055
0.18671953
0.1849217
0.18276453
0.18032374
0.17774413
0.17504255
0.17230356
0.1695714
0.16687187
0.16422298
0.16163681
0.15912107
0.15668028
0.1543167
0.15203096
0.1498225
0.14768989
0.14563113
0.1436438
0.14172524
0.13987267
0.13808321
0.13635399
0.13468214
0.13306488
0.13149946
0.12998324
0.12851366
0.12708827
0.12570469
0.12436065
0.12305398
0.12178257
0.12054444
0.11933765
0.11816036
0.1170108
0.11588726
0.0091231081
0.031169823
0.055380345
0.079745131
0.10250684
0.12249002
0.13913263
0.15235404
0.16238668
0.16963295
0.17455823
0.177616
0.17920767
0.17966949
0.17928157
0.17824945
0.1767411
0.17491969
0.1728466
0.17064155
0.16831641
0.16594403
0.16356166
0.16119325
0.15885576
0.1565611
0.1543174
0.15213004
0.15000233
0.147936
0.14593159
0.14398877
0.1421066
0.14028366
0.13851824
0.13680842
0.13515214
0.13354725
0.13199158
0.13048294
0.12901918
0.12759814
0.12621776
0.12487598
0.12357084
0.12230041
0.12106283
0.11985632
0.11867913
0.11752959
0.11640608
0.11530702
0.0081733053
0.02762355
0.048983998
0.070749055
0.091508534
0.11022084
0.12628805
0.13950333
0.14994539
0.15787063
0.16362278
0.16756529
0.17003974
0.17134611
0.17173776
0.17142423
0.17056769
0.16930399
0.16776633
0.16600476
0.16411735
0.162113
0.16005385
0.15797316
0.15589221
0.15382676
0.15178826
0.14978509
0.14782314
0.14590637
0.14403726
0.14221713
0.14044648
0.13872516
0.13705257
0.13542771
0.13384938
0.13231615
0.1308265
0.12937881
0.1279714
0.12660258
0.12527066
0.12397394
0.12271076
0.12147946
0.12027844
0.11910612
0.11796096
0.11684146
0.11574616
0.11467364
0.0073516239
0.024617773
0.043560761
0.063044399
0.081941398
0.099353954
0.11469827
0.12769647
0.13831748
0.14670127
0.15308687
0.15775437
0.16098512
0.16303874
0.16414272
0.16449014
0.16424711
0.16354483
0.16249178
0.16119687
0.15970218
0.15808629
0.15635684
0.15456887
0.15275046
0.15092081
0.1490944
0.14728237
0.14549309
0.14373268
0.14200545
0.14031434
0.13866127
0.13704735
0.13547305
0.13393835
0.13244288
0.13098595
0.1295667
0.12818408
0.12683694
0.12552402
0.12424404
0.12299566
0.12177754
0.1205883
0.1194266
0.11829109
0.11718044
0.11609333
0.11502848
0.0066351392
0.022042235
0.038917737
0.056398716
0.073586693
0.089718735
0.10425261
0.11687895
0.12749327
0.13614657
0.14299111
0.14823276
0.15209532
0.15479679
0.15653683
0.15749258
0.15781778
0.15764474
0.15708039
0.1562108
0.15512565
0.15386152
0.15247695
0.15098813
0.14943626
0.14784739
0.14623855
0.14462349
0.14301288
0.14141487
0.13983549
0.13827924
0.13674941
0.13524833
0.13377755
0.132338
0.13093014
0.12955404
0.12820949
0.12689603
0.12561301
0.12435966
0.12313509
0.12193835
0.1207684
0.11962418
0.11850461
0.11740857
0.11633494
0.11528261
0.11425046
0.0060061102
0.019814811
0.034908686
0.050627572
0.066257996
0.081158498
0.094839086
0.1069852
0.11744749
0.12621197
0.13336152
0.13903828
0.14341325
0.14666421
0.14896261
0.15046664
0.15131759
0.15163836
0.15153446
0.15109439
0.15038618
0.14948412
0.14841455
0.14723519
0.14595689
0.14461204
0.14322473
0.14181118
0.1403842
0.13895377
0.13752751
0.13611137
0.13470996
0.13332678
0.13196443
0.13062476
0.12930907
0.12801817
0.12675249
0.12551216
0.12429707
0.12310691
0.1219412
0.12079936
0.1196807
0.11858446
0.11750983
0.11645593
0.11542188
0.11440676
0.11340962
0.0054505675
0.017873071
0.031421006
0.04558547
0.059800666
0.073533297
0.086349162
0.097943802
0.10814371
0.11688978
0.12421133
0.13019782
0.13497376
0.13867978
0.14145917
0.14344957
0.14477779
0.14555709
0.14588625
0.14584973
0.14552266
0.14496069
0.14420307
0.1433153
0.14231424
0.14122173
0.14005822
0.13884935
0.1376098
0.1363512
0.13508255
0.13381109
0.13254271
0.13128203
0.13003263
0.12879726
0.12757803
0.12637647
0.12519367
0.12403033
0.12288686
0.12176341
0.12065995
0.11957624
0.11851196
0.11746665
0.11643977
0.1154307
0.11443879
0.1134633
0.1125035
0.0049573549
0.016168705
0.028366773
0.041156249
0.054088274
0.066723057
0.07868271
0.089682261
0.099538416
0.10816242
0.11554373
0.12172956
0.12680504
0.13087713
0.13406202
0.13647638
0.13823143
0.13942933
0.14016139
0.14050763
0.1405362
0.14031017
0.13986633
0.13925478
0.13851897
0.13767567
0.13674557
0.13574308
0.13469353
0.13361001
0.13250257
0.13137959
0.13024822
0.1291141
0.12798171
0.12685467
0.12573587
0.12462755
0.12353141
0.12244874
0.12138043
0.12032713
0.11928919
0.11826678
0.11725991
0.11626844
0.11529209
0.11433052
0.11338328
0.11244988
0.0045174548
0.014663735
0.025676455
0.037246233
0.0490164
0.06062631
0.071751722
0.082132817
0.091586824
0.10000746
0.10735564
0.11364553
0.11892958
0.12328507
0.12680299
0.12957956
0.13171006
0.13328468
0.13438616
0.13508858
0.13545716
0.13554613
0.1354068
0.13507641
0.13459199
0.13399284
0.13328122
0.13249861
0.13164031
0.13073412
0.12979054
0.12881898
0.12782786
0.12682376
0.12581193
0.12479681
0.12378204
0.12277052
0.12176457
0.120766
0.11977623
0.11879632
0.11782708
0.11686903
0.11592252
0.11498772
0.11406464
0.11315319
0.11225317
0.11136428
0.0041235004
0.013327887
0.023294419
0.033779203
0.044498112
0.055156493
0.065479198
0.075234237
0.084246466
0.092401275
0.099640371
0.10595294
0.11136482
0.11592782
0.11971021
0.12278891
0.12524346
0.1271518
0.12858736
0.12961744
0.13030233
0.1306945
0.130841
0.13078184
0.13055253
0.13018071
0.12969551
0.12911262
0.128455
0.12772857
0.1269505
0.12613227
0.12528388
0.1244126
0.12352428
0.12262416
0.12171658
0.12080506
0.1198925
0.11898121
0.1180731
0.11716967
0.11627211
0.11538134
0.11449803
0.11362265
0.11275551
0.11189675
0.11104642
0.11020444
0.0037694149
0.012136726
0.021175663
0.030692625
0.040460565
0.050239259
0.059797203
0.068930673
0.077476757
0.085319276
0.092388242
0.098654746
0.10412364
0.10882538
0.11280822
0.11613137
0.11885942
0.12105809
0.12279121
0.12411876
0.12509568
0.12577117
0.1261894
0.12638901
0.12640297
0.12626366
0.12599195
0.12560754
0.12513959
0.12459488
0.1239876
0.12332338
0.12261941
0.1218831
0.12112055
0.1203379
0.1195402
0.11873146
0.11791512
0.11709397
0.11627038
0.11544626
0.1146232
0.11380245
0.11298503
0.1121717
0.11136305
0.11055947
0.10976124
0.1089685
0.0034501419
0.011070303
0.019283424
0.027934805
0.036842364
0.045810435
0.054645487
0.063170975
0.071238824
0.078736136
0.085587018
0.091750311
0.097214859
0.10199372
0.106118
0.10963105
0.11258354
0.11502945
0.11702302
0.11861668
0.11985957
0.12079681
0.12146936
0.12191383
0.12216274
0.1222428
0.12218221
0.12199842
0.12171196
0.12134457
0.12089839
0.12039699
0.11983847
0.11923867
0.11860335
0.11794
0.11725433
0.11655066
0.11583298
0.11510447
0.11436793
0.11362568
0.11287967
0.11213149
0.11138247
0.11063367
0.10988592
0.1091399
0.10839608
0.10765483
0.003161439
0.010112171
0.017587384
0.025462685
0.03359149
0.041814416
0.049970442
0.057908181
0.065495479
0.072626014
0.079222364
0.085235814
0.090643648
0.095445172
0.099657148
0.10330911
0.10643912
0.1090901
0.11130702
0.11313469
0.11461626
0.11579224
0.11670005
0.11737373
0.11784381
0.11813702
0.11827835
0.11828699
0.11818558
0.11798686
0.11770191
0.11735319
0.11694351
0.11648388
0.11597611
0.11543318
0.11486118
0.11426433
0.11364729
0.11301349
0.11236618
0.11170804
0.11104136
0.11036805
0.10968973
0.10900773
0.10832317
0.10763692
0.10694971
0.10626211
0.0028997196
0.0092486373
0.016062324
0.023240155
0.030663649
0.038202868
0.04572428
0.053099147
0.060211242
0.066962818
0.073278171
0.079104707
0.084411879
0.089188604
0.093440009
0.097183862
0.10044704
0.1032624
0.10566607
0.10769546
0.10938764
0.11077826
0.11190094
0.11278677
0.11346412
0.11395852
0.11429322
0.11448815
0.1145626
0.11453193
0.11440921
0.11420763
0.11394245
0.11361677
0.11324295
0.11282089
0.11236382
0.11187484
0.11136
0.11082249
0.11026619
0.10969403
0.10910864
0.10851221
0.10790664
0.10729353
0.10667421
0.10604981
0.10542125
0.10478931
0.0026619305
0.0084682076
0.014687094
0.021236729
0.028020945
0.034933654
0.041864352
0.048704266
0.055352376
0.061720515
0.067736936
0.073348056
0.078518502
0.083229739
0.087477814
0.091270751
0.094625785
0.097566713
0.10012155
0.10232063
0.10419501
0.10577546
0.10709157
0.10817127
0.10904051
0.10972309
0.11024073
0.11061285
0.11085733
0.1109897
0.11102233
0.11097096
0.11084489
0.11065153
0.11040585
0.11010391
0.10976643
0.10938524
0.10897388
0.10853361
0.10806969
0.10758497
0.10708247
0.10656462
0.10603357
0.10549115
0.10493892
0.10437823
0.1038102
0.10323578
0.0024454547
0.0077611565
0.013443827
0.019426506
0.025630808
0.031969943
0.038352565
0.044687216
0.050886921
0.056873366
0.062580174
0.067954919
0.072959841
0.077571391
0.081778856
0.085582459
0.088991323
0.092021341
0.094693185
0.097030579
0.099058877
0.10080395
0.10229133
0.10354568
0.10459028
0.1054469
0.10613565
0.10667487
0.10708131
0.10736995
0.10755397
0.10764659
0.10765753
0.10759802
0.10747495
0.10729349
0.10706844
0.10679818
0.10649281
0.10614962
0.10577914
0.10538282
0.10496446
0.10452651
0.10407143
0.10360122
0.10311769
0.10262233
0.10211649
0.10160128
0.0022480356
0.0071191954
0.01231732
0.017787349
0.023465121
0.029279462
0.035154878
0.041014742
0.046784729
0.052396141
0.057788732
0.06291273
0.067729909
0.072213721
0.076348655
0.080128971
0.083557173
0.086642419
0.089398898
0.091844335
0.093998709
0.095883195
0.097519333
0.098928396
0.10013094
0.10114648
0.10199336
0.10268855
0.10324772
0.10368506
0.1040135
0.10424514
0.1043903
0.10445883
0.10445836
0.10439765
0.10428285
0.10411888
0.10391589
0.10367351
0.10339793
0.10309022
0.10275689
0.10239975
0.10202175
0.10162496
0.10121141
0.10078277
0.10034055
0.09988602
0.0020677162
0.0065352131
0.011294551
0.016300232
0.021499511
0.026833859
0.032240851
0.037656438
0.043017476
0.048264304
0.053343082
0.058207652
0.062820743
0.067154464
0.07119015
0.074917685
0.078334402
0.081443887
0.084254746
0.08677937
0.089032817
0.091031846
0.092794123
0.094337597
0.095680013
0.096838569
0.097829673
0.098668785
0.099370332
0.099947617
0.10041288
0.10077745
0.10105152
0.10124438
0.10136414
0.1014186
0.10141425
0.10135824
0.10125488
0.10110829
0.10092654
0.10071022
0.10046287
0.10018686
0.099886729
0.099564181
0.099221617
0.098860762
0.098483319
0.098090701
0.0019027901
0.0060030715
0.010364307
0.01494872
0.019712765
0.024608168
0.029583252
0.034584551
0.039558658
0.044454173
0.049223586
0.053824882
0.058222739
0.062389202
0.066303854
0.069953531
0.073331682
0.076437467
0.079274821
0.081851505
0.084178172
0.086267521
0.088133564
0.089791032
0.091254888
0.09253996
0.093660667
0.094630823
0.095463506
0.096170972
0.09676462
0.097255025
0.097651904
0.097964148
0.098199788
0.098366255
0.098470196
0.098517884
0.098514312
0.098465464
0.098374404
0.098244923
0.098083501
0.097890862
0.097669323
0.097421313
0.097150447
0.0968581
0.096546334
0.096216577
0.0017517624
0.0055174424
0.0095168708
0.01371854
0.018086349
0.022580353
0.027157701
0.031773782
0.036383565
0.040943048
0.045410728
0.049748943
0.053924951
0.057911678
0.061688068
0.065239077
0.068555352
0.071632667
0.074471196
0.077074794
0.079450269
0.081606667
0.083554632
0.085305851
0.086872594
0.088267342
0.089502499
0.090590168
0.091542
0.092369074
0.093081842
0.093690077
0.094202861
0.094628616
0.094975067
0.095249332
0.095457913
0.095606789
0.095701251
0.095746397
0.095746093
0.095705506
0.095626959
0.095513582
0.095370881
0.095199334
0.095000807
0.094777197
0.094531754
0.094265481
0.0016133172
0.0050736768
0.0087437843
0.012597248
0.016604016
0.020730922
0.024942359
0.029201095
0.033469237
0.037709297
0.041885317
0.045963945
0.049915374
0.053714056
0.057339154
0.060774696
0.064009489
0.067036803
0.069853899
0.072461455
0.074863008
0.077064406
0.079073252
0.080898422
0.082549639
0.084037111
0.085371249
0.086562431
0.087620829
0.088556275
0.089378175
0.090095446
0.090716455
0.091249032
0.091700478
0.092077552
0.092386487
0.092633023
0.092822387
0.092959413
0.093048359
0.093093467
0.093097731
0.093065553
0.092998968
0.092900159
0.092774122
0.092620953
0.092442497
0.09223983
0.0014862918
0.0046676996
0.0080376493
0.011573945
0.01525147
0.019042592
0.022917649
0.026845541
0.03079441
0.034732432
0.03862865
0.042453824
0.046181207
0.049787188
0.053251762
0.056558784
0.059696025
0.062655041
0.065430904
0.068021802
0.070428597
0.0726544
0.074704144
0.076584164
0.078301826
0.079865192
0.081282745
0.08256316
0.083715123
0.084747182
0.085667642
0.086484487
0.08720532
0.087837318
0.088387237
0.088861415
0.089265742
0.08960568
0.089886264
0.090112143
0.090287559
0.09041647
0.090502327
0.090548674
0.090557845
0.090533536
0.090477703
0.0903916
0.090279976
0.090142465
0.0013696544
0.0042959232
0.0073919677
0.010639051
0.0140161
0.017500012
0.021066013
0.024688082
0.028339444
0.031993141
0.035622655
0.039202552
0.042709109
0.046120867
0.04941907
0.05258796
0.05561492
0.058490472
0.06120814
0.063764223
0.066157472
0.068388744
0.070460681
0.072377383
0.074144085
0.075766862
0.077252381
0.078607675
0.079839965
0.080956511
0.081964496
0.082870931
0.083682589
0.084405957
0.085047189
0.085612113
0.086106222
0.086534643
0.086902153
0.087213183
0.087471833
0.087681898
0.087846844
0.087969926
0.088053959
0.088101903
0.08811557
0.08809807
0.088051522
0.087976088
0.0012624869
0.0039551769
0.0068010103
0.0097841138
0.012886744
0.016089519
0.019371687
0.022711434
0.026086244
0.029473312
0.032849997
0.036194316
0.039485425
0.042704079
0.045833021
0.048857276
0.051764338
0.054544245
0.057189542
0.059695165
0.062058249
0.064277868
0.066354768
0.068291128
0.070090305
0.071756583
0.073294948
0.074710887
0.076010216
0.077198932
0.078283095
0.079268731
0.080161753
0.080967902
0.081692708
0.082341443
0.082919127
0.083430512
0.083880056
0.084271933
0.084610034
0.084897981
0.085139126
0.085336584
0.085493195
0.08561164
0.085694211
0.085743339
0.08576098
0.085748862
0.0011639723
0.0036426517
0.0062597071
0.009001655
0.011853502
0.014798934
0.017820513
0.020899914
0.02401818
0.027156024
0.030294163
0.033413678
0.036496393
0.039525234
0.04248456
0.045360436
0.048140827
0.050815719
0.053377148
0.055819159
0.058137702
0.06033048
0.062396738
0.064337059
0.066153188
0.06784783
0.069424457
0.07088713
0.072240346
0.073488892
0.074637737
0.075691926
0.076656502
0.077536443
0.078336609
0.079061703
0.079716235
0.08030452
0.080830658
0.081298522
0.081711751
0.082073755
0.082387721
0.082656617
0.082883196
0.083070016
0.083219415
0.083333624
0.083414643
0.083464336
0.0010733795
0.0033558527
0.0057635617
0.0082850372
0.01090757
0.013617378
0.016399768
0.019239304
0.02212
0.025025538
0.027939512
0.030845698
0.03372833
0.036572389
0.039363872
0.042090021
0.044739522
0.047302627
0.049771233
0.052138891
0.054400762
0.056553531
0.058595285
0.060525346
0.062344116
0.064052945
0.065653974
0.067149984
0.068544258
0.069840453
0.071042495
0.072154479
0.073180593
0.074125045
0.074992014
0.075785599
0.076509793
0.077168444
0.077765248
0.078303737
0.078787264
0.079218995
0.07960191
0.079938805
0.080232294
0.080484819
0.080698646
0.080875898
0.081018541
0.08112842
0.00099004392
0.0030925471
0.0053085809
0.007628361
0.010041102
0.012535126
0.01509801
0.017716718
0.020377742
0.023067261
0.025771322
0.028476036
0.031167786
0.033833447
0.036460598
0.039037718
0.041554353
0.044001252
0.046370453
0.048655326
0.050850575
0.052952199
0.05495742
0.056864586
0.058673038
0.060383
0.061995472
0.063512113
0.064935117
0.06626711
0.067511044
0.068670117
0.069747687
0.070747212
0.071672188
0.072526109
0.073312423
0.074034505
0.074695626
0.075298943
0.075847486
0.076344151
0.076791681
0.07719267
0.077549563
0.077864658
0.078140106
0.078377926
0.078580009
0.078748142
0.00091337407
0.0028507329
0.0048911903
0.0070263734
0.0092471016
0.011543472
0.013904948
0.016320488
0.018778651
0.021267713
0.0237758
0.026291034
0.028801684
0.031296336
0.033764053
0.036194536
0.038578268
0.040906632
0.043172009
0.045367831
0.047488611
0.049529939
0.051488448
0.053361757
0.055148394
0.056847689
0.058459696
0.059985116
0.061425193
0.06278163
0.064056498
0.065252157
0.066371189
0.067416327
0.06839041
0.069296326
0.070136981
0.070915261
0.071634003
0.07229598
0.072903874
0.073460274
0.073967668
0.074428424
0.07484479
0.075218896
0.075552751
0.075848251
0.076107187
0.076331264
0.00084283685
0.0026286238
0.00450819
0.0064743689
0.0085193203
0.010634619
0.012811323
0.015040054
0.017311093
0.019614476
0.021940088
0.024277767
0.026617425
0.028949165
0.031263411
0.033551028
0.035803449
0.038012769
0.04017184
0.042274333
0.044314778
0.04628858
0.048192016
0.050022205
0.051777066
0.053455248
0.055056057
0.056579397
0.05802571
0.059395894
0.060691237
0.061913344
0.063064076
0.064145495
0.065159807
0.06610932
0.066996407
0.067823465
0.068592894
0.06930707
0.069968325
0.070578926
0.071141075
0.071656897
0.072128424
0.072557597
0.072946261
0.073296166
0.073608986
0.073886323
0.00077795124
0.0024246166
0.0041567235
0.0059681343
0.0078521505
0.00980158
0.01180881
0.013865867
0.015964479
0.018096152
0.020252254
0.022424088
0.024602978
0.026780361
0.02894788
0.031097487
0.033221529
0.035312842
0.037364825
0.039371504
0.041327576
0.043228438
0.045070202
0.046849679
0.048564368
0.050212414
0.051792557
0.05330407
0.05474673
0.056120759
0.057426765
0.058665689
0.059838745
0.060947375
0.061993203
0.062977985
0.063903582
0.064771921
0.065584967
0.066344698
0.067053087
0.067712082
0.068323588
0.068889465
0.069411513
0.069891468
0.070330993
0.070731678
0.071095057
0.071422614
0.00071828297
0.0022372708
0.0038342306
0.0055039057
0.0072405679
0.0090380742
0.010889922
0.01278931
0.014729188
0.016702307
0.018701278
0.020718646
0.022746947
0.024778775
0.026806859
0.028824128
0.030823797
0.032799427
0.034744996
0.036654955
0.038524271
0.040348464
0.042123624
0.043846418
0.045514087
0.047124426
0.048675759
0.050166887
0.051597059
0.052965944
0.05427358
0.055520333
0.056706855
0.057834033
0.058902959
0.059914883
0.060871186
0.061773344
0.062622906
0.063421461
0.064170628
0.064872027
0.065527271
0.066137948
0.066705614
0.067231784
0.067717925
0.068165455
0.068575751
0.068950156
0.00066343997
0.0020652916
0.0035384156
0.0050783117
0.0066800798
0.0083384672
0.010047915
0.011802606
0.013596506
0.015423419
0.017277021
0.019150897
0.021038619
0.022933782
0.02483006
0.026721262
0.028601393
0.030464705
0.032305756
0.034119452
0.035901095
0.037646415
0.039351592
0.04101327
0.042628567
0.044195063
0.045710794
0.047174221
0.048584199
0.049939957
0.051241072
0.052487432
0.053679205
0.054816799
0.055900832
0.056932099
0.057911541
0.058840217
0.05971928
0.06054995
0.061333501
0.062071234
0.062764468
0.063414522
0.064022706
0.064590306
0.065118584
0.06560877
0.066062072
0.066479668
0.00061306839
0.0019075153
0.0032672198
0.0046883329
0.0061666633
0.007697717
0.0092767356
0.010898736
0.012558546
0.014250844
0.015970201
0.017711107
0.019468003
0.021235343
0.023007625
0.024779431
0.02654548
0.028300662
0.030040089
0.031759132
0.033453457
0.035119059
0.036752282
0.038349842
0.039908834
0.041426738
0.042901412
0.044331085
0.045714333
0.047050055
0.048337465
0.049576069
0.050765631
0.051906156
0.052997852
0.054041113
0.055036488
0.055984654
0.056886403
0.05774261
0.05855422
0.059322231
0.060047676
0.060731607
0.061375091
0.061979191
0.062544959
0.063073434
0.063565652
0.00056684941
0.0017628977
0.0030187992
0.0043312676
0.0056967202
0.007111311
0.0085709633
0.010071402
0.011608185
0.013176736
0.014772373
0.016390343
0.018025847
0.019674069
0.021330214
0.022989542
0.024647403
0.026299269
0.027940768
0.029567719
0.031176161
0.032762382
0.034322939
0.035854681
0.037354759
0.038820636
0.040250088
0.041641203
0.042992368
0.044302252
0.045569799
0.046794215
0.047974945
0.049111659
0.050204224
0.05125269
0.052257261
0.053218282
0.054136214
0.05501162
0.055845141
0.05663749
0.057389427
0.058101752
0.058775295
0.059410897
0.060009412
0.060571711
0.061098685
0.00052449648
0.0016305031
0.0027915056
0.0040047041
0.0052670395
0.0065752211
0.0079257541
0.0093149664
0.010739036
0.012194017
0.013675867
0.015180468
0.016703659
0.018241257
0.01978908
0.021342969
0.022898831
0.024452655
0.026000543
0.027538733
0.029063627
0.030571815