/*--------------------------------*- C++ -*----------------------------------*\
| =========                 |                                                 |
| \\      /  F ield         | OpenFOAM: The Open Source CFD Toolbox           |
|  \\    /   O peration     | Version:  2312                                  |
|   \\  /    A nd           | Website:  www.openfoam.com                      |
|    \\/     M anipulation  |                                                 |
\*---------------------------------------------------------------------------*/
FoamFile
{
    version     2.0;
    format      ascii;
    arch        "LSB;label=32;scalar=64";
    class       volScalarField;
    location    "0.1";
    object      k;
}
// * * * * * * * * * * * * * * * * * * * * * * * * * * * * * * * * * * * * * //

dimensions      [0 2 -2 0 0 0 0];

internalField   nonuniform List<scalar> 
3275
(
11.308539
12.198851
13.151615
14.169904
15.307031
16.614397
18.118063
19.802387
21.623325
23.517509
25.411067
27.253726
28.9892
30.540612
31.847458
32.851284
33.492
33.836722
33.960532
33.922668
33.76548
33.508452
33.18169
32.802955
32.385875
31.940972
31.476413
30.998574
30.512447
30.021954
29.530182
29.039563
28.552008
28.069021
27.591775
27.121181
26.657939
26.202578
25.755491
25.316956
24.887164
24.46623
24.054212
23.651116
23.25691
22.871532
22.494893
22.126884
21.76738
21.416245
21.073332
20.738488
11.373328
12.256038
13.173424
14.175956
15.308708
16.616239
18.120842
19.804632
21.623566
23.51477
25.405082
27.244221
28.97604
30.524267
31.828479
32.830354
33.470031
33.814164
33.937858
33.900228
33.743573
33.487276
33.161362
32.783537
32.367391
31.923419
31.459772
30.982815
30.497533
30.007844
29.516835
29.026935
28.540059
28.05771
27.581064
27.111033
26.648321
26.193457
25.746837
25.308742
24.879363
24.458818
24.047166
23.644415
23.250534
22.865463
22.489114
22.121378
21.762134
21.411244
21.068563
20.733938
11.503246
12.345381
13.202156
14.181784
15.30984
16.619276
18.126009
19.808722
21.623628
23.508914
25.392787
27.224938
28.949504
30.491412
31.790381
32.788364
33.425934
33.768912
33.892404
33.855273
33.699709
33.444895
33.120688
32.744692
32.33042
31.888316
31.426498
30.951307
30.467716
29.979636
29.49015
29.00169
28.51617
28.035097
27.55965
27.090747
26.629093
26.175224
25.729538
25.292321
24.863769
24.444002
24.033081
23.63102
23.23779
22.853332
22.477562
22.110374
21.751647
21.401247
21.05903
20.724844
11.673416
12.412482
13.212199
14.177709
15.307272
16.622829
18.13285
19.813795
21.622699
23.499232
25.373599
27.195407
28.909239
30.441791
31.732962
32.725122
33.359469
33.700761
33.824025
33.787706
33.633839
33.38129
33.059675
32.686441
32.274994
31.8357
31.376629
30.904089
30.423035
29.937368
29.450168
28.963864
28.480376
28.001215
27.527565
27.06035
26.600282
26.147903
25.703618
25.267717
24.840402
24.4218
24.011976
23.610948
23.218692
22.835154
22.460252
22.093885
21.735933
21.386267
21.044744
20.711217
11.757739
12.388953
13.18304
14.155749
15.299283
16.626503
18.140221
19.818587
21.619609
23.484705
25.346663
27.154942
28.854727
30.375016
31.655907
32.640337
33.27028
33.609411
33.732505
33.697387
33.545891
33.296436
32.978329
32.608814
32.201156
31.765623
31.310222
30.841221
30.36355
29.881099
29.396942
28.913511
28.432729
27.956112
27.484854
27.019886
26.561929
26.111532
25.66911
25.234961
24.809293
24.392241
23.983877
23.584224
23.193265
22.810951
22.437204
22.071928
21.715009
21.36632
21.025722
20.693071
11.381448
12.251886
13.113797
14.11941
15.28672
16.62929
18.147289
19.821591
21.613287
23.465249
25.312956
27.105683
28.789298
30.295425
31.564377
32.539752
33.16437
33.501086
33.624175
33.590641
33.442096
33.196392
32.882492
32.517412
32.11425
31.683169
31.232103
30.767275
30.293591
29.814927
29.334352
28.8543
28.3767
27.903075
27.434629
26.972302
26.516826
26.06876
25.628527
25.196437
24.772705
24.357475
23.950827
23.552791
23.163356
22.78248
22.410092
22.0461
21.690394
21.342853
21.003343
20.671722
11.231388
12.108238
13.033679
14.07897
15.272635
16.630329
18.1526
19.822359
21.603228
23.440782
25.272915
27.048672
28.714609
30.205167
31.460938
32.426236
33.044756
33.378924
33.502235
33.470668
33.325605
33.084222
32.775122
32.415065
32.016979
31.590909
31.144712
30.684566
30.215349
29.740924
29.264358
28.788086
28.314044
27.843765
27.378462
26.919088
26.466384
26.020923
25.583138
25.153349
24.731781
24.318588
23.913858
23.517629
23.129898
22.75063
22.379761
22.017204
21.662855
21.316598
20.978304
20.647835
11.175575
11.990039
12.954471
14.036633
15.256623
16.629208
18.155451
19.819695
21.587584
23.408188
25.222345
26.978602
28.62418
30.096639
31.337045
32.290487
32.901641
33.233015
33.356893
33.327918
33.187215
32.951112
32.647814
32.293791
31.901772
31.481672
31.041265
30.586676
30.122757
29.653355
29.181535
28.709738
28.239906
27.773585
27.312
26.856117
26.406693
25.964312
25.529422
25.102353
24.683345
24.27256
23.870098
23.476006
23.090292
22.712926
22.343853
21.982993
21.63025
21.285513
20.948657
20.619552
11.161995
11.913557
12.889061
13.997776
15.240153
16.62572
18.154519
19.811668
21.564643
23.365697
25.15926
26.893526
28.51615
29.967882
31.19068
32.1304
32.732837
33.061264
33.1862
33.160586
33.025265
32.795527
32.499147
32.152265
31.767393
31.354302
30.920675
30.472586
30.014852
29.551311
29.085026
28.618443
28.153517
27.691806
27.234551
26.782734
26.337128
25.898335
25.466814
25.042914
24.626886
24.218906
23.819085
23.427483
23.044116
22.668966
22.301985
21.943103
21.592231
21.249263
20.914083
20.586567
11.169085
11.877057
12.844213
13.966478
15.224518
16.619378
18.148348
19.796205
21.53224
23.311389
25.081437
26.791181
28.388466
29.816776
31.019621
31.943663
32.536003
32.861462
32.988124
32.966804
32.838037
32.615883
32.327655
31.989126
31.612571
31.207609
30.781828
30.341244
29.890646
29.43386
28.973949
28.513368
28.054085
27.597677
27.145403
26.698262
26.257048
25.822379
25.394734
24.974478
24.561877
24.157123
23.76034
23.371601
22.990935
22.618334
22.25376
21.897153
21.548433
21.207502
20.874252
20.548563
11.186439
11.870591
12.820448
13.944454
15.210162
16.609334
18.135106
19.771165
21.487926
23.242865
24.986629
26.66912
28.238759
29.641026
30.821434
31.727729
32.308666
32.631324
32.760573
32.744668
32.62377
32.410565
32.131845
31.802988
31.436013
31.040383
30.623586
30.191581
29.749128
29.300046
28.847399
28.393655
27.9408
27.49043
27.043824
26.602007
26.16579
25.735815
25.312582
24.896472
24.487773
24.08669
23.693366
23.307888
22.930296
22.560597
22.198766
21.84475
21.498481
21.159871
20.828818
20.505213
11.208203
11.883647
12.814256
13.93106
15.196473
16.594273
18.11285
19.734157
21.429112
23.157466
24.872324
26.524765
28.064332
29.43813
30.593511
31.479766
32.048256
32.368529
32.501446
32.492286
32.380691
32.177951
31.91022
31.592454
31.236416
30.851401
30.444799
30.022512
29.589276
29.148901
28.70446
28.258436
27.812835
27.369278
26.929068
26.493256
26.062677
25.637999
25.219742
24.808311
24.404014
24.007075
23.617655
23.235855
22.861735
22.495313
22.136577
21.785488
21.441987
21.105997
20.777427
20.456175
11.230892
11.907392
12.8201
13.923777
15.181785
16.572362
18.079348
19.682585
21.353071
23.052331
24.735634
26.355407
27.862345
29.205272
30.333097
31.196557
31.752154
32.070786
32.20867
32.207849
32.107028
31.91645
31.661301
31.356145
31.012483
30.639445
30.244318
29.832953
29.410061
28.97945
28.544206
28.10683
27.669354
27.233425
26.800376
26.371286
25.947021
25.528271
25.115587
24.709396
24.310028
23.91773
23.532682
23.155005
22.784773
22.422023
22.066756
21.718947
21.378549
21.045497
20.71971
20.401097
11.252293
11.934664
12.831813
13.918788
15.163514
16.541258
18.032092
19.613701
21.256864
22.924443
24.573523
26.158018
27.629853
28.939462
30.037183
30.874328
31.417782
31.735918
31.880254
31.88973
31.801015
31.624541
31.38366
31.092716
30.762949
30.403317
30.021011
29.621828
29.210462
28.790723
28.365713
27.937957
27.509516
27.08207
26.656984
26.235369
25.818122
25.405967
24.999479
24.599116
24.205232
23.818098
23.437915
23.064825
22.698923
22.34026
21.988855
21.644698
21.307757
20.977977
20.655291
20.339618
11.270751
11.95961
12.843121
13.911478
15.138331
16.498138
17.968299
19.52459
21.137411
22.770616
24.382828
25.929414
27.363683
28.637549
29.702662
30.510519
31.042878
31.36196
31.514464
31.536223
31.461133
31.300855
31.075956
30.800893
30.486601
30.141865
29.773777
29.388089
28.989479
28.581764
28.168067
27.750944
27.332488
26.914414
26.498126
26.084771
25.675282
25.270414
24.870777
24.476857
24.089037
23.707613
23.332812
22.964798
22.603686
22.249547
21.902418
21.562305
21.22919
20.903035
20.583784
20.271368
11.2847
11.977014
12.847976
13.896819
15.102365
16.439766
17.884924
19.412169
20.991513
22.587548
24.160224
25.666302
27.060481
28.296187
29.32637
30.103212
30.625594
30.947264
31.109814
31.145873
31.086132
30.944088
30.736964
30.479499
30.182309
29.854001
29.501573
29.130732
28.746146
28.351646
27.950379
27.544935
27.137446
26.729669
26.323047
25.918767
25.517802
25.120944
24.728838
24.342002
23.96085
23.585709
23.216829
22.854401
22.498561
22.149402
21.806981
21.471322
21.142423
20.820261
20.504796
20.19597
11.29223
11.981642
12.840551
13.869634
15.051376
16.362554
17.778671
19.273189
20.815853
22.371841
23.902262
25.365221
26.716782
27.911838
28.904859
29.65056
30.164478
30.490616
30.665159
30.717547
30.675001
30.553145
30.365627
30.127501
29.84906
29.538737
29.203434
28.848819
28.479555
28.099488
27.711795
27.319106
26.923596
26.527066
26.131004
25.736643
25.344995
24.956894
24.573024
24.193937
23.820082
23.451816
23.089418
22.733106
22.383041
22.039339
21.702077
21.3713
21.047023
20.729241
20.417927
20.113039
11.291013
11.967511
12.815165
13.824782
14.980923
16.262646
17.646021
19.104243
20.607003
22.120004
23.605399
25.022584
26.328954
27.480812
28.434072
29.150967
29.65862
29.991278
30.179814
30.250489
30.22705
30.127175
29.961101
29.744041
29.48599
29.195206
28.8785
28.541501
28.188868
27.824469
27.451515
27.072677
26.690179
26.305868
25.921284
25.537704
25.156189
24.777616
24.402708
24.032058
23.666149
23.305372
22.950038
22.600393
22.256624
21.918873
21.58724
21.261789
20.942557
20.629555
20.322775
20.02219
11.285062
11.942427
12.766363
13.75734
14.886498
16.135986
17.483256
18.901772
20.361429
21.828457
23.265996
24.634703
25.893236
26.999266
27.908825
28.603471
29.107803
29.449129
29.653583
29.744395
29.742036
29.665577
29.522818
29.328491
29.092423
28.822702
28.526045
28.208041
27.873348
27.525853
27.168807
26.804927
26.436485
26.065382
25.693208
25.321292
24.950743
24.582485
24.217284
23.855775
23.49848
23.145825
22.798154
22.455743
22.11881
21.787522
21.462002
21.14234
20.828591
20.520788
20.218939
19.923034
11.276235
11.909907
12.699291
13.662805
14.763639
15.978384
17.286497
18.66208
20.075505
21.493545
22.880327
24.197804
25.405774
26.463548
27.331377
28.008745
28.512693
28.864761
29.086866
29.199379
29.220383
29.167937
29.050563
28.880489
28.667912
28.420715
28.145511
27.847846
27.532375
27.203008
26.863033
26.515214
26.161874
25.804971
25.446148
25.086788
24.72805
24.370907
24.016173
23.664526
23.316527
22.97264
22.633247
22.298655
21.969112
21.644813
21.325908
21.012511
20.704699
20.402525
20.106017
11.265458
11.872054
12.621003
13.539771
14.607984
15.78556
17.051743
18.381351
19.745527
21.111548
22.444586
23.708046
24.862556
25.868825
26.703924
27.368708
27.874954
28.239531
28.480737
28.616286
28.662359
28.634801
28.544397
28.399972
28.212272
27.988959
27.736534
27.460493
27.165481
26.855429
26.533662
26.20299
25.86579
25.524074
25.179541
24.83363
24.487553
24.142333
23.798834
23.457777
23.119767
22.785309
22.45482
22.128643
21.807057
21.490288
21.178512
20.871868
20.57046
20.27436
19.983618
11.253255
11.830244
12.535711
13.400629
14.416803
15.553152
16.77493
18.055682
19.367762
20.678719
21.954886
23.161589
24.259598
25.221027
26.030485
26.686554
27.197232
27.57564
27.836957
27.996522
28.068809
28.067267
28.004667
27.887224
27.725623
27.527415
27.298982
27.045756
26.772369
26.482764
26.180298
25.867827
25.547778
25.222218
24.892903
24.561326
24.228756
23.896267
23.564771
23.235039
22.907718
22.583355
22.262406
21.945249
21.632197
21.323507
21.019385
20.719996
20.425468
20.135898
19.851356
11.239968
11.785469
12.446064
13.252906
14.206129
15.283182
16.452016
17.681101
18.938527
20.191334
21.407216
22.554689
23.602579
24.527638
25.316574
25.966665
26.483137
26.876089
27.158011
27.34208
27.441128
27.467079
27.431959
27.342973
27.208424
27.036358
26.83298
26.603641
26.352944
26.084837
25.802701
25.509432
25.207505
24.899038
24.585844
24.269471
23.95124
23.63228
23.313552
22.995875
22.679943
22.366344
22.055573
21.748047
21.444113
21.14406
20.848124
20.556498
20.269337
19.986761
19.708864
11.22586
11.738511
12.353846
13.101303
13.986275
14.993487
16.095442
17.260475
18.455538
19.647639
20.805395
21.899581
22.903615
23.79738
24.568867
25.214432
25.737159
26.144655
26.447067
26.655603
26.781536
26.8356
26.828093
26.768172
26.661502
26.516392
26.338943
26.13441
25.90734
25.661676
25.400813
25.127676
24.844781
24.554298
24.258089
23.957757
23.654674
23.350023
23.044815
22.739915
22.436064
22.133894
21.833939
21.536654
21.242423
20.951567
20.664354
20.381006
20.101703
19.826592
11.211148
11.690025
12.260342
12.948844
13.763917
14.69607
15.722947
16.815436
17.94164
19.069506
20.168733
21.211799
22.174818
23.039615
23.794843
24.436043
24.964535
25.385809
25.707942
25.940327
26.092757
26.174807
26.195506
26.163975
26.086096
25.96848
25.817609
25.638602
25.435944
25.213535
24.974775
24.722607
24.459581
24.187906
23.909495
23.625997
23.338837
23.049245
22.758283
22.466864
22.175774
21.885685
21.597176
21.310739
21.026793
20.745694
20.467741
20.193185
19.922236
19.655065
11.196023
11.640583
12.166539
12.797546
13.543392
14.398942
15.346801
16.361676
17.4143
18.474519
19.513541
20.505353
21.427793
22.263856
23.002423
23.638234
24.171084
24.60461
24.945026
25.200044
25.378036
25.487436
25.536368
25.532612
25.483694
25.393929
25.27005
25.117079
24.939417
24.740919
24.524958
24.29448
24.052059
23.799938
23.540066
23.274139
23.003625
22.729804
22.453782
22.176519
21.898845
21.621475
21.345027
21.070031
20.796944
20.526155
20.257994
19.992745
19.730642
19.471887
11.180654
11.590694
12.073238
12.648803
13.327519
14.107376
14.975362
15.910383
16.886611
17.876522
18.853302
19.792507
20.673281
21.479366
22.199635
22.828042
23.363023
23.806564
24.163188
24.439036
24.641115
24.776732
24.853116
24.877153
24.855922
24.794451
24.697674
24.571013
24.418726
24.244602
24.051973
23.843773
23.622576
23.390651
23.149977
22.902282
22.649077
22.391683
22.131251
21.868782
21.605148
21.341105
21.077311
20.814333
20.552664
20.292725
20.034881
19.779443
19.526676
19.276807
11.165195
11.540809
11.981103
12.503607
13.118125
13.824776
14.614194
15.469349
16.368152
17.286156
18.198906
19.083707
19.920912
20.694857
21.394332
22.012563
22.546776
22.997482
23.367662
23.661988
23.886158
24.046372
24.148954
24.200087
24.205696
24.171919
24.102235
24.001899
23.875139
23.725652
23.556704
23.371201
23.171714
22.96051
22.739586
22.510696
22.275385
22.03501
21.790759
21.543673
21.294661
21.044519
20.793941
20.543531
20.293816
20.04525
19.798231
19.553098
19.310145
19.069625
11.149783
11.491328
11.890695
12.362682
12.916378
13.553263
14.266872
15.043825
15.865719
16.711365
17.55891
18.387597
19.179065
19.918265
20.593948
21.198728
21.728784
22.183321
22.563919
22.873887
23.117676
23.300402
23.427476
23.504341
23.536274
23.528557
23.485873
23.411571
23.310233
23.185419
23.040308
22.877748
22.700292
22.510193
22.309454
22.099837
21.882914
21.660068
21.432521
21.201345
20.967485
20.731772
20.494933
20.257607
20.020353
19.783659
19.54795
19.313597
19.08092
18.850201
11.134537
11.442599
11.802487
12.226565
12.723011
13.294092
13.93557
14.637184
15.383941
16.157866
16.939819
17.711119
18.454816
19.156597
19.80531
20.393117
20.915331
21.370028
21.757538
22.079916
22.340438
22.543169
22.692617
22.793468
22.85039
22.867908
22.850696
22.802206
22.725904
22.625552
22.504215
22.36466
22.209386
22.04062
21.860357
21.670362
21.472213
21.267314
21.056909
20.842099
20.623857
20.403044
20.180418
19.956649
19.732327
19.507968
19.284028
19.060905
18.838947
18.618458
11.11956
11.394922
11.716873
12.095653
12.538455
13.047926
13.621481
14.251421
14.925772
15.629575
16.346376
17.059637
17.753938
18.415854
19.034508
19.601803
20.112388
20.563395
20.954067
21.28533
21.559367
21.77924
21.948574
22.071294
22.151433
22.192995
22.199847
22.176119
22.124364
22.048007
21.950147
21.833444
21.700319
21.552951
21.393306
21.223139
21.044029
20.857388
20.66447
20.466397
20.264163
20.058655
19.850657
19.640866
19.429899
19.218301
19.006552
18.795078
18.58425
18.3744
11.104941
11.34855
11.634175
11.970233
12.362935
12.81503
13.325114
13.88754
14.492905
15.128976
15.781843
16.43711
17.080961
17.700997
18.286802
18.83023
19.325474
19.768924
20.158905
20.495347
20.779442
21.013313
21.199732
21.341876
21.443137
21.506975
21.536811
21.535981
21.508101
21.455031
21.380113
21.285887
21.174673
21.048587
20.909542
20.759268
20.599327
20.431129
20.255934
20.074872
19.88895
19.699075
19.506051
19.310598
19.113355
18.914892
18.715713
18.516267
18.316949
18.118115
11.090755
11.303689
11.55465
11.850502
12.196529
12.595397
13.046518
13.545839
14.086092
14.657425
15.248263
15.84627
16.439259
17.015961
17.566582
18.083133
18.55956
18.991711
19.377172
19.715027
20.005587
20.250116
20.450582
20.609436
20.729435
20.813491
20.864563
20.885567
20.879542
20.849158
20.796398
20.724045
20.634298
20.52918
20.41054
20.280063
20.139282
19.989585
19.832227
19.668339
19.498936
19.324934
19.147151
18.966324
18.783111
18.598101
18.411819
18.224734
18.037264
17.849784
11.077062
11.260505
11.478495
11.736584
12.039207
12.388839
12.785426
13.226125
13.7054
14.215423
14.746698
15.288807
15.831168
16.363701
16.87736
17.364486
17.818982
18.236349
18.613615
18.949172
19.242574
19.494317
19.705629
19.878276
20.014396
20.116359
20.186655
20.227815
20.242355
20.232887
20.201542
20.150232
20.081292
19.996633
19.89802
19.787076
19.665286
19.534008
19.394476
19.247809
19.095022
18.937034
18.77467
18.608677
18.439726
18.26842
18.095303
17.92086
17.745526
17.569696
11.063908
11.219127
11.40585
11.628536
11.890862
12.195048
12.541365
12.927873
13.350408
13.802824
14.277429
14.765547
15.258118
15.746269
16.221792
16.677491
17.107399
17.50686
17.872518
18.202229
18.49492
18.750425
18.969306
19.152698
19.30215
19.419504
19.506788
19.566126
19.599679
19.60958
19.598127
19.566997
19.517994
19.453086
19.373935
19.282083
19.178954
19.065861
18.944004
18.814482
18.678296
18.536356
18.38949
18.238449
18.08391
17.926487
17.766734
17.60515
17.442185
17.278249
11.05133
11.179646
11.336809
11.526365
11.751326
12.013632
12.313733
12.650339
13.020357
13.419011
13.840142
14.27661
14.720766
15.164913
15.601725
16.024577
16.427767
16.806643
17.157632
17.478208
17.766805
18.022701
18.245885
18.436917
18.596806
18.726893
18.82875
18.904102
18.954754
18.982539
18.989276
18.976975
18.94696
18.900899
18.840457
18.76708
18.682118
18.586821
18.482345
18.369754
18.250027
18.124059
17.992668
17.856598
17.716532
17.573086
17.426822
17.278246
17.127819
16.975963
11.039353
11.142127
11.271421
11.430028
11.620387
11.844151
12.101847
12.392646
12.714269
13.063041
13.434076
13.821565
14.219125
14.620175
15.018278
15.407442
15.782339
16.138451
16.472135
16.780625
17.061996
17.315083
17.539391
17.734984
17.90238
18.042456
18.156355
18.245408
18.311074
18.354879
18.378378
18.38312
18.37085
18.342627
18.299961
18.24427
18.176812
18.098765
18.011227
17.915217
17.811679
17.701483
17.585428
17.464251
17.338623
17.20916
17.076424
16.940929
16.80314
16.663486
11.027995
11.106604
11.209695
11.339444
11.497795
11.68613
11.904982
12.153835
12.431026
12.733745
13.058147
13.39955
13.752688
14.112002
14.471918
14.827108
15.172692
15.504386
15.818598
16.112453
16.383788
16.631109
16.853532
17.050702
17.222711
17.370016
17.493361
17.593708
17.672177
17.729992
17.768441
17.788839
17.792502
17.780934
17.754998
17.716036
17.665259
17.603761
17.53257
17.452649
17.364896
17.270147
17.169176
17.062698
16.951372
16.835804
16.716553
16.594127
16.468998
16.341597
11.017268
11.073087
11.15161
11.254498
11.383278
11.539078
11.722394
11.932918
12.169439
12.429819
12.711051
13.009392
13.320538
13.639845
13.962551
14.283988
14.599766
14.905914
15.198982
15.476093
15.73496
15.973865
16.19163
16.387561
16.561391
16.713211
16.843404
16.952593
17.041578
17.11129
17.162755
17.197052
17.21529
17.218583
17.208217
17.184918
17.149846
17.104046
17.048465
16.984002
16.911498
16.831746
16.745484
16.6534
16.556132
16.454271
16.348364
16.238913
16.126385
16.011211
11.007193
11.041558
11.097115
11.175049
11.276542
11.402493
11.553337
11.728895
11.928285
12.149882
12.391345
12.649696
12.921449
13.202761
13.489609
13.777961
14.063929
14.343903
14.614649
14.873372
15.117751
15.345944
15.556567
15.748672
15.921697
16.075425
16.209927
16.325518
16.422705
16.502144
16.564607
16.610943
16.642054
16.658871
16.662334
16.653529
16.633094
16.602
16.561157
16.511384
16.453463
16.388132
16.316085
16.237976
16.154413
16.065967
15.973167
15.876503
15.776431
15.67338
10.997751
11.012047
11.046139
11.100935
11.177279
11.275873
11.397076
11.540783
11.706346
11.892527
12.097506
12.318926
12.553976
12.799503
13.052142
13.308452
13.565039
13.818676
14.066393
14.305542
14.533847
14.749418
14.950753
15.136719
15.306534
15.459729
15.596113
15.715733
15.818832
15.905817
15.977219
16.033669
16.075868
16.104563
16.120532
16.124564
16.117565
16.10012
16.073012
16.037039
15.992909
15.9413
15.882856
15.818188
15.747871
15.672444
15.592414
15.508254
15.420406
15.329288
10.988854
10.984592
10.99866
11.03198
11.085176
11.15872
11.252891
11.367623
11.502427
11.656355
11.827988
12.015463
12.216524
12.428599
12.648898
12.874511
13.102515
13.330067
13.554485
13.773319
13.984393
14.185836
14.376094
14.553925
14.718388
14.868824
15.004827
15.126219
15.233017
15.325402
15.40369
15.468305
15.519757
15.558618
15.585504
15.601059
15.605945
15.600902
15.586491
15.56331
15.532065
15.493367
15.447803
15.395934
15.338293
15.275387
15.207693
15.13566
15.059711
14.980248
10.98058
10.958893
10.954617
10.968049
10.999911
11.050542
11.120087
11.208489
11.315371
11.439994
11.581248
11.737657
11.907413
12.088428
12.278401
12.474893
12.675412
12.877484
13.078728
13.276915
13.470014
13.656222
13.833992
14.00203
14.159297
14.304998
14.438564
14.559636
14.668041
14.763765
14.846932
14.917781
14.976644
15.023926
15.060089
15.085637
15.1011
15.107027
15.104012
15.092613
15.073246
15.046543
15.01303
14.973214
14.927582
14.8766
14.82071
14.760333
14.695869
14.627699
10.972898
10.93504
10.913639
10.908974
10.921218
10.950857
10.99799
11.062496
11.144068
11.242122
11.355779
11.483864
11.624927
11.777275
11.939018
12.108126
12.28249
12.459982
12.638515
12.816093
12.990854
13.161106
13.325348
13.482284
13.630829
13.770101
13.899417
14.018278
14.126359
14.223485
14.309615
14.384824
14.449284
14.503248
14.547033
14.581007
14.605576
14.621174
14.628253
14.627276
14.618815
14.603097
14.580716
14.552116
14.517731
14.477982
14.433273
14.383992
14.330511
14.273187
10.965785
10.912965
10.875755
10.854303
10.848792
10.859262
10.885956
10.928799
10.987463
11.061474
11.150124
11.252473
11.367351
11.493383
11.62902
11.77258
11.922289
12.076332
12.232897
12.390222
12.546628
12.700556
12.850586
12.995457
13.134079
13.265526
13.389044
13.504036
13.61006
13.706813
13.794117
13.871909
13.940221
13.999169
14.048937
14.089768
14.12195
14.145807
14.16169
14.169965
14.171013
14.165323
14.153082
14.134779
14.110797
14.081506
14.047272
14.008444
13.965361
13.918353
10.959217
10.892597
10.840832
10.80397
10.782097
10.775282
10.783443
10.806594
10.844554
10.896846
10.962893
11.041927
11.133001
11.234993
11.346632
11.466526
11.593189
11.725081
11.860646
11.998341
12.136673
12.274229
12.409692
12.541865
12.669682
12.792212
12.908664
13.01838
13.120836
13.215633
13.302485
13.381213
13.451733
13.51404
13.568204
13.614353
13.652666
13.683364
13.7067
13.722955
13.732426
13.735428
13.732315
13.723362
13.708869
13.689191
13.664649
13.635555
13.602211
13.564916
10.953172
10.873858
10.808731
10.75776
10.720953
10.698311
10.68979
10.695219
10.714397
10.747105
10.792762
10.850736
10.920246
11.000373
11.09007
11.188182
11.293466
11.404622
11.520319
11.639219
11.760009
11.881422
12.002258
12.121402
12.237838
12.350655
12.459055
12.562352
12.659969
12.751438
12.836397
12.914574
12.98579
13.049942
13.106997
13.156984
13.199986
13.236128
13.265575
13.288522
13.305187
13.31581
13.32064
13.319934
13.314042
13.303064
13.287375
13.267232
13.242901
13.214648
10.947625
10.856674
10.779314
10.715456
10.665049
10.628038
10.604338
10.59381
10.596223
10.611179
10.638486
10.677486
10.727527
10.787846
10.857576
10.935756
11.021345
11.113245
11.210322
11.311423
11.4154
11.521132
11.627536
11.733593
11.83835
11.940939
12.040576
12.136571
12.228323
12.315324
12.397152
12.473473
12.544032
12.608645
12.667198
12.719634
12.76595
12.80619
12.840437
12.868806
12.891444
12.908518
12.920214
12.92673
12.928279
12.925128
12.917414
12.90539
12.88929
12.869353
10.942551
10.840965
10.752439
10.676844
10.614081
10.564052
10.526639
10.501683
10.488967
10.488213
10.498895
10.520846
10.553359
10.5958
10.647443
10.70748
10.775037
10.849186
10.928961
11.01337
11.101416
11.192112
11.284495
11.377639
11.47067
11.562771
11.653193
11.741259
11.826366
11.907984
11.985661
12.059016
12.127739
12.191588
12.25038
12.303989
12.352342
12.395408
12.433201
12.465767
12.493185
12.515556
12.533006
12.545677
12.553728
12.557328
12.556646
12.551925
12.543229
10.937927
10.826652
10.727967
10.641713
10.567754
10.50596
10.456184
10.418251
10.391939
10.376975
10.373016
10.379592
10.396342
10.422704
10.458028
10.501633
10.552776
10.610671
10.67449
10.743384
10.816488
10.892937
10.971878
11.052482
11.133952
11.215534
11.296523
11.37627
11.454185
11.529736
11.602456
11.671938
11.737837
11.799865
11.857789
11.911431
11.960657
12.005379
12.045548
12.081151
12.112206
12.138758
12.160877
12.17865
12.192185
12.201603
12.207031
12.208614
12.206532
10.933727
10.813656
10.70576
10.609856
10.525783
10.453384
10.39249
10.342909
10.304417
10.276746
10.259582
10.252559
10.25524
10.26711
10.287774
10.316564
10.352845
10.395945
10.445156
10.499745
10.558962
10.622052
10.688263
10.756854
10.827108
10.898334
10.96988
11.041134
11.111528
11.180544
11.247713
11.312619
11.374895
11.434225
11.490341
11.543024
11.592095
11.637419
11.678897
11.716465
11.750089
11.779766
11.805512
11.82737
11.8454
11.859676
11.870289
11.877339
11.880947
10.929926
10.801902
10.685684
10.581075
10.487894
10.405965
10.3351
10.275095
10.225718
10.186708
10.157767
10.138556
10.128697
10.127776
10.13521
10.150703
10.173593
10.203305
10.239229
10.280727
10.327149
10.377833
10.432117
10.489343
10.548867
10.610064
10.672335
10.735108
10.797849
10.860061
10.921286
10.981108
11.039152
11.095088
11.148626
11.199517
11.247552
11.292557
11.334395
11.372961
11.408179
11.440001
11.468403
11.493383
11.51496
11.53317
11.548062
11.559701
11.568171
10.9265
10.791314
10.667608
10.555177
10.453826
10.363362
10.283585
10.214277
10.155203
10.106103
10.066688
10.036641
10.015613
10.003222
9.9990442
10.002603
10.01345
10.031116
10.055029
10.084633
10.119358
10.158623
10.201846
10.248441
10.297832
10.349455
10.402764
10.457232
10.512361
10.567679
10.622748
10.677162
10.730549
10.782573
10.832933
10.881363
10.927631
10.971539
11.01292
11.051636
11.087577
11.120662
11.150828
11.178041
11.20228
11.223547
11.241857
11.257242
11.269751
10.923427
10.781819
10.651406
10.531977
10.423328
10.325253
10.237539
10.159961
10.092277
10.034227
9.9855293
9.945881
9.9149541
9.8923955
9.8778257
9.8708409
9.8710272
9.8778244
9.8909569
9.9098246
9.9339371
9.9627822
9.9958418
10.032597
10.072531
10.115135
10.159914
10.206385
10.254087
10.302579
10.351445
10.400295
10.448767
10.496529
10.543277
10.588737
10.632665
10.674844
10.715087
10.753233
10.789147
10.822718
10.853858
10.882498
10.908591
10.932107
10.953031
10.971365
10.987131
10.920683
10.773347
10.636959
10.511302
10.396165
10.291334
10.196585
10.111686
10.036389
9.9704321
9.9135396
9.8654172
9.8257532
9.794217
9.7704589
9.7541104
9.7447851
9.7420733
9.745518
9.7547412
9.7692986
9.7887137
9.8125225
9.8402612
9.8714667
9.9056807
9.9424523
9.9813419
10.021924
10.063788
10.106546
10.149826
10.193282
10.236589
10.279448
10.321584
10.362746
10.402711
10.441277
10.478267
10.513528
10.546927
10.578354
10.607718
10.634946
10.659982
10.682787
10.703338
10.721629
10.918249
10.765835
10.624154
10.492988
10.372118
10.261324
10.160373
10.069026
9.98703
9.914123
9.8500301
9.7944644
9.7471256
9.7077002
9.67586
9.651263
9.6335527
9.6223585
9.6172979
9.6179809
9.623942
9.6349
9.6503656
9.6699266
9.6931655
9.7196672
9.7490222
9.7808287
9.8146953
9.8502431
9.887108
9.924942
9.9634149
10.002216
10.041053
10.079656
10.117775
10.155183
10.19167
10.227052
10.261161
10.293851
10.324996
10.354485
10.382227
10.408146
10.432183
10.454291
10.474447
10.916103
10.75922
10.612886
10.476881
10.350983
10.234961
10.128579
10.03159
9.9437372
9.8647565
9.7943745
9.7323092
9.6782691
9.6319526
9.5930482
9.561234
9.5361776
9.5175365
9.5049593
9.4980867
9.4965519
9.4999349
9.5079399
9.5201624
9.5362129
9.5557137
9.5782906
9.6035757
9.6312089
9.6608398
9.6921295
9.724752
9.7583957
9.7927643
9.8275779
9.8625735
9.897506
9.9321481
9.9662904
9.999742
10.03233
10.063897
10.094306
10.123435
10.151177
10.177441
10.20215
10.225243
10.246676
10.914229
10.753448
10.603061
10.462845
10.332573
10.21201
10.100911
9.9990245
9.9060904
9.821843
9.7460097
9.6783121
9.618465
9.5661762
9.5211465
9.4830691
9.4516301
9.4265081
9.4073752
9.3938976
9.3857357
9.3825452
9.3839674
9.3896469
9.3992933
9.412524
9.4289948
9.448367
9.4703085
9.4944946
9.5206098
9.5483494
9.57742
9.6075409
9.6384449
9.6698792
9.7016055
9.7334009
9.7650579
9.7963845
9.8272045
9.857357
9.8866964
9.9150919
9.9424271
9.9685998
9.9935209
10.017115
10.039326
10.912611
10.748471
10.594594
10.450756
10.316725
10.192259
10.077107
9.9710144
9.8737174
9.7849493