/*--------------------------------*- C++ -*----------------------------------*\
| =========                 |                                                 |
| \\      /  F ield         | OpenFOAM: The Open Source CFD Toolbox           |
|  \\    /   O peration     | Version:  2312                                  |
|   \\  /    A nd           | Website:  www.openfoam.com                      |
|    \\/     M anipulation  |                                                 |
\*---------------------------------------------------------------------------*/
FoamFile
{
    version     2.0;
    format      ascii;
    arch        "LSB;label=32;scalar=64";
    class       volScalarField;
    location    "0.1";
    object      Ma;
}
// * * * * * * * * * * * * * * * * * * * * * * * * * * * * * * * * * * * * * //

dimensions      [0 0 0 0 0 0 0];

internalField   nonuniform List<scalar> 
3275
(
0.072402949
0.065106623
0.055916717
0.047745125
0.041075288
0.035848918
0.031751487
0.028488448
0.025864933
0.023709812
0.021957004
0.020502165
0.019287812
0.018229873
0.017326416
0.016541166
0.015852239
0.015242155
0.014697673
0.014208383
0.013766008
0.013363798
0.012996213
0.012658713
0.01234749
0.012059345
0.011791568
0.011541844
0.011308186
0.011088881
0.010882437
0.010687557
0.0105031
0.010328064
0.010161563
0.01000281
0.0098511029
0.0097058174
0.009566392
0.0094323224
0.0093031544
0.0091784773
0.0090579194
0.008941143
0.008827841
0.0087177346
0.0086105683
0.0085061097
0.0084041455
0.0083044801
0.0082069344
0.0081113434
0.071687011
0.063343505
0.054067624
0.046336711
0.040092457
0.035175478
0.031286724
0.028159803
0.025627055
0.023533792
0.021823483
0.020398597
0.019205623
0.018164002
0.017272551
0.016496515
0.015814755
0.015210341
0.014670405
0.014184804
0.013745455
0.013345753
0.012980265
0.012644533
0.012334812
0.012047953
0.011781283
0.011532518
0.011299697
0.011081124
0.010875325
0.010681015
0.010497066
0.010322482
0.010156385
0.0099979951
0.0098466162
0.0097016271
0.0095624706
0.0094286457
0.0092997008
0.0091752278
0.009054857
0.0089382527
0.0088251092
0.0087151489
0.008608118
0.0085037848
0.008401937
0.00830238
0.0082049353
0.0081094386
0.069603068
0.059426494
0.050358972
0.043610017
0.038208805
0.033880282
0.030386492
0.027520521
0.025162258
0.02318854
0.021560755
0.020194306
0.019043129
0.018033566
0.017165746
0.016407883
0.015740283
0.015147087
0.014616155
0.014137868
0.013704524
0.013309801
0.01294848
0.012616263
0.01230953
0.012025229
0.011760763
0.011513909
0.011282754
0.011065641
0.010861128
0.010667955
0.010485016
0.010311333
0.010146044
0.0099883789
0.0098376539
0.0096932562
0.0095546362
0.0094212994
0.0092927999
0.0091687341
0.0090487368
0.0089324757
0.0088196485
0.0087099801
0.0086032192
0.0084991363
0.008397521
0.0082981802
0.008200937
0.0081056285
0.064013039
0.052658402
0.044818602
0.039751119
0.035580191
0.032056434
0.029106481
0.026604219
0.024491067
0.02268679
0.021176945
0.01989469
0.018803924
0.017841064
0.017007773
0.01627656
0.015629779
0.015053112
0.014535473
0.014068001
0.013643549
0.01325621
0.012901072
0.012574078
0.012271788
0.011991293
0.011730108
0.0114861
0.011257427
0.01104249
0.010839895
0.010648419
0.010466988
0.010294651
0.010130567
0.0099739854
0.0098242373
0.0096807235
0.0095429054
0.0094102984
0.0092824646
0.009159008
0.0090395692
0.0089238215
0.0088114673
0.0087022355
0.0085958786
0.0084921702
0.0083909026
0.0082918855
0.0081949438
0.0080999168
0.049800436
0.042011808
0.037783254
0.035089222
0.032391271
0.029861143
0.027528539
0.025456991
0.023641977
0.022046431
0.020683564
0.019507487
0.018493201
0.01759011
0.016801223
0.016104433
0.015484647
0.014929477
0.014429171
0.013975835
0.013563028
0.013185374
0.012838361
0.012518236
0.012221796
0.011946318
0.011689463
0.011449213
0.01122382
0.011011761
0.010811702
0.010622472
0.010443038
0.010272484
0.010109997
0.0099548515
0.009806399
0.0096640575
0.0095273035
0.0093956649
0.009268715
0.009146067
0.0090273698
0.0089123039
0.008800578
0.0086919264
0.0085861063
0.0084828955
0.0083820901
0.008283503
0.0081869622
0.0080923094
0.02133562
0.029614259
0.030548177
0.030394264
0.029114257
0.027529001
0.025852144
0.02420985
0.022705362
0.021332314
0.02012834
0.019068875
0.018138932
0.017302675
0.016563766
0.015905935
0.015316846
0.014786219
0.014305771
0.013868676
0.013469282
0.013102807
0.01276519
0.012453021
0.012163369
0.011893718
0.011641898
0.011406023
0.011184452
0.010975748
0.010778648
0.010592041
0.01041494
0.010246469
0.01008585
0.0099323848
0.0097854486
0.0096444797
0.009508972
0.0093784681
0.009252554
0.009130854
0.0090130265
0.0088987604
0.0087877715
0.0086798006
0.0085746105
0.0084719838
0.0083717211
0.008273639
0.008177569
0.0080833557
0.0094352963
0.020741009
0.024373507
0.026034877
0.02597587
0.025224781
0.024144576
0.02293027
0.021725034
0.02057685
0.019535557
0.018597475
0.017755674
0.016990186
0.01630462
0.015688598
0.01513262
0.014628577
0.014169715
0.013750329
0.013365599
0.013011375
0.012684075
0.012380659
0.012098483
0.01183526
0.011589
0.011357962
0.01114062
0.010935632
0.010741814
0.010558115
0.010383604
0.010217448
0.010058904
0.0099073071
0.0097620576
0.0096226163
0.009488496
0.0093592559
0.0092344959
0.0091138524
0.0089969946
0.0088836203
0.0087734537
0.0086662425
0.0085617556
0.0084597811
0.0083601244
0.0082626065
0.0081670625
0.0080733407
0.005520723
0.01482677
0.01924945
0.02198365
0.022876817
0.022866862
0.022339696
0.021552591
0.020655744
0.019738966
0.018870903
0.018065042
0.017319685
0.016632412
0.016006637
0.015437716
0.014919273
0.014445521
0.014011362
0.013612316
0.013244481
0.012904411
0.012589058
0.012295799
0.012022315
0.011766579
0.011526803
0.011301413
0.011089015
0.010888376
0.010698401
0.010518112
0.010346639
0.0101832
0.010027095
0.0098776933
0.0097344274
0.0095967835
0.0094642966
0.0093365447
0.0092131444
0.0090937463
0.0089780317
0.0088657094
0.008756513
0.0086501983
0.0085465416
0.0084453373
0.0083463965
0.0082495452
0.008154623
0.0080614821
0.0044166157
0.010947839
0.015171772
0.018382313
0.019936699
0.020530603
0.020500175
0.020105668
0.019517821
0.018833678
0.018142154
0.017476714
0.016834967
0.016231034
0.015670736
0.015153651
0.014676808
0.014236829
0.013830352
0.013454197
0.013105447
0.012781415
0.012479638
0.012197948
0.011934388
0.011687213
0.011454866
0.011235955
0.011029237
0.010833601
0.010648051
0.010471693
0.010303724
0.010143422
0.0099901342
0.0098432715
0.0097023004
0.009566737
0.0094361417
0.0093101144
0.0091882903
0.0090703364
0.0089559482
0.0088448469
0.0087367768
0.0086315034
0.0085288111
0.008428502
0.0083303933
0.0082343171
0.0081401182
0.0080476531
0.0039608528
0.0083897903
0.012025137
0.015291192
0.017240179
0.018285102
0.018671787
0.01863029
0.0183287
0.017877901
0.01736163
0.01683666
0.016305903
0.01578863
0.015298412
0.014837253
0.0144056
0.014002568
0.013626551
0.013275708
0.01294815
0.012641993
0.012355395
0.012086677
0.011834269
0.011596739
0.011372776
0.011161191
0.010960905
0.010770941
0.010590414
0.010418523
0.010254542
0.010097812
0.0099477356
0.0098037686
0.0096654169
0.0095322298
0.0094037963
0.0092797409
0.0091597201
0.0090434192
0.0089305499
0.0088208473
0.0087140681
0.0086099883
0.0085084022
0.0084091198
0.0083119662
0.0082167797
0.0081234111
0.0080317222
0.0037243624
0.0067205515
0.0096587011
0.012713637
0.014835212
0.016183161
0.01689664
0.017158486
0.017115948
0.016882846
0.016541867
0.016152938
0.01573678
0.015309455
0.014891749
0.014489862
0.014106424
0.013743118
0.013400071
0.013076777
0.012772397
0.01248587
0.012216004
0.011961629
0.011721589
0.01149478
0.011280158
0.011076751
0.010883657
0.010700046
0.010525154
0.010358281
0.010198783
0.010046074
0.0098996149
0.0097589131
0.0096235173
0.0094930139
0.0093670235
0.009245198
0.0091272175
0.009012788
0.0089016391
0.0087935214
0.0086882055
0.0085854795
0.0084851482
0.0083870312
0.0082909617
0.0081967857
0.0081043604
0.0080135535
0.0035964848
0.0056437996
0.0079183576
0.010616165
0.012741017
0.014259948
0.01521062
0.015717995
0.01590265
0.015865949
0.015692249
0.015437493
0.01513151
0.014797915
0.014453606
0.014113257
0.013780453
0.013459186
0.013151285
0.012857546
0.012578166
0.012312911
0.01206125
0.011822539
0.011596048
0.011381017
0.011176683
0.010982302
0.010797163
0.010620592
0.010451953
0.010290655
0.010136147
0.0099879173
0.0098454931
0.0097084368
0.0095763442
0.0094488422
0.0093255862
0.0092062583
0.0090905646
0.0089782338
0.0088690151
0.0087626768
0.0086590045
0.0085577997
0.0084588791
0.0083620726
0.0082672228
0.0081741839
0.0080828205
0.0079930068
0.0035179823
0.0049486033
0.006662162
0.0089449026
0.010955053
0.012535397
0.013639676
0.014334398
0.01470793
0.014845838
0.014823549
0.014697821
0.014499384
0.01425649
0.013988178
0.013709628
0.013429248
0.013151815
0.012880845
0.012618381
0.012365618
0.012123129
0.011891042
0.01166924
0.011457428
0.011255197
0.011062074
0.010877556
0.010701128
0.010532279
0.010370514
0.010215355
0.010066348
0.0099230639
0.0097851
0.0096520779
0.0095236445
0.0093994705
0.0092792491
0.009162695
0.0090495429
0.0089395462
0.0088324758
0.0087281189
0.0086262777
0.0085267687
0.0084294212
0.0083340769
0.0082405885
0.0081488193
0.008058642
0.0079699382
0.0034617457
0.0044944092
0.0057690092
0.0076376281
0.0094597289
0.011016524
0.012201033
0.013027351
0.013550324
0.013836401
0.013949624
0.013941782
0.013846812
0.013691301
0.013498383
0.013282415
0.013054724
0.012822381
0.012589686
0.012359885
0.012135111
0.011916699
0.011705421
0.011501676
0.011305601
0.011117142
0.01093612
0.010762275
0.010595296
0.010434846
0.010280569
0.010132111
0.0099891186
0.0098512505
0.0097181771
0.009589584
0.0094651723
0.0093446599
0.0092277804
0.0091142839
0.0090039356
0.0088965157
0.0087918187
0.0086896521
0.0085898365
0.0084922041
0.0083965987
0.0083028744
0.008210895
0.0081205337
0.0080316723
0.0079442002
0.0034179023
0.0041920553
0.0051408435
0.0066317839
0.0082282784
0.009700251
0.010904017
0.011811099
0.012444908
0.012851256
0.013081354
0.013179881
0.01317987
0.01310868
0.012987782
0.01283446
0.012659528
0.01247254
0.012279018
0.012082902
0.011887206
0.01169397
0.011504575
0.011319914
0.011140544
0.01096676
0.010798677
0.01063628
0.010479466
0.01032807
0.010181886
0.010040684
0.0099042162
0.0097722328
0.0096444817
0.009520715
0.0094006917
0.0092841792
0.0091709544
0.0090608049
0.0089535286
0.0088489345
0.008746842
0.008647081
0.0085494914
0.0084539228
0.0083602342
0.0082682932
0.0081779759
0.0080891662
0.0080017555
0.0079156419
0.0033826091
0.0039857948
0.0047011922
0.0058689858
0.007229313
0.0085762232
0.0097512658
0.010694867
0.011403277
0.011902223
0.012229105
0.012420708
0.01250675
0.012513244
0.012461816
0.012368413
0.012246374
0.012104443
0.011950297
0.011788511
0.01162267
0.01145547
0.011288844
0.011124149
0.010962341
0.010804053
0.010649683
0.01049946
0.010353488
0.010211778
0.010074272
0.0099408664
0.009811425
0.00968579
0.0095637901
0.0094452471
0.0093299798
0.009217808
0.009108554
0.0090020448
0.0088981133
0.0087965986
0.008697347
0.0086002119
0.008505054
0.0084117416
0.0083201497
0.0082301608
0.0081416638
0.0080545542
0.007968734
0.0078841105
0.0033538137
0.0038408463
0.0043925248
0.0052972474
0.0064300053
0.0076292726
0.0087400968
0.0096833944
0.010433773
0.010998805
0.011402309
0.011672317
0.011834344
0.011911525
0.0119243
0.01188881
0.011817342
0.011720576
0.011605331
0.011478006
0.01134248
0.011201909
0.011058727
0.010914716
0.010771199
0.010629123
0.010489162
0.010351779
0.01021728
0.010085849
0.0099575784
0.0098324915
0.0097105627
0.0095917293
0.0094759027
0.009362976
0.0092528304
0.0091453395
0.0090403732
0.0089377998
0.0088374883
0.00873931
0.0086431392
0.0085488544
0.0084563383
0.0083654786
0.008276168
0.0081883042
0.0081017902
0.008016534
0.0079324485
0.0078494509
0.0033300989
0.0037355007
0.0041731497
0.004871985
0.0057981794
0.0068414017
0.0078638344
0.0087775996
0.009541684
0.010148329
0.010608802
0.010942289
0.011169099
0.011309158
0.011380605
0.011398805
0.011376263
0.011322652
0.011246366
0.011152951
0.011047798
0.010934178
0.010814886
0.01069209
0.010567445
0.010442185
0.010317235
0.010193282
0.010070828
0.0099502253
0.0098317111
0.0097154364
0.0096014852
0.0094898908
0.0093806477
0.0092737217
0.0091690574
0.0090665842
0.0089662205
0.0088678776
0.0087714621
0.0086768786
0.0085840309
0.0084928233
0.008403162
0.0083149552
0.0082281138
0.0081425522
0.0080581878
0.0079749418
0.0078927391
0.0078115074
0.0033103938
0.0036561735
0.0040138985
0.004556354
0.005303678
0.0061932904
0.007112994
0.0079753041
0.0087295633
0.0093560022
0.009854928
0.010237102
0.010517236
0.010711439
0.010835407
0.010902879
0.010925802
0.010913946
0.010874871
0.010815361
0.010740011
0.010653336
0.010558144
0.010456895
0.01035154
0.010243562
0.010134119
0.010024102
0.009914196
0.0098049135
0.0096966332
0.0095896288
0.0094840925
0.0093801523
0.0092778859
0.0091773318
0.0090784989
0.008981373
0.008885922
0.0087921012
0.008699856
0.0086091251
0.0085198428
0.0084319407
0.0083453489
0.0082599971
0.0081758156
0.0080927358
0.0080106907
0.0079296152
0.0078494467
0.007770124
0.0032938668
0.0035943276
0.0038949766
0.0043210419
0.0049192762
0.0056654211
0.0064762776
0.0072719302
0.0079976178
0.0086250523
0.0091455303
0.0095622002
0.0098841956
0.01012357
0.010293147
0.01040497
0.010469753
0.010496759
0.01049367
0.010466543
0.010420919
0.010360637
0.010289473
0.010209897
0.010124073
0.010033701
0.0099401398
0.0098444649
0.0097475291
0.0096499943
0.0095523718
0.0094550523
0.009358333
0.0092624343
0.0091675151
0.0090736864
0.0089810209
0.008889561
0.0087993247
0.0087103116
0.0086225064
0.0085358832
0.0084504073
0.0083660381
0.0082827306
0.0082004369
0.0081191072
0.0080386907
0.0079591365
0.0078803942
0.0078024139
0.0032798581
0.0035445331
0.0038032343
0.0041436061
0.0046212717
0.0052389269
0.0059413835
0.0066611373
0.0073441176
0.0079569377
0.0084840107
0.0089219654
0.0092746945
0.0095501885
0.0097582469
0.0099088788
0.010011475
0.010074359
0.010104791
0.010108942
0.010091732
0.010057679
0.010010033
0.0099519971
0.0098857664
0.0098131671
0.0097357307
0.0096546944
0.0095710608
0.0094856259
0.0093990227
0.0093117518
0.0092242095
0.0091367047
0.0090494753
0.0089627024
0.0088765218
0.0087910317
0.0087063002
0.008622371
0.0085392688
0.0084570027
0.0083755701
0.0082949587
0.0082151489
0.0081361155
0.0080578294
0.0079802582
0.0079033678
0.0078271226
0.0077514864
0.0032678494
0.0035032856
0.0037300614
0.0040074571
0.0043897794
0.004896237
0.0054956638
0.006135378
0.0067657969
0.0073515864
0.0078724377
0.0083197287
0.0086926781
0.0089954153
0.0092347241
0.0094183982
0.0095542632
0.0096496419
0.0097110944
0.0097443899
0.0097545698
0.0097456081
0.0097212501
0.009684289
0.0096374652
0.0095826439
0.0095214359
0.0094552157
0.0093851157
0.0093120485
0.0092367558
0.0091598378
0.009081783
0.0090029838
0.0089237524
0.0088443374
0.0087649359
0.0086857004
0.0086067481
0.0085281666
0.0084500198
0.0083723526
0.008295194
0.0082185604
0.0081424579
0.0080668847
0.0079918325
0.0079172879
0.0078432338
0.00776965
0.0076965143
0.0032574398
0.0034682922
0.0036698412
0.003900676
0.0042087594
0.0046215813
0.0051266666
0.0056863765
0.0062582279
0.0068076513
0.0073116858
0.0077578142
0.0081413186
0.0084628279
0.0087262223
0.0089370361
0.0091014214
0.0092255179
0.0093151025
0.0093754204
0.0094111171
0.0094262197
0.0094242793
0.0094080291
0.0093802162
0.009342925
0.0092979085
0.0092465562
0.0091901129
0.0091295883
0.0090658183
0.0089994908
0.0089311779
0.0088613483
0.0087903832
0.0087185947
0.0086462381
0.0085735185
0.0085006002
0.0084276137
0.0083546617
0.0082818239
0.008209161
0.0081367181
0.008064527
0.0079926094
0.0079209781
0.0078496389
0.007778592
0.0077078331
0.0076373542
0.0032483239
0.0034380306
0.0036189055
0.0038148538
0.0040656777
0.0044013703
0.0048226453
0.0053055722
0.0058161693
0.0063227638
0.0068016105
0.0072376404
0.0076230462
0.0079554223
0.0082359701
0.0084680303
0.0086560485
0.008804892
0.0089194235
0.0090042557
0.0090636413
0.009101249
0.009120536
0.0091243499
0.0091151066
0.0090950293
0.0090658992
0.0090293442
0.0089865679
0.0089386598
0.0088865381
0.0088309651
0.0087725854
0.0087119357
0.0086494594
0.0085855266
0.0085204476
0.008454477
0.0083878237
0.0083206596
0.0082531247
0.0081853329
0.0081173758
0.0080493267
0.0079812433
0.0079131702
0.0078451416
0.0077771826
0.0077093109
0.007641538
0.0032402706
0.0034114728
0.0035748479
0.0037441345
0.0039509598
0.0042242211
0.0045729408
0.0049845778
0.0054339661
0.0058938302
0.0063412374
0.0067598324
0.007139588
0.0074756159
0.0077667571
0.0080143076
0.008221044
0.0083905277
0.0085266353
0.0086332564
0.0087141101
0.0087726037
0.0088117941
0.0088345307
0.0088432386
0.0088398559
0.0088264378
0.0088043005
0.0087750895
0.0087397669
0.0086993258
0.0086545909
0.0086062664
0.0085549474
0.0085011306
0.0084452385
0.0083876318
0.0083286105
0.0082684254
0.0082072871
0.0081453713
0.0080828246
0.0080197687
0.0079563044
0.0078925143
0.0078284661
0.007764215
0.007699805
0.0076352715
0.007570642
0.0032331046
0.0033879106
0.0035360755
0.0036844759
0.0038574298
0.0040808061
0.004368078
0.0047153792
0.0051057876
0.0055172568
0.0059289301
0.0063243103
0.0066920118
0.0070252612
0.0073209196
0.0075784538
0.0077990682
0.0079850372
0.0081392206
0.0082647273
0.0083646883
0.0084420947
0.0084997407
0.008540211
0.008565816
0.0085785881
0.0085802298
0.0085723863
0.0085563807
0.0085334982
0.0085046736
0.0084707765
0.008432555
0.0083906517
0.0083456085
0.0082978922
0.0082479092
0.0081960005
0.0081424545
0.0080875176
0.0080313988
0.0079742758
0.0079162988
0.0078575948
0.0077982709
0.007738417
0.0076781087
0.0076174089
0.0075563703
0.0074950364
0.003226692
0.0033668436
0.00350152
0.003633102
0.003779794
0.0039636418
0.0041998058
0.0044904535
0.0048257372
0.0051890472
0.0055624763
0.0059303604
0.0062807714
0.0066056618
0.0069003341
0.0071626906
0.0073925107
0.0075908456
0.0077595468
0.0079009167
0.0080174574
0.0081116907
0.0081860656
0.0082429054
0.0082843545
0.00831228
0.0083284272
0.0083343498
0.0083313047
0.0083205791
0.0083031492
0.0082800081
0.0082518599
0.0082193859
0.0081831683
0.0081437084
0.0081014532
0.0080567789
0.0080100064
0.0079614148
0.0079112432
0.0078596983
0.0078069568
0.0077531708
0.0076984703
0.0076429666
0.0075867549
0.0075299167
0.0074725213
0.0074146279
0.0032209285
0.003347907
0.0034704506
0.0035881078
0.0037141942
0.0038668417
0.0040610973
0.0043028936
0.0045879927
0.0049049176
0.0052391792
0.0055767022
0.0059057484
0.0062175916
0.0065064163
0.0067688598
0.0070034638
0.0072101591
0.0073898325
0.0075439845
0.0076744694
0.0077833034
0.0078725454
0.0079442169
0.0080002295
0.0080423575
0.0080721553
0.0080911376
0.008100633
0.0081017127
0.0080955185
0.0080828478
0.008064664
0.0080415565
0.0080141511
0.0079829695
0.0079484941
0.0079111304
0.0078712253
0.0078290872
0.0077849817
0.0077391419
0.0076917688
0.0076430373
0.0075930989
0.0075420852
0.0074901102
0.0074372727
0.0073836583
0.0073293415
0.0032157314
0.0033308255
0.0034423532
0.0035481808
0.0036578432
0.0037858533
0.0039460997
0.0041465071
0.0043869499
0.0046604237
0.0049559547
0.0052615578
0.0055662961
0.0058613164
0.0061401244
0.0063984127
0.0066337018
0.0068449376
0.0070321165
0.0071959685
0.0073377033
0.0074588136
0.0075609397
0.0076457707
0.0077149629
0.0077700984
0.007812626
0.0078439364
0.0078652611
0.0078777326
0.007882376
0.0078800117
0.0078715459
0.0078576324
0.0078389632
0.0078160217
0.0077893212
0.007759295
0.0077263066
0.0076906912
0.0076527358
0.0076126974
0.007570798
0.0075272335
0.007482175
0.0074357727
0.0073881579
0.007339446
0.0072897381
0.007239123
0.0032110332
0.0033153832
0.0034168534
0.0035124077
0.0036087355
0.0037172046
0.0038500353
0.0040158738
0.0042173539
0.0044510957
0.0047094357
0.0049827275
0.0052612882
0.0055366206
0.0058019679
0.0060524042
0.0062846653
0.0064968717
0.0066882299
0.0068587552
0.0070090361
0.0071400425
0.0072529824
0.0073491921
0.0074300492
0.0074969179
0.0075510987
0.0075938398
0.0076263053
0.0076495365
0.007664504
0.007672116
0.0076731058
0.0076682372
0.0076580757
0.0076432753
0.0076242835
0.0076015703
0.007575499
0.0075464331
0.0075146734
0.0074804988
0.0074441484
0.0074058366
0.0073657517
0.0073240608
0.0072809111
0.0072364331
0.0071907424
0.0071439412
0.003206778
0.0033014044
0.0033936661
0.0034801412
0.0035654286
0.0036582743
0.0037690727
0.0039063543
0.004074402
0.0042725696
0.0044960886
0.0047376732
0.0049891765
0.0052428405
0.0054920223
0.0057314934
0.0059574494
0.0061673632
0.0063597719
0.0065340527
0.0066902155
0.0068287249
0.0069503576
0.0070560887
0.0071470011
0.0072242219
0.0072888726
0.0073420511
0.0073848059
0.0074181018
0.0074428593
0.0074599046
0.0074700111
0.0074738894
0.0074720644
0.0074652415
0.0074537861
0.0074383115
0.0074191049
0.0073965709
0.007371011
0.0073427259
0.0073119664
0.0072789633
0.0072439192
0.007207016
0.007168415
0.0071282604
0.0070866808
0.007043791
0.0032029183
0.0032887412
0.0033725643
0.0034509111
0.0035268789
0.0036070956
0.0037001828
0.0038140579
0.0039538103
0.0041207024
0.0043123321
0.0045236135
0.0047480556
0.0049789061
0.0052099504
0.0054359485
0.0056527979
0.0058575102
0.0060480893
0.006223367
0.006382834
0.006526483
0.0066546742
0.0067680239
0.0068673135
0.0069534209
0.0070272675
0.0070897881
0.0071418985
0.0071844683
0.0072183351
0.0072442801
0.0072630313
0.0072752332
0.0072814878
0.0072823863
0.0072783587
0.0072699415
0.0072574763
0.0072414156
0.0072220151
0.0071996062
0.0071744434
0.0071467727
0.0071168073
0.0070847419
0.0070507497
0.0070149868
0.0069775933
0.0069386952
0.0031994129
0.0032772657
0.0033533587
0.0034243632
0.0034923232
0.003562196
0.003640997
0.0037357784
0.0038518422
0.0039916622
0.0041546469
0.0043376254
0.0045357388
0.004743392
0.0049550318
0.0051656601
0.0053711029
0.0055680978
0.0057542594
0.0059279803
0.0060883053
0.0062348018
0.006367441
0.0064864935
0.0065924416
0.0066859089
0.0067676059
0.0068382903
0.0068987357
0.0069496991
0.0069919243
0.0070261234
0.0070529645
0.0070730637
0.0070869941
0.0070952853
0.0070984425
0.0070969255
0.0070910822
0.0070813359
0.0070680011
0.0070514162
0.0070318168
0.0070094677
0.0069845872
0.0069573813
0.006928032
0.0068967058
0.0068635524
0.0068287076
0.003196226
0.0032668651
0.0033358855
0.0034002203
0.0034611933
0.0035224708
0.0035896766
0.0036689109
0.0037653028
0.0038819896
0.0040196713
0.0041767428
0.0043498428
0.0045345762
0.0047262022
0.0049201614
0.0051124111
0.0052995925
0.0054790778
0.0056489336
0.0058078425
0.0059550052
0.0060900423
0.006212902
0.0063237784
0.0064230438
0.0065111931
0.0065888008
0.006656487
0.006714887
0.0067646387
0.0068063706
0.0068406848
0.0068681488
0.0068892974
0.0069046356
0.0069146391
0.006919731
0.0069203158
0.0069167646
0.0069093734
0.0068984832
0.00688437
0.0068672971
0.0068474736
0.0068251183
0.006800418
0.0067735481
0.0067446657
0.0067139149
0.0031933262
0.0032574384
0.0033199982
0.0033782553
0.0034330555
0.0034870846
0.0035447992
0.0036113629
0.0036915062
0.0037886287
0.0039042764
0.0040380487
0.0041878744
0.0043505107
0.0045220998
0.0046986582
0.0048764373
0.0050521447
0.0052230508
0.0053870123
0.00554244
0.0056882353
0.0058237161
0.0059485401
0.0060626329
0.0061661253
0.0062592993
0.0063425447
0.0064163228
0.0064811376
0.0065375156
0.0065859904
0.006627089
0.0066613203
0.0066891722
0.0067111109
0.0067275791
0.0067389849
0.0067457125
0.0067481039
0.0067464995
0.0067412032
0.0067324622
0.0067205566
0.0067057239
0.0066881797
0.0066681042
0.0066456833
0.0066210778
0.0065944392
0.0031906853
0.0032488941
0.0033055632
0.0033582748
0.0034075688
0.0034553982
0.0035052635
0.0035614657
0.0036282253
0.0037089304
0.0038056171
0.0039187521
0.0040473138
0.0041890963
0.0043411234
0.0045000654
0.0046625874
0.0048255972
0.0049863938
0.005142737
0.0052928585
0.0054354338
0.005569533
0.005694563
0.005810208
0.005916374
0.0060131393
0.0061007121
0.006179395
0.0062495551
0.0063116026
0.0063659711
0.0064131033
0.0064534413
0.0064874178
0.0065154531
0.0065379511
0.0065552926
0.0065678375
0.0065759189
0.0065798576
0.0065799348
0.0065764341
0.0065696085
0.0065596643
0.0065468373
0.006531328
0.0065133219
0.0064929722
0.0064704399
0.0031882784
0.0032411494
0.0032924572
0.0033401083
0.003384456
0.0034269135
0.0034702131
0.0035178942
0.0035736334
0.0036406351
0.0037211589
0.0038162492
0.0039256899
0.0040481566
0.0041814964
0.0043230555
0.0044699875
0.004619502
0.0047690368
0.0049163599
0.005059615
0.0051973271
0.0053283784
0.0054519706
0.0055675798
0.0056749103
0.0057738516
0.0058644389
0.0059468197
0.0060212244
0.0060879433
0.0061473071
0.00619967
0.006245399
0.0062848652
0.0063184367
0.0063464733
0.0063693213
0.0063873119
0.0064007581
0.0064099588
0.0064151899
0.0064167198
0.0064147815
0.0064096108
0.0064014238
0.0063903919
0.0063767179
0.0063605714
0.006342116
0.0031860833
0.0032341286
0.0032805654
0.0033236012
0.0033634836
0.0034012337
0.0034389755
0.0034795962
0.0035262429
0.0035818403
0.0036486841
0.003728163
0.0038206426
0.0039255084
0.004041333
0.0041661134
0.0042975243
0.0044331448
0.004570637
0.0047078674
0.0048429774
0.0049744152
0.0051009373
0.0052215897
0.0053356786
0.0054427349
0.0055424792
0.0056347874
0.0057196597
0.0057971937
0.0058675606
0.0059309864
0.0059877347
0.0060380935
0.0060823661
0.0061208635
0.0061538967
0.0061817717
0.0062047862
0.0062232267
0.0062373686
0.0062474722
0.0062537868
0.0062565421
0.0062559642
0.0062522484
0.0062455903
0.0062361801
0.006224161
0.0062097097
0.0031840799
0.0032277628
0.0032697802
0.0033086112
0.0033444491
0.0033780345
0.0034110154
0.003445733
0.0034848468
0.0035309595
0.0035862801
0.0036523651
0.0037299701
0.0038190222
0.0039187008
0.0040275942
0.0041438922
0.0042655786
0.0043905993
0.0045169903
0.0046429654
0.004766966
0.0048876835
0.0050040597
0.0051152719
0.0052207102
0.0053199508
0.0054127275
0.0054989058
0.0055784575
0.0056514395
0.0057179742
0.0057782334
0.0058324251
0.0058807817
0.0059235524
0.0059609959
0.0059933734
0.0060209447
0.0060439648
0.0060626822
0.0060773359
0.006088156
0.00609536
0.0060991572
0.00609974
0.0060973003
0.0060920054
0.0060840194
0.0060735112
0.0031822505
0.0032219887
0.0032600016
0.0032950054
0.003327172
0.0033570434
0.0033858994
0.0034156313
0.0034484662
0.0034866782
0.003532317
0.0035869806
0.0036516601
0.0037266724
0.00381168
0.003905781
0.0040076448
0.0041156649
0.0042281046
0.0043432209
0.0044593592
0.0045750156
0.0046888738
0.0047998216
0.0049069505
0.0050095446
0.0051070631
0.0051991192
0.005285459
0.0053659399
0.0054405114
0.0055091967
0.0055720778
0.0056292821
0.0056809707
0.0057273291
0.0057685599
0.0058048766
0.0058364976
0.0058636425
0.0058865293
0.0059053717
0.0059203779
0.0059317483
0.0059396761
0.0059443438
0.0059459281
0.0059445963
0.005940506
0.0059338111
0.0031805791
0.0032167491
0.0032511359
0.0032826594
0.0033114882
0.003338026
0.0033632693
0.0033887445
0.0034163047
0.0034479111
0.0034854175
0.003530379
0.0035839049
0.0036465736
0.0037184124
0.0037989389
0.0038872468
0.0039821192
0.0040821465
0.0041858383
0.0042917143
0.004398375
0.0045045476
0.0046091131
0.0047111191
0.0048097796
0.0049044664
0.0049946963
0.0050801143
0.0051604774
0.0052356376
0.0053055262
0.0053701397
0.0054295267
0.0054837775
0.0055330139
0.0055773815
0.0056170431
0.0056521732
0.0056829532
0.0057095677
0.0057322019
0.0057510391
0.0057662591
0.0057780368
0.0057865408
0.0057919345
0.0057943753
0.0057940132
0.0057909919
0.0031790511
0.003211992
0.0032430961
0.0032714563
0.0032972467
0.0033207754
0.003342823
0.0033646223
0.0033877102
0.003413762
0.0034444243
0.0034811575
0.0035251047
0.0035770029
0.0036371402
0.0037053633
0.0037811245
0.0038635584
0.0039515726
0.0040439403
0.0041393839
0.0042366445
0.0043345335
0.0044319679
0.0045279906
0.0046217805
0.004712653
0.004800053
0.0048835456
0.0049628037
0.0050375943
0.0051077662
0.0051732367
0.0052339804
0.0052900189
0.0053414113
0.0053882467
0.0054306364
0.0054687093
0.0055026063
0.0055324768
0.0055584747
0.0055807562
0.0055994775
0.0056147933
0.0056268551
0.0056358112
0.0056418061
0.0056449797
0.0056454653
0.0031776535
0.0032076697
0.0032358017
0.0032612863
0.0032843067
0.0033051058
0.0033243
0.0033428882
0.0033621434
0.0033834886
0.0034083675
0.0034381178
0.0034738598
0.0035164107
0.003566233
0.0036234192
0.0036877114
0.0037585478
0.0038351272
0.0039164818
0.0040015488
0.0040892335
0.0041784624
0.0042682224
0.0043575871
0.0044457333
0.0045319489
0.0046156335
0.0046962938
0.0047735364
0.0048470585
0.004916637
0.0049821189
0.0050434111
0.0051004708
0.0051532972
0.0052019237
0.0052464116
0.0052868435
0.0053233189
0.00535595
0.0053848583
0.0054101707
0.0054320179
0.005450532
0.0054658453
0.005478089
0.0054873925
0.005493883
0.0054976825
0.0031763746
0.0032037388
0.003229178
0.0032520466
0.0032725369
0.0032908478
0.0033074715
0.0033232214
0.0033391536
0.0033564727
0.0033764338
0.0034002413
0.0034289568
0.0034634218
0.0035042041
0.0035515707
0.0036054876
0.0036656442
0.0037314953
0.0038023145
0.003877252
0.0039553889
0.0040357871
0.0041175289
0.0041997471
0.0042816454
0.0043625121
0.004441726
0.0045187579
0.0045931671
0.004664596
0.0047327634
0.004797456
0.0048585207
0.0049158564
0.0049694065
0.0050191522
0.0050651055
0.0051073043
0.0051458069
0.0051806877
0.0052120342
0.0052399432
0.0052645184
0.0052858677
0.0053041022
0.0053193341
0.0053316762
0.005341241
0.0053481376
0.0031752039
0.0032001601
0.0032231556
0.0032436409
0.0032618144
0.0032778455
0.0032921331
0.0033053445
0.0033183588
0.0033321955
0.0033479399
0.003366664
0.0033893509
0.0034168283
0.0034497175
0.003488401
0.0035330103
0.0035834344
0.0036393439
0.0037002277
0.0037654366
0.003834228
0.0039058091
0.0039793748
0.0040541381
0.0041293539
0.0042043346
0.0042784619
0.0043511912
0.0044220537
0.0044906538
0.0045566654
0.0046198267
0.0046799339
0.0047368351
0.0047904236
0.0048406321
0.0048874269
0.0049308026
0.0049707773
0.0050073888
0.0050406903
0.0050707475
0.0050976362
0.0051214393
0.0051422452
0.0051601457
0.0051752354
0.0051876107
0.0051973664
0.003174132
0.0031968982
0.0032176713
0.0032359791
0.0032520237
0.0032659544
0.0032781
0.0032890136
0.0032994311
0.0033102174
0.0033223091
0.0033366533
0.0033541464
0.0033755784