/*--------------------------------*- C++ -*----------------------------------*\
| =========                 |                                                 |
| \\      /  F ield         | OpenFOAM: The Open Source CFD Toolbox           |
|  \\    /   O peration     | Version:  2312                                  |
|   \\  /    A nd           | Website:  www.openfoam.com                      |
|    \\/     M anipulation  |                                                 |
\*---------------------------------------------------------------------------*/
FoamFile
{
    version     2.0;
    format      ascii;
    arch        "LSB;label=32;scalar=64";
    class       volScalarField;
    location    "0.1";
    object      O2;
}
// * * * * * * * * * * * * * * * * * * * * * * * * * * * * * * * * * * * * * //

dimensions      [0 0 0 0 0 0 0];

internalField   nonuniform List<scalar> 
3275
(
0.0036608507
0.010654749
0.015019284
0.017757374
0.02028177
0.023153576
0.02666838
0.030881074
0.035775686
0.041218538
0.047034983
0.052025308
0.057624183
0.063100762
0.068326963
0.073263203
0.077899498
0.082245208
0.086316452
0.090131312
0.093707875
0.097064117
0.10021752
0.10318408
0.10597857
0.10861454
0.11110441
0.1134595
0.11569015
0.11780577
0.11981497
0.12172557
0.12354474
0.12527903
0.12693443
0.12851642
0.13003005
0.13147995
0.13287038
0.13420529
0.13548829
0.13672275
0.13791179
0.13905828
0.14016496
0.14123437
0.14226877
0.14327034
0.14424115
0.1451831
0.14609798
0.14698749
0.0060646522
0.014088203
0.017794888
0.019942596
0.022080454
0.02466576
0.027972399
0.032009938
0.036761324
0.042076377
0.047775814
0.052682048
0.058190386
0.063589072
0.068749395
0.073629939
0.078219237
0.082525277
0.086562971
0.090349367
0.093901694
0.097237204
0.10037279
0.10332396
0.1061051
0.10872943
0.11120911
0.11355525
0.11577799
0.11788661
0.11988957
0.12179461
0.1236088
0.12533861
0.12698996
0.1285683
0.13007862
0.13152551
0.1329132
0.1342456
0.1355263
0.13675866
0.13794576
0.13909047
0.1401955
0.14126336
0.14229633
0.14329659
0.14426616
0.14520695
0.14612076
0.14700927
0.012960054
0.021825906
0.023773989
0.024533434
0.025803468
0.02775644
0.030593831
0.03427957
0.038736419
0.043790292
0.049253227
0.053990846
0.059316644
0.064560564
0.06958993
0.074359791
0.078855722
0.083082954
0.087053991
0.090783823
0.094287966
0.097582246
0.10068238
0.10360293
0.10635748
0.10895865
0.11141803
0.11374632
0.1159533
0.11804794
0.12003847
0.12193241
0.12373664
0.12545751
0.1271008
0.12867184
0.13017555
0.13161642
0.13299863
0.13432601
0.13560212
0.13683026
0.13801348
0.13915463
0.14025636
0.14132114
0.14235127
0.14334888
0.14431599
0.14525448
0.14616614
0.14705265
0.029912916
0.035955016
0.033692078
0.031839567
0.031609357
0.03250085
0.034566948
0.037699878
0.041694771
0.046346894
0.051451989
0.055937576
0.06098787
0.066002983
0.070838467
0.075444463
0.079802166
0.083912706
0.087785
0.091430989
0.094863662
0.098096744
0.10114423
0.10401926
0.10673428
0.10930096
0.11173012
0.11403182
0.11621531
0.11828912
0.1202611
0.12213846
0.12392785
0.12563536
0.1272666
0.12882675
0.13032057
0.13175245
0.13312645
0.13444634
0.13571559
0.13693742
0.13811484
0.13925063
0.14034741
0.1414076
0.14243347
0.14342712
0.14439055
0.14532561
0.14623406
0.14711757
0.070890866
0.059605723
0.0481867
0.0421923
0.03961815
0.039010022
0.039958298
0.042269886
0.045620211
0.049723386
0.054348141
0.058500648
0.063182393
0.067898613
0.072480366
0.07687193
0.081048742
0.08500652
0.088749458
0.092285512
0.095624385
0.098777067
0.10175531
0.10457042
0.10723337
0.10975458
0.11214387
0.11441046
0.11656291
0.11860918
0.12055663
0.12241207
0.1241818
0.12587162
0.1274869
0.1290326
0.13051331
0.13193327
0.13329639
0.13460633
0.13586645
0.13707991
0.13824961
0.1393783
0.1404685
0.1415226
0.14254281
0.1435312
0.14448973
0.14542023
0.14632442
0.14720394
0.15537162
0.090669945
0.066293644
0.054921695
0.049100118
0.046570665
0.046361763
0.047648121
0.050199093
0.05364379
0.057701679
0.061468429
0.065717753
0.070090809
0.074380828
0.078525891
0.082494711
0.086276728
0.089870683
0.093279966
0.096510533
0.099570259
0.10246834
0.10521402
0.10781655
0.11028494
0.11262789
0.11485362
0.11696993
0.1189841
0.12090294
0.1227328
0.12447957
0.12614872
0.12774535
0.12927416
0.13073954
0.13214553
0.13349592
0.1347942
0.13604364
0.13724728
0.13840795
0.13952829
0.14061077
0.14165773
0.1426713
0.14365353
0.14460632
0.14553146
0.14643064
0.14730549
0.19279086
0.11974904
0.085763702
0.068564444
0.059711324
0.055212526
0.053454677
0.053638104
0.055250541
0.057955968
0.061382322
0.064727432
0.068499909
0.072498156
0.076469959
0.080346223
0.084088127
0.087678215
0.091109278
0.094379758
0.097491566
0.10044922
0.10325917
0.1059284
0.10846431
0.11087443
0.11316617
0.11534673
0.11742304
0.11940166
0.1212888
0.12309027
0.12481156
0.12645778
0.12803368
0.12954371
0.13099203
0.13238249
0.1337187
0.13500401
0.13624155
0.13743425
0.13858484
0.13969588
0.14076977
0.14180875
0.14281493
0.14379028
0.14473666
0.14565582
0.14654942
0.14741904
0.20771476
0.14589642
0.10698097
0.084645875
0.071987369
0.065132205
0.061694355
0.060549416
0.061125676
0.062941316
0.065629652
0.06849217
0.071720353
0.075284421
0.078891271
0.082459281
0.085940703
0.089310165
0.092553662
0.095664023
0.098638582
0.10147806
0.1041858
0.10676623
0.10922468
0.11156691
0.11379894
0.11592677
0.11795634
0.11989337
0.12174338
0.12351161
0.12520303
0.12682231
0.12837388
0.12986186
0.13129013
0.13266233
0.13398185
0.13525189
0.13647542
0.13765523
0.13879395
0.13989403
0.14095778
0.14198736
0.1429848
0.14395203
0.14489085
0.14580296
0.14668996
0.14755342
0.21434201
0.16542089
0.12690469
0.10144719
0.085609848
0.076100275
0.070873897
0.068313342
0.067744462
0.068582589
0.070418598
0.072739445
0.075386317
0.078445621
0.081644028
0.084866392
0.088055226
0.091176361
0.094208263
0.097137575
0.099956595
0.10266187
0.10525329
0.10773249
0.11010246
0.11236705
0.11453068
0.11659803
0.11857391
0.12046314
0.12227042
0.12400035
0.12565732
0.12724554
0.128769
0.1302315
0.13163659
0.13298766
0.13428788
0.13554023
0.13674752
0.1379124
0.13903735
0.14012471
0.14117669
0.14219535
0.14318267
0.14414047
0.1450705
0.14597441
0.14685375
0.14771003
0.21781012
0.17921077
0.14400565
0.11765853
0.099636841
0.087939909
0.080748305
0.076777629
0.075002623
0.074824696
0.075753602
0.0774027
0.079478841
0.081972884
0.084722175
0.087564779
0.090431302
0.0932781
0.096075555
0.098803686
0.10144939
0.10400475
0.10646593
0.10883153
0.111102
0.11327913
0.11536557
0.11736456
0.11927969
0.12111473
0.12287355
0.12455997
0.12617778
0.12773065
0.1292221
0.13065554
0.1320342
0.13336115
0.13463931
0.13587145
0.13706018
0.13820797
0.13931716
0.14038996
0.14142846
0.14243462
0.14341031
0.1443573
0.14527725
0.14617176
0.14704231
0.14789036
0.21992528
0.1889627
0.15794646
0.13238069
0.11332909
0.10001825
0.09119555
0.085697639
0.082788806
0.081550648
0.081580579
0.082457028
0.083947198
0.085865489
0.088113583
0.090547168
0.093065038
0.095613919
0.098155814
0.10066387
0.10311936
0.10550967
0.10782708
0.11006694
0.11222704
0.11430694
0.1163074
0.11823012
0.12007735
0.12185175
0.12355624
0.12519384
0.12676766
0.12828076
0.12973619
0.13113689
0.13248574
0.13378547
0.13503872
0.13624802
0.13741575
0.13854421
0.13963556
0.14069186
0.14171508
0.14270707
0.14366958
0.14460431
0.14551282
0.14639665
0.14725721
0.14809591
0.22138119
0.19601394
0.16908083
0.14521567
0.1261196
0.11186247
0.10177743
0.094975153
0.090903861
0.088672883
0.0877872
0.087898473
0.088721647
0.090096135
0.091803483
0.093801596
0.095948807
0.098179377
0.10044692
0.10271771
0.1049673
0.10717834
0.10933906
0.1114415
0.11348065
0.11545372
0.11735954
0.1191981
0.12097028
0.12267755
0.1243218
0.12590519
0.12743009
0.12889893
0.13031421
0.1316784
0.13299395
0.13426326
0.13548866
0.13667238
0.1378166
0.13892339
0.13999473
0.14103253
0.14203859
0.14301465
0.14396236
0.1448833
0.14577895
0.14665076
0.14750008
0.14832825
0.22247203
0.2012602
0.17795022
0.15615353
0.1376909
0.12310024
0.11218056
0.10438755
0.099193837
0.096027859
0.094294211
0.093637198
0.093799971
0.094584588
0.095784937
0.097310811
0.09907116
0.10096693
0.10294421
0.10496269
0.1069923
0.10901104
0.11100305
0.11295702
0.11486509
0.11672208
0.11852477
0.12027146
0.12196152
0.12359519
0.12517328
0.12669706
0.12816807
0.12958809
0.13095902
0.13228284
0.13356154
0.13479715
0.13599166
0.137147
0.1382651
0.1393478
0.14039689
0.14141408
0.14240105
0.14335937
0.14429057
0.14519612
0.14607742
0.14693582
0.14777259
0.148589
0.22333617
0.20527916
0.18505839
0.16538204
0.14794487
0.13349682
0.12214721
0.11363517
0.10757803
0.10349387
0.10098386
0.099605229
0.099113181
0.099308188
0.10000502
0.10106879
0.10241698
0.1039659
0.10564042
0.10739413
0.10919165
0.11100653
0.11281894
0.11461423
0.11638174
0.11811385
0.11980531
0.12145262
0.12305367
0.12460738
0.12611347
0.12757222
0.12898438
0.130351
0.13167336
0.1329529
0.13419114
0.1353897
0.13655021
0.1376743
0.13876361
0.13981973
0.14084425
0.14183868
0.14280452
0.14374321
0.14465614
0.14554466
0.14641005
0.14725358
0.14807643
0.14887978
0.22404594
0.20844286
0.19081332
0.17315114
0.15692553
0.14294642
0.13150442
0.12254535
0.11583495
0.11102213
0.10774763
0.10571782
0.10460614
0.10423125
0.10441922
0.10503896
0.10597569
0.10716257
0.10852566
0.1100051
0.11156073
0.11316198
0.11478525
0.11641273
0.11803099
0.11963007
0.12120263
0.12274343
0.12424882
0.12571641
0.12714476
0.12853319
0.12988158
0.13119024
0.13245979
0.13369112
0.13488526
0.13604339
0.13716675
0.13825666
0.13931444
0.14034144
0.141339
0.14230845
0.14325109
0.1441682
0.14506104
0.1459308
0.14677868
0.14760582
0.14841332
0.14920229
0.22464325
0.21099429
0.1955289
0.17970628
0.16474778
0.15143818
0.14015955
0.13099516
0.12383678
0.11844974
0.1145559
0.11188336
0.11021636
0.10930445
0.10900191
0.10917676
0.10972365
0.11054509
0.11158755
0.1127865
0.11409304
0.11547291
0.11689911
0.11835089
0.11981223
0.12127086
0.12271748
0.1241451
0.12554854
0.1269241
0.1282692
0.12958214
0.13086193
0.13210813
0.13332068
0.13449989
0.13564628
0.13676057
0.13784362
0.13889637
0.13991985
0.14091514
0.14188332
0.14282551
0.14374282
0.14463635
0.14550721
0.14635646
0.14718517
0.14799435
0.14878503
0.1495582
0.22515476
0.21309563
0.1994418
0.18526369
0.17155095
0.15901904
0.14808324
0.13891097
0.13148986
0.12568184
0.12128576
0.1180836
0.11586904
0.11447831
0.11371254
0.11346168
0.11361918
0.11409718
0.11481422
0.11572719
0.11678021
0.11793319
0.1191562
0.12042583
0.1217237
0.12303541
0.12434977
0.1256581
0.12695376
0.12823175
0.12948833
0.13072083
0.13192736
0.13310671
0.13425815
0.13538138
0.13647641
0.13754347
0.13858301
0.13959563
0.14058203
0.14154297
0.14247931
0.14339193
0.14428174
0.14514965
0.14599661
0.14682353
0.14763135
0.14842097
0.14919331
0.14994925
0.22559868
0.21485794
0.20272953
0.19000492
0.1774743
0.16576503
0.15528926
0.14626045
0.13873372
0.13264656
0.12786529
0.12422415
0.12155277
0.11969113
0.11851195
0.1178596
0.11764555
0.11778106
0.11819371
0.11881583
0.11961214
0.12053512
0.12155077
0.12263339
0.12376254
0.1249219
0.12609852
0.12728215
0.12846475
0.12964006
0.13080323
0.1319506
0.13307942
0.1341877
0.13527405
0.13633753
0.13737763
0.13839412
0.13938702
0.14035653
0.14130304
0.14222701
0.14312903
0.14400974
0.14486984
0.14571006
0.14653115
0.1473339
0.14811908
0.14888749
0.14963991
0.15037714
0.22598797
0.216359
0.20552565
0.19407884
0.18264593
0.17176288
0.16181712
0.15304185
0.14553642
0.13929461
0.13423844
0.13024953
0.12719341
0.12493545
0.12334974
0.12233832
0.12177375
0.12158258
0.12169232
0.12204294
0.12257839
0.12326948
0.12407567
0.12496813
0.12592473
0.12692748
0.12796185
0.12901617
0.13008108
0.13114911
0.13221439
0.1332723
0.13431924
0.13535246
0.13636989
0.13737
0.13835172
0.13931436
0.14025751
0.14118099
0.14208483
0.14296921
0.14383443
0.14468088
0.14550905
0.14631947
0.14711272
0.14788941
0.14865018
0.14939569
0.15012659
0.15084359
0.22633226
0.21765411
0.20793047
0.19760611
0.18717891
0.17709963
0.16771952
0.15927385
0.15188827
0.14559663
0.14036489
0.13611539
0.13274725
0.13015152
0.12822111
0.12685596
0.12597642
0.12547705
0.12529755
0.12537889
0.12567073
0.1261269
0.12672248
0.12742341
0.12820515
0.12904829
0.12993698
0.13085824
0.13180154
0.13275834
0.13372175
0.13468626
0.13564748
0.13660191
0.13754682
0.1384801
0.13940015
0.14030578
0.14119616
0.14207073
0.14292918
0.14377137
0.14459732
0.14540718
0.14620121
0.14697972
0.14774313
0.14849186
0.14922642
0.14994731
0.15065509
0.22663893
0.21878358
0.21001945
0.20068353
0.19117065
0.1818573
0.17305426
0.16498745
0.15779556
0.15153945
0.14621846
0.14178851
0.13817855
0.13530413
0.13307674
0.13140905
0.13021843
0.12944056
0.12898844
0.12881204
0.12886343
0.12909957
0.12948287
0.12999143
0.13059757
0.13127945
0.13202015
0.13280559
0.13362419
0.13446644
0.13532457
0.13619225
0.1370643
0.13793655
0.13880562
0.13966884
0.14052407
0.14136968
0.14220439
0.14302728
0.14383768
0.14463514
0.1454194
0.14619036
0.14694804
0.14769255
0.14842411
0.14914299
0.14984952
0.15054408
0.15122709
0.22691373
0.21977751
0.21184975
0.20338775
0.19470379
0.18611049
0.17787932
0.17022018
0.16327524
0.15712227
0.15178493
0.14724589
0.14345964
0.1403637
0.13788702
0.13595564
0.13449713
0.13344355
0.13274333
0.13232473
0.1321452
0.13216557
0.13234863
0.13266505
0.13309475
0.13361512
0.13420671
0.13485459
0.13554628
0.13627143
0.1370215
0.13778942
0.13856933
0.13935637
0.1401466
0.14093679
0.14172431
0.14250706
0.14328337
0.14405192
0.1448117
0.14556197
0.14630219
0.14703198
0.14775114
0.14845958
0.14915731
0.14984443
0.15052113
0.15118763
0.15184423
0.22716126
0.22065886
0.21346542
0.20577899
0.19784645
0.18992527
0.18225011
0.1750122
0.16835083
0.16235309
0.15705955
0.15247336
0.14856997
0.1453059
0.14262623
0.14047027
0.13877611
0.13748388
0.13653774
0.13589647
0.13550145
0.13531362
0.13530142
0.13543515
0.13569081
0.13604853
0.13649116
0.1370008
0.13756429
0.13817058
0.13881049
0.13947634
0.14016161
0.14086087
0.14156963
0.14228413
0.14300129
0.14371858
0.14443391
0.14514562
0.14585237
0.1465531
0.14724698
0.14793341
0.14861195
0.14928228
0.14994423
0.15059773
0.1512428
0.15187952
0.15250805
0.22738521
0.22144543
0.21490088
0.20790526
0.20065391
0.19335766
0.18621698
0.17940336
0.17304933
0.16724577
0.16204437
0.15746337
0.1534948
0.15011131
0.14727249
0.14493026
0.14303308
0.14152936
0.14036963
0.13950796
0.1389118
0.13853185
0.13832978
0.13828636
0.13837538
0.13857507
0.13886712
0.13923897
0.13967393
0.14016042
0.14068881
0.14125091
0.14183962
0.14244899
0.14307404
0.14371057
0.14435504
0.14500451
0.14565653
0.1463091
0.14696053
0.14760949
0.14825489
0.14889585
0.14953172
0.15016197
0.15078624
0.15140429
0.15201596
0.1526212
0.22758861
0.22215131
0.21618341
0.20980521
0.2031716
0.19645448
0.18982348
0.1834301
0.17739758
0.17181657
0.16674527
0.16221275
0.1582239
0.15476471
0.15180754
0.14931578
0.14724782
0.14556023
0.14421008
0.14315654
0.14236191
0.14180048
0.14142292
0.14120824
0.14113566
0.14118243
0.1413316
0.1415631
0.1418702
0.1422368
0.14265305
0.14311041
0.14360123
0.14411912
0.1446587
0.14521535
0.14578512
0.14636472
0.14695136
0.14754268
0.14813672
0.14873185
0.14932673
0.14992024
0.1505115
0.15109978
0.15168454
0.15226535
0.15284191
0.153414
0.22777396
0.22278776
0.21733492
0.21151033
0.20543721
0.19925535
0.19310713
0.18712465
0.18142035
0.1760817
0.17116993
0.16672136
0.16275062
0.15925454
0.15621638
0.15360976
0.15140225
0.14955825
0.14804132
0.14681585
0.14584838
0.14510966
0.14456164
0.14418997
0.14396278
0.14386208
0.14386997
0.14396952
0.14414782
0.14439482
0.14469909
0.14505148
0.14544371
0.14586908
0.14632191
0.14679719
0.14729066
0.14779867
0.14831811
0.14884634
0.14938113
0.14992056
0.15046305
0.15100727
0.1515521
0.15209663
0.15264013
0.15318199
0.15372177
0.1542591
0.22794336
0.22336393
0.21837317
0.2130465
0.2074823
0.20179409
0.19610062
0.19051583
0.18514057
0.18005719
0.17532717
0.17099126
0.16707114
0.16357224
0.16048689
0.15779766
0.15548039
0.15350682
0.15184675
0.15046969
0.14934611
0.14844803
0.14774554
0.14721622
0.14684475
0.14660501
0.14647535
0.14644577
0.14650138
0.14663054
0.14682212
0.14707015
0.14736373
0.14769607
0.1480614
0.14845433
0.14887027
0.14930533
0.1497561
0.15021968
0.15069359
0.15117567
0.1516641
0.15215733
0.15265406
0.15315317
0.15365377
0.15415508
0.1546565
0.15515751
0.22809855
0.22388736
0.21931275
0.21443517
0.20933345
0.20409978
0.19883273
0.19362961
0.18857961
0.1837587
0.17922664
0.17502619
0.17118391
0.16771173
0.16460945
0.16186725
0.15946828
0.15739099
0.15561106
0.15410296
0.15284111
0.15180044
0.1509558
0.15028567
0.14977022
0.14939785
0.14913967
0.14898479
0.14892065
0.1489357
0.14901964
0.14916193
0.14935737
0.14959673
0.1498744
0.15018445
0.15052208
0.15088321
0.15126418
0.15166187
0.15207355
0.15249686
0.15292977
0.15337053
0.15381764
0.15426982
0.154726
0.15518525
0.15564682
0.15611006
0.22824102
0.22436428
0.22016577
0.21569426
0.21101324
0.2061976
0.20132886
0.19648951
0.19175748
0.18720159
0.18287849
0.17883119
0.17508914
0.17166907
0.16857664
0.16580839
0.16335384
0.16119742
0.15932026
0.15770153
0.15631963
0.1551528
0.15417952
0.15338011
0.15273656
0.15223352
0.15184953
0.15157814
0.15139939
0.1513031
0.15128137
0.15132311
0.15142104
0.15156702
0.15175756
0.15198471
0.1522437
0.15253035
0.15284074
0.15317162
0.15352003
0.15388343
0.15425959
0.1546466
0.15504277
0.15544667
0.15585706
0.15627288
0.15669323
0.15711734
0.22837207
0.22479995
0.22094234
0.21683889
0.21254094
0.20810943
0.20361161
0.19911697
0.1946929
0.19040082
0.1862933
0.18241229
0.17878855
0.17544203
0.17238288
0.1696128
0.1671267
0.16491429
0.1629616
0.16125224
0.15976845
0.15849183
0.15740398
0.15648739
0.15572563
0.15510342
0.15460437
0.15421714
0.15392617
0.15372604
0.15360182
0.15354484
0.15354845
0.1536046
0.15370707
0.15385175
0.15403217
0.15424427
0.15448369
0.15474721
0.15503163
0.15533427
0.15565272
0.15598493
0.15632905
0.15668351
0.15704692
0.15741808
0.15779598
0.1581797
0.22849279
0.22519882
0.22165103
0.21788189
0.2139331
0.20985437
0.20570109
0.20153151
0.1974034
0.19337091
0.18948195
0.18577637
0.18228509
0.17902994
0.17602429
0.17327389
0.17077812
0.16853122
0.16652361
0.16474294
0.16317509
0.16180492
0.16061689
0.15959574
0.15872678
0.15799591
0.15738918
0.15689463
0.15649974
0.15619456
0.15597366
0.15582202
0.15573324
0.15570125
0.15571922
0.15578278
0.15588397
0.15602204
0.15619041
0.15638645
0.15660648
0.15684782
0.15710789
0.15738451
0.1576757
0.15797976
0.15829518
0.15862064
0.15895499
0.15929722
0.22860414
0.22556468
0.22229912
0.21883421
0.21520402
0.21144916
0.20761528
0.20375099
0.19990547
0.19612594
0.19245542
0.18893099
0.18558276
0.18243342
0.17949842
0.17678657
0.17430081
0.17203922
0.16999601
0.16816249
0.1665279
0.16508014
0.16380639
0.16269364
0.16172904
0.1609
0.1601943
0.15960063
0.15910809
0.15870721
0.15838995
0.15814504
0.15796964
0.15785231
0.15778741
0.15777112
0.15779668
0.1578606
0.15795768
0.1580867
0.15824225
0.1584221
0.15862341
0.15884393
0.15908156
0.1593345
0.15960113
0.15988002
0.16016991
0.16046969
0.22870697
0.22590081
0.22289287
0.2197053
0.21636611
0.21290855
0.20937025
0.2057917
0.20221452
0.19867949
0.19522476
0.19188423
0.18868651
0.18565428
0.18280419
0.18014715
0.17768888
0.17543059
0.17336972
0.17150079
0.16981608
0.16830631
0.16696118
0.16576991
0.16472149
0.16380498
0.16300964
0.16232526
0.16174206
0.16125116
0.16084434
0.16051294
0.16025087
0.16004942
0.15990634
0.15981254
0.15976321
0.15975526
0.15978353
0.159845
0.15993604
0.16005468
0.16019712
0.16036133
0.16054505
0.1607464
0.16096365
0.16119531
0.16144002
0.16169656
0.22880202
0.22621005
0.22343767
0.22050335
0.21743018
0.21424554
0.21098044
0.20766857
0.20434497
0.20104464
0.19780099
0.19464459
0.19160204
0.18869536
0.18594168
0.18335324
0.18093776
0.1786989
0.17663681
0.17474874
0.17302969
0.17147292
0.1700705
0.16881371
0.16769342
0.1667003
0.16582507
0.16505868
0.16439241
0.16381809
0.16332799
0.16291457
0.16257128
0.16229132
0.1620698
0.16189975
0.16177944
0.16170113
0.16166142
0.16165769
0.1616857
0.16174275
0.16182637
0.16193446
0.16206414
0.1622137
0.16238125
0.16256524
0.16276424
0.16297695
0.22888994
0.2264949
0.22393825
0.22123548
0.21840575
0.21547165
0.21245881
0.20939521
0.2063103
0.20323389
0.20019501
0.19722082
0.19433569
0.19156046
0.18891213
0.18640364
0.18404407
0.18183891
0.17979046
0.17789829
0.17615972
0.17457029
0.17312419
0.1718147
0.17063444
0.16957566
0.16863049
0.16779108
0.16704977
0.16639918
0.16583226
0.16534226
0.16492289
0.16456812
0.1642727
0.16403114
0.16383949
0.16369197
0.16358751
0.16351972
0.16348561
0.16348317
0.16350895
0.16356061
0.16363635
0.16373425
0.16385198
0.16398813
0.16414111
0.1643096
0.22897132
0.22675754
0.22439872
0.22190794
0.21930116
0.2165971
0.213817
0.2109841
0.20812307
0.2052592
0.20241752
0.19962191
0.19689432
0.19425415
0.19171777
0.18929831
0.18700565
0.18484657
0.18282501
0.18094242
0.17919807
0.17758949
0.17611279
0.17476303
0.1735345
0.17242098
0.17141594
0.17051272
0.1697047
0.16898537
0.16834844
0.16778781
0.16729775
0.16687274
0.16650772
0.1661978
0.1659387
0.16572596
0.16555643
0.16542535
0.16533201
0.165271
0.16523984
0.16523694
0.16525949
0.16530547
0.16537346
0.16546188
0.16556873
0.16569284
0.22904669
0.2269999
0.22482272
0.22252623
0.2201238
0.21763102
0.2150655
0.2124466
0.20979496
0.20713193
0.20447897
0.20185688
0.19928521
0.19678169
0.19436173
0.19203824
0.18982145
0.18771896
0.18573589
0.18387514
0.1821376
0.18052246
0.17902752
0.17764945
0.17638406
0.17522655
0.17417167
0.17321394
0.17234775
0.17156749
0.17086763
0.17024278
0.16968774
0.16919756
0.1687675
0.16839311
0.16807024
0.16779493
0.16756369
0.16737289
0.16721994
0.1671009
0.16701538
0.16695869
0.16692889
0.16692459
0.16694356
0.16698403
0.16704476
0.16712462
0.22911652
0.22722371
0.22521346
0.22309522
0.22088023
0.21858153
0.21621378
0.21379312
0.2113368
0.20886284
0.20638949
0.20393478
0.20151592
0.19914887
0.19684792
0.19462538
0.19249149
0.19045426
0.18851963
0.18669154
0.18497214
0.18336202
0.18186039
0.18046534
0.17917406
0.17798304
0.17688824
0.17588529
0.17496957
0.17413635
0.17338089
0.17269849
0.17208454
0.17153462
0.17104444
0.17060993
0.17022722
0.16989267
0.1696029
0.16935466
0.16914508
0.16897119
0.16883089
0.16872083
0.16864096
0.16858711
0.16855783
0.16855175
0.16856712
0.16860252
0.22918122
0.22743049
0.2255738
0.22361922
0.22157629
0.21945592
0.21727039
0.21503315
0.21275865
0.21046205
0.20815886
0.20586457
0.20359422
0.201362
0.19918092
0.19706255
0.19501677
0.19305174
0.19117384
0.18938774
0.18769653
0.18610189
0.18460421
0.1832028
0.18189605
0.18068162
0.17955657
0.17851756
0.17756093
0.1766828
0.17587922
0.17514615
0.17447963
0.17387572
0.17333065
0.17284072
0.17240243
0.17201242
0.17166753
0.17136477
0.17110135
0.17087462
0.17068221
0.17052166
0.17039127
0.17028821
0.17021268
0.17016087
0.17013138
0.17012357
0.2292412
0.22762162
0.22590628
0.2241021
0.22221718
0.22026073
0.21824302
0.21617534
0.21406978
0.2119391
0.20979644
0.20765504
0.20552795
0.20342767
0.20136591
0.1993533
0.19739922
0.19551166
0.19369719
0.19196093
0.19030663
0.18873677
0.1872527
0.18585472
0.18454227
0.18331401
0.18216803
0.18110191
0.18011287
0.17919787
0.17835368
0.17757697
0.17686437
0.17621249
0.17561801
0.17507768
0.17458836
0.174147
0.17375072
0.17339676
0.17308252
0.17280552
0.17256349
0.17235421
0.17217577
0.17202612
0.17190396
0.17180704
0.1717336
0.17168378
0.2292968
0.22779834
0.22621319
0.2245473
0.22280758
0.22100182
0.21913867
0.2172276
0.21527877
0.21330291
0.21131114
0.20931474
0.20732497
0.20535275
0.2034085
0.20150186
0.19964154
0.19783519
0.19608934
0.19440931
0.19279928
0.19126232
0.18980045
0.18841481
0.18710567
0.18587259
0.18471451
0.18362988
0.18261672
0.18167276
0.18079548
0.17998219
0.17923011
0.17853641
0.17789823
0.17731276
0.17677723
0.17628894
0.17584529
0.17544377
0.17508199
0.17475769
0.17446871
0.17421302
0.17398873
0.17379404
0.17362736
0.17348694
0.17337128
0.17327927
0.22934833
0.22796176
0.22649658
0.22495792
0.22335168
0.22168448
0.21996365
0.21819714
0.21639352
0.21456181
0.21271141
0.21085195
0.20899306
0.20714424
0.20531466
0.20351297
0.20174715
0.20002436
0.1983509
0.19673212
0.1951724
0.19367519
0.19224303
0.19087765
0.18958002
0.18835042
0.18718854
0.18609357
0.18506426
0.18409903
0.18319602
0.18235317
0.18156826
0.18083897
0.18016293
0.17953775
0.17896105
0.17843047
0.17794372
0.17749855
0.17709282
0.17672446
0.17639149
0.17609203
0.17582432
0.17558668
0.17537753
0.17519534
0.17503869
0.17490629
0.22939609
0.22811289
0.22675829
0.22533672
0.22385324
0.22231348
0.22072367
0.21909052
0.21742127
0.21572353
0.21400525
0.2122746
0.21053984
0.20880917
0.20709062
0.20539186
0.20372008
0.20208193
0.20048332
0.19892948
0.19742483
0.19597303
0.19457696
0.19323876
0.19195994
0.19074135
0.18958332
0.18848565
0.18744774
0.18646863
0.18554705
0.18468151
0.18387033
0.1831117
0.1824037
0.18174435
0.18113166
0.18056362
0.18003825
0.17955358
0.17910772
0.1786988
0.17832505
0.17798476
0.1776763
0.17739811
0.17714872
0.17692673
0.17673081
0.17655965
0.22944034
0.22825265
0.22699999
0.22568621
0.22431565
0.22289312
0.22142391
0.21991374
0.2183687
0.21679525
0.21520012
0.21359025
0.2119727
0.21035453
0.20874272
0.20714402
0.20556488
0.20401131
0.20248884
0.20100242
0.19955639
0.19815446
0.19679971
0.19549458
0.19424093
0.19304007
0.1918928
0.19079947
0.18976
0.18877399
0.18784068
0.18695912
0.1861281
0.18534629
0.18461219
0.18392425
0.18328084
0.1826803
0.18212094
0.18160109
0.18111911
0.18067336
0.18026228
0.17988432
0.17953802
0.17922196
0.17893479
0.17867521
0.178442
0.17823391
0.22948132
0.22838187
0.2272232
0.22600865
0.22474197
0.22342727
0.22206907
0.22067222
0.21924191
0.21778362
0.21630304
0.21480608
0.21329877
0.21178718
0.21027735
0.2087752
0.20728643
0.20581646
0.20437034
0.20295271
0.20156771
0.20021901
0.19890974
0.19764251
0.19641943
0.19524212
0.19411176
0.19302912
0.19199456
0.19100813
0.19006955
0.1891783
0.18833364
0.18753464
0.18678023
0.18606924
0.18540038
0.18477233
0.18418371
0.18363313
0.1831192
0.18264052
0.18219573
0.18178348
0.18140246
0.18105142
0.18072913
0.18043442
0.18016616
0.1799232
0.22951927
0.22850131
0.22742928
0.22630609
0.22513496
0.22391944
0.22266338
0.22137093
0.2200465
0.21869473
0.2173205
0.21592882
0.21452485
0.21311379
0.21170087
0.21029124
0.20888992
0.20750175
0.20613129
0.20478282
0.20346024
0.20216705
0.20090637
0.19968086
0.19849278
0.19734395
0.19623583
0.19516948
0.19414564
0.19316472
0.19222683
0.19133185
0.19047942
0.189669
0.18889988
0.18817124
0.18748215
0.18683158
0.18621845
0.18564165
0.18510004
0.18459244
0.18411772
0.18367471
0.18326228
0.18287934
0.18252479
0.1821976
0.18189675
0.18162117
0.22955437
0.22861164
0.22761947
0.22658037
0.22549713
0.22437281
0.2232107
0.22201436
0.22078755
0.21953423
0.21825855
0.2169648
0.21565738
0.21434078
0.21301948
0.21169798
0.21038067
0.20907184
0.20777559
0.20649579
0.20523606
0.20399972
0.20278975
0.20160881
0.20045921
0.19934289
0.19826148
0.19721627
0.19620826
0.19523815
0.19430638
0.19341315
0.19255843
0.19174201
0.19096353
0.19022247
0.18951821
0.18885001
0.18821709
0.18761858
0.18705358
0.18652115
0.18602036
0.18555024
0.18510984
0.18469822
0.18431444
0.1839576
0.18362679
0.18332105
0.22958682
0.22871349
0.22779488
0.22683316
0.22583073
0.22479024
0.22371451
0.22260659
0.2214697
0.22030723
0.21912273
0.21791987
0.21670243
0.21547425
0.21423921
0.2130012
0.21176408
0.21053161
0.20930745
0.20809509
0.20689785
0.2057188
0.20456077
0.20342634
0.20231779
0.20123712
0.20018606
0.19916603
0.19817822
0.19722356
0.19630273
0.19541619
0.1945642
0.19374683
0.19296399
0.19221546
0.19150088
0.1908198
0.19017168
0.18955589
0.18897177
0.18841861
0.18789565
0.18740214
0.18693729
0.18650032
0.18609045
0.18570691
0.18534893
0.18501566
0.22961679
0.22880742
0.22795652
0.22706596
0.2261378
0.22517431
0.22417794
0.2231513
0.22209716
0.22101844
0.21991816
0.21879948
0.21766564
0.21651996
0.21536579
0.21420651
0.21304547
0.21188598
0.2107313
0.20958454
0.20844872
0.20732664
0.20622097
0.20513414
0.20406837
0.20302564
0.20200772
0.20101611
0.20005213
0.19911685
0.19821113
0.19733565
0.19649088
0.19567713
0.19489455
0.19414316
0.19342285
0.19273339
0.19207447
0.19144571
0.19084665
0.19027677
0.18973553
0.18922234
0.18873659
0.18827766
0.18784492
0.18743773
0.18705546
0.22964442
0.22889396
0.22810533
0.22728013
0.22642015
0.22552735
0.22460383
0.22365184
0.22267377
0.22167211
0.22064949
0.21960861
0.21855227
0.21748333
0.21640469
0.21531929
0.21423005
0.21313988
0.21205165
0.21096815
0.20989208
0.20882601
0.20777238
0.20673348
0.20571142
0.20470813
0.20372536
0.20276465
0.20182736
0.20091468
0.20002759
0.1991669
0.19833328
0.19752722
0.19674905
0.19599901
0.19527717
0.19458354
0.193918
0.19328036
0.19267036
0.19208768
0.19153195
0.19100275
0.19049963
0.19002213
0.18956975
0.18914198
0.18873822
0.22966987
0.22897356
0.22824211
0.22747689
0.22667944
0.22585145
0.22499472
0.2241112
0.22320294
0.2222721
0.22132095
0.22035181
0.21936712
0.21836934
0.21736099
0.21634462
0.2153228
0.21429808
0.21327299
0.21225
0.21123154
0.21021994
0.20921743
0.20822612
0.207248
0.20628492
0.20533856
0.20441046
0.20350201
0.20261443
0.20174879
0.20090601
0.20008686
0.19929199
0.19852188
0.19777693
0.19705739
0.19636343
0.19569511
0.19505242
0.19443527
0.19384352
0.19327694
0.19273528
0.19221825
0.19172552
0.19125673
0.19081148
0.19038928
0.22969326
0.22904664
0.2283676
0.22765733
0.22691714
0.22614847
0.22535288
0.22453205
0.22368776
0.22282187
0.22193635
0.22103321
0.22011457
0.21918256
0.21823939
0.21728727
0.21632845
0.21536518
0.21439968
0.21343416
0.21247079
0.21151166
0.2105588
0.20961415
0.20867957
0.20775678
0.20684742
0.20595296
0.20507478
0.20421412
0.20337208
0.20254966
0.2017477
0.20096695
0.20020801
0.19947139
0.1987575
0.19806664
0.19739903
0.1967548
0.196134
0.19553665
0.19496266
0.19441193
0.1938843
0.19337958
0.19289752
0.19243786
0.19200022
0.22971469
0.22911357
0.22848248
0.22782243
0.22713454
0.22642005
0.22568032
0.22491677
0.22413096
0.2233245
0.2224991
0.22165651
0.22079857