/*--------------------------------*- C++ -*----------------------------------*\
| =========                 |                                                 |
| \\      /  F ield         | OpenFOAM: The Open Source CFD Toolbox           |
|  \\    /   O peration     | Version:  2312                                  |
|   \\  /    A nd           | Website:  www.openfoam.com                      |
|    \\/     M anipulation  |                                                 |
\*---------------------------------------------------------------------------*/
FoamFile
{
    version     2.0;
    format      ascii;
    arch        "LSB;label=32;scalar=64";
    class       volScalarField;
    location    "0.1";
    object      omega;
}
// * * * * * * * * * * * * * * * * * * * * * * * * * * * * * * * * * * * * * //

dimensions      [0 0 -1 0 0 0 0];

internalField   nonuniform List<scalar> 
3275
(
460.05643
476.5883
495.23428
516.29622
540.41435
567.78956
597.94219
629.70281
661.64754
692.4199
720.91884
746.62932
769.16157
788.01851
802.96748
813.78819
820.17753
823.10996
823.51216
822.02485
819.10533
815.08697
810.21632
804.68055
798.62358
792.15755
785.37091
778.33416
771.10405
763.7266
756.23949
748.67367
741.0548
733.40419
725.73967
718.07616
710.4262
702.80034
695.20748
687.65512
680.14957
672.69614
665.29928
657.96268
650.68931
643.48162
636.34179
629.27144
622.27183
615.34391
608.48837
601.70569
461.27695
477.77327
496.00777
516.90014
540.97054
568.32312
598.43614
630.12115
661.9693
692.6416
721.05068
746.68236
769.14681
787.95111
802.86014
813.65202
820.02355
822.94304
823.33728
821.8461
818.92581
814.90891
810.04125
804.50951
798.45721
791.99624
785.21486
778.18342
770.95859
763.58633
756.10427
748.54334
740.92918
733.28311
725.62293
717.96358
710.31759
702.69553
695.10631
687.55741
680.05517
672.6049
665.21105
657.87731
650.6067
643.40171
636.26444
629.19655
622.1993
615.27367
608.42033
601.63977
463.64994
479.69124
497.25662
517.95707
542.00476
569.34446
599.38977
630.93036
662.5912
693.06881
721.30255
746.77976
769.1109
787.81155
802.64159
813.37627
819.71208
822.60605
822.98483
821.48637
818.56492
814.55125
809.68984
804.16635
798.12359
791.67288
784.90213
777.88144
770.66726
763.30547
755.83359
748.28252
740.67787
733.04092
725.3895
717.73852
710.10055
702.48615
694.90424
687.36233
679.86677
672.42287
665.03511
657.70719
650.44216
643.24254
636.11042
629.04746
622.05495
615.13386
608.28491
601.50856
466.63177
481.43143
498.50783
519.24272
543.40046
570.78706
600.74606
632.08148
663.4747
693.67272
721.65344
746.90629
769.04295
787.59197
802.30578
812.95575
819.23786
822.0945
822.45122
820.9429
818.02058
814.01242
809.16092
803.65023
797.62207
791.18701
784.4324
777.42796
770.22991
762.88392
755.4274
747.89119
740.30084
732.67764
725.03939
717.40102
709.7751
702.17222
694.60132
687.06993
679.58441
672.15011
664.77152
657.45236
650.19573
643.00417
635.87977
628.82421
621.8388
614.92454
608.08214
601.31209
467.83363
481.74824
499.32602
520.53764
545.05033
572.57326
602.42619
633.50741
664.56706
694.41336
722.07384
747.04042
768.92734
787.2809
801.84373
812.38281
818.59322
821.40182
821.73121
820.21161
817.28968
813.2901
808.45274
802.95982
796.95168
790.53791
783.80514
776.82263
769.64626
762.32148
754.88556
747.36926
739.79807
732.19326
724.57262
716.95111
709.3413
701.75382
694.19762
686.68028
679.20817
671.78669
664.42034
657.1129
649.86748
642.68666
635.57256
628.52687
621.55094
614.64577
607.8121
601.05044
459.70276
480.00289
499.53912
521.71283
546.76391
574.49084
604.24471
635.03975
665.73434
695.19492
722.50152
747.14891
768.75511
786.8876
801.27828
811.68967
817.81562
820.5702
820.87043
819.34029
816.42107
812.43337
807.61404
802.1431
796.15935
789.77124
783.06467
776.10835
768.95779
761.65822
754.24675
746.75403
739.20551
731.62245
724.02264
716.42104
708.83026
701.26095
693.72211
686.22134
678.76506
671.3587
664.0068
656.71318
649.48098
642.31283
635.21086
628.17681
621.21203
614.31757
607.49419
600.74241
456.4778
478.13402
499.55637
522.8397
548.49707
576.43689
606.09804
636.60432
666.91285
695.97014
722.90484
747.21435
768.52087
786.41556
800.61973
810.89143
816.92304
819.62017
819.89127
818.35251
815.43893
811.46659
806.66904
801.22396
795.26844
788.90981
782.23314
775.30658
768.18527
760.9142
753.53031
746.06417
738.54119
730.98259
723.40619
715.82697
708.25756
700.70866
693.1893
685.70713
678.26861
670.87922
663.54353
656.2654
649.04804
641.89409
634.80572
627.78471
620.83244
613.94997
607.13811
600.3974
455.35262
476.62812
499.58363
524.00448
550.31036
578.48087
608.05333
638.25555
668.143
696.75584
723.28157
747.2167
768.18787
785.81318
799.80469
809.91536
815.83584
818.4691
818.71044
817.16572
814.26232
810.31094
805.54133
800.12852
794.20774
787.88501
781.24452
774.35381
767.26763
760.03069
752.67977
745.24536
737.75282
730.22337
722.67484
715.12224
707.57824
700.0536
692.55738
685.0973
677.67988
670.31063
662.99419
655.73446
648.5347
641.3976
634.32538
627.31983
620.38239
613.51416
606.71596
599.98838
455.23144
475.82041
499.79422
525.22677
552.16022
580.5611
610.04206
639.92751
669.37243
697.50809
723.5921
747.12229
767.72749
785.05339
798.80724
808.73568
814.52793
817.0924
817.30526
815.75912
812.87213
808.9488
804.21459
798.84158
792.96299
786.68345
780.08617
773.23809
766.19351
758.99689
751.68485
744.28778
736.83102
729.33579
721.81995
714.29856
706.78434
699.2881
691.81899
684.38477
676.99204
669.64635
662.35243
655.11422
647.93504
640.81764
633.76428
626.77682
619.85671
613.00511
606.22288
599.51063
455.61075
475.74779
500.28895
526.51753
554.00294
582.61042
611.99041
641.54983
670.53953
698.17804
723.79103
746.89105
767.10665
784.10523
797.59724
807.32253
812.96984
815.46265
815.6507
814.1099
811.24754
807.36102
802.67112
797.34673
791.51888
785.29075
778.74458
771.94664
764.95082
757.8013
750.53458
743.18097
735.7658
728.3103
720.83238
713.34716
705.86743
698.40408
690.96633
683.56203
676.19784
668.87941
661.61151
654.39817
647.24278
640.14814
633.11658
626.15
619.24991
612.41752
605.65373
598.95918
456.23586
476.25733
501.07129
527.86118
555.78739
584.55756
613.82163
643.04909
671.57712
698.70797
723.83039
746.47855
766.28608
782.93355
796.13993
805.6413
811.12857
813.54971
813.71945
812.19331
809.366
805.52698
800.89192
795.62632
789.85898
783.69155
777.20529
770.46583
763.52665
756.4317
749.21735
741.91387
734.54658
727.13678
719.70243
712.25874
704.8186
697.39296
689.99116
682.62114
675.28965
668.00242
660.76433
653.57947
646.4513
639.3827
632.37608
625.43339
618.5562
611.74578
605.00307
598.32877
456.96619
477.14676
502.07488
529.21466
557.45474
586.32974
615.4574
644.34933
672.41521
699.03556
723.65668
745.83633
765.22024
781.49827
794.39617
803.6516
808.96762
811.32091
811.48214
809.98278
807.20338
803.42456
798.85664
793.66156
787.96578
781.86948
775.45295
768.78119
761.90732
754.87511
747.72082
740.47471
733.16216
725.80452
718.41986
711.02348
703.6284
696.24568
688.88477
681.55372
674.25939
667.00762
659.80337
652.65085
645.55359
638.51457
631.53625
624.62067
617.76948
610.98398
604.26519
597.61386
457.71604
478.22672
503.19513
530.5133
558.93982
587.85367
616.82023
645.37364
672.98229
699.0947
723.20985
744.91199
763.85946
779.75293
792.32219
801.30534
806.44708
808.74136
808.90759
807.45017
804.73409
801.03036
796.54373
791.43247
785.82072
779.8072
773.47126
766.87737
760.07835
753.1178
746.03195
738.8511
731.60069
724.30221
716.97384
709.63102
702.28689
694.95269
687.63797
680.35093
673.09855
665.8868
658.72074
651.60469
644.54229
637.53661
630.5902
623.70519
616.88329
610.12588
603.43405
596.8086
458.42824
479.3374
504.31163
531.67733
560.17255
589.05636
617.83396
646.04572
673.20472
698.81639
722.4264
743.64684
762.14991
777.64621
789.86798
798.54348
803.52414
805.7745
805.96323
804.56603
801.9313
798.31977
793.93051
788.91804
783.40423
777.48639
771.24305
764.73822
758.02445
751.14529
744.13699
737.02994
729.84971
722.61793
715.35296
708.07041
700.7836
693.50391
686.24108
679.00346
671.79817
664.63131
657.50809
650.43295
643.40964
636.44133
629.53069
622.67993
615.89086
609.16493
602.50331
595.90685
459.05766
480.34622
505.30068
532.61727
561.07887
589.86517
618.42388
646.28995
673.00785
698.12896
721.23934
741.97778
760.032
775.12128
786.97894
795.31832
800.15609
802.38286
802.61561
801.30005
798.76726
795.26725
790.99335
786.09633
780.69583
774.88789
768.75031
762.34673
755.72957
748.94237
742.02149
734.99746
727.89607
720.73914
713.54522
706.33016
699.10748
691.88876
684.68393
677.50151
670.3488
663.23207
656.15666
649.12716
642.14746
635.22085
628.3501
621.53753
614.78505
608.09422
601.46627
594.90213
459.56117
481.13346
506.03806
533.23747
561.58094
590.20697
618.51606
646.03097
672.31614
696.95826
719.57754
739.83723
757.44018
772.11475
783.59544
791.58588
796.30102
798.52882
798.83094
797.62147
795.21361
791.84661
787.70792
782.94461
777.67426
771.99173
765.97424
759.68516
753.17691
746.4931
739.6703
732.73926
725.72603
718.65268
711.53805
704.39823
697.24699
690.09614
682.95584
675.83481
668.74056
661.67954
654.65726
647.67846
640.74719
633.86687
627.04041
620.27024
613.55839
606.90651
600.31593
593.78767
459.88922
481.57809
506.40301
533.4384
561.59695
590.00683
618.03596
645.19275
671.05241
695.22736
717.36547
737.1517
754.30285
768.55563
779.6487
787.29765
791.91708
794.17564
794.57568
793.49952
791.24188
788.03132
784.0494
779.43963
774.31764
768.7773
762.89537
756.73511
750.349
743.7809
737.06763
730.24028
723.3252
716.34482
709.31829
702.26199
695.19
688.1144
681.04562
673.9926
666.96309
659.96373
653.00024
646.07754
639.19984
632.37073
625.59324
618.86996
612.20302
605.5942
599.04494
592.55635
459.98497
481.54393
506.27394
533.11755
561.04041
589.18613
616.90656
643.69693
669.13663
692.85535
714.5224
733.84112
750.54047
764.36425
775.05443
782.40189
786.96373
789.28773
789.81768
788.90408
786.82384
783.79491
779.9928
775.55777
770.60367
765.22349
759.4937
753.47756
747.2278
740.78857
734.19709
727.48486
720.67864
713.80125
706.87221
699.90829
692.92389
685.93142
678.94159
671.96363
665.00554
658.07419
651.17553
644.31468
637.49603
630.72334
623.99982
617.32818
610.71072
604.14934
597.64561
591.20073
459.93117
481.17713
505.5258
532.17153
559.8191
587.66047
615.04596
641.46075
666.48412
689.75581
710.96088
729.81759
746.0644
759.45051
769.70211
776.84778
781.40328
783.83211
784.52638
783.80657
781.93209
779.11139
775.51334
771.27545
766.50987
761.30889
755.74882
749.8931
743.79475
737.49841
731.04178
724.45684
717.77086
711.00711
704.18559
697.32346
690.43552
683.53455
676.63159
669.73619
662.85662
656.00003
649.17262
642.37972
635.62594
628.91522
622.25097
615.63605
609.07292
602.56362
596.10987
589.71307
459.76751
480.54214
504.24405
530.49532
557.83517
585.33712
612.36456
638.39432
663.0032
685.83466
706.58463
724.98337
740.77506
753.7171
763.57302
770.59917
775.20348
777.77945
778.67397
778.18019
776.54093
773.95557
770.58683
766.56937
762.01385
757.01202
751.64016
745.96198
740.03098
733.89233
727.58434
721.13958
714.58588
707.94709
701.24369
694.49333
687.71127
680.91068
674.10298
667.29809
660.50459
653.72993
646.98056
640.2621
633.57935
626.93651
620.33715
613.78433
607.28067
600.82838
594.42934
459.51555
479.68116
502.55829
528.03735
554.98432
582.11146
608.76193
634.39742
658.59235
680.98741
701.2857
719.22822
734.55769
747.03455
756.63924
763.62968
768.33912
771.10504
772.23614
772.00075
770.62649
768.30391
765.19006
761.4169
757.09363
752.3116
747.14716
741.6644
735.91738
729.95195
723.8071
717.51608
711.10738
704.60545
698.03137
691.40334
684.73709
678.04627
671.34272
664.63675
657.93729
651.25212
644.58802
637.95084
631.34568
624.77694
618.24842
611.7634
605.32466
598.93459
592.59518
459.18945
478.62619
500.55335
525.02287
551.17901
577.86672
604.12319
629.35549
653.1368
675.09575
694.94045
712.42658
727.28134
739.41434
748.89133
755.92411
760.79263
763.79003
765.19274
765.24739
764.16736
762.1347
759.30149
755.79643
751.72797
747.18684
742.24956
736.98066
731.43488
725.65881
719.69221
713.5691
707.31869
700.96613
694.53314
688.03852
681.49855
674.92738
668.33735
661.73916
655.14216
648.55449
641.98325
635.43461
628.91393
622.42589
615.97452
609.5633
603.19525
596.87292
590.59846
458.80035
477.40469
498.2905
521.59984
546.70103
572.59405
598.31416
623.13437
646.50485
668.02352
687.4035
704.43399
718.94309
730.88491
740.33581
747.47878
752.55481
755.82177
757.52879
757.90308
757.14519
755.42872
752.90129
749.68805
745.89676
741.61776
736.92765
731.89144
726.56459
720.99451
715.22181
709.28132
703.20304
697.01287
690.73326
684.38364
677.98091
671.53978
665.07308
658.592
652.10631
645.62456
639.15418
632.7017
626.27279
619.8724
613.50481
607.17376
600.88246
594.6337
588.42985
458.35825
476.04211
495.81847
517.8724
541.74605
566.59576
591.50717
615.70369
638.56617
659.64489
678.63689
695.34157
709.63353
721.49134
730.99344
738.30118
743.62524
747.19457
749.2347
749.95546
749.54529
748.16969
745.97177
743.07374
739.58155
735.58562
731.16262
726.37807
721.2881
715.94098
710.3782
704.63546
698.74359
692.72933
686.61585
680.42331
674.16924
667.86897
661.53588
655.18166
648.81655
642.44953
636.08843
629.74013
623.41063
617.10519
610.82837
604.58416
598.37602
592.20698
457.87261
474.56286
493.1791
513.91915
536.45626
560.09262
583.99524
607.38769
629.63196
650.23106
668.85593
685.29909
699.44906
711.29107
720.89735
728.40942
734.01231
737.90996
740.30696
741.39707
741.35718
740.34486
738.49835
735.93747
732.76572
729.07328
724.93698
720.42282
715.58775
710.4807
705.1441
699.61453
693.92371
688.09921
682.16503
676.14204
670.04849
663.90032
657.71152
651.49432
645.25948
639.0164
632.77337
626.53764
620.31556
614.11272
607.934
601.78365
595.66538
589.58243
457.3525
472.99066
490.41022
509.80315
530.93942
553.25051
575.99959
598.44703
619.95251
640.00956
658.24955
674.44851
688.48955
700.35086
710.09122
717.83153
723.73308
727.97701
730.74847
732.22595
732.57505
731.94542
730.4701
728.26604
725.43486
722.06542
718.23484
714.00945
709.4469
704.59698
699.50288
694.20205
688.72711
683.10653
677.36509
671.52447
665.60362
659.61917
653.58571
647.51608
641.42155
635.31201
629.1962
623.08178
616.97549
610.88327
604.8103
598.76115
592.73979
586.74969
456.80661
471.34836
487.54681
505.57751
525.28026
546.19731
567.69126
589.08081
609.74393
629.17473
646.98615
662.92443
676.85673
688.7447
698.62785
706.6047
712.81312
717.41235
720.56883
722.44605
723.19826
722.96699
721.87972
720.04986
717.57724
714.54903
711.0422
707.12331
702.85045
698.27431
693.43881
688.38227
683.13812
677.73572
672.2007
666.5555
660.81981
655.01098
649.14425
643.23305
637.2892
631.32313
625.34403
619.36001
613.37821
607.40493
601.44571
595.50542
589.58832
583.69815
456.24312
469.65773
484.62151
501.28839
519.54762
539.03386
559.20528
579.44998
599.18087
617.8982
635.21758
650.85473
664.65319
676.5522
686.56792
694.77457
701.28619
706.24028
709.7846
712.06756
713.23177
713.41016
712.72418
711.28316
709.18452
706.51399
703.34741
699.75164
695.785
691.49875
686.93752
682.14046
677.1419
671.97196
666.65708
661.22047
655.6826
650.06151
644.37313
638.63149
632.849
627.03661
621.20402
615.35979
609.51148
603.66578
597.8286
592.00514
586.19995
580.41707
455.66964
467.93918
481.66468
496.97667
513.79882
531.84133
550.64991
569.68595
588.40831
606.33545
623.08046
638.36102
651.98169
663.85746
673.97888
682.39454
689.19401
694.49272
698.4195
701.10728
702.68649
703.28091
703.0053
701.96433
700.25229
697.95332
695.14183
691.88424
688.23914
684.25808
679.98623
675.46341
670.72485
665.80141
660.72031
655.50546
650.1781
644.757
639.25874
633.69799
628.08774
622.4395
616.76347
611.06868
605.36314
599.65395
593.94738
588.24898
582.56365
576.8957
455.09306
466.21152
478.70425
492.67886
508.08248
524.68614
542.11312
559.89702
577.54893
594.61505
610.71486
625.55937
638.9446
650.74805
660.93413
669.52518
676.58588
682.20917
686.50453
689.58882
691.57967
692.59099
692.73014
692.09644
690.78046
688.86395
686.42004
683.51394
680.20413
676.54228
672.57398
668.33957
663.87491
659.21158
654.37756
649.39748
644.29328
639.0844
633.7881
628.41967
622.99268
617.51922
612.00998
606.4745
600.92124
595.35771
589.79058
584.22576
578.66847
573.12334
454.51956
464.49177
475.76557
488.42746
502.44023
517.62334
533.66708
550.17302
566.70699
582.84965
598.23438
612.56914
625.64324
637.31413
647.51211
656.23358
663.51833
669.43659
674.07803
677.54287
679.93525
681.35839
681.91151
681.68783
680.77352
679.2473
677.18043
674.63693
671.67426
668.34413
664.69225
660.75937
656.58178
652.19163
647.61755
642.88487
638.01619
633.03164
627.94906
622.78437
617.55173
612.26375
606.93168
601.56553
596.17423
590.7657
585.34703
579.92449
574.50366
569.08948
453.95451
462.79503
472.87133
484.25125
496.90787
510.69885
525.37132
540.58876
555.97132
571.1382
585.74311
599.49766
612.1823
623.64751
633.79542
642.59262
650.05468
656.22919
661.18573
665.00739
667.78411
669.60769
670.56839
670.75255
670.24124
669.10948
667.42598
665.25321
662.64743
659.65958
656.33543
652.71585
648.83738
644.73264
640.43074
635.95759
631.3364
626.58793
621.73062
616.78097
611.75367
606.66189
601.51738
596.33065
591.11108
585.86704
580.606
575.33462
570.05884
564.78393
453.40253
461.13442
470.0414
480.17538
491.51607
503.95109
517.27509
531.20657
545.41743
559.56737
573.33517
586.44209
598.66534
609.84263
619.86985
628.68019
636.26448
642.64811
647.88064
652.02765
655.16434
657.37039
658.72631
659.31083
659.19914
658.46187
657.16457
655.36744
653.12546
650.48829
647.50123
644.20507
640.63643
636.82815
632.80971
628.60751
624.24525
619.74416
615.12327
610.39963
605.58847
600.70347
595.75685
590.75961
585.72158
580.65154
575.55739
570.44616
565.32415
560.19695
452.86746
459.5211
467.29287
476.22148
486.29085
497.41205
509.419
522.07812
535.10926
548.21255
561.09504
573.49263
585.18467
596.00105
605.82286
614.5782
622.22282
628.76104
634.22281
638.65624
642.12137
644.6852
646.4178
647.38952
647.66896
647.32167
646.40936
644.98943
643.11486
640.83408
638.19122
635.22664
631.97682
628.47464
624.74976
620.82889
616.73611
612.49308
608.11928
603.63221
599.04763
594.37969
589.64111
584.84329
579.99651
575.10998
570.19198
565.24992
560.29044
555.3195
452.35242
457.96433
464.64008
472.40771
481.25392
491.10806
501.83624
513.24597
525.10044
537.13875
549.09785
560.73208
571.82777
582.21194
591.75539
600.37163
608.00949
614.64152
620.27902
624.95291
628.70801
631.59821
633.6826
635.02247
635.67914
635.71241
635.17949
634.13437
632.62749
630.70552
628.41133
625.78421
622.86021
619.67204
616.24932
612.6189
608.80509
604.82985
600.71302
596.47251
592.12448
587.6835
583.16271
578.57399
573.92799
569.23433
564.50164
559.73772
554.94955
550.14341
451.85986
456.47151
462.09466
468.74898
476.42299
485.06041
494.55352
504.74465
515.43536
526.40129
537.40955
548.23548
558.67639
568.56097
577.75408
586.15756
593.70795
600.36818
606.12212
610.98421
614.98427
618.16293
620.56787
622.25083
623.26521
623.66441
623.50054
622.82357
621.68085
620.11672
618.17243
615.88601
613.29251
610.42419
607.31046
603.97807
600.45139
596.75253
592.90159
588.91675
584.81453
580.60984
576.3162
571.94583
567.50979
563.01807
558.47966
553.9027
549.29449
544.66164
451.39158
455.04836
459.66575
465.257
471.81202
479.28577
487.59177
496.60153
506.15006
516.04642
526.08706
536.06971
545.80573
555.1294
563.90378
572.02304
579.41199
586.02362
591.83024
596.82294
601.01707
604.44013
607.12826
609.12324
610.47007
611.21519
611.405
611.08492
610.29863
609.08766
607.4911
605.54544
603.28447
600.7395
597.93946
594.91082
591.6778
588.26252
584.68515
580.96406
577.11599
573.15613
569.09829
564.95502
560.73769
556.4566
552.12109
547.73962
543.31981
538.86858
450.94885
453.69904
457.36009
461.94055
467.43142
473.79658
480.96673
488.83761
497.273
506.11189
515.17849
524.29328
533.28369
541.99282
550.28564
558.05243
565.20973
571.69929
577.48571
582.54726
586.87957
590.4975
593.4257
595.69582
597.34415
598.40969
598.93265
598.95333
598.51128
597.6447
596.39005
594.78177
592.85221
590.63141
588.14737
585.42605
582.49133
579.36512
576.06752
572.61695
569.03024
565.32275
561.50852
557.60032
553.60979
549.5475
545.42308
541.24525
537.02194
532.76033
450.53243
452.42629
455.18228
458.80562
463.28834
468.60144
474.68944
481.4681
488.82566
496.6275
504.72339
512.95611
521.17027
529.22014
536.97576
544.32698
551.18536
557.48439
563.17822
568.2396
572.65039
576.409
579.529
582.032
583.94539
585.30043
586.13076
586.47111
586.35642
585.82109
584.8985
583.62065
582.01794
580.11899
577.95057
575.53769
572.90369
570.07008
567.05671
563.88187
560.56234
557.11356
553.54966
549.88355
546.12708
542.29103
538.38523
534.41867
530.3995
526.33515
450.14265
451.23157
453.13494
455.85573
459.38696
463.70537
468.76666
474.50301
480.82324
487.61566
494.75312
502.09955
509.51707
516.87268
524.04394
530.92321
537.42022
543.46307
548.99802
553.98831
558.41235
562.25394
565.51318
568.20198
570.33893
571.94742
573.05421
573.68814
573.87912
573.65736
573.05275
572.09442
570.81045
569.22762
567.37129
565.26526
562.93192
560.39218
557.66545
554.76971
551.72156
548.53635
545.22819
541.81005
538.29387
534.69056
531.01013
527.26173
523.45371
519.59372
449.77948
450.11528
451.21895
453.09207
455.72868
459.11018
463.20129
467.94763
473.27519
479.09193
485.29119
491.7565
498.36709
505.0035
511.55258
517.91161
523.99117
529.71674
535.02923
539.88457
544.25263
548.11569
551.45839
554.28202
556.5966
558.41775
559.76525
560.6618
561.13202
561.20156
560.89646
560.24262
559.26542
557.98946
556.4383
554.63439
552.59888
550.35175
547.91177
545.29641
542.52194
539.60344
536.55489
533.3892
530.11829
526.75312
523.30378
519.77954
516.18889
512.53962
449.44256
449.07688
449.43368
450.51386
452.31248
454.81478
457.99278
461.80303
466.18576
471.0656
476.35382
481.95166
487.75464
493.65696
499.55586
505.35535
510.96909
516.3224
521.35324
526.01244
530.26325
534.08036
537.4486
540.35321
542.796
544.78498
546.33307
547.45678
548.17522
548.50927
548.4808
548.11217
547.42578
546.44366
545.1873
543.67741
541.93379
539.97522
537.81952
535.48346
532.98279
530.33219
527.54534
524.63494
521.6128
518.48983
515.27611
511.98094
508.61288
505.17982
449.13129
448.11498
447.77721
448.11855
449.13518
450.81551
453.13746
456.06649
459.55455
463.54031
467.95042
472.70197
477.70547
482.86849
488.09911
493.30928
498.4175
503.35097
508.04688
512.45307
516.52812
520.24085
523.5696
526.50011
529.01926
531.12813
532.83303
534.14441
535.07586
535.64334
535.86436
535.75751
535.34187
534.63669
533.66107
532.4337
530.97271
529.29555
527.41885
525.35844
523.12929
520.74554
518.22042
515.56631
512.79474
509.91646
506.94146
503.87896
500.73754
497.52509
448.84486
447.22757
446.24645
445.90211
446.19174
447.10645
448.62898
450.73199
453.37707
456.51455
460.08426
464.01707
468.23717
472.66467
477.21853
481.81928
486.39151
490.86591
495.18076
499.28283
503.12785
506.68046
509.91383
512.80913
515.35157
517.53029
519.34546
520.80176
521.9074
522.67338
523.1128
523.24026
523.07138
522.62236
521.90968
520.94976
519.75882
518.35267
516.74661
514.95533
512.99283
510.87245
508.60685
506.2079
503.68677
501.0539
498.31907
495.49136
492.57923
489.59053
448.58228
446.41209
444.83743
443.85919
443.47552
443.67976
444.45862
445.79062
447.64519
449.98236
452.75302
455.9
459.35959
463.0635
466.94113
470.92182
474.93701
478.92205
482.81779
486.57157
490.13795
493.47896
496.56405
499.36979
501.87929
504.07698
505.95421
507.51036
508.74851
509.67487
510.29809
510.62879
510.67896
510.46162
509.99041
509.2793
508.34237
507.19357
505.84665
504.31496
502.61139
500.7483
498.73753
496.59033
494.31735
491.92862
489.43357
486.84103
484.15926
481.39598
448.34246
445.66554
443.54543
441.98339
440.97851
440.52598
440.6157
441.23101
442.34774
443.93385
445.94953
448.34779
451.07551
454.07485
457.285
460.64395
464.09027
467.5648
471.01201
474.38117
477.62709
480.71065
483.59896
486.26529
488.68881
490.85416
492.74473
494.35448
495.68164
496.72785
497.49752
497.99728
498.23554
498.222
497.96736
497.48298
496.78063
495.87225
494.7698
493.48512
492.02979
490.41509
488.65186
486.75054
484.7211
482.57304
480.31533
477.95644
475.50432
472.96646
448.12421
444.98464
442.36517
440.26753
438.69163
437.63426
437.08792
437.03978
437.47091
438.35582
439.66239
441.35223
443.38134
445.70117
448.25981
451.00347
453.87788
456.8297
459.80781
462.76436
465.65561
468.44254
471.09119
473.57278
475.86364
477.94496
479.80193
481.41926
482.79123
483.91541
484.79223
485.42456
485.81724
485.97672
485.91071
485.62786
485.1375
484.44941
483.57366
482.52038
481.2997
479.9216
478.39586
476.73194
474.939
473.02583
471.00082
468.87197
466.64682
464.33255
447.92628
444.36586
441.29098
438.7038
436.60501
434.99273
433.86158
433.20185
432.99881
433.23233
433.87666
434.90059
436.26793
437.93817
439.86743
442.00949
444.31694
446.74239
449.2395
451.76399
454.27445
456.733
459.1057
461.36284
463.47905
465.43327
467.20874
468.78872
470.16174
471.32174
472.26554
472.99249
473.50407
473.80357
473.89573
473.7865
473.48272
472.99194
472.32218
471.48179
470.47929
469.32325
468.0222
466.58454
465.0185
463.332
461.53275
459.62812
457.62518
455.53064
447.7474
443.80555
440.31688
437.28398
434.7082
432.58877
430.92206
429.70087
428.91387
428.54524
428.57448
428.97639
429.72135
430.77577
432.10281
433.6631
435.41567
437.31888
439.33131
441.41265
443.52442
445.63065
447.69833
449.69775
451.60277
453.39083
455.04295
456.54334
457.87544
459.03008
460.00093
460.78416
461.37817
461.78328
462.0014
462.03581
461.89091
461.57197
461.08493
460.43627
459.63281
458.68161
457.58985
456.36472
455.0134
453.5429
451.9601
450.27164
448.48392
447.58628
443.29998
439.43677
435.99959
432.99037
430.40926
428.25405
426.51956
425.19722
424.27471
423.73576
423.56014
423.72374
424.19891
424.95486
425.95831
427.17415
428.56617
430.09778
431.73277
433.43598
435.17386
436.91499
438.63047
440.29416
441.88288
443.37649
444.7579
446.01025
447.1206
448.07999
448.8819
449.52197
449.99783
450.30876
450.45554
450.44017
450.26571
449.93603
449.4557
448.82981
448.06382
447.1635
446.13476
444.98359
443.71602
442.338
440.8554
439.2739
447.44165
442.84544
438.64448
434.84205
431.44052
428.44082
425.84186
423.64011
421.82921
420.39967
419.33866
418.63001
418.25419
418.18851
418.40745
418.883
419.5853
420.48311
421.54442
422.7371
424.0294
425.39057
426.79124
428.20384
429.60292
430.96533
432.2704
433.4999
434.6379
435.66839
436.58041
437.36523
438.01618
438.52851
438.89914
439.12656
439.21055
439.15202
438.95287
438.61578
438.14411
437.54171
436.81287
435.96217
434.99439
433.91446
432.72735
431.43804
430.05148
447.31229
442.43827
437.93394
433.80282
430.04768
426.67003
423.66971
421.04449
418.78977
416.89835
415.36022
414.16249
413.28939
412.7224
412.44041
412.42003
412.63596
413.06145
413.66871
414.42947
415.31544
416.29873
417.3523
418.45035
419.56858
420.68445
421.77739
422.82884
423.82243
424.74171
425.57407
426.30899
426.93789
427.45402
427.8523
428.12914
428.28233
428.31082
428.21463
427.99466
427.65256
427.19062
426.61165
425.91887
425.11582
424.20629
423.19421
422.08364
420.87868
447.197
442.07492
437.2992
432.87355
428.80104
425.08365
421.72192
418.71469
416.05875
413.74874
411.7769
410.13304
408.80448
407.77611
407.03054
406.5483
406.30805
406.28701
406.4612
406.80594
407.29619
407.90695
408.61365
409.39243
410.22051
411.07635
411.93992
412.79282
413.61838
414.4005
415.12552
415.78163
416.35882
416.84872
417.24459
417.54112
417.73431
417.82141
417.8007
417.67143
417.43367
417.08819
416.63637
416.08009
415.42166
414.66371
413.80912
412.86096
411.82246
447.09464
441.75198
436.73454
432.04617
427.69013
423.66878
419.98321
416.63306
413.61628
410.92894
408.5651
406.51674
404.77371
403.32375
402.15253
401.24384
400.57979
400.14098
399.90687
399.85599
399.96635
400.2157
400.58189
401.04316
401.57838
402.1673
402.79077
403.43087
404.07104
404.69584
405.29108
405.84416
406.34404
406.78119
407.14754
407.43638
407.64226
407.76091
407.78913
407.72468
407.56616
407.31296
406.96512
406.52323
405.98839
405.36209
404.64618
403.84275
402.95411
447.00416
441.46625
436.23456
431.31299
426.70496
422.41307
418.43885
414.78258
411.44307
408.41755
405.70156
403.28882
401.17123
399.33883
397.77987
396.48087
395.42678
394.60118
393.98644
393.56399
393.31459
393.21855
393.25606
393.40738
393.65315
393.97454
394.35349
394.77285
395.21648
395.66977
396.11841
396.54941
396.95111
397.31319
397.62663
397.88361
398.07755
398.20293
398.25529
398.23109
398.12768
397.94317
397.67636
397.32668
396.89409
396.37899
395.7822
395.10488
394.34843
446.92458
441.21475
435.79419
430.66682
425.83612
421.30488
417.07493
413.14704
409.5207
406.19409
403.16387
400.42519
397.97161
395.79505
393.88584
392.2328
390.82327
389.64329
388.67777
387.91066
387.32513
386.90384
386.62911
386.48318
386.4484
386.50743
386.64341
386.84014
387.08216
387.35572
387.6467
387.94205
388.22985
388.49929
388.74071
388.94555
389.10634
389.21659
389.27082
389.26444
389.19368
389.05558
388.84785
388.56884
388.21747
387.79317
387.29578
386.72554
386.08301
446.855
440.99476
435.4088
430.10102
425.07493
420.3334
415.87849
411.71133
407.83195
404.23925
400.93082
397.90294
395.15049
392.66694
390.44432
388.47331
386.74323
385.24222
383.9573
382.87457
381.97932
381.25626
380.68967
380.26358
379.96198
379.76899
379.669
379.64685
379.68799
379.77943
379.90744
380.05915
380.22264
380.38692
380.54198
380.67877
380.78918
380.86606
380.9031
380.89487
380.83673
380.72478
380.55581
380.32725
380.0371
379.68388
379.26657
378.78456
378.23761
446.79463
440.80383
435.07422
429.60963
424.41353
419.48883
414.83774
410.46165
406.36103
402.53531
398.98286
395.70084
392.68521
389.93066
387.43061
385.17725
383.16154
381.37333
379.80142
378.43371
377.25731
376.25868
375.42383
374.7384
374.18791
373.7578
373.43369
373.20141
373.04797
372.96045
372.9257
372.93127
372.96543
373.01723
373.07655
373.13406
373.18131
373.21061
373.21513
373.18878
373.12622
373.02283
372.87462
372.67824
372.43091
372.13037
371.77483
371.36293
370.8937
446.74277
440.63985
434.78682
429.1874
423.845
418.76251
413.94224
409.38576
405.09387
401.06647
397.3025