/*--------------------------------*- C++ -*----------------------------------*\
| =========                 |                                                 |
| \\      /  F ield         | OpenFOAM: The Open Source CFD Toolbox           |
|  \\    /   O peration     | Version:  2312                                  |
|   \\  /    A nd           | Website:  www.openfoam.com                      |
|    \\/     M anipulation  |                                                 |
\*---------------------------------------------------------------------------*/
FoamFile
{
    version     2.0;
    format      ascii;
    arch        "LSB;label=32;scalar=64";
    class       volScalarField;
    location    "0.1";
    object      p;
}
// * * * * * * * * * * * * * * * * * * * * * * * * * * * * * * * * * * * * * //

dimensions      [1 -1 -2 0 0 0 0];

internalField   nonuniform List<scalar> 
3275
(
100002.91
100001.59
100009.66
100012.3
100013.57
100013.58
100012.61
100011.48
100010.27
100008.86
100008.5
100007.75
100006.08
100005.46
100004.8
100004.26
100003.82
100003.46
100003.18
100002.94
100002.74
100002.58
100002.44
100002.33
100002.23
100002.15
100002.07
100002.01
100001.96
100001.92
100001.88
100001.85
100001.82
100001.8
100001.78
100001.76
100001.74
100001.73
100001.72
100001.72
100001.71
100001.71
100001.7
100001.7
100001.7
100001.7
100001.71
100001.71
100001.71
100001.72
100001.72
100001.73
100002.27
99998.169
100007.55
100010.38
100012.27
100012.75
100012.02
100011.07
100009.97
100008.66
100008.34
100007.62
100006
100005.39
100004.76
100004.22
100003.79
100003.44
100003.16
100002.92
100002.73
100002.57
100002.43
100002.32
100002.22
100002.14
100002.07
100002.01
100001.96
100001.91
100001.88
100001.84
100001.82
100001.79
100001.77
100001.76
100001.74
100001.73
100001.72
100001.72
100001.71
100001.71
100001.7
100001.7
100001.7
100001.7
100001.71
100001.71
100001.71
100001.72
100001.72
100001.73
100008.93
99992.373
100003.06
100006.52
100009.8
100011.19
100010.88
100010.27
100009.4
100008.26
100008.03
100007.37
100005.85
100005.27
100004.66
100004.15
100003.73
100003.4
100003.12
100002.9
100002.71
100002.55
100002.42
100002.31
100002.21
100002.13
100002.06
100002
100001.95
100001.91
100001.87
100001.84
100001.81
100001.79
100001.77
100001.75
100001.74
100001.73
100001.72
100001.71
100001.71
100001.7
100001.7
100001.7
100001.7
100001.7
100001.7
100001.71
100001.71
100001.71
100001.72
100001.73
100020.42
99981.778
99995.505
100000.88
100006.41
100008.97
100009.31
100009.14
100008.59
100007.7
100007.57
100007.02
100005.63
100005.08
100004.52
100004.04
100003.65
100003.33
100003.07
100002.85
100002.67
100002.52
100002.39
100002.29
100002.2
100002.12
100002.05
100001.99
100001.94
100001.9
100001.87
100001.83
100001.81
100001.79
100001.77
100001.75
100001.74
100001.73
100001.72
100001.71
100001.7
100001.7
100001.7
100001.7
100001.7
100001.7
100001.7
100001.7
100001.71
100001.71
100001.72
100001.72
99946.858
99951.149
99984.146
99994.456
100002.36
100006.17
100007.5
100007.81
100007.59
100006.98
100006.99
100006.57
100005.35
100004.85
100004.34
100003.9
100003.54
100003.25
100003
100002.8
100002.63
100002.48
100002.36
100002.26
100002.17
100002.1
100002.03
100001.98
100001.93
100001.89
100001.86
100001.83
100001.8
100001.78
100001.76
100001.74
100001.73
100001.72
100001.71
100001.71
100001.7
100001.7
100001.7
100001.7
100001.7
100001.7
100001.7
100001.7
100001.71
100001.71
100001.72
100001.72
99742.601
99899.716
99972.467
99988.394
99998.395
100003.18
100005.47
100006.44
100006.52
100006.19
100006.34
100006.06
100005.04
100004.57
100004.13
100003.74
100003.42
100003.15
100002.92
100002.73
100002.58
100002.44
100002.33
100002.23
100002.15
100002.08
100002.02
100001.96
100001.92
100001.88
100001.84
100001.82
100001.79
100001.77
100001.75
100001.74
100001.73
100001.72
100001.71
100001.7
100001.7
100001.69
100001.69
100001.69
100001.69
100001.69
100001.7
100001.7
100001.7
100001.71
100001.71
100001.72
99836.71
99895.452
99965.331
99983.265
99994.628
100000.38
100003.49
100005.01
100005.46
100005.38
100005.65
100005.52
100004.7
100004.28
100003.91
100003.57
100003.28
100003.04
100002.84
100002.66
100002.52
100002.39
100002.29
100002.2
100002.12
100002.05
100001.99
100001.94
100001.9
100001.86
100001.83
100001.81
100001.78
100001.76
100001.74
100001.73
100001.72
100001.71
100001.7
100001.7
100001.69
100001.69
100001.69
100001.69
100001.69
100001.69
100001.69
100001.7
100001.7
100001.7
100001.71
100001.72
99912.578
99908.768
99962.519
99979.505
99991.381
99997.828
100001.51
100003.47
100004.34
100004.54
100004.89
100004.91
100004.33
100003.96
100003.66
100003.37
100003.12
100002.91
100002.74
100002.58
100002.45
100002.34
100002.24
100002.16
100002.09
100002.02
100001.97
100001.92
100001.88
100001.85
100001.82
100001.79
100001.77
100001.75
100001.74
100001.72
100001.71
100001.7
100001.69
100001.69
100001.69
100001.68
100001.68
100001.68
100001.68
100001.69
100001.69
100001.69
100001.7
100001.7
100001.71
100001.71
99932.857
99920.744
99962.069
99977.114
99988.756
99995.516
99999.586
100001.92
100003.15
100003.68
100004.11
100004.25
100003.92
100003.61
100003.37
100003.15
100002.95
100002.77
100002.62
100002.49
100002.38
100002.28
100002.19
100002.12
100002.05
100001.99
100001.94
100001.9
100001.86
100001.83
100001.8
100001.78
100001.76
100001.74
100001.72
100001.71
100001.7
100001.69
100001.69
100001.68
100001.68
100001.68
100001.68
100001.68
100001.68
100001.68
100001.68
100001.69
100001.69
100001.7
100001.7
100001.71
99937.388
99929.943
99962.561
99975.732
99986.693
99993.47
99997.787
100000.42
100001.93
100002.76
100003.32
100003.57
100003.44
100003.25
100003.07
100002.91
100002.76
100002.62
100002.5
100002.39
100002.29
100002.21
100002.13
100002.07
100002.01
100001.96
100001.91
100001.87
100001.84
100001.81
100001.78
100001.76
100001.74
100001.73
100001.71
100001.7
100001.69
100001.68
100001.68
100001.67
100001.67
100001.67
100001.67
100001.67
100001.67
100001.67
100001.68
100001.68
100001.69
100001.69
100001.7
100001.7
99942.157
99938.079
99963.633
99975.108
99985.152
99991.739
99996.155
99998.999
100000.75
100001.81
100002.52
100002.88
100002.91
100002.86
100002.76
100002.64
100002.55
100002.45
100002.36
100002.28
100002.2
100002.13
100002.07
100002.01
100001.96
100001.92
100001.88
100001.84
100001.81
100001.78
100001.76
100001.74
100001.72
100001.71
100001.7
100001.69
100001.68
100001.67
100001.67
100001.66
100001.66
100001.66
100001.66
100001.66
100001.66
100001.67
100001.67
100001.68
100001.68
100001.69
100001.69
100001.7
99947.853
99945.51
99965.173
99975.083
99984.095
99990.339
99994.726
99997.689
99999.624
100000.87
100001.71
100002.2
100002.37
100002.44
100002.44
100002.37
100002.32
100002.27
100002.21
100002.16
100002.1
100002.05
100002
100001.95
100001.91
100001.87
100001.84
100001.81
100001.78
100001.76
100001.74
100001.72
100001.71
100001.69
100001.68
100001.67
100001.67
100001.66
100001.66
100001.65
100001.65
100001.65
100001.65
100001.65
100001.66
100001.66
100001.66
100001.67
100001.67
100001.68
100001.69
100001.69
99953.329
99952.081
99967.038
99975.516
99983.465
99989.265
99993.519
99996.518
99998.575
99999.967
100000.92
100001.53
100001.83
100002.01
100002.09
100002.09
100002.09
100002.08
100002.06
100002.03
100001.99
100001.95
100001.92
100001.88
100001.85
100001.82
100001.79
100001.77
100001.75
100001.73
100001.71
100001.7
100001.68
100001.67
100001.66
100001.66
100001.65
100001.65
100001.64
100001.64
100001.64
100001.64
100001.64
100001.64
100001.65
100001.65
100001.66
100001.66
100001.67
100001.67
100001.68
100001.69
99958.315
99957.776
99969.083
99976.279
99983.197
99988.494
99992.536
99995.5
99997.619
99999.113
100000.17
100000.87
100001.29
100001.57
100001.73
100001.81
100001.85
100001.88
100001.89
100001.89
100001.87
100001.86
100001.83
100001.81
100001.79
100001.77
100001.75
100001.73
100001.71
100001.7
100001.68
100001.67
100001.66
100001.65
100001.65
100001.64
100001.64
100001.63
100001.63
100001.63
100001.63
100001.63
100001.63
100001.63
100001.64
100001.64
100001.65
100001.65
100001.66
100001.66
100001.67
100001.68
99962.843
99962.697
99971.202
99977.266
99983.224
99987.996
99991.772
99994.642
99996.772
99998.327
99999.457
100000.25
100000.77
100001.13
100001.36
100001.51
100001.62
100001.68
100001.72
100001.74
100001.75
100001.75
100001.75
100001.74
100001.72
100001.71
100001.7
100001.69
100001.67
100001.66
100001.65
100001.64
100001.64
100001.63
100001.62
100001.62
100001.62
100001.62
100001.61
100001.61
100001.62
100001.62
100001.62
100001.62
100001.63
100001.63
100001.64
100001.64
100001.65
100001.66
100001.66
100001.67
99966.936
99966.959
99973.326
99978.397
99983.487
99987.736
99991.212
99993.945
99996.042
99997.622
99998.804
99999.664
100000.26
100000.69
100001
100001.21
100001.37
100001.47
100001.54
100001.59
100001.62
100001.64
100001.65
100001.66
100001.65
100001.65
100001.64
100001.64
100001.63
100001.62
100001.62
100001.61
100001.61
100001.6
100001.6
100001.6
100001.6
100001.6
100001.6
100001.6
100001.6
100001.6
100001.61
100001.61
100001.62
100001.62
100001.63
100001.63
100001.64
100001.65
100001.65
100001.66
99970.601
99970.661
99975.403
99979.612
99983.93
99987.678
99990.84
99993.404
99995.432
99997.007
99998.215
99999.124
99999.79
100000.28
100000.65
100000.92
100001.12
100001.27
100001.37
100001.44
100001.49
100001.53
100001.55
100001.57
100001.58
100001.59
100001.59
100001.59
100001.59
100001.58
100001.58
100001.58
100001.58
100001.58
100001.58
100001.58
100001.58
100001.58
100001.58
100001.58
100001.58
100001.59
100001.59
100001.6
100001.6
100001.61
100001.61
100001.62
100001.63
100001.63
100001.64
100001.65
99973.857
99973.884
99977.401
99980.867
99984.508
99987.786
99990.633
99993.01
99994.942
99996.484
99997.698
99998.637
99999.351
99999.896
100000.31
100000.63
100000.87
100001.06
100001.19
100001.29
100001.36
100001.41
100001.45
100001.48
100001.5
100001.52
100001.53
100001.53
100001.54
100001.54
100001.54
100001.55
100001.55
100001.55
100001.55
100001.55
100001.55
100001.56
100001.56
100001.56
100001.57
100001.57
100001.58
100001.58
100001.59
100001.59
100001.6
100001.61
100001.62
100001.62
100001.63
100001.64
99976.734
99976.698
99979.295
99982.13
99985.183
99988.03
99990.571
99992.75
99994.568
99996.056
99997.255
99998.208
99998.954
99999.538
99999.996
100000.35
100000.63
100000.85
100001.01
100001.13
100001.23
100001.3
100001.35
100001.39
100001.42
100001.45
100001.46
100001.48
100001.49
100001.5
100001.5
100001.51
100001.51
100001.52
100001.52
100001.53
100001.53
100001.53
100001.54
100001.54
100001.55
100001.55
100001.56
100001.57
100001.57
100001.58
100001.59
100001.59
100001.6
100001.61
100001.62
100001.63
99979.267
99979.163
99981.071
99983.375
99985.924
99988.381
99990.632
99992.611
99994.303
99995.72
99996.889
99997.839
99998.602
99999.215
99999.705
100000.1
100000.4
100000.64
100000.83
100000.98
100001.09
100001.18
100001.24
100001.3
100001.34
100001.37
100001.4
100001.42
100001.44
100001.45
100001.46
100001.47
100001.48
100001.49
100001.49
100001.5
100001.5
100001.51
100001.52
100001.52
100001.53
100001.54
100001.54
100001.55
100001.56
100001.56
100001.57
100001.58
100001.59
100001.6
100001.61
99981.494
99981.329
99982.722
99984.585
99986.706
99988.815
99990.795
99992.578
99994.138
99995.472
99996.597
99997.531
99998.3
99998.929
99999.441
99999.854
100000.19
100000.45
100000.66
100000.82
100000.96
100001.06
100001.14
100001.2
100001.26
100001.3
100001.33
100001.36
100001.38
100001.4
100001.42
100001.43
100001.44
100001.45
100001.46
100001.47
100001.48
100001.48
100001.49
100001.5
100001.51
100001.52
100001.52
100001.53
100001.54
100001.55
100001.56
100001.57
100001.57
100001.58
100001.59
99983.454
99983.239
99984.247
99985.747
99987.507
99989.309
99991.042
99992.637
99994.063
99995.308
99996.378
99997.286
99998.047
99998.681
99999.205
99999.634
99999.983
100000.26
100000.49
100000.67
100000.82
100000.94
100001.03
100001.11
100001.17
100001.22
100001.26
100001.3
100001.32
100001.35
100001.37
100001.39
100001.4
100001.41
100001.43
100001.44
100001.45
100001.46
100001.47
100001.48
100001.48
100001.49
100001.5
100001.51
100001.52
100001.53
100001.54
100001.55
100001.56
100001.57
100001.58
99985.18
99984.93
99985.65
99986.85
99988.308
99989.844
99991.354
99992.774
99994.067
99995.219
99996.228
99997.099
99997.843
99998.471
99998.998
99999.436
99999.796
100000.09
100000.33
100000.53
100000.69
100000.82
100000.93
100001.02
100001.09
100001.14
100001.19
100001.23
100001.27
100001.3
100001.32
100001.34
100001.36
100001.38
100001.39
100001.4
100001.42
100001.43
100001.44
100001.45
100001.46
100001.47
100001.48
100001.49
100001.5
100001.51
100001.52
100001.53
100001.54
100001.55
100001.56
99986.703
99986.431
99986.936
99987.891
99989.096
99990.402
99991.714
99992.972
99994.139
99995.198
99996.14
99996.967
99997.684
99998.299
99998.821
99999.26
99999.628
99999.933
100000.18
100000.39
100000.57
100000.71
100000.82
100000.92
100001
100001.07
100001.12
100001.17
100001.21
100001.24
100001.27
100001.29
100001.32
100001.34
100001.35
100001.37
100001.38
100001.4
100001.41
100001.42
100001.44
100001.45
100001.46
100001.47
100001.48
100001.49
100001.5
100001.51
100001.52
100001.53
99988.052
99987.767
99988.112
99988.867
99989.861
99990.968
99992.106
99993.217
99994.266
99995.231
99996.105
99996.883
99997.566
99998.161
99998.672
99999.108
99999.477
99999.787
100000.05
100000.26
100000.44
100000.6
100000.72
100000.83
100000.92
100000.99
100001.05
100001.1
100001.15
100001.18
100001.22
100001.25
100001.27
100001.3
100001.32
100001.33
100001.35
100001.37
100001.38
100001.4
100001.41
100001.42
100001.43
100001.45
100001.46
100001.47
100001.48
100001.49
100001.5
100001.51
99989.248
99988.962
99989.185
99989.779
99990.596
99991.533
99992.517
99993.495
99994.433
99995.31
99996.114
99996.84
99997.486
99998.055
99998.551
99998.979
99999.345
99999.657
99999.921
100000.14
100000.33
100000.49
100000.62
100000.73
100000.83
100000.91
100000.98
100001.04
100001.09
100001.13
100001.17
100001.2
100001.23
100001.25
100001.28
100001.3
100001.32
100001.33
100001.35
100001.37
100001.38
100001.39
100001.41
100001.42
100001.43
100001.45
100001.46
100001.47
100001.48
100001.5
99990.314
99990.031
99990.165
99990.628
99991.297
99992.088
99992.936
99993.795
99994.631
99995.423
99996.16
99996.833
99997.439
99997.98
99998.456
99998.871
99999.231
99999.541
99999.806
100000.03
100000.23
100000.39
100000.53
100000.65
100000.75
100000.83
100000.91
100000.97
100001.03
100001.07
100001.11
100001.15
100001.18
100001.21
100001.24
100001.26
100001.28
100001.3
100001.32
100001.34
100001.35
100001.37
100001.38
100001.4
100001.41
100001.42
100001.44
100001.45
100001.46
100001.47
99991.267
99990.992
99991.059
99991.417
99991.962
99992.627
99993.357
99994.108
99994.851
99995.564
99996.236
99996.856
99997.422
99997.931
99998.385
99998.785
99999.136
99999.441
99999.705
99999.932
100000.13
100000.3
100000.44
100000.56
100000.67
100000.76
100000.84
100000.91
100000.97
100001.02
100001.06
100001.1
100001.13
100001.17
100001.19
100001.22
100001.24
100001.26
100001.28
100001.3
100001.32
100001.34
100001.35
100001.37
100001.38
100001.4
100001.41
100001.42
100001.44
100001.45
99992.12
99991.857
99991.874
99992.147
99992.59
99993.148
99993.773
99994.429
99995.087
99995.727
99996.336
99996.905
99997.43
99997.907
99998.336
99998.719
99999.058
99999.356
99999.616
99999.842
100000.04
100000.21
100000.35
100000.48
100000.59
100000.69
100000.77
100000.84
100000.9
100000.96
100001.01
100001.05
100001.09
100001.12
100001.15
100001.18
100001.2
100001.23
100001.25
100001.27
100001.29
100001.31
100001.32
100001.34
100001.36
100001.37
100001.39
100001.4
100001.41
100001.43
99992.887
99992.637
99992.618
99992.823
99993.181
99993.647
99994.181
99994.752
99995.332
99995.904
99996.455
99996.975
99997.459
99997.904
99998.308
99998.672
99998.997
99999.285
99999.539
99999.762
99999.958
100000.13
100000.28
100000.41
100000.52
100000.62
100000.7
100000.78
100000.84
100000.9
100000.95
100001
100001.04
100001.08
100001.11
100001.14
100001.17
100001.19
100001.21
100001.24
100001.26
100001.28
100001.29
100001.31
100001.33
100001.34
100001.36
100001.37
100001.39
100001.4
99993.578
99993.342
99993.297
99993.447
99993.735
99994.122
99994.578
99995.072
99995.583
99996.093
99996.589
99997.062
99997.507
99997.92
99998.298
99998.642
99998.951
99999.229
99999.475
99999.694
99999.886
100000.06
100000.2
100000.34
100000.45
100000.55
100000.64
100000.72
100000.79
100000.85
100000.9
100000.95
100000.99
100001.03
100001.07
100001.1
100001.13
100001.15
100001.18
100001.2
100001.22
100001.24
100001.26
100001.28
100001.3
100001.31
100001.33
100001.35
100001.36
100001.38
99994.202
99993.981
99993.917
99994.024
99994.253
99994.574
99994.961
99995.388
99995.836
99996.289
99996.734
99997.163
99997.57
99997.951
99998.304
99998.627
99998.92
99999.185
99999.423
99999.635
99999.824
99999.991
100000.14
100000.27
100000.39
100000.49
100000.58
100000.66
100000.73
100000.79
100000.85
100000.9
100000.94
100000.98
100001.02
100001.06
100001.09
100001.11
100001.14
100001.16
100001.19
100001.21
100001.23
100001.25
100001.27
100001.29
100001.3
100001.32
100001.34
100001.35
99994.767
99994.561
99994.484
99994.556
99994.736
99995.001
99995.328
99995.696
99996.088
99996.489
99996.887
99997.275
99997.646
99997.996
99998.323
99998.625
99998.902
99999.154
99999.381
99999.586
99999.77
99999.934
100000.08
100000.21
100000.33
100000.43
100000.52
100000.6
100000.67
100000.74
100000.8
100000.85
100000.9
100000.94
100000.98
100001.01
100001.04
100001.07
100001.1
100001.13
100001.15
100001.17
100001.2
100001.22
100001.24
100001.25
100001.27
100001.29
100001.31
100001.32
99995.279
99995.087
99995.002
99995.047
99995.187
99995.404
99995.68
99995.996
99996.337
99996.69
99997.045
99997.395
99997.732
99998.053
99998.355
99998.636
99998.896
99999.134
99999.351
99999.547
99999.725
99999.884
100000.03
100000.16
100000.27
100000.37
100000.47
100000.55
100000.62
100000.69
100000.75
100000.8
100000.85
100000.89
100000.93
100000.97
100001
100001.04
100001.06
100001.09
100001.12
100001.14
100001.16
100001.18
100001.2
100001.22
100001.24
100001.26
100001.28
100001.29
99995.744
99995.566
99995.476
99995.499
99995.607
99995.783
99996.014
99996.284
99996.58
99996.891
99997.207
99997.52
99997.825
99998.118
99998.396
99998.657
99998.9
99999.124
99999.329
99999.517
99999.688
99999.842
99999.982
100000.11
100000.22
100000.32
100000.41
100000.5
100000.57
100000.64
100000.7
100000.75
100000.8
100000.85
100000.89
100000.93
100000.96
100000.99
100001.02
100001.05
100001.08
100001.1
100001.13
100001.15
100001.17
100001.19
100001.21
100001.23
100001.25
100001.26
99996.167
99996.002
99995.91
99995.916
99995.997
99996.14
99996.332
99996.562
99996.818
99997.09
99997.369
99997.65
99997.925
99998.192
99998.446
99998.687
99998.913
99999.123
99999.317
99999.495
99999.658
99999.807
99999.942
100000.06
100000.18
100000.28
100000.37
100000.45
100000.52
100000.59
100000.65
100000.71
100000.76
100000.8
100000.85
100000.89
100000.92
100000.95
100000.99
100001.01
100001.04
100001.07
100001.09
100001.11
100001.14
100001.16
100001.18
100001.2
100001.21
100001.23
99996.552
99996.4
99996.307
99996.3
99996.359
99996.473
99996.633
99996.828
99997.048
99997.285
99997.532
99997.782
99998.029
99998.271
99998.504
99998.725
99998.934
99999.13
99999.312
99999.481
99999.636
99999.778
99999.909
100000.03
100000.14
100000.23
100000.32
100000.4
100000.48
100000.55
100000.61
100000.66
100000.71
100000.76
100000.8
100000.84
100000.88
100000.91
100000.95
100000.98
100001
100001.03
100001.05
100001.08
100001.1
100001.12
100001.14
100001.16
100001.18
100001.2
99996.903
99996.763
99996.672
99996.655
99996.696
99996.786
99996.917
99997.081
99997.27
99997.476
99997.693
99997.915
99998.137
99998.355
99998.566
99998.77
99998.963
99999.144
99999.315
99999.473
99999.62
99999.756
99999.881
99999.995
100000.1
100000.2
100000.28
100000.36
100000.44
100000.5
100000.56
100000.62
100000.67
100000.72
100000.76
100000.8
100000.84
100000.87
100000.91
100000.94
100000.97
100000.99
100001.02
100001.04
100001.06
100001.09
100001.11
100001.13
100001.15
100001.17
99997.224
99997.095
99997.006
99996.981
99997.008
99997.077
99997.185
99997.322
99997.484
99997.662
99997.852
99998.048
99998.246
99998.442
99998.634
99998.819
99998.997
99999.165
99999.324
99999.472
99999.611
99999.739
99999.858
99999.968
100000.07
100000.16
100000.25
100000.33
100000.4
100000.46
100000.52
100000.58
100000.63
100000.68
100000.72
100000.76
100000.8
100000.83
100000.87
100000.9
100000.93
100000.95
100000.98
100001
100001.03
100001.05
100001.07
100001.09
100001.11
100001.13
99997.516
99997.398
99997.312
99997.282
99997.297
99997.35
99997.437
99997.551
99997.688
99997.842
99998.007
99998.18
99998.356
99998.531
99998.705
99998.873
99999.036
99999.191
99999.338
99999.477
99999.607
99999.728
99999.841
99999.946
100000.04
100000.13
100000.21
100000.29
100000.36
100000.43
100000.49
100000.54
100000.59
100000.64
100000.68
100000.72
100000.76
100000.8
100000.83
100000.86
100000.89
100000.92
100000.94
100000.97
100000.99
100001.01
100001.04
100001.06
100001.08
100001.1
99997.784
99997.676
99997.593
99997.559
99997.565
99997.604
99997.673
99997.768
99997.884
99998.015
99998.159
99998.31
99998.466
99998.622
99998.778
99998.931
99999.079
99999.222
99999.357
99999.486
99999.608
99999.722
99999.828
99999.928
100000.02
100000.11
100000.19
100000.26
100000.33
100000.39
100000.45
100000.5
100000.55
100000.6
100000.64
100000.68
100000.72
100000.76
100000.79
100000.82
100000.85
100000.88
100000.91
100000.93
100000.95
100000.98
100001
100001.02
100001.04
100001.06
99998.03
99997.93
99997.851
99997.815
99997.813
99997.841
99997.896
99997.973
99998.07
99998.182
99998.306
99998.438
99998.575
99998.714
99998.854
99998.992
99999.126
99999.256
99999.381
99999.5
99999.613
99999.72
99999.82
99999.914
100000
100000.08
100000.16
100000.23
100000.3
100000.36
100000.42
100000.47
100000.52
100000.56
100000.61
100000.65
100000.68
100000.72
100000.75
100000.78
100000.81
100000.84
100000.87
100000.89
100000.92
100000.94
100000.96
100000.98
100001.01
100001.03
99998.255
99998.163
99998.089
99998.051
99998.043
99998.062
99998.104
99998.167
99998.248
99998.342
99998.449
99998.563
99998.683
99998.806
99998.931
99999.054
99999.176
99999.294
99999.409
99999.518
99999.623
99999.722
99999.816
99999.904
99999.987
100000.07
100000.14
100000.21
100000.27
100000.33
100000.38
100000.44
100000.48
100000.53
100000.57
100000.61
100000.65
100000.68
100000.71
100000.75
100000.78
100000.8
100000.83
100000.86
100000.88
100000.9
100000.93
100000.95
100000.97
100000.99
99998.462
99998.378
99998.307
99998.269
99998.257
99998.268
99998.299
99998.35
99998.416
99998.496
99998.586
99998.685
99998.79
99998.898
99999.008
99999.118
99999.228
99999.335
99999.439
99999.54
99999.636
99999.728
99999.816
99999.898
99999.976
100000.05
100000.12
100000.18
100000.24
100000.3
100000.35
100000.4
100000.45
100000.5
100000.54
100000.58
100000.61
100000.65
100000.68
100000.71
100000.74
100000.77
100000.79
100000.82
100000.84
100000.87
100000.89
100000.91
100000.93
100000.95
99998.652
99998.575
99998.509
99998.47
99998.455
99998.459
99998.482
99998.521
99998.576
99998.642
99998.719
99998.803
99998.894
99998.989
99999.086
99999.184
99999.282
99999.378
99999.473
99999.564
99999.653
99999.738
99999.819
99999.896
99999.969
100000.04
100000.1
100000.16
100000.22
100000.28
100000.33
100000.38
100000.42
100000.46
100000.5
100000.54
100000.58
100000.61
100000.64
100000.67
100000.7
100000.73
100000.76
100000.78
100000.81
100000.83
100000.85
100000.87
100000.89
100000.91
99998.827
99998.757
99998.695
99998.656
99998.638
99998.637
99998.653
99998.683
99998.727
99998.782
99998.846
99998.918
99998.996
99999.078
99999.163
99999.25
99999.337
99999.424
99999.509
99999.592
99999.673
99999.75
99999.825
99999.897
99999.965
100000.03
100000.09
100000.15
100000.2
100000.25
100000.3
100000.35
100000.39
100000.43
100000.47
100000.51
100000.54
100000.58
100000.61
100000.64
100000.67
100000.69
100000.72
100000.74
100000.77
100000.79
100000.81
100000.84
100000.86
100000.88
99998.989
99998.925
99998.866
99998.829
99998.809
99998.804
99998.813
99998.836
99998.87
99998.915
99998.968
99999.029
99999.095
99999.166
99999.24
99999.316
99999.393
99999.47
99999.547
99999.622
99999.695
99999.766
99999.835
99999.9
99999.963
100000.02
100000.08
100000.14
100000.19
100000.24
100000.28
100000.33
100000.37
100000.41
100000.44
100000.48
100000.51
100000.54
100000.57
100000.6
100000.63
100000.66
100000.68
100000.71
100000.73
100000.75
100000.78
100000.8
100000.82
100000.84
99999.139
99999.08
99999.025
99998.988
99998.967
99998.958
99998.963
99998.979
99999.005
99999.041
99999.085
99999.136
99999.192
99999.253
99999.317
99999.383
99999.451
99999.519
99999.587
99999.654
99999.72
99999.784
99999.847
99999.907
99999.965
100000.02
100000.07
100000.12
100000.17
100000.22
100000.26
100000.3
100000.34
100000.38
100000.42
100000.45
100000.48
100000.51
100000.54
100000.57
100000.6
100000.62
100000.65
100000.67
100000.7
100000.72
100000.74
100000.76
100000.78
100000.8
99999.278
99999.224
99999.172
99999.136
99999.114
99999.103
99999.103
99999.113
99999.133
99999.161
99999.197
99999.238
99999.286
99999.337
99999.392
99999.449
99999.508
99999.568
99999.628
99999.688
99999.747
99999.805
99999.862
99999.917
99999.97
100000.02
100000.07
100000.12
100000.16
100000.2
100000.25
100000.28
100000.32
100000.36
100000.39
100000.42
100000.45
100000.48
100000.51
100000.54
100000.57
100000.59
100000.61
100000.64
100000.66
100000.68
100000.7
100000.72
100000.74
99999.408
99999.358
99999.309
99999.274
99999.251
99999.238
99999.234
99999.24
99999.253
99999.275
99999.303
99999.337
99999.376
99999.42
99999.466
99999.515
99999.566
99999.619
99999.671
99999.724
99999.777
99999.829
99999.879
99999.929
99999.977
100000.02
100000.07
100000.11
100000.15
100000.19
100000.23
100000.27
100000.3
100000.34
100000.37
100000.4
100000.43
100000.46
100000.48
100000.51
100000.53
100000.56
100000.58
100000.6
100000.63
100000.65
100000.67
100000.69
100000.71
99999.529
99999.482
99999.436
99999.402
99999.378
99999.363
99999.357
99999.358
99999.367
99999.383
99999.405
99999.432
99999.464
99999.5
99999.539
99999.581
99999.624
99999.67
99999.715
99999.762
99999.808
99999.854
99999.899
99999.944
99999.987
100000.03
100000.07
100000.11
100000.15
100000.19
100000.22
100000.25
100000.29
100000.32
100000.35
100000.38
100000.4
100000.43
100000.46
100000.48
100000.51
100000.53
100000.55
100000.57
100000.59
100000.61
100000.63
100000.65
100000.67
99999.642
99999.599
99999.555
99999.522
99999.498
99999.481
99999.472
99999.47
99999.475
99999.485
99999.502
99999.523
99999.549
99999.578
99999.61
99999.645
99999.682
99999.721
99999.76
99999.801
99999.841
99999.882
99999.922
99999.961
100000
100000.04
100000.08
100000.11
100000.15
100000.18
100000.21
100000.24
100000.27
100000.3
100000.33
100000.36
100000.38
100000.41
100000.43
100000.45
100000.48
100000.5
100000.52
100000.54
100000.56
100000.58
100000.6
100000.62
100000.64
99999.748
99999.707
99999.666
99999.633
99999.609
99999.591
99999.58
99999.575
99999.576
99999.582
99999.594
99999.61
99999.63
99999.653
99999.68
99999.709
99999.74
99999.773
99999.806
99999.841
99999.876
99999.911
99999.946
99999.981
100000.02
100000.05
100000.08
100000.11
100000.15
100000.18
100000.21
100000.23
100000.26
100000.29
100000.31
100000.34
100000.36
100000.39
100000.41
100000.43
100000.45
100000.47
100000.49
100000.51
100000.53
100000.55
100000.57
100000.59
100000.6
99999.848
99999.809
99999.769
99999.738
99999.713
99999.694
99999.681
99999.674
99999.671
99999.674
99999.682
99999.693
99999.708
99999.727
99999.748
99999.771
99999.797
99999.824
99999.853
99999.882
99999.912
99999.942
99999.973
100000
100000.03
100000.06
100000.09
100000.12
100000.15
100000.18
100000.2
100000.23
100000.25
100000.28
100000.3
100000.32
100000.35
100000.37
100000.39
100000.41
100000.43
100000.45
100000.47
100000.48
100000.5
100000.52
100000.54
100000.55
100000.57
99999.942
99999.905
99999.867
99999.835
99999.81
99999.79
99999.776
99999.766
99999.761
99999.761
99999.765
99999.772
99999.783
99999.797
99999.814
99999.833
99999.854
99999.876
99999.9
99999.924
99999.95
99999.975
100000
100000.03
100000.05
100000.08
100000.11
100000.13
100000.15
100000.18
100000.2
100000.23
100000.25
100000.27
100000.29
100000.31
100000.33
100000.35
100000.37
100000.39
100000.41
100000.42
100000.44
100000.46
100000.48
100000.49
100000.51
100000.52
100000.54
100000.03
99999.996
99999.958
99999.926
99999.901
99999.88
99999.864
99999.853
99999.846
99999.843
99999.844
99999.848
99999.855
99999.866
99999.878
99999.893
99999.909
99999.927
99999.947
99999.967
99999.988
100000.01
100000.03
100000.05
100000.08
100000.1
100000.12
100000.14
100000.16
100000.18
100000.2
100000.23
100000.24
100000.26
100000.28
100000.3
100000.32
100000.34
100000.35
100000.37
100000.39
100000.4
100000.42
100000.43
100000.45
100000.47
100000.48
100000.5
100000.51
100000.12
100000.08
100000.04
100000.01
99999.985
99999.964
99999.947
99999.934
99999.925
99999.92
99999.919
99999.92
99999.924
99999.931
99999.94
99999.952
99999.964
99999.979
99999.994
100000.01
100000.03
100000.05
100000.06
100000.08
100000.1
100000.12
100000.14
100000.16
100000.17
100000.19
100000.21
100000.23
100000.24
100000.26
100000.28
100000.29
100000.31
100000.32
100000.34
100000.36
100000.37
100000.38
100000.4
100000.41
100000.43
100000.44
100000.46
100000.47
100000.48
100000.19
100000.16
100000.12
100000.09
100000.06
100000.04
100000.02
100000.01
99999.999
99999.993
99999.989
99999.988
99999.99
99999.995
100000
100000.01
100000.02
100000.03
100000.04
100000.05
100000.07
100000.08
100000.1
100000.11
100000.13
100000.14
100000.16
100000.17
100000.19
100000.2
100000.22
100000.23
100000.25
100000.26
100000.28
100000.29
100000.3
100000.32
100000.33
100000.34
100000.36
100000.37
100000.38
100000.39
100000.41
100000.42
100000.43
100000.44
100000.46
100000.27
100000.23
100000.19
100000.16
100000.14
100000.11
100000.09
100000.08
100000.07
100000.06
100000.06
100000.05
100000.05