/*--------------------------------*- C++ -*----------------------------------*\
| =========                 |                                                 |
| \\      /  F ield         | OpenFOAM: The Open Source CFD Toolbox           |
|  \\    /   O peration     | Version:  2312                                  |
|   \\  /    A nd           | Website:  www.openfoam.com                      |
|    \\/     M anipulation  |                                                 |
\*---------------------------------------------------------------------------*/
FoamFile
{
    version     2.0;
    format      ascii;
    arch        "LSB;label=32;scalar=64";
    class       surfaceScalarField;
    location    "0.1";
    object      phi;
}
// * * * * * * * * * * * * * * * * * * * * * * * * * * * * * * * * * * * * * //

dimensions      [1 0 -1 0 0 0 0];

oriented        oriented;

internalField   nonuniform List<scalar> 
6433
(
8.3110884e-07
3.3334111e-08
7.5672772e-07
7.4381206e-08
6.7572335e-07
8.1004411e-08
6.0224768e-07
7.3475702e-08
5.4126418e-07
6.0983538e-08
4.9200977e-07
4.925443e-08
4.5218149e-07
3.9828298e-08
4.1977471e-07
3.2406801e-08
3.9313325e-07
2.6641496e-08
3.7099357e-07
2.2139733e-08
3.5226776e-07
1.8725883e-08
3.3636029e-07
1.590755e-08
3.227791e-07
1.3581378e-08
3.1099394e-07
1.1785371e-08
3.006611e-07
1.0333055e-08
2.9150707e-07
9.1542362e-09
2.8332319e-07
8.1840533e-09
2.7595083e-07
7.3724689e-09
2.6926677e-07
6.684095e-09
2.6317256e-07
6.0941166e-09
2.5758756e-07
5.5847538e-09
2.5244496e-07
5.1421703e-09
2.4768919e-07
4.7551232e-09
2.4327338e-07
4.4148914e-09
2.3915774e-07
4.1144421e-09
2.3530818e-07
3.8480297e-09
2.3169537e-07
3.61092e-09
2.2829391e-07
3.3991822e-09
2.2508168e-07
3.2095295e-09
2.2203933e-07
3.0391967e-09
2.1914985e-07
2.8858426e-09
2.1639822e-07
2.7474745e-09
2.1377115e-07
2.6223867e-09
2.1125679e-07
2.5091119e-09
2.0884457e-07
2.4063811e-09
2.0652503e-07
2.3130924e-09
2.0428968e-07
2.228284e-09
2.0213085e-07
2.1511134e-09
2.0004164e-07
2.0808392e-09
1.9801578e-07
2.0168062e-09
1.9604761e-07
1.9584336e-09
1.9413197e-07
1.9052042e-09
1.9226417e-07
1.8566543e-09
1.9043993e-07
1.8123589e-09
1.8865537e-07
1.7719585e-09
1.8690691e-07
1.7351441e-09
1.8519129e-07
1.7016169e-09
1.8350553e-07
1.6711048e-09
1.8184688e-07
1.6433629e-09
1.8021284e-07
1.6181711e-09
1.7860111e-07
1.5953325e-09
1.5746479e-09
8.2167787e-07
7.6093774e-08
7.3990328e-07
1.5615613e-07
6.5902231e-07
1.6188581e-07
5.8912104e-07
1.433775e-07
5.317512e-07
1.1835398e-07
4.8520564e-07
9.5800679e-08
4.4728015e-07
7.7754553e-08
4.1618134e-07
6.3506455e-08
3.9044701e-07
5.2376766e-08
3.6894238e-07
4.3645382e-08
3.5067267e-07
3.6996716e-08
3.3509572e-07
3.1485675e-08
3.2175767e-07
2.6920787e-08
3.1015448e-07
2.3390013e-08
2.9996122e-07
2.0527827e-08
2.9091626e-07
1.8200753e-08
2.8281905e-07
1.6282844e-08
2.7551658e-07
1.4676529e-08
2.6888954e-07
1.3312692e-08
2.6284238e-07
1.2142786e-08
2.5729655e-07
1.1131991e-08
2.5218685e-07
1.0253155e-08
2.4745893e-07
9.4841728e-09
2.4306689e-07
8.807878e-09
2.3897163e-07
8.2104097e-09
2.3513969e-07
7.6804323e-09
2.3154219e-07
7.2085966e-09
2.281541e-07
6.7871324e-09
2.249536e-07
6.4095381e-09
2.219216e-07
6.0703391e-09
2.1904129e-07
5.7648983e-09
2.1629783e-07
5.4892658e-09
2.1367804e-07
5.2400592e-09
2.1117021e-07
5.0143669e-09
2.0876386e-07
4.8096708e-09
2.0644963e-07
4.6237827e-09
2.0421907e-07
4.4547926e-09
2.020646e-07
4.3010264e-09
1.9997934e-07
4.1610111e-09
1.9795711e-07
4.0334449e-09
1.9599224e-07
3.9171736e-09
1.9407964e-07
3.8111697e-09
1.9221463e-07
3.7145147e-09
1.9039297e-07
3.6263769e-09
1.8861077e-07
3.5460249e-09
1.868645e-07
3.4728237e-09
1.8515091e-07
3.4061804e-09
1.8346703e-07
3.3455483e-09
1.8181013e-07
3.2904371e-09
1.8017772e-07
3.240403e-09
1.7856752e-07
3.1950455e-09
3.1539825e-09
7.981291e-07
1.4245976e-07
7.0258564e-07
2.5169994e-07
6.251895e-07
2.3928241e-07
5.6355704e-07
2.0501052e-07
5.1341239e-07
1.6849929e-07
4.720212e-07
1.371926e-07
4.3773712e-07
1.1203944e-07
4.0916926e-07
9.2075215e-08
3.8518751e-07
7.635951e-08
3.6491296e-07
6.3921002e-08
3.4753079e-07
5.4380051e-08
3.3259852e-07
4.6419181e-08
3.1973606e-07
3.9784654e-08
3.0849072e-07
3.4636848e-08
2.9857251e-07
3.04476e-08
2.8974285e-07
2.7032022e-08
2.8181698e-07
2.4210343e-08
2.7465283e-07
2.184232e-08
2.6813879e-07
1.9828331e-08
2.6218492e-07
1.8098209e-08
2.5671685e-07
1.6601524e-08
2.5167251e-07
1.5298834e-08
2.4699995e-07
1.4157911e-08
2.4265514e-07
1.3153682e-08
2.3860045e-07
1.2265863e-08
2.3480357e-07
1.1477832e-08
2.3123653e-07
1.0775859e-08
2.2787506e-07
1.0148516e-08
2.2469795e-07
9.5862248e-09
2.2168657e-07
9.0809136e-09
2.1882454e-07
8.6257362e-09
2.1609734e-07
8.2148556e-09
2.1349208e-07
7.8432685e-09
2.1099726e-07
7.5066649e-09
2.0860263e-07
7.2013138e-09
2.0629896e-07
6.9239711e-09
2.0407797e-07
6.6718033e-09
2.0193218e-07
6.4423257e-09
1.9985483e-07
6.2333503e-09
1.978398e-07
6.0429433e-09
1.9588154e-07
5.8693888e-09
1.9397499e-07
5.7111594e-09
1.9211554e-07
5.5668897e-09
1.90299e-07
5.4353497e-09
1.8852153e-07
5.3154459e-09
1.8677963e-07
5.2062168e-09
1.8507009e-07
5.1067781e-09
1.8338996e-07
5.0163169e-09
1.8173655e-07
4.9341007e-09
1.801074e-07
4.8594649e-09
1.7850023e-07
4.7918068e-09
4.7305643e-09
7.4355825e-07
2.63496e-07
6.3788043e-07
3.5737817e-07
5.7371806e-07
3.0344529e-07
5.2693363e-07
2.5179558e-07
4.8747447e-07
2.0795917e-07
4.5320297e-07
1.7146488e-07
4.2405979e-07
1.4118352e-07
3.9906023e-07
1.1707575e-07
3.7755767e-07
9.7863141e-08
3.5903634e-07
8.2443481e-08
3.4292946e-07
7.0488172e-08
3.2892694e-07
6.0423013e-08
3.1675318e-07
5.1959892e-08
3.0603068e-07
4.5360922e-08
2.9651547e-07
3.9964438e-08
2.8800208e-07
3.5547096e-08
2.803285e-07
3.1885632e-08
2.7336842e-07
2.8804112e-08
2.670214e-07
2.6177028e-08
2.6120562e-07
2.3915617e-08
2.5585278e-07
2.1955902e-08
2.509054e-07
2.0247623e-08
2.4631506e-07
1.8749506e-08
2.4204045e-07
1.7429357e-08
2.380461e-07
1.6261052e-08
2.3430139e-07
1.5223132e-08
2.3077974e-07
1.4297826e-08
2.2745793e-07
1.3470311e-08
2.2431567e-07
1.2728143e-08
2.2133506e-07
1.2060812e-08
2.1850029e-07
1.1459393e-08
2.1579735e-07
1.0916264e-08
2.1321377e-07
1.0424884e-08
2.107384e-07
9.9796118e-09
2.0836126e-07
9.5755579e-09
2.0607338e-07
9.2084668e-09
2.0386668e-07
8.8746185e-09
2.0173386e-07
8.5707478e-09
1.9966832e-07
8.2939775e-09
1.9766408e-07
8.0417626e-09
1.9571568e-07
7.8118439e-09
1.9381817e-07
7.6022086e-09
1.9196704e-07
7.4110574e-09
1.9015816e-07
7.236773e-09
1.8838776e-07
7.0779104e-09
1.8665239e-07
6.9331877e-09
1.849489e-07
6.8014347e-09
1.8327439e-07
6.6815799e-09
1.8162621e-07
6.5726539e-09
1.8000192e-07
6.473776e-09
1.7839929e-07
6.3841448e-09
6.3030208e-09
6.1165997e-07
5.1579464e-07
5.3893278e-07
4.3010583e-07
5.0804072e-07
3.3433793e-07
4.8148537e-07
2.7835165e-07
4.5565553e-07
2.3378981e-07
4.3043123e-07
1.9669007e-07
4.0705971e-07
1.6455601e-07
3.8630335e-07
1.378332e-07
3.6784265e-07
1.1632501e-07
3.5149958e-07
9.8787806e-08
3.3699418e-07
8.4994912e-08
3.2416453e-07
7.325407e-08
3.128666e-07
6.3259409e-08
3.0281554e-07
5.5413653e-08
2.9382033e-07
4.8961384e-08
2.857165e-07
4.3652704e-08
2.7837069e-07
3.9233243e-08
2.7167649e-07
3.5500118e-08
2.655476e-07
3.2307694e-08
2.5991254e-07
2.9552402e-08
2.5471077e-07
2.7159304e-08
2.4989071e-07
2.5069188e-08
2.4540848e-07
2.3233098e-08
2.4122628e-07
2.1612714e-08
2.3731145e-07
2.0176829e-08
2.3363556e-07
1.8899714e-08
2.301738e-07
1.776e-08
2.269044e-07
1.6739811e-08
2.2380821e-07
1.5824101e-08
2.2086828e-07
1.5000136e-08
2.1806959e-07
1.4257078e-08
2.1539879e-07
1.3585655e-08
2.1284393e-07
1.2977897e-08
2.1039431e-07
1.2426916e-08
2.0804036e-07
1.1926738e-08
2.057734e-07
1.1472154e-08
2.0358566e-07
1.1058604e-08
2.0147005e-07
1.0682084e-08
1.9942018e-07
1.0339061e-08
1.9743024e-07
1.0026406e-08
1.9549494e-07
9.7413394e-09
1.9360944e-07
9.4813841e-09
1.9176935e-07
9.2443232e-09
1.8997064e-07
9.0281662e-09
1.8820962e-07
8.8311293e-09
1.8648294e-07
8.6516205e-09
1.847875e-07
8.4881922e-09
1.8312046e-07
8.339522e-09
1.8147922e-07
8.2044109e-09
1.798614e-07
8.081768e-09
1.782648e-07
7.9705988e-09
7.8699896e-09
3.0080909e-07
3.04843e-07
3.7732581e-07
3.5358961e-07
3.8914705e-07
3.2251731e-07
3.8468572e-07
2.828137e-07
3.7334216e-07
2.4513418e-07
3.5934232e-07
2.106908e-07
3.4431764e-07
1.7958166e-07
3.2967203e-07
1.5247987e-07
3.1614396e-07
1.2985421e-07
3.0374839e-07
1.111846e-07
2.9245069e-07
9.6293913e-08
2.8222782e-07
8.3478289e-08
2.7308744e-07
7.2401297e-08
2.6485403e-07
6.3648643e-08
2.5740915e-07
5.6407898e-08
2.5064522e-07
5.0418311e-08
2.4447171e-07
4.5408459e-08
2.3881367e-07
4.1159858e-08
2.3360851e-07
3.7514525e-08
2.2880309e-07
3.4359448e-08
2.2435149e-07
3.1612451e-08
2.2021388e-07
2.9208232e-08
2.1635592e-07
2.7092361e-08
2.1274771e-07
2.5222065e-08
2.0936309e-07
2.3562387e-08
2.0617914e-07
2.2084386e-08
2.0317567e-07
2.0763945e-08
2.0033485e-07
1.9580825e-08
1.976409e-07
1.8517947e-08
1.9507979e-07
1.7560818e-08
1.9263903e-07
1.6697076e-08
1.9030743e-07
1.5916123e-08
1.8807497e-07
1.5208832e-08
1.8593266e-07
1.4567303e-08
1.8387239e-07
1.398467e-08
1.8188684e-07
1.3454942e-08
1.7996937e-07
1.2972865e-08
1.7811399e-07
1.253382e-08
1.7631522e-07
1.2133727e-08
1.745681e-07
1.1768969e-08
1.728681e-07
1.1436332e-08
1.7121108e-07
1.1132945e-08
1.6959326e-07
1.085624e-08
1.6801118e-07
1.060391e-08
1.6646167e-07
1.0373884e-08
1.6494182e-07
1.0164307e-08
1.6344898e-07
9.9734939e-09
1.6198069e-07
9.799909e-09
1.605347e-07
9.6421569e-09
1.5910896e-07
9.4989666e-09
1.5770155e-07
9.3691781e-09
9.2517277e-09
2.0646185e-07
1.9081081e-07
3.0508906e-07
2.5496302e-07
3.4261857e-07
2.8498854e-07
3.5431961e-07
2.7111353e-07
3.5352613e-07
2.4592864e-07
3.4668049e-07
2.1753748e-07
3.3678178e-07
1.894815e-07
3.2561791e-07
1.6364492e-07
3.145236e-07
1.4094981e-07
3.0394832e-07
1.2176126e-07
2.9398836e-07
1.0625533e-07
2.8471324e-07
9.2754919e-08
2.7624142e-07
8.0874791e-08
2.6851228e-07
7.1379519e-08
2.6143403e-07
6.3487951e-08
2.5493854e-07
5.6915649e-08
2.4896209e-07
5.138677e-08
2.434482e-07
4.6675617e-08
2.3834729e-07
4.2617265e-08
2.3361573e-07
3.9092799e-08
2.2921466e-07
3.6015228e-08
2.2510956e-07
3.3314922e-08
2.2127011e-07
3.0933272e-08
2.1766947e-07
2.8823987e-08
2.1428388e-07
2.6949064e-08
2.1109225e-07
2.5276884e-08
2.0807581e-07
2.3780988e-08
2.0521788e-07
2.2439087e-08
2.0250354e-07
2.1232307e-08
1.9991947e-07
2.0144582e-08
1.9745372e-07
1.9162174e-08
1.9509553e-07
1.8273273e-08
1.9283526e-07
1.7467684e-08
1.9066416e-07
1.6736566e-08
1.8857434e-07
1.607222e-08
1.8655867e-07
1.5467916e-08
1.8461065e-07
1.4917742e-08
1.8272437e-07
1.4416494e-08
1.8089446e-07
1.3959569e-08
1.7911602e-07
1.354288e-08
1.7738457e-07
1.316279e-08
1.7569601e-07
1.2816052e-08
1.7404659e-07
1.2499755e-08
1.7243287e-07
1.2211282e-08
1.708517e-07
1.1948282e-08
1.6930017e-07
1.1708642e-08
1.6777564e-07
1.1490444e-08
1.6627566e-07
1.1291941e-08
1.6479798e-07
1.1111544e-08
1.6334053e-07
1.0947804e-08
1.6190141e-07
1.0799398e-08
1.0665112e-08
1.6959279e-07
1.1627611e-07
2.5340329e-07
1.7115329e-07
3.0070955e-07
2.376832e-07
3.236752e-07
2.4814892e-07
3.3201726e-07
2.3758772e-07
3.3197538e-07
2.1758058e-07
3.2722949e-07
1.9422869e-07
3.1993192e-07
1.7094386e-07
3.1152107e-07
1.4936214e-07
3.0293453e-07
1.3034935e-07
2.9452772e-07
1.1466379e-07
2.8638482e-07
1.0089952e-07
2.7871613e-07
8.8545338e-08
2.7160918e-07
7.8488407e-08
2.6499627e-07
7.0102857e-08
2.5885059e-07
6.3063368e-08
2.5313874e-07
5.7100676e-08
2.4782537e-07
5.199105e-08
2.42876e-07
4.7568665e-08
2.3825813e-07
4.3712651e-08
2.3394132e-07
4.0333937e-08
2.2989742e-07
3.7360599e-08
2.2610099e-07
3.4731346e-08
2.2252897e-07
3.239747e-08
2.1916054e-07
3.0318759e-08
2.1597691e-07
2.8461552e-08
2.1296114e-07
2.6797539e-08
2.1009796e-07
2.5302759e-08
2.0737361e-07
2.3956836e-08
2.0477567e-07
2.2742365e-08
2.0229292e-07
2.1644409e-08
1.999152e-07
2.065009e-08
1.9763332e-07
1.9748262e-08
1.9543894e-07
1.8929231e-08
1.9332447e-07
1.818454e-08
1.9128301e-07
1.7506775e-08
1.8930828e-07
1.6889418e-08
1.8739453e-07
1.6326715e-08
1.8553653e-07
1.5813571e-08
1.8372949e-07
1.5345456e-08
1.81969e-07
1.4918333e-08
1.8025105e-07
1.4528591e-08
1.7857194e-07
1.4172991e-08
1.7692828e-07
1.3848619e-08
1.7531695e-07
1.3552854e-08
1.7373507e-07
1.328333e-08
1.7218003e-07
1.3037904e-08
1.7064939e-07
1.2814623e-08
1.6914091e-07
1.2611707e-08
1.6765254e-07
1.2427534e-08
1.6618239e-07
1.2260619e-08
1.2109603e-08
1.4996916e-07
6.401379e-08
2.1562835e-07
1.0549505e-07
2.6428783e-07
1.8902484e-07
2.9416088e-07
2.1827712e-07
3.0974896e-07
2.2200101e-07
3.1591478e-07
2.114162e-07
3.1609688e-07
1.940481e-07
3.1269989e-07
1.7434245e-07
3.0723147e-07
1.5483225e-07
3.0075603e-07
1.3682656e-07
2.9405654e-07
1.2136515e-07
2.8723623e-07
1.0772179e-07
2.804953e-07
9.528833e-08
2.7411042e-07
8.4875457e-08
2.6805979e-07
7.6155719e-08
2.6234582e-07
6.877961e-08
2.5696755e-07
6.248124e-08
2.5191306e-07
5.7047823e-08
2.4716474e-07
5.2319245e-08
2.4270268e-07
4.8176922e-08
2.3850608e-07
4.4532659e-08
2.345542e-07
4.1314488e-08
2.3082728e-07
3.8460122e-08
2.2730676e-07
3.5919677e-08
2.239753e-07
3.3651691e-08
2.208169e-07
3.1621199e-08
2.1781681e-07
2.979861e-08
2.1496153e-07
2.815873e-08
2.122387e-07
2.6680035e-08
2.0963705e-07
2.534405e-08
2.0714626e-07
2.413486e-08
2.0475693e-07
2.3038692e-08
2.0246047e-07
2.2043583e-08
2.0024904e-07
2.1139103e-08
1.9811545e-07
2.0316122e-08
1.9605314e-07
1.9566619e-08
1.940561e-07
1.8883526e-08
1.9211882e-07
1.8260588e-08
1.9023625e-07
1.7692258e-08
1.8840374e-07
1.7173595e-08
1.8661703e-07
1.6700189e-08
1.848722e-07
1.6268087e-08
1.8316565e-07
1.5873742e-08
1.8149405e-07
1.5513956e-08
1.7985435e-07
1.5185848e-08
1.7824372e-07
1.4886816e-08
1.7665958e-07
1.4614496e-08
1.7509954e-07
1.4366736e-08
1.7356137e-07
1.4141574e-08
1.7204307e-07
1.3937219e-08
1.7054273e-07
1.3752028e-08
1.3584498e-08
1.3688295e-07
2.754439e-08
1.8719381e-07
5.5185364e-08
2.3345668e-07
1.4276332e-07
2.6681397e-07
1.8492132e-07
2.8768511e-07
2.0113147e-07
2.9909686e-07
2.0000614e-07
3.0384511e-07
1.8930163e-07
3.0417122e-07
1.7401819e-07
3.0172158e-07
1.5728384e-07
2.9755363e-07
1.4099655e-07
2.9259789e-07
1.2632303e-07
2.8722302e-07
1.1309888e-07
2.8156289e-07
1.0095078e-07
2.7599042e-07
9.0450368e-08
2.705946e-07
8.1554045e-08
2.6539249e-07
7.3984259e-08
2.6041682e-07
6.7459471e-08
2.5568056e-07
6.178664e-08
2.511843e-07
5.6818038e-08
2.4692191e-07
5.2441781e-08
2.4288333e-07
4.8573625e-08
2.3905613e-07
4.5143962e-08
2.3542702e-07
4.2091343e-08
2.3198258e-07
3.9366065e-08
2.2870952e-07
3.6926479e-08
2.2559507e-07
3.4737146e-08
2.2262707e-07
3.2767833e-08
2.1979411e-07
3.0992624e-08
2.1708551e-07
2.938924e-08
2.1449136e-07
2.7938456e-08
2.1200247e-07
2.662363e-08
2.0961035e-07
2.5430298e-08
2.0730716e-07
2.4345847e-08
2.0508566e-07
2.3359236e-08
2.0293919e-07
2.2460773e-08
2.0086161e-07
2.1641918e-08
1.9884726e-07
2.089512e-08
1.9689092e-07
2.0213687e-08
1.9498778e-07
1.9591666e-08
1.931334e-07
1.9023746e-08
1.913237e-07
1.8505174e-08
1.895549e-07
1.8031687e-08
1.878235e-07
1.7599449e-08
1.8612631e-07
1.7205e-08
1.8446033e-07
1.6845216e-08
1.8282283e-07
1.6517268e-08
1.8121128e-07
1.6218586e-08
1.7962333e-07
1.5946828e-08
1.7805682e-07
1.5699856e-08
1.7650976e-07
1.5475717e-08
1.749803e-07
1.5272619e-08
1.5088918e-08
1.2825092e-07
2.4889158e-09
1.6603112e-07
1.7406584e-08
2.0798723e-07
1.0080883e-07
2.4226583e-07
1.5064451e-07
2.6657525e-07
1.7682396e-07
2.8211972e-07
1.8446367e-07
2.90868e-07
1.8055543e-07
2.9468801e-07
1.7020035e-07
2.9513907e-07
1.5683504e-07
2.9335424e-07
1.4278373e-07
2.902313e-07
1.2944839e-07
2.8635272e-07
1.1698001e-07
2.8191813e-07
1.0538803e-07
2.7724848e-07
9.5122763e-08
2.7257783e-07
8.6227503e-08
2.6796361e-07
7.8601338e-08
2.6345818e-07
7.1967781e-08
2.5909931e-07
6.6148383e-08
2.5490673e-07
6.1013467e-08
2.50889e-07
5.6462296e-08
2.4704763e-07
5.2417691e-08
2.4337928e-07
4.881489e-08
2.3987784e-07
4.5595202e-08
2.365356e-07
4.2710555e-08
2.3334385e-07
4.012026e-08
2.3029348e-07
3.7789301e-08
2.2737532e-07
3.5687516e-08
2.2458033e-07
3.3788823e-08
2.2189983e-07
3.2070632e-08
2.1932549e-07
3.0513331e-08
2.1684943e-07
2.9099835e-08
2.1446426e-07
2.7815221e-08
2.1216302e-07
2.6646411e-08
2.0993923e-07
2.558191e-08
2.0778684e-07
2.4611587e-08
2.0570023e-07
2.3726482e-08
2.0367416e-07
2.291865e-08
2.0170379e-07
2.2181028e-08
1.9978461e-07
2.1507316e-08
1.9791245e-07
2.0891879e-08
1.9608343e-07
2.0329664e-08
1.9429396e-07
1.981613e-08
1.9254072e-07
1.9347179e-08
1.9082061e-07
1.8919114e-08
1.8913079e-07
1.8528584e-08
1.874686e-07
1.8172554e-08
1.858316e-07
1.7848261e-08
1.8421751e-07
1.7553186e-08
1.8262425e-07
1.7285024e-08
1.8104985e-07
1.7041668e-08
1.7949254e-07
1.6821182e-08
1.6621793e-08
1.2291313e-07
-1.4368841e-08
1.5074144e-07
-1.0420072e-08
1.8745666e-07
6.4095534e-08
2.208222e-07
1.1728109e-07
2.4695345e-07
1.5069496e-07
2.6551302e-07
1.6590645e-07
2.7756236e-07
1.6850851e-07
2.8452056e-07
1.6324467e-07
2.8770263e-07
1.5365558e-07
2.8824503e-07
1.4224404e-07
2.8704925e-07
1.3064698e-07
2.8468811e-07
1.1934405e-07
2.815366e-07
1.0854256e-07
2.7788613e-07
9.8776347e-08
2.7399548e-07
9.0121334e-08
2.7003812e-07
8.2561921e-08
2.6606734e-07
7.5941805e-08
2.6214362e-07
7.0075346e-08
2.5830598e-07
6.4854315e-08
2.5457825e-07
6.0193178e-08
2.509741e-07
5.6024901e-08
2.4749987e-07
5.229205e-08
2.441572e-07
4.8940657e-08
2.409446e-07
4.5925764e-08
2.3785839e-07
4.320885e-08
2.3489355e-07
4.0756281e-08
2.3204421e-07
3.8538719e-08
2.2930407e-07
3.653052e-08
2.2666665e-07
3.4709275e-08
2.2412547e-07
3.3055372e-08
2.2167418e-07
3.1551608e-08
2.1930661e-07
3.0182856e-08
2.1701688e-07
2.8935785e-08
2.1479935e-07
2.7798619e-08
2.1264873e-07
2.6760926e-08
2.1056001e-07
2.5813448e-08
2.0852846e-07
2.494794e-08
2.0654969e-07
2.4157048e-08
2.0461955e-07
2.3434192e-08
2.0273418e-07
2.277347e-08
2.0088999e-07
2.2169577e-08
1.990836e-07
2.1617728e-08
1.973119e-07
2.1113603e-08
1.9557195e-07
2.0653289e-08
1.9386106e-07
2.0233239e-08
1.9217669e-07
1.9850228e-08
1.9051651e-07
1.9501318e-08
1.8887834e-07
1.9183824e-08
1.8726016e-07
1.8895292e-08
1.856601e-07
1.8633469e-08
1.8407642e-07
1.8396287e-08
1.8181846e-08
1.1992141e-07
-2.5295953e-08
1.4006241e-07
-3.0559182e-08
1.7129892e-07
3.286128e-08
2.0254143e-07
8.6041082e-08
2.2916945e-07
1.2406958e-07
2.4968801e-07
1.4539065e-07
2.6431206e-07
1.538873e-07
2.7394574e-07
1.5361392e-07
2.7963915e-07
1.4796521e-07
2.8238678e-07
1.3949953e-07
2.830811e-07
1.2995588e-07
2.8230497e-07
1.2012352e-07
2.8044991e-07
1.1040105e-07
2.7788062e-07
1.0134918e-07
2.7485614e-07
9.3149421e-08
2.7160092e-07
8.5820786e-08
2.6822497e-07
7.9321429e-08
2.647914e-07
7.3512582e-08
2.6135854e-07
6.8290802e-08
2.5796568e-07
6.3589618e-08
2.5463892e-07
5.9355136e-08
2.5139469e-07
5.5539632e-08
2.4824275e-07
5.2095801e-08
2.4518824e-07
4.8983287e-08
2.4223293e-07
4.6166965e-08
2.3937619e-07
4.3615566e-08
2.3661581e-07
4.1301369e-08
2.3394849e-07
3.9199805e-08
2.3137022e-07
3.7289166e-08
2.2887659e-07
3.5550264e-08
2.2646294e-07
3.3966122e-08
2.2412455e-07
3.2521696e-08
2.2185672e-07
3.1203631e-08
2.1965484e-07
3.000006e-08
2.1751443e-07
2.8900415e-08
2.1543121e-07
2.7895262e-08
2.1340108e-07
2.6976171e-08
2.1142012e-07
2.6135585e-08
2.0948466e-07
2.5366723e-08
2.075912e-07
2.4663479e-08
2.0573647e-07
2.4020346e-08
2.0391737e-07
2.3432347e-08
2.0213102e-07
2.2894974e-08
2.003747e-07
2.2404134e-08
1.9864588e-07
2.1956107e-08
1.9694219e-07
2.1547506e-08
1.9526143e-07
2.1175236e-08
1.9360152e-07
2.0836467e-08
1.9196056e-07
2.0528605e-08
1.9033676e-07
2.0249267e-08
1.8872846e-07
1.9996264e-08
1.976758e-08
1.1865844e-07
-3.1940302e-08
1.3293937e-07
-4.4837976e-08
1.589014e-07
6.9018395e-09
1.8730961e-07
5.763577e-08
2.1341328e-07
9.7969e-08
2.3495328e-07
1.2385385e-07
2.5143433e-07
1.3740957e-07
2.6325034e-07
1.4180131e-07
2.7114577e-07
1.4007329e-07
2.7594565e-07
1.3470326e-07
2.7843828e-07
1.2746697e-07
2.7922499e-07
1.1934064e-07
2.7870126e-07
1.109287e-07
2.772482e-07
1.0280625e-07
2.7516092e-07
9.52408e-08
2.7265951e-07
8.8326343e-08
2.6991781e-07
8.2067294e-08
2.670248e-07
7.6409748e-08
2.6404401e-07
7.1275709e-08
2.6102951e-07
6.6608183e-08
2.5801978e-07
6.2368833e-08
2.5504145e-07
5.8521799e-08
2.5211263e-07
5.5028311e-08
2.4924538e-07
5.1854039e-08
2.4644715e-07
4.8968477e-08
2.4372204e-07
4.6343703e-08
2.4107175e-07
4.3954416e-08
2.3849621e-07
4.1777777e-08
2.3599415e-07
3.9793321e-08
2.3356341e-07
3.7982733e-08
2.3120123e-07
3.6329632e-08
2.2890448e-07
3.4819354e-08
2.266698e-07
3.3438776e-08
2.2449371e-07
3.2176148e-08
2.2237271e-07
3.1020934e-08
2.2030332e-07
2.9963676e-08
2.1828214e-07
2.8995872e-08
2.1630586e-07
2.8109869e-08
2.143713e-07
2.7298767e-08
2.124754e-07
2.6556329e-08
2.1061527e-07
2.587691e-08
2.0878814e-07
2.5255388e-08
2.0699141e-07
2.4687113e-08
2.0522259e-07
2.4167849e-08
2.0347938e-07
2.3693737e-08
2.0175959e-07
2.3261252e-08
2.0006116e-07
2.2867168e-08
1.9838219e-07
2.2508529e-08
1.9672088e-07
2.2182619e-08
1.9507554e-07
2.1886941e-08
1.9344463e-07
2.1619194e-08
2.1377261e-08
1.1872047e-07
-3.5543764e-08
1.2855201e-07
-5.4667153e-08
1.4967965e-07
-1.4222854e-08
1.7490869e-07
3.2410068e-08
1.9974796e-07
7.3133294e-08
2.2151964e-07
1.020859e-07
2.39186e-07
1.1974706e-07
2.52682e-07
1.2830927e-07
2.6243295e-07
1.303264e-07
2.6906848e-07
1.2807189e-07
2.7325119e-07
1.2328853e-07
2.7553087e-07
1.1706535e-07
2.763327e-07
1.1013137e-07
2.7601899e-07
1.0312454e-07
2.7489991e-07
9.6364546e-08
2.7321529e-07
9.001567e-08
2.7114594e-07
8.4141381e-08
2.6883096e-07
7.8729444e-08
2.6634568e-07
7.3765681e-08
2.6375073e-07
6.9207754e-08
2.6109636e-07
6.5027742e-08
2.5841926e-07
6.1203306e-08
2.5574589e-07
5.7705938e-08
2.5309534e-07
5.4508653e-08
2.5048093e-07
5.158673e-08
2.4791168e-07
4.8916548e-08
2.4539338e-07
4.6476019e-08
2.4292946e-07
4.424469e-08
2.4052154e-07
4.2203891e-08
2.3816991e-07
4.0336639e-08
2.3587388e-07
3.8627534e-08
2.3363207e-07
3.7062613e-08
2.314426e-07
3.5629249e-08
2.2930325e-07
3.431603e-08
2.272116e-07
3.311264e-08
2.2516507e-07
3.200975e-08
2.2316105e-07
3.0998921e-08
2.2119692e-07
3.0072515e-08
2.1927006e-07
2.9223605e-08
2.1737794e-07
2.8445905e-08
2.1551807e-07
2.7733697e-08
2.1368808e-07
2.7081775e-08
2.1188568e-07
2.6485394e-08
2.1010869e-07
2.5940219e-08
2.0835502e-07
2.5442285e-08
2.0662273e-07
2.4987963e-08
2.0490994e-07
2.4573922e-08
2.032149e-07
2.4197103e-08
2.0153598e-07
2.3854689e-08
1.9987162e-07
2.3544084e-08
1.9822038e-07
2.3262893e-08
2.3008909e-08
1.1980591e-07
-3.704432e-08
1.2626753e-07
-6.1126182e-08
1.4310792e-07
-3.1059951e-08
1.6506752e-07
1.0454269e-08
1.8814296e-07
5.0061952e-08
2.0951193e-07
8.0721226e-08
2.2776346e-07
1.0149997e-07
2.4245012e-07
1.1362717e-07
2.536947e-07
1.1908651e-07
2.6191379e-07
1.198576e-07
2.6763275e-07
1.1757449e-07
2.7132842e-07
1.1337471e-07
2.7340187e-07
1.0806306e-07
2.742266e-07
1.0230504e-07
2.7409497e-07
9.6501482e-08
2.7325894e-07
9.0857062e-08
2.7191428e-07
8.5491426e-08
2.7020648e-07
8.044262e-08
2.6825113e-07
7.5726375e-08
2.661136e-07
7.1350554e-08
2.6385083e-07
6.7295701e-08
2.6150904e-07
6.3550161e-08
2.5912283e-07
6.0097057e-08
2.5671828e-07
5.6917919e-08
2.5431461e-07
5.3994895e-08
2.5192585e-07
5.1309556e-08
2.4956205e-07
4.8843782e-08
2.4723024e-07
4.6580137e-08
2.4493513e-07
4.4502298e-08
2.4267961e-07
4.259508e-08
2.4046521e-07
4.0844455e-08
2.3829242e-07
3.923749e-08
2.3616098e-07
3.7762325e-08
2.3407006e-07
3.6408121e-08
2.3201839e-07
3.5164981e-08
2.3000444e-07
3.402387e-08
2.2802646e-07
3.2976553e-08
2.2608257e-07
3.2015526e-08
2.2417082e-07
3.1133939e-08
2.2228924e-07
3.0325541e-08
2.2043583e-07
2.9584619e-08
2.1860865e-07
2.8905945e-08
2.1680578e-07
2.8284732e-08
2.1502536e-07
2.7716593e-08
2.132656e-07
2.7197501e-08
2.115248e-07
2.6723754e-08
2.098013e-07
2.6291948e-08
2.0809356e-07
2.5898946e-08
2.064001e-07
2.5541853e-08
2.0471953e-07
2.5217994e-08
2.0305054e-07
2.4924896e-08
2.466028e-08
1.2167435e-07
-3.7137185e-08
1.255946e-07
-6.5043632e-08
1.3872602e-07
-4.4187719e-08
1.5749594e-07
-8.311385e-09
1.7850351e-07
2.9059053e-08
1.9898403e-07
6.0245622e-08
2.1730597e-07
8.3183129e-08
2.327268e-07
9.8211588e-08
2.4510124e-07
1.0671746e-07
2.5463604e-07
1.1032832e-07
2.6170617e-07
1.1051001e-07
2.6670619e-07
1.0838045e-07
2.6999375e-07
1.0478137e-07
2.7191536e-07
1.003894e-07
2.7277391e-07
9.5648983e-08
2.7280469e-07
9.0832383e-08
2.7221402e-07
8.6088227e-08
2.7115725e-07
8.1505522e-08
2.697551e-07
7.7134621e-08
2.6810616e-07
7.3005523e-08
2.6626831e-07
6.9139492e-08
2.6429399e-07
6.5530303e-08
2.6222546e-07
6.217125e-08
2.6009558e-07
5.9053273e-08
2.5792936e-07
5.6166374e-08
2.5574581e-07
5.349811e-08
2.5355929e-07
5.1035017e-08
2.5138056e-07
4.8763266e-08
2.492175e-07
4.6669416e-08
2.4707572e-07
4.4740538e-08
2.4495908e-07
4.2964365e-08
2.4287009e-07
4.1329319e-08
2.4081021e-07
3.9824593e-08
2.3878008e-07
3.8440159e-08
2.3677974e-07
3.7166742e-08
2.3480874e-07
3.5995777e-08
2.328663e-07
3.491938e-08
2.3095137e-07
3.3930308e-08
2.2906272e-07
3.3021899e-08
2.27199e-07
3.2188031e-08
2.2535879e-07
3.1423072e-08
2.2354059e-07
3.0721844e-08
2.2174291e-07
3.0079579e-08
2.1996428e-07
2.9491887e-08
2.1820322e-07
2.8954721e-08
2.1645831e-07
2.846435e-08
2.1472816e-07
2.8017327e-08
2.1301143e-07
2.7610468e-08
2.1130686e-07
2.7240823e-08
2.0961322e-07
2.6905661e-08
2.0792937e-07
2.6602452e-08
2.6328858e-08
1.2413566e-07
-3.6325032e-08
1.261521e-07
-6.7057066e-08
1.3613784e-07
-5.416945e-08
1.5190603e-07
-2.4074822e-08
1.7069441e-07
1.0275939e-08
1.8993437e-07
4.1011259e-08
2.0790191e-07
6.5221421e-08
2.2364657e-07
8.2472948e-08
2.3680003e-07
9.3570193e-08
2.4737501e-07
9.9759675e-08
2.5559633e-07
1.0229516e-07
2.6176219e-07
1.0222119e-07
2.6617933e-07
1.0037094e-07
2.6915499e-07
9.742056e-08
2.7097194e-07
9.3838927e-08
2.7187496e-07
8.9936309e-08
2.7205451e-07
8.5915665e-08
2.7167492e-07
8.1892101e-08
2.7086332e-07
7.795319e-08
2.6972225e-07
7.4153499e-08
2.6833731e-07
7.0531242e-08
2.6675997e-07
6.7114328e-08
2.6503786e-07
6.3899893e-08
2.6321018e-07
6.0887309e-08
2.6130746e-07
5.8075237e-08
2.5935356e-07
5.5457886e-08
2.5736713e-07
5.3027049e-08
2.5536265e-07
5.0773032e-08
2.5335123e-07
4.8685776e-08
2.5134128e-07
4.6755044e-08
2.4933909e-07
4.4970709e-08
2.4734926e-07
4.332287e-08
2.4537507e-07
4.1802048e-08
2.4341874e-07
4.0399273e-08
2.4148168e-07
3.91061e-08
2.3956462e-07
3.7914609e-08
2.3766783e-07
3.6817423e-08
2.3579116e-07
3.5807694e-08
2.3393418e-07
3.4879062e-08
2.3209621e-07
3.4025632e-08
2.3027644e-07
3.3241942e-08
2.284739e-07
3.2522934e-08
2.2668759e-07
3.1863922e-08
2.2491641e-07
3.1260572e-08
2.2315928e-07
3.0708865e-08
2.2141508e-07
3.020508e-08
2.1968271e-07
2.9745766e-08
2.179611e-07
2.9327722e-08
2.1624919e-07
2.8947974e-08
2.1454596e-07
2.8603759e-08
2.1285044e-07
2.8292509e-08
2.8011841e-08
1.2704427e-07
-3.4962458e-08
1.2764717e-07
-6.7656739e-08
1.3500767e-07
-6.15256e-08
1.4802512e-07
-3.708701e-08
1.6455821e-07
-6.251261e-09
1.8232039e-07
2.3255403e-08
1.9959656e-07
4.7951884e-08
2.1530843e-07
6.6767942e-08
2.2891417e-07
7.9971527e-08
2.4025688e-07
8.842421e-08
2.4941926e-07
9.3140183e-08
2.5659888e-07
9.5049107e-08
2.6203858e-07
9.4938909e-08
2.660036e-07
9.3463321e-08
2.6874716e-07
9.1103228e-08
2.7049805e-07
8.8193343e-08
2.7145379e-07
8.4967884e-08
2.7176572e-07
8.1588152e-08
2.7156792e-07
7.815895e-08
2.7096689e-07
7.4762429e-08
2.7005136e-07
7.1454598e-08
2.6889597e-07
6.827741e-08
2.6754663e-07
6.5256779e-08
2.66047e-07
6.2394308e-08
2.644327e-07
5.9696682e-08
2.6273224e-07
5.7165252e-08
2.6096835e-07
5.4797558e-08
2.5915921e-07
5.2588481e-08
2.5731915e-07
5.0531803e-08
2.554594e-07
4.8620377e-08
2.5358872e-07
4.6846576e-08
2.5171386e-07
4.5202478e-08
2.4984e-07
4.3680201e-08
2.4797101e-07
4.2272076e-08
2.4610973e-07
4.0970695e-08
2.4425819e-07
3.976896e-08
2.4241773e-07
3.8660162e-08
2.4058918e-07
3.7637982e-08
2.3877297e-07
3.669648e-08
2.3696916e-07
3.5830095e-08
2.351776e-07
3.503362e-08
2.3339791e-07
3.4302198e-08
2.3162958e-07
3.3631294e-08
2.2987199e-07
3.3016685e-08
2.2812445e-07
3.2454434e-08
2.263862e-07
3.1940875e-08
2.2465647e-07
3.1472593e-08
2.2293444e-07
3.1046405e-08
2.2121933e-07
3.0659343e-08
2.1951034e-07
3.0308639e-08
2.1780669e-07
2.9991711e-08
1.3029231e-07
-3.3293577e-08
1.2985801e-07
-6.7219005e-08
1.3505583e-07
-6.6718721e-08
1.456034e-07
-4.7628813e-08
1.5992864e-07
-2.0569955e-08
1.7607116e-07
7.1199828e-09
1.9240036e-07
3.1630182e-08
2.0777949e-07
5.1396609e-08
2.2154253e-07
6.6216548e-08
2.3339227e-07
7.6582734e-08
2.4328321e-07
8.3257689e-08
2.5131381e-07
8.7027124e-08
2.5765729e-07
8.860418e-08
2.6252828e-07
8.8601206e-08
2.6614819e-07
8.7492283e-08
2.6872256e-07
8.5628011e-08
2.7043519e-07
8.326433e-08
2.7144417e-07
8.0588272e-08
2.7187299e-07
7.7739228e-08
2.7183277e-07
7.4811712e-08
2.7141458e-07
7.1881753e-08
2.7069565e-07
6.9005211e-08
2.697412e-07
6.621994e-08
2.6859325e-07
6.3550791e-08
2.6729074e-07
6.1007522e-08
2.6586638e-07
5.8597693e-08
2.6434681e-07
5.6324941e-08
2.6275372e-07
5.4189061e-08
2.611046e-07
5.2188081e-08
2.5941346e-07
5.0318293e-08
2.5769152e-07
4.8574891e-08
2.5594774e-07
4.6952208e-08
2.5418922e-07
4.5444215e-08
2.5242154e-07
4.4044775e-08
2.5064904e-07
4.2747723e-08
2.4887505e-07
4.1546959e-08
2.471021e-07
4.0436594e-08
2.4533205e-07
3.941098e-08
2.4356621e-07
3.846472e-08
2.4180548e-07
3.7592689e-08
2.4005039e-07
3.679003e-08
2.3830121e-07
3.6052166e-08
2.3655797e-07
3.5374784e-08
2.3482056e-07
3.4753835e-08
2.3308871e-07
3.4185519e-08
2.3136207e-07
3.3666273e-08
2.296402e-07
3.319276e-08
2.2792263e-07
3.2761852e-08
2.2620883e-07
3.237062e-08
2.2449825e-07
3.201632e-08
3.1696375e-08
1.3380166e-07
-3.1481732e-08
1.3261828e-07
-6.6031982e-08
1.3605375e-07
-7.0149131e-08
1.4441835e-07
-5.5987129e-08
1.5664041e-07
-3.2784791e-08
1.710979e-07
-7.3295837e-09
1.8629697e-07
1.6439535e-08
2.0109946e-07
3.6602941e-08
2.1476108e-07
5.2564074e-08
2.2687553e-07
6.4477682e-08
2.3728694e-07
7.2855913e-08
2.4600071e-07
7.8323165e-08
2.531191e-07
8.1495772e-08
2.5880222e-07
8.2928192e-08
2.6323222e-07
8.3072502e-08
2.6658954e-07
8.2281001e-08
2.690398e-07
8.0824427e-08
2.7073028e-07