/*--------------------------------*- C++ -*----------------------------------*\
| =========                 |                                                 |
| \\      /  F ield         | OpenFOAM: The Open Source CFD Toolbox           |
|  \\    /   O peration     | Version:  2312                                  |
|   \\  /    A nd           | Website:  www.openfoam.com                      |
|    \\/     M anipulation  |                                                 |
\*---------------------------------------------------------------------------*/
FoamFile
{
    version     2.0;
    format      ascii;
    arch        "LSB;label=32;scalar=64";
    class       volVectorField;
    location    "0.1";
    object      U;
}
// * * * * * * * * * * * * * * * * * * * * * * * * * * * * * * * * * * * * * //

dimensions      [0 1 -1 0 0 0 0];

internalField   nonuniform List<vector> 
3275
(
(54.963014 0.36550937 0)
(48.116819 0.86634437 0)
(39.998943 0.90531844 0)
(33.076788 0.77303685 0)
(27.621885 0.60091817 0)
(23.476732 0.45599673 0)
(20.30186 0.3481293 0)
(17.824514 0.26867956 0)
(15.865163 0.21038039 0)
(14.280758 0.16717481 0)
(13.004394 0.13566795 0)
(11.986189 0.11161121 0)
(11.127553 0.092228109 0)
(10.390386 0.077677797 0)
(9.7673378 0.066287163 0)
(9.2317172 0.057297675 0)
(8.7665488 0.050086863 0)
(8.3584678 0.044198283 0)
(7.9973882 0.039315187 0)
(7.6754687 0.03521708 0)
(7.3865403 0.031746687 0)
(7.1256301 0.028784468 0)
(6.8886954 0.026236388 0)
(6.6724506 0.024030457 0)
(6.4741678 0.022109775 0)
(6.2915745 0.020428777 0)
(6.1227589 0.018950627 0)
(5.966102 0.01764528 0)
(5.8202233 0.01648804 0)
(5.6839387 0.015458457 0)
(5.5562262 0.014539484 0)
(5.4361996 0.013716817 0)
(5.3230859 0.012978382 0)
(5.2162085 0.01231393 0)
(5.114972 0.011714714 0)
(5.0188505 0.011173228 0)
(4.9273779 0.010683003 0)
(4.8401395 0.010238435 0)
(4.7567648 0.0098346498 0)
(4.6769225 0.009467388 0)
(4.6003147 0.0091329119 0)
(4.5266733 0.0088279306 0)
(4.4557562 0.0085495035 0)
(4.387344 0.0082949514 0)
(4.3212377 0.0080621573 0)
(4.2572565 0.0078492247 0)
(4.1952363 0.0076543219 0)
(4.1350271 0.0074758851 0)
(4.0764918 0.0073124602 0)
(4.0195047 0.0071627644 0)
(3.9639508 0.0070256632 0)
(3.9097243 0.0068999715 0)
(54.202355 1.2081697 0)
(46.350891 2.6468226 0)
(38.294683 2.6759558 0)
(31.828429 2.2520741 0)
(26.777616 1.7476697 0)
(22.917191 1.3315841 0)
(19.925636 1.0209222 0)
(17.565032 0.79104702 0)
(15.681433 0.62140741 0)
(14.147576 0.49509049 0)
(12.90538 0.40263032 0)
(11.910233 0.33177136 0)
(11.068369 0.27453198 0)
(10.343655 0.23148854 0)
(9.7296563 0.19772364 0)
(9.2008663 0.17103824 0)
(8.7409366 0.14960754 0)
(8.3369468 0.13208905 0)
(7.9791092 0.11754966 0)
(7.6597929 0.10533888 0)
(7.3729796 0.0949922 0)
(7.1138064 0.086156054 0)
(6.8783123 0.078551903 0)
(6.6632731 0.071966316 0)
(6.4660073 0.066230438 0)
(6.2842786 0.061208945 0)
(6.1162031 0.056792349 0)
(5.9601839 0.052891298 0)
(5.814858 0.049432297 0)
(5.6790552 0.04635446 0)
(5.5517649 0.043607006 0)
(5.4321098 0.041147312 0)
(5.3193249 0.038939388 0)
(5.2127394 0.036952672 0)
(5.1117632 0.035161072 0)
(5.0158747 0.033542201 0)
(4.9246115 0.032076755 0)
(4.8375616 0.030748016 0)
(4.7543575 0.02954144 0)
(4.6746698 0.028444323 0)
(4.5982026 0.02744552 0)
(4.5246893 0.026535223 0)
(4.4538893 0.025704747 0)
(4.3855845 0.024946309 0)
(4.3195768 0.024253167 0)
(4.2556865 0.023619485 0)
(4.1937501 0.023039861 0)
(4.1336185 0.0225094 0)
(4.0751549 0.022023734 0)
(4.0182344 0.02157895 0)
(3.9627424 0.021171548 0)
(3.9085735 0.02079819 0)
(52.000086 2.6170333 0)
(42.533768 4.5766492 0)
(34.935127 4.2962301 0)
(29.444819 3.5239314 0)
(25.176355 2.7343859 0)
(21.850942 2.1033006 0)
(19.203175 1.6262575 0)
(17.06328 1.2698596 0)
(15.324062 1.0040502 0)
(13.887295 0.8041522 0)
(12.71112 0.65669131 0)
(11.760757 0.54284399 0)
(10.951623 0.4504074 0)
(10.251287 0.38063813 0)
(9.6550522 0.32569356 0)
(9.139706 0.2821446 0)
(8.6901075 0.2470877 0)
(8.2941984 0.21837273 0)
(7.9427732 0.19450039 0)
(7.6286119 0.17442244 0)
(7.3459907 0.15738861 0)
(7.0902635 0.14282618 0)
(6.8576295 0.13028261 0)
(6.6449852 0.11941053 0)
(6.4497411 0.10993457 0)
(6.2697319 0.1016337 0)
(6.103129 0.094328787 0)
(5.9483791 0.087873474 0)
(5.8041538 0.082147218 0)
(5.6693106 0.077050052 0)
(5.5428612 0.072498516 0)
(5.4239468 0.068422499 0)
(5.3118171 0.064762749 0)
(5.2058136 0.061468918 0)
(5.1053565 0.058497992 0)
(5.0099328 0.055813041 0)
(4.9190869 0.053382205 0)
(4.8324134 0.05117788 0)
(4.7495495 0.049176038 0)
(4.6701703 0.047355685 0)
(4.5939837 0.045698399 0)
(4.5207263 0.044187959 0)
(4.4501601 0.042810021 0)
(4.3820696 0.041551794 0)
(4.3162588 0.040402022 0)
(4.2525498 0.039350896 0)
(4.1907807 0.038389477 0)
(4.1308036 0.037509637 0)
(4.0724833 0.036704127 0)
(4.0156957 0.035966425 0)
(3.9603272 0.035290676 0)
(3.9062732 0.034671444 0)
(46.366832 5.3548156 0)
(36.179432 6.5925953 0)
(30.088131 5.5604893 0)
(26.162168 4.4411353 0)
(22.985006 3.47411 0)
(20.375243 2.7174745 0)
(18.189553 2.1284796 0)
(16.351382 1.6811903 0)
(14.812133 1.342295 0)
(13.511487 1.0834783 0)
(12.42884 0.89022813 0)
(11.542457 0.73937935 0)
(10.780452 0.61595454 0)
(10.115407 0.52224118 0)
(9.5450071 0.44803034 0)
(9.0492966 0.38895777 0)
(8.6148365 0.3412338 0)
(8.2307996 0.30202486 0)
(7.8888166 0.26934517 0)
(7.5822608 0.24180014 0)
(7.3058349 0.21838806 0)
(7.0552073 0.19834091 0)
(6.8268114 0.18104912 0)
(6.6177195 0.16604344 0)
(6.4254771 0.15295084 0)
(6.2480229 0.14147111 0)
(6.0836099 0.13136044 0)
(5.9307487 0.12241916 0)
(5.7881621 0.11448256 0)
(5.6547483 0.1074138 0)
(5.5295524 0.10109847 0)
(5.4117423 0.095440338 0)
(5.3005897 0.090357963 0)
(5.1954547 0.085782072 0)
(5.0957724 0.081653422 0)
(5.0010424 0.077921102 0)
(4.91082 0.074541154 0)
(4.8247085 0.071475458 0)
(4.742353 0.068690814 0)
(4.6634349 0.066158192 0)
(4.5876676 0.063852108 0)
(4.5147926 0.061750106 0)
(4.4445761 0.059832327 0)
(4.3768061 0.058081105 0)
(4.3112897 0.05648081 0)
(4.2478519 0.055017703 0)
(4.1863329 0.05367937 0)
(4.1265871 0.052454554 0)
(4.0684809 0.051333176 0)
(4.0118921 0.050306159 0)
(3.9567083 0.049365325 0)
(3.9028264 0.048503178 0)
(33.597023 6.723032 0)
(26.998978 7.7742362 0)
(24.198302 6.1234759 0)
(22.346152 4.8885172 0)
(20.426952 3.9134122 0)
(18.618263 3.1376894 0)
(16.957525 2.505822 0)
(15.472284 2.0090923 0)
(14.17159 1.6242423 0)
(13.036125 1.3244831 0)
(12.068636 1.0969818 0)
(11.261978 0.91679565 0)
(10.559316 0.76780262 0)
(9.9390566 0.65373485 0)
(9.4016603 0.56277796 0)
(8.9311759 0.48996095 0)
(8.5162522 0.43085054 0)
(8.147593 0.38209033 0)
(7.8178791 0.34131167 0)
(7.5212321 0.30684086 0)
(7.2528963 0.27746981 0)
(7.0089416 0.25226678 0)
(6.7861005 0.23048766 0)
(6.5816717 0.21155747 0)
(6.3933748 0.19501734 0)
(6.219283 0.18049672 0)
(6.0577546 0.16769373 0)
(5.9073838 0.15636048 0)
(5.7669594 0.14629194 0)
(5.6354333 0.13731743 0)
(5.5118936 0.12929393 0)
(5.3955435 0.12210094 0)
(5.2856836 0.11563632 0)
(5.1816979 0.10981304 0)
(5.0830415 0.10455657 0)
(4.9892305 0.099802807 0)
(4.8998342 0.095496306 0)
(4.8144677 0.091588953 0)
(4.7327861 0.088038799 0)
(4.6544795 0.084809133 0)
(4.5792686 0.081867698 0)
(4.5069011 0.079186052 0)
(4.4371487 0.076739029 0)
(4.3698041 0.074504258 0)
(4.3046787 0.072461895 0)
(4.2416008 0.07059439 0)
(4.1804141 0.068885949 0)
(4.1209754 0.067322285 0)
(4.0631538 0.065890576 0)
(4.006829 0.064579257 0)
(3.9518908 0.063377889 0)
(3.8982374 0.062276953 0)
(10.762845 7.3423763 0)
(17.395496 6.9010817 0)
(18.584542 5.7527932 0)
(18.684703 4.8406755 0)
(17.896155 4.038957 0)
(16.826576 3.3398811 0)
(15.666942 2.7334832 0)
(14.531114 2.232807 0)
(13.474583 1.8304125 0)
(12.511952 1.5099087 0)
(11.667107 1.2621934 0)
(10.946622 1.0626276 0)
(10.308937 0.8954038 0)
(9.7382389 0.76608132 0)
(9.2376774 0.66216676 0)
(8.7955403 0.5784104 0)
(8.4026966 0.51002961 0)
(8.0514992 0.45335043 0)
(7.7357736 0.40575704 0)
(7.4504626 0.36538739 0)
(7.1914094 0.330889 0)
(6.9551304 0.30121151 0)
(6.738693 0.2755095 0)
(6.5396505 0.25312662 0)
(6.3559185 0.23353678 0)
(6.1857226 0.21631326 0)
(6.0275412 0.20110715 0)
(5.880063 0.18763096 0)
(5.7421529 0.17564622 0)
(5.6128238 0.16495383 0)
(5.4912133 0.1553866 0)
(5.3765651 0.14680332 0)
(5.2682132 0.13908407 0)
(5.1655691 0.13212649 0)
(5.0681107 0.12584277 0)
(4.9753736 0.12015725 0)
(4.886943 0.11500443 0)
(4.8024479 0.11032739 0)
(4.7215549 0.10607642 0)
(4.643964 0.102208 0)
(4.5694044 0.098683839 0)
(4.4976314 0.095470145 0)
(4.4284227 0.092536996 0)
(4.3615767 0.089857794 0)
(4.2969095 0.087408898 0)
(4.2342538 0.085169324 0)
(4.1734566 0.083120211 0)
(4.1143782 0.081244532 0)
(4.0568904 0.07952697 0)
(4.0008754 0.077953705 0)
(3.9462253 0.076512237 0)
(3.8928402 0.075191197 0)
(4.1242471 3.0934914 0)
(11.525382 4.5591022 0)
(14.166357 4.8275723 0)
(15.469764 4.472755 0)
(15.546995 3.9432897 0)
(15.099722 3.3806939 0)
(14.388884 2.844247 0)
(13.577273 2.3728279 0)
(12.755377 1.9750018 0)
(11.963831 1.6489587 0)
(11.242612 1.3921856 0)
(10.61025 1.1814838 0)
(10.039879 1.0023054 0)
(9.5211583 0.86194201 0)
(9.0595737 0.7483378 0)
(8.6476393 0.65606581 0)
(8.2784644 0.58024763 0)
(7.9460797 0.51706677 0)
(7.6454889 0.46377523 0)
(7.372488 0.41839989 0)
(7.1235463 0.37949711 0)
(6.8956513 0.34593691 0)
(6.6862249 0.3168015 0)
(6.4930914 0.29137442 0)
(6.3143762 0.26907863 0)
(6.1484689 0.2494437 0)
(5.9939768 0.23208335 0)
(5.8496912 0.2166781 0)
(5.7145592 0.20296201 0)
(5.58766 0.19071241 0)
(5.4681852 0.17974179 0)
(5.3554226 0.16989135 0)
(5.2487426 0.16102597 0)
(5.1475869 0.15303005 0)
(5.0514586 0.14580426 0)
(4.9599143 0.13926284 0)
(4.872557 0.13333146 0)
(4.7890307 0.1279454 0)
(4.709015 0.12304809 0)
(4.6322206 0.11858994 0)
(4.5583863 0.11452725 0)
(4.4872752 0.11082145 0)
(4.4186724 0.10743831 0)
(4.352382 0.10434744 0)
(4.2882258 0.10152174 0)
(4.2260408 0.098937129 0)
(4.1656782 0.096571946 0)
(4.1070018 0.09440666 0)
(4.0498865 0.092423683 0)
(3.9942175 0.090607129 0)
(3.9398891 0.08894261 0)
(3.8868037 0.087417052 0)
(2.4419502 1.2047009 0)
(7.9179426 2.6558451 0)
(10.723155 3.7404126 0)
(12.61845 3.8979995 0)
(13.315022 3.6751315 0)
(13.382615 3.2907443 0)
(13.075141 2.8586011 0)
(12.571124 2.4427452 0)
(11.980561 2.0702265 0)
(11.363937 1.7524238 0)
(10.772251 1.4959846 0)
(10.233789 1.2813332 0)
(9.7360782 1.0958594 0)
(9.274324 0.94781109 0)
(8.8559733 0.82715827 0)
(8.4777724 0.72826342 0)
(8.1352286 0.64637195 0)
(7.824139 0.57769336 0)
(7.5407674 0.51945489 0)
(7.2818325 0.4696426 0)
(7.0444877 0.42676972 0)
(6.8262389 0.38966128 0)
(6.6249015 0.35735207 0)
(6.4386021 0.32908354 0)
(6.2657018 0.30424105 0)
(6.1047746 0.28232042 0)
(5.9545737 0.26290556 0)
(5.8140072 0.24565065 0)
(5.6821156 0.23026669 0)
(5.5580541 0.21651076 0)
(5.441076 0.20417763 0)
(5.33052 0.19309298 0)
(5.2257983 0.18310805 0)
(5.1263872 0.17409529 0)
(5.0318191 0.16594481 0)
(4.9416749 0.15856157 0)
(4.8555782 0.15186302 0)
(4.7731905 0.14577716 0)
(4.6942062 0.14024099 0)
(4.6183488 0.13519914 0)
(4.545368 0.13060282 0)
(4.4750365 0.12640884 0)
(4.4071472 0.12257891 0)
(4.3415116 0.11907893 0)
(4.2779576 0.1158785 0)
(4.2163276 0.11295052 0)
(4.1564777 0.11027061 0)
(4.0982756 0.10781681 0)
(4.0416001 0.10556931 0)
(3.9863394 0.10351018 0)
(3.9323909 0.10162321 0)
(3.8796595 0.099893642 0)
(1.9187903 0.57943402 0)
(5.6343551 1.4658653 0)
(8.1416924 2.7463279 0)
(10.206709 3.2400521 0)
(11.282695 3.2919426 0)
(11.738084 3.0959155 0)
(11.768972 2.7863311 0)
(11.541771 2.4449217 0)
(11.169663 2.1150379 0)
(10.724394 1.8190158 0)
(10.263683 1.5715432 0)
(9.8224076 1.359956 0)
(9.4007185 1.1742395 0)
(8.9995869 1.0222017 0)
(8.6280056 0.89727189 0)
(8.2865558 0.79387016 0)
(7.97327 0.70745671 0)
(7.6857429 0.63443799 0)
(7.4215372 0.57213129 0)
(7.1783371 0.51855624 0)
(6.9540213 0.47223453 0)
(6.7466506 0.43198409 0)
(6.5544648 0.39682013 0)
(6.3759192 0.36596228 0)
(6.2096327 0.3387735 0)
(6.0543823 0.31472738 0)
(5.9090826 0.2933867 0)
(5.7727711 0.27438603 0)
(5.6445928 0.25741842 0)
(5.5237874 0.24222471 0)
(5.4096779 0.22858509 0)
(5.3016598 0.21631216 0)
(5.1991927 0.20524547 0)
(5.1017923 0.19524704 0)
(5.0090236 0.18619767 0)
(4.9204955 0.17799402 0)
(4.835855 0.17054611 0)
(4.7547834 0.16377532 0)
(4.6769919 0.15761271 0)
(4.6022189 0.15199759 0)
(4.5302263 0.14687639 0)
(4.4607976 0.14220165 0)
(4.3937353 0.13793118 0)
(4.3288589 0.13402741 0)
(4.2660033 0.13045679 0)
(4.2050174 0.12718931 0)
(4.1457624 0.12419802 0)
(4.088111 0.1214586 0)
(4.0319461 0.11894907 0)
(3.9771599 0.11664958 0)
(3.9236528 0.11454211 0)
(3.871333 0.11261025 0)
(1.6667173 0.27297997 0)
(4.1632056 0.74010658 0)
(6.2493483 1.9249222 0)
(8.2344293 2.5865851 0)
(9.4940454 2.8475867 0)
(10.211737 2.8246077 0)
(10.507596 2.6416187 0)
(10.516446 2.3858009 0)
(10.342092 2.1109059 0)
(10.058379 1.8482267 0)
(9.7254548 1.6181166 0)
(9.3820763 1.4159948 0)
(9.0378119 1.2357453 0)
(8.6993866 1.0838758 0)
(8.3772395 0.9574583 0)
(8.0749779 0.85181066 0)
(7.7931587 0.76258034 0)
(7.5311818 0.68651244 0)
(7.2879011 0.62113139 0)
(7.0619796 0.56456643 0)
(6.8520421 0.51540065 0)
(6.6567276 0.4724848 0)
(6.4747225 0.43484441 0)
(6.3048308 0.4016993 0)
(6.1459472 0.37240677 0)
(5.9970669 0.34643101 0)
(5.8572795 0.32332347 0)
(5.725763 0.30270667 0)
(5.6017765 0.2842616 0)
(5.484653 0.26771751 0)
(5.3737917 0.25284361 0)
(5.2686511 0.23944231 0)
(5.1687434 0.22734374 0)
(5.0736277 0.21640133 0)
(4.982906 0.20648804 0)
(4.8962178 0.19749341 0)
(4.8132364 0.189321 0)
(4.7336653 0.18188633 0)
(4.657235 0.17511518 0)
(4.5837 0.16894206 0)
(4.5128363 0.16330906 0)
(4.4444397 0.15816477 0)
(4.3783231 0.15346344 0)
(4.3143153 0.14916426 0)
(4.2522592 0.14523071 0)
(4.1920106 0.1416301 0)
(4.1334372 0.138333 0)
(4.0764169 0.13531285 0)
(4.0208374 0.13254565 0)
(3.9665952 0.13000965 0)
(3.9135945 0.12768511 0)
(3.8617468 0.12555407 0)
(1.5160573 0.078214421 0)
(3.2145441 0.28895793 0)
(4.8845822 1.2784551 0)
(6.6618624 1.9874404 0)
(7.9624367 2.3852541 0)
(8.8324146 2.5050166 0)
(9.3198414 2.441158 0)
(9.5191644 2.274372 0)
(9.5159868 2.0618299 0)
(9.379261 1.8409513 0)
(9.166902 1.6358828 0)
(8.9191404 1.4489949 0)
(8.6519738 1.2790107 0)
(8.3767861 1.1317355 0)
(8.1056688 1.0067656 0)
(7.8443883 0.90111919 0)
(7.5957593 0.81087753 0)
(7.3609806 0.73315786 0)
(7.1401491 0.66579345 0)
(6.9328865 0.60709847 0)
(6.7385639 0.55576975 0)
(6.5564058 0.51073132 0)
(6.3855579 0.47104988 0)
(6.2251856 0.43596847 0)
(6.0744717 0.40485667 0)
(5.9326419 0.37718302 0)
(5.7989711 0.35249839 0)
(5.6727874 0.33042155 0)
(5.5534725 0.31062803 0)
(5.4404596 0.29284062 0)
(5.3332307 0.27682168 0)
(5.2313129 0.26236668 0)
(5.1342753 0.249299 0)
(5.041725 0.23746553 0)
(4.9533041 0.22673313 0)
(4.8686861 0.21698558 0)
(4.7875733 0.20812111 0)
(4.7096937 0.20005035 0)
(4.6347988 0.19269449 0)
(4.5626612 0.18598392 0)
(4.4930729 0.17985688 0)
(4.4258428 0.17425847 0)
(4.3607958 0.16913972 0)
(4.2977708 0.16445686 0)
(4.2366198 0.1601707 0)
(4.1772064 0.15624602 0)
(4.1194052 0.15265114 0)
(4.0631002 0.1493574 0)
(4.0081846 0.14633888 0)
(3.9545595 0.14357207 0)
(3.9021334 0.1410356 0)
(3.8508216 0.13871 0)
(1.4185037 -0.042637805 0)
(2.5983154 0.0090976648 0)
(3.9087624 0.78604829 0)
(5.4312027 1.466405 0)
(6.6794253 1.9365525 0)
(7.6137865 2.1626488 0)
(8.2257294 2.202224 0)
(8.5693338 2.1211344 0)
(8.7076912 1.973725 0)
(8.6996486 1.7997682 0)
(8.5975132 1.6255849 0)
(8.4403499 1.4591511 0)
(8.2481595 1.3034664 0)
(8.035429 1.1648542 0)
(7.8157015 1.0445115 0)
(7.5964463 0.94099977 0)
(7.3822239 0.85156986 0)
(7.1759028 0.7736677 0)
(6.9787652 0.705486 0)
(6.7913418 0.64559214 0)
(6.613728 0.59284752 0)
(6.4457246 0.54628875 0)
(6.2869384 0.5050544 0)
(6.1369002 0.46843401 0)
(5.9950882 0.43582788 0)
(5.8609657 0.40672339 0)
(5.7340007 0.38068209 0)
(5.6136786 0.35732799 0)
(5.4995103 0.33633819 0)
(5.3910354 0.31743471 0)
(5.2878239 0.30037757 0)
(5.1894765 0.28495895 0)
(5.0956234 0.27099837 0)
(5.0059235 0.25833861 0)
(4.9200621 0.24684231 0)
(4.8377497 0.23638908 0)
(4.7587201 0.22687313 0)
(4.682728 0.21820122 0)
(4.6095481 0.2102909 0)
(4.5389728 0.20306912 0)
(4.4708111 0.19647089 0)
(4.4048869 0.19043831 0)
(4.3410379 0.18491964 0)
(4.2791146 0.17986852 0)
(4.2189786 0.17524334 0)
(4.1605024 0.17100667 0)
(4.103568 0.16712474 0)
(4.0480664 0.16356699 0)
(3.9938966 0.16030573 0)
(3.9409651 0.15731583 0)
(3.8891852 0.1545744 0)
(3.8384762 0.15206056 0)
(1.3510592 -0.11320299 0)
(2.1912469 -0.16229391 0)
(3.2117457 0.42020297 0)
(4.480329 1.0303024 0)
(5.6229807 1.5221412 0)
(6.5572184 1.8183882 0)
(7.2368972 1.9411333 0)
(7.6813711 1.9371875 0)
(7.9308353 1.853525 0)
(8.031018 1.7284551 0)
(8.0264085 1.5889664 0)
(7.9526995 1.4471661 0)
(7.8315318 1.3093169 0)
(7.6792724 1.1827812 0)
(7.5101542 1.0700628 0)
(7.3330918 0.97089015 0)
(7.1539678 0.88400496 0)
(6.9769466 0.80740947 0)
(6.8044299 0.73962503 0)
(6.6377929 0.67951603 0)
(6.4778112 0.62615488 0)
(6.3248351 0.57872813 0)
(6.1789231 0.53647549 0)
(6.0399669 0.49875566 0)
(5.9077407 0.46501803 0)
(5.781948 0.4347834 0)
(5.6622538 0.40763568 0)
(5.5483055 0.38321335 0)
(5.439748 0.36120258 0)
(5.3362318 0.34133064 0)
(5.2374195 0.32336007 0)
(5.142989 0.30708369 0)
(5.0526355 0.29232037 0)
(4.9660726 0.27891136 0)
(4.8830323 0.26671724 0)
(4.8032644 0.25561523 0)
(4.7265365 0.24549694 0)
(4.6526322 0.23626647 0)
(4.5813511 0.22783873 0)
(4.512507 0.22013804 0)
(4.4459275 0.21309691 0)
(4.3814528 0.20665503 0)
(4.3189347 0.20075834 0)
(4.2582357 0.19535833 0)
(4.1992286 0.19041132 0)
(4.1417953 0.18587794 0)
(4.0858261 0.18172262 0)
(4.0312195 0.1779131 0)
(3.9778809 0.17442013 0)
(3.9257228 0.17121707 0)
(3.8746637 0.16827965 0)
(3.8246274 0.16558576 0)
(1.3020956 -0.15253559 0)
(1.916895 -0.2656784 0)
(2.7117133 0.15339277 0)
(3.7512771 0.67551819 0)
(4.7642974 1.1533487 0)
(5.6551844 1.4877868 0)
(6.3576725 1.6720481 0)
(6.8647548 1.7333645 0)
(7.1960232 1.7085584 0)
(7.383335 1.6316899 0)
(7.4620122 1.5287764 0)
(7.4629543 1.4143676 0)
(7.4074348 1.2972186 0)
(7.3123647 1.1855325 0)
(7.1921325 1.0829483 0)
(7.0565822 0.99039237 0)
(6.9126267 0.90773197 0)
(6.7653287 0.83385718 0)
(6.6180173 0.76769143 0)
(6.4728518 0.70838143 0)
(6.3312287 0.65523988 0)
(6.1940048 0.60763589 0)
(6.0616691 0.56493784 0)
(5.9344601 0.52659463 0)
(5.8124417 0.49212231 0)
(5.6955555 0.46108936 0)
(5.5836634 0.43311358 0)
(5.4765768 0.40785731 0)
(5.3740768 0.38502347 0)
(5.275928 0.36435079 0)
(5.1818884 0.34560947 0)
(5.0917164 0.32859713 0)
(5.0051749 0.31313538 0)
(4.9220351 0.2990668 0)
(4.8420778 0.28625219 0)
(4.7650947 0.2745683 0)
(4.6908891 0.26390575 0)
(4.6192756 0.25416731 0)
(4.55008 0.24526634 0)
(4.4831395 0.23712549 0)
(4.4183014 0.22967554 0)
(4.3554233 0.22285441 0)
(4.2943723 0.21660631 0)
(4.2350242 0.210881 0)
(4.1772634 0.20563318 0)
(4.1209821 0.20082188 0)
(4.0660798 0.19641 0)
(4.012463 0.19236384 0)
(3.9600443 0.18865278 0)
(3.9087424 0.18524889 0)
(3.8584816 0.18212669 0)
(3.8091907 0.1792629 0)
(1.26565 -0.17259426 0)
(1.7282689 -0.32626687 0)
(2.3502809 -0.03829075 0)
(3.1943131 0.39303607 0)
(4.0727932 0.83440967 0)
(4.8945248 1.1812689 0)
(5.5866025 1.406387 0)
(6.1244209 1.5194948 0)
(6.510845 1.5462178 0)
(6.7646963 1.5146308 0)
(6.9118274 1.4483485 0)
(6.9774456 1.3627617 0)
(6.9810322 1.2682026 0)
(6.9388454 1.1734538 0)
(6.8648983 1.0831125 0)
(6.769447 0.99920625 0)
(6.6600572 0.92246834 0)
(6.5424419 0.85264054 0)
(6.4205808 0.78925396 0)
(6.2972925 0.73175634 0)
(6.1745353 0.67968933 0)
(6.053622 0.63262393 0)
(5.9354361 0.59008158 0)
(5.8205412 0.55162025 0)
(5.7092777 0.51683884 0)
(5.6018174 0.48536681 0)
(5.4982155 0.45686695 0)
(5.3984455 0.43103459 0)
(5.3024253 0.40759701 0)
(5.2100346 0.38631076 0)
(5.1211284 0.36695891 0)
(5.0355472 0.34934818 0)
(4.9531239 0.33330652 0)
(4.8736892 0.31868076 0)
(4.7970748 0.30533443 0)
(4.7231161 0.29314584 0)
(4.6516538 0.28200634 0)
(4.5825349 0.2718188 0)
(4.5156136 0.26249627 0)
(4.4507509 0.25396074 0)
(4.3878158 0.2461421 0)
(4.3266842 0.23897726 0)
(4.2672393 0.23240931 0)
(4.2093714 0.22638683 0)
(4.1529773 0.22086332 0)
(4.0979602 0.21579659 0)
(4.0442295 0.21114837 0)
(3.9917003 0.20688379 0)
(3.9402929 0.2029711 0)
(3.8899329 0.1993813 0)
(3.8405507 0.19608787 0)
(3.7920807 0.19306655 0)
(1.2381729 -0.18044225 0)
(1.5959954 -0.35943189 0)
(2.0865044 -0.17392819 0)
(2.7689529 0.17193446 0)
(3.5192908 0.56475091 0)
(4.2591743 0.9048647 0)
(4.9180658 1.1526953 0)
(5.461483 1.3039649 0)
(5.8799995 1.3735049 0)
(6.1812581 1.3825771 0)
(6.3821634 1.3513515 0)
(6.5019097 1.2947594 0)
(6.5571929 1.2237284 0)
(6.5627962 1.1473022 0)
(6.5317812 1.0708534 0)
(6.4743488 0.99725657 0)
(6.3983362 0.92799987 0)
(6.3098479 0.86353816 0)
(6.2133241 0.80400475 0)
(6.1120395 0.74928281 0)
(6.0084235 0.69914001 0)
(5.9041956 0.65333949 0)
(5.8005889 0.61157084 0)
(5.6984625 0.57351714 0)
(5.5984133 0.53887454 0)
(5.5008302 0.50734541 0)
(5.4059533 0.47864761 0)
(5.313914 0.45251807 0)
(5.2247643 0.42871582 0)
(5.1384981 0.40702142 0)
(5.0550674 0.38723602 0)
(4.9743957 0.3691798 0)
(4.8963867 0.35269065 0)
(4.8209319 0.33762275 0)
(4.7479153 0.32384491 0)
(4.6772172 0.31123915 0)
(4.6087174 0.29969938 0)
(4.5422965 0.28913012 0)
(4.477838 0.27944538 0)
(4.4152285 0.2705676 0)
(4.3543592 0.26242674 0)
(4.2951256 0.25495948 0)
(4.237428 0.24810845 0)
(4.1811717 0.24182166 0)
(4.1262669 0.23605188 0)
(4.0726287 0.23075617 0)
(4.0201767 0.22589541 0)
(3.9688353 0.22143392 0)
(3.9185333 0.21733909 0)
(3.8692034 0.21358106 0)
(3.8207826 0.21013249 0)
(3.7732113 0.20696834 0)
(1.2172112 -0.18053455 0)
(1.5013275 -0.37470377 0)
(1.8918241 -0.26808469 0)
(2.4433362 0.0014219883 0)
(3.0777202 0.34092216 0)
(3.7322079 0.66116616 0)
(4.3437665 0.91682532 0)
(4.8740588 1.0935225 0)
(5.3056165 1.1966652 0)
(5.6372604 1.2406616 0)
(5.8780351 1.2416174 0)
(6.0413028 1.2130271 0)
(6.1404104 1.165595 0)
(6.1881008 1.1082152 0)
(6.1960824 1.0467546 0)
(6.1740076 0.98474481 0)
(6.1296705 0.92426241 0)
(6.069289 0.86639596 0)
(5.9975852 0.81176915 0)
(5.9181461 0.76070442 0)
(5.8337149 0.71329225 0)
(5.7463531 0.66947458 0)
(5.6575975 0.62910223 0)
(5.5685693 0.59199266 0)
(5.4800946 0.5579515 0)
(5.3927611 0.52676415 0)
(5.3069817 0.49821243 0)
(5.2230377 0.4720825 0)
(5.1411103 0.44817199 0)
(5.0613044 0.42629138 0)
(4.9836677 0.40626495 0)
(4.9082056 0.38793056 0)
(4.8348928 0.37113972 0)
(4.7636819 0.35575699 0)
(4.6945098 0.34165911 0)
(4.6273028 0.32873401 0)
(4.5619804 0.31688004 0)
(4.4984581 0.30600499 0)
(4.4366494 0.2960252 0)
(4.3764677 0.28686473 0)
(4.317827 0.27845461 0)
(4.2606434 0.27073212 0)
(4.2048351 0.2636402 0)
(4.1503233 0.25712688 0)
(4.0970321 0.25114479 0)
(4.044889 0.24565067 0)
(3.9938249 0.240605 0)
(3.9437737 0.23597158 0)
(3.894673 0.23171727 0)
(3.8464635 0.22781163 0)
(3.7990891 0.22422672 0)
(3.7524965 0.2209369 0)
(1.2009734 -0.17585108 0)
(1.4320884 -0.37819601 0)
(1.7463059 -0.33165779 0)
(2.1929282 -0.12818935 0)
(2.7257837 0.15802874 0)
(3.2972223 0.4502895 0)
(3.8539865 0.70230656 0)
(4.3581014 0.8932577 0)
(4.7876825 1.0209895 0)
(5.1351698 1.0936031 0)
(5.4031524 1.1229435 0)
(5.5997064 1.1204004 0)
(5.7346641 1.0958168 0)
(5.8183894 1.057585 0)
(5.8609621 1.0116926 0)
(5.8711348 0.96211517 0)
(5.8563205 0.9114136 0)
(5.8226255 0.86116861 0)
(5.7748523 0.8124354 0)
(5.7167757 0.76588294 0)
(5.6513425 0.72193223 0)
(5.5808339 0.68077701 0)
(5.5070356 0.64241276 0)
(5.4312998 0.60678416 0)
(5.3546508 0.57381343 0)
(5.2778511 0.54337706 0)
(5.2014706 0.5153281 0)
(5.125929 0.48950843 0)
(5.0515296 0.4657604 0)
(4.978483 0.44392977 0)
(4.9069291 0.42386866 0)
(4.8369532 0.40543667 0)
(4.7685999 0.38850236 0)
(4.7018823 0.37294376 0)
(4.6367901 0.35864811 0)
(4.5732959 0.34551151 0)
(4.5113593 0.33343866 0)
(4.4509311 0.32234225 0)
(4.3919558 0.31214239 0)
(4.3343738 0.30276597 0)
(4.2781231 0.29414612 0)
(4.2231408 0.28622165 0)
(4.1693637 0.27893657 0)
(4.1167295 0.27223962 0)
(4.0651769 0.26608385 0)
(4.0146464 0.26042619 0)
(3.9650803 0.25522714 0)
(3.916423 0.25045043 0)
(3.8686213 0.24606266 0)
(3.8216241 0.24203313 0)
(3.7753828 0.23833353 0)
(3.7298507 0.23493785 0)
(1.1881611 -0.16839621 0)
(1.3802724 -0.37393261 0)
(1.6359887 -0.37273501 0)
(1.9990981 -0.22514668 0)
(2.4449801 0.010693836 0)
(2.9391603 0.27071984 0)
(3.4385476 0.51080347 0)
(3.908158 0.70671948 0)
(4.3245088 0.85073363 0)
(4.6759027 0.94555146 0)
(4.9599779 0.99891366 0)
(5.1803014 1.019747 0)
(5.3433288 1.0165658 0)
(5.4569373 0.99696697 0)
(5.529399 0.96674954 0)
(5.5683456 0.9300576 0)
(5.5805517 0.8898128 0)
(5.5717684 0.84798954 0)
(5.5467196 0.80597388 0)
(5.5092197 0.76473721 0)
(5.4623325 0.72495057 0)
(5.4084747 0.68706918 0)
(5.3495748 0.65128923 0)
(5.2871837 0.61766577 0)
(5.2224939 0.58623199 0)
(5.156416 0.55695887 0)
(5.0896564 0.52977615 0)
(5.0227597 0.5045866 0)
(4.9561409 0.48128245 0)
(4.8901096 0.45974942 0)
(4.8248923 0.43987164 0)
(4.7606509 0.42153412 0)
(4.6974972 0.40462576 0)
(4.6355037 0.38904095 0)
(4.5747121 0.37467995 0)
(4.5151404 0.36144922 0)
(4.4567886 0.34926168 0)
(4.3996428 0.33803663 0)
(4.3436788 0.32769936 0)
(4.2888644 0.31818085 0)
(4.2351619 0.30941739 0)
(4.18253 0.30135027 0)
(4.1309246 0.29392538 0)
(4.0803003 0.28709287 0)
(4.0306109 0.28080682 0)
(3.9818105 0.27502492 0)
(3.9338532 0.26970815 0)
(3.8866944 0.26482052 0)
(3.8402903 0.26032881 0)
(3.7945985 0.25620233 0)
(3.7495783 0.25241271 0)
(3.7051898 0.24893364 0)
(1.1778471 -0.15949389 0)
(1.3405727 -0.36461999 0)
(1.5510781 -0.39729169 0)
(1.8478233 -0.29625026 0)
(2.2202859 -0.10635477 0)
(2.6447155 0.11998361 0)
(3.0874916 0.3425794 0)
(3.5180087 0.53611889 0)
(3.9131915 0.68912968 0)
(4.2590925 0.80000098 0)
(4.5498422 0.87277867 0)
(4.7853831 0.91383394 0)
(4.9691427 0.93007113 0)
(5.1065889 0.92805458 0)
(5.2041259 0.91314433 0)
(5.2681358 0.88943995 0)
(5.3045641 0.86002468 0)
(5.3186415 0.82716078 0)
(5.3148291 0.79250203 0)
(5.2968648 0.75725014 0)
(5.2678218 0.72228914 0)
(5.2301913 0.68826598 0)
(5.1859723 0.65558439 0)
(5.1368374 0.62445667 0)
(5.084118 0.59501273 0)
(5.0288464 0.5673106 0)
(4.9718438 0.5413581 0)
(4.9137628 0.51712244 0)
(4.8551183 0.49454999 0)
(4.7963092 0.47357021 0)
(4.7376419 0.4541028 0)
(4.6793497 0.43606128 0)
(4.6216085 0.41935783 0)
(4.5645474 0.40390589 0)
(4.5082583 0.38962114 0)
(4.4528039 0.3764224 0)
(4.3982237 0.36423274 0)
(4.3445388 0.35297965 0)
(4.2917561 0.34259504 0)
(4.2398708 0.33301522 0)
(4.18887 0.32418076 0)
(4.1387338 0.31603635 0)
(4.0894378 0.30853061 0)
(4.0409537 0.30161582 0)
(3.9932509 0.29524775 0)
(3.9462972 0.28938539 0)
(3.9000592 0.28399069 0)
(3.8545032 0.27902842 0)
(3.8095956 0.27446587 0)
(3.7653029 0.27027271 0)
(3.7215924 0.26642076 0)
(1.1693712 -0.14999993 0)
(1.3094292 -0.35210867 0)
(1.4846824 -0.40973973 0)
(1.7286263 -0.34700122 0)
(2.0396909 -0.19796775 0)
(2.4024505 -0.0048560513 0)
(2.7915162 0.19691655 0)
(3.1811673 0.38257174 0)
(3.5500281 0.53846458 0)
(3.883372 0.65976207 0)
(4.1730977 0.74737702 0)
(4.4164174 0.80523692 0)
(4.6142036 0.83852203 0)
(4.7697202 0.85260722 0)
(4.8875722 0.85222368 0)
(4.9728273 0.84124903 0)
(5.0304785 0.8227621 0)
(5.0651259 0.79915614 0)
(5.0808393 0.77228136 0)
(5.0811422 0.74352792 0)
(5.0690345 0.71394201 0)
(5.0469956 0.68432766 0)
(5.0170556 0.65523156 0)
(4.9809526 0.62703599 0)
(4.9400941 0.60000282 0)
(4.8956065 0.57426479 0)
(4.8484053 0.54990029 0)
(4.7992337 0.52694065 0)
(4.7486922 0.50538947 0)
(4.6972578 0.48522281 0)
(4.6453083 0.4663987 0)
(4.5931421 0.44886164 0)
(4.5409943 0.4325496 0)
(4.4890474 0.41739745 0)
(4.4374409 0.40333843 0)
(4.3862802 0.39030563 0)
(4.3356432 0.37823397 0)
(4.2855852 0.36706074 0)
(4.2361435 0.35672582 0)
(4.1873407 0.34717209 0)
(4.1391881 0.33834547 0)
(4.0916876 0.33019501 0)
(4.0448343 0.32267287 0)
(3.9986174 0.31573425 0)
(3.9530219 0.30933724 0)
(3.9080296 0.30344269 0)
(3.8636199 0.29801408 0)
(3.8197704 0.29301734 0)
(3.7764577 0.2884207 0)
(3.7336576 0.28419454 0)
(3.6913456 0.28031114 0)
(1.162266 -0.14044954 0)
(1.2844276 -0.33767243 0)
(1.4319327 -0.41335327 0)
(1.6337311 -0.38178452 0)
(1.8937126 -0.26843982 0)
(2.2027361 -0.1068658 0)
(2.5422181 0.072464936 0)
(2.8912474 0.24634619 0)
(3.2308707 0.40020113 0)
(3.5466456 0.52698203 0)
(3.8292939 0.62509414 0)
(4.0741294 0.69627341 0)
(4.2799908 0.74399177 0)
(4.448237 0.77237884 0)
(4.5818265 0.78541291 0)
(4.684513 0.78658779 0)
(4.7602912 0.77884126 0)
(4.8130495 0.76457369 0)
(4.846381 0.74571908 0)
(4.863501 0.72380383 0)
(4.8672345 0.70000898 0)
(4.8599777 0.6752557 0)
(4.8437375 0.65020146 0)
(4.8202843 0.62535523 0)
(4.7910602 0.60110586 0)
(4.7572293 0.57769326 0)
(4.7197797 0.55525858 0)
(4.6795295 0.53388932 0)
(4.6371504 0.51364603 0)
(4.5931842 0.49455242 0)
(4.5480701 0.47660693 0)
(4.502164 0.45978683 0)
(4.4557545 0.44405783 0)
(4.4090732 0.4293783 0)
(4.3623037 0.41570086 0)
(4.3155915 0.40297449 0)
(4.2690512 0.39114753 0)
(4.222771 0.38016854 0)
(4.1768174 0.36998669 0)
(4.1312397 0.36055258 0)
(4.0860731 0.35181849 0)
(4.041341 0.34373879 0)
(3.9970578 0.33627004 0)
(3.9532302 0.32937104 0)
(3.9098589 0.32300289 0)
(3.8669398 0.3171289 0)
(3.824465 0.31171456 0)
(3.7824238 0.30672745 0)
(3.7408031 0.30213714 0)
(3.6995881 0.29791508 0)
(3.6587628 0.29403439 0)
(1.1562017 -0.13116161 0)
(1.2639155 -0.32219017 0)
(1.3893591 -0.4105693 0)
(1.5573844 -0.40407966 0)
(1.7749725 -0.32145835 0)
(2.0376103 -0.18902698 0)
(2.3321986 -0.032496149 0)
(2.6422107 0.12708445 0)
(2.9514092 0.27511701 0)
(3.2463369 0.40319901 0)
(3.5173553 0.50784977 0)
(3.7586078 0.58894805 0)
(3.9674208 0.64838732 0)
(4.1435908 0.68907423 0)
(4.2886229 0.71415766 0)
(4.4050336 0.72663347 0)
(4.4958293 0.72918075 0)
(4.5641509 0.72410164 0)
(4.6130512 0.71332647 0)
(4.6453736 0.69843656 0)
(4.6637008 0.68070568 0)
(4.6702635 0.66113468 0)
(4.6670029 0.64050102 0)
(4.6556671 0.61940315 0)
(4.6377116 0.59828846 0)
(4.6143073 0.57752153 0)
(4.586468 0.55732549 0)
(4.5550681 0.53784414 0)
(4.5208375 0.51918729 0)
(4.4843699 0.50142259 0)
(4.4461547 0.48458966 0)