/*--------------------------------*- C++ -*----------------------------------*\
| =========                 |                                                 |
| \\      /  F ield         | OpenFOAM: The Open Source CFD Toolbox           |
|  \\    /   O peration     | Version:  2312                                  |
|   \\  /    A nd           | Website:  www.openfoam.com                      |
|    \\/     M anipulation  |                                                 |
\*---------------------------------------------------------------------------*/
FoamFile
{
    version     2.0;
    format      ascii;
    arch        "LSB;label=32;scalar=64";
    class       volScalarField;
    location    "0.03";
    object      CO2;
}
// * * * * * * * * * * * * * * * * * * * * * * * * * * * * * * * * * * * * * //

dimensions      [0 0 0 0 0 0 0];

internalField   nonuniform List<scalar> 
3221
(
6.0603599e-05
0.00018553849
0.00031036823
0.00043196295
0.00054785241
0.00065644989
0.00075701583
0.00084938949
0.00093353339
0.001008706
0.0010707938
0.0010997918
0.00099637632
0.0009003125
0.0008140313
0.00073871552
0.00068392024
0.00066583838
0.00067737117
0.0007060841
0.00074341353
0.00078490174
0.00082861052
0.00087376411
0.00092006652
0.00096740296
0.0010157222
0.0010649929
0.0011151878
0.0011662779
0.0012182303
0.0012710074
0.0013245663
0.0013788587
0.00143383
0.0014894201
0.0015455622
0.0016021837
0.0016592054
0.0017165418
0.0017741009
0.0018317849
0.0018894894
0.0019471044
0.0020045138
0.0020615961
0.0021182244
0.002174267
0.0022295872
0.0022840443
0.0023374936
0.0023896949
6.843659e-05
0.00021010897
0.00035326943
0.00049525614
0.00063397966
0.00076813939
0.00089721664
0.0010212701
0.001140619
0.0012554501
0.0013651895
0.0014671317
0.0015539643
0.0016280983
0.0016929483
0.0017541616
0.0018221583
0.0019087345
0.0020146486
0.0021348858
0.0022644456
0.0024001179
0.0025402378
0.0026840453
0.0028312176
0.0029816165
0.0031351689
0.0032918163
0.0034514955
0.0036141307
0.0037796306
0.003947887
0.0041187736
0.0042921459
0.0044678402
0.0046456736
0.0048254434
0.0050069272
0.0051898825
0.005374047
0.0055591384
0.005744855
0.0059308756
0.0061168602
0.0063024502
0.0064872694
0.0066709242
0.0068530042
0.0070330829
0.0072107169
0.0073854464
0.0075568048
8.1581051e-05
0.0002512915
0.00042497865
0.00060065228
0.00077676086
0.00095237431
0.0011272006
0.0013014485
0.0014756116
0.0016502421
0.001825747
0.0020022031
0.002179206
0.0023566961
0.0025352781
0.002716788
0.0029046941
0.003102736
0.003311743
0.0035304357
0.003757132
0.0039905761
0.0042300351
0.0044751363
0.0047256985
0.0049816217
0.0052428279
0.005509233
0.005780734
0.0060572034
0.0063384864
0.0066244005
0.006914734
0.0072092457
0.0075076641
0.0078096872
0.0081149822
0.0084231854
0.008733902
0.0090467066
0.009361143
0.0096767251
0.0099929366
0.010309232
0.010625038
0.010939753
0.011252749
0.011563371
0.01187094
0.012174751
0.012474082
0.012768252
9.7255517e-05
0.00030037414
0.00051023993
0.00072549631
0.00094509242
0.0011684203
0.0013953336
0.0016260623
0.0018610704
0.0021009097
0.0023461052
0.0025970882
0.0028541752
0.0031176422
0.0033878458
0.0036653849
0.0039511678
0.0042460725
0.0045503148
0.0048635563
0.0051852995
0.0055151319
0.0058527819
0.0061980833
0.0065509236
0.0069112044
0.0072788182
0.0076536347
0.0080354937
0.0084242029
0.0088195349
0.0092212254
0.0096289729
0.010042438
0.010461244
0.010884975
0.011313177
0.011745357
0.012180983
0.012619487
0.013060263
0.013502666
0.013946015
0.014389592
0.014832647
0.015274392
0.015714006
0.016150637
0.016583404
0.017011394
0.017433681
0.017849431
0.00011339837
0.00035091833
0.0005978815
0.00085342648
0.0011168928
0.0013879144
0.0016664326
0.001952642
0.0022468994
0.0025496284
0.0028612432
0.0031821033
0.0035124965
0.003852649
0.004202751
0.0045629897
0.0049335606
0.0053146047
0.0057061072
0.0061079228
0.0065198626
0.0069417519
0.0073734449
0.0078148136
0.0082657304
0.0087260536
0.0091956158
0.0096742176
0.010161625
0.010657565
0.011161726
0.011673755
0.012193256
0.012719793
0.013252886
0.013792014
0.014336613
0.014886076
0.015439756
0.015996963
0.016556969
0.017119002
0.017682251
0.018245865
0.018808954
0.01937059
0.019929806
0.020485604
0.02103695
0.021582781
0.022122026
0.02265376
0.00012882818
0.00039924302
0.00068157874
0.00097532536
0.0012801032
0.0015957224
0.001922188
0.0022596631
0.00260841
0.0029687292
0.003340909
0.0037251938
0.0041217684
0.004530759
0.0049522398
0.0053862424
0.0058327611
0.006291751
0.0067631174
0.0072467271
0.0077424287
0.0082500643
0.0087694708
0.009300474
0.0098428813
0.010396474
0.010961002
0.011536179
0.012121683
0.012717149
0.013322171
0.013936303
0.014559054
0.015189892
0.015828242
0.016473486
0.017124965
0.017781977
0.018443782
0.019109595
0.019778593
0.020449911
0.021122643
0.021795845
0.022468527
0.023139665
0.023808191
0.024473005
0.025132973
0.025786932
0.026433719
0.02707237
0.00014303533
0.00044376213
0.00075863959
0.0010873958
0.0014298454
0.0017859266
0.0021556988
0.002539315
0.0029369812
0.0033489176
0.0037753256
0.0042163653
0.0046721451
0.0051427186
0.0056280906
0.0061282183
0.0066430155
0.0071723632
0.0077161104
0.0082740797
0.0088460736
0.009431876
0.010031252
0.010643944
0.011269667
0.011908107
0.012558915
0.013221707
0.013896058
0.014581507
0.015277552
0.01598365
0.016699218
0.017423633
0.018156235
0.018896322
0.019643156
0.020395963
0.021153927
0.021916201
0.022681895
0.023450084
0.024219804
0.02499005
0.025759777
0.0265279
0.027293293
0.028054793
0.028811203
0.029561303
0.030303886
0.031037994
0.00015592774
0.00048418831
0.00082859994
0.0011890484
0.0015654794
0.0019579219
0.0023664808
0.0027913133
0.0032325994
0.0036905146
0.0041652079
0.0046567869
0.0051653084
0.0056907764
0.0062331472
0.0067923259
0.0073681688
0.0079604968
0.0085690958
0.0091937206
0.0098340971
0.010489924
0.011160872
0.011846582
0.012546665
0.0132607
0.013988231
0.014728766
0.015481779
0.016246706
0.017022949
0.017809873
0.018606808
0.019413052
0.020227868
0.02105049
0.02188012
0.02271593
0.023557059
0.024402618
0.025251686
0.026103306
0.026956489
0.027810207
0.028663392
0.029514934
0.030363683
0.031208441
0.032047978
0.032881032
0.033706368
0.034523085
0.00016764153
0.0005209441
0.00089220406
0.0012814097
0.0016885916
0.0021138388
0.0025572889
0.0030191061
0.0034994569
0.0039984905
0.0045163218
0.0050530207
0.0056086048
0.006183036
0.0067762269
0.0073880319
0.0080182486
0.0086666331
0.0093328983
0.010016717
0.010717726
0.011435524
0.012169679
0.012919721
0.013685151
0.014465435
0.015260007
0.016068268
0.016889587
0.017723302
0.018568723
0.01942513
0.020291777
0.021167896
0.022052692
0.022945353
0.02384504
0.024750896
0.025662041
0.026577571
0.027496559
0.028418048
0.029341053
0.030264553
0.031187491
0.032108765
0.033027227
0.033941675
0.03485085
0.035753427
0.036648059
0.037533813
0.00017842104
0.00055479002
0.00095076942
0.0013664115
0.0018017975
0.0022570507
0.0027323251
0.0032277848
0.0037435826
0.0042798437
0.0048366521
0.0054140415
0.0060119893
0.0066304129
0.0072691754
0.0079280722
0.0086068343
0.0093051436
0.01002263
0.010758874
0.011513412
0.012285738
0.013075306
0.013881536
0.014703814
0.015541492
0.016393894
0.017260316
0.018140027
0.019032275
0.019936284
0.020851266
0.021776414
0.02271091
0.023653922
0.024604609
0.025562119
0.026525588
0.027494139
0.028466881
0.029442906
0.030421283
0.03140106
0.032381252
0.033360839
0.03433876
0.035313904
0.036285098
0.037251088
0.038210465
0.039161452
0.040101212
0.00018854772
0.00058660424
0.0010058131
0.0014462625
0.0019080582
0.0023913353
0.0028962469
0.0034229442
0.0039715573
0.0045421795
0.0051348565
0.0057495775
0.0063862697
0.0070447966
0.0077249582
0.0084264759
0.0091490036
0.0098921358
0.010655407
0.011438295
0.012240226
0.013060581
0.013898699
0.014753883
0.015625403
0.0165125
0.017414392
0.018330274
0.019259324
0.020200711
0.021153593
0.022117126
0.02309046
0.024072749
0.025063145
0.026060802
0.027064876
0.028074519
0.029088885
0.030107117
0.031128351
0.032151708
0.033176288
0.034201169
0.035225395
0.036247974
0.037267867
0.038283989
0.039295218
0.040300496
0.041299365
0.042266663
0.00019829999
0.00061725814
0.001058841
0.0015231515
0.002010299
0.0025204108
0.0030536219
0.0036100556
0.0041898045
0.0047929166
0.005419385
0.0060691398
0.0067420421
0.0074378855
0.0081563858
0.0088971736
0.0096598098
0.010443785
0.011248524
0.012073389
0.012917686
0.013780675
0.014661573
0.015559565
0.016473807
0.017403429
0.018347549
0.01930527
0.020275696
0.02125793
0.02225108
0.023254267
0.024266622
0.025287289
0.026315429
0.027350214
0.028390832
0.029436478
0.030486355
0.031539664
0.032595608
0.033653377
0.03471215
0.035771082
0.036829304
0.037885911
0.038939952
0.039990407
0.041036116
0.042075459
0.043104763
0.044101585
0.00020793291
0.00064755251
0.0011112395
0.0015990946
0.0021112131
0.0026476976
0.0032086481
0.0037941428
0.0044042202
0.0050388655
0.0056980004
0.0063814759
0.0070890692
0.0078204793
0.0085753134
0.0093530946
0.010153268
0.010975202
0.011818193
0.012681472
0.013564213
0.014465547
0.015384564
0.016320328
0.017271878
0.018238244
0.019218448
0.02021152
0.0212165
0.022232446
0.023258438
0.024293581
0.025337009
0.026387885
0.0274454
0.02850877
0.029577239
0.030650064
0.031726521
0.032805893
0.033887462
0.034970511
0.036054308
0.037138108
0.038221142
0.039302611
0.04038168
0.041457502
0.042529426
0.043597894
0.044633389
0.045660996
0.00021767005
0.00067819179
0.0011642311
0.0016758722
0.0022131811
0.0027762196
0.0033650359
0.0039796458
0.0046200148
0.0052860449
0.0059775649
0.0066943248
0.0074359937
0.0082021444
0.0089922541
0.0098057143
0.010641829
0.011499821
0.012378838
0.013277963
0.014196227
0.015132618
0.016086096
0.017055601
0.018040062
0.01903841
0.020049591
0.021072572
0.02210635
0.023149959
0.024202472
0.025263005
0.02633072
0.027404821
0.028484557
0.029569213
0.030658107
0.031750585
0.032846014
0.033943773
0.035043248
0.036143821
0.037244869
0.038345754
0.039445814
0.040544347
0.041640554
0.042733409
0.04382158
0.044904359
0.045950234
0.047008876
0.00022770257
0.00070978118
0.0012188695
0.0017550224
0.0023182626
0.0029085957
0.0035260013
0.0041704138
0.0048417051
0.0055396712
0.0062640235
0.0070143878
0.0077902883
0.0085911436
0.0094162782
0.010264919
0.011136202
0.012029178
0.012942824
0.013876058
0.014827752
0.015796745
0.01678186
0.017781914
0.018795732
0.019822159
0.020860079
0.021908415
0.022966143
0.024032296
0.025105965
0.026186305
0.027272531
0.028363917
0.02945979
0.030559529
0.031662551
0.032768308
0.033876277
0.03498595
0.036096827
0.037208407
0.038320183
0.039431631
0.040542209
0.04165132
0.042758213
0.043861603
0.044958765
0.046045849
0.047103173
0.048184157
0.00023819276
0.00074283709
0.001276057
0.0018378663
0.0024282306
0.0030470834
0.0036943178
0.0043697665
0.0050731844
0.0058042358
0.0065624908
0.007347411
0.0081583425
0.0089945262
0.0098550953
0.01073908
0.011645417
0.012572957
0.013520486
0.014486735
0.015470406
0.016470181
0.017484745
0.018512796
0.019553064
0.020604325
0.021665418
0.022735246
0.023812789
0.024897104
0.025987332
0.027082691
0.028182478
0.029286062
0.030392876
0.03150241
0.032614204
0.033727833
0.0348429
0.035959026
0.037075836
0.038192956
0.039310001
0.040426571
0.041542236
0.042656522
0.043768826
0.044877993
0.045980177
0.047051985
0.048136483
0.049226131
0.00024927904
0.00077780308
0.0013365723
0.0019255477
0.0025446237
0.003193645
0.003872398
0.0045805907
0.0053178344
0.0060836366
0.0068773843
0.0076983373
0.0085456366
0.0094183025
0.010315239
0.011235245
0.012177021
0.013139193
0.01412033
0.015118962
0.016133606
0.017162786
0.018205049
0.019258983
0.02032324
0.021396547
0.022477721
0.023565672
0.024659411
0.025758054
0.026860817
0.027967011
0.029076044
0.030187405
0.031300655
0.032415421
0.033531382
0.034648252
0.035765776
0.036883713
0.038001825
0.039119875
0.04023761
0.041354755
0.042470997
0.043586005
0.044699687
0.045813517
0.046894623
0.04797582
0.049073927
0.050166081
0.00026108155
0.00081506719
0.0014011002
0.0020190768
0.0026688046
0.0033500209
0.0040623829
0.0048054466
0.0055786535
0.0063813105
0.0072125804
0.00807149
0.0089569281
0.0098676505
0.01080229
0.011759372
0.01273733
0.013734535
0.014749316
0.015779986
0.016824874
0.017882343
0.018950811
0.020028773
0.021114822
0.022207663
0.02330612
0.02440914
0.025515802
0.026625307
0.027736979
0.028850257
0.029964683
0.031079892
0.032195599
0.033311586
0.034427685
0.035543768
0.036659731
0.03777548
0.038890926
0.040005973
0.041120514
0.04223441
0.043347422
0.044458996
0.04556784
0.046672448
0.047745876
0.048840727
0.049937849
0.05102985
0.00027370733
0.00085497839
0.0014702602
0.0021193712
0.0028020154
0.0035178006
0.004266228
0.0050466747
0.0058583669
0.0067003665
0.0075715762
0.0084707375
0.0093964365
0.010347115
0.011321088
0.012316565
0.013331678
0.014364511
0.015413136
0.016475641
0.017550162
0.018634911
0.019728189
0.020828424
0.021934179
0.023044165
0.024157249
0.025272454
0.026388957
0.027506084
0.0286233
0.029740198
0.030856485
0.031971966
0.03308653
0.034200133
0.035312777
0.036424502
0.037535364
0.038645424
0.039754743
0.040863375
0.041971377
0.043078817
0.044185748
0.045291832
0.046393888
0.047468964
0.048555095
0.049651533
0.050744967
0.051836926
0.00028725475
0.00089786085
0.0015446316
0.0022272935
0.0029454268
0.0036984844
0.0044857844
0.005306478
0.0061595291
0.0070437142
0.0079576179
0.0088996388
0.0098680027
0.010860782
0.011875921
0.012911272
0.013964626
0.015033759
0.016116469
0.017210615
0.018314148
0.019425139
0.020541805
0.02166253
0.022785886
0.02391063
0.025035711
0.026160266
0.027283612
0.028405234
0.029524773
0.030642006
0.031756832
0.03286925
0.033979343
0.035087255
0.036193175
0.037297317
0.038399904
0.039501157
0.040601282
0.041700472
0.042798931
0.043896957
0.044995266
0.046096331
0.047166866
0.048238527
0.049330451
0.050419283
0.051504385
0.052584351
0.0003018172
0.00094402582
0.0016247745
0.0023436814
0.0031001799
0.003893542
0.0047228552
0.005586996
0.0064846219
0.0074141598
0.008373811
0.0093615642
0.010375219
0.011412416
0.012470676
0.013547445
0.014640144
0.015746218
0.016863184
0.017988676
0.019120475
0.020256539
0.02139503
0.022534336
0.023673075
0.024810098
0.025944481
0.027075519
0.028202708
0.029325731
0.030444437
0.031558819
0.032668993
0.033775174
0.034877657
0.03597679
0.037072957
0.038166557
0.039257984
0.040347615
0.041435796
0.042522832
0.043608979
0.044694418
0.045779124
0.046862134
0.047915962
0.048993588
0.050074845
0.051153803
0.052229538
0.053279974
0.00031748605
0.00099378138
0.0017112471
0.0024693741
0.0032674259
0.0041044475
0.0049792466
0.0058903781
0.0068361228
0.0078144855
0.0088232069
0.0098597884
0.010921528
0.012005568
0.013108947
0.014228663
0.015361735
0.016505266
0.017656494
0.018812841
0.019971944
0.021131686
0.022290224
0.023445994
0.024597714
0.025744379
0.026885242
0.0280198
0.029147773
0.03026908
0.03138381
0.0324922
0.033594608
0.034691486
0.035783356
0.036870784
0.037954357
0.039034664
0.040112276
0.041187726
0.042261497
0.043334005
0.044405572
0.045476384
0.04654638
0.047593407
0.048654958
0.049724507
0.05079351
0.051861019
0.052905161
0.053961749
0.00033435292
0.0010474402
0.0018046198
0.0026052379
0.0034483463
0.004332715
0.0052568236
0.0062188312
0.0072165623
0.0082475119
0.0093088697
0.01039756
0.011510297
0.012643649
0.013794118
0.014958211
0.016132526
0.017313817
0.01849906
0.019685493
0.020870647
0.022052383
0.023228906
0.024398761
0.025560826
0.026714291
0.027858642
0.028993628
0.030119234
0.031235649
0.032343237
0.033442507
0.03453408
0.035618662
0.036697017
0.03776994
0.038838229
0.039902668
0.040964003
0.042022926
0.043080056
0.044135923
0.045190941
0.04624537
0.047277977
0.048322697
0.049378517
0.050434319
0.051489901
0.052523916
0.053569032
0.054622052
0.00035251148
0.0011053258
0.0019054914
0.0027521764
0.0036441767
0.0045799398
0.0055575424
0.0065746622
0.00762857
0.008716147
0.0098339256
0.010978151
0.012144861
0.013329977
0.014529404
0.01573913
0.016955317
0.018174386
0.019393072
0.020608471
0.021818068
0.023019767
0.024211886
0.025393146
0.026562648
0.027719843
0.028864499
0.029996668
0.03111664
0.032224915
0.03332216
0.034409176
0.03548687
0.036556218
0.03761824
0.038673966
0.039724413
0.040770559
0.041813326
0.042853558
0.043892009
0.044929319
0.045966003
0.046981529
0.048005444
0.04904492
0.050084844
0.051125358
0.052145844
0.053176422
0.05421768
0.055258265
0.00037205884
0.0011677813
0.0020144923
0.0029111455
0.0038562372
0.0048478218
0.0058834836
0.0069603138
0.0080749126
0.0092234235
0.010401598
0.011604889
0.012828558
0.014067803
0.015317885
0.016574246
0.01783262
0.019089117
0.020340279
0.021583118
0.022815148
0.024034392
0.025239358
0.026429016
0.027602761
0.028760368
0.029901946
0.031027893
0.03213885
0.033235657
0.034319312
0.035390933
0.036451725
0.037502952
0.038545897
0.039581835
0.040612
0.04163757
0.042659635
0.043679184
0.044697083
0.045714081
0.046710432
0.047711348
0.048731168
0.04975228
0.050774804
0.051778733
0.05279239
0.05381815
0.054844846
0.055871957
0.00039309877
0.0012351693
0.0021322937
0.0030831752
0.0040859501
0.0051381908
0.0062368805
0.0073783958
0.0085585249
0.0097725273
0.011015233
0.012281175
0.013564738
0.014860322
0.016162504
0.017466175
0.018766659
0.020059804
0.021342018
0.022610317
0.023862329
0.025096282
0.026310963
0.027505674
0.028680175
0.029834629
0.030969542
0.032085708
0.033184156
0.034266096
0.03533288
0.036385959
0.037426851
0.038457116
0.039478316
0.040491973
0.04149954
0.042502389
0.043501775
0.04449881
0.045494442
0.0464697
0.047446353
0.048443632
0.04944294
0.050444522
0.051428983
0.052423879
0.053430689
0.054439997
0.055451297
0.056464095
0.00041573987
0.0013078762
0.002259621
0.0032693836
0.0043348593
0.0054530317
0.0066201479
0.0078317137
0.0090825359
0.01036682
0.011678314
0.013010494
0.014356766
0.015710668
0.017066066
0.018417313
0.019759371
0.021087886
0.022399225
0.023690506
0.024959576
0.026204969
0.027425844
0.028621918
0.029793395
0.03094089
0.032065362
0.033168044
0.034250386
0.035314
0.03636061
0.037392009
0.038410034
0.039416553
0.040413421
0.041402408
0.042385184
0.043363306
0.044338204
0.04531108
0.046263691
0.047215378
0.048187373
0.049162177
0.050139979
0.051102113
0.05207654
0.053061369
0.054050019
0.055042184
0.05603741
0.057035224
0.00044009514
0.0013863185
0.0023972655
0.0034709905
0.0046046515
0.0057945093
0.0070359092
0.0083232957
0.0096502929
0.011009854
0.012394468
0.013796414
0.015208015
0.0166219
0.01803122
0.019429828
0.020812389
0.022174441
0.023512428
0.024823687
0.026106401
0.027359518
0.02858267
0.029776081
0.030940472
0.032076975
0.033187053
0.034272421
0.035334982
0.036376772
0.037399902
0.03840651
0.039398747
0.040378791
0.041348834
0.042310873
0.043266785
0.044218324
0.045167121
0.046095867
0.047023273
0.047966548
0.048914409
0.049865868
0.050803
0.051755068
0.052715268
0.053680346
0.054650237
0.055624696
0.056603307
0.057585615
0.00046628744
0.0014709504
0.002546091
0.0036893341
0.0048971786
0.0061649963
0.0074870257
0.0088564199
0.010265382
0.011705387
0.013167475
0.014642577
0.016121851
0.017596983
0.019060436
0.020505627
0.021927021
0.023320175
0.024681747
0.026009429
0.027301867
0.028558543
0.029779668
0.030966061
0.032119038
0.03324031
0.034331889
0.035396008
0.036435053
0.037451506
0.038447878
0.039426639
0.040390226
0.041341118
0.042281953
0.043214886
0.044141994
0.045065224
0.045968652
0.046872592
0.047788084
0.048702139
0.049626119
0.050535879
0.051463467
0.052396717
0.053335629
0.054280411
0.05523106
0.056187375
0.057148959
0.058115369
0.00049444878
0.0015622669
0.0027070468
0.0039258899
0.0052144838
0.0065671033
0.0079766279
0.0094346417
0.010931648
0.012457392
0.014001257
0.015552689
0.01710161
0.018638762
0.020155977
0.021646334
0.023104231
0.024525405
0.025906881
0.027246862
0.028544594
0.02980022
0.031014636
0.032189348
0.033326338
0.034427954
0.035496802
0.036535664
0.037547427
0.038535039
0.039501437
0.040449396
0.041381557
0.042300609
0.043210026
0.044111833
0.045008335
0.045884408
0.046764083
0.047651179
0.048540605
0.049417861
0.050305047
0.051205121
0.052109483
0.053019924
0.053937035
0.054861093
0.055792136
0.056729986
0.057674254
0.058624496
0.00052472144
0.0016608111
0.0028811819
0.004182294
0.0055588319
0.0070037137
0.00850815
0.010061824
0.011653216
0.013270063
0.01489988
0.016530504
0.018150576
0.019749932
0.021319869
0.022853261
0.024344618
0.02579004
0.027187098
0.028534671
0.029832757
0.031082289
0.032284954
0.033443033
0.034559248
0.035636631
0.036678422
0.037687975
0.038668684
0.039623987
0.040557302
0.041471668
0.042369786
0.043254099
0.044130253
0.044999033
0.0458469
0.046699151
0.047556471
0.048414259
0.049259759
0.050117203
0.050983851
0.051857116
0.052736885
0.053623957
0.054518866
0.055421894
0.056333088
0.057252272
0.058179051
0.05911297
0.00055725932
0.0017671812
0.0030696614
0.0044603701
0.0059327453
0.007478024
0.0090853691
0.010742167
0.01243451
0.014147821
0.015867544
0.017579801
0.019271952
0.020933009
0.022553863
0.024127378
0.025648386
0.02711356
0.028521217
0.02987109
0.031164086
0.032402056
0.033587589
0.034723825
0.035814292
0.03686275
0.037873103
0.038849296
0.039795201
0.040714761
0.041612045
0.042490285
0.043352173
0.044197929
0.045039979
0.045858087
0.046683898
0.047504314
0.048333223
0.049144415
0.049972773
0.050804443
0.051643369
0.052489999
0.053344698
0.054208047
0.055080504
0.055962327
0.05685355
0.057753985
0.058663216
0.059580765
0.00059222976
0.0018820407
0.0032737881
0.0047621624
0.0063390468
0.0079935916
0.0097124498
0.011480246
0.01328027
0.015095319
0.016908571
0.018704368
0.020468836
0.022190288
0.023859405
0.025469283
0.027015319
0.028494994
0.029907587
0.031253878
0.032535847
0.033756393
0.034919103
0.036028062
0.037087663
0.038102427
0.039076945
0.040015788
0.040923195
0.041803561
0.042662087
0.043501984
0.044326938
0.045127002
0.045922449
0.046715771
0.04751013
0.048287771
0.049080113
0.049871036
0.050668153
0.051471377
0.052282534
0.053102532
0.05393199
0.054771464
0.055621374
0.056481948
0.0573532
0.058234917
0.05912665
0.060027884
0.00062981558
0.00200613
0.0034950277
0.005089976
0.0067809112
0.0085543903
0.010393995
0.012281048
0.01419558
0.016117447
0.018027396
0.019907973
0.021744178
0.02352381
0.025237603
0.026879167
0.028444745
0.029932884
0.031344062
0.032680308
0.033944839
0.035141727
0.03627565
0.03735171
0.038375239
0.039351511
0.040285818
0.041183481
0.042048817
0.042886316
0.043703729
0.04450289
0.045273542
0.046042236
0.046806234
0.047554023
0.048304935
0.049059598
0.049816719
0.05057667
0.051343035
0.052117145
0.052900385
0.053693747
0.054497952
0.055313561
0.056140968
0.056980376
0.057831775
0.058694916
0.059569302
0.060454372
0.00067021767
0.002140281
0.0037350409
0.0054464275
0.0072619292
0.0091648775
0.011135108
0.013150016
0.015185891
0.017219335
0.019228551
0.021194344
0.02310075
0.024935326
0.026689183
0.028356771
0.029935494
0.031425251
0.032827966
0.034147132
0.035387371
0.036554043
0.037652983
0.03869038
0.039672607
0.040605612
0.041495346
0.042348339
0.043168342
0.043958476
0.044733496
0.045476037
0.04621271
0.046946542
0.047657085
0.048375698
0.049091926
0.049810434
0.050532772
0.051260458
0.051995944
0.052740726
0.053496019
0.054262832
0.055041906
0.055833795
0.056638872
0.057457313
0.058289082
0.059133894
0.059991187
0.060860329
0.00071365812
0.0022854359
0.0039957242
0.0058345075
0.0077861846
0.0098300749
0.01194146
0.014093104
0.016257045
0.018406361
0.020516661
0.022567133
0.024541105
0.026426249
0.028214436
0.029901331
0.031485847
0.032969545
0.034356055
0.035650552
0.036859246
0.037988874
0.03904646
0.040039318
0.040975098
0.041860167
0.042700832
0.04350632
0.044278725
0.04501426
0.045735678
0.046446719
0.047130782
0.047820424
0.048498901
0.049177232
0.049856189
0.050538543
0.051226129
0.051921084
0.052625658
0.053341167
0.054068636
0.054809111
0.055563302
0.05633174
0.057114771
0.057912547
0.058725008
0.059551839
0.060392377
0.061245906
0.0007603841
0.0024426709
0.0042792613
0.0062576592
0.0083583504
0.010555665
0.012819373
0.015116832
0.017415315
0.01968416
0.021896419
0.02402988
0.026067532
0.027997597
0.029813152
0.031511505
0.033093466
0.034562586
0.035924465
0.037186182
0.03835574
0.039441315
0.040451075
0.04139339
0.042277844
0.043110595
0.043896992
0.044653295
0.045360824
0.046059454
0.046725513
0.04738647
0.048034592
0.048678137
0.049316478
0.049955007
0.05059621
0.05124243
0.051895176
0.05255724
0.053231121
0.053917661
0.054617553
0.055332043
0.056061719
0.056807084
0.057568454
0.058345957
0.059139513
0.059948807
0.060773012
0.061611329
0.0008106727
0.0026132261
0.0045881887
0.0067198782
0.0089838078
0.01134811
0.013775927
0.016228363
0.018667446
0.021058638
0.023372572
0.025585979
0.027681996
0.029649913
0.031484529
0.033185286
0.034755315
0.036200498
0.037528665
0.038749007
0.039871591
0.04090604
0.04186152
0.042746995
0.043575834
0.044352745
0.045077323
0.0457747
0.046433217
0.047075038
0.047698781
0.048310294
0.048913097
0.049511748
0.05010844
0.050707051
0.051310459
0.051920875
0.052538586
0.053167684
0.053811455
0.054469601
0.055142207
0.055831225
0.056536865
0.057259635
0.057999817
0.058757512
0.05953262
0.00086483697
0.002798545
0.0049254812
0.0072258395
0.009668795
0.012214799
0.014819078
0.017435598
0.020020713
0.022535984
0.024949893
0.027238621
0.029386046
0.031383148
0.033227053
0.034919884
0.036467556
0.037878639
0.039163411
0.040333333
0.041400981
0.042377337
0.043272375
0.044093824
0.044863891
0.045567175
0.046244398
0.046873558
0.047486152
0.04807651
0.048646364
0.049207941
0.049764525
0.050318467
0.050872998
0.051431651
0.051997498
0.052573081
0.053155219
0.05375115
0.054365988
0.054996662
0.055642109
0.056306416
0.056988578
0.05768932
0.058408857
0.05914727
0.059904388
0.00092323345
0.0030003253
0.0052946627
0.0077810601
0.010420596
0.01316423
0.015957818
0.018747291
0.021482991
0.024122682
0.026633153
0.028990704
0.031180684
0.033196512
0.035038341
0.036711584
0.038225443
0.039591528
0.040822726
0.04193273
0.04293754
0.043849113
0.044678579
0.045426258
0.046126474
0.04677039
0.047382373
0.047958147
0.048513582
0.049052287
0.049564601
0.050076253
0.050586921
0.051096161
0.051608451
0.052127267
0.052655873
0.053198999
0.05374402
0.054306104
0.054894355
0.055498965
0.056116684
0.056757587
0.057416813
0.058096181
0.058795675
0.059515398
0.060255144
0.00098627171
0.0032205863
0.0056999519
0.0083921105
0.011247779
0.014206243
0.017202378
0.020173209
0.023062841
0.025825529
0.028427055
0.030844688
0.033066174
0.035088269
0.03691495
0.03855559
0.040023199
0.041332788
0.042499936
0.043539952
0.044474363
0.045314736
0.046060231
0.046742415
0.047368174
0.047957945
0.04849829
0.049012712
0.049510791
0.049991146
0.050455493
0.050916846
0.051378738
0.05184306
0.052313305
0.052792568
0.053283699
0.053789072
0.054305254
0.054839466
0.055397107
0.055977429
0.056564856
0.057185102
0.057821596
0.058480374
0.059160464
0.059862175
0.060585251
0.0010544264
0.0034617594
0.0061464564
0.0090668893
0.012160509
0.015352324
0.018564499
0.021724336
0.024769617
0.027651638
0.030336101
0.032802378
0.035041777
0.03705547
0.038852152
0.040445846
0.041853902
0.043095093
0.044187825
0.045146748
0.046004176
0.046755661
0.047422835
0.04804072
0.048589455
0.049109206
0.049587244
0.050039745
0.050475919
0.050898746
0.051311927
0.051723503
0.052137701
0.052557551
0.052986319
0.053426659
0.053881087
0.054351433
0.0548375
0.055343286
0.055872071
0.056423511
0.056992816
0.057592368
0.058202855
0.058842199
0.059503482
0.06018792
0.060895101
0.0011282527
0.0037268104
0.0066404339
0.0098149881
0.013170949
0.016616014
0.020057806
0.02341314
0.026613607
0.029608375
0.032364373
0.034864586
0.037105387
0.039093634
0.040843687
0.04237488
0.043709386
0.044870103
0.045879066
0.046743423
0.047507606
0.0481795
0.048766695
0.049306079
0.049785768
0.050229872
0.050641255
0.051030404
0.051405513
0.051771356
0.052132457
0.052494755
0.052862159
0.053238305
0.05362651
0.054028842
0.054447645
0.05488462
0.055340676
0.055818366
0.056319846
0.056845281
0.057393387
0.057968904
0.058567824
0.059184106
0.059825011
0.060492994
0.06118514
0.0012084063
0.0040194089
0.0071896484
0.010648179
0.014293814
0.018013459
0.021698317
0.025253949
0.02860613
0.031703202
0.034515165
0.03703066
0.039253076
0.041196382
0.042881527
0.044333672
0.045580191
0.04664825
0.047549647
0.048323179
0.048992272
0.049578712
0.050086423
0.050540237
0.050944303
0.051313687
0.051656898
0.051982099
0.052296741
0.052606258
0.052915463
0.053229328
0.053550859
0.053884255
0.054233169
0.054598603
0.054983008
0.055387985
0.055814762
0.056265156
0.056740706
0.057241845
0.057768419
0.058322341
0.058902058
0.059507763
0.060130925
0.060777798
0.061455869
0.0012956694
0.0043441684
0.007803865
0.01158108
0.015547113
0.019564206
0.023504798
0.027262622
0.030758675
0.033942557
0.036789934
0.03929773
0.041478533
0.043355057
0.044955679
0.0463116
0.047455636
0.048404926
0.049205413
0.049879521
0.050456194
0.050947494
0.051367181
0.051736068
0.052061605
0.052356017
0.052630918
0.052892295
0.053147238
0.053401345
0.053659471
0.053926244
0.054202858
0.054494548
0.054805885
0.055135622
0.055486982
0.055861308
0.056259865
0.056684021
0.057134946
0.057613159
0.058118832
0.05865276
0.059214202
0.059802785
0.060417509
0.061049681
0.061707856
0.0013909863
0.0047069907
0.0084955479
0.012632089
0.016953233
0.021291494
0.025498065
0.029455265
0.033081321
0.03633025
0.039186891
0.041659586
0.043772414
0.045558378
0.047054086
0.048296473
0.049308985
0.050145382
0.050840168
0.051410623
0.051882454
0.052276164
0.05260397
0.05288845
0.053133723
0.053352825
0.053560489
0.053758729
0.053955053
0.054154974
0.054363222
0.054584931
0.054817493
0.055068432
0.055344622
0.055639752
0.055959566
0.056304639
0.056676232
0.057075357
0.057502952
0.05795952
0.058445284
0.05896055
0.059504808
0.060077417
0.06067739
0.06130344
0.061947533
0.001495512
0.0051155778
0.0092808667
0.013824728
0.018539461
0.023221718
0.027700076
0.031846986
0.035581239
0.038865912
0.041699571
0.044105553
0.046121651
0.04779225
0.049162671
0.050258644
0.051145006
0.051867562
0.052441834
0.052899705
0.053263195