/*--------------------------------*- C++ -*----------------------------------*\
| =========                 |                                                 |
| \\      /  F ield         | OpenFOAM: The Open Source CFD Toolbox           |
|  \\    /   O peration     | Version:  2312                                  |
|   \\  /    A nd           | Website:  www.openfoam.com                      |
|    \\/     M anipulation  |                                                 |
\*---------------------------------------------------------------------------*/
FoamFile
{
    version     2.0;
    format      ascii;
    arch        "LSB;label=32;scalar=64";
    class       volScalarField;
    location    "0.03";
    object      H2O;
}
// * * * * * * * * * * * * * * * * * * * * * * * * * * * * * * * * * * * * * //

dimensions      [0 0 0 0 0 0 0];

internalField   nonuniform List<scalar> 
3221
(
4.9615634e-05
0.00015189873
0.00025409574
0.00035364427
0.00044852195
0.00053742975
0.0006197622
0.00069538771
0.00076427558
0.00082581872
0.00087664945
0.00090038988
0.00081572453
0.00073707793
0.00066644027
0.0006047799
0.00055991949
0.00054511602
0.00055455782
0.00057806484
0.00060862612
0.00064259215
0.00067837615
0.000715343
0.00075325037
0.0007920043
0.00083156284
0.00087190035
0.00091299447
0.00095482146
0.00099735442
0.0010405626
0.0010844108
0.0011288595
0.001173864
0.0012193751
0.0012653382
0.0013116937
0.0013583769
0.0014053176
0.0014524408
0.0014996662
0.0015469084
0.0015940772
0.0016410778
0.0016878106
0.0017341717
0.0017800532
0.0018253434
0.001869927
0.0019136854
0.0019564222
5.6028434e-05
0.00017201437
0.00028921857
0.00040546185
0.00051903357
0.00062886897
0.00073454337
0.00083610484
0.00093381471
0.001027826
0.0011176686
0.0012011278
0.0012722169
0.0013329098
0.0013860019
0.0014361167
0.001491785
0.0015626641
0.0016493751
0.0017478123
0.0018538817
0.0019649554
0.0020796704
0.0021974043
0.002317893
0.0024410232
0.0025667352
0.0026949811
0.002825709
0.002958857
0.0030943504
0.0032321004
0.0033720038
0.0035139421
0.0036577815
0.0038033721
0.0039505481
0.0040991273
0.0042489112
0.004399685
0.0045512177
0.0047032623
0.0048555557
0.0050078196
0.0051597606
0.0053110704
0.005461427
0.0056104943
0.0057579231
0.0059033505
0.0060464
0.0061866897
6.6789689e-05
0.00020573014
0.00034792628
0.00049174874
0.00063592728
0.00077970047
0.00092282921
0.0010654845
0.0012080702
0.0013510387
0.001494723
0.0016391861
0.0017840968
0.0019294064
0.0020756099
0.0022242104
0.0023780475
0.0025401827
0.0027112949
0.0028903366
0.0030759309
0.0032670496
0.0034630926
0.0036637547
0.0038688878
0.0040784099
0.0042922571
0.0045103606
0.0047326361
0.0049589792
0.0051892631
0.0054233384
0.0056610319
0.005902146
0.0061464586
0.0063937222
0.0066436646
0.0068959878
0.0071503688
0.0074064591
0.0076638855
0.0079222497
0.0081811293
0.0084400778
0.0086986255
0.0089562799
0.0092125267
0.0094668302
0.0097186341
0.0099673616
0.010212421
0.010453255
7.9622237e-05
0.00024591367
0.00041772894
0.00059395745
0.00077373885
0.00095657542
0.0011423474
0.0013312429
0.0015236419
0.0017199963
0.0019207357
0.0021262133
0.0023366881
0.0025523862
0.0027735995
0.0030008184
0.0032347863
0.0034762223
0.0037253027
0.0039817508
0.0042451591
0.00451519
0.0047916211
0.0050743163
0.0053631835
0.0056581423
0.0059591045
0.0062659634
0.0065785881
0.0068968209
0.0072204757
0.0075493361
0.0078831554
0.008221656
0.0085645288
0.0089114336
0.0092619985
0.0096158201
0.0099724637
0.010331463
0.010692322
0.011054514
0.011417479
0.011780633
0.012143358
0.01250501
0.012864918
0.013222385
0.013576687
0.013927079
0.014272802
0.014613173
9.2838249e-05
0.00028729375
0.00048948032
0.00069869275
0.00091439033
0.0011362733
0.0013642937
0.0015986108
0.0018395168
0.0020873583
0.0023424746
0.00260516
0.00287565
0.0031541298
0.0034407553
0.0037356795
0.0040390627
0.0043510201
0.0046715398
0.0050005027
0.0053377542
0.0056831513
0.0060365745
0.0063979191
0.0067670808
0.0071439434
0.0075283698
0.0079201969
0.0083192329
0.008725255
0.0091380072
0.0095572004
0.0099825114
0.010413583
0.010850021
0.011291401
0.011737259
0.012187099
0.012640392
0.013096573
0.013555045
0.014015176
0.014476303
0.014937729
0.015398725
0.015858531
0.016316357
0.016771384
0.017222766
0.017669633
0.018111108
0.018546434
0.00010547049
0.00032685675
0.00055800252
0.0007984903
0.0010480092
0.0013064039
0.0015736784
0.0018499663
0.0021354824
0.0024304725
0.0027351729
0.0030497834
0.0033744555
0.0037092925
0.0040543552
0.0044096693
0.0047752302
0.0051510012
0.0055369047
0.0059328318
0.0063386583
0.0067542551
0.0071794886
0.0076142163
0.0080582804
0.0085115017
0.0089736756
0.0094445685
0.0099239155
0.010411418
0.010906744
0.011409529
0.01191937
0.012435831
0.012958443
0.013486698
0.014020058
0.014557949
0.015099762
0.015644857
0.01619256
0.016742162
0.017292922
0.017844066
0.018394786
0.01894424
0.019491557
0.020035834
0.020576144
0.021111534
0.021641053
0.022163911
0.00011710176
0.00036330415
0.00062109156
0.00089024137
0.0011706019
0.0014621224
0.0017648517
0.0020789148
0.0024044807
0.0027417294
0.0030908258
0.0034519012
0.0038250441
0.0042102985
0.0046076683
0.0050171184
0.0054385784
0.0058719507
0.0063171117
0.0067739163
0.0072422026
0.007721794
0.0082124979
0.0087141034
0.0092263776
0.0097490628
0.010281874
0.010824495
0.011376581
0.011937752
0.012507598
0.013085674
0.013671503
0.014264575
0.01486435
0.015470253
0.016081679
0.016697995
0.017318534
0.017942601
0.018569468
0.019198377
0.01982854
0.020459134
0.021089303
0.021718159
0.022344779
0.022968212
0.023587478
0.024201579
0.024809525
0.025410533
0.00012765667
0.00039640071
0.00067836749
0.00097346349
0.0012816443
0.0016029334
0.001937417
0.0022852236
0.0026465007
0.0030213918
0.0034100191
0.0038124705
0.0042287926
0.0046589886
0.0051030228
0.0055608175
0.006032255
0.0065171887
0.0070154434
0.0075268182
0.0080510888
0.0085880084
0.0091373074
0.0096986924
0.010271845
0.010856419
0.011452042
0.012058311
0.012674796
0.013301036
0.013936539
0.014580786
0.01523323
0.015893295
0.016560378
0.017233851
0.017913062
0.018597332
0.019285957
0.019978209
0.020673333
0.021370547
0.022069041
0.022767972
0.023466467
0.024163617
0.02485848
0.025550077
0.026237398
0.026919412
0.027595107
0.028263746
0.00013724664
0.00042649235
0.00073043962
0.0010490788
0.0013824351
0.0017305813
0.00209363
0.0024717156
0.0028649746
0.003273529
0.0036974729
0.0041368637
0.0045917154
0.0050619972
0.0055476374
0.0060485168
0.0065644697
0.0070952963
0.0076407618
0.0082005985
0.0087745081
0.0093621633
0.0099632088
0.010577262
0.011203913
0.011842724
0.012493233
0.013154949
0.013827356
0.014509912
0.01520205
0.015903183
0.016612699
0.01732997
0.018054345
0.018785158
0.019521724
0.020263341
0.021009287
0.021758824
0.022511191
0.023265606
0.024021262
0.024777324
0.025532925
0.026287164
0.0270391
0.027787751
0.028532084
0.029271016
0.030003444
0.030728602
0.00014607174
0.00045420171
0.00077838656
0.001118669
0.0014751158
0.0018478276
0.0022369306
0.002642559
0.0030648382
0.0035038704
0.0039597245
0.0044324282
0.0049219628
0.0054282607
0.00595121
0.006490643
0.0070463395
0.0076180392
0.008205439
0.0088081957
0.0094259293
0.010058225
0.010704638
0.011364692
0.012037883
0.012723683
0.013421537
0.014130869
0.014851081
0.015581556
0.016321661
0.017070748
0.017828159
0.018593222
0.019365258
0.020143577
0.020927482
0.021716266
0.02250921
0.023305585
0.024104648
0.024905637
0.025707772
0.026510246
0.027312226
0.028112841
0.028911182
0.029706291
0.030497138
0.031282571
0.032061136
0.03283051
0.00015436236
0.00048024773
0.00082345033
0.0011840424
0.0015621105
0.0019577652
0.0023711318
0.0028023344
0.0032514791
0.0037186424
0.0042038618
0.0047071286
0.0052283829
0.005767513
0.0063243553
0.0068986817
0.0074902088
0.0080986046
0.0087234878
0.0093644312
0.010020965
0.010692583
0.011378743
0.012078874
0.01279238
0.013518639
0.01425701
0.015006834
0.01576744
0.016538144
0.017318261
0.018107096
0.018903957
0.019708148
0.020518976
0.02133575
0.022157776
0.022984362
0.023814814
0.024648432
0.025484507
0.02632232
0.027161135
0.028000196
0.028838721
0.029675897
0.030510875
0.031342765
0.03217065
0.032993662
0.033811427
0.034603346
0.00016234645
0.00050534381
0.00086686381
0.0012469907
0.0016458141
0.0020634381
0.0024999734
0.0029555208
0.0034301561
0.0039239187
0.0044368029
0.0049687514
0.0055196505
0.0060893315
0.0066775613
0.0072840378
0.0079084013
0.0085502353
0.009209068
0.0098843773
0.010575596
0.011282117
0.012003301
0.012738479
0.013486961
0.014248035
0.015020977
0.015805055
0.016599534
0.01740368
0.018216764
0.019038064
0.01986687
0.020702481
0.02154421
0.02239138
0.023243325
0.024099386
0.02495891
0.025821246
0.026685738
0.027551724
0.028418532
0.02928547
0.030151827
0.031016862
0.031879796
0.032739794
0.033595907
0.034446808
0.03528949
0.03610558
0.00017023285
0.00053014555
0.000909762
0.0013091647
0.0017284316
0.0021676468
0.002626892
0.0031062313
0.0036056963
0.0041252748
0.0046649028
0.0052244582
0.0058037586
0.0064025576
0.0070205337
0.0076572963
0.0083123914
0.0089853017
0.0096754508
0.010382209
0.011104902
0.011842816
0.012595207
0.013361309
0.014140335
0.01493149
0.015733974
0.016546994
0.017369762
0.018201508
0.019041478
0.019888941
0.020743186
0.021603529
0.022469307
0.02333988
0.024214625
0.025092938
0.025974224
0.026857896
0.027743368
0.02863005
0.029517345
0.030404643
0.031291313
0.032176702
0.033060126
0.033940892
0.034818467
0.035693212
0.036540963
0.037382256
0.00017820455
0.00055522965
0.00095314577
0.0013720218
0.0018119119
0.0022728666
0.0027549253
0.003258101
0.0037823655
0.0043276385
0.0048937798
0.0054805849
0.0060877827
0.0067150235
0.0073618793
0.0080278521
0.0087123721
0.0094148026
0.010134446
0.010870551
0.011622326
0.012388941
0.013169545
0.01396327
0.01476924
0.015586579
0.016414424
0.017251929
0.018098275
0.018952668
0.019814351
0.0206826
0.021556729
0.022436086
0.023320057
0.024208055
0.025099522
0.025993925
0.026890743
0.027789469
0.028689599
0.029590629
0.030492047
0.031393331
0.032293941
0.0331933
0.034090755
0.034985466
0.035876342
0.036762804
0.037619053
0.038485754
0.00018641809
0.00058109161
0.00099787771
0.0014368214
0.0018979412
0.0023812418
0.0028867062
0.0034142811
0.0039638614
0.0045352801
0.005128301
0.0057426176
0.0063778405
0.0070334937
0.0077090242
0.0084037992
0.0091171109
0.0098481822
0.010596176
0.011360207
0.01213935
0.012932656
0.013739161
0.014557897
0.0153879
0.016228228
0.017077963
0.017936227
0.01880218
0.019675029
0.020554033
0.021438497
0.022327781
0.023221289
0.024118471
0.025018818
0.025921852
0.026827126
0.02773421
0.02864269
0.029552155
0.030462196
0.031372397
0.03228233
0.03319155
0.034099569
0.035005773
0.035909109
0.036807345
0.037697331
0.038562953
0.039447946
0.00019500632
0.00060815419
0.0010446966
0.001504645
0.001987971
0.0024946204
0.0030245055
0.0035774894
0.0041533715
0.0047518768
0.0053726535
0.0060152608
0.0066791633
0.0073637395
0.0080682799
0.0087919906
0.0095340002
0.010293369
0.011069103
0.011860163
0.012665485
0.013483993
0.014314607
0.015156264
0.016007921
0.01686858
0.017737287
0.018613146
0.019495321
0.02038304
0.0212756
0.022172361
0.023072747
0.023976241
0.02488238
0.025790746
0.026700962
0.02761268
0.028525576
0.029439338
0.030353661
0.031268237
0.032182752
0.033096878
0.034010263
0.034922519
0.035833153
0.036741218
0.037643566
0.038521046
0.039408915
0.040301001
0.00020408256
0.00063678054
0.00109424
0.001576429
0.002083261
0.0026146091
0.0031702982
0.0037500893
0.0043536643
0.0049806198
0.005630454
0.006302561
0.0069962375
0.0077106815
0.0084449958
0.0091981959
0.0099692198
0.010756942
0.01156019
0.012377761
0.013208441
0.014051022
0.014904313
0.01576716
0.016638458
0.017517165
0.018402312
0.019293008
0.020188443
0.021087893
0.021990714
0.022896346
0.023804302
0.024714163
0.025625571
0.02653822
0.027451847
0.028366219
0.029281126
0.030196371
0.03111176
0.032027098
0.032942177
0.033856774
0.034770632
0.035683479
0.03659524
0.037507124
0.038392215
0.039277382
0.040176392
0.041070529
0.00021374517
0.00066728834
0.0011470684
0.0016530004
0.0021849268
0.0027426327
0.0033258371
0.0039341768
0.0045671946
0.0052243228
0.0059048762
0.0066080579
0.0073329583
0.0080785587
0.00884374
0.0096272942
0.01042794
0.011244343
0.012075135
0.012918936
0.013774376
0.014640117
0.015514862
0.01639738
0.017286519
0.018181219
0.019080515
0.019983548
0.020889562
0.021797904
0.022708021
0.023619452
0.024531823
0.025444835
0.026358254
0.027271902
0.028185643
0.02909937
0.030012999
0.030926453
0.031839659
0.032752538
0.033665003
0.03457694
0.035488153
0.036398189
0.03730599
0.038210323
0.039089129
0.039985474
0.040883678
0.041777689
0.00022408179
0.00069996329
0.0012036891
0.0017351106
0.0022939854
0.0028799924
0.0034927233
0.0041316682
0.0047961935
0.0054855311
0.0061987828
0.0069349183
0.0076927799
0.0084710922
0.0092684752
0.010083463
0.010914527
0.011760099
0.012618599
0.013488462
0.014368164
0.015256237
0.016151295
0.017052048
0.017957319
0.018866055
0.019777327
0.020690336
0.021604407
0.022518989
0.023433644
0.024348038
0.025261933
0.026175167
0.027087651
0.027999348
0.02891026
0.02982042
0.030729872
0.031638669
0.032546859
0.033454486
0.034361597
0.035268249
0.036174483
0.037080025
0.037982269
0.038862424
0.039751629
0.040649274
0.041544458
0.042438435
0.00023517293
0.00073507078
0.0012645763
0.0018234656
0.002411395
0.0030279167
0.0036724722
0.0043443669
0.0050427523
0.0057666268
0.0065148318
0.0072860561
0.008078847
0.0088916265
0.0097227122
0.010570345
0.011432716
0.012308006
0.013194412
0.014090179
0.014993632
0.015903191
0.016817395
0.017734923
0.018654605
0.019575422
0.020496516
0.02141718
0.022336853
0.023255116
0.024171672
0.025086341
0.025999039
0.026909766
0.027818589
0.028725627
0.029631034
0.030534985
0.031437664
0.03233925
0.033239912
0.03413981
0.035039108
0.035938052
0.036837228
0.037738661
0.038615098
0.039492458
0.040386407
0.041277823
0.042166187
0.043050346
0.00024709509
0.00077286564
0.0013301886
0.0019187513
0.00253809
0.0031876086
0.00386656
0.0045740245
0.0053089029
0.0060699075
0.0068555654
0.0076642303
0.0084941005
0.0093432444
0.010209633
0.011091174
0.011985757
0.01289129
0.013805741
0.014727171
0.015653765
0.01658385
0.017515923
0.018448663
0.019380938
0.020311809
0.021240518
0.022166489
0.023089309
0.024008718
0.024924593
0.025836928
0.026745817
0.027651438
0.028554031
0.029453882
0.030351304
0.031246624
0.032140166
0.033032238
0.033923122
0.034813069
0.035702288
0.036590927
0.037478966
0.038365617
0.039228376
0.04011062
0.040995835
0.041879168
0.042759864
0.043619846
0.00025992303
0.00081360008
0.0014009829
0.0020216549
0.0026750128
0.0033602751
0.0040764654
0.0048224007
0.0055966736
0.0063976506
0.0072234819
0.0080721221
0.0089413592
0.009828853
0.01073218
0.011648881
0.012576518
0.013512716
0.014455216
0.015401907
0.016350855
0.017300326
0.01824881
0.019195029
0.020137933
0.021076697
0.022010711
0.022939564
0.023863026
0.02478103
0.025693649
0.026601078
0.02750361
0.028401615
0.029295519
0.030185786
0.031072898
0.031957336
0.032839568
0.033720029
0.034599116
0.035477169
0.036354451
0.037231115
0.038107112
0.038964303
0.039833386
0.040709017
0.0415842
0.04245816
0.04331299
0.04417801
0.00027373179
0.00085753006
0.0014774264
0.0021328854
0.0028231308
0.0035471557
0.0043037152
0.0050913024
0.0059081361
0.0067521655
0.0076210898
0.0085123911
0.0094233788
0.010351245
0.011293123
0.012246156
0.013207557
0.01417467
0.015145018
0.01611634
0.017086615
0.018054092
0.019017301
0.019975051
0.020926423
0.021870755
0.022807626
0.023736828
0.024658352
0.025572351
0.026479124
0.027379087
0.028272747
0.029160685
0.030043525
0.030921918
0.031796517
0.032667964
0.033536869
0.0344038
0.035269263
0.036133692
0.036997426
0.037860678
0.038706064
0.039561367
0.040425758
0.041290133
0.042154329
0.043000868
0.043856495
0.044718593
0.00028859805
0.00090492053
0.001560009
0.0022531826
0.0029834554
0.0037495564
0.0045499111
0.0053826181
0.0062454432
0.0071358329
0.0080509484
0.0089877158
0.009942891
0.010913135
0.011895096
0.012885487
0.013881169
0.01487921
0.015876937
0.016871974
0.01786226
0.018846081
0.019822058
0.020789146
0.021746606
0.022693991
0.023631112
0.024558008
0.02547492
0.026382255
0.027280559
0.02817049
0.029052788
0.029928254
0.030797722
0.031662036
0.032522027
0.033378498
0.034232202
0.035083831
0.035934002
0.036783239
0.037631963
0.038463364
0.039301635
0.040152645
0.041004021
0.041855881
0.042691344
0.043535069
0.044387538
0.045239456
0.0003046013
0.00095605229
0.0016492471
0.0023833292
0.0031570675
0.003968869
0.0048167563
0.0056983477
0.00661086
0.0075511357
0.008515697
0.0095008204
0.010502628
0.011517187
0.012540618
0.01356919
0.014599409
0.015628092
0.016652407
0.017669909
0.018678561
0.019676745
0.02066324
0.021637203
0.022598138
0.02354586
0.02448046
0.025402263
0.026311794
0.02720974
0.028096919
0.028974246
0.029842707
0.030703337
0.031557187
0.0324053
0.033248688
0.034088312
0.034925068
0.035759764
0.036593109
0.037425716
0.03824142
0.039060861
0.039895779
0.040731754
0.041568886
0.042390794
0.043220665
0.044060446
0.044900993
0.04574188
0.0003218265
0.0010112223
0.0017456901
0.0025241684
0.0033451314
0.0042065916
0.0051060792
0.0060406278
0.007006789
0.0080006821
0.0090180747
0.01005449
0.011105331
0.012166015
0.0132321
0.014299404
0.015364099
0.016422785
0.017472523
0.018510867
0.019535879
0.020546105
0.021540554
0.022518654
0.023480207
0.024425348
0.025354492
0.026268287
0.027167576
0.028053351
0.028926718
0.029788864
0.030641034
0.031484503
0.03232055
0.033150422
0.033975309
0.034796332
0.035614521
0.036430784
0.0372459
0.038044335
0.038843912
0.039660375
0.0404785
0.041298487
0.042104456
0.042918968
0.043743235
0.044569547
0.045397489
0.046226658
0.00034036257
0.0010707467
0.0018499319
0.0026766156
0.0035489112
0.0044643491
0.0054198569
0.0064117551
0.0074357923
0.008487224
0.0095609328
0.010651577
0.011753758
0.012862186
0.013971838
0.015078092
0.016176824
0.017264467
0.018338048
0.019395209
0.020434185
0.021453778
0.022453297
0.023432513
0.02439159
0.025331035
0.02625163
0.027154386
0.02804049
0.028911262
0.029768112
0.030612509
0.031445957
0.032269985
0.033086113
0.033895787
0.034700377
0.035501158
0.036299298
0.037095783
0.037875677
0.038654815
0.039450579
0.040248642
0.04104916
0.04183685
0.042634605
0.043440876
0.044250275
0.045062552
0.045877335
0.046694236
0.00036030202
0.0011349668
0.0019626201
0.0028416694
0.0037697877
0.0047439138
0.005760237
0.006814209
0.0079006099
0.0090136703
0.010147242
0.011295003
0.012450668
0.013608203
0.014762002
0.015907029
0.01703892
0.01815402
0.019249418
0.020322935
0.021373081
0.022398997
0.023400381
0.024377415
0.025330692
0.026261138
0.027169949
0.028058529
0.028928439
0.029781343
0.030618971
0.031443072
0.032255407
0.033057761
0.033851927
0.03463954
0.035422136
0.036201153
0.036977925
0.037738281
0.03849754
0.039269791
0.040045797
0.040824747
0.041591969
0.042371419
0.043157527
0.043947627
0.044741668
0.04553945
0.04634063
0.047144837
0.00038174542
0.0012042541
0.0020844623
0.0030204254
0.0040092771
0.0050472283
0.0061295621
0.0072506731
0.0084041778
0.0095830974
0.010780096
0.011987749
0.013198818
0.014406495
0.015604611
0.016787776
0.017951459
0.019092023
0.020206729
0.021293691
0.022351798
0.023380628
0.024380353
0.025351642
0.026295574
0.027213549
0.028107215
0.0289784
0.029829058
0.030661219
0.031476939
0.032278243
0.033067123
0.033845609
0.034615863
0.035379647
0.036138662
0.036894502
0.037634131
0.038374179
0.039123684
0.039872013
0.040628467
0.04137328
0.042132688
0.042896731
0.043665411
0.044438895
0.045217183
0.04600011
0.046787351
0.047578542
0.00040480087
0.0012790142
0.0022162354
0.0032140915
0.004269052
0.0053764297
0.0065303951
0.0077240582
0.0089496443
0.010198757
0.011462706
0.01273285
0.014000938
0.015259391
0.016501521
0.017721664
0.018915231
0.020078733
0.021209736
0.022306766
0.023369208
0.024397178
0.02539141
0.026353136
0.02728398
0.028185863
0.02906092
0.029911427
0.030739748
0.031548298
0.032339479
0.033115565
0.033878717
0.034631137
0.035375668
0.03611397
0.036847928
0.037565162
0.038285343
0.039011602
0.039739766
0.040457968
0.0411843
0.041921182
0.042661575
0.043406946
0.044157776
0.044914294
0.045676531
0.046444341
0.047217405
0.04799536
0.00042958483
0.0013596914
0.0023587982
0.0034240073
0.0045509668
0.0057338788
0.0069655476
0.0082375266
0.0095403858
0.010864084
0.012198401
0.013533378
0.014859717
0.016169096
0.017454389
0.018709764
0.019930725
0.021114079
0.022257838
0.023361084
0.024423816
0.025446797
0.026431408
0.027379517
0.028293352
0.029175397
0.030028302
0.030854814
0.031657711
0.03243981
0.033203906
0.03395249
0.034687771
0.03541175
0.03612905
0.036840312
0.037534454
0.038232184
0.038934065
0.039636328
0.040328532
0.041030513
0.041740031
0.042454965
0.043175224
0.043901462
0.044634116
0.045373417
0.046119404
0.046871932
0.047630678
0.048395269
0.00045622331
0.0014467757
0.0025131048
0.0036516658
0.0048570864
0.0061221925
0.0074381118
0.0087945175
0.010180024
0.011582697
0.012990619
0.014392428
0.015777778
0.01713767
0.018464649
0.019752872
0.020998108
0.022197633
0.023350069
0.024455198
0.025513763
0.026527279
0.027497864
0.028428091
0.029320846
0.030179209
0.031006376
0.031805577
0.032579981
0.033332816
0.034067415
0.034786422
0.035492043
0.036184456
0.036873835
0.037543613
0.038219697
0.038891365
0.039569984
0.0402341
0.04091227
0.041593151
0.042279972
0.042973101
0.043672835
0.044379651
0.045093925
0.045815865
0.046545502
0.04728268
0.048027059
0.048778249
0.0004848533
0.0015408102
0.0026802215
0.0038987405
0.0051897219
0.0065442832
0.0079514972
0.0093987762
0.01087244
0.012358405
0.013842899
0.015313101
0.016757656
0.018166994
0.019533485
0.020851478
0.022117204
0.023328601
0.024485078
0.025587275
0.026636812
0.027636062
0.028587963
0.029495857
0.030363344
0.031194122
0.031991952
0.032760574
0.03350346
0.034224208
0.034927076
0.035614692
0.036290074
0.036945079
0.037596305
0.038245791
0.038896126
0.039532773
0.040181457
0.040828979
0.041481571
0.042139163
0.042803251
0.043474576
0.044153646
0.044840916
0.04553673
0.046241274
0.046954561
0.047676415
0.048406468
0.0491443
0.00051562448
0.001642401
0.0028613484
0.0041671186
0.0055514724
0.0070034041
0.0085094727
0.010054386
0.011621797
0.013195212
0.01475887
0.016298482
0.017801767
0.019258736
0.020661804
0.022005738
0.023287462
0.024505789
0.025661108
0.026755081
0.027790342
0.028770223
0.029698556
0.030579517
0.031417471
0.032216736
0.032981645
0.033716554
0.034424996
0.03511065
0.035779858
0.036434125
0.03706505
0.037694374
0.038319852
0.03893206
0.039546826
0.040164662
0.04078451
0.041406675
0.042034092
0.042667848
0.04330908
0.043958599
0.044616994
0.045284726
0.045962117
0.046649333
0.047346365
0.048053011
0.048768864
0.049493463
0.00054870131
0.0017522292
0.0030578451
0.0044589423
0.0059452776
0.0075032047
0.0091162153
0.010765803
0.012432555
0.014097318
0.015742246
0.017351623
0.018912381
0.020414332
0.021850199
0.023215439
0.024507926
0.025727577
0.026875967
0.027955956
0.02897133
0.029926473
0.030826166
0.031675474
0.032479615
0.033243458
0.033971875
0.034670213
0.035341542
0.035988418
0.03662292
0.037230831
0.037833939
0.038434721
0.039016436
0.039604758
0.040191128
0.040779364
0.041370736
0.041966486
0.042568622
0.043178369
0.04379672
0.044424504
0.045062325
0.045710637
0.046369746
0.047039797
0.047720759
0.048412399
0.049114257
0.049825816
0.00058426562
0.0018710663
0.0032712643
0.00477666
0.0063744809
0.0080477958
0.009776368
0.0115379
0.0133095
0.015069126
0.01679681
0.018475513
0.020091587
0.021634937
0.02309891
0.024479957
0.025777186
0.026991876
0.028127
0.029186793
0.030176341
0.031101157
0.031966994
0.032779837
0.033545953
0.03427055
0.034958796
0.035618241
0.036250603
0.036852779
0.037443398
0.03802552
0.038585557
0.039150161
0.039705624
0.040260967
0.040816824
0.041375461
0.041938381
0.042507335
0.043084163
0.043669945
0.044265517
0.044871738
0.045489187
0.0461183
0.046759361
0.047412493
0.048077647
0.048754567
0.049442708
0.050141485
0.00062251977
0.0019997932
0.0035033936
0.0051230906
0.006842908
0.00864183
0.010495108
0.012376017
0.014257765
0.016115249
0.017926406
0.019673051
0.021341259
0.022921387
0.024407765
0.025798192
0.02709333
0.028296085
0.029411044
0.030444
0.031401507
0.032290258
0.033116939
0.033888404
0.034612499
0.035294265
0.035938081
0.03655726
0.037136508
0.03770847
0.038253766
0.038794886
0.039325498
0.039852363
0.040374967
0.040897725
0.041422672
0.041951727
0.042486124
0.04302815
0.043579851
0.044141915
0.04471491
0.045299857
0.045897236
0.04650746
0.047130787
0.047767322
0.048416999
0.049079561
0.04975433
0.050440653
0.00066369061
0.0021394252
0.0037563097
0.0055015052
0.0073549644
0.0092905979
0.011278231
0.013286018
0.015282874
0.017240522
0.019134919
0.020947016
0.022663006
0.024274123
0.025776107
0.027168502
0.028453871
0.029637029
0.030724388
0.031723471
0.032642521
0.033489415
0.034271658
0.034996589
0.035675152
0.036311202
0.036904408
0.037475344
0.038014466
0.03853992
0.039050573
0.039551213
0.040044722
0.040534833
0.041023339
0.041513416
0.042007422
0.042507164
0.043012879
0.043527916
0.044054965
0.044593783
0.04514444
0.045708533
0.046286234
0.04687796
0.04748394
0.048104258
0.048738833
0.00070803442
0.0022911442
0.0040324481
0.0059157312
0.0079157575
0.010000149
0.012132249
0.014274371
0.016390782
0.018450012
0.020426258
0.022300019
0.024058097
0.025693107
0.027202696
0.028588602
0.029855668
0.031010909
0.03206274
0.033020545
0.033894619
0.034693953
0.035426713
0.036099226
0.036729673
0.037305446
0.037859882
0.03837497
0.038876495
0.039359816
0.03982635
0.040286109
0.040741779
0.041195286
0.041649276
0.04210664
0.042569894
0.04304112
0.043517711
0.044005594
0.044508956
0.045025284
0.045553705
0.046097568
0.046656048
0.047229739
0.047818818
0.048423349
0.049043195
0.00075584311
0.0024563399
0.0043346938
0.0063702855
0.0085312503
0.010777439
0.013064525
0.015348242
0.017587936
0.019749027
0.021804328
0.023734434
0.025527352
0.027177692
0.028685581
0.030055451
0.031294834
0.032413236
0.033421207
0.034329958
0.035152586
0.035898883
0.03657796
0.037190078
0.037763338
0.038290507
0.038791532
0.039262913
0.039717643
0.040158676
0.040578103
0.040996988
0.041415068
0.041831978
0.042251385
0.042676135
0.0431089
0.043553553
0.043999757
0.044459929
0.044941526
0.045436515
0.045942236
0.046466937
0.04700664
0.047562832
0.048135502
0.048724733
0.049330357
0.00080745198
0.0026366657
0.0046665005
0.0068705471
0.0092084581
0.011630526
0.014083435
0.016515629
0.018881345
0.021143134
0.02327298
0.025252275
0.027070986
0.028726457
0.030221945
0.031565122
0.032766641
0.03383879
0.034794324
0.035645776
0.03641077
0.037098776
0.037709106
0.038267604
0.038779907
0.039262748
0.039705123
0.040126277
0.040534049
0.040927312
0.041307469
0.041685174
0.042063321
0.042443457
0.042828443
0.043220811
0.043622896
0.044036641
0.044459234
0.044896589
0.045353124
0.045828229
0.04630915
0.046816941
0.047338032
0.047877368
0.048434152
0.049008636
0.049600612
0.00086324964
0.002834112
0.0050320498
0.0074229825
0.0099557016
0.012568813
0.015198592
0.017785522
0.020278668
0.022638153
0.0248359
0.026855018
0.028688394
0.030336987
0.031807915
0.033112658
0.034265422
0.035281574
0.036176184
0.036961246
0.037663214
0.038278449
0.038824658
0.039330515
0.03977976
0.040205275
0.04059664
0.040967099
0.041324191
0.041670355
0.042008623
0.042345577
0.042684677
0.043028405
0.043379433
0.043739936
0.044111972
0.044497041
0.044894979
0.045309062
0.045741973
0.046193433
0.046659517
0.047150365
0.047650165
0.048173591
0.048714978
0.049275321
0.049854284
0.00092369059
0.0030511069
0.0054364648
0.0080354444
0.01078294
0.013603384
0.01642115
0.019168132
0.021788326
0.024240117
0.026496428
0.02854333
0.030377854
0.032005614
0.033438368
0.034691941
0.03578449
0.036734758
0.037560788
0.038268429
0.038894059
0.039444133
0.039924865
0.040366453
0.040759171
0.041122754
0.04145955
0.041778143
0.042085241
0.042384754
0.042680384
0.042976994
0.043277785
0.043585732
0.043903553
0.044232938
0.044575808
0.044933556
0.045306924
0.045698006
0.046108562
0.046538731
0.046987461
0.047458632
0.047948963
0.048453507
0.048978211
0.049525082
0.050091736
0.0009893116
0.0032906548
0.0058861019
0.0087175704
0.01170222
0.01474746
0.017764221
0.020675186
0.023419587
0.025955133
0.028257262
0.030316676
0.032136148
0.033727116
0.035106729
0.036295587
0.037316102
0.038190512
0.038928478
0.039561762
0.040109542
0.040589656
0.041005314
0.041376847
0.041707653
0.042010064
0.042291048
0.042557287
0.042814882
0.043068281
0.043321424
0.043578383
0.043841617
0.044114566
0.044400219
0.044699396
0.045014105
0.045345656
0.045695055
0.046063789
0.046453117
0.046863396
0.047294497
0.047747988
0.048222597
0.048718482
0.049228659
0.049758249
0.050313379
0.0010607531
0.0035565324
0.0063889557
0.0094813286
0.012728285
0.016017044
0.019243171
0.022319669
0.025181857
0.027788473
0.030119595
0.032172706
0.03395811
0.035494404
0.036804819
0.0379149
0.038851512
0.039628687
0.040284039
0.040835925
0.041308043
0.041710266
0.04205386
0.042355864
0.042622378
0.04286341
0.04308847
0.043302457
0.043511177
0.043719212
0.043930537
0.044148942
0.044375403
0.044614207
0.044869096
0.045139049
0.045426704
0.045733161
0.046059457
0.046406709
0.046775878
0.047167386
0.047581377
0.048018499
0.048478146
0.048960014
0.049463283
0.049980837
0.050519679
0.0011387882
0.0038535719
0.0069552303
0.01034178
0.013879463
0.017431159
0.020875042
0.024114767
0.027083387
0.029743256
0.032081963
0.034106337
0.035836091
0.037298243
0.038522767
0.039539897
0.040368832
0.041053583
0.041622399
0.042089425
0.042475708
0.042798036
0.043066408
0.043299309
0.043500112
0.043679488
0.043849501
0.044011798
0.044172527
0.044336201
0.044506692
0.044688203
0.044878599
0.045084041
0.045310155
0.045551775
0.045813605
0.046096113
0.046400332
0.046727093
0.047077161
0.047450949
0.04784864
0.048270483
0.048716063
0.049184853
0.049676046
0.050188587
0.050715901
0.0012243625
0.0041880785
0.0075981639
0.011318183
0.015178093
0.019011416
0.022677809
0.026072847
0.029130047
0.03181918
0.034139072
0.036108829