/*--------------------------------*- C++ -*----------------------------------*\
| =========                 |                                                 |
| \\      /  F ield         | OpenFOAM: The Open Source CFD Toolbox           |
|  \\    /   O peration     | Version:  2312                                  |
|   \\  /    A nd           | Website:  www.openfoam.com                      |
|    \\/     M anipulation  |                                                 |
\*---------------------------------------------------------------------------*/
FoamFile
{
    version     2.0;
    format      ascii;
    arch        "LSB;label=32;scalar=64";
    class       volScalarField;
    location    "0.03";
    object      Ma;
}
// * * * * * * * * * * * * * * * * * * * * * * * * * * * * * * * * * * * * * //

dimensions      [0 0 0 0 0 0 0];

internalField   nonuniform List<scalar> 
3221
(
0.0031323329
0.003016003
0.0028643043
0.0026804561
0.0024749584
0.0022591392
0.002044655
0.0018413781
0.0016590643
0.0015106214
0.0014089582
0.001385383
0.0014384415
0.0012458942
0.00095274374
0.00081176105
0.00077778209
0.00079669168
0.00084129987
0.00090066701
0.000963307
0.0010207279
0.0010687387
0.0011069951
0.0011367173
0.0011593543
0.0011761393
0.0011880367
0.0011957941
0.0012000038
0.0012011478
0.0011996312
0.0011958025
0.0011899692
0.0011824071
0.0011733683
0.0011630855
0.0011517764
0.001139646
0.0011268892
0.0011136915
0.0011002306
0.0010866767
0.0010731933
0.0010599368
0.0010470575
0.0010346989
0.001022998
0.0010120856
0.0010020861
0.00099311866
0.00098529798
0.0031577994
0.0030605248
0.0029183008
0.0027450123
0.0025589791
0.0023724457
0.0021960744
0.0020382194
0.0019017297
0.0017864953
0.0016945108
0.0016316753
0.0015923651
0.001504297
0.0013950193
0.0013251095
0.0013060584
0.0013093863
0.001313391
0.0013179832
0.0013274715
0.0013408711
0.0013553794
0.001368972
0.0013806185
0.0013898759
0.0013966217
0.001400896
0.0014028277
0.0014025837
0.001400351
0.0013963197
0.0013906796
0.0013836141
0.001375301
0.0013659098
0.0013556035
0.0013445369
0.001332858
0.0013207075
0.0013082191
0.0012955191
0.0012827273
0.0012699559
0.0012573108
0.0012448911
0.0012327896
0.0012210933
0.0012098839
0.0011992394
0.0011892377
0.0011799507
0.0031619992
0.0031110794
0.0030162881
0.0028930013
0.0027581446
0.0026244885
0.002498583
0.0023834132
0.0022817491
0.0021942478
0.0021212815
0.0020620327
0.0020110126
0.0019567594
0.0019026159
0.0018573158
0.0018245033
0.0017975492
0.0017719918
0.0017500101
0.0017335204
0.00172208
0.0017141494
0.0017082436
0.0017032551
0.0016984398
0.0016933348
0.0016876732
0.0016813203
0.0016742249
0.001666391
0.0016578558
0.0016486779
0.0016389277
0.0016286819
0.0016180188
0.0016070161
0.0015957481
0.0015842847
0.0015726899
0.001561021
0.0015493283
0.0015376545
0.0015260352
0.0015144986
0.0015030667
0.0014917554
0.0014805751
0.0014695326
0.0014586328
0.0014478807
0.0014372726
0.0031681555
0.0031514551
0.0031024506
0.0030317931
0.0029513491
0.0028692685
0.0027899459
0.0027155303
0.0026470868
0.0025849135
0.0025289271
0.0024783435
0.0024312208
0.0023850138
0.0023397001
0.0022972775
0.0022583217
0.0022215512
0.0021867242
0.0021549888
0.0021272422
0.0021034978
0.0020831722
0.002065507
0.0020497964
0.0020354733
0.0020221169
0.0020094302
0.0019972129
0.0019853352
0.0019737181
0.001962317
0.0019511104
0.001940091
0.0019292598
0.0019186208
0.001908178
0.0018979326
0.0018878812
0.0018780145
0.0018683167
0.0018587648
0.001849329
0.0018399727
0.0018306537
0.0018213246
0.0018119339
0.0018024278
0.001792749
0.0017828413
0.0017726479
0.0017620904
0.0031719147
0.00317865
0.0031641254
0.0031346098
0.0030973755
0.003056966
0.0030156187
0.0029742192
0.0029330449
0.002892213
0.0028517968
0.002811741
0.0027717576
0.0027314954
0.0026911364
0.0026513511
0.0026126257
0.0025750665
0.002539023
0.0025052037
0.0024741786
0.002446125
0.002420892
0.0023981669
0.0023775985
0.0023588629
0.0023416883
0.0023258585
0.0023112067
0.0022976055
0.0022849571
0.0022731844
0.0022622241
0.0022520206
0.0022425212
0.002233673
0.0022254202
0.0022177026
0.0022104542
0.0022036027
0.0021970694
0.0021907695
0.0021846126
0.0021785036
0.0021723441
0.0021660333
0.0021594699
0.0021525526
0.0021451808
0.0021372561
0.0021286773
0.0021193031
0.0031741375
0.0031953282
0.0032035416
0.0032022458
0.003195495
0.0031853492
0.0031723533
0.0031563636
0.0031371543
0.0031146978
0.0030891979
0.0030609957
0.0030304748
0.0029980503
0.0029642588
0.0029297459
0.0028951124
0.0028608515
0.0028274989
0.0027956364
0.0027657278
0.00273803
0.002712611
0.0026894191
0.00266834
0.0026492379
0.0026319767
0.0026164299
0.0026024837
0.0025900349
0.0025789887
0.0025692546
0.0025607436
0.0025533647
0.0025470239
0.0025416216
0.0025370526
0.0025332047
0.0025299597
0.0025271933
0.0025247761
0.002522574
0.0025204497
0.0025182645
0.0025158794
0.0025131571
0.0025099628
0.0025061646
0.0025016343
0.0024962511
0.0024898866
0.0024823501
0.0031754968
0.0032049443
0.0032269275
0.0032434213
0.0032565606
0.0032668677
0.0032737782
0.003276435
0.0032742138
0.0032669155
0.0032547327
0.0032381282
0.0032177163
0.0031941868
0.003168275
0.0031407287
0.0031122573
0.0030835103
0.0030551035
0.0030276034
0.0030014719
0.002977036
0.0029544962
0.0029339549
0.0029154454
0.002898956
0.0028844462
0.0028718562
0.0028611133
0.002852134
0.0028448251
0.0028390839
0.0028347984
0.0028318467
0.002830098
0.0028294124
0.0028296418
0.002830631
0.0028322186
0.0028342389
0.0028365227
0.0028388996
0.0028411992
0.0028432527
0.0028448949
0.0028459658
0.0028463115
0.0028457847
0.0028442462
0.0028415643
0.0028375982
0.0028321192
0.003176395
0.0032102886
0.0032400376
0.0032669521
0.0032921847
0.0033154398
0.0033355242
0.0033511346
0.0033613554
0.0033658104
0.0033645994
0.0033581613
0.0033471432
0.0033323025
0.0033144442
0.0032943738
0.0032728628
0.0032506289
0.0032283308
0.0032065536
0.0031857867
0.0031664132
0.0031487133
0.0031328783
0.0031190268
0.0031072191
0.0030974697
0.0030897555
0.0030840233
0.0030801936
0.0030781648
0.0030778157
0.0030790083
0.003081589
0.0030853918
0.0030902398
0.0030959478
0.0031023244
0.0031091741
0.0031162996
0.0031235033
0.0031305899
0.0031373675
0.0031436498
0.0031492575
0.0031540201
0.0031577765
0.003160376
0.0031616782
0.0031615538
0.0031598612
0.0031563584
0.003177064
0.003213219
0.0032469967
0.0032794927
0.0033114649
0.0033422835
0.0033704735
0.0033945016
0.0034132688
0.0034262553
0.0034334512
0.0034352189
0.0034321602
0.0034250146
0.0034145863
0.0034016913
0.0033871211
0.0033716185
0.0033558629
0.0033404557
0.0033259082
0.0033126357
0.0033009594
0.0032911136
0.003283256
0.0032774775
0.0032738116
0.0032722431
0.0032727151
0.0032751353
0.0032793808
0.0032853032
0.0032927324
0.0033014814
0.0033113496
0.0033221266
0.0033335953
0.0033455351
0.0033577245
0.0033699436
0.0033819762
0.0033936122
0.0034046487
0.0034148921
0.003424159
0.0034322782
0.003439091
0.0034444519
0.0034482286
0.0034502984
0.0034505234
0.0034486771
0.0031776351
0.0032148801
0.0032504861
0.0032855485
0.0033207675
0.0033554728
0.003388138
0.0034171599
0.0034413558
0.0034601159
0.0034733428
0.0034813214
0.0034845914
0.0034838473
0.0034798647
0.0034734436
0.0034653696
0.0034563859
0.0034471736
0.003438336
0.0034303882
0.0034237526
0.0034187589
0.0034156487
0.0034145826
0.0034156479
0.0034188676
0.003424209
0.0034315912
0.003440892
0.0034519549
0.003464596
0.0034786095
0.0034937734
0.0035098542
0.0035266114
0.0035438012
0.0035611804
0.0035785089
0.0035955525
0.003612085
0.0036278902
0.0036427631
0.0036565109
0.0036689545
0.0036799294
0.0036892863
0.0036968928
0.0037026335
0.003706396
0.0037080257
0.0037073918
0.0031781801
0.003215949
0.0032521665
0.003288015
0.0033243155
0.0033605202
0.0033951898
0.0034267611
0.0034540492
0.0034764112
0.0034937008
0.0035061488
0.0035142447
0.0035186407
0.0035200788
0.0035193343
0.0035171743
0.0035143278
0.0035114615
0.0035091639
0.0035079345
0.0035081786
0.0035102068
0.0035142382
0.0035204065
0.0035287682
0.0035393115
0.0035519648
0.003566605
0.0035830667
0.003601151
0.0036206328
0.0036412683
0.0036628005
0.0036849653
0.0037074962
0.0037301284
0.0037526026
0.0037746672
0.0037960816
0.0038166172
0.0038360593
0.0038542079
0.0038708783
0.0038859018
0.0038991253
0.003910413
0.0039196502
0.0039267498
0.0039316216
0.0039340365
0.0039342463
0.0031787377
0.0032168171
0.003253039
0.0032887009
0.0033248293
0.0033610788
0.0033961717
0.0034286535
0.0034573965
0.0034817759
0.0035016374
0.0035171903
0.0035288972
0.0035373833
0.0035433646
0.0035475926
0.003550812
0.0035537279
0.0035569805
0.0035611278
0.0035666347
0.0035738675
0.0035830932
0.0035944833
0.0036081206
0.0036240085
0.0036420796
0.0036622058
0.0036842088
0.0037078711
0.0037329453
0.0037591622
0.0037862393
0.0038138867
0.0038418135
0.0038697324
0.0038973636
0.0039244385
0.0039507016
0.0039759126
0.0039998478
0.0040223009
0.0040430832
0.004062024
0.0040789694
0.0040937815
0.004106338
0.0041165417
0.0041243422
0.0041296955
0.0041324358
0.0041327652
0.0031793295
0.0032177064
0.0032536964
0.003288713
0.0033240238
0.0033595154
0.003394104
0.0034264819
0.0034556198
0.0034809513
0.0035023519
0.0035200418
0.0035344836
0.0035462945
0.0035561771
0.0035648649
0.0035730795
0.0035814959
0.003590717
0.0036012558
0.0036135244
0.0036278297
0.0036443734
0.003663258
0.0036844951
0.0037080157
0.0037336803
0.003761292
0.0037906088
0.0038213552
0.003853232
0.0038859264
0.003919119
0.003952491
0.0039857301
0.0040185343
0.004050616
0.0040817041
0.0041115463
0.0041399097
0.0041665821
0.0041913719
0.004214108
0.0042346384
0.0042528291
0.004268559
0.0042817103
0.004292176
0.0042999563
0.0043051252
0.0043078772
0.0043076465
0.0031799677
0.0032187407
0.0032544821
0.0032887153
0.0033229571
0.0033573281
0.0033909463
0.0034226679
0.0034515884
0.0034772309
0.0034995324
0.0035187539
0.0035353828
0.0035500476
0.0035634508
0.0035763146
0.0035893372
0.0036031577
0.0036183308
0.0036353094
0.0036544354
0.0036759365
0.0036999293
0.003726428
0.0037553555
0.0037865543
0.0038198013
0.0038548228
0.0038913078
0.0039289205
0.0039673111
0.0040061251
0.0040450113
0.004083628
0.0041216479
0.0041587621
0.0041946822
0.0042291424
0.0042619003
0.0042927375
0.0043214593
0.0043478951
0.004371897
0.0043933387
0.0044121134
0.0044281296
0.0044412616
0.0044512986
0.0044582587
0.0044627215
0.0044648798
0.0044635081
0.0031806606
0.0032199876
0.0032555911
0.0032890968
0.0033222659
0.0033554414
0.0033879364
0.0034187768
0.0034471993
0.00347284
0.0034957236
0.003516178
0.0035347368
0.0035520574
0.0035688538
0.0035858414
0.0036036928
0.0036230037
0.0036442679
0.0036678622
0.0036940392
0.003722928
0.0037545413
0.0037887879
0.003825486
0.0038643786
0.0039051515
0.0039474494
0.0039908913
0.0040350824
0.0040796259
0.0041241317
0.0041682236
0.0042115445
0.0042537608
0.0042945641
0.0043336737
0.0043708361
0.0044058262
0.0044384458
0.0044685241
0.0044959162
0.004520503
0.0045421887
0.0045609036
0.0045766012
0.0045891551
0.0045982293
0.0046037154
0.0046067406
0.0046076353
0.0046046775
0.0031814138
0.0032214834
0.0032571309
0.0032900788
0.0033223224
0.0033544087
0.0033858336
0.003415792
0.0034436733
0.0034692448
0.0034926419
0.0035142798
0.0035347583
0.0035547774
0.0035750703
0.0035963464
0.0036192476
0.0036443145
0.0036719644
0.0037024788
0.0037360011
0.0037725417
0.0038119916
0.0038541384
0.0038986835
0.003945263
0.0039934674
0.0040428602
0.0040929919
0.0041434148
0.0041936917
0.0042434053
0.004292163
0.0043396024
0.0043853915
0.0044292327
0.0044708598
0.0045100403
0.0045465718
0.0045802832
0.0046110309
0.0046387001
0.0046632005
0.0046844669
0.0047024544
0.0047171425
0.004728479
0.0047362066
0.0047402112
0.0047414967
0.0047398302
0.0047347076
0.0031822323
0.0032232479
0.0032591605
0.003291785
0.0033233382
0.0033545516
0.0033850898
0.0034143155
0.0034417785
0.0034673954
0.00349143
0.0035144049
0.0035370003
0.00355997
0.0035840683
0.0036099953
0.0036383506
0.0036696041
0.0037040759
0.0037419305
0.0037831794
0.0038276949
0.0038752291
0.0039254347
0.0039778886
0.0040321162
0.0040876136
0.0041438658
0.0042003631
0.0042566118
0.0043121456
0.0043665294
0.0044193665
0.0044702976
0.0045190048
0.0045652076
0.0046086655
0.0046491715
0.004686555
0.0047206744
0.0047514206
0.0047787093
0.004802485
0.0048227108
0.0048393712
0.004852463
0.0048619869
0.0048677366
0.0048701122
0.0048690044
0.0048645211
0.0048567785
0.0031831214
0.0032252942
0.0032617136
0.0032942842
0.0033254321
0.0033560529
0.0033859692
0.0034147095
0.003441996
0.0034679079
0.0034928575
0.0035174896
0.0035425786
0.0035689345
0.0035973321
0.0036284493
0.0036628281
0.0037008435
0.0037426945
0.003788402
0.0038378229
0.0038906711
0.0039465446
0.0040049516
0.0040653408
0.004127128
0.0041897195
0.0042525312
0.0043150019
0.004376606
0.0044368583
0.0044953208
0.0045516021
0.0046053605
0.0046562991
0.0047041677
0.004748755
0.0047898914
0.004827439
0.0048612956
0.0048913852
0.0049176629
0.0049401054
0.0049587161
0.004973509
0.0049844965
0.0049917007
0.0049950851
0.0049950321
0.0049910663
0.0049836821
0.0049729555
0.0031840858
0.003227634
0.003264814
0.0032976202
0.0033286738
0.0033590195
0.0033886277
0.0034171981
0.0034446349
0.0034711995
0.0034974686
0.0035242253
0.0035523432
0.0035826898
0.0036160474
0.0036530559
0.0036941714
0.0037396475
0.0037895295
0.0038436676
0.0039017389
0.0039632817
0.0040277268
0.0040944339
0.0041627244
0.0042319109
0.0043013201
0.0043703107
0.0044382855
0.0045047002
0.0045690671
0.0046309575
0.0046900005
0.004745881
0.0047983365
0.0048471527
0.0048921594
0.0049332259
0.0049702574
0.0050031898
0.0050319887
0.0050566446
0.005077174
0.0050936187
0.0051060358
0.0051144206
0.0051188179
0.0051196048
0.005116352
0.0051092539
0.0050986786
0.0050846188
0.0031851326
0.0032302796
0.0032684843
0.0033018266
0.0033331122
0.0033635205
0.003393168
0.0034219321
0.0034499164
0.0034775836
0.0035056935
0.0035351776
0.0035670118
0.003602111
0.0036412472
0.0036849921
0.0037336839
0.003787416
0.003846047
0.0039092243
0.0039764241
0.004046992
0.004120186
0.0041952176
0.0042712887
0.0043476203
0.004423475
0.0044981708
0.0045710924
0.0046416931
0.0047095001
0.0047741079
0.0048351802
0.0048924398
0.0049456689
0.0049946974
0.0050394031
0.0050797003
0.0051155407
0.005146903
0.005173795
0.005196245
0.005214307
0.0052280616
0.0052376086
0.0052428737
0.0052443762
0.0052417885
0.0052350177
0.0052245302
0.0052104506
0.0051929136
0.0031862678
0.0032332495
0.0032727511
0.0033069389
0.003338792
0.0033696149
0.0033996732
0.0034290359
0.0034580295
0.0034873395
0.0035179265
0.0035508774
0.0035872656
0.0036280347
0.0036739158
0.0037253734
0.0037825834
0.0038454368
0.0039135657
0.0039863867
0.0040631535
0.0041430101
0.0042250409
0.0043083182
0.0043919377
0.0044750473
0.0045568644
0.0046366883
0.0047139036
0.0047879833
0.0048584827
0.0049250391
0.0049873597
0.0050452208
0.005098454
0.0051469457
0.005190623
0.0052294547
0.005263438
0.0052926009
0.0053169912
0.0053366811
0.0053517588
0.0053623386
0.0053685364
0.0053704082
0.0053684056
0.0053619848
0.0053515749
0.0053373791
0.0053195104
0.0052984403
0.0031875008
0.0032365637
0.0032776469
0.0033129995
0.0033457639
0.003377366
0.003408229
0.0034386392
0.0034691715
0.0035007614
0.0035345847
0.0035718867
0.0036138222
0.0036613334
0.0037150657
0.0037753255
0.0038420732
0.0039149486
0.0039933188
0.0040763423
0.0041630365
0.0042523409
0.0043431758
0.0044344894
0.0045252931
0.0046146841
0.0047018601
0.0047861236
0.0048668834
0.0049436491
0.0050160257
0.0050837033
0.0051464505
0.0052041018
0.0052565524
0.0053037454
0.0053456683
0.0053823417
0.0054138171
0.0054401668
0.0054614852
0.0054778818
0.0054894836
0.0054964199
0.0054988098
0.0054971029
0.0054909216
0.0054805268
0.0054661747
0.0054479822
0.0054263784
0.0054011372
0.0031888393
0.0032402474
0.0032832117
0.0033200601
0.0033540903
0.0033868492
0.0034189399
0.0034508957
0.0034835766
0.0035181939
0.0035561525
0.0035988476
0.0036474884
0.003702968
0.0037657877
0.0038360308
0.0039133815
0.0039971772
0.0040864835
0.0041801806
0.0042770434
0.0043758159
0.0044752718
0.0045742601
0.0046717346
0.0047667714
0.004858575
0.0049464784
0.0050299362
0.0051085163
0.0051818882
0.0052498119
0.0053121252
0.0053687338
0.005419599
0.0054647303
0.0055041747
0.0055380113
0.0055663424
0.0055892896
0.0056069888
0.0056195896
0.0056272408
0.0056300791
0.005628587
0.005622488
0.0056119835
0.0055973742
0.0055787812
0.0055566274
0.0055306985
0.0055012424
0.003190293
0.003244329
0.0032894934
0.003328184
0.0033638468
0.0033981603
0.0034319369
0.0034660009
0.0035015375
0.0035400628
0.0035832159
0.0036325225
0.0036891996
0.0037540261
0.0038272824
0.003908753
0.0039977791
0.004093346
0.0041941889
0.0042988984
0.004406014
0.0045141037
0.0046218229
0.0047279538
0.0048314266
0.0049313284
0.0050269015
0.0051175352
0.005202754
0.0052822029
0.0053556328
0.0054228849
0.0054838777
0.0055385936
0.0055870674
0.0056293761
0.0056656306
0.0056959675
0.0057205427
0.0057395241
0.005753089
0.0057614133
0.0057646533
0.0057633044
0.0057571848
0.0057464369
0.0057314448
0.0057123331
0.0056895272
0.0056628487
0.005632492
0.0055987757
0.0031918724
0.0032488437
0.0032965493
0.0033374462
0.0033751261
0.0034114178
0.0034473877
0.0034842049
0.0035234275
0.0035669016
0.0036164959
0.003673827
0.0037400514
0.0038157458
0.0039008764
0.0039948432
0.0040965772
0.0042046693
0.0043175059
0.0044333912
0.0045506505
0.0046677082
0.0047831397
0.0048956998
0.005004334
0.0051081758
0.0052065364
0.0052988889
0.0053848497
0.0054641592
0.0055366634
0.0056022962
0.005661064
0.0057130321
0.0057583116
0.0057970496
0.0058294206
0.00585562
0.005875856
0.0058903415
0.0058992821
0.0059028634
0.005901587
0.0058953539
0.0058842542
0.0058687512
0.0058489936
0.0058254104
0.0057978581
0.0057665203
0.0057317153
0.0056936205
0.00319359
0.0032538325
0.0033044465
0.0033479355
0.0033880387
0.003426768
0.0034655042
0.0035058282
0.003549722
0.0035993806
0.0036568786
0.0037238592
0.0038013217
0.0038895287
0.0039880235
0.0040957312
0.0042111114
0.0043323311
0.0044574254
0.0045844338
0.0047115039
0.0048369613
0.0049593482
0.0050774381
0.0051902335
0.0052969512
0.0053970031
0.0054899713
0.0055755849
0.005653696
0.0057242577
0.0057873049
0.0058429376
0.0058913075
0.0059326038
0.0059670433
0.0059948637
0.0060163185
0.0060316673
0.0060411558
0.006044996
0.0060437137
0.0060372669
0.0060257124
0.0060095775
0.005989043
0.005964551
0.0059359832
0.0059035462
0.0058675508
0.005828183
0.0057856258
0.0031954604
0.003259343
0.0033132618
0.0033597528
0.0034027137
0.003444389
0.0034865535
0.0035312789
0.0035810234
0.0036383354
0.0037054454
0.0037839245
0.0038744856
0.0039769415
0.0040902929
0.0042129028
0.0043427125
0.0044774539
0.0046148303
0.0047526573
0.0048889571
0.0050220123
0.0051503868
0.0052729225
0.0053887223
0.0054971236
0.0055976682
0.0056900716
0.0057741934
0.0058500108
0.0059175936
0.0059770833
0.0060286769
0.0060726142
0.0061091617
0.0061386044
0.0061612411
0.0061773817
0.0061873278
0.0061913355
0.006189932
0.0061831594
0.0061710572
0.006154161
0.0061327154
0.0061071768
0.0060774437
0.0060437749
0.0060064615
0.0059657058
0.005921699
0.0058746267
0.003197499
0.0032654281
0.0033230816
0.0033730125
0.0034193011
0.0034644971
0.0035108704
0.0035610749
0.003618091
0.003684801
0.0037635035
0.0038555562
0.0039612213
0.0040797056
0.0042093449
0.0043478669
0.0044926691
0.0046410626
0.0047904633
0.0049385237
0.0050832073
0.0052228192
0.0053560042
0.0054817248
0.0055992279
0.0057080061
0.0058077589
0.0058983555
0.0059798013
0.006052209
0.0061157714
0.0061707397
0.0062174082
0.0062561051
0.0062871718
0.0063109577
0.0063278186
0.0063381113
0.0063421604
0.0063405303
0.0063332561
0.0063204939
0.0063027287
0.0062802272
0.0062534931
0.0062224386
0.0061873922
0.0061486198
0.0061063408
0.0060607601
0.0060120701
0.0059604562
0.0031997233
0.0032721486
0.0033340017
0.003387842
0.0034379747
0.0034873557
0.0035388762
0.003595872
0.0036618764
0.0037400481
0.0038326143
0.0039405292
0.0040634051
0.0041996742
0.0043468956
0.0045021127
0.004662184
0.0048240453
0.0049848956
0.0051423035
0.0052942524
0.0054391415
0.0055757593
0.0057032405
0.0058210174
0.0059287697
0.0060263785
0.0061138834
0.0061914468
0.0062593239
0.0063178342
0.0063673384
0.0064082255
0.0064409119
0.0064658083
0.0064833234
0.0064938568
0.006497794
0.006495767
0.0064878555
0.0064742449
0.0064554933
0.0064317886
0.0064037003
0.0063711609
0.0063345769
0.0062941917
0.0062502407
0.0062029436
0.0061525046
0.0060991152
0.0060429586
0.003202153
0.0032795713
0.0033461277
0.0034043833
0.0034589373
0.0035132889
0.0035711037
0.0036365003
0.0037135658
0.0038056217
0.0039146194
0.0040408651
0.0041830939
0.0043387972
0.0045046707
0.0046770606
0.0048523288
0.0050271162
0.0051984987
0.0053640563
0.0055218795
0.0056705377
0.0058090246
0.005936697
0.00605321
0.0061584582
0.0062525234
0.0063356279
0.0064080977
0.006470335
0.006522786
0.0065659175
0.0066002073
0.0066261609
0.0066442477
0.0066549249
0.0066586123
0.0066559983
0.0066472154
0.0066326169
0.0066125984
0.0065876927
0.0065579989
0.0065238076
0.0064855103
0.0064433447
0.0063975602
0.0063483911
0.0062960547
0.0062407526
0.0061826732
0.0061219968
0.0032048103
0.0032877711
0.0033595751
0.0034227945
0.0034824287
0.0035427009
0.0036082308
0.00368401
0.003774629
0.0038833807
0.0040116586
0.0041588241
0.0043224942
0.0044990743
0.0046843521
0.0048740095
0.0050639999
0.0052507805
0.00543142
0.0056036164
0.0057656602
0.0059163658
0.0060549926
0.0061811638
0.0062947903
0.0063960034
0.0064850996
0.0065624912
0.0066286701
0.0066841854
0.0067296081
0.0067655047
0.0067924318
0.0068109894
0.0068216757
0.0068249897
0.0068216174
0.0068117524
0.0067958954
0.0067744794
0.0067480189
0.006716594
0.0066805969
0.0066403836
0.0065962549
0.0065484615
0.0064972517
0.0064428561
0.0063854878
0.0063253439
0.0062626087
0.0061974576
0.0032077198
0.0032968304
0.0033744704
0.0034432544
0.0035087381
0.0035761034
0.003651125
0.0037397272
0.0038468732
0.0039755342
0.0041261776
0.0042968827
0.0044839162
0.0046824977
0.0048875183
0.005094086
0.0052978771
0.0054953056
0.0056835644
0.0058605844
0.0060249485
0.0061757894
0.0063126856
0.0064355663
0.0065446239
0.0066402419
0.0067229403
0.0067933233
0.0068520445
0.0068997989
0.0069372746
0.0069651295
0.0069839894
0.0069945593
0.0069972866
0.0069930106
0.0069818456
0.0069645213
0.0069413878
0.0069131269
0.0068797398
0.0068417406
0.0067994233
0.0067531193
0.0067031219
0.0066496866
0.0065930559
0.0065334542
0.0064710883
0.0064061489
0.0063388139
0.0062692534
0.0032109093
0.0033068411
0.0033909522
0.0034659683
0.003538224
0.0036141549
0.0037009023
0.003805321
0.0039324997
0.0040846693
0.00426092
0.0044576934
0.0046697151
0.0048909864
0.0051155845
0.0053381953
0.005554388
0.0057606973
0.0059545826
0.0061343234
0.0062988854
0.0064477857
0.0065809686
0.0066987003
0.0068014737
0.0068899327
0.0069648239
0.0070269387
0.0070770841
0.0071160974
0.0071447684
0.0071638311
0.0071739771
0.0071760808
0.0071705262
0.0071579269
0.0071387954
0.0071138593
0.0070833243
0.0070477739
0.0070074919
0.0069628511
0.0069141622
0.0068617422
0.0068058761
0.0067468169
0.0066847991
0.0066200389
0.0065527345
0.0064830681
0.0064112104
0.0063373243
0.0032144102
0.0033179054
0.0034091748
0.0034911792
0.0035713416
0.0036577135
0.0037590004
0.0038828797
0.0040341581
0.0042137661
0.0044188996
0.0046440284
0.0048822207
0.0051263166
0.0053697458
0.0056069779
0.0058336792
0.0060466836
0.0062438639
0.006423961
0.0065864065
0.0067311587
0.0068585643
0.0069692498
0.0070640186
0.007143775
0.0072094907
0.0072621341
0.0073026511
0.0073320182
0.0073511003
0.0073606892
0.0073617504
0.0073547312
0.0073403254
0.007319316
0.0072920761
0.0072591371
0.0072210344
0.0071781915
0.0071309376
0.0070796192
0.0070245475
0.0069660239
0.006904322
0.0068396873
0.0067723443
0.0067024984
0.0066303377
0.0065560336
0.0064797482
0.006401637
0.0032182582
0.0033301386
0.0034293123
0.0035191839
0.003608685
0.0037079086
0.0038272708
0.0039749947
0.0041549927
0.0043661926
0.0046033523
0.004858706
0.0051236587
0.0053900551
0.0056509239
0.0059007731
0.0061355932
0.0063527045
0.0065505363
0.0067283963
0.0068862537
0.0070245538
0.0071440711
0.0072458052
0.0073308721
0.0074004276
0.0074556618
0.0074977019
0.0075276186
0.0075465254
0.0075552952
0.0075550059
0.0075462157
0.0075297251
0.0075063827
0.0074765481
0.0074409199
0.0073999739
0.0073542065
0.0073040271
0.0072497774
0.0071917875
0.0071303597
0.0070657794
0.0069983055
0.0069281718
0.0068555904
0.0067807551
0.0067038404
0.0066250063
0.0065444051
0.0064621847
0.0032224941
0.0033436713
0.0034515661
0.0035503589
0.0036510453
0.0037662372
0.0039080884
0.0040848463
0.0042986729
0.0045456754
0.0048176661
0.0051045052
0.0053960701
0.0056834939
0.0059597211
0.006219589
0.006459654
0.0066779077
0.0068734708
0.00704631
0.0071969907
0.0073264769
0.007435982
0.0075268835
0.0076006021
0.0076585273
0.0077020577
0.0077324403
0.0077508735
0.0077586342
0.0077565774
0.0077456205
0.0077267733
0.0077005714
0.0076678415
0.0076291188
0.0075850005
0.0075359703
0.0074824995
0.0074249835
0.0073637601
0.0072991441
0.0072314237
0.0071608652
0.0070877115
0.0070121811
0.0069344721
0.006854763
0.0067732159
0.0066899763
0.0066051867
0.0065189847
0.0032271652
0.0033586551
0.0034761778
0.0035852003
0.0036994954
0.0038346865
0.004004478
0.004216282
0.0044693986
0.004756242
0.0050652904
0.0053840711
0.0057012346
0.006007593
0.0062963813
0.0065630814
0.0068050581
0.0070211508
0.0072112906
0.0073761796
0.0075170213
0.0076353138
0.0077327063
0.0078109493
0.0078717493
0.0079167097
0.0079474221
0.0079651763
0.0079715104
0.0079672863
0.0079538801
0.0079320207
0.0079026557
0.0078665167
0.0078243011
0.0077765808
0.0077239157
0.0076667819
0.0076056227
0.0075408148
0.0074726825
0.0074015232
0.0073276069
0.0072511792
0.0071724638
0.0070916622
0.0070089554
0.0069245078
0.0068384644
0.0067509576
0.0066621198
0.0065720777
0.0032323269
0.0033752702
0.0035034489
0.0036243825
0.0037555067
0.0039158919
0.004120252
0.0043738799
0.0046718737
0.0050021366
0.0053496323
0.0056998223
0.0060405972
0.0063629291
0.0066607592
0.0069305376
0.0071706717
0.0073810075
0.0075623851
0.0077162979
0.0078446097
0.007949353
0.0080325919
0.0080964372
0.0081428434
0.0081736148
0.0081905351
0.0081949035
0.0081882698
0.0081717202
0.0081464348
0.0081133481
0.0080733159
0.0080270781
0.0079752956
0.0079185364
0.0078573264
0.0077921226
0.0077233384
0.0076513259
0.0075763881
0.0074988027
0.007418818
0.0073366566
0.0072525213
0.0071665945
0.0070790396
0.006990002
0.006899614
0.0032380462
0.0033937376
0.0035337725
0.0036688478
0.0038211101
0.004013328
0.00426015
0.0045629796
0.0049112447
0.0052877103
0.0056739438
0.0060538602
0.006415202
0.0067496526
0.0070522961
0.0073208682
0.0075550336
0.0077557794
0.0079249273
0.008064794
0.0081779049
0.0082668077
0.0083339484
0.0083817798
0.0084124294
0.0084280587
0.0084301297
0.0084204557
0.0084002873
0.008370953
0.0083335562
0.0082890287
0.0082381998
0.0081817901
0.0081204252
0.0080546495
0.0079849524
0.0079117621
0.0078354613
0.0077563714
0.0076747665
0.0075909025
0.0075050054
0.0074172694
0.007327877
0.0072369893
0.0071447496
0.0070512882
0.0069567175
0.0032444048
0.0034143381
0.0035676821
0.0037199374
0.0038991126
0.0041315335
0.0044299659
0.0047896764
0.0051930024
0.0056172958
0.0060412131
0.0064478838
0.0068256336
0.0071674514
0.0074700017
0.0077326034
0.0079563633
0.0081435124
0.0082968951
0.0084196596
0.0085149653
0.0085858387
0.0086350607
0.0086654252
0.0086791814
0.0086785554
0.0086651665
0.0086407641
0.0086067141
0.0085642948
0.0085145874
0.0084585005
0.0083968282
0.0083302512
0.008259354
0.0081846445
0.0081065711
0.0080255241
0.0079418556
0.0078558524
0.0077677492
0.0076777821
0.0075861522
0.0074930223
0.0073985531
0.0073028844
0.0072061396
0.0071084269
0.0070098487
0.0032515055
0.0034374428
0.0036059304
0.0037795838
0.0039933809
0.0042763608
0.0046366443
0.0050607686
0.0055228569
0.0059950779
0.0064540585
0.006883112
0.0072719646
0.0076155205
0.0079124428
0.0081638962
0.0083725741
0.0085420168
0.0086760976
0.008778777
0.0088537885
0.0089045857
0.0089343451
0.0089457885
0.0089416069
0.008923952
0.0088945154
0.0088549787
0.0088067542
0.0087510637
0.0086889462
0.0086212753
0.0085487924
0.0084721255
0.0083918086
0.008308304
0.0082220147
0.0081332893
0.0080424356
0.0079497051
0.007855307
0.0077594356
0.0076622772
0.0075639488
0.0074646003
0.0073643437
0.0072632808
0.007161506
0.0070590965
0.003259481
0.0034635591
0.0036496087
0.0038505874
0.0041092031
0.0044552348
0.0048883353
0.0053836639
0.0059065985
0.0064249697
0.0069146283
0.0073602107
0.0077537079
0.008092536
0.0083777356
0.0086125293
0.0088012915
0.0089488912
0.0090602016
0.0091399491
0.0091923289
0.0092212857
0.0092299946
0.0092213714
0.0091983916
0.0091631639
0.0091172215
0.0090622677
0.0089996927
0.0089306583
0.008856133
0.0087769387
0.0086937539
0.0086071412
0.0085175765
0.0084254669
0.0083311657
0.0082349737
0.0081371541
0.00803792
0.0079374491
0.0078359012
0.0077334186
0.0076301069
0.0075260918
0.0074214498
0.0073162699
0.0072106193
0.0071045706
0.0032685044
0.0034934035
0.0037003343
0.0039370082
0.0042537281
0.0046773986
0.0051943984
0.0057662618
0.0063499647
0.0069104944
0.0074245061
0.0078792213
0.0082697705
0.0085966344
0.0088635455
0.0090759313
0.0092398788
0.0093615519
0.0094467573
0.0095009341
0.0095286046
0.009533984
0.0095204127
0.0094907587
0.0094483567
0.0093951526
0.0093324089
0.0092618742
0.009184901
0.0091025589
0.0090157232
0.0089251512
0.008831443
0.0087350896
0.0086365034
0.008536025
0.0084339553
0.0083305429
0.0082260055
0.0081205151
0.0080142144
0.0079072258
0.0077996581
0.0076915911
0.0075831148
0.0074743024
0.0073652112
0.0072558898
0.0071463842
0.0032788051
0.0035280141
0.00376054
0.0040447105
0.0044364793
0.0049541316
0.005565377
0.0062168474
0.0068585314
0.0074546857
0.0079846207
0.0084394832
0.0088184054
0.0091253937
0.0093670923
0.0095511973
0.0096854681
0.0097772737
0.0098333456
0.0098594049
0.0098604717
0.0098409268
0.0098041422
0.0097526289
0.0096903493
0.0096189761
0.009539283
0.0094531403
0.0093618409
0.0092663306
0.0091673715
0.0090656465
0.0089616551
0.0088558202
0.0087484904
0.0086399195
0.0085303594
0.0084200018