/*--------------------------------*- C++ -*----------------------------------*\
| =========                 |                                                 |
| \\      /  F ield         | OpenFOAM: The Open Source CFD Toolbox           |
|  \\    /   O peration     | Version:  2312                                  |
|   \\  /    A nd           | Website:  www.openfoam.com                      |
|    \\/     M anipulation  |                                                 |
\*---------------------------------------------------------------------------*/
FoamFile
{
    version     2.0;
    format      ascii;
    arch        "LSB;label=32;scalar=64";
    class       volScalarField;
    location    "0.03";
    object      N2;
}
// * * * * * * * * * * * * * * * * * * * * * * * * * * * * * * * * * * * * * //

dimensions      [0 0 0 0 0 0 0];

internalField   nonuniform List<scalar> 
3221
(
0.76991154
0.76972919
0.76954706
0.76936981
0.76920112
0.76904343
0.76889791
0.76876492
0.7686446
0.76853807
0.76845119
0.76841227
0.76856189
0.76870227
0.76882947
0.76894205
0.76902629
0.76905763
0.76904681
0.76901217
0.76896616
0.76891525
0.76886227
0.76880839
0.76875412
0.76869968
0.76864521
0.76859084
0.76853667
0.76848282
0.76842939
0.76837651
0.76832429
0.76827287
0.76822238
0.76817294
0.76812471
0.76807781
0.7680324
0.7679886
0.76794656
0.76790642
0.76786832
0.76783239
0.76779875
0.76776754
0.76773887
0.76771284
0.76768956
0.76766912
0.76765163
0.76763724
0.76989948
0.76969141
0.76948125
0.76927299
0.7690698
0.76887375
0.76868576
0.76850592
0.76833394
0.76816975
0.76801446
0.76787241
0.76775295
0.76765267
0.76756693
0.76748816
0.76740216
0.76729199
0.76715676
0.76700389
0.76684076
0.76667216
0.76650067
0.7663276
0.76615363
0.76597919
0.7658046
0.76563019
0.76545628
0.76528319
0.76511129
0.76494093
0.7647725
0.76460642
0.76444308
0.76428292
0.76412638
0.76397389
0.76382591
0.76368289
0.76354527
0.76341351
0.76328804
0.76316928
0.76305765
0.76295355
0.76285736
0.76276943
0.76269008
0.76261963
0.76255841
0.76250686
0.76987899
0.7696273
0.76936987
0.76910977
0.76884949
0.7685906
0.76833378
0.768079
0.76782579
0.76757362
0.7673222
0.76707176
0.76682306
0.76657632
0.7663309
0.76608449
0.76583263
0.76557034
0.76529678
0.76501415
0.76472521
0.76443211
0.76413628
0.76383861
0.76353976
0.76324025
0.7629406
0.76264132
0.76234294
0.76204604
0.76175122
0.76145911
0.76117037
0.76088567
0.76060572
0.76033124
0.76006296
0.75980164
0.75954801
0.75930282
0.75906683
0.75884077
0.75862536
0.7584213
0.75822928
0.75804993
0.75788388
0.7577317
0.75759392
0.75747103
0.75736353
0.75727214
0.76985395
0.76954902
0.76923421
0.76891178
0.76858355
0.76825074
0.76791388
0.76757301
0.76722782
0.7668779
0.76652287
0.76616254
0.76579686
0.76542584
0.76504938
0.76466707
0.7642781
0.76388172
0.76347812
0.7630683
0.76265347
0.76223476
0.76181307
0.76138919
0.76096384
0.7605377
0.76011149
0.75968596
0.75926188
0.7588401
0.75842147
0.75800689
0.75759731
0.75719368
0.75679699
0.75640826
0.7560285
0.75565876
0.75530005
0.75495342
0.75461988
0.75430043
0.75399604
0.75370766
0.7534362
0.75318253
0.75294747
0.75273176
0.75253611
0.75236115
0.7522075
0.7520761
0.76982721
0.76946542
0.76908964
0.76870149
0.76830232
0.76789308
0.76747428
0.76704609
0.76660846
0.76616128
0.76570445
0.765238
0.76476204
0.76427683
0.76378265
0.76327985
0.76276874
0.76224977
0.7617236
0.76119111
0.76065322
0.76011089
0.759565
0.75901644
0.75846613
0.75791497
0.75736393
0.75681403
0.75626631
0.75572187
0.75518187
0.75464749
0.75411993
0.75360045
0.75309032
0.75259083
0.75210327
0.75162894
0.75116913
0.75072512
0.75029818
0.74988951
0.74950033
0.74913178
0.74878495
0.74846089
0.74816057
0.74788489
0.74763466
0.74741061
0.74721343
0.74704423
0.76980035
0.76938145
0.76894464
0.76849111
0.7680219
0.76753778
0.76703929
0.76652672
0.76600027
0.7654601
0.76490642
0.76433952
0.76375981
0.76316782
0.76256414
0.76194947
0.76132459
0.76069032
0.76004762
0.75939747
0.75874094
0.75807909
0.757413
0.75674381
0.75607266
0.75540075
0.75472932
0.75405968
0.75339316
0.75273114
0.75207508
0.75142642
0.75078666
0.75015733
0.74953997
0.74893612
0.74834733
0.74777513
0.74722105
0.74668657
0.74617315
0.74568221
0.74521511
0.74477316
0.74435759
0.74396958
0.7436102
0.74328046
0.74298123
0.74271329
0.74247737
0.74227465
0.76977402
0.76929914
0.76880262
0.76828541
0.76774837
0.76719219
0.76661739
0.76602441
0.7654136
0.76478535
0.76414012
0.76347843
0.76280093
0.76210837
0.76140159
0.76068154
0.75994925
0.75920582
0.75845241
0.75769024
0.75692061
0.7561448
0.7553642
0.75458018
0.75379421
0.75300778
0.75222243
0.75143976
0.75066141
0.74988906
0.74912443
0.74836926
0.74762532
0.74689439
0.74617826
0.7454787
0.74479748
0.74413634
0.74349699
0.74288109
0.74229026
0.74172605
0.74118995
0.74068337
0.74020764
0.739764
0.7393536
0.73897749
0.73863658
0.73833166
0.73806343
0.73783309
0.7697483
0.76921872
0.76866394
0.7680848
0.76748207
0.7668564
0.76620835
0.76553844
0.76484718
0.76413513
0.76340292
0.76265129
0.76188107
0.76109321
0.76028877
0.7594689
0.75863487
0.75778802
0.75692975
0.75606154
0.75518495
0.75430156
0.75341303
0.75252107
0.75162743
0.75073392
0.74984241
0.74895478
0.74807298
0.74719898
0.74633477
0.74548236
0.74464377
0.74382102
0.74301612
0.74223103
0.74146772
0.74072808
0.74001397
0.73932717
0.73866941
0.73804233
0.7374475
0.73688637
0.73636032
0.73587063
0.73541846
0.73500486
0.73463075
0.73429687
0.7340039
0.73375299
0.76972296
0.76913945
0.76852732
0.76788736
0.76722031
0.76652685
0.7658076
0.76506319
0.76429424
0.76350147
0.76268568
0.76184777
0.76098876
0.76010981
0.75921216
0.7582972
0.75736641
0.75642137
0.75546376
0.75449534
0.75351794
0.75253346
0.75154387
0.75055118
0.74955747
0.74856487
0.74757555
0.74659169
0.74561554
0.74464934
0.74369534
0.7427558
0.74183297
0.74092906
0.74004626
0.73918672
0.7383525
0.73754565
0.73676809
0.73602171
0.73530828
0.73462948
0.7339869
0.733382
0.73281616
0.73229064
0.73180658
0.73136498
0.73096673
0.73061255
0.73030305
0.73003932
0.76969762
0.76906017
0.76839072
0.76769008
0.76695904
0.76619835
0.76540873
0.76459091
0.76374567
0.76287387
0.76197648
0.76105459
0.76010942
0.75914232
0.75815474
0.75714831
0.75612476
0.75508593
0.75403378
0.75297036
0.75189781
0.75081834
0.74973423
0.74864783
0.74756154
0.74647779
0.74539904
0.7443278
0.74326655
0.74221782
0.74118408
0.7401678
0.73917142
0.73819732
0.73724781
0.73632516
0.73543154
0.73456902
0.73373962
0.73294522
0.73218759
0.73146842
0.73078925
0.73015154
0.72955658
0.72900559
0.72849962
0.72803963
0.72762642
0.72726065
0.72694297
0.72667482
0.76967185
0.76897951
0.7682518
0.76748958
0.76669375
0.76586517
0.76500469
0.76411319
0.76319163
0.76224104
0.7612626
0.76025759
0.75922744
0.75817374
0.75709819
0.75600265
0.75488916
0.75375982
0.75261691
0.75146278
0.75029989
0.74913078
0.74795806
0.7467844
0.7456125
0.74444512
0.743285
0.74213491
0.7409976
0.73987581
0.73877221
0.73768944
0.73663009
0.73559663
0.73459149
0.73361697
0.73267528
0.73176853
0.73089869
0.73006763
0.72927708
0.72852866
0.72782385
0.727164
0.72655033
0.72598394
0.72546579
0.72499672
0.72457739
0.72420828
0.72388958
0.72362853
0.7696452
0.76889613
0.76810822
0.76728246
0.76641991
0.76552157
0.76458848
0.76362171
0.76262243
0.76159189
0.76053149
0.75944278
0.75832743
0.75718728
0.75602433
0.75484076
0.75363887
0.75242112
0.75119009
0.74994848
0.74869908
0.74744479
0.74618853
0.7449333
0.74368212
0.74243801
0.74120402
0.73998313
0.73877833
0.73759252
0.73642854
0.73528914
0.73417699
0.73309464
0.73204453
0.73102897
0.73005016
0.72911013
0.72821081
0.72735398
0.72654128
0.72577421
0.72505414
0.7243823
0.72375977
0.72318751
0.72266635
0.72219699
0.72178001
0.72141593
0.72110573
0.72085524
0.76961728
0.76880872
0.76795774
0.76706549
0.7661332
0.76516211
0.76415347
0.7631086
0.76202891
0.76091594
0.75977137
0.75859702
0.7573949
0.75616714
0.7549161
0.75364428
0.75235434
0.75104911
0.74973151
0.74840463
0.74707161
0.7457357
0.74440016
0.74306831
0.74174346
0.74042892
0.73912795
0.73784378
0.73657952
0.73533824
0.73412286
0.7329362
0.73178095
0.73065966
0.72957472
0.72852841
0.72752281
0.72655987
0.7256414
0.72476903
0.72394427
0.72316847
0.72244282
0.7217684
0.72114613
0.7205768
0.72006108
0.71959947
0.71919229
0.71883937
0.71854879
0.7183125
0.7695877
0.7687161
0.76779828
0.76683563
0.76582962
0.76478172
0.7636935
0.76256655
0.7614026
0.76020352
0.75897133
0.75770822
0.75641654
0.75509883
0.75375783
0.75239645
0.75101775
0.74962496
0.74822142
0.74681059
0.74539603
0.74398131
0.74257007
0.74116593
0.73977247
0.73839326
0.73703175
0.73569131
0.7343752
0.73308654
0.73182829
0.73060326
0.72941411
0.7282633
0.72715314
0.72608576
0.72506311
0.72408698
0.723159
0.72228062
0.72145315
0.72067776
0.71995544
0.71928707
0.71867339
0.71811501
0.71761242
0.71716604
0.71677624
0.71644308
0.71617439
0.71595684
0.76955612
0.76861715
0.76762793
0.76659011
0.76550543
0.76437572
0.76320285
0.7619888
0.76073567
0.75944572
0.75812139
0.75676529
0.75538023
0.7539692
0.75253542
0.75108223
0.74961319
0.74813197
0.74664237
0.74514829
0.74365367
0.74216247
0.74067866
0.73920615
0.73774879
0.73631033
0.73489439
0.73350442
0.73214374
0.73081547
0.72952253
0.72826766
0.72705338
0.72588204
0.72475575
0.72367646
0.72264591
0.72166569
0.72073717
0.7198616
0.71904006
0.71827346
0.71756261
0.71690814
0.71631058
0.71577035
0.71528774
0.71486312
0.71449708
0.71419041
0.71394698
0.71375407
0.76952221
0.76851083
0.76744487
0.76632628
0.76515715
0.76393968
0.76267617
0.76136902
0.7600208
0.75863424
0.75721227
0.75575803
0.75427486
0.75276631
0.75123611
0.74968818
0.74812658
0.74655551
0.74497928
0.74340224
0.74182874
0.74026313
0.73870969
0.73717261
0.73565593
0.73416356
0.7326992
0.73126633
0.72986825
0.72850798
0.72718834
0.7259119
0.72468099
0.72349773
0.72236401
0.7212815
0.7202517
0.71927591
0.71835524
0.71749066
0.71668299
0.71593289
0.7152409
0.71460744
0.7140328
0.71351717
0.71306065
0.7126634
0.71232621
0.71205443
0.71183635
0.71167428
0.76948567
0.76839617
0.76724738
0.7660416
0.76478137
0.76346934
0.76210829
0.76070113
0.75925099
0.75776118
0.75623522
0.75467689
0.75309014
0.75147918
0.74984835
0.74820222
0.74654545
0.74488283
0.74321918
0.74155935
0.73990812
0.7382702
0.73665016
0.73505241
0.73348115
0.73194034
0.73043371
0.72896467
0.72753639
0.72615175
0.72481335
0.7235235
0.72228427
0.72109748
0.71996471
0.71888732
0.71786648
0.71690317
0.7159982
0.71515224
0.71436579
0.71363924
0.71297288
0.71236685
0.71182122
0.71133595
0.71091083
0.71054512
0.7102474
0.71000711
0.70982118
0.70969399
0.76944618
0.76827218
0.76703373
0.76573358
0.76437477
0.7629605
0.76149411
0.75997916
0.75841942
0.75681888
0.75518181
0.75351272
0.7518163
0.75009751
0.74836145
0.74661338
0.74485867
0.74310272
0.74135094
0.73960866
0.73788108
0.73617325
0.73448998
0.73283584
0.7312151
0.72963169
0.72808925
0.72659104
0.72514002
0.72373878
0.72238962
0.72109453
0.71985522
0.71867314
0.71754948
0.71648525
0.71548124
0.71453806
0.71365618
0.71283594
0.71207752
0.71138103
0.71074645
0.71017368
0.70966256
0.70921292
0.70882471
0.70849786
0.7082384
0.70803252
0.70788476
0.70779577
0.76940346
0.76813787
0.76680218
0.76539966
0.76393394
0.76240886
0.76082847
0.75919705
0.75751918
0.75579968
0.75404368
0.75225655
0.75044388
0.7486115
0.74676537
0.74491156
0.74305618
0.74120534
0.73936502
0.73754104
0.735739
0.73396421
0.73222167
0.73051601
0.72885144
0.72723181
0.72566051
0.72414056
0.72267456
0.72126476
0.71991303
0.71862096
0.7173898
0.71622057
0.71511404
0.71407076
0.71309114
0.71217538
0.71132359
0.71053574
0.7098117
0.70915125
0.70855409
0.70801984
0.70754805
0.70713832
0.70679096
0.70651115
0.70628795
0.70612199
0.70601534
0.70596726
0.76935718
0.76799222
0.76655092
0.76503719
0.76345533
0.76180997
0.76010598
0.75834856
0.7565432
0.75469576
0.75281235
0.7508994
0.74896353
0.7470116
0.74505052
0.74308729
0.74112884
0.73918196
0.73725325
0.73534899
0.73347509
0.73163707
0.72984
0.72808844
0.72638647
0.72473764
0.72314505
0.72161128
0.72013852
0.7187285
0.71738263
0.71610194
0.71488721
0.71373894
0.7126574
0.71164269
0.71069475
0.70981339
0.7089983
0.7082491
0.70756532
0.70694645
0.70639188
0.70590096
0.70547286
0.70510621
0.70480947
0.704572
0.7043901
0.70426805
0.70420502
0.70420007
0.76930701
0.76783414
0.76627803
0.76464332
0.76293516
0.76115908
0.75932096
0.75742707
0.75548407
0.75349896
0.75147909
0.7494321
0.74736586
0.74528836
0.74320762
0.74113164
0.7390682
0.73702484
0.73500869
0.73302642
0.73108421
0.72918766
0.72734174
0.72555085
0.72381872
0.72214853
0.72054287
0.7190038
0.71753293
0.71613141
0.71480004
0.71353927
0.71234928
0.71123001
0.71018121
0.70920247
0.70829326
0.70745295
0.70668082
0.70597614
0.70533809
0.70476587
0.70425865
0.70381557
0.70343583
0.70311886
0.70287044
0.70267667
0.70254185
0.70246622
0.70244894
0.70248817
0.7692526
0.76766245
0.76598141
0.76421499
0.76236932
0.76045105
0.75846727
0.75642553
0.75433386
0.75220067
0.75003476
0.74784523
0.74564132
0.74343237
0.74122762
0.73903611
0.73686654
0.73472712
0.73262549
0.73056862
0.72856278
0.72661349
0.72472552
0.72290286
0.72114877
0.71946585
0.71785605
0.71632078
0.71486092
0.71347696
0.71216897
0.71093675
0.70977984
0.70869757
0.70768912
0.70675354
0.70588982
0.70509688
0.70437361
0.7037189
0.70313164
0.70261072
0.70215507
0.70176365
0.70143551
0.7011751
0.70097187
0.70082713
0.70074154
0.70071427
0.70074384
0.70082991
0.76919357
0.76747589
0.76565879
0.76374883
0.76175334
0.7596803
0.75753824
0.75533628
0.75308406
0.75079172
0.74846975
0.74612893
0.74378014
0.74143418
0.73910163
0.73679263
0.73451676
0.73228285
0.73009893
0.72797212
0.72590861
0.72391367
0.7219916
0.72014582
0.71837893
0.71669275
0.71508846
0.71356664
0.71212736
0.7107703
0.70949477
0.70829982
0.70718431
0.70614691
0.70518622
0.70430075
0.70348898
0.7027494
0.70208051
0.70148084
0.70094897
0.70048354
0.70008325
0.69974687
0.69947872
0.6992684
0.69911627
0.69902343
0.69898882
0.69901102
0.69908941
0.69922375
0.76912949
0.76727303
0.76530765
0.76324114
0.76108229
0.75884067
0.75652657
0.75415097
0.75172549
0.74926228
0.74677386
0.74427297
0.74177231
0.73928433
0.73682099
0.73439357
0.73201245
0.72968698
0.72742539
0.72523475
0.72312097
0.72108878
0.71914181
0.71728268
0.7155131
0.71383397
0.71224548
0.71074728
0.70933851
0.70801794
0.70678405
0.7056351
0.70456921
0.70358441
0.70267867
0.70184996
0.70109628
0.70041568
0.69980628
0.69926628
0.69879399
0.6983878
0.69804621
0.6977734
0.69755945
0.69740286
0.69730559
0.69726643
0.69728394
0.69735708
0.69748603
0.69766885
0.76905991
0.76705231
0.76492519
0.76268781
0.76035071
0.75792537
0.7554242
0.75286047
0.75024814
0.74760179
0.7449363
0.74226665
0.73960759
0.73697334
0.7343773
0.73183182
0.72934797
0.72693543
0.72460239
0.72235564
0.72020048
0.71814085
0.71617944
0.71431783
0.71255662
0.71089557
0.70933379
0.70786981
0.70650176
0.70522742
0.7040444
0.70295011
0.70194194
0.70101722
0.70017332
0.69940769
0.69871784
0.69810143
0.69755621
0.69708009
0.69667111
0.69632748
0.69605311
0.69583871
0.69568101
0.69558245
0.69554175
0.6955574
0.69562814
0.69575412
0.69593361
0.69616542
0.76898431
0.76681201
0.7645083
0.76208426
0.75955247
0.7569268
0.75422222
0.75145473
0.74864116
0.7457989
0.74294561
0.74009882
0.73727553
0.73449181
0.7317625
0.7291009
0.72651854
0.72402518
0.72162871
0.71933524
0.71714917
0.71507333
0.71310919
0.71125702
0.70951609
0.70788486
0.70636117
0.70494235
0.70362541
0.70240712
0.70128413
0.70025302
0.6993104
0.69845296
0.69767746
0.69698083
0.69636016
0.6958127
0.6953359
0.6949274
0.69458502
0.69431234
0.69410062
0.69394526
0.69384879
0.69380979
0.69382667
0.69389808
0.69402396
0.69420258
0.69443301
0.69471406
0.76890211
0.76655018
0.76405351
0.76142533
0.75868077
0.75583654
0.75291077
0.74992275
0.74689271
0.74384142
0.7407897
0.73775794
0.73476556
0.73183054
0.72896902
0.72619504
0.72352035
0.72095439
0.71850438
0.71617537
0.71397047
0.71189107
0.70993709
0.70810725
0.70639928
0.70481017
0.70333634
0.70197384
0.7007185
0.699566
0.69851205
0.69755238
0.69668287
0.69589953
0.69519857
0.69457644
0.69402981
0.69355561
0.69315099
0.69281337
0.69254583
0.69233991
0.69219052
0.69209968
0.69206584
0.69208722
0.69216258
0.69229146
0.69247217
0.69270372
0.69298521
0.69331547
0.76881268
0.76626465
0.76355689
0.76070525
0.75772793
0.75464516
0.75147887
0.74825237
0.74498995
0.74171628
0.73845583
0.73523212
0.73206711
0.72898061
0.72598989
0.7231094
0.72035069
0.71772248
0.71523081
0.71287925
0.71066919
0.70860023
0.70667043
0.70487669
0.70321501
0.70168074
0.7002688
0.69897388
0.69779056
0.69671345
0.69573729
0.694857
0.69406774
0.6933649
0.69274417
0.69220153
0.69173333
0.69133619
0.69100702
0.6907483
0.69055144
0.69041175
0.6903303
0.69030526
0.69033462
0.69041744
0.69055261
0.69073859
0.69097429
0.69125876
0.69159116
0.69197036
0.76871533
0.76595297
0.76301402
0.75991746
0.75668533
0.7533421
0.74991436
0.74643026
0.7429189
0.73940951
0.73593064
0.73250918
0.72916966
0.72593356
0.72281892
0.71984016
0.71700811
0.71433024
0.71181086
0.70945154
0.70725155
0.70520828
0.70331767
0.70157455
0.699973
0.69850661
0.6971687
0.69595256
0.69485152
0.69385911
0.69296914
0.69217575
0.69147342
0.69085701
0.69032165
0.68986299
0.68947706
0.68916024
0.68891429
0.68873007
0.68860395
0.68853577
0.68852344
0.68856444
0.68865841
0.6888034
0.68899802
0.68924112
0.68953167
0.68986878
0.69025168
0.69067933
0.76860925
0.76561238
0.76241987
0.75905459
0.75554322
0.7519155
0.74820368
0.74444172
0.74066441
0.73690624
0.73320022
0.72957682
0.72606299
0.72268156
0.71945086
0.71638468
0.71349252
0.71077991
0.70824882
0.70589833
0.70372509
0.70172395
0.6998884
0.69821101
0.69668377
0.69529843
0.69404667
0.69292034
0.69191155
0.69101277
0.69021691
0.68951741
0.68890818
0.68838359
0.68793819
0.6875674
0.68726703
0.68703794
0.68687046
0.68676196
0.68671105
0.68671552
0.68677221
0.68688113
0.68703968
0.68724654
0.68750048
0.68780042
0.68814541
0.68853464
0.68896743
0.6894428
0.76849354
0.76523973
0.76176873
0.75810821
0.75429057
0.75035202
0.74633171
0.74227059
0.73821011
0.73419068
0.7302502
0.72642268
0.72273726
0.71921757
0.71588157
0.7127417
0.70980532
0.70707526
0.70455055
0.70222716
0.70009871
0.69815713
0.6963932
0.69479706
0.6933585
0.69206736
0.69091368
0.68988788
0.68898088
0.68818416
0.6874898
0.68689058
0.68638
0.68595214
0.68560062
0.68532098
0.68511315
0.68496681
0.68488041
0.68485107
0.68487615
0.68495341
0.68508106
0.68525716
0.6854801
0.68574856
0.6860614
0.68641762
0.68681638
0.68725697
0.68773881
0.68826102
0.76836719
0.76483143
0.76105409
0.75706873
0.75291484
0.74863662
0.74428161
0.73989911
0.7355383
0.73124619
0.7270658
0.72303454
0.71918322
0.71553555
0.71210824
0.70891145
0.70594949
0.70322169
0.70072342
0.698447
0.69638255
0.69451879
0.69284357
0.69134443
0.69000893
0.68882497
0.68778095
0.68686594
0.68606975
0.68538294
0.68479679
0.68430358
0.68389644
0.68356992
0.68331534
0.68313331
0.68301309
0.68295317
0.68295044
0.68300039
0.68310261
0.68325351
0.68345134
0.68369443
0.68398133
0.68431081
0.68468184
0.68509354
0.68554518
0.68603617
0.68656604
0.687134
0.76822905
0.76438338
0.76026845
0.75592514
0.75140175
0.74675231
0.74203459
0.73730779
0.73262994
0.72805529
0.723632
0.7194005
0.71539245
0.71163067
0.70812954
0.7048958
0.7019297
0.69922622
0.69677634
0.69456818
0.69258798
0.69082093
0.68925181
0.68786546
0.6866472
0.68558302
0.68465978
0.68386523
0.68318823
0.68261853
0.68214659
0.68176431
0.6814643
0.6812442
0.68109133
0.68100255
0.68097431
0.68100228
0.6810833
0.68121446
0.68139329
0.68161742
0.68188501
0.68219453
0.68254465
0.68293428
0.68336253
0.68382866
0.68433209
0.68487235
0.68544906
0.68606155
0.7680778
0.76389085
0.75940317
0.75466476
0.74973493
0.74467984
0.73956966
0.73447523
0.72946462
0.72459974
0.7199337
0.71550915
0.71135756
0.70749953
0.70394578
0.70069837
0.69775239
0.69509755
0.69271976
0.69060241
0.68872747
0.68707643
0.68563087
0.68437295
0.68328574
0.68235343
0.68156143
0.6808963
0.6803461
0.67990007
0.6795475
0.67928045
0.67909497
0.67897908
0.67892754
0.67893668
0.67900086
0.67911799
0.67928355
0.67949505
0.67975024
0.680047
0.6803836
0.68075864
0.68117095
0.68161961
0.6821039
0.68262323
0.68317718
0.68376541
0.68438763
0.68504327
0.76791194
0.76334835
0.75844821
0.75327294
0.7478956
0.74239736
0.73686334
0.73137802
0.72602054
0.72086065
0.71595586
0.71134984
0.70707239
0.70314034
0.6995591
0.69632466
0.69342581
0.69084608
0.68856562
0.68656261
0.68481452
0.68329895
0.68199427
0.68088003
0.6799371
0.67914806
0.67849704
0.67796942
0.67755276
0.67723643
0.6770073
0.67686218
0.67678783
0.67678034
0.67683173
0.67693951
0.67709781
0.67730351
0.67755315
0.67784438
0.67817519
0.67854368
0.67894821
0.67938758
0.6798608
0.68036714
0.68090604
0.68147715
0.68208021
0.68271506
0.68338133
0.68407858
0.76772972
0.7627495
0.75739186
0.75173261
0.74586208
0.73987998
0.73388943
0.72799054
0.72227446
0.7168186
0.71168371
0.70691289
0.70253235
0.69855313
0.69497359
0.69178216
0.6889601
0.68648389
0.68432728
0.68246291
0.68086351
0.67950278
0.67835595
0.67740003
0.67661387
0.67597864
0.67547754
0.67509446
0.67481688
0.67463633
0.67453531
0.67451
0.67455098
0.67465293
0.67480929
0.67501559
0.67526743
0.67556137
0.67589422
0.67626411
0.67666948
0.67710848
0.67757956
0.6780818
0.67861441
0.67917685
0.67976878
0.68039008
0.68104076
0.68172083
0.68242952
0.68316673
0.76752912
0.7620868
0.75622034
0.75002381
0.74360928
0.73709934
0.73061856
0.7242848
0.71820178
0.71245376
0.70710302
0.70218988
0.69773453
0.69373995
0.69019548
0.6870804
0.68436727
0.68202468
0.6800195
0.67831852
0.67688964
0.67570274
0.67473006
0.67394639
0.67332849
0.67285655
0.6725136
0.67228093
0.67215042
0.67210476
0.67213427
0.67223165
0.67239011
0.67260243
0.67286311
0.67316773
0.6735124
0.67389372
0.67430838
0.67475539
0.67523396
0.67574204
0.67627798
0.67684142
0.67743168
0.67804845
0.67869164
0.67936139
0.68005807
0.68078215
0.68153124
0.68230659
0.76730781
0.76135142
0.75491738
0.74812306
0.741108
0.73402298
0.7270179
0.72023032
0.71377652
0.70774607
0.70220033
0.69717391
0.69267805
0.68870509
0.68523325
0.68223106
0.67966124
0.67748379
0.6756583
0.67414558
0.67290873
0.67191397
0.67113088
0.67053247
0.67009314
0.66979258
0.66961577
0.66953943
0.66955595
0.66964985
0.66981163
0.67003362
0.67030936
0.67063197
0.67099632
0.67139838
0.67183475
0.67230234
0.67279673
0.6733188
0.67386912
0.67444467
0.67504341
0.67566622
0.6763122
0.67698137
0.67767389
0.6783902
0.67913104
0.76706301
0.76053279
0.75346354
0.74600255
0.73832413
0.73061367
0.72305064
0.71579387
0.70897135
0.70267547
0.69696325
0.69185988
0.68736427
0.68345528
0.6800978
0.67724802
0.67485782
0.67287806
0.67126085
0.66996106
0.66893708
0.66815182
0.66757253
0.6671716
0.66691968
0.66680062
0.66679099
0.66687422
0.6670424
0.66727979
0.66757294
0.66791946
0.66831247
0.66874458
0.6692114
0.66970941
0.67023595
0.67078879
0.67135987
0.67195425
0.67257508
0.67321651
0.67387539
0.67455572
0.6752553
0.67597479
0.67671458
0.67747536
0.67825773
0.76679146
0.75961826
0.75183548
0.74362911
0.73521761
0.72682859
0.71867551
0.71093928
0.70375764
0.69722206
0.69138069
0.6862448
0.68179711
0.6779999
0.67480251
0.67214736
0.66997467
0.66822577
0.66684534
0.66578258
0.66499133
0.66443169
0.6640687
0.66387703
0.66382099
0.66388575
0.66404838
0.66429563
0.66461701
0.66499984
0.66542219
0.66589279
0.66640269
0.66694277
0.66751021
0.66810213
0.66871668
0.6693548
0.66999782
0.67066068
0.67135175
0.67205772
0.67277283
0.67350929
0.67426007
0.67502769
0.67581255
0.6766157
0.67743774
0.76648926
0.75859247
0.75000491
0.74096294
0.73174115
0.72261833
0.71384611
0.70562717
0.69810547
0.69136633
0.6854432
0.68032814
0.67598329
0.67235119
0.66936344
0.66694743
0.66503119
0.66354649
0.66243081
0.66162831
0.66108824
0.66076893
0.6606363
0.66065858
0.6608031
0.66106067
0.66139761
0.66180882
0.66228467
0.66280801
0.66336683
0.66396044
0.66458287
0.66522837
0.66589407
0.66657729
0.6672764
0.66799021
0.66871152
0.66944645
0.67019956
0.67096898
0.67173356
0.6725264
0.67332528
0.67413884
0.67496648
0.67580987
0.67666972
0.76615175
0.75743662
0.74793717
0.73795591
0.72783868
0.71792564
0.7085101
0.69981451
0.69198358
0.68508932
0.67914331
0.67411218
0.66993274
0.66652447
0.66379934
0.6616688
0.66004851
0.65886094
0.65803689
0.65751676
0.65724448
0.65718061
0.65728224
0.65752938
0.65787871
0.65832799
0.65884643
0.65942432
0.66005146
0.6607153
0.66140651
0.66212127
0.66285436
0.66360252
0.66436378
0.6651354
0.66591619
0.66670506
0.66749931
0.6683018
0.66911515
0.66993822
0.67076444
0.67161012
0.67244925
0.67330691
0.67417484
0.67505632
0.67595208
0.76577325
0.7561274
0.74558944
0.73454932
0.72344324
0.71268381
0.70260815
0.69345411
0.68535919
0.67837279
0.67247587
0.66760248
0.6636589
0.6605384
0.65813179
0.65633421
0.65504928
0.65419081
0.6536835
0.65346679
0.65347704
0.6536767
0.65402162
0.65449704
0.65506137
0.65570138
0.65639975
0.65714311
0.65792116
0.65872397
0.65954425
0.66037752
0.66121822
0.66206569
0.66291965
0.66377646
0.66463588
0.66549747
0.66636053
0.66722682
0.66809819
0.66897458
0.66985444
0.67074448
0.67164016
0.67253321
0.6734359
0.67435334
0.67528315
0.76534683
0.7546356
0.74290822
0.73067105
0.7184744
0.70681466
0.69607236
0.68649368
0.67819778
0.67119948
0.66543858
0.66080842
0.65717919
0.65441517
0.65238524
0.65096848
0.6500575
0.6495586
0.64939483
0.64949288
0.64979718
0.65027143
0.65087114
0.65157659
0.65235453
0.65318582
0.65406308
0.65497003
0.65589701
0.65683607
0.65778195
0.65873083
0.65967495
0.6606177
0.66156159
0.66249998
0.66343467
0.66436592
0.6652941
0.66622071
0.66714746
0.66807513
0.66900411
0.66993781
0.67087533
0.67181834
0.67275567
0.67369911
0.67466122
0.7648639
0.75292405
0.73982581
0.72623165
0.71283473
0.70022556
0.68882557
0.67887745
0.67046593
0.66355597
0.658034
0.65374415
0.65051545
0.64818076
0.64658697
0.64559832
0.64509831
0.64498968
0.64518367
0.64561262
0.64622711
0.6469823
0.64783607
0.64877627
0.6497663
0.65078583
0.65184103
0.65290877
0.65398153
0.6550531
0.6561206
0.65718246
0.65822449
0.65925752
0.66028931
0.66130499
0.66231139
0.66330885
0.6642986
0.66528215
0.66626137
0.66723771
0.66821245
0.66918793
0.67016473
0.67114414
0.67212685
0.67310186
0.67408454
0.76431371
0.75094469
0.73625553
0.72111903
0.70640503
0.69280871
0.68078435
0.67055063
0.66213584
0.65543652
0.65027249
0.64643053
0.64369469
0.6418651
0.64076707
0.64025213
0.64019918
0.64049958
0.64107256
0.64185167
0.64277782
0.64382005
0.6449255
0.64610559
0.64730264
0.64850425
0.64973764
0.65096219
0.65217657
0.65337587
0.65456018
0.65573382
0.65686608
0.65798296
0.65910274
0.66019002
0.6612645
0.66232455
0.66337236
0.66440947
0.66543812
0.6664603
0.66747783
0.66849283
0.66950656
0.67052029
0.67153508
0.67255182
0.67356009
0.76368262
0.74863433
0.73208477
0.71519107
0.6990417
0.68444364
0.67186268
0.66146301
0.65318827
0.64684543
0.64217413
0.63889676
0.63675004
0.63550209
0.63495827
0.63496026
0.635379
0.63611947
0.63708479
0.63822174
0.63946139
0.64079752
0.64214501
0.64355637
0.6449661
0.6463622
0.64775703
0.64913219
0.65048331
0.65180454
0.65309919
0.65436858
0.65559961
0.65680621
0.65800383
0.65915276
0.66029227
0.66141107
0.66251351
0.66360077
0.66467573
0.66574086
0.66679839
0.66785051
0.66889888
0.66994481
0.67098971
0.67203496
0.67308144
0.76295298
0.74590806
0.72716492
0.70826877
0.69057647
0.67499913
0.66197558
0.65157293
0.64361597
0.63779942
0.63377013
0.63118101
0.62972128
0.62912975
0.62919552
0.62974551
0.63067665
0.63187014
0.63323536
0.63473997
0.63628683
0.63790538
0.63952063
0.64115208
0.64276418
0.644345
0.64589935
0.64741948
0.64890239
0.65033879
0.65173798
0.65310135
0.65442264
0.65571061
0.65697437
0.6582047
0.65939473
0.66056621
0.66172002
0.66285397
0.66397209
0.66507726
0.66617207
0.6672589
0.66833973
0.66941572
0.6704887
0.67156046
0.67263224
0.76210146
0.74264922
0.72129838
0.70012944
0.68081511
0.66433675
0.65104443
0.64085226
0.63342741
0.62832998
0.62510393
0.62333069
0.62265453
0.62278881
0.62350802
0.62465365
0.62611246
0.62777416
0.62953902
0.63139719
0.63328852
0.63517342
0.63704068
0.63889257
0.64070001
0.6424565
0.644165
0.64582389
0.64743416
0.64897751
0.65047536
0.65192908
0.65333368
0.65469649
0.65602481
0.65731679
0.65857687
0.65979315
0.66098981
0.66216684
0.66332496
0.6644673
0.66559673
0.66671588
0.66782714
0.66893101
0.67003001
0.67112628
0.67222139
0.76109628
0.73869353
0.71422179
0.69049873
0.66953853
0.65231702
0.6390041
0.62929231
0.62265062
0.61848536
0.61623187
0.61540223
0.61559918
0.61651947
0.61794994
0.61970629
0.62171172
0.62382303
0.6260292
0.6282391
0.63045896
0.63260225
0.63471107
0.63678056
0.63877532
0.64069841
0.64255383
0.64434421
0.64607913
0.64771861
0.6493092
0.65084932
0.65233079
0.65376253
0.65515204
0.65650108
0.65781363
0.65909235
0.6603262
0.66153697
0.66273203
0.6639087
0.66507016
0.66621928
0.66735913
0.66848856
0.66961153
0.67073027
0.67184625
0.75989248
0.7338055
0.70558428
0.67904281
0.65650771
0.63880925
0.6258122
0.61691026
0.61133686
0.6083321
0.60722331
0.60745695
0.6086083
0.61038358
0.61255324
0.61493147
0.61746665
0.62009359
0.62271027
0.62525821
0.62777712
0.630209
0.63255354
0.63481907
0.6369908
0.63907101
0.641065
0.6429778
0.64481534
0.64656351
0.6482549
0.64986022
0.65141169
0.65290658
0.65435316
0.65575493
0.65711616
0.65844052
0.65973131
0.66096465
0.66219092
0.66339917
0.66459012
0.66576679
0.75842359
0.72763997
0.69491734
0.6653642
0.64147483
0.62370556
0.61145999
0.60375582
0.59956366
0.59795574
0.59815573
0.5995619
0.60175927
0.60442069
0.60731485
0.6103668
0.61346022
0.61657379
0.61955537
0.62248437
0.62529729
0.62798581
0.63055308
0.63300743
0.63534599
0.63757349
0.63969715
0.64172409
0.64366061
0.64550467
0.64727542
0.64897159
0.65057935
0.65212596
0.65362525
0.65507556
0.65648162
0.65784806
0.65918258
0.66045457
0.66169955
0.66293636
0.66415438
0.6653559
0.75658432
0.71967786
0.6815993
0.64900607
0.62420317
0.60693946
0.59598458
0.58991736
0.58743685
0.58745687
0.58911015
0.59182071
0.59510386
0.59862948
0.60233305
0.60605916
0.609676
0.6132388
0.61665156
0.61990955
0.62300375
0.62593502
0.62871166
0.63134477
0.63383953