/*--------------------------------*- C++ -*----------------------------------*\
| =========                 |                                                 |
| \\      /  F ield         | OpenFOAM: The Open Source CFD Toolbox           |
|  \\    /   O peration     | Version:  2312                                  |
|   \\  /    A nd           | Website:  www.openfoam.com                      |
|    \\/     M anipulation  |                                                 |
\*---------------------------------------------------------------------------*/
FoamFile
{
    version     2.0;
    format      ascii;
    arch        "LSB;label=32;scalar=64";
    class       volScalarField;
    location    "0.03";
    object      nut;
}
// * * * * * * * * * * * * * * * * * * * * * * * * * * * * * * * * * * * * * //

dimensions      [0 2 -1 0 0 0 0];

internalField   nonuniform List<scalar> 
3221
(
0.024545872
0.024734673
0.024915237
0.025087938
0.025251337
0.025404445
0.025547888
0.025683841
0.025815448
0.025945798
0.026078798
0.026224699
0.026422277
0.026610567
0.026763666
0.026889395
0.026998768
0.027103724
0.027200178
0.027283326
0.027351298
0.027404078
0.027442359
0.027467079
0.027479246
0.027479918
0.027470167
0.027451057
0.027423645
0.027388969
0.027348048
0.027301872
0.027251398
0.027197548
0.027141201
0.027083192
0.02702431
0.026965293
0.02690683
0.026849557
0.026794059
0.02674087
0.026690476
0.026643315
0.026599778
0.026560216
0.026524936
0.026494213
0.026468285
0.026447361
0.026431625
0.026421256
0.024531834
0.024707792
0.024883147
0.025053754
0.025216769
0.025370825
0.025516312
0.025655199
0.025790205
0.025923585
0.026056898
0.026191767
0.026331991
0.026478287
0.026626476
0.026768513
0.026898258
0.027016054
0.027122136
0.027215241
0.027294922
0.02736181
0.027416975
0.027461532
0.027496523
0.027522764
0.027541027
0.027552134
0.027556891
0.027556102
0.027550556
0.027541028
0.027528267
0.027512998
0.027495908
0.027477652
0.027458842
0.027440049
0.027421798
0.027404572
0.027388805
0.02737489
0.027363175
0.027353965
0.027347529
0.027344096
0.027343863
0.027346995
0.02735363
0.027363879
0.027377835
0.0273956
0.024516482
0.024663278
0.024815673
0.024969168
0.025120159
0.025266498
0.025407822
0.025545204
0.025680395
0.025815047
0.02595017
0.026086011
0.026222553
0.026359884
0.026496783
0.026630759
0.026758977
0.026879859
0.026992365
0.027095391
0.027188445
0.027271829
0.027346273
0.027412532
0.027471318
0.027523449
0.027569682
0.02761058
0.02764675
0.027678827
0.027707426
0.027733145
0.02775656
0.027778224
0.027798658
0.027818349
0.027837751
0.027857277
0.027877305
0.027898168
0.027920164
0.02794355
0.027968548
0.027995341
0.028024083
0.028054896
0.028087874
0.028123088
0.028160584
0.02820039
0.02824252
0.028287013
0.024502343
0.024619523
0.024745158
0.024875827
0.02500828
0.025140285
0.025271003
0.025400759
0.025530419
0.02566081
0.025792347
0.025924928
0.026058071
0.026191053
0.026323054
0.026453011
0.026579643
0.026701916
0.026818896
0.026929765
0.027034094
0.027131912
0.027223545
0.027309456
0.027390128
0.027465996
0.027537532
0.027605372
0.027670039
0.027731932
0.027791483
0.027849142
0.027905328
0.027960438
0.028014839
0.028068868
0.02812283
0.028176995
0.028231597
0.02828684
0.028342891
0.028399885
0.028457926
0.028517092
0.028577432
0.028638973
0.02870172
0.028765662
0.028830771
0.028897004
0.028964308
0.029032665
0.024489511
0.024579656
0.024679274
0.024785946
0.024897069
0.025010756
0.02512612
0.025243096
0.025362002
0.025483143
0.025606565
0.025731984
0.025858848
0.025986308
0.026113759
0.02624045
0.026365542
0.026488346
0.026608233
0.026724677
0.026837365
0.026946215
0.027051333
0.027152941
0.02725132
0.027346787
0.027439669
0.027530242
0.027618818
0.027705837
0.027791652
0.0278765
0.027960636
0.028044315
0.028127764
0.028211178
0.028294724
0.02837854
0.028462732
0.028547379
0.028632532
0.028718218
0.028804437
0.028891169
0.028978374
0.029065996
0.029153963
0.029242194
0.0293306
0.029419082
0.029507533
0.029595881
0.024478104
0.024544666
0.024620951
0.024705165
0.024795236
0.024889671
0.024987734
0.025089259
0.025194324
0.025302982
0.025415103
0.025530343
0.025648174
0.025767825
0.0258887
0.026010386
0.026132119
0.026253377
0.02637371
0.026492754
0.026610269
0.026726145
0.026840383
0.026953065
0.027064327
0.02717434
0.027283291
0.027391374
0.027498803
0.027605727
0.027712311
0.027818769
0.027925276
0.028031917
0.028138779
0.028245929
0.028353408
0.028461231
0.028569386
0.028677837
0.028786529
0.028895397
0.029004352
0.02911329
0.029222092
0.029330633
0.029438779
0.029546391
0.029653325
0.029759432
0.029864557
0.029968574
0.024468192
0.024514655
0.024570801
0.024635163
0.024706021
0.02478219
0.024863113
0.024948659
0.025038843
0.025133633
0.025232853
0.025336168
0.025443118
0.025553095
0.025665352
0.025779933
0.025896044
0.02601327
0.02613126
0.02624974
0.026368514
0.026487465
0.026606545
0.026725757
0.026845142
0.026964766
0.027084706
0.027205045
0.027325868
0.027447242
0.02756923
0.027691873
0.027815181
0.027939172
0.028063818
0.02818906
0.028314839
0.028441061
0.028567613
0.028694363
0.028821162
0.02894784
0.029074221
0.029200124
0.029325362
0.029449746
0.029573085
0.029695189
0.029815874
0.02993496
0.030052262
0.030167599
0.024459797
0.024489468
0.024528664
0.024576076
0.024630199
0.024690058
0.024755238
0.024825675
0.024901398
0.024982375
0.025068446
0.025159326
0.025254635
0.025353943
0.025456361
0.025562334
0.025671075
0.025782244
0.025895573
0.026010846
0.026127907
0.026246644
0.026366987
0.026488895
0.026612346
0.026737334
0.026863855
0.026991904
0.027121471
0.027252531
0.027385041
0.027518929
0.027654122
0.027790529
0.027928022
0.028066451
0.028205617
0.028345322
0.02848535
0.028625477
0.028765469
0.028905084
0.029044079
0.029182208
0.029319229
0.029454899
0.029588982
0.029721245
0.029851464
0.02997942
0.030104909
0.030227714
0.024452894
0.024468868
0.024494145
0.024527493
0.024567539
0.024613434
0.024664866
0.02472183
0.024784393
0.024852552
0.024926194
0.025005098
0.025088973
0.025177489
0.025269819
0.025366582
0.02546709
0.025571067
0.025678318
0.025788688
0.025902059
0.026018334
0.026137439
0.026259311
0.026383886
0.026511109
0.026640919
0.026773247
0.026908008
0.027045095
0.027184416
0.027325833
0.02746915
0.02761414
0.027760564
0.027908164
0.028056663
0.028205774
0.0283552
0.028504639
0.028653787
0.028802338
0.028949992
0.029096452
0.02924143
0.029384643
0.029525819
0.029664697
0.029801026
0.029934572
0.030065111
0.030192382
0.024447415
0.024452557
0.024466738
0.02448876
0.024517335
0.024551693
0.024591585
0.024637055
0.024688207
0.024745082
0.02480762
0.02487567
0.024949025
0.025027419
0.025110162
0.025198048
0.025290371
0.025386982
0.025487757
0.025592602
0.025701433
0.025814175
0.025930748
0.026051079
0.0261751
0.026302726
0.026433857
0.026568366
0.026706151
0.026847061
0.026990851
0.027137264
0.027286017
0.027436801
0.02758929
0.027743141
0.027897996
0.028053494
0.028209269
0.028364954
0.028520189
0.028674617
0.028827893
0.028979681
0.029129658
0.029277513
0.029422949
0.029565683
0.029705448
0.029841995
0.029975091
0.030104437
0.024443249
0.024440167
0.024445825
0.024459046
0.024478592
0.024503746
0.024534301
0.024570338
0.024612003
0.024659383
0.024712474
0.024771198
0.024835429
0.024904793
0.024979195
0.025059103
0.025144035
0.025233926
0.025328731
0.025428408
0.025532915
0.025642197
0.025756187
0.025874803
0.025997939
0.026125473
0.026257268
0.026393245
0.026533169
0.026676761
0.026823711
0.026973684
0.027126313
0.027281213
0.027437976
0.027596187
0.027755422
0.027915256
0.028075267
0.028235042
0.028394174
0.028552272
0.028708958
0.028863871
0.029016663
0.029167007
0.029314591
0.02945912
0.029600318
0.029737932
0.029871731
0.030001366
0.024440257
0.024431266
0.024430694
0.024437367
0.024450081
0.024468152
0.024491408
0.024519965
0.024554013
0.024593693
0.024639071
0.024690149
0.024746892
0.024808849
0.024876695
0.024950234
0.025029329
0.025113985
0.025204211
0.025300006
0.02540135
0.025508196
0.025620473
0.025738089
0.025860923
0.025988839
0.026121766
0.026259412
0.026401464
0.026547575
0.02669736
0.026850404
0.027006264
0.027164481
0.027324581
0.027486085
0.027648517
0.027811405
0.027974285
0.028136711
0.028298248
0.028458481
0.028617017
0.028773478
0.02892751
0.029078777
0.029226963
0.029371773
0.02951293
0.029650186
0.029783301
0.029911926
0.024438281
0.024425387
0.024420571
0.024422665
0.02443049
0.024443396
0.024461249
0.024484212
0.024512528
0.024546406
0.024585985
0.024631351
0.02468232
0.024739091
0.024802119
0.024871158
0.02494628
0.025027552
0.025115028
0.025208733
0.025308657
0.025414748
0.025526923
0.025645061
0.02576901
0.025898698
0.026033817
0.026174018
0.026318912
0.026468072
0.026621033
0.026777301
0.026936365
0.027097698
0.027260773
0.027425064
0.027590052
0.027755235
0.027920126
0.028084257
0.028247184
0.028408483
0.028567757
0.028724628
0.028878746
0.029029782
0.029177425
0.029321387
0.029461394
0.029597211
0.029728602
0.029855239
0.024437168
0.024422075
0.024414713
0.024413919
0.024418537
0.02442795
0.02444207
0.024461117
0.024485401
0.024515211
0.024550776
0.024592158
0.024639321
0.024693123
0.024753311
0.024820029
0.02489341
0.024973569
0.02506058
0.025154472
0.02525522
0.025362744
0.025476921
0.025597575
0.0257246
0.025857712
0.025996515
0.026140574
0.026289415
0.026442522
0.026599349
0.026759332
0.026921894
0.027086457
0.027252451
0.027419316
0.027586512
0.027753519
0.027919842
0.028085013
0.028248589
0.028410155
0.028569322
0.028725728
0.028879038
0.02902894
0.029175148
0.029317389
0.029455382
0.029588842
0.029717686
0.029841569
0.02443676
0.024420868
0.024412353
0.024410065
0.024412873
0.024420207
0.024432041
0.024448668
0.024470489
0.024497886
0.024531172
0.024570194
0.024616143
0.024668802
0.024728401
0.024795151
0.024869231
0.024950772
0.025039845
0.025136447
0.025240508
0.025351888
0.025470396
0.025595816
0.025727939
0.025866306
0.026010428
0.026159773
0.026313767
0.026471808
0.026633272
0.026797532
0.026963958
0.027131936
0.027300865
0.027470173
0.027639311
0.027807761
0.027975038
0.028140687
0.028304283
0.028465432
0.02862377
0.028778961
0.028930694
0.029078689
0.029222695
0.029362477
0.029497749
0.029628046
0.029753656
0.029874137
0.024436918
0.024421353
0.024412813
0.024410169
0.02441233
0.024418786
0.024429596
0.024445155
0.024465972
0.024492546
0.024524882
0.024564238
0.024610633
0.024664361
0.024725725
0.024794984
0.02487233
0.024957879
0.025051658
0.025153596
0.025263537
0.025381248
0.025506425
0.025638855
0.025778048
0.025923443
0.026074436
0.026230386
0.026390622
0.026554458
0.026721205
0.026890181
0.027060722
0.027232192
0.027403983
0.027575522
0.027746275
0.027915742
0.028083463
0.028249011
0.028411996
0.028572059
0.028728869
0.028882126
0.029031557
0.029176913
0.029317973
0.029454534
0.029586358
0.029713121
0.029834836
0.029951274
0.024437517
0.024423171
0.024415501
0.024413422
0.024415897
0.024422505
0.024433416
0.024449153
0.024470359
0.024497241
0.024531196
0.024572436
0.024621391
0.02467848
0.024744057
0.024818389
0.024901648
0.024993888
0.025095045
0.025204936
0.025323279
0.025449709
0.025583836
0.02572526
0.025873304
0.026027273
0.026186441
0.026350055
0.026517354
0.026687579
0.026859991
0.027033873
0.027208547
0.027383373
0.027557756
0.027731146
0.027903037
0.028072967
0.028240516
0.028405302
0.02856698
0.028725237
0.028879789
0.029030381
0.029176781
0.029318783
0.029456201
0.029588876
0.029716582
0.029839111
0.029956376
0.030068272
0.024438453
0.024426015
0.02441992
0.024419149
0.024422749
0.024430414
0.024442462
0.024459569
0.024482108
0.024511692
0.024548726
0.024593823
0.024647555
0.0247104
0.024782727
0.024864773
0.024956634
0.025058249
0.025169412
0.02528978
0.025418901
0.025556229
0.025701338
0.025853483
0.02601185
0.026175606
0.026343899
0.026515877
0.026690701
0.026867562
0.027045688
0.027224353
0.027402886
0.027580667
0.027757136
0.027931782
0.028104149
0.028273828
0.028440455
0.028603706
0.02876329
0.028918952
0.029070461
0.029217615
0.029360233
0.029498156
0.029631237
0.029759343
0.029882282
0.029999901
0.030112303
0.030219068
0.024439636
0.024429633
0.024425665
0.024426816
0.024432245
0.024441802
0.024455983
0.024475212
0.024501328
0.024534945
0.024576908
0.024627993
0.024688843
0.024759957
0.024841668
0.024934126
0.025037287
0.025150919
0.025274614
0.025407818
0.025549874
0.025700096
0.025857816
0.026022052
0.026191832
0.026366182
0.02654414
0.026724773
0.02690719
0.027090552
0.027274085
0.027457078
0.027638893
0.027818956
0.027996758
0.028171853
0.02834385
0.028512407
0.028677229
0.028838059
0.028994675
0.029146882
0.029294511
0.029437417
0.029575473
0.029708572
0.029836609
0.029959464
0.030077012
0.030189311
0.030295963
0.030397082
0.024440993
0.024433822
0.024432424
0.024436018
0.024443923
0.024456185
0.024473056
0.024496523
0.024527385
0.024566773
0.024615716
0.02467508
0.024745542
0.024827567
0.024921386
0.025026992
0.025144132
0.025272332
0.025410926
0.025559107
0.02571596
0.025880731
0.026052336
0.026229627
0.026411478
0.026596793
0.026784523
0.026973682
0.027163355
0.027352707
0.027540991
0.027727542
0.027911778
0.028093195
0.02827136
0.028445905
0.028616521
0.028782949
0.028944971
0.029102408
0.02925511
0.029402951
0.029545826
0.029683649
0.029816351
0.02994388
0.030066129
0.0301832
0.03029474
0.03040082
0.030501379
0.030596364
0.024442466
0.024438428
0.02443996
0.024446473
0.024457487
0.024472819
0.024494375
0.024523063
0.024560301
0.024607428
0.024665595
0.024735722
0.02481846
0.024914167
0.025022897
0.025144398
0.02527813
0.025423308
0.025578957
0.025743975
0.025917253
0.026097752
0.026284094
0.02647496
0.02666909
0.026865296
0.027062473
0.027259617
0.027455827
0.027650308
0.027842371
0.028031424
0.028216972
0.028398602
0.028575975
0.028748819
0.02891692
0.029080109
0.029238256
0.029391266
0.029539066
0.029681603
0.029818835
0.029950736
0.030077306
0.030198514
0.030314468
0.030424799
0.030529717
0.030629175
0.030723128
0.030811513
0.024444008
0.024443332
0.024448112
0.024458005
0.02447231
0.024492559
0.024519593
0.024555017
0.024600503
0.024657556
0.024727419
0.024811004
0.024908857
0.025021141
0.025147631
0.025287741
0.025440561
0.025604932
0.02577952
0.025962886
0.026153837
0.026350833
0.026552315
0.026756818
0.026962982
0.027169563
0.027375448
0.027579655
0.027781337
0.027979774
0.02817437
0.028364637
0.028550187
0.028730719
0.028906008
0.02907589
0.029240254
0.029399031
0.029552186
0.029699707
0.029841603
0.029977896
0.030108603
0.030233747
0.030353559
0.030467713
0.03057637
0.030679563
0.030777327
0.030869659
0.030956519
0.031037885
0.024445585
0.024448457
0.024456786
0.024470071
0.024489311
0.024515098
0.024548976
0.024592888
0.024648734
0.024718163
0.024802443
0.024902399
0.025018371
0.025150215
0.025297322
0.025458668
0.025632896
0.025818412
0.026013494
0.026216464
0.026425785
0.026639584
0.026856139
0.027073878
0.027291387
0.027507416
0.027720889
0.027930895
0.028136681
0.028337641
0.028533303
0.028723309
0.028907402
0.02908541
0.029257231
0.029422823
0.029582185
0.029735353
0.029882386
0.03002336
0.030158365
0.030287503
0.030410846
0.030528661
0.030640623
0.030747032
0.030847951
0.030943442
0.031033548
0.031118272
0.031197618
0.031271594
0.024447178
0.024453759
0.02446552
0.024483529
0.024508212
0.024540705
0.024583027
0.024637431
0.024706033
0.024790567
0.024892247
0.025011696
0.025148928
0.025303363
0.025473886
0.02565894
0.025856646
0.026064934
0.026281659
0.02650506
0.026732994
0.026963425
0.027194516
0.027424639
0.027652383
0.027876551
0.028096155
0.028310402
0.028518678
0.028720523
0.028915618
0.029103758
0.029284836
0.029458822
0.029625749
0.0297857
0.02993879
0.030085161
0.030224968
0.030358365
0.030485526
0.030606782
0.030721966
0.030831322
0.030934971
0.031033062
0.031125711
0.031213003
0.031294982
0.031371691
0.031443165
0.031509428
0.024448794
0.024458896
0.024474972
0.02449821
0.024529228
0.02456983
0.024622445
0.024689639
0.024773699
0.024876363
0.024998676
0.025140926
0.025302649
0.025482688
0.0256793
0.025890302
0.026113234
0.02634552
0.026584787
0.026828792
0.027075083
0.027321489
0.027566115
0.027807344
0.028043831
0.028274493
0.028498485
0.02871518
0.028924137
0.029125079
0.029317862
0.029502454
0.029678911
0.029847354
0.030007958
0.030160931
0.030306507
0.030444938
0.030576469
0.030701315
0.03082
0.030932204
0.03103843
0.03113882
0.031233553
0.031322803
0.031406703
0.031485346
0.03155881
0.031627168
0.031690473
0.031748752
0.024450291
0.024464235
0.0244852
0.024514197
0.024552712
0.024603064
0.024668113
0.024750715
0.024853256
0.024977371
0.025123784
0.025292282
0.025481754
0.025690315
0.025915478
0.026154354
0.026403867
0.026660957
0.026923098
0.027187406
0.027451298
0.027712543
0.027969264
0.02821993
0.028463333
0.028698563
0.028924972
0.02914214
0.029349838
0.029547995
0.029736664
0.029915998
0.030086225
0.030247624
0.03040051
0.030545219
0.030682097
0.03081151
0.030933885
0.0310494
0.031158318
0.031260961
0.031357592
0.031448447
0.031533756
0.031613703
0.031688428
0.031758056
0.031822695
0.031882433
0.031937326
0.03198741
0.024451649
0.024470042
0.024496077
0.024531732
0.024579125
0.024641142
0.024721084
0.024822049
0.024946427
0.025095589
0.025269761
0.02546803
0.025688456
0.025928277
0.026184149
0.026452423
0.026729377
0.027011782
0.027296432
0.027580207
0.027860446
0.028134941
0.028401919
0.028660012
0.028908222
0.029145872
0.029372559
0.029588108
0.02979253
0.029985981
0.030168725
0.03034111
0.030503537
0.030656446
0.03080029
0.030935527
0.031062593
0.03118226
0.031294312
0.031399505
0.031498153
0.031590562
0.031677045
0.031757889
0.031833337
0.031903581
0.031968793
0.032029125
0.032084699
0.032135604
0.032181907
0.032223646
0.024453073
0.024475992
0.024507742
0.024551137
0.024609028
0.024684926
0.024782562
0.0249052
0.025055085
0.025233137
0.025438861
0.025670422
0.025924862
0.026198395
0.026486743
0.026785476
0.027090364
0.027397831
0.027704113
0.028006002
0.028300862
0.028586604
0.02886165
0.029124881
0.029375573
0.029613336
0.029838056
0.030049834
0.030248943
0.030435779
0.030610826
0.030774628
0.030927762
0.03107082
0.031204394
0.031329063
0.031445646
0.031554081
0.031655195
0.031749434
0.031837189
0.031918831
0.031994713
0.032065139
0.032130357
0.032190593
0.032246046
0.032296874
0.032343204
0.032385132
0.032422727
0.032456031
0.024454496
0.024482213
0.02452041
0.024572809
0.024643081
0.024735399
0.024853887
0.025001856
0.025181217
0.025392196
0.025633317
0.025901592
0.026192853
0.026502169
0.026824274
0.027153944
0.027486809
0.027818435
0.028144922
0.028463076
0.028770398
0.029065024
0.029345668
0.029611531
0.029862229
0.030097707
0.030318171
0.030524025
0.030715814
0.030894184
0.03105984
0.03121352
0.031355971
0.031487931
0.031610228
0.031723494
0.031828113
0.031924884
0.03201436
0.032097049
0.032173415
0.032243867
0.032308774
0.032368449
0.032423172
0.032473193
0.032518711
0.032559893
0.032596869
0.032629739
0.03265857
0.032683402
0.024455919
0.024488827
0.024534339
0.024597213
0.024682033
0.024793651
0.024936514
0.025113808
0.025326864
0.025574926
0.025855252
0.026163453
0.02649398
0.026840669
0.027197242
0.027558048
0.027918012
0.028272324
0.028617066
0.028949186
0.029266438
0.029567297
0.029850851
0.0301167
0.030364847
0.030595612
0.030809549
0.031007375
0.031189917
0.031358068
0.031512753
0.031654895
0.031785402
0.031905357
0.032015275
0.0321159
0.032208106
0.032292537
0.032369804
0.032440481
0.032505071
0.032563994
0.032617637
0.032666337
0.032710396
0.032750062
0.032785543
0.032817007
0.032844585
0.032868376
0.032888442
0.032904822
0.02445737
0.02449597
0.024549823
0.024624875
0.024726712
0.024860866
0.025031984
0.025242901
0.025494059
0.025783387
0.026106569
0.026457579
0.026829345
0.027214435
0.02760567
0.027997034
0.028382636
0.028757615
0.029118188
0.029461583
0.029785937
0.030090161
0.030373804
0.030636921
0.03087995
0.031103611
0.031308819
0.031496612
0.031668098
0.031824413
0.031966688
0.032096023
0.032213767
0.032320386
0.032416938
0.03250441
0.032583573
0.032655138
0.032719773
0.032778088
0.032830595
0.032877747
0.032919947
0.032957544
0.032990841
0.03302009
0.033045501
0.033067242
0.03308544
0.033100188
0.033111543
0.033119536
0.024458889
0.024503799
0.024567194
0.024656371
0.024778013
0.024938294
0.025141887
0.025390977
0.025684747
0.026019434
0.026388837
0.026785083
0.027199479
0.027623303
0.028049005
0.028469496
0.028878687
0.029271815
0.029645388
0.029997061
0.030325471
0.030630063
0.030910916
0.03116859
0.031403986
0.031618242
0.031812642
0.03198854
0.032147316
0.032290336
0.032418926
0.03253471
0.03263819
0.032730686
0.032813334
0.032887058
0.032952698
0.033011016
0.03306271
0.033108403
0.033148637
0.033183885
0.033214553
0.033240993
0.033263507
0.033282349
0.033297726
0.033309799
0.033318691
0.033324486
0.033327233
0.033326951
0.024460528
0.024512495
0.024586814
0.024692323
0.024836883
0.025027232
0.025267823
0.025559808
0.025900681
0.026284593
0.026703158
0.027146495
0.027604255
0.028066803
0.028525718
0.028973313
0.029403518
0.02981185
0.030195273
0.030552009
0.030881307
0.031183226
0.031458432
0.031708025
0.031933389
0.032136085
0.03231776
0.032480076
0.03262467
0.03275312
0.03286734
0.032967965
0.033056539
0.033134372
0.033202565
0.033262103
0.033313887
0.033358691
0.033397237
0.033430171
0.033458048
0.033481346
0.033500473
0.033515779
0.033527564
0.033536075
0.033541513
0.033544032
0.033543744
0.033540724
0.033535008
0.033526603
0.024462347
0.024522258
0.024609073
0.024733386
0.024904303
0.025128988
0.025411333
0.025750998
0.026143305
0.026579918
0.027050018
0.02754162
0.028042815
0.028543316
0.029033521
0.029505647
0.02995385
0.030374113
0.030764022
0.031122491
0.031449478
0.031745725
0.032012526
0.03225154
0.032464642
0.032653809
0.032821042
0.032968293
0.033097434
0.03321067
0.03330889
0.033393786
0.033466934
0.033529604
0.033582962
0.033628027
0.033665725
0.033696866
0.033722183
0.033742323
0.033757848
0.033769235
0.03377689
0.033781159
0.033782333
0.03378065
0.033776301
0.033769428
0.033760135
0.033748481
0.033734488
0.033718148
0.024464419
0.024533303
0.024634379
0.024780236
0.024981262
0.025244827
0.025573821
0.025965863
0.026413595
0.026905828
0.027429121
0.027969355
0.028513686
0.029050354
0.029569344
0.030062971
0.030525824
0.030954536
0.031347463
0.031704325
0.032025869
0.032313569
0.032569372
0.032795506
0.03299433
0.033168223
0.033319526
0.03345045
0.033563508
0.033659976
0.033741602
0.03381032
0.033867598
0.03391478
0.033953056
0.033983481
0.034007005
0.034024451
0.034036551
0.034043954
0.034047216
0.034046811
0.034043138
0.034036532
0.034027273
0.034015587
0.034001651
0.033985597
0.033967513
0.033947445
0.033925394
0.033901336
0.024466829
0.024545858
0.024663152
0.024833554
0.025068726
0.025375912
0.02575644
0.026205274
0.026711872
0.027261904
0.027839246
0.028428017
0.029014049
0.029584533
0.030129342
0.030641117
0.031115078
0.031548676
0.031941169
0.032293178
0.032606301
0.032882777
0.033125217
0.033336416
0.0335192
0.033676319
0.033810451
0.033924401
0.034020022
0.034098993
0.034163692
0.034215845
0.034256984
0.034288487
0.034311579
0.034327333
0.034336703
0.034340521
0.034339513
0.03433432
0.034325488
0.034313482
0.034298687
0.034281428
0.034261967
0.034240517
0.034217238
0.03419225
0.034165627
0.034137401
0.03410754
0.034076008
0.024469667
0.024560157
0.024695806
0.024894001
0.025167585
0.025523204
0.025959938
0.026469446
0.027037565
0.027646661
0.028278023
0.0289145
0.029540094
0.03014158
0.030708944
0.031235351
0.031716836
0.032151814
0.032540554
0.032884658
0.033186619
0.033449456
0.033676448
0.033870938
0.034036199
0.034175302
0.034291582
0.034387548
0.034464728
0.034526041
0.034573491
0.034608864
0.034633742
0.034649529
0.034657463
0.034658626
0.034653969
0.034644321
0.034630399
0.034612828
0.034592142
0.034568787
0.034543136
0.034515495
0.03448611
0.034455176
0.034422836
0.034389195
0.034354313
0.034318218
0.034280813
0.034242073
0.024473033
0.024576429
0.024732743
0.024962194
0.025278591
0.025687332
0.026184449
0.02675767
0.027388928
0.028057277
0.028742175
0.029424392
0.030086946
0.030716366
0.031302923
0.031840478
0.032326023
0.032759067
0.033140983
0.033474412
0.033762773
0.034009875
0.034219649
0.034395962
0.03454253
0.03466276
0.034760747
0.034837298
0.034896104
0.0349395
0.034969554
0.034988098
0.034996742
0.034996904
0.034989823
0.034976581
0.034958119
0.034935253
0.034908687
0.034879026
0.034846784
0.03481239
0.034776196
0.03473849
0.034699499
0.034659396
0.034618308
0.03457632
0.034533483
0.02447703
0.024594892
0.024774327
0.025038656
0.025402251
0.025868394
0.026429195
0.027067966
0.027762709
0.028489647
0.029226396
0.029951951
0.030648675
0.031302976
0.031905515
0.032450961
0.032937389
0.033365507
0.033737872
0.034058215
0.034330897
0.034560521
0.034751649
0.034908637
0.035035639
0.035137031
0.035214877
0.03527234
0.035312584
0.035337991
0.03535067
0.035352481
0.03534505
0.035329796
0.035307951
0.035280586
0.035248625
0.035212866
0.035173992
0.035132588
0.035089143
0.035044064
0.034997684
0.034950267
0.034902019
0.034853094
0.034803596
0.03475359
0.034703098
0.024481761
0.024615739
0.024820865
0.025123762
0.025538683
0.026065683
0.026692095
0.027396626
0.028153631
0.028937594
0.02972373
0.030490068
0.031218347
0.031894826
0.032510554
0.033061074
0.033545646
0.033966279
0.034326795
0.034632054
0.034887381
0.035098162
0.035269574
0.035406395
0.035513821
0.035595041
0.035652817
0.035691147
0.035712846
0.035720364
0.035715841
0.035701154
0.035677927
0.035647573
0.035611309
0.035570186
0.035525105
0.035476841
0.035426055
0.035373304
0.035319053
0.035263685
0.035207509
0.035150767
0.035093641
0.035036262
0.034978713
0.034921037
0.034863233
0.024487324
0.024639122
0.024872574
0.025217636
0.025687376
0.026277281
0.026969223
0.027737673
0.0285546
0.029392528
0.030225352
0.031030263
0.031788132
0.032484822
0.033111649
0.033665061
0.03414561
0.034556725
0.034903577
0.035192208
0.035428923
0.03561989
0.035770874
0.035887225
0.035974847
0.036035082
0.036073185
0.036092471
0.036095813
0.036085698
0.036064286
0.036033451
0.035994814
0.035949769
0.035899513
0.035845067
0.035787309
0.035726986
0.035664729
0.03560107
0.035536448
0.035471218
0.035405666
0.035340008
0.035274403
0.035208958
0.035143736
0.035078754
0.035013993
0.024493805
0.024665131
0.02492952
0.025319995
0.025846847
0.026499479
0.027254068
0.028082234
0.028954913
0.029843269
0.030720455
0.031562757
0.032349476
0.033065572
0.033702384
0.034257308
0.034732341
0.035132486
0.035464382
0.035735311
0.035952582
0.036123135
0.036253288
0.036349824
0.036416142
0.036456178
0.036474794
0.036475311
0.036460639
0.036433287
0.036395418
0.036348895
0.036295324
0.036236077
0.036172322
0.036105051
0.03603511
0.035963216
0.035889972
0.035815879
0.035741348
0.035666709
0.035592221
0.035518076
0.035444408
0.035371301
0.035298792
0.03522688
0.035155525
0.024501264
0.024693768
0.024991546
0.025429894
0.026014092
0.026725942
0.027536503
0.028417696
0.029340343
0.030275761
0.031196194
0.032076629
0.032893348
0.033629643
0.034276544
0.034832524
0.035301278
0.035689611
0.036005784
0.036258399
0.036455803
0.036605721
0.036715371
0.036791783
0.036836875
0.036857181
0.036856714
0.036838905
0.036806704
0.036762631
0.036708839
0.036647176
0.036579224
0.03650633
0.036429629
0.036350078
0.03626849
0.036185551
0.036101832
0.036017804
0.03593385
0.035850274
0.035767307
0.035685117
0.035603814
0.035523456
0.035444057
0.035365595
0.035288012
0.024509723
0.024724894
0.025058114
0.025545299
0.026183743
0.026946534
0.027801704
0.02872607
0.029692759
0.030672815
0.031637701
0.032560089
0.033410567
0.034169872
0.034828346
0.035385907
0.03584836
0.036224637
0.036524818
0.036758948
0.036936451
0.037065825
0.037156059
0.037211255
0.037236237
0.037237272
0.037218271
0.03718272
0.037133593
0.037073415
0.037004324
0.036928141
0.036846425
0.036760491
0.03667144
0.036580193
0.036487528
0.036394097
0.036300439
0.036206996
0.036114121
0.036022091
0.035931113
0.03584133
0.035752827
0.035665635
0.035579746
0.035495117
0.035411674
0.024519134
0.024758162
0.025128064
0.025662359
0.026346754
0.027145544
0.028040039
0.029005464
0.03001378
0.031035605
0.032041753
0.033003675
0.03389221
0.034679711
0.035352684
0.035913304
0.036370122
0.036734641
0.037019031
0.037234906
0.037392821
0.03750237
0.037573439
0.037607804
0.037613451
0.037595872
0.037559027
0.037506432
0.037441082
0.037365497
0.037281799
0.037191778
0.037096963
0.036998639
0.036897871
0.036795539
0.03669239
0.036589039
0.036485995
0.036383668
0.036282383
0.036182392
0.036083877
0.035986957
0.035891691
0.035798085
0.035706106
0.035615693
0.035526754
0.024529326
0.024792882
0.02519916
0.025774173
0.026488346
0.027321893
0.028254065
0.029258235
0.030305507
0.031366145
0.032410499
0.033409285
0.034333151
0.035153623
0.035845338
0.036411333
0.036863766
0.037217294
0.037486495
0.03768468
0.037823539
0.037914767
0.037966045
0.037981072
0.037968079
0.037932653
0.037878758
0.037809912
0.037729118
0.037638891
0.037541333
0.037438199
0.037330988
0.037220955
0.037109124
0.036996341
0.036883317
0.036770632
0.036658763
0.03654809
0.036438912
0.036331455
0.036225878
0.036122277
0.036020687
0.035921084
0.035823413
0.035727594
0.03563352
0.024539886
0.024827789
0.025267287
0.025868645
0.026611331
0.027478762
0.028446664
0.029486973
0.030570277
0.031666663
0.032746188
0.033779073
0.034735628
0.035586693
0.036303149
0.036877469
0.037327206
0.037670869
0.037925794
0.03810715
0.038227871
0.03830196
0.038333698
0.038330524
0.038299957
0.03824752
0.038177437
0.038093202
0.037997805
0.037893748
0.037783114
0.037667627
0.037548751
0.037427707
0.037305485
0.037182896
0.037060615
0.036939187
0.036819058
0.036700579
0.036584025
0.036469596
0.036357429
0.036247601
0.036140124
0.036034937
0.035931966
0.035831114
0.035732259
0.024549889
0.024860618
0.025324968
0.025947412
0.026719315
0.0276195
0.028620837
0.029694338
0.030810498
0.031939453
0.033051102
0.034115292
0.035101949
0.03598139
0.036724293
0.037310098
0.037759065
0.038094217
0.03833601
0.038501613
0.038605478
0.038663223
0.038676443
0.038656127
0.038608979
0.038540545
0.038455211
0.038356499
0.038247378
0.03813034
0.038007441