/*--------------------------------*- C++ -*----------------------------------*\
| =========                 |                                                 |
| \\      /  F ield         | OpenFOAM: The Open Source CFD Toolbox           |
|  \\    /   O peration     | Version:  2312                                  |
|   \\  /    A nd           | Website:  www.openfoam.com                      |
|    \\/     M anipulation  |                                                 |
\*---------------------------------------------------------------------------*/
FoamFile
{
    version     2.0;
    format      ascii;
    arch        "LSB;label=32;scalar=64";
    class       volScalarField;
    location    "0.03";
    object      O2;
}
// * * * * * * * * * * * * * * * * * * * * * * * * * * * * * * * * * * * * * //

dimensions      [0 0 0 0 0 0 0];

internalField   nonuniform List<scalar> 
3221
(
0.22988541
0.22964918
0.22941317
0.22918331
0.22896429
0.22875914
0.22856931
0.22839514
0.22823672
0.22809548
0.22797919
0.22792552
0.22812156
0.22830368
0.2284673
0.22861025
0.22871463
0.22875005
0.22872998
0.22867786
0.22860981
0.22853426
0.22845486
0.22837308
0.22828952
0.22820441
0.22811786
0.22802995
0.22794076
0.22785037
0.22775884
0.22766628
0.22757279
0.22747846
0.22738343
0.22728781
0.22719175
0.22709539
0.2269989
0.22690243
0.22680616
0.22671028
0.22661498
0.22652046
0.22642692
0.22633459
0.22624367
0.2261544
0.22606701
0.22598171
0.22589876
0.22581853
0.22987042
0.22960218
0.22933114
0.22906238
0.22879987
0.22854612
0.22830217
0.22806795
0.22784293
0.2276268
0.22742069
0.22722974
0.22706771
0.22693005
0.22681034
0.22669797
0.22657343
0.2264146
0.22622016
0.22599962
0.22576245
0.22551474
0.22525971
0.22499884
0.22473281
0.22446194
0.22418645
0.22390651
0.2236223
0.22333405
0.22304199
0.22274638
0.22244752
0.22214575
0.22184142
0.22153494
0.22122672
0.22091722
0.22060694
0.22029638
0.21998608
0.21967663
0.21936863
0.21906268
0.21875944
0.21845958
0.21816377
0.21787273
0.21758717
0.21730782
0.21703544
0.21677079
0.22984518
0.22952313
0.22919358
0.22886034
0.22852641
0.22819361
0.22786257
0.22753298
0.22720399
0.22687464
0.22654424
0.22621273
0.22588094
0.22554906
0.22521602
0.22487845
0.22452994
0.22416355
0.22377783
0.22337531
0.22295927
0.22253216
0.22209549
0.22165007
0.22119635
0.22073464
0.2202652
0.21978831
0.21930429
0.21881348
0.2183163
0.21781319
0.21730466
0.21679127
0.21627362
0.21575236
0.2152282
0.2147019
0.21417424
0.21364607
0.21311828
0.2125918
0.21206759
0.21154665
0.21103003
0.21051879
0.21001403
0.20951687
0.20902846
0.20854998
0.2080826
0.20762743
0.22981491
0.22942836
0.22902905
0.22861962
0.22820214
0.22777786
0.22734717
0.22690972
0.22646476
0.22601136
0.22554865
0.22507593
0.22459274
0.22409868
0.2235932
0.2230753
0.22254343
0.22199608
0.22143299
0.22085494
0.22026304
0.21965821
0.21904112
0.21841225
0.21777198
0.21712065
0.21645864
0.21578635
0.21510427
0.21441291
0.21371286
0.21300477
0.21228938
0.21156745
0.21083983
0.21010743
0.20937122
0.20863221
0.2078915
0.20715022
0.20640955
0.20567073
0.20493504
0.20420382
0.20347841
0.20276024
0.20205073
0.20135136
0.20066361
0.199989
0.19932906
0.19868514
0.22978344
0.22932987
0.22885838
0.22837072
0.22786824
0.22735177
0.22682153
0.22627731
0.22571855
0.22514463
0.2245549
0.22394884
0.22332609
0.22268637
0.2220295
0.22135532
0.22066363
0.21995435
0.21922772
0.21848419
0.21772433
0.21694868
0.2161577
0.21535186
0.2145316
0.21369741
0.21284983
0.21198944
0.2111169
0.21023294
0.20933834
0.20843399
0.20752081
0.20659982
0.20567209
0.20473877
0.20380107
0.20286025
0.20191764
0.20097464
0.20003266
0.19909322
0.19815783
0.19722809
0.19630561
0.19539206
0.19448913
0.19359854
0.19272206
0.19186145
0.19101845
0.19019459
0.22975297
0.2292345
0.22869333
0.22813057
0.22754708
0.22694337
0.22631959
0.22567559
0.22501105
0.22432558
0.22361882
0.22289051
0.2221405
0.22136876
0.22057536
0.21976046
0.21892431
0.21806722
0.21718961
0.21629197
0.21537484
0.21443876
0.21348429
0.21251204
0.21152262
0.2105167
0.20949503
0.2084584
0.20740769
0.20634385
0.20526789
0.20418089
0.20308403
0.20197853
0.20086568
0.19974685
0.19862346
0.19749699
0.19636896
0.19524098
0.19411467
0.1929917
0.19187382
0.19076278
0.18966039
0.18856849
0.18748896
0.1864237
0.18537463
0.18434368
0.18333275
0.18234342
0.22972444
0.22914515
0.22853882
0.22790612
0.22724758
0.22656349
0.22585392
0.22511879
0.22435789
0.22357104
0.22275806
0.22191888
0.22105354
0.22016218
0.21924505
0.2183025
0.21733495
0.21634291
0.21532695
0.21428769
0.21322581
0.212142
0.21103701
0.20991164
0.20876673
0.2076032
0.206422
0.20522418
0.20401085
0.20278316
0.20154238
0.20028981
0.19902683
0.19775488
0.19647544
0.19519008
0.1939004
0.19260804
0.19131469
0.1900221
0.18873203
0.1874463
0.18616676
0.18489528
0.18363379
0.18238423
0.18114859
0.17992888
0.17872712
0.17754532
0.17638547
0.17524911
0.22969801
0.22906233
0.22839564
0.22769834
0.22697075
0.22621302
0.22542516
0.2246071
0.22375873
0.22287996
0.22197077
0.22103121
0.22006146
0.2190618
0.21803259
0.21697433
0.21588761
0.21477307
0.21363146
0.21246358
0.21127028
0.21005248
0.20881116
0.20754734
0.20626212
0.20495665
0.20363215
0.2022899
0.20093125
0.19955761
0.19817044
0.19677127
0.19536167
0.19394328
0.19251775
0.1910868
0.18965218
0.18821565
0.18677902
0.18534412
0.18391281
0.18248696
0.18106849
0.17965932
0.17826143
0.17687681
0.17550747
0.17415549
0.17282292
0.17151186
0.1702243
0.16896169
0.2296734
0.2289852
0.22826232
0.22750503
0.2267135
0.22588781
0.22502794
0.22413383
0.22320544
0.22224275
0.22124585
0.2202149
0.21915018
0.21805209
0.21692112
0.21575792
0.2145632
0.21333781
0.21208265
0.21079874
0.20948714
0.20814901
0.20678557
0.20539809
0.20398794
0.20255651
0.20110529
0.1996358
0.19814961
0.19664838
0.19513378
0.19360752
0.19207137
0.1905271
0.18897653
0.18742148
0.18586378
0.1843053
0.18274789
0.18119343
0.1796438
0.17810089
0.17656661
0.17504289
0.17353167
0.17203494
0.17055469
0.169093
0.16765196
0.16623373
0.16484048
0.16347368
0.22965015
0.22891229
0.22813634
0.22732248
0.22647082
0.22558141
0.22465423
0.22368926
0.22268653
0.22164609
0.22056813
0.21945291
0.21830084
0.21711243
0.21588833
0.21462931
0.21333628
0.21201026
0.21065237
0.20926383
0.20784596
0.20640015
0.20492788
0.20343069
0.2019102
0.20036807
0.19880603
0.19722584
0.19562931
0.1940183
0.19239466
0.19076029
0.18911709
0.18746695
0.18581178
0.18415349
0.18249395
0.18083505
0.17917867
0.17752665
0.17588087
0.17424316
0.17261539
0.17099942
0.16939712
0.16781039
0.16624118
0.16469147
0.16316334
0.16165905
0.1601814
0.15873478
0.22962773
0.22884193
0.2280148
0.22714647
0.22623704
0.22528659
0.22429515
0.22326275
0.22218949
0.22107555
0.21992121
0.21872687
0.21749307
0.21622047
0.21490988
0.21356225
0.21217871
0.21076047
0.20930887
0.2078254
0.20631162
0.20476918
0.20319983
0.20160538
0.19998771
0.19834872
0.1966904
0.19501472
0.19332372
0.19161941
0.18990383
0.18817899
0.18644689
0.18470952
0.18296882
0.18122671
0.1794851
0.17774583
0.17601073
0.17428161
0.17256024
0.17084839
0.1691478
0.16746022
0.16578741
0.16413114
0.16249321
0.16087545
0.1592797
0.15770766
0.15616008
0.15467555
0.22960559
0.22877245
0.2278948
0.22697279
0.22600657
0.22499625
0.22394196
0.22284384
0.22170208
0.22051701
0.21928905
0.21801876
0.21670685
0.21535416
0.21396171
0.21253068
0.2110624
0.20955835
0.20802013
0.20644948
0.20484824
0.20321836
0.20156184
0.19988077
0.19817728
0.19645353
0.19471172
0.19295406
0.19118272
0.18939989
0.1876077
0.18580827
0.18400366
0.18219586
0.18038684
0.17857848
0.17677262
0.17497105
0.17317551
0.17138767
0.16960921
0.16784173
0.16608685
0.16434617
0.16262127
0.16091376
0.15922527
0.1575575
0.1559123
0.15429222
0.15270291
0.15117862
0.22958324
0.22870229
0.22777365
0.22679754
0.22577418
0.22470379
0.22358659
0.22242287
0.221213
0.21995745
0.21865684
0.21731194
0.21592365
0.21449308
0.21302147
0.21151029
0.20996112
0.20837573
0.20675603
0.20510405
0.20342193
0.2017119
0.19997626
0.19821738
0.19643762
0.1946394
0.19282512
0.19099713
0.18915779
0.18730936
0.18545406
0.18359404
0.18173136
0.179868
0.17800585
0.17614673
0.17429237
0.17244443
0.1706045
0.16877413
0.16695479
0.16514794
0.163355
0.16157738
0.15981647
0.15807368
0.15635041
0.15464806
0.15296767
0.15130856
0.14971609
0.14815128
0.22956025
0.22863007
0.22764897
0.22661724
0.22553523
0.22440328
0.22322179
0.22199122
0.22071213
0.21938522
0.21801135
0.21659153
0.21512694
0.21361897
0.2120692
0.21047938
0.20885144
0.20718746
0.2054897
0.20376052
0.20200238
0.20021783
0.19840948
0.19657993
0.19473183
0.19286778
0.19099036
0.18910208
0.18720536
0.18530255
0.18339588
0.18148748
0.17957935
0.1776734
0.1757714
0.17387503
0.17198588
0.17010541
0.16823505
0.16637614
0.16452995
0.16269773
0.1608807
0.15908004
0.15729693
0.15553259
0.15378832
0.15206574
0.1503669
0.14869287
0.14709183
0.14548751
0.22953622
0.22855458
0.22751864
0.22642881
0.2252856
0.22408952
0.22284118
0.22154125
0.22019056
0.21879007
0.21734093
0.21584447
0.21430221
0.21271591
0.21108749
0.20941909
0.20771302
0.20597176
0.20419794
0.20239429
0.20056363
0.19870883
0.19683279
0.1949384
0.19302852
0.19110595
0.18917339
0.18723344
0.18528859
0.18334116
0.18139337
0.17944725
0.1775047
0.17556747
0.17363719
0.17171533
0.16980327
0.16790227
0.16601351
0.16413811
0.1622771
0.16043151
0.15860229
0.15679042
0.15499683
0.15322252
0.15146867
0.14973727
0.14803245
0.14636006
0.1447499
0.14312045
0.22951084
0.22847476
0.2273808
0.22622955
0.22502166
0.22375791
0.22243912
0.22106625
0.21964044
0.21816298
0.21663538
0.21505936
0.21343686
0.21177006
0.21006132
0.20831322
0.20652854
0.20471018
0.20286121
0.20098477
0.19908405
0.19716227
0.19522261
0.19326823
0.19130217
0.18932738
0.18734666
0.18536265
0.18337781
0.18139442
0.17941457
0.17744017
0.17547293
0.17351441
0.171566
0.16962894
0.16770434
0.16579322
0.16389648
0.16201497
0.16014948
0.15830076
0.15646951
0.15465646
0.15286231
0.15108782
0.14933389
0.14760226
0.14589874
0.14425898
0.14261685
0.14098402
0.22948381
0.22838966
0.22723382
0.22601702
0.22474018
0.22340431
0.22201055
0.22056021
0.21905477
0.21749594
0.21588567
0.21422616
0.21251984
0.2107694
0.20897772
0.20714792
0.20528327
0.20338721
0.20146327
0.19951501
0.19754604
0.1955599
0.19356008
0.19154993
0.18953269
0.18751138
0.18548884
0.18346768
0.18145027
0.17943877
0.17743509
0.17544092
0.17345776
0.17148688
0.16952939
0.16758625
0.16565827
0.16374616
0.16185054
0.15997196
0.15811091
0.15626786
0.15444326
0.15263757
0.15085124
0.14908476
0.14733821
0.1456092
0.14394812
0.14230409
0.14065176
0.1390257
0.22945485
0.22829845
0.22707618
0.22578902
0.22443817
0.22302494
0.22155085
0.2200176
0.21842713
0.21678164
0.21508363
0.21333584
0.21154131
0.20970332
0.20782539
0.20591123
0.20396472
0.20198984
0.19999065
0.19797119
0.19593544
0.19388728
0.19183047
0.18976855
0.18770484
0.18564241
0.18358404
0.18153226
0.17948927
0.17745702
0.17543717
0.17343115
0.17144012
0.16946504
0.16750671
0.16556572
0.16364257
0.16173762
0.15985117
0.15798344
0.15613465
0.15430494
0.15249448
0.15070344
0.14893211
0.14718127
0.14545276
0.14374877
0.14211027
0.14045666
0.13881714
0.13720269
0.22942373
0.2282003
0.22690646
0.22554345
0.2241128
0.22261621
0.22105563
0.21943323
0.21775152
0.21601329
0.21422167
0.2123801
0.21049231
0.20856229
0.20659429
0.20459271
0.20256211
0.20050709
0.19843224
0.19634209
0.19424101
0.19213319
0.1900226
0.18791291
0.18580746
0.18370928
0.18162103
0.17954503
0.17748327
0.17543738
0.17340871
0.17139832
0.16940703
0.1674354
0.16548384
0.16355259
0.16164174
0.15975132
0.15788127
0.1560315
0.15420187
0.15239226
0.15060248
0.14883233
0.1470816
0.14535065
0.14364421
0.1419972
0.14035106
0.13870704
0.13708515
0.13548297
0.22939021
0.22809444
0.22672327
0.22527826
0.22376131
0.2221746
0.22052058
0.21880202
0.21702209
0.21518431
0.21329255
0.21135108
0.20936445
0.20733751
0.20527531
0.20318308
0.20106609
0.1989296
0.19677879
0.19461865
0.19245392
0.19028907
0.18812819
0.18597499
0.18383278
0.18170443
0.17959238
0.17749867
0.17542493
0.17337245
0.17134215
0.16933469
0.16735042
0.16538951
0.16345192
0.16153748
0.15964588
0.15777676
0.1559297
0.15410428
0.15230005
0.15051658
0.1487534
0.14700988
0.14528473
0.14357394
0.14192845
0.14029905
0.13865681
0.13703696
0.13544018
0.13386831
0.22935405
0.22798009
0.22652522
0.22499138
0.22338092
0.22169656
0.21994138
0.21811889
0.21623303
0.21428818
0.21228915
0.21024114
0.20814971
0.20602068
0.20386004
0.20167391
0.19946835
0.19724933
0.19502259
0.19279358
0.19056735
0.18834856
0.18614136
0.1839494
0.18177582
0.17962323
0.17749376
0.17538904
0.17331029
0.17125831
0.16923356
0.16723619
0.16526609
0.16332291
0.16140617
0.15951524
0.15764939
0.15580786
0.15398987
0.15219464
0.15042144
0.14866958
0.14693844
0.1452275
0.14353657
0.14186688
0.14026012
0.13863508
0.1370224
0.13543076
0.13386126
0.13234552
0.22931502
0.22785647
0.22631089
0.22468067
0.22296872
0.22117841
0.21931358
0.2173786
0.21537836
0.21331829
0.21120428
0.2090427
0.20684023
0.20460382
0.20234054
0.20005745
0.19776149
0.19545932
0.19315723
0.19086107
0.18857614
0.18630717
0.18405826
0.18183288
0.17963387
0.17746347
0.17532334
0.17321464
0.17113805
0.16909381
0.16708183
0.16510171
0.16315278
0.16123419
0.15934494
0.15748392
0.15564997
0.15384192
0.15205861
0.15029893
0.14856185
0.14684644
0.1451519
0.14347767
0.14182353
0.14022305
0.13861855
0.1370199
0.13543974
0.13387918
0.13236959
0.13085888
0.22927286
0.22772272
0.22607876
0.22434388
0.22252166
0.22061627
0.21863247
0.21657565
0.21445187
0.21226779
0.21003063
0.20774809
0.2054282
0.20307916
0.20070924
0.19832653
0.19593884
0.19355354
0.19117742
0.18881663
0.1864766
0.18416201
0.18187677
0.17962402
0.17740614
0.17522489
0.17308134
0.17097604
0.16890904
0.16687995
0.16488806
0.16293234
0.16101153
0.15912423
0.1572689
0.15544393
0.15364773
0.1518787
0.1501353
0.14841609
0.14671975
0.14504511
0.14339117
0.1417572
0.14017535
0.13859318
0.13701226
0.1354491
0.13390367
0.13240659
0.13091015
0.12941903
0.22922731
0.22757795
0.2258272
0.22397858
0.22203647
0.220006
0.21789302
0.2157042
0.21344698
0.21112952
0.20876061
0.2063495
0.20390576
0.20143904
0.19895886
0.19647443
0.19399442
0.19152685
0.1890789
0.18665693
0.18426634
0.18191161
0.17959626
0.17732294
0.17509345
0.17290888
0.17076962
0.16867548
0.16662578
0.16461944
0.16265503
0.16073087
0.15884507
0.15699563
0.15518047
0.15339747
0.15164456
0.14991974
0.14822111
0.14654691
0.14489553
0.14326556
0.14165582
0.1400974
0.13854438
0.13698587
0.13544446
0.13391955
0.13244072
0.13096383
0.12948809
0.12802951
0.22917811
0.22742121
0.22555446
0.22358215
0.2215096
0.21934307
0.2170898
0.21475796
0.21235668
0.20989592
0.20738629
0.20483889
0.20226502
0.1996759
0.19708243
0.19449492
0.1919229
0.18937489
0.18685839
0.18437976
0.18194419
0.17955576
0.17721742
0.17493115
0.172698
0.17051824
0.16839143
0.16631657
0.16429215
0.1623163
0.16038685
0.1585014
0.15665743
0.15485229
0.15308334
0.15134795
0.14964361
0.14796789
0.14631853
0.14469348
0.1430909
0.14150915
0.13997813
0.1384584
0.13692813
0.13541366
0.13391443
0.1324591
0.13100608
0.12955197
0.12811248
0.12668812
0.22912493
0.22725145
0.22525865
0.22315172
0.22093715
0.21862258
0.2162169
0.21373015
0.21117347
0.20855895
0.2058994
0.20320799
0.20049797
0.19778229
0.19507325
0.19238227
0.18971959
0.18709416
0.18451356
0.18198396
0.17951012
0.17709546
0.17474218
0.17245139
0.1702232
0.16805694
0.1659512
0.16390406
0.1619131
0.15997562
0.15808863
0.15624902
0.15445357
0.15269901
0.15098211
0.14929974
0.14764892
0.14602683
0.14443089
0.14285877
0.14130846
0.13980861
0.13832494
0.13682813
0.13534597
0.13387768
0.132451
0.13102545
0.12959885
0.12818438
0.12678247
0.12539361
0.22906746
0.22706752
0.22493766
0.22268414
0.22031483
0.21783912
0.21526787
0.21261338
0.20988925
0.2071101
0.20429126
0.20144828
0.19859657
0.19575089
0.19292499
0.19013127
0.18738056
0.18468202
0.18204308
0.17946945
0.17696518
0.17453283
0.17217359
0.16988749
0.16767355
0.16552999
0.16345434
0.16144362
0.15949449
0.15760331
0.15576629
0.15397955
0.15223918
0.15054129
0.14888204
0.1472578
0.14566514
0.14410089
0.14256212
0.14104631
0.13958091
0.13813527
0.13667699
0.13523212
0.13379994
0.13240705
0.13101242
0.12961866
0.12823484
0.12686109
0.1254978
0.12414541
0.22900533
0.22686817
0.22458917
0.22217589
0.21963792
0.21698672
0.21423561
0.21139963
0.20849532
0.20554029
0.20255277
0.19955102
0.19655275
0.19357461
0.19063171
0.18773731
0.18490261
0.18213671
0.17944659
0.17683717
0.17431153
0.17187107
0.16951575
0.16724431
0.16505451
0.16294332
0.16090709
0.15894174
0.15704289
0.15520597
0.15342633
0.15169935
0.15002046
0.14838511
0.14678883
0.14522752
0.14369736
0.14219478
0.14071649
0.13928843
0.13788079
0.13646715
0.13506426
0.13367299
0.13231882
0.13095891
0.12960283
0.12825484
0.12691471
0.12558251
0.12425857
0.12294333
0.22893817
0.22665201
0.22421061
0.22162309
0.21890113
0.21605877
0.21311232
0.21008016
0.2069823
0.20383989
0.20067447
0.19750728
0.19435848
0.1912466
0.18818797
0.18519648
0.18228341
0.17945746
0.17672477
0.17408916
0.17155239
0.16911444
0.16677377
0.16452766
0.16237243
0.16030366
0.15831645
0.15640554
0.15456546
0.15279069
0.15107571
0.14941518
0.14780392
0.14623678
0.14470847
0.14321457
0.14175086
0.14031345
0.138926
0.13755625
0.13618706
0.13483727
0.13348974
0.13217884
0.13085784
0.12954385
0.12823647
0.12693505
0.12563928
0.12434918
0.12306507
0.12178741
0.22886553
0.22641749
0.22379909
0.22102138
0.21809859
0.21504794
0.21188941
0.20864538
0.20534007
0.20199867
0.19864649
0.19530799
0.19200585
0.18876038
0.18558891
0.18250563
0.17952154
0.17664447
0.17387934
0.17122849
0.16869202
0.16626818
0.16395372
0.16174424
0.15963445
0.15761848
0.15569006
0.15384271
0.15206986
0.15036499
0.14872171
0.14713402
0.14559627
0.14410286
0.14264711
0.14122472
0.13983107
0.13848844
0.13715896
0.13583632
0.1345275
0.13325292
0.13197951
0.13070297
0.12943502
0.12817268
0.12691472
0.1256604
0.12440939
0.12316169
0.12191765
0.12067775
0.22878695
0.22616289
0.22335139
0.22036585
0.2172237
0.21394605
0.21055736
0.20708488
0.20355773
0.20000582
0.19645863
0.192944
0.18948715
0.18610993
0.18283035
0.17966249
0.17661653
0.173699
0.17091312
0.16825933
0.16573573
0.16333855
0.16106257
0.15890155
0.15684847
0.15489588
0.1530361
0.1512614
0.14956412
0.14793672
0.14637186
0.14486298
0.1434042
0.1419902
0.14061086
0.13926372
0.13796844
0.13668516
0.13541241
0.13415602
0.13293377
0.13170975
0.13048739
0.12926989
0.12805694
0.12684697
0.12563887
0.12443194
0.12322584
0.12202062
0.12081665
0.11961446
0.2287019
0.22588626
0.22286385
0.21965101
0.21626906
0.21274396
0.20910565
0.20538722
0.20162357
0.19784994
0.19410035
0.19040617
0.18679496
0.18328979
0.1799089
0.1766657
0.17356899
0.17062341
0.16783002
0.16518692
0.16268985
0.16033272
0.15810817
0.15600788
0.15402303
0.15214452
0.15036322
0.14867012
0.14705655
0.14551396
0.14403382
0.14260914
0.14123394
0.13990628
0.13860549
0.13736119
0.13612415
0.13491297
0.13370652
0.13254158
0.1313673
0.13020274
0.12904165
0.12788289
0.12672549
0.12556824
0.12441016
0.12325062
0.12208935
0.12092643
0.11976231
0.11859758
0.22860978
0.2255854
0.22233236
0.21887058
0.21522629
0.21143142
0.20752262
0.20353994
0.199525
0.19551904
0.1915609
0.18768543
0.18392225
0.18029518
0.17682206
0.17351495
0.17038061
0.16742122
0.16463511
0.16201762
0.15956174
0.15725885
0.15509917
0.15307225
0.1511673
0.14937357
0.14768046
0.14607766
0.14455567
0.14310506
0.1417154
0.14037961
0.13909011
0.13786068
0.13665805
0.13547764
0.13431381
0.13319109
0.13206282
0.13095161
0.12984563
0.12874431
0.12764443
0.12654423
0.12544241
0.12433784
0.12322963
0.12211723
0.12100045
0.11987945
0.11875476
0.11762705
0.22850995
0.22525784
0.22175219
0.21801742
0.21408589
0.2099969
0.20579529
0.20152939
0.19724855
0.19300057
0.18882932
0.1847729
0.18086253
0.17712211
0.17356831
0.17021105
0.16705431
0.16409714
0.16133463
0.15875887
0.1563598
0.15412596
0.15204506
0.15010434
0.14829099
0.14659263
0.14499719
0.14349293
0.14207001
0.14071867
0.13942445
0.13818231
0.137006
0.13585331
0.13472667
0.13364172
0.13256868
0.13150599
0.1304542
0.12941202
0.12837356
0.12733626
0.12629759
0.12525569
0.12420916
0.12315691
0.12209814
0.1210324
0.11995955
0.11887986
0.11779397
0.11670267
0.22840166
0.22490073
0.22111793
0.21708336
0.21283702
0.20842739
0.20390924
0.19934066
0.19477976
0.19028142
0.1858945
0.18165997
0.17760993
0.17376751
0.17014724
0.16675601
0.16359424
0.16065716
0.15793603
0.15541927
0.15309341
0.15094399
0.14895604
0.14711446
0.14540427
0.14381162
0.14232312
0.14092488
0.13960777
0.13836405
0.13716835
0.13604497
0.13495126
0.13388164
0.13286348
0.13185042
0.13085592
0.12987226
0.12889616
0.12792471
0.12695374
0.12598051
0.12500277
0.12401868
0.12302688
0.12202634
0.12101634
0.11999652
0.11896685
0.11792767
0.11687977
0.1158241
0.22828406
0.22451078
0.22042333
0.21605894
0.21146727
0.20670817
0.20184839
0.19695744
0.19210321
0.18734797
0.18274534
0.17833844
0.17415936
0.17022932
0.16655965
0.16315319
0.16000594
0.15710859
0.15444803
0.15200855
0.14977299
0.14772368
0.14584302
0.1441135
0.14251768
0.14104069
0.13966831
0.13838234
0.13717598
0.13605222
0.13497273
0.13393094
0.13294818
0.13197551
0.13103533
0.13011028
0.12919792
0.12829319
0.12739247
0.1264921
0.12558835
0.12467875
0.12376134
0.12283432
0.12189643
0.12094674
0.11998463
0.11900981
0.11802235
0.1170227
0.11601184
0.11499087
0.2281562
0.22408419
0.2196611
0.21493321
0.20996235
0.20482249
0.19959478
0.1943619
0.18920242
0.18418611
0.17937073
0.17480065
0.17050663
0.16650668
0.16280769
0.15940739
0.15629639
0.15346016
0.15088065
0.14853765
0.14640993
0.14447661
0.14271751
0.14111295
0.13964202
0.13828988
0.13704366
0.13587414
0.13480606
0.13377625
0.13281625
0.13188394
0.13098853
0.13011586
0.1292652
0.1284274
0.12759766
0.12677157
0.12594595
0.12511645
0.12427919
0.12343233
0.12257439
0.12170344
0.12081841
0.11991848
0.11900316
0.11807225
0.11712591
0.11616461
0.1151897
0.11420238
0.22801696
0.22361652
0.21882269
0.21369332
0.20830572
0.20275125
0.1971283
0.19153451
0.18605983
0.18078124
0.17575978
0.17103961
0.16664862
0.16260009
0.15889508
0.155525
0.15247417
0.14972207
0.14724526
0.14501866
0.14301661
0.14121503
0.1395915
0.13812493
0.13678822
0.13556847
0.13446177
0.13342463
0.13247174
0.13156623
0.13070727
0.12988408
0.1290896
0.12831516
0.12755603
0.12680537
0.12605798
0.12530972
0.12455886
0.12379971
0.12302767
0.12224225
0.12144273
0.12062654
0.11979311
0.11894168
0.11807189
0.11718365
0.1162772
0.22786508
0.22310252
0.21789795
0.21232419
0.20647811
0.2004726
0.19442639
0.18845385
0.18265669
0.17711839
0.17190182
0.16704914
0.16258347
0.15851162
0.15482726
0.15151424
0.14854957
0.14590611
0.14355462
0.14146495
0.13960637
0.13795184
0.13647708
0.1351626
0.13396734
0.13290887
0.13192097
0.1310307
0.13018988
0.12940206
0.12866071
0.12794733
0.12725509
0.12657837
0.12591115
0.12524725
0.12458142
0.12390927
0.12323305
0.12254372
0.1218348
0.121109
0.12036694
0.11960386
0.11882056
0.11801619
0.11719052
0.11634361
0.11547584
0.22769905
0.22253593
0.21687481
0.21080787
0.20445696
0.19796139
0.19146365
0.1850964
0.17897299
0.17318217
0.16778661
0.16282415
0.15831091
0.15424522
0.15061171
0.1473853
0.14453477
0.14202572
0.13982286
0.13789111
0.13619343
0.1347005
0.13338571
0.13224101
0.13120583
0.1302886
0.12944703
0.12868337
0.12797143
0.12730217
0.12668308
0.12607936
0.1254888
0.12490933
0.1243336
0.12375568
0.12317028
0.1225708
0.12197004
0.12135038
0.12070109
0.12003247
0.11934752
0.11863522
0.11790057
0.11714165
0.11635858
0.1155515
0.11472093
0.22751712
0.22190924
0.21573867
0.20912293
0.2022157
0.19518855
0.18821134
0.18143618
0.17498736
0.16895688
0.1634045
0.15836089
0.15383256
0.14980707
0.14625821
0.14315065
0.14044398
0.138096
0.13606536
0.13431313
0.13279285
0.13147525
0.13035137
0.12936582
0.12849882
0.12771792
0.12703258
0.12640712
0.12582472
0.12528228
0.1247737
0.12427987
0.12379385
0.12331119
0.12282594
0.1223328
0.12182715
0.12130518
0.12076973
0.12021212
0.11962588
0.11901151
0.11838538
0.11771996
0.11703272
0.11631745
0.11557538
0.11480652
0.11401153
0.2273172
0.22121328
0.21447175
0.2072435
0.19972279
0.19212027
0.18463675
0.17744438
0.17067685
0.16442651
0.15874669
0.15365742
0.14915245
0.14520605
0.14177925
0.13882524
0.13629357
0.1341338
0.13229848
0.13074853
0.12942018
0.12830814
0.12736812
0.12654324
0.12584942
0.12522761
0.12468708
0.12420145
0.12375427
0.12333744
0.12294281
0.12255755
0.12217394
0.1217866
0.12139021
0.12098008
0.12055219
0.12010358
0.1196337
0.11913761
0.11861131
0.11805496
0.11747358
0.11685402
0.11621662
0.11554278
0.11484008
0.11410771
0.11334659
0.22709679
0.2204368
0.21305217
0.20513811
0.19694054
0.18871695
0.18070234
0.17308875
0.16601671
0.1595749
0.15380573
0.14871422
0.14427767
0.14045422
0.13719038
0.13442671
0.13210217
0.13015772
0.12853884
0.12721703
0.12610867
0.12519108
0.12444004
0.12379749
0.12326828
0.12281348
0.1224236
0.12207952
0.12176621
0.12147376
0.12119342
0.12091521
0.12063178
0.12033766
0.12002794
0.11969853
0.11934593
0.11896756
0.11856187
0.11812568
0.11765642
0.11715381
0.11661926
0.11604789
0.11544418
0.11481444
0.11415176
0.11345406
0.11272499
0.22685286
0.21956571
0.21145265
0.20276808
0.19382353
0.18493173
0.17636455
0.16833286
0.16098017
0.15438605
0.14857612
0.14353505
0.13921913
0.13556752
0.13251058
0.1299756
0.12789071
0.12618841
0.12482856
0.12373285
0.1228506
0.12213929
0.12157994
0.12113054
0.12077507
0.1204861
0.12024878
0.12004655
0.11986565
0.1196958
0.11952844
0.11935519
0.11916937
0.11896586
0.11874014
0.11848874
0.11820865
0.11789761
0.11755394
0.11717546
0.11676044
0.11630846
0.11581989
0.11529295
0.11472964
0.11413019
0.11350366
0.11284443
0.11214548
0.22658171
0.21858222
0.20963877
0.20008545
0.19031647
0.18070854
0.17157304
0.16313697
0.15554055
0.14884657
0.14305652
0.13812829
0.13399253
0.13056627
0.12776252
0.12549535
0.12368224
0.12226923
0.12116298
0.12031068
0.11965548
0.11916644
0.11881097
0.11855522
0.11837722
0.11825357
0.11816871
0.11810732
0.11805677
0.11800708
0.11795032
0.11787929
0.11778803
0.11767214
0.11752731
0.11735091
0.11714028
0.11689359
0.11660934
0.11628602
0.11592247
0.11551836
0.11507383
0.11458843
0.1140634
0.1134997
0.11289899
0.11227057
0.11160672
0.22627877
0.21746339
0.20756651
0.19702998
0.1863512
0.17598139
0.16627261
0.15746132
0.14967487
0.14294923
0.13725262
0.13250922
0.12861952
0.12547583
0.12297272
0.12101215
0.11952384
0.11839717
0.11755783
0.11696085
0.1165512
0.11628981
0.11614311
0.11608184
0.11608232
0.11612254
0.11618872
0.11626597
0.11634297
0.11641022
0.11646088
0.11648877
0.11648852
0.11645693
0.11638949
0.11628479
0.11614037
0.11595491
0.11572721
0.11545628
0.11514141
0.11478246
0.11437965
0.11393315
0.1134441
0.11291386
0.11234417
0.11173712
0.11110143
0.22593826
0.21617913
0.20517873
0.19352501
0.18184515
0.17067589
0.16040564
0.15126891
0.14336696
0.13669582
0.13117982
0.12670208
0.12312901
0.12032681
0.11817144
0.11657819
0.11541421
0.11458453
0.11403764
0.11371126
0.1135528
0.1135225
0.11358614
0.11371914
0.11389663
0.11409925
0.11431323
0.11452585
0.11472684
0.11490707
0.11506128
0.11518428
0.11527147
0.11531982
0.11532616
0.1152898
0.11520811
0.11508062
0.11490644
0.11468499
0.11441596
0.11409946
0.11373588
0.11332576
0.11287031
0.11237126
0.11183048
0.11125
0.11063173
0.22555284
0.21468915
0.20239996
0.18947381
0.17670114
0.16471039
0.15391489
0.14452958
0.13661163
0.13010078
0.12486561
0.1207414
0.11755791
0.11515534
0.11341765
0.11219435
0.11136731
0.11086879
0.11062621
0.11057815
0.1106741
0.11087514
0.11114992
0.11147489
0.11182659
0.11218775
0.11254564
0.11288944
0.11321027
0.1134987
0.11375202
0.1139659
0.11413625
0.11426063
0.11433706
0.11436459
0.11434222
0.11426951
0.11414566
0.1139707
0.11374466
0.11346788
0.11314098
0.11276474
0.11234049
0.11187041
0.1113565
0.11080073
0.110205
0.22511288
0.21293816
0.19912996
0.18475596
0.17080648
0.15799837
0.14674845
0.13722579
0.12941998
0.12319487
0.11835169
0.11467275
0.11195098
0.11003099
0.10871444
0.1078798
0.10742794
0.10727318
0.10734266
0.10757515
0.10792942
0.10835895
0.1088415
0.10935531
0.10987691
0.11039164
0.11088842
0.11135833
0.11179447
0.11218543
0.11253298
0.1128332
0.11308216
0.11327829
0.11342058
0.11350849
0.11354147
0.11351972
0.11344331
0.11331181
0.11312586
0.11288609
0.11259332
0.11224852
0.11185303
0.11140979
0.11092079
0.11038792
0.10981306
0.2246054
0.21084844
0.19523537
0.17922291
0.16403351
0.15045384
0.138868
0.12936083
0.12182562
0.11602883
0.1116953
0.10855257
0.10639196
0.10495468
0.10409297
0.10368593
0.10362271
0.10381831
0.10420476
0.10471866
0.10532957
0.10598202
0.10666728
0.10736561
0.10805122
0.10871343
0.1093431
0.1099332
0.11048017
0.11096678
0.11140344
0.11178531
0.11210807
0.11237139
0.11257525
0.11271958
0.1128044
0.11282999
0.11279729
0.11270655
0.11255781
0.11235236
0.11209121
0.11177547
0.11140624
0.11098781
0.11052182
0.11001012
0.10945486
0.2240122
0.20830903
0.19053894
0.17269353
0.15624363
0.14200184
0.13026134
0.12096886
0.11389075
0.10867566
0.10496914
0.1024843
0.10088437
0.099975372
0.099607132
0.099643981
0.099973322
0.10052872
0.10122947
0.1020185
0.10287469
0.10375517
0.10463825
0.1055099
0.10635202
0.10715462
0.10791033
0.10861369
0.10926091
0.10984326
0.11036715
0.11082104
0.11121244
0.11153822
0.11179928
0.11199601
0.1121289
0.11219862
0.11220596
0.11215283
0.11203866
0.11186487
0.11163288
0.11134395
0.22330667
0.2051579
0.18480434
0.16495214
0.14729843
0.1325969
0.12095972
0.11212537
0.10571054
0.10123065
0.098304515
0.096479007
0.095492638
0.095153915
0.095293892
0.095780573
0.09650911
0.097420445
0.098418117
0.09949139
0.10058763
0.10168089
0.10275261
0.10379019
0.10478058
0.10571568
0.10658995
0.10739951
0.10814151
0.10881164
0.10941283
0.10994234
0.1103948
0.11077673
0.11109063
0.1113357
0.1115129
0.11162327
0.11166784
0.11164844
0.11156643
0.11142172
0.11121651
0.11095244
0.22244688
0.20115224
0.17771809
0.15575397
0.13708424
0.12225163
0.11105765
0.10295459
0.097413631
0.093864101
0.091726014
0.090614699
0.090291605
0.090533676
0.091188428
0.092130014
0.093245606
0.094495503
0.095807017