/*--------------------------------*- C++ -*----------------------------------*\
| =========                 |                                                 |
| \\      /  F ield         | OpenFOAM: The Open Source CFD Toolbox           |
|  \\    /   O peration     | Version:  2312                                  |
|   \\  /    A nd           | Website:  www.openfoam.com                      |
|    \\/     M anipulation  |                                                 |
\*---------------------------------------------------------------------------*/
FoamFile
{
    version     2.0;
    format      ascii;
    arch        "LSB;label=32;scalar=64";
    class       volScalarField;
    location    "0.03";
    object      omega;
}
// * * * * * * * * * * * * * * * * * * * * * * * * * * * * * * * * * * * * * //

dimensions      [0 0 -1 0 0 0 0];

internalField   nonuniform List<scalar> 
3221
(
448.19415
444.86782
441.75355
438.84054
436.05859
433.32515
430.58229
427.80632
425.00071
422.18935
419.42251
416.83155
414.88201
413.11937
411.20103
409.23251
407.36931
405.80992
404.44675
403.2336
402.21317
401.43134
400.90292
400.61847
400.55789
400.6988
401.01974
401.50088
402.12384
402.87138
403.72713
404.67542
405.70116
406.78984
407.92743
409.10043
410.29588
411.50138
412.70507
413.8957
415.06264
416.19589
417.28608
418.3245
419.30307
420.21439
421.05166
421.80871
422.47999
423.06053
423.54586
423.93178
447.94042
444.40267
441.20023
438.23425
435.41076
432.65001
429.90178
427.1475
424.39236
421.65389
418.95776
416.34448
413.88826
411.66247
409.68856
407.92314
406.32174
404.9006
403.67054
402.63076
401.79432
401.17636
400.78208
400.60549
400.63366
400.85056
401.23925
401.78276
402.46442
403.26802
404.17774
405.17823
406.25455
407.39223
408.57725
409.79611
411.03579
412.28385
413.52842
414.75824
415.96265
417.13168
418.25598
419.32688
420.33636
421.27708
422.14232
422.92601
423.62268
424.22747
424.73604
425.14421
447.69805
443.69077
440.09765
436.8158
433.74664
430.81022
427.95635
425.16354
422.43084
419.76996
417.19883
414.73877
412.41735
410.27226
408.33111
406.60354
405.0898
403.79337
402.71538
401.85017
401.19497
400.75008
400.51373
400.47951
400.63694
400.97285
401.47266
402.12105
402.90249
403.80141
404.8024
405.89029
407.05021
408.2677
409.5287
410.81963
412.12746
413.43969
414.74444
416.03048
417.28721
418.50474
419.67385
420.78603
421.83344
422.80895
423.70608
424.51901
425.24255
425.87211
426.40363
426.83317
447.51098
443.08384
439.08358
435.4328
432.0502
428.86778
425.8407
422.94688
420.18005
417.54317
415.0442
412.69417
410.50723
408.50073
406.69181
405.09448
403.71859
402.56975
401.64768
400.94703
400.46189
400.18676
400.11506
400.238
400.54451
401.02174
401.65565
402.43142
403.33386
404.34759
405.45727
406.6477
407.90397
409.2115
410.55614
411.92425
413.30273
414.67913
416.04161
417.37905
418.68104
419.93791
421.14073
422.2813
423.35217
424.3466
425.25854
426.08264
426.81417
427.44902
427.98363
428.41458
447.37305
442.62471
438.2884
434.30975
430.62753
427.19082
423.96569
420.93397
418.08819
415.42691
412.95201
410.66766
408.57996
406.69677
405.02669
403.57776
402.35623
401.3652
400.60361
400.06677
399.74801
399.63943
399.73176
400.01417
400.47434
401.09871
401.87278
402.78142
403.80916
404.94036
406.15939
407.4508
408.79943
410.1905
411.60973
413.04341
414.47847
415.90253
417.30395
418.67185
419.99615
421.26758
422.47765
423.61871
424.68387
425.66699
426.56269
427.36625
428.0736
428.68126
429.18636
429.58628
447.27653
442.30517
437.72607
433.4998
429.5807
425.93267
422.53294
419.36959
416.43722
413.73361
411.25811
409.01111
406.99398
405.20889
403.65843
402.34492
401.26951
400.43139
399.82711
399.45067
399.29397
399.34727
399.59933
400.03756
400.64817
401.41641
402.32683
403.36349
404.51019
405.75067
407.06877
408.44858
409.87458
411.33177
412.80573
414.28273
415.74979
417.19476
418.60635
419.97416
421.28866
422.54104
423.72348
424.829
425.85148
426.78557
427.62665
428.37081
429.01482
429.55613
429.99268
430.32291
447.21431
442.10286
437.36785
432.97863
428.9
425.10661
421.5846
418.32805
415.33475
412.60355
410.13334
407.92289
405.97096
404.27632
402.83749
401.6525
400.71831
400.03034
399.58213
399.36527
399.36951
399.58303
399.99258
400.58371
401.341
402.24825
403.28872
404.44535
405.70096
407.03842
408.44091
409.89196
411.37567
412.87684
414.38107
415.8748
417.34511
418.78018
420.16921
421.5024
422.77088
423.96696
425.08374
426.11519
427.05613
427.90215
428.64959
429.29549
429.8375
430.2739
430.60351
430.82588
447.18101
441.99754
437.18096
432.70586
428.54388
424.67687
421.09725
417.80373
414.79708
412.07766
409.64472
407.49642
405.63007
404.04224
402.72865
401.68411
400.90222
400.3751
400.09322
400.04539
400.21886
400.59942
401.17166
401.91912
402.82455
403.87012
405.03758
406.30857
407.66478
409.08816
410.56114
412.06689
413.58903
415.11201
416.62145
418.10401
419.54777
420.94173
422.27592
423.54147
424.73056
425.83637
426.85306
427.77566
428.60005
429.32289
429.94156
430.45407
430.85906
431.15568
431.34364
431.42365
447.17281
441.97442
437.13969
432.64659
428.47137
424.6006
421.03084
417.76404
414.80316
412.1498
409.8036
407.76235
406.02226
404.57816
403.42351
402.55042
401.94954
401.6099
401.51897
401.66268
402.02552
402.59077
403.34066
404.25659
405.31933
406.50923
407.80644
409.19118
410.64401
412.14606
413.67851
415.22381
416.76594
418.29011
419.78256
421.23072
422.6233
423.95021
425.20254
426.37252
427.45352
428.43992
429.32706
430.11119
430.78939
431.35946
431.81988
432.16974
432.40865
432.53671
432.55444
432.46365
447.18702
442.02337
437.22593
432.77509
428.65033
424.84135
421.34739
418.17247
415.32091
412.79502
410.59449
408.7165
407.15607
405.90626
404.95827
404.30154
403.92379
403.81096
403.94742
404.31603
404.89842
405.67514
406.62592
407.72984
408.96555
410.31146
411.74608
413.24829
414.79677
416.37139
417.95419
419.52817
421.07758
422.58804
424.04655
425.44152
426.76273
428.00131
429.14965
430.20134
431.1511
431.9947
432.72884
433.3511
433.85983
434.25407
434.53346
434.69818
434.74889
434.68661
434.51272
434.2298
447.22174
442.13751
437.42731
433.07332
429.05735
425.3712
422.01584
418.99645
416.31803
413.98302
411.99063
410.33706
409.01573
408.01758
407.33128
406.94333
406.83823
406.99861
407.40545
408.03837
408.87586
409.89558
411.07456
412.38939
413.81644
415.33217
416.9134
418.53627
420.17997
421.82505
423.45337
425.04823
426.59457
428.0789
429.48938
430.8157
432.04907
433.18211
434.20874
435.12414
435.92457
436.60732
437.17059
437.61338
437.93538
438.13692
438.21884
438.18243
438.02941
437.76175
437.38173
436.89222
447.27565
442.31225
437.73548
433.52886
429.67583
426.16964
423.01223
420.20939
417.76617
415.68454
413.96274
412.5954
411.57383
410.88638
410.51868
410.45381
410.67264
411.15407
411.8754
412.81264
413.94092
415.23476
416.66831
418.21554
419.85055
421.54781
423.28096
425.0278
426.76723
428.47977
430.14767
431.75509
433.28802
434.73435
436.08371
437.32745
438.45849
439.47119
440.36126
441.12562
441.76225
442.27007
442.64885
442.89908
443.02185
443.01878
442.89193
442.64371
442.27685
441.79431
441.19905
440.49441
447.3479
442.54468
438.14504
434.13344
430.49443
427.22213
424.31903
421.79094
419.64245
417.87452
416.48381
415.46277
414.80001
414.48065
414.48663
414.79706
415.38867
416.23617
417.31274
418.5905
420.04094
421.63526
423.34459
425.14031
426.99436
428.87769
430.76582
432.63587
434.46683
436.23975
437.93787
439.54664
441.05363
442.44844
443.72259
444.86938
445.8837
446.76192
447.5017
448.10184
448.56214
448.88325
449.06656
449.11406
449.02827
448.81208
448.46876
448.00178
447.41479
446.71166
445.89603
444.9719
447.43805
442.83319
438.65285
434.88206
431.50601
428.51925
425.92437
423.72678
421.93008
420.53364
419.53189
418.91443
418.66645
418.76911
419.19996
419.93351
420.94177
422.19474
423.66111
425.30881
427.1055
429.01895
431.01732
433.06966
435.14429
437.21331
439.25188
441.23723
443.14901
444.96944
446.68329
448.2778
449.74254
451.06926
452.25169
453.28535
454.16737
454.89627
455.47181
455.89478
456.16686
456.29045
456.26857
456.10471
455.80276
455.36692
454.80164
454.11143
453.30054
452.37264
451.33413
450.18877
447.54598
443.17729
439.25769
435.77247
432.70699
430.05588
427.82145
426.00825
424.61835
423.6489
423.09136
422.93174
423.15096
423.72537
424.62742
425.82633
427.28873
428.9795
430.86246
432.90114
435.05928
437.30128
439.59253
441.89933
444.18885
446.43401
448.61001
450.69489
452.66966
454.51832
456.22772
457.7874
459.18937
460.42787
461.49916
462.40122
463.13358
463.69707
464.0936
464.32601
464.39786
464.3133
464.07692
463.69368
463.16878
462.50765
461.7159
460.79923
459.76238
458.60644
457.34402
455.97724
447.67192
443.57741
439.95993
436.80467
434.0968
431.83068
430.00795
428.63182
427.70225
427.21341
427.15305
427.50263
428.23783
429.32937
430.74376
432.44415
434.39126
436.54438
438.86224
441.30389
443.82923
446.39954
448.97798
451.52734
454.01701
456.41988
458.71206
460.87319
462.88634
464.73793
466.41745
467.91721
469.23205
470.35904
471.29718
472.04711
472.61088
472.99167
473.19362
473.22156
473.08093
472.77753
472.3175
471.70713
470.95284
470.06112
469.03848
467.89142
466.62568
465.24505
463.75765
462.16891
447.81631
444.03476
440.76122
437.98055
435.67738
433.84544
432.48531
431.59834
431.18168
431.22575
431.71356
432.62095
433.91744
435.56712
437.52964
439.76135
442.21654
444.84856
447.61097
450.4584
453.34721
456.23597
459.08518
461.8577
464.52401
467.05809
469.43792
471.64551
473.66674
475.49104
477.11106
478.52233
479.72285
480.71276
481.49398
482.06993
482.44523
482.62542
482.61682
482.42623
482.06084
481.52808
480.83545
479.99052
479.0008
477.87376
476.61671
475.23695
473.74051
472.13307
470.42121
468.61153
447.97981
444.55114
441.6643
439.30354
437.45266
436.10446
435.25799
434.91216
435.06054
435.68877
436.77397
438.28533
440.18501
442.42937
444.97032
447.75673
450.73599
453.85538
457.06331
460.31033
463.54972
466.73829
469.83324
472.8009
475.61271
478.24475
480.67774
482.8969
484.8916
486.65486
488.18297
489.47501
490.5324
491.35853
491.95835
492.33808
492.5049
492.46668
492.23182
491.80899
491.20705
490.43486
489.50122
488.41483
487.18419
485.81762
484.32316
482.70848
480.98003
479.14456
477.20873
475.17916
448.16325
445.1288
442.67262
440.77814
439.42806
438.6139
438.33273
438.5803
439.34562
440.60838
442.33864
444.49759
447.03877
449.90971
453.05366
456.41143
459.9232
463.5302
467.17604
470.80768
474.3761
477.83582
481.14513
484.27283
487.19276
489.88412
492.33134
494.52361
496.45439
498.12083
499.52322
500.66444
501.54953
502.18519
502.57943
502.74124
502.68028
502.40665
501.93071
501.26287
500.41348
499.39273
498.21055
496.87662
495.40029
493.79065
492.05632
490.20491
488.2438
486.18028
484.0211
481.77296
448.36753
445.7703
443.79016
442.40959
441.60996
441.38116
441.71772
442.61139
444.04542
445.99232
448.41363
451.26104
454.47815
458.00251
461.7679
465.70658
469.75149
473.83806
477.90565
481.89848
485.76642
489.46116
492.94632
496.1931
499.17889
501.88709
504.30667
506.43149
508.25967
509.79286
511.03562
511.99482
512.67915
513.09865
513.26433
513.18783
512.8812
512.3566
511.62619
510.70195
509.59558
508.31842
506.88137
505.29493
503.56917
501.71387
499.7376
497.64861
495.45482
493.16398
490.78271
488.31761
448.59365
446.47832
445.02113
444.20347
444.00521
444.41425
445.42189
447.01477
449.1692
451.84892
455.00528
458.5789
462.50196
466.70097
471.09953
475.62115
480.1917
484.74141
489.20626
493.52876
497.65739
501.54606
505.16302
508.48342
511.4894
514.16953
516.5181
518.53425
520.22114
521.58523
522.63548
523.38282
523.83958
524.01904
523.93508
523.60187
523.03362
522.24439
521.24796
520.0577
518.68646
517.14658
515.44977
513.60721
511.6295
509.5267
507.30754
504.98098
502.55542
500.03848
497.43698
494.75717
448.84259
447.25558
446.36974
446.16537
446.6207
447.72121
449.45409
451.79976
454.72599
458.18594
462.11893
466.45271
471.10668
475.99527
481.03145
486.13003
491.21036
496.19838
501.02787
505.64141
509.98501
514.0208
517.72118
521.06662
524.0451
526.65123
528.88526
530.75205
532.26013
533.42087
534.24771
534.75555
534.96026
534.87821
534.52596
533.91999
533.07649
532.0112
530.73931
529.27537
527.63322
525.826
523.8661
521.7652
519.53428
517.18323
514.7216
512.1587
509.50293
506.76195
503.9424
501.05081
449.11531
448.10461
447.83992
448.30054
449.4629
451.30951
453.8226
456.97486
460.72367
465.00952
469.7576
474.88105
480.28501
485.87107
491.54142
497.20259
502.76833
508.16159
513.31547
518.17202
522.68167
526.8136
530.5461
533.86624
536.76885
539.2553
541.33229
543.01069
544.30454
545.23014
545.8053
546.0488
545.97982
545.6176
544.98117
544.08907
542.95923
541.60885
540.0543
538.31112
536.39396
534.31658
532.09185
529.73187
527.24744
524.64902
521.94661
519.14947
516.26599
513.30352
510.26905
507.16914
449.41269
449.02769
449.43514
450.61353
452.53736
455.18566
458.53449
462.54706
467.16813
472.32317
477.921
483.85824
490.0246
496.30828
502.60091
508.80163
514.81997
520.57755
526.00896
531.05449
535.6767
539.85084
543.56258
546.80669
549.58567
551.90818
553.78768
555.2412
556.28826
556.94999
557.24841
557.20591
556.84476
556.18681
555.25325
554.06444
552.6398
550.99775
549.15563
547.12976
544.93542
542.58678
540.09716
537.47841
534.74185
531.89828
528.95778
525.92945
522.82133
519.641
516.39549
513.09134
449.73547
450.02666
451.15815
453.10789
455.84845
459.35471
463.59508
468.52116
474.06252
480.12694
486.60446
493.37339
500.307
507.28003
514.17426
520.8828
527.31279
533.38668
539.03877
544.21822
548.89667
553.05765
556.69555
559.8138
562.42315
564.53988
566.18436
567.37975
568.15089
568.52355
568.52369
568.177
567.50855
566.54247
565.30184
563.80857
562.08329
560.1454
558.01303
555.70307
553.2312
550.612
547.85854
544.98304
541.99715
538.9118
535.73682
532.48093
529.15232
525.75858
522.30667
518.80288
450.08422
451.1028
453.01068
455.78585
459.39895
463.81983
469.00744
474.89921
481.40653
488.41654
495.79806
503.40944
511.10689
518.7521
526.21828
533.39442
540.18745
546.52259
552.3351
557.58966
562.2665
566.35889
569.87099
572.81559
575.21205
577.08443
578.45995
579.36772
579.83767
579.89988
579.5839
578.9184
577.93088
576.64747
575.09281
573.29006
571.26083
569.02528
566.60207
564.00853
561.26063
558.37276
555.35818
552.22942
548.9983
545.67541
542.2702
538.79147
535.24738
531.64539
527.99221
524.29396
450.45929
452.25661
454.99328
458.6481
463.18973
468.5819
474.77189
481.6799
489.19572
497.18268
505.4859
513.94246
522.39143
530.68246
538.68212
546.27774
553.37914
559.91089
565.82368
571.09319
575.71061
579.68028
583.01692
585.74313
587.88703
589.48041
590.55712
591.15192
591.29948
591.0338
590.38764
589.39227
588.07727
586.4704
584.59761
582.48299
580.1489
577.61596
574.9033
572.02852
569.00737
565.8543
562.58287
559.20572
555.73427
552.17875
548.54862
544.85264
541.09877
537.29419
533.44543
529.55841
450.8607
453.48772
457.1051
461.69342
467.21937
473.63912
480.88558
488.85805
497.42091
506.41028
515.64535
524.94106
534.11992
543.02127
551.50756
559.46719
566.81341
573.47773
579.42826
584.65254
589.15418
592.94952
596.06441
598.53139
600.38731
601.67141
602.42388
602.68469
602.49284
601.88579
600.89911
599.56628
597.91858
595.98508
593.79271
591.36627
588.72856
585.90057
582.90169
579.74929
576.45919
573.04599
569.5233
565.90337
562.19719
558.415
554.56617
550.65917
546.70169
542.7007
538.66251
534.59283
451.28817
454.79474
459.34363
464.91846
471.48387
478.98666
487.342
496.42405
506.06749
516.07786
526.24649
536.36601
546.24365
555.71101
564.62957
572.89265
580.41339
587.14598
593.07175
598.19215
602.52438
606.09742
608.94846
611.11993
612.65714
613.60642
614.01379
613.924
613.37985
612.42185
611.08791
609.41332
607.4307
605.17013
602.65919
599.92316
596.98514
593.86629
590.58566
587.16077
583.60762
579.94063
576.17302
572.31658
568.38231
564.38027
560.31949
556.20818
552.05378
547.86301
543.64194
539.39604
451.74096
456.17505
461.70443
468.31742
475.97634
484.61628
494.13057
504.3633
515.11484
526.1569
537.25162
548.1699
558.70599
568.68696
577.97722
586.47188
594.10126
600.83754
606.67769
611.6385
615.75159
619.05887
621.60883
623.45353
624.64629
625.24003
625.28609
624.83343
623.92816
622.61332
620.92876
618.91118
616.59421
614.00855
611.18228
608.14095
604.90778
601.50349
597.94715
594.25648
590.44732
586.53353
582.52801
578.44237
574.28743
570.07284
565.80736
561.49891
557.15467
552.78109
548.38399
543.9686
452.21789
457.62467
464.18102
471.88185
480.68674
490.51604
501.2362
512.65564
524.53566
536.61124
548.61479
560.29712
571.44262
581.87758
591.47183
600.12652
607.79789
614.47482
620.17154
624.92121
628.77026
631.77355
633.99057
635.48254
636.31025
636.53262
636.2057
635.38209
634.1107
632.43663
630.40123
628.04225
625.39394
622.48745
619.35111
616.01057
612.48859
608.80587
604.98143
601.03277
596.97517
592.82235
588.58687
584.28005
579.91227
575.49289
571.03036
566.53231
562.00563
557.4565
552.89047
548.31251
452.71723
459.13811
466.76457
475.60041
485.60163
496.66985
508.6387
521.27469
534.29525
547.39644
560.28148
572.68384
584.38221
595.20718
605.0286
613.77577
621.42419
627.98199
633.48192
637.9741
641.5198
644.18658
646.04443
647.16315
647.61035
647.45028
646.74308
645.54446
643.90554
641.87305
639.48945
636.7931
633.81876
630.59772
627.15834
623.52582
619.72298
615.77024
611.68625
607.48796
603.19043
598.80719
594.35026
589.83063
585.25827
580.64223
575.99062
571.31079
566.6093
561.89207
557.16437
552.43092
453.23663
460.7082
469.44381
479.45871
490.70389
503.05717
516.31228
530.18708
544.35072
558.45918
572.18832
585.25814
597.44645
608.58623
618.56536
627.33859
634.90256
641.28621
646.5416
650.73593
653.94513
656.2489
657.72715
658.45752
658.51374
657.96473
656.87412
655.30009
653.29555
650.90837
648.18167
645.15432
641.8613
638.33364
634.59946
630.68378
626.60927
622.39572
618.06134
613.6227
609.09453
604.48987
599.8204
595.09669
590.32835
585.52405
580.69158
575.83796
570.96946
566.09171
561.2097
556.32791
453.77313
462.32604
472.20489
483.43912
495.97248
509.65248
524.22475
539.35152
554.65008
569.73655
584.2628
597.94026
610.54995
621.92905
631.99846
640.73496
648.15815
654.31872
659.28831
663.15107
665.99706
667.91751
669.00147
669.33369
668.99329
668.05316
666.57979
664.63338
662.26809
659.53246
656.47012
653.12021
649.51728
645.6923
641.67315
637.48431
633.14793
628.68349
624.10872
619.43959
614.69039
609.87376
605.00097
600.08222
595.1267
590.14272
585.13774
580.11844
575.09081
570.06018
565.03129
560.00834
454.32303
463.98086
475.03124
487.52068
501.38214
516.42469
532.33656
548.71764
565.13107
581.1553
596.42319
610.64414
623.59645
635.14802
645.24439
653.88712
661.11989
667.0156
671.66538
675.16984
677.63257
679.15555
679.83616
679.76548
679.02733
677.69789
675.84595
673.53318
670.81459
667.73906
664.35059
660.68797
656.78548
652.67394
648.38048
643.92915
639.34161
634.63689
629.83209
624.94267
619.98242
614.96353
609.8969
604.7923
599.65855
594.50358
589.33451
584.15771
578.97885
573.80299
568.6346
563.47768
454.88192
465.65998
477.90362
491.67897
506.90304
523.3363
540.59953
558.22443
575.71985
592.63084
608.57757
623.26746
636.49369
648.15463
658.22112
666.72062
673.7214
679.31851
683.62218
686.74887
688.81493
689.93228
690.20586
689.73231
688.59943
686.88612
684.66291
681.99243
678.93026
675.52547
671.82182
667.85788
663.66752
659.28089
654.72464
650.02228
645.1948
640.26073
635.23663
630.13739
624.97626
619.76502
614.51414
609.233
603.93002
598.61279
593.28806
587.9619
582.63969
577.32618
572.02567
566.7419
455.44465
467.34883
480.80001
495.88598
512.50018
530.34223
548.95509
567.79831
586.32917
604.06627
620.62411
635.70766
649.14564
660.86044
670.84916
679.16535
685.90177
691.17522
695.11446
697.85115
699.51363
700.22297
700.09089
699.21887
697.69806
695.60958
693.02508
690.00787
686.61379
682.89194
678.88561
674.63284
670.16704
665.51769
660.71079
655.76925
650.7134
645.56125
640.32879
635.03034
629.67865
624.28502
618.85953
613.41116
607.94796
602.47714
597.00516
591.53774
586.07996
580.63628
575.21097
569.80738
456.00532
469.03097
483.69579
500.10994
518.13268
537.3882
557.3319
577.35048
596.85619
615.35129
632.44109
647.85748
661.45408
673.17818
683.0526
691.15638
697.60615
702.53997
706.10457
708.44614
709.70433
710.00869
709.47697
708.21482
706.31625
703.8641
700.93053
697.57959
693.86703
689.84163
685.54611
681.01792
676.28982
671.39061
666.34559
661.17705
655.90466
650.54585
645.11607
639.62909
634.09715
628.53111
622.94062
617.33428
611.71979
606.104
600.49305
594.89237
589.30673
456.5573
470.6882
486.56373
504.3151
523.75255
544.40829
565.64254
586.77347
607.17915
626.35264
643.90655
659.60393
673.31946
685.02275
694.76013
702.6347
708.78629
713.37379
716.56151
718.50969
719.36872
719.27604
718.3549
716.71449
714.45126
711.64906
708.38084
704.71089
700.69454
696.38013
691.80971
687.02006
682.04327
676.9074
671.63707
666.25387
660.77686
655.22288
649.60684
643.94199
638.24007
632.51149
626.76552
621.01037
615.25339
609.50112
603.75936
598.03329
592.32746
457.0933
472.30071
489.37419
508.46116
529.30292
551.32164
573.77899
595.93665
617.15595
636.92215
654.88507
670.82797
684.6416
696.31227
705.90591
713.54797
719.40101
723.64474
726.461
728.02391
728.49425
728.01692
726.72025
724.71644
722.10392
718.96747
715.38078
711.40769
707.10322
702.51505
697.68457
692.64784
687.43623
682.0771
676.59435
671.0089
665.3392
659.60149
653.81018
647.978
642.11624
636.23488
630.34278
624.44782
618.557
612.67655
606.812
600.96822
595.14956
457.60544
473.84732
492.09511
512.50243
534.7152
558.02737
581.60608
604.67923
626.60373
646.89375
665.22742
681.40446
695.32043
706.96907
716.43057
723.8512
729.41657
733.32799
735.78543
736.97701
737.07387
736.22821
734.57291
732.22307
729.27859
725.8256
721.93766
717.67824
713.10193
708.25576
703.1804
697.91117
692.47874
686.90978
681.22749
675.45214
669.60155
663.69144
657.7357
651.74658
645.73494
639.71034
633.68128
627.65532
621.63911
615.6386
609.65903
603.70504
597.78072
458.08532
475.30567
494.69197
516.38609
539.9047
564.39742
588.95219
612.79918
635.3186
656.07537
674.7679
691.20172
705.25684
716.92101
726.28228
733.50745
738.80704
742.40596
744.5237
745.36306
745.10577
743.91122
741.91689
739.24031
735.98292
732.23218
728.06107
723.53271
718.70126
713.6131
708.30819
702.82109
697.18181
691.41636
685.54728
679.5942
673.57436
667.50296
661.39342
655.25753
649.10573
642.94722
636.79015
630.64174
624.50837
618.39568
612.30866
606.25171
600.22871
458.5241
476.6524
497.12719
520.04915
544.76362
570.26564
595.59603
620.03906
643.04983
664.24164
683.32038
700.08107
714.35373
726.10299
735.41791
742.4885
747.55458
750.86831
752.6711
753.18167
752.59287
751.07157
748.75991
745.7773
742.22725
738.19819
733.76249
728.98293
723.91323
718.59916
713.07998
707.38953
701.55721
695.60841
689.56507
683.44619
677.26848
671.04666
664.79367
658.52091
652.23842
645.95506
639.67865
633.4161
627.17352
620.95629
614.76915
608.61628
602.50133
458.91246
477.86321
499.35889
523.41288
549.14961
575.41098
601.23852
626.07753
649.49443
671.12397
690.67251
707.89657
722.51775
734.45904
743.80448
750.7756
755.64963
758.71186
760.22895
760.43759
759.54265
757.71874
755.1127
751.84613
748.02403
743.73652
739.05507
734.04213
728.75101
723.22698
717.50862
711.62912
705.6173
699.49801
693.29262
687.01956
680.69506
674.33335
667.94697
661.54694
655.14293
648.74348
642.3561
635.98745
629.64336
623.32895
617.04876
610.80673
604.60635
459.24042
478.91244
501.33791
526.37265
552.86691
579.53261
605.74296
630.97348
654.79817
676.86148
696.86666
714.55403
729.66171
741.94527
751.42064
758.36001
763.09104
765.94025
767.20443
767.1406
765.96661
763.86542
760.98864
757.46133
753.3878
748.86165
743.95325
738.72461
733.2287
727.51035
721.60759
715.553
709.37487
703.09757
696.74198
690.326
683.86541
677.37401
670.86396
664.34592
657.82923
651.32214
644.83188
638.36485
631.92664
625.52216
619.15571
612.83104
606.55147
459.49656
479.77199
503.00198
528.77957
555.6331
582.66193
609.24018
634.85509
659.08729
681.5841
702.04264
720.19215
735.77261
748.53383
758.25828
765.24361
769.88585
772.5638
773.61014
773.3047
771.87974
769.52711
766.40363
762.63902
758.33475
753.58945
748.47256
743.04555
737.36107
731.46362
725.39081
719.17464
712.84297
706.41973
699.92537
693.37732
686.79096
680.17969
673.55531
666.92816
660.30729
653.70067
647.1153
640.55732
634.03209
627.54433
621.09813
614.69708
608.34432
459.6661
480.4086
504.2645
530.40672
557.55758
584.9154
611.84219
637.83262
662.47219
685.4055
706.31965
724.93218
740.97805
754.20095
764.32376
771.43894
776.04921
778.59896
779.46326
778.94765
777.30016
774.72197
771.37574
767.39492
762.88343
757.93711
752.62934
747.02073
741.16338
735.10154
728.87246
722.50775
716.03481
709.47725
702.85505
696.18537
689.48314
682.7614
676.03165
669.30392
662.58702
655.88865
649.21559
642.57376
635.96832
629.40378
622.88406
616.4126
609.99239
459.72611
480.7781
504.99296
531.32462
558.74147
586.39472
613.64683
640.00308
665.051
688.42659
709.80217
728.88078
745.3887
759.0653
769.64264
776.96929
781.60357
784.06743
784.78507
784.09047
782.24844
779.47026
775.92498
771.74914
767.05003
761.922
756.44051
750.66633
744.65117
738.43903
732.0669
725.56611
718.96362
712.28278
705.5433
698.76194
691.95329
685.13009
678.30352
671.48337
664.67819
657.89552
651.14187
644.42296
637.74379
631.10868
624.5214
617.98522
611.50304
459.63432
480.81339
505.11842
531.63594
559.28135
587.19044
614.74151
641.45384
666.91268
690.73863
712.58366
732.13281
749.10109
763.22292
774.23407
781.86694
786.57758
788.99552
789.60014
788.75672
786.74721
783.79334
780.07169
775.72149
770.85345
765.56186
759.92314
753.9987
747.84004
741.49105
734.98847
728.36345
721.64257
714.84898
708.0022
701.11868
694.21265
687.29656
680.38132
673.47649
666.59045
659.73054
652.90307
646.11356
639.36683
632.66706
626.01786
619.4224
612.88345
459.31012
480.37712
504.76339
531.44219
559.26748
587.38521
615.20636
642.26564
668.13966
692.42572
714.74925
734.77377
752.20104
766.75963
778.18315
786.1763
791.00509
793.413
793.9359
792.9715
790.82004
787.71381
783.83695
779.33204
774.31294
768.87464
763.09429
757.03409
750.74551
744.27243
737.65136
730.91333
724.08465
717.1883
710.24367
703.267
696.27221
689.2714
682.27522
675.29308
668.33322
661.4028
654.50794
647.65399
640.84559
634.08675
627.38101
620.73141
614.14064
458.81662
479.60813
504.04794
530.84432
558.78481
587.05614
615.11686
642.51507
668.81002
693.56672
716.37768
736.88162
754.76587
769.75284
781.57586
789.94521
794.92312
797.3518
797.82097
796.76118
794.49145
791.25475
787.24215
782.60086
777.44754
771.87822
765.97091
759.78854
753.38287
746.79773
740.06947
733.22903
726.30258
719.31293
712.2794
705.21809
698.14266
691.06492
683.99517
676.94269
669.91566
662.92112
655.96499
649.05244
458.20134
478.62528
503.09165
529.94059
557.91389
586.27681
614.54611
642.27661
668.99913
694.23672
717.54264
738.52811
756.86537
772.27113
784.48052
793.21902
798.36943
800.84458
801.28515
800.15301
797.78601
794.4387
790.30867
785.54787
780.27592
774.59019
768.56959
762.27779
755.76699
749.08102
742.25629
735.3235
728.30871
721.23468
714.1207
706.9828
699.83442
692.68707
685.55078
678.43458
671.34667
664.29406
657.28245
650.31685
457.50615
477.54658
502.01732
528.82559
556.73132
585.11893
613.56659
641.62404
668.78077
694.50806
718.31371
739.77936
758.5628
774.37643
786.95545
796.03642
801.38198
803.92518
804.35815
803.17346
800.72818
797.28806
793.05726
788.19242
782.81622
777.02758
770.90637
764.51705
757.91228
751.13601
744.22476
737.20914
730.11497
722.96496
715.77848
708.57159
701.35752
694.14748
686.95128
679.77767
672.63483
665.52986
658.46824
651.45483
456.77536
476.50331
500.94778
527.58784
555.3099
583.65352
612.25142
640.63138
668.22779
694.45074
718.75641
740.69627
759.91666
776.12437
789.0524
798.43912
804.00002
806.62672
807.06884
805.84875
803.34168
799.82453
795.50794
790.55313
785.08587
779.20674
772.99666
766.52088
759.83256
752.97585
745.9874
738.89782
731.73276
724.51477
717.26326
709.99452
702.7216
695.45542
688.20554
680.98048
673.78839
666.63643
659.52997
652.4737
456.0656
475.65444
500.00286
526.30615
553.71813
581.95158
610.67487
639.37317
667.41226
694.13208
718.93202
741.33609
760.9799
777.56429
790.82111
800.48708
806.2624
808.9816
809.44546
808.20393
805.64917
802.06883
797.6798
792.64777
787.10148
781.14328
774.85516
768.30318
761.54103
754.6131
747.55618
740.40092
733.17297
725.89454
718.5851
711.26118
703.93588
696.61972
689.32205
682.0512
674.8152
667.62137
660.47493
653.38047
455.46204
475.1886
499.28667
525.04393
552.01924
580.08394
608.91215
637.92436
666.40459
693.61605
718.89912
741.75072
761.79932
778.74229
792.30607
802.22665
808.20562
811.02051
811.51474
810.26281
807.67223
804.04069
799.59104
794.49321
788.87884
782.85202
776.49587
769.87721
763.05028
756.05973
748.94251
741.72935
734.44595
727.11424
719.75357
712.38079
705.00916
697.64886
690.30893
682.99761
675.72277
668.49192
661.31006
654.18181
455.10479
475.30791
498.86492
523.84246
550.26956
578.12045
607.03872
636.35855
665.27238
692.9645
718.71127
741.98547
762.419
779.69965
793.54513
803.69649
809.86281
812.772
813.30188
812.04795
809.43133
805.75883
801.25894
796.10554
790.43301
784.34714
777.93216
771.25564
764.37234
757.3272
750.15733
742.89356
735.56164
728.1834
720.77784
713.36216
705.94988
698.55093
691.17397
683.82718
676.51828
669.25497
662.04202
654.88413
455.24778
476.16543
498.73299
522.71482
548.5173
576.12926
605.12776
634.7467
664.08089
692.23435
718.41523
742.08314
762.87827
780.47161
794.57123
804.92997
811.26386
814.2627
814.83071
813.58081
810.94596
807.24118
802.70007
797.5002
791.77846
785.64227
779.1769
772.45066
765.5188
758.42654
751.21116
743.90359
736.52967
729.11116
721.66672
714.21376
706.76616
699.3337
691.92464
684.54705
677.2086
669.91715
662.67716
655.49353
456.39273
477.72435
498.78786
521.64678
546.80273
574.17479
603.24846
633.15615
662.89085
691.47458
718.05279
742.08329
763.21192
781.0876
795.41354
805.95587
812.43607
815.51755
816.12378
814.88188
812.23488
808.50499
803.93046
798.69214
792.92922
786.75062
780.2426
773.47413
766.50092
759.36847