/*--------------------------------*- C++ -*----------------------------------*\
| =========                 |                                                 |
| \\      /  F ield         | OpenFOAM: The Open Source CFD Toolbox           |
|  \\    /   O peration     | Version:  2312                                  |
|   \\  /    A nd           | Website:  www.openfoam.com                      |
|    \\/     M anipulation  |                                                 |
\*---------------------------------------------------------------------------*/
FoamFile
{
    version     2.0;
    format      ascii;
    arch        "LSB;label=32;scalar=64";
    class       volScalarField;
    location    "0.03";
    object      p;
}
// * * * * * * * * * * * * * * * * * * * * * * * * * * * * * * * * * * * * * //

dimensions      [1 -1 -2 0 0 0 0];

internalField   nonuniform List<scalar> 
3221
(
100003.68
100003.28
100003.1
100003.11
100003.19
100003.25
100003.25
100003.12
100002.72
100001.78
99999.667
99995.986
99988.288
99971.04
99977.282
99984.557
99989.83
99993.217
99995.073
99996.183
99996.933
99997.449
99997.806
99998.063
99998.258
99998.412
99998.539
99998.649
99998.747
99998.836
99998.92
99998.999
99999.074
99999.147
99999.218
99999.287
99999.354
99999.419
99999.483
99999.544
99999.605
99999.663
99999.72
99999.776
99999.83
99999.883
99999.935
99999.985
100000.04
100000.08
100000.13
100000.18
99997.699
99997.183
99996.61
99996.178
99995.792
99995.347
99994.92
99994.273
99993.356
99992.17
99990.907
99989.413
99987.208
99983.714
99983.673
99985.212
99987.015
99988.597
99989.818
99990.83
99991.692
99992.404
99992.981
99993.445
99993.822
99994.133
99994.394
99994.62
99994.822
99995.006
99995.178
99995.343
99995.503
99995.659
99995.814
99995.966
99996.118
99996.269
99996.418
99996.566
99996.713
99996.858
99997.002
99997.143
99997.283
99997.42
99997.555
99997.688
99997.819
99997.947
99998.073
99998.197
99992.778
99992.323
99991.839
99991.453
99991.125
99990.81
99990.314
99989.778
99989.132
99988.344
99987.416
99986.34
99985.167
99984.151
99983.821
99984.126
99984.769
99985.569
99986.406
99987.219
99987.969
99988.64
99989.229
99989.742
99990.188
99990.58
99990.928
99991.244
99991.535
99991.81
99992.072
99992.327
99992.577
99992.823
99993.068
99993.311
99993.552
99993.793
99994.033
99994.27
99994.506
99994.74
99994.971
99995.199
99995.424
99995.645
99995.863
99996.078
99996.288
99996.495
99996.697
99996.895
99987.71
99987.399
99987.057
99986.752
99986.46
99986.15
99985.789
99985.377
99984.897
99984.343
99983.716
99983.042
99982.384
99981.876
99981.69
99981.835
99982.229
99982.783
99983.42
99984.083
99984.734
99985.354
99985.929
99986.459
99986.944
99987.391
99987.806
99988.196
99988.567
99988.924
99989.271
99989.611
99989.948
99990.282
99990.614
99990.945
99991.274
99991.602
99991.928
99992.252
99992.574
99992.892
99993.206
99993.517
99993.823
99994.124
99994.42
99994.711
99994.996
99995.276
99995.55
99995.817
99982.776
99982.594
99982.385
99982.184
99981.98
99981.761
99981.517
99981.242
99980.93
99980.585
99980.215
99979.846
99979.521
99979.3
99979.251
99979.396
99979.711
99980.151
99980.671
99981.235
99981.814
99982.39
99982.949
99983.485
99983.998
99984.488
99984.958
99985.412
99985.853
99986.286
99986.712
99987.134
99987.553
99987.971
99988.387
99988.801
99989.214
99989.626
99990.035
99990.441
99990.843
99991.241
99991.634
99992.023
99992.405
99992.781
99993.151
99993.513
99993.869
99994.217
99994.558
99994.89
99978.112
99978.024
99977.92
99977.814
99977.704
99977.586
99977.456
99977.313
99977.157
99976.992
99976.828
99976.683
99976.581
99976.556
99976.635
99976.832
99977.142
99977.545
99978.017
99978.534
99979.079
99979.634
99980.19
99980.741
99981.283
99981.815
99982.338
99982.853
99983.362
99983.866
99984.367
99984.867
99985.365
99985.862
99986.358
99986.853
99987.345
99987.836
99988.323
99988.807
99989.286
99989.759
99990.227
99990.688
99991.142
99991.588
99992.027
99992.456
99992.878
99993.29
99993.693
99994.085
99973.744
99973.719
99973.693
99973.666
99973.638
99973.61
99973.583
99973.556
99973.531
99973.513
99973.509
99973.53
99973.592
99973.71
99973.9
99974.168
99974.514
99974.93
99975.401
99975.915
99976.458
99977.02
99977.593
99978.171
99978.75
99979.329
99979.906
99980.482
99981.057
99981.631
99982.205
99982.778
99983.352
99983.925
99984.497
99985.067
99985.636
99986.201
99986.762
99987.319
99987.87
99988.414
99988.951
99989.481
99990.002
99990.514
99991.016
99991.509
99991.991
99992.463
99992.923
99993.371
99969.661
99969.678
99969.707
99969.74
99969.781
99969.83
99969.888
99969.958
99970.041
99970.14
99970.262
99970.412
99970.599
99970.832
99971.119
99971.463
99971.865
99972.32
99972.821
99973.359
99973.928
99974.518
99975.124
99975.741
99976.366
99976.997
99977.632
99978.269
99978.91
99979.552
99980.196
99980.841
99981.486
99982.131
99982.776
99983.418
99984.058
99984.694
99985.324
99985.95
99986.568
99987.179
99987.781
99988.375
99988.958
99989.531
99990.094
99990.644
99991.184
99991.711
99992.225
99992.724
99965.844
99965.887
99965.953
99966.033
99966.128
99966.24
99966.37
99966.52
99966.691
99966.886
99967.108
99967.362
99967.65
99967.98
99968.353
99968.772
99969.237
99969.746
99970.293
99970.875
99971.484
99972.117
99972.769
99973.435
99974.112
99974.799
99975.493
99976.193
99976.898
99977.607
99978.319
99979.032
99979.746
99980.46
99981.173
99981.883
99982.59
99983.292
99983.988
99984.678
99985.36
99986.033
99986.696
99987.349
99987.991
99988.622
99989.24
99989.845
99990.437
99991.016
99991.579
99992.126
99962.271
99962.329
99962.422
99962.537
99962.675
99962.838
99963.028
99963.244
99963.488
99963.762
99964.068
99964.406
99964.78
99965.192
99965.644
99966.135
99966.666
99967.234
99967.837
99968.471
99969.133
99969.817
99970.521
99971.241
99971.975
99972.721
99973.476
99974.238
99975.007
99975.78
99976.557
99977.336
99978.115
99978.894
99979.672
99980.446
99981.216
99981.98
99982.738
99983.488
99984.229
99984.961
99985.681
99986.391
99987.087
99987.771
99988.442
99989.098
99989.74
99990.366
99990.976
99991.568
99958.92
99958.988
99959.098
99959.239
99959.413
99959.619
99959.858
99960.13
99960.436
99960.777
99961.153
99961.564
99962.012
99962.498
99963.02
99963.58
99964.176
99964.806
99965.468
99966.16
99966.877
99967.618
99968.378
99969.156
99969.948
99970.753
99971.568
99972.392
99973.222
99974.058
99974.897
99975.738
99976.58
99977.421
99978.259
99979.094
99979.923
99980.746
99981.562
99982.369
99983.166
99983.952
99984.726
99985.488
99986.237
99986.971
99987.691
99988.395
99989.083
99989.754
99990.405
99991.043
99955.774
99955.846
99955.967
99956.13
99956.332
99956.574
99956.855
99957.176
99957.535
99957.934
99958.371
99958.847
99959.36
99959.912
99960.5
99961.124
99961.783
99962.475
99963.197
99963.947
99964.722
99965.52
99966.338
99967.174
99968.024
99968.888
99969.762
99970.646
99971.536
99972.431
99973.33
99974.23
99975.131
99976.03
99976.926
99977.817
99978.703
99979.582
99980.452
99981.312
99982.162
99982.999
99983.825
99984.636
99985.433
99986.215
99986.981
99987.73
99988.462
99989.174
99989.867
99990.545
99952.813
99952.887
99953.017
99953.197
99953.424
99953.696
99954.014
99954.377
99954.784
99955.234
99955.726
99956.259
99956.832
99957.444
99958.093
99958.778
99959.497
99960.247
99961.028
99961.836
99962.669
99963.524
99964.4
99965.292
99966.2
99967.121
99968.052
99968.993
99969.94
99970.892
99971.848
99972.804
99973.761
99974.715
99975.665
99976.611
99977.55
99978.48
99979.402
99980.312
99981.212
99982.098
99982.971
99983.829
99984.672
99985.499
99986.309
99987.1
99987.873
99988.623
99989.356
99990.072
99950.024
99950.098
99950.235
99950.428
99950.676
99950.976
99951.327
99951.728
99952.178
99952.674
99953.216
99953.801
99954.429
99955.096
99955.802
99956.544
99957.32
99958.128
99958.965
99959.829
99960.718
99961.629
99962.56
99963.508
99964.471
99965.447
99966.433
99967.428
99968.43
99969.436
99970.445
99971.455
99972.464
99973.471
99974.473
99975.469
99976.458
99977.438
99978.408
99979.366
99980.312
99981.245
99982.163
99983.065
99983.952
99984.821
99985.672
99986.502
99987.313
99988.102
99988.874
99989.624
99947.393
99947.466
99947.607
99947.813
99948.08
99948.404
99948.786
99949.222
99949.71
99950.249
99950.837
99951.471
99952.149
99952.869
99953.628
99954.424
99955.254
99956.116
99957.007
99957.925
99958.868
99959.832
99960.816
99961.817
99962.833
99963.861
99964.9
99965.947
99967.001
99968.058
99969.118
99970.178
99971.237
99972.293
99973.344
99974.388
99975.424
99976.451
99977.467
99978.47
99979.461
99980.437
99981.398
99982.342
99983.27
99984.179
99985.068
99985.935
99986.786
99987.607
99988.417
99989.201
99944.908
99944.98
99945.124
99945.341
99945.624
99945.972
99946.381
99946.85
99947.375
99947.954
99948.585
99949.265
99949.991
99950.759
99951.568
99952.415
99953.296
99954.209
99955.152
99956.122
99957.115
99958.131
99959.165
99960.217
99961.283
99962.361
99963.45
99964.546
99965.648
99966.754
99967.862
99968.97
99970.076
99971.179
99972.276
99973.365
99974.446
99975.517
99976.577
99977.623
99978.656
99979.673
99980.675
99981.659
99982.625
99983.572
99984.498
99985.401
99986.283
99987.145
99987.985
99988.801
99942.558
99942.627
99942.775
99943.001
99943.301
99943.67
99944.106
99944.605
99945.165
99945.783
99946.454
99947.177
99947.948
99948.763
99949.619
99950.514
99951.443
99952.405
99953.397
99954.415
99955.457
99956.521
99957.604
99958.703
99959.817
99960.942
99962.078
99963.221
99964.369
99965.522
99966.675
99967.828
99968.979
99970.125
99971.266
99972.399
99973.522
99974.635
99975.736
99976.823
99977.896
99978.952
99979.992
99981.014
99982.016
99982.999
99983.961
99984.897
99985.813
99986.706
99987.578
99988.425
99940.334
99940.4
99940.55
99940.785
99941.1
99941.49
99941.951
99942.48
99943.074
99943.728
99944.438
99945.202
99946.016
99946.875
99947.776
99948.716
99949.692
99950.7
99951.738
99952.802
99953.89
99955
99956.128
99957.273
99958.431
99959.602
99960.781
99961.969
99963.161
99964.357
99965.553
99966.749
99967.942
99969.13
99970.312
99971.486
99972.65
99973.803
99974.943
99976.068
99977.179
99978.272
99979.349
99980.406
99981.443
99982.46
99983.454
99984.423
99985.371
99986.296
99987.197
99988.072
99938.225
99938.288
99938.439
99938.684
99939.014
99939.424
99939.91
99940.467
99941.093
99941.782
99942.531
99943.334
99944.189
99945.09
99946.034
99947.018
99948.037
99949.089
99950.17
99951.278
99952.41
99953.563
99954.734
99955.921
99957.123
99958.335
99959.557
99960.786
99962.02
99963.256
99964.494
99965.73
99966.963
99968.191
99969.412
99970.625
99971.827
99973.017
99974.195
99975.357
99976.503
99977.632
99978.743
99979.834
99980.905
99981.953
99982.976
99983.979
99984.957
99985.912
99986.841
99987.741
99936.223
99936.282
99936.436
99936.689
99937.033
99937.463
99937.973
99938.559
99939.217
99939.94
99940.725
99941.567
99942.461
99943.403
99944.388
99945.413
99946.474
99947.568
99948.691
99949.84
99951.013
99952.206
99953.418
99954.646
99955.887
99957.14
99958.401
99959.67
99960.943
99962.218
99963.494
99964.769
99966.04
99967.305
99968.564
99969.813
99971.052
99972.278
99973.49
99974.688
99975.868
99977.031
99978.174
99979.298
99980.4
99981.476
99982.531
99983.562
99984.571
99985.553
99986.507
99987.433
99934.321
99934.375
99934.53
99934.792
99935.151
99935.6
99936.135
99936.749
99937.438
99938.195
99939.016
99939.896
99940.828
99941.809
99942.834
99943.898
99944.999
99946.132
99947.294
99948.482
99949.694
99950.926
99952.177
99953.443
99954.722
99956.012
99957.312
99958.617
99959.927
99961.239
99962.552
99963.863
99965.17
99966.471
99967.764
99969.049
99970.322
99971.582
99972.828
99974.058
99975.271
99976.466
99977.641
99978.794
99979.926
99981.031
99982.115
99983.176
99984.21
99985.217
99986.195
99987.148
99932.51
99932.559
99932.716
99932.986
99933.36
99933.829
99934.388
99935.031
99935.751
99936.542
99937.398
99938.314
99939.284
99940.302
99941.365
99942.468
99943.606
99944.777
99945.977
99947.202
99948.451
99949.72
99951.006
99952.308
99953.624
99954.95
99956.284
99957.625
99958.97
99960.317
99961.664
99963.009
99964.35
99965.685
99967.012
99968.33
99969.635
99970.928
99972.206
99973.467
99974.711
99975.936
99977.14
99978.322
99979.48
99980.616
99981.728
99982.815
99983.873
99984.903
99985.907
99986.883
99930.783
99930.827
99930.984
99931.263
99931.652
99932.142
99932.726
99933.397
99934.149
99934.974
99935.865
99936.817
99937.823
99938.879
99939.978
99941.118
99942.292
99943.499
99944.734
99945.995
99947.279
99948.582
99949.903
99951.24
99952.589
99953.948
99955.316
99956.691
99958.069
99959.449
99960.828
99962.206
99963.579
99964.946
99966.305
99967.654
99968.99
99970.314
99971.622
99972.913
99974.186
99975.44
99976.671
99977.88
99979.066
99980.229
99981.367
99982.477
99983.559
99984.614
99985.64
99986.638
99929.134
99929.171
99929.329
99929.618
99930.022
99930.533
99931.143
99931.844
99932.627
99933.486
99934.413
99935.401
99936.443
99937.534
99938.67
99939.844
99941.054
99942.295
99943.564
99944.858
99946.175
99947.511
99948.865
99950.234
99951.615
99953.006
99954.406
99955.811
99957.221
99958.632
99960.043
99961.451
99962.855
99964.252
99965.641
99967.019
99968.385
99969.738
99971.074
99972.394
99973.695
99974.975
99976.232
99977.467
99978.68
99979.869
99981.03
99982.162
99983.268
99984.345
99985.394
99986.412
99927.555
99927.585
99927.744
99928.043
99928.464
99928.997
99929.634
99930.365
99931.182
99932.075
99933.037
99934.06
99935.138
99936.265
99937.435
99938.644
99939.887
99941.161
99942.462
99943.789
99945.137
99946.504
99947.889
99949.288
99950.699
99952.121
99953.55
99954.985
99956.424
99957.865
99959.305
99960.742
99962.174
99963.6
99965.017
99966.424
99967.818
99969.198
99970.561
99971.908
99973.234
99974.538
99975.822
99977.083
99978.322
99979.532
99980.715
99981.87
99982.998
99984.097
99985.165
99986.202
99926.039
99926.062
99926.222
99926.531
99926.971
99927.528
99928.193
99928.956
99929.806
99930.735
99931.733
99932.792
99933.906
99935.067
99936.271
99937.513
99938.788
99940.094
99941.427
99942.783
99944.161
99945.558
99946.972
99948.399
99949.839
99951.289
99952.747
99954.21
99955.677
99957.145
99958.612
99960.077
99961.536
99962.989
99964.433
99965.866
99967.286
99968.692
99970.082
99971.453
99972.802
99974.132
99975.44
99976.726
99977.986
99979.218
99980.423
99981.6
99982.749
99983.867
99984.954
99986.009
99924.581
99924.595
99924.757
99925.078
99925.537
99926.12
99926.815
99927.612
99928.498
99929.463
99930.497
99931.592
99932.741
99933.937
99935.174
99936.449
99937.755
99939.092
99940.454
99941.839
99943.246
99944.67
99946.111
99947.566
99949.033
99950.509
99951.993
99953.483
99954.975
99956.47
99957.963
99959.453
99960.938
99962.416
99963.886
99965.344
99966.789
99968.219
99969.633
99971.026
99972.4
99973.754
99975.085
99976.393
99977.672
99978.926
99980.152
99981.35
99982.517
99983.654
99984.759
99985.832
99923.173
99923.178
99923.342
99923.676
99924.156
99924.767
99925.496
99926.328
99927.251
99928.254
99929.326
99930.458
99931.642
99932.872
99934.142
99935.448
99936.785
99938.151
99939.541
99940.954
99942.388
99943.839
99945.305
99946.786
99948.278
99949.779
99951.288
99952.802
99954.319
99955.837
99957.355
99958.869
99960.378
99961.881
99963.373
99964.855
99966.324
99967.777
99969.211
99970.628
99972.025
99973.402
99974.754
99976.08
99977.381
99978.656
99979.901
99981.117
99982.303
99983.457
99984.579
99985.668
99921.809
99921.803
99921.969
99922.319
99922.824
99923.466
99924.23
99925.101
99926.064
99927.106
99928.216
99929.386
99930.606
99931.87
99933.173
99934.509
99935.876
99937.269
99938.687
99940.126
99941.585
99943.061
99944.552
99946.056
99947.571
99949.096
99950.627
99952.164
99953.705
99955.246
99956.786
99958.323
99959.855
99961.379
99962.895
99964.399
99965.889
99967.362
99968.819
99970.258
99971.676
99973.073
99974.444
99975.791
99977.112
99978.405
99979.668
99980.902
99982.104
99983.275
99984.413
99985.518
99920.48
99920.463
99920.634
99921.001
99921.534
99922.211
99923.014
99923.926
99924.931
99926.015
99927.166
99928.373
99929.63
99930.928
99932.263
99933.629
99935.025
99936.445
99937.889
99939.353
99940.835
99942.334
99943.848
99945.374
99946.911
99948.458
99950.011
99951.569
99953.131
99954.693
99956.254
99957.813
99959.365
99960.911
99962.447
99963.972
99965.481
99966.976
99968.454
99969.913
99971.35
99972.765
99974.156
99975.523
99976.861
99978.172
99979.452
99980.703
99981.921
99983.108
99984.261
99985.38
99919.181
99919.151
99919.327
99919.716
99920.281
99920.997
99921.844
99922.801
99923.851
99924.979
99926.172
99927.419
99928.712
99930.044
99931.411
99932.807
99934.23
99935.677
99937.145
99938.632
99940.137
99941.658
99943.192
99944.739
99946.296
99947.863
99949.436
99951.014
99952.595
99954.177
99955.758
99957.336
99958.908
99960.474
99962.029
99963.572
99965.101
99966.617
99968.114
99969.59
99971.046
99972.48
99973.889
99975.273
99976.628
99977.955
99979.252
99980.518
99981.752
99982.953
99984.12
99985.253
99917.902
99917.86
99918.044
99918.458
99919.06
99919.82
99920.715
99921.722
99922.821
99923.996
99925.232
99926.52
99927.851
99929.218
99930.616
99932.041
99933.491
99934.963
99936.454
99937.963
99939.488
99941.029
99942.582
99944.148
99945.724
99947.309
99948.9
99950.496
99952.096
99953.696
99955.296
99956.892
99958.481
99960.066
99961.638
99963.2
99964.748
99966.282
99967.795
99969.29
99970.764
99972.215
99973.641
99975.04
99976.412
99977.754
99979.067
99980.347
99981.595
99982.81
99983.991
99985.137
99916.637
99916.581
99916.776
99917.221
99917.866
99918.677
99919.626
99920.688
99921.84
99923.064
99924.347
99925.676
99927.045
99928.447
99929.877
99931.331
99932.806
99934.301
99935.814
99937.343
99938.887
99940.446
99942.017
99943.6
99945.193
99946.794
99948.402
99950.015
99951.631
99953.248
99954.865
99956.477
99958.084
99959.684
99961.274
99962.854
99964.418
99965.968
99967.5
99969.011
99970.501
99971.968
99973.409
99974.824
99976.211
99977.568
99978.895
99980.189
99981.451
99982.679
99983.872
99985.03
99915.376
99915.306
99915.516
99915.999
99916.694
99917.563
99918.574
99919.696
99920.905
99922.183
99923.514
99924.887
99926.295
99927.732
99929.193
99930.674
99932.174
99933.691
99935.224
99936.771
99938.333
99939.907
99941.494
99943.092
99944.7
99946.317
99947.94
99949.568
99951.199
99952.832
99954.463
99956.09
99957.714
99959.33
99960.936
99962.531
99964.112
99965.677
99967.224
99968.751
99970.256
99971.738
99973.194
99974.624
99976.025
99977.396
99978.735
99980.043
99981.317
99982.557
99983.763
99984.932
99914.11
99914.026
99914.257
99914.785
99915.54
99916.477
99917.557
99918.746
99920.017
99921.352
99922.734
99924.153
99925.601
99927.072
99928.563
99930.071
99931.594
99933.131
99934.682
99936.246
99937.823
99939.411
99941.012
99942.624
99944.245
99945.875
99947.511
99949.153
99950.797
99952.444
99954.089
99955.731
99957.37
99959
99960.62
99962.23
99963.826
99965.405
99966.967
99968.508
99970.028
99971.524
99972.994
99974.437
99975.852
99977.236
99978.588
99979.908
99981.194
99982.445
99983.662
99984.841
99912.83
99912.731
99912.99
99913.574
99914.4
99915.415
99916.573
99917.836
99919.176
99920.572
99922.008
99923.474
99924.962
99926.468
99927.989
99929.522
99931.066
99932.621
99934.188
99935.766
99937.356
99938.957
99940.569
99942.192
99943.825
99945.467
99947.116
99948.769
99950.425
99952.084
99953.743
99955.398
99957.049
99958.693
99960.327
99961.95
99963.559
99965.153
99966.728
99968.283
99969.816
99971.325
99972.809
99974.264
99975.691
99977.087
99978.452
99979.783
99981.08
99982.342
99983.568
99984.758
99911.523
99911.41
99911.708
99912.36
99913.271
99914.376
99915.623
99916.968
99918.383
99919.844
99921.337
99922.851
99924.381
99925.921
99927.469
99929.025
99930.589
99932.16
99933.74
99935.33
99936.93
99938.541
99940.163
99941.796
99943.439
99945.09
99946.75
99948.413
99950.08
99951.751
99953.421
99955.089
99956.751
99958.408
99960.054
99961.69
99963.311
99964.917
99966.505
99968.073
99969.619
99971.14
99972.636
99974.104
99975.543
99976.95
99978.325
99979.667
99980.974
99982.246
99983.482
99984.681
99910.176
99910.053
99910.4
99911.138
99912.149
99913.359
99914.706
99916.144
99917.64
99919.171
99920.723
99922.287
99923.857
99925.43
99927.005
99928.582
99930.162
99931.747
99933.337
99934.936
99936.544
99938.163
99939.792
99941.433
99943.085
99944.745
99946.412
99948.085
99949.762
99951.443
99953.123
99954.801
99956.475
99958.142
99959.8
99961.447
99963.081
99964.698
99966.298
99967.878
99969.435
99970.969
99972.476
99973.955
99975.405
99976.823
99978.208
99979.56
99980.876
99908.776
99908.644
99909.059
99909.901
99911.033
99912.365
99913.826
99915.366
99916.95
99918.556
99920.17
99921.784
99923.394
99924.998
99926.597
99928.192
99929.785
99931.38
99932.978
99934.583
99936.197
99937.82
99939.454
99941.102
99942.761
99944.428
99946.103
99947.783
99949.469
99951.158
99952.847
99954.534
99956.218
99957.896
99959.564
99961.222
99962.866
99964.495
99966.106
99967.696
99969.265
99970.809
99972.327
99973.817
99975.277
99976.705
99978.099
99979.46
99980.786
99907.306
99907.169
99907.674
99908.645
99909.922
99911.395
99912.986
99914.639
99916.319
99918.004
99919.682
99921.346
99922.993
99924.626
99926.245
99927.854
99929.457
99931.058
99932.661
99934.27
99935.886
99937.511
99939.147
99940.799
99942.466
99944.139
99945.82
99947.505
99949.198
99950.894
99952.591
99954.287
99955.98
99957.667
99959.345
99961.013
99962.667
99964.306
99965.927
99967.528
99969.106
99970.661
99972.189
99973.689
99975.158
99976.595
99977.999
99979.368
99980.702
99905.746
99905.61
99906.236
99907.366
99908.815
99910.453
99912.191
99913.97
99915.754
99917.522
99919.263
99920.975
99922.658
99924.315
99925.95
99927.569
99929.178
99930.781
99932.385
99933.993
99935.609
99937.234
99938.871
99940.525
99942.199
99943.875
99945.56
99947.25
99948.948
99950.65
99952.355
99954.059
99955.76
99957.455
99959.142
99960.819
99962.482
99964.13
99965.761
99967.371
99968.959
99970.523
99972.061
99973.569
99975.048
99976.493
99977.905
99979.282
99980.624
99904.074
99903.948
99904.734
99906.06
99907.715
99909.545
99911.45
99913.368
99915.263
99917.116
99918.921
99920.677
99922.39
99924.066
99925.712
99927.336
99928.945
99930.547
99932.147
99933.752
99935.365
99936.987
99938.622
99940.276
99941.958
99943.636
99945.322
99947.017
99948.719
99950.426
99952.137
99953.847
99955.556
99957.259
99958.954
99960.639
99962.311
99963.967
99965.606
99967.225
99968.822
99970.395
99971.941
99973.459
99974.945
99976.399
99977.818
99979.202
99980.551
99902.265
99902.159
99903.159
99904.725
99906.628
99908.679
99910.774
99912.845
99914.858
99916.797
99918.662
99920.457
99922.193
99923.88
99925.531
99927.153
99928.758
99930.353
99931.946
99933.544
99935.151
99936.769
99938.399
99940.048
99941.744
99943.42
99945.105
99946.802
99948.508
99950.22
99951.935
99953.652
99955.367
99957.077
99958.779
99960.472
99962.152
99963.816
99965.463
99967.09
99968.695
99970.276
99971.83
99973.355
99974.849
99976.31
99977.737
99979.128
99980.483
99900.29
99900.217
99901.503
99903.363
99905.56
99907.869
99910.177
99912.415
99914.55
99916.575
99918.493
99920.319
99922.069
99923.76
99925.406
99927.02
99928.614
99930.198
99931.78
99933.369
99934.966
99936.577
99938.199
99939.838
99941.557
99943.225
99944.908
99946.607
99948.315
99950.03
99951.75
99953.473
99955.193
99956.909
99958.618
99960.318
99962.005
99963.676
99965.331
99966.965
99968.578
99970.166
99971.727
99973.259
99974.76
99976.228
99977.661
99979.059
99980.42
99898.115
99898.088
99899.757
99901.974
99904.524
99907.131
99909.676
99912.091
99914.352
99916.457
99918.422
99920.268
99922.021
99923.703
99925.336
99926.935
99928.511
99930.08
99931.648
99933.223
99934.808
99936.41
99938.02
99939.636
99941.403
99943.052
99944.729
99946.428
99948.138
99949.856
99951.579
99953.307
99955.033
99956.755
99958.469
99960.175
99961.868
99963.547
99965.208
99966.849
99968.468
99970.063
99971.631
99973.169
99974.677
99976.151
99977.591
99978.994
99980.36
99895.705
99895.736
99897.917
99900.568
99903.538
99906.483
99909.287
99911.888
99914.271
99916.449
99918.45
99920.305
99922.048
99923.711
99925.32
99926.894
99928.448
99929.996
99931.545
99933.104
99934.675
99936.268
99937.864
99939.446
99941.275
99942.895
99944.565
99946.265
99947.977
99949.697
99951.423
99953.155
99954.886
99956.613
99958.333
99960.044
99961.743
99963.427
99965.094
99966.742
99968.367
99969.967
99971.541
99973.085
99974.599
99976.079
99977.524
99978.933
99980.304
99893.022
99893.117
99895.982
99899.156
99902.62
99905.944
99909.028
99911.818
99914.317
99916.556
99918.579
99920.43
99922.15
99923.781
99925.356
99926.897
99928.42
99929.943
99931.469
99933.011
99934.566
99936.147
99937.741
99939.336
99941.1
99942.744
99944.418
99946.116
99947.83
99949.552
99951.281
99953.015
99954.751
99956.481
99958.207
99959.924
99961.628
99963.317
99964.99
99966.642
99968.273
99969.878
99971.457
99973.007
99974.525
99976.011
99977.462
99978.876
99980.252
99890.024
99890.177
99893.958
99897.754
99901.794
99905.539
99908.917
99911.893
99914.498
99916.781
99918.808
99920.638
99922.322
99923.909
99925.44
99926.938
99928.425
99929.919
99931.42
99932.94
99934.482
99936.045
99937.632
99939.238
99940.949
99942.607
99944.284
99945.982
99947.697
99949.421
99951.152
99952.889
99954.627
99956.361
99958.09
99959.813
99961.522
99963.216
99964.893
99966.551
99968.186
99969.796
99971.379
99972.933
99974.457
99975.948
99977.403
99978.822
99980.201
99886.676
99886.856
99891.856
99896.384
99901.09
99905.293
99908.974
99912.128
99914.818
99917.123
99919.135
99920.927
99922.56
99924.091
99925.566
99927.014
99928.459
99929.92
99931.395
99932.885
99934.413
99935.966
99937.539
99939.145
99940.826
99942.487
99944.164
99945.86
99947.577
99949.302
99951.036
99952.773
99954.514
99956.252
99957.985
99959.71
99961.425
99963.124
99964.805
99966.466
99968.105
99969.719
99971.307
99972.865
99974.393
99975.888
99977.347
99978.77
99980.153
99882.945
99883.082
99889.699
99895.078
99900.545
99905.237
99909.219
99912.531
99915.28
99917.582
99919.556
99921.291
99922.857
99924.318
99925.731
99927.123
99928.519
99929.941
99931.386
99932.853
99934.359
99935.904
99937.461
99939.062
99940.723
99942.382
99944.058
99945.752
99947.469
99949.195
99950.931
99952.67
99954.413
99956.154
99957.89
99959.618
99961.334
99963.038
99964.725
99966.389
99968.031
99969.648
99971.239
99972.801
99974.333
99975.831
99977.295
99978.72
99980.106
99878.811
99878.772
99887.519
99893.878
99900.201
99905.404
99909.672
99913.111
99915.886
99918.151
99920.062
99921.722
99923.204
99924.587
99925.928
99927.263
99928.598
99929.977
99931.397
99932.841
99934.319
99935.848
99937.399
99938.993
99940.636
99942.291
99943.965
99945.658
99947.372
99949.098
99950.836
99952.578
99954.323
99956.065
99957.804
99959.534
99961.253
99962.959
99964.651
99966.32
99967.964
99969.582
99971.176
99972.742
99874.265
99873.825
99885.364
99892.842
99900.11
99905.828
99910.348
99913.871
99916.63
99918.824
99920.646
99922.21
99923.596
99924.892
99926.149
99927.415
99928.697
99930.034
99931.421
99932.835
99934.298
99935.808
99937.35
99938.935
99940.564
99942.214
99943.885
99945.576
99947.288
99949.013
99950.749
99952.494
99954.244
99955.987
99957.727
99959.459
99961.18
99962.887
99964.581
99966.256
99967.902
99969.522
99971.118
99972.686
99869.284
99868.126
99883.301
99892.047
99900.333
99906.544
99911.26
99914.81
99917.505
99919.586
99921.291
99922.746
99924.028
99925.219
99926.384
99927.585
99928.818
99930.101
99931.453
99932.845
99934.289
99935.782
99937.313
99938.888
99940.506
99942.149
99943.817
99945.507
99947.217
99948.94
99950.675
99952.418
99954.172
99955.92
99957.659
99959.392
99961.115
99962.824
99964.518
99966.196
99967.847
99969.466
99971.064
99972.634
99863.833
99861.568
99881.435
99891.597
99900.933
99907.579
99912.412
99915.92
99918.495
99920.419
99921.986
99923.325
99924.48
99925.559
99926.64
99927.764
99928.937
99930.182
99931.501
99932.869
99934.292
99935.768
99937.287
99938.852
99940.46
99942.097
99943.761
99945.448
99947.156
99948.878
99950.612
99952.353
99954.106
99955.86
99957.602
99959.334
99961.057
99962.768
99964.462
99966.141
99967.796
99969.416
99971.014
99972.585
99858.181
99854.166
99879.906
99891.619
99901.975
99908.957
99913.798
99917.183
99919.579
99921.306
99922.723
99923.923
99924.943
99925.921
99926.901
99927.94
99929.066
99930.276
99931.56
99932.902
99934.305
99935.765
99937.273
99938.828
99940.426
99942.057
99943.717
99945.401
99947.106
99948.827
99950.56
99952.301
99954.049
99955.806
99957.553
99959.284
99961.006
99962.718
99964.412
99966.091
99967.75
99969.37
99970.968
99972.54
99853.47
99846.071
99878.857
99892.253
99903.513
99910.682
99915.399
99918.571
99920.735
99922.232
99923.469
99924.528
99925.428
99926.282
99927.147
99928.124
99929.207
99930.377
99931.627
99932.945
99934.329
99935.772
99937.269
99938.814
99940.404
99942.029
99943.684
99945.365
99947.067
99948.786
99950.518
99952.258
99954.004
99955.758
99957.511
99959.244
99960.962
99962.674
99964.369
99966.046
99967.707
99969.328
99970.926
99972.497
99849.009
99836.925
99878.398
99893.655
99905.585
99912.738
99917.171
99920.052
99921.942
99923.154
99924.202
99925.168
99925.908
99926.614
99927.39
99928.319
99929.353
99930.483
99931.702
99932.996
99934.361
99935.79
99937.276
99938.812
99940.394
99942.013
99943.663
99945.34
99947.04
99948.756
99950.486
99952.224
99953.969
99955.718
99957.475
99959.211
99960.926
99962.636
99964.332
99966.006
99967.668
99969.29
99970.888
99972.457
99828.82
99825.009
99878.887
99896.076
99908.232
99915.082
99919.075
99921.586
99923.156
99924.037
99924.932
99925.83
99926.366
99926.91
99927.64
99928.515
99929.5
99930.592
99931.782
99933.055
99934.403
99935.818
99937.293
99938.821
99940.394
99942.007
99943.653
99945.327
99947.023
99948.736
99950.464
99952.2
99953.944
99955.688
99957.446
99959.185
99960.897
99962.604
99964.3
99965.973
99967.635
99969.254
99970.853
99972.419
99753.083
99811.759
99881.743
99899.873
99911.513
99917.681
99921.082
99923.111
99924.313
99924.877
99925.68
99926.471
99926.782
99927.192
99927.89
99928.706
99929.647
99930.706
99931.87
99933.122
99934.454
99935.857
99937.321
99938.84
99940.407
99942.014
99943.655
99945.324
99947.016
99948.727
99950.451