/*--------------------------------*- C++ -*----------------------------------*\
| =========                 |                                                 |
| \\      /  F ield         | OpenFOAM: The Open Source CFD Toolbox           |
|  \\    /   O peration     | Version:  2312                                  |
|   \\  /    A nd           | Website:  www.openfoam.com                      |
|    \\/     M anipulation  |                                                 |
\*---------------------------------------------------------------------------*/
FoamFile
{
    version     2.0;
    format      ascii;
    arch        "LSB;label=32;scalar=64";
    class       surfaceScalarField;
    location    "0.03";
    object      phi;
}
// * * * * * * * * * * * * * * * * * * * * * * * * * * * * * * * * * * * * * //

dimensions      [1 0 -1 0 0 0 0];

oriented        oriented;

internalField   nonuniform List<scalar> 
6325
(
4.3509473e-07
-3.0599205e-09
4.0963808e-07
-1.5665916e-08
3.8034695e-07
-2.5516695e-08
3.4949674e-07
-2.9580267e-08
3.1856029e-07
-2.8666975e-08
2.8862633e-07
-2.4456336e-08
2.6069557e-07
-1.8583497e-08
2.3567331e-07
-1.2017261e-08
2.1482884e-07
-5.5043987e-09
2.0024195e-07
3.8938801e-10
1.9306531e-07
7.2683358e-09
1.9338094e-07
1.5352946e-08
1.9676677e-07
2.2977211e-08
1.3050597e-07
2.2835902e-08
8.2185772e-08
3.0972309e-08
5.6379936e-08
4.1770496e-08
5.1709837e-08
5.229638e-08
5.0592286e-08
5.9481995e-08
4.8654331e-08
6.4813833e-08
4.6166148e-08
6.9917614e-08
4.3796764e-08
7.4780057e-08
4.1871081e-08
7.9013305e-08
4.0425744e-08
8.2477263e-08
3.9377846e-08
8.5216087e-08
3.8625512e-08
8.7332092e-08
3.808495e-08
8.8925269e-08
3.7695341e-08
9.0078074e-08
3.741468e-08
9.0855455e-08
3.7214204e-08
9.1309259e-08
3.7074126e-08
9.1481815e-08
3.6980396e-08
9.1408856e-08
3.6922734e-08
9.1121186e-08
3.6893202e-08
9.0646032e-08
3.688544e-08
9.0007792e-08
3.689408e-08
8.9228737e-08
3.6914463e-08
8.8329389e-08
3.6942397e-08
8.7328932e-08
3.6974071e-08
8.6245413e-08
3.7005942e-08
8.509599e-08
3.7034725e-08
8.3897027e-08
3.7057332e-08
8.2664247e-08
3.7070889e-08
8.1412758e-08
3.7072703e-08
8.0157144e-08
3.7060285e-08
7.8911454e-08
3.7031328e-08
7.7689245e-08
3.6983738e-08
7.6503556e-08
3.6915602e-08
7.5366941e-08
3.6825237e-08
7.4291401e-08
3.6711217e-08
7.328841e-08
3.6572454e-08
7.2368856e-08
3.6408227e-08
7.1543051e-08
7.082078e-08
4.3070234e-07
4.9865143e-09
4.1295508e-07
2.7813517e-09
3.8975931e-07
-1.1584211e-09
3.6426781e-07
-2.1538093e-09
3.3839762e-07
2.6535387e-10
3.1303471e-07
5.434083e-09
2.8959366e-07
1.1082595e-08
2.6842707e-07
1.7253314e-08
2.4968932e-07
2.3298261e-08
2.3308443e-07
2.8969347e-08
2.1961792e-07
3.4342633e-08
2.1014744e-07
3.9249645e-08
2.028472e-07
4.3141391e-08
1.8509439e-07
4.5904512e-08
1.6583224e-07
4.9832473e-08
1.5063172e-07
5.5216967e-08
1.4204662e-07
6.0512056e-08
1.3576761e-07
6.4763497e-08
1.2984221e-07
6.8185387e-08
1.2451394e-07
7.1317214e-08
1.2014269e-07
7.4255074e-08
1.1673165e-07
7.6855197e-08
1.141101e-07
7.9015542e-08
1.1208649e-07
8.0715782e-08
1.1050559e-07
8.1980263e-08
1.0925521e-07
8.2848632e-08
1.0825706e-07
8.3362975e-08
1.0745614e-07
8.3562688e-08
1.0681264e-07
8.3483551e-08
1.0629662e-07
8.3157576e-08
1.0588463e-07
8.2613694e-08
1.0555758e-07
8.1878072e-08
1.0529944e-07
8.0974723e-08
1.0509635e-07
7.9925762e-08
1.0493607e-07
7.8751839e-08
1.048076e-07
7.74723e-08
1.0470093e-07
7.6105482e-08
1.0460686e-07
7.4668801e-08
1.0451689e-07
7.3178945e-08
1.0442313e-07
7.1651903e-08
1.0431826e-07
7.0103088e-08
1.041955e-07
6.8547331e-08
1.0404855e-07
6.6998949e-08
1.0387164e-07
6.5471719e-08
1.0365948e-07
6.397892e-08
1.0340725e-07
6.2533303e-08
1.0311064e-07
6.1147092e-08
1.027658e-07
5.9831978e-08
1.0236938e-07
5.8599096e-08
1.0191881e-07
5.7458944e-08
1.0141245e-07
5.6421394e-08
5.5495442e-08
4.2234617e-07
9.5434866e-09
4.1128258e-07
1.4189664e-08
3.9552223e-07
1.5002017e-08
3.771926e-07
1.6811516e-08
3.5789803e-07
2.0625582e-08
3.3911577e-07
2.5877167e-08
3.2100776e-07
3.1593098e-08
3.0423356e-07
3.7203527e-08
2.8907375e-07
4.2362135e-08
2.756204e-07
4.6940672e-08
2.6397409e-07
5.0922213e-08
2.5396951e-07
5.4277555e-08
2.4473515e-07
5.6934911e-08
2.3479252e-07
5.9017104e-08
2.2462952e-07
6.1153235e-08
2.1551549e-07
6.3470675e-08
2.0781178e-07
6.5624995e-08
2.0091719e-07
6.7376138e-08
1.9451668e-07
6.8842937e-08
1.8876014e-07
7.0198208e-08
1.8382045e-07
7.145997e-08
1.7970641e-07
7.254788e-08
1.7631929e-07
7.3387017e-08
1.7353106e-07
7.3939416e-08
1.71224e-07
7.4196509e-08
1.6930203e-07
7.4167069e-08
1.6769042e-07
7.3868651e-08
1.6633136e-07
7.3322794e-08
1.6517977e-07
7.2552341e-08
1.6419963e-07
7.1580147e-08
1.633615e-07
7.042843e-08
1.6264063e-07
6.9118525e-08
1.6201583e-07
6.7670804e-08
1.6146848e-07
6.6104705e-08
1.6098205e-07
6.4438794e-08
1.605416e-07
6.2690849e-08
1.6013355e-07
6.0877921e-08
1.5974542e-07
5.9016408e-08
1.5936575e-07
5.7122095e-08
1.5898396e-07
5.5210199e-08
1.5859029e-07
5.3295382e-08
1.5817573e-07
5.1391774e-08
1.5773206e-07
4.9512963e-08
1.5725172e-07
4.7672017e-08
1.5672791e-07
4.5881447e-08
1.5615448e-07
4.4153236e-08
1.5552596e-07
4.249881e-08
1.5483749e-07
4.0929044e-08
1.5408485e-07
3.9454219e-08
1.5326451e-07
3.8084018e-08
1.5237414e-07
3.6827412e-08
3.5692387e-08
4.1319342e-07
1.1754613e-08
4.070473e-07
2.0434266e-08
3.9756339e-07
2.4328229e-08
3.8592666e-07
2.8132536e-08
3.7319416e-07
3.2985189e-08
3.601991e-07
3.8518602e-08
3.474313e-07
4.4065853e-08
3.3525024e-07
4.913677e-08
3.2386963e-07
5.3484336e-08
3.1339706e-07
5.7047494e-08
3.0384896e-07
5.9866313e-08
2.9511011e-07
6.2008636e-08
2.8687863e-07
6.3548787e-08
2.7880809e-07
6.4603338e-08
2.7099046e-07
6.5376636e-08
2.6365243e-07
6.5993276e-08
2.5682403e-07
6.6427724e-08
2.5040181e-07
6.6645866e-08
2.4438164e-07
6.6724214e-08
2.3887151e-07
6.6728155e-08
2.3396711e-07
6.6654702e-08
2.2968638e-07
6.6461089e-08
2.2598613e-07
6.6103694e-08
2.2279643e-07
6.5554241e-08
2.2004346e-07
6.4800177e-08
2.176597e-07
6.3841006e-08
2.1558715e-07
6.2684101e-08
2.1377701e-07
6.1341821e-08
2.121884e-07
5.9829268e-08
2.1078678e-07
5.8163064e-08
2.0954258e-07
5.6360421e-08
2.0843008e-07
5.4438715e-08
2.0742662e-07
5.2415145e-08
2.0651194e-07
5.0306613e-08
2.0566778e-07
4.8129589e-08
2.0487748e-07
4.5900105e-08
2.0412581e-07
4.3633694e-08
2.0339876e-07
4.1345412e-08
2.0268344e-07
3.9049798e-08
2.0196795e-07
3.6760896e-08
2.0124137e-07
3.4492218e-08
2.0049366e-07
3.225676e-08
1.9971566e-07
3.0066962e-08
1.9889908e-07
2.7934725e-08
1.9803644e-07
2.5871381e-08
1.9712105e-07
2.3887715e-08
1.9614708e-07
2.1993883e-08
1.951093e-07
2.0199529e-08
1.9400309e-07
1.851372e-08
1.9282448e-07
1.6944877e-08
1.9157057e-07
1.5500771e-08
1.4188174e-08
4.0340463e-07
1.259611e-08
4.0055016e-07
2.327006e-08
3.9551547e-07
2.8907181e-08
3.8886925e-07
3.3941087e-08
3.812043e-07
3.9482836e-08
3.7300985e-07
4.5247842e-08
3.646372e-07
5.0680819e-08
3.5632333e-07
5.5379919e-08
3.482163e-07
5.9164114e-08
3.4039949e-07
6.2019772e-08
3.3290603e-07
6.4025302e-08
3.2571595e-07
6.5294046e-08
3.1875953e-07
6.5945798e-08
3.1196016e-07
6.6103507e-08
3.0533091e-07
6.5893725e-08
2.9894561e-07
6.5415942e-08
2.9284274e-07
6.4722989e-08
2.8702146e-07
6.3851663e-08
2.8152235e-07
6.2853405e-08
2.7641664e-07
6.1762029e-08
2.7175879e-07
6.0580438e-08
2.6756464e-07
5.9292843e-08
2.6381719e-07
5.7880217e-08
2.6048084e-07
5.6328599e-08
2.5751263e-07
5.4631183e-08
2.5486901e-07
5.2787923e-08
2.5250901e-07
5.0803952e-08
2.5039543e-07
4.8688259e-08
2.4849499e-07
4.6452329e-08
2.4677793e-07
4.410933e-08
2.4521763e-07
4.1673341e-08
2.4379007e-07
3.9158983e-08
2.4247345e-07
3.6581029e-08
2.4124785e-07
3.3954244e-08
2.4009501e-07
3.1293188e-08
2.3899806e-07
2.8612162e-08
2.3794144e-07
2.5925087e-08
2.3691078e-07
2.3245487e-08
2.3589278e-07
2.0586416e-08
2.3487519e-07
1.7960444e-08
2.3384674e-07
1.5379646e-08
2.327971e-07
1.2855558e-08
2.3171686e-07
1.039916e-08
2.3059755e-07
8.0208758e-09
2.2943156e-07
5.7305322e-09
2.2821211e-07
3.5375218e-09
2.2693337e-07
1.450313e-09
2.2559025e-07
-5.2294427e-10
2.24178e-07
-2.3745255e-09
2.2269245e-07
-4.0975562e-09
2.2113034e-07
-5.6856993e-09
-7.1335395e-09
3.9333185e-07
1.2677045e-08
3.9249297e-07
2.4075296e-08
3.903162e-07
3.0530169e-08
3.8700867e-07
3.6211728e-08
3.8285734e-07
4.214669e-08
3.7812242e-07
4.8059204e-08
3.7300244e-07
5.3437334e-08
3.6763824e-07
5.7922241e-08
3.6212539e-07
6.1367771e-08
3.565289e-07
6.3784621e-08
3.5089279e-07
6.526935e-08
3.4524399e-07
6.59524e-08
3.3959672e-07
6.5968711e-08
3.3396551e-07
6.5445778e-08
3.2838484e-07
6.4498727e-08
3.2290661e-07
6.3222613e-08
3.17578e-07
6.1689365e-08
3.1243753e-07
5.9955224e-08
3.0753327e-07
5.8067537e-08
3.0291587e-07
5.6057957e-08
2.9862238e-07
5.3940952e-08
2.9466891e-07
5.1719535e-08
2.9105282e-07
4.939227e-08
2.8775853e-07
4.6957923e-08
2.8476301e-07
4.4417528e-08
2.8203985e-07
4.1775065e-08
2.7956174e-07
3.903717e-08
2.7730186e-07
3.6212751e-08
2.7523456e-07
3.3312336e-08
2.7333566e-07
3.0347665e-08
2.7158249e-07
2.7331208e-08
2.6995383e-07
2.4275889e-08
2.6842983e-07
2.1194787e-08
2.6699195e-07
1.810099e-08
2.6562287e-07
1.5007409e-08
2.6430638e-07
1.192674e-08
2.6302738e-07
8.8713059e-09
2.6177183e-07
5.8530266e-09
2.6052667e-07
2.8833884e-09
2.592799e-07
-2.6717282e-11
2.5802042e-07
-2.866775e-09
2.5673806e-07
-5.6268983e-09
2.5542359e-07
-8.2977635e-09
2.5406871e-07
-1.0870609e-08
2.5266602e-07
-1.3337242e-08
2.5120915e-07
-1.5690033e-08
2.4969235e-07
-1.7921957e-08
2.4811064e-07
-2.00265e-08
2.4645961e-07
-2.1997685e-08
2.4473511e-07
-2.3830109e-08
2.4293367e-07
-2.551893e-08
-2.7060076e-08
3.8319264e-07
1.2371385e-08
3.835041e-07
2.3779296e-08
3.8302637e-07
3.0480367e-08
3.8178135e-07
3.6417698e-08
3.7988016e-07
4.2523942e-08
3.7743913e-07
4.8501236e-08
3.7455239e-07
5.3844917e-08
3.7129041e-07
5.8210145e-08
3.6770741e-07
6.1462028e-08
3.6384934e-07
6.3617765e-08
3.5975906e-07
6.477742e-08
3.5547854e-07
6.5074234e-08
3.5104991e-07
6.4645977e-08
3.4651797e-07
6.3621485e-08
3.4193338e-07
6.2115092e-08
3.3735067e-07
6.0223852e-08
3.3282272e-07
5.8027275e-08
3.2839876e-07
5.558988e-08
3.2412659e-07
5.2963396e-08
3.2004886e-07
5.0186107e-08
3.1619741e-07
4.7283976e-08
3.1259079e-07
4.4273934e-08
3.0923514e-07
4.1167662e-08
3.0612686e-07
3.797449e-08
3.0325548e-07
3.470314e-08
3.0060617e-07
3.136269e-08
2.9816146e-07
2.7962885e-08
2.959026e-07
2.4514245e-08
2.9381033e-07
2.1027903e-08
2.9186543e-07
1.7515487e-08
2.9004903e-07
1.3988885e-08
2.8834283e-07
1.0460112e-08
2.8672921e-07
6.9411708e-09
2.8519132e-07
3.4439043e-09
2.8371319e-07
-2.0150024e-11
2.8227968e-07
-3.4397299e-09
2.8087655e-07
-6.8040323e-09
2.7949044e-07
-1.0102722e-08
2.7810896e-07
-1.3325965e-08
2.7672058e-07
-1.6464464e-08
2.7531471e-07
-1.9509455e-08
2.7388168e-07
-2.2452748e-08
2.7241271e-07
-2.5286722e-08
2.7089993e-07
-2.8004323e-08
2.6933641e-07
-3.0599052e-08
2.677161e-07
-3.3064966e-08
2.6603379e-07
-3.5396651e-08
2.6428497e-07
-3.7589214e-08
2.6246557e-07
-3.9638254e-08
2.6057166e-07
-4.1539869e-08
2.5859969e-07
-4.3290649e-08
-4.4887677e-08
3.7312558e-07
1.1898818e-08
3.7404141e-07
2.2963013e-08
3.7449179e-07
2.9597692e-08
3.7441996e-07
3.5556605e-08
3.7385041e-07
4.1686574e-08
3.7282134e-07
4.7659483e-08
3.7136501e-07
5.2962828e-08
3.6950728e-07
5.7250336e-08
3.672728e-07
6.0385292e-08
3.6469e-07
6.2381034e-08
3.6179359e-07
6.3332753e-08
3.5862493e-07
6.3369309e-08
3.5523095e-07
6.2625597e-08
3.5166297e-07
6.1229155e-08
3.4797537e-07
5.929456e-08
3.4422344e-07
5.6921443e-08
3.4046059e-07
5.4194528e-08
3.3673669e-07
5.1184786e-08
3.330972e-07
4.7950627e-08
3.2958107e-07
4.4538607e-08
3.2621847e-07
4.0984857e-08
3.2302979e-07
3.7317271e-08
3.2002617e-07
3.3557861e-08
3.1721086e-07
2.9724772e-08
3.1458089e-07
2.583371e-08
3.1212868e-07
2.189895e-08
3.0984332e-07
1.7933896e-08
3.0771165e-07
1.3951454e-08
3.0571909e-07
9.9641502e-09
3.0385025e-07
5.9842709e-09
3.020893e-07
2.0238239e-09
3.0042049e-07
-1.9055596e-09
2.988282e-07
-5.7924879e-09
2.9729723e-07
-9.6260894e-09
2.9581294e-07
-1.3395946e-08
2.9436131e-07
-1.7092133e-08
2.9292911e-07
-2.0705271e-08
2.9150387e-07
-2.4226545e-08
2.9007397e-07
-2.7647709e-08
2.8862864e-07
-3.0961101e-08
2.8715798e-07
-3.4159633e-08
2.8565297e-07
-3.7236797e-08
2.8410549e-07
-4.018665e-08
2.8250829e-07
-4.3003807e-08
2.8085502e-07
-4.5683416e-08
2.7914022e-07
-4.8221146e-08
2.7735932e-07
-5.0613159e-08
2.7550844e-07
-5.2856094e-08
2.735841e-07
-5.4947012e-08
2.7158288e-07
-5.6883457e-08
2.6950183e-07
-5.8663653e-08
-6.0286261e-08
3.6321257e-07
1.1383861e-08
3.6440205e-07
2.1972887e-08
3.6529379e-07
2.8402318e-08
3.6581107e-07
3.4265802e-08
3.6594647e-07
4.0336623e-08
3.6570432e-07
4.6258225e-08
3.6508675e-07
5.1506657e-08
3.6409552e-07
5.5728675e-08
3.6273718e-07
5.8780334e-08
3.6102706e-07
6.0666638e-08
3.5899063e-07
6.1474295e-08
3.5666297e-07
6.1324801e-08
3.5408685e-07
6.0347768e-08
3.5131044e-07
5.8667901e-08
3.4838484e-07
5.6399407e-08
3.453616e-07
5.3643965e-08
3.4229053e-07
5.0490462e-08
3.39218e-07
4.7015532e-08
3.3618567e-07
4.3284258e-08
3.3322901e-07
3.935099e-08
3.3037621e-07
3.5260538e-08
3.2764772e-07
3.1049711e-08
3.2505656e-07
2.6748948e-08
3.226091e-07
2.2383804e-08
3.2030616e-07
1.7976148e-08
3.1814405e-07
1.3545111e-08
3.161156e-07
9.1077519e-09
3.1421102e-07
4.6795987e-09
3.1241873e-07
2.7492215e-10
3.1072586e-07
-4.0929064e-09
3.0911882e-07
-8.4114653e-09
3.075836e-07
-1.2669144e-08
3.0610615e-07
-1.6855075e-08
3.0467263e-07
-2.0959131e-08
3.0326958e-07
-2.4971893e-08
3.0188408e-07
-2.8884627e-08
3.0050387e-07
-3.2689285e-08
2.9911741e-07
-3.6378484e-08
2.9771396e-07
-3.9945495e-08
2.9628358e-07
-4.3384221e-08
2.9481718e-07
-4.6689172e-08
2.9330655e-07
-4.9855449e-08
2.9174431e-07
-5.2878709e-08
2.9012397e-07
-5.5755145e-08
2.8843991e-07
-5.8481449e-08
2.8668741e-07
-6.1054804e-08
2.8486265e-07
-6.3472853e-08
2.8296254e-07
-6.5733688e-08
2.8098436e-07
-6.783572e-08
2.789252e-07
-6.9777601e-08
2.7678256e-07
-7.155924e-08
-7.318285e-08
3.5349938e-07
1.0893959e-08
3.5476846e-07
2.1006037e-08
3.5580571e-07
2.7200955e-08
3.5654421e-07
3.2932542e-08
3.569756e-07
3.8911653e-08
3.5709762e-07
4.4758635e-08
3.5690361e-07
4.994002e-08
3.5638638e-07
5.4095713e-08
3.5554422e-07
5.7073973e-08
3.5438485e-07
5.8870857e-08
3.5292665e-07
5.9564086e-08
3.5119795e-07
5.9267334e-08
3.4923503e-07
5.8104465e-08
3.4707966e-07
5.6196902e-08
3.4477659e-07
5.3658036e-08
3.4237104e-07
5.0591043e-08
3.3990677e-07
4.7088237e-08
3.3742451e-07
4.3231134e-08
3.3496061e-07
3.9090774e-08
3.3254602e-07
3.4728301e-08
3.3020559e-07
3.0195821e-08
3.2795781e-07
2.5537496e-08
3.2581501e-07
2.0790717e-08
3.2378387e-07
1.5987256e-08
3.2186614e-07
1.1154267e-08
3.2005946e-07
6.3151811e-09
3.1835813e-07
1.4904459e-09
3.1675397e-07
-3.3018504e-09
3.1523681e-07
-8.0456206e-09
3.1379513e-07
-1.2726491e-08
3.1241653e-07
-1.7331565e-08
3.1108818e-07
-2.1849222e-08
3.0979709e-07
-2.6268972e-08
3.0853047e-07
-3.058136e-08
3.0727582e-07
-3.4777884e-08
3.0602117e-07
-3.8850929e-08
3.0475519e-07
-4.2793704e-08
3.0346723e-07
-4.6600197e-08
3.0214743e-07
-5.0265118e-08
3.0078677e-07
-5.3783855e-08
2.9937703e-07
-5.7152428e-08
2.9791085e-07
-6.0367441e-08
2.9638174e-07
-6.3426037e-08
2.9478404e-07
-6.6325861e-08
2.9311297e-07
-6.9065016e-08
2.9136464e-07
-7.164206e-08
2.8953603e-07
-7.4056011e-08
2.8762499e-07
-7.6306417e-08
2.8563004e-07
-7.8393244e-08
2.8354924e-07
-8.0316053e-08
2.8137782e-07
-8.2073198e-08
-8.3681614e-08
3.440098e-07
1.0462923e-08
3.4524871e-07
2.0167209e-08
3.4625861e-07
2.6163016e-08
3.4699599e-07
3.1777479e-08
3.4746775e-07
3.7667495e-08
3.4768065e-07
4.3436138e-08
3.4763259e-07
4.8544517e-08
3.4731785e-07
5.2628542e-08
3.4673402e-07
5.5530742e-08
3.4588639e-07
5.7239864e-08
3.4478949e-07
5.7826004e-08
3.4346656e-07
5.73961e-08
3.419478e-07
5.6069025e-08
3.4026828e-07
5.3963348e-08
3.3846554e-07
5.1191769e-08
3.3657747e-07
4.7858778e-08
3.3464063e-07
4.4059669e-08
3.3268884e-07
3.9880201e-08
3.3075203e-07
3.5396588e-08
3.2885544e-07
3.0675774e-08
3.2701919e-07
2.5775973e-08
3.2525807e-07
2.074742e-08
3.2358174e-07
1.5633228e-08
3.2199502e-07
1.0470295e-08
3.2049851e-07
5.2901794e-09
3.1908927e-07
1.2000001e-10
3.1776146e-07
-5.016799e-09
3.1650689e-07
-1.0099951e-08
3.1531558e-07
-1.5111929e-08
3.1417638e-07
-2.0037506e-08
3.1307738e-07
-2.4863412e-08
3.1200634e-07
-2.957808e-08
3.1095093e-07
-3.4171429e-08
3.0989904e-07
-3.8634702e-08
3.0883897e-07
-4.2960323e-08
3.0775954e-07
-4.714178e-08
3.0665026e-07
-5.1173518e-08
3.0550137e-07
-5.5050847e-08
3.0430392e-07
-5.8769859e-08
3.0304979e-07
-6.2327354e-08
3.0173172e-07
-6.5720762e-08
3.0034331e-07
-6.8948085e-08
2.9887898e-07
-7.2007822e-08
2.9733401e-07
-7.4898917e-08
2.9570451e-07
-7.7620711e-08
2.9398735e-07
-8.0172943e-08
2.9218027e-07
-8.2555853e-08
2.9028194e-07
-8.4770448e-08
2.8829206e-07
-8.6818516e-08
2.8621096e-07
-8.8701738e-08
2.8403876e-07
-9.0420975e-08
-9.1991667e-08
3.3475474e-07
1.0105097e-08
3.3590459e-07
1.9505419e-08
3.3679151e-07
2.5372152e-08
3.3740051e-07
3.0913738e-08
3.3776128e-07
3.6739034e-08
3.3789788e-07
4.2438962e-08
3.3782048e-07
4.7473763e-08
3.3753149e-07
5.1479247e-08
3.3703313e-07
5.4295506e-08
3.3633244e-07
5.5906802e-08
3.3544312e-07
5.6378002e-08
3.3438544e-07
5.5811308e-08
3.3318493e-07
5.4322157e-08
3.3187063e-07
5.2027356e-08
3.3047308e-07
4.9039579e-08
3.2902274e-07
4.5464878e-08
3.2754853e-07
4.1401423e-08
3.260767e-07
3.6938838e-08
3.2462999e-07
3.2157892e-08
3.2322705e-07
2.7130507e-08
3.2188214e-07
2.1920011e-08
3.2060506e-07
1.6581635e-08
3.194013e-07
1.1163137e-08
3.1827234e-07
5.7055518e-09
3.172162e-07
2.4402985e-10
3.1622802e-07
-5.1912689e-09
3.1530045e-07
-1.0574605e-08
3.1442423e-07
-1.5884118e-08
3.1358872e-07
-2.1101227e-08
3.1278244e-07
-2.6210144e-08
3.1199343e-07
-3.1197477e-08
3.1120957e-07
-3.6051909e-08
3.1041888e-07
-4.076392e-08
3.0960973e-07
-4.5325562e-08
3.0877102e-07
-4.9730263e-08
3.078923e-07
-5.3972656e-08
3.0696388e-07
-5.8048431e-08
3.0597689e-07
-6.1954211e-08
3.0492331e-07
-6.568743e-08
3.03796e-07
-6.9246238e-08
3.0258871e-07
-7.2629401e-08
3.0129605e-07
-7.5836211e-08
2.999135e-07
-7.8866401e-08
2.9843735e-07
-8.1720058e-08
2.9686458e-07
-8.4397562e-08
2.9519277e-07
-8.6899552e-08
2.9342e-07
-8.92272e-08
2.9154602e-07
-9.1383571e-08
2.8957419e-07
-9.3374066e-08
2.8750613e-07
-9.5198988e-08
2.8534935e-07
-9.6870286e-08
-9.8379036e-08
3.2573752e-07
9.8239674e-09
3.267695e-07
1.9037256e-08
3.2748514e-07
2.486039e-08
3.2789888e-07
3.0387685e-08
3.2806609e-07
3.6183833e-08
3.2803193e-07
4.1831762e-08
3.2782296e-07
4.679515e-08
3.2745357e-07
5.0713805e-08
3.269341e-07
5.3429109e-08
3.2627619e-07
5.4924182e-08
3.2549511e-07
5.5261608e-08
3.2460999e-07
5.454136e-08
3.2364305e-07
5.2877494e-08
3.2261817e-07
5.0386606e-08
3.2155947e-07
4.7182439e-08
3.2049016e-07
4.3373238e-08
3.1943142e-07
3.9060263e-08
3.1840167e-07
3.4336877e-08
3.17416e-07
2.9288007e-08
3.1648582e-07
2.3989905e-08
3.1561878e-07
1.8510206e-08
3.1481879e-07
1.2908206e-08
3.1408619e-07
7.2353568e-09
3.1341814e-07
1.5359205e-09
3.1280918e-07
-4.1521306e-09
3.122515e-07
-9.7964514e-09
3.1173541e-07
-1.5369779e-08
3.1124992e-07
-2.0849229e-08
3.1078322e-07
-2.6215656e-08
3.1032302e-07
-3.1453137e-08
3.0985693e-07
-3.654851e-08
3.0937272e-07
-4.1491001e-08
3.0885854e-07
-4.6271879e-08
3.0830314e-07
-5.0884185e-08
3.0769596e-07
-5.5322474e-08
3.0702726e-07
-5.958261e-08
3.0628816e-07
-6.3661575e-08
3.0547071e-07
-6.7557316e-08
3.0456789e-07
-7.1268596e-08
3.0357361e-07
-7.4794875e-08
3.024827e-07
-7.8136192e-08
3.0129093e-07
-8.1293058e-08
2.9999493e-07
-8.4266334e-08
2.985921e-07
-8.705714e-08
2.9708041e-07
-8.9666733e-08
2.954579e-07
-9.2096344e-08
2.9372158e-07
-9.4347088e-08
2.9186931e-07
-9.6423378e-08
2.8990991e-07
-9.8338183e-08
2.878676e-07
-1.0009874e-07
2.8574268e-07
-1.0170541e-07
-1.0313175e-07
3.169571e-07
9.6174023e-09
3.1785953e-07
1.8761609e-08
3.1838359e-07
2.4630432e-08
3.1857233e-07
3.0206423e-08
3.1850728e-07
3.6012597e-08
3.1825607e-07
4.1627182e-08
3.1786348e-07
4.6521138e-08
3.173579e-07
5.0342223e-08
3.1675973e-07
5.2936905e-08
3.1608699e-07
5.429069e-08
3.1535803e-07
5.4467063e-08
3.1459215e-07
5.3566579e-08
3.1380918e-07
5.1704231e-08
3.1302856e-07
4.8998292e-08
3.1226848e-07
4.5564942e-08
3.1154508e-07
4.1515505e-08
3.1087185e-07
3.6954785e-08
3.1025922e-07
3.197998e-08
3.0971434e-07
2.667993e-08
3.0924103e-07
2.1134735e-08
3.0883984e-07
1.541563e-08
3.085082e-07
9.5851661e-09
3.0824075e-07
3.6975952e-09
3.0802982e-07
-2.2003919e-09
3.0786578e-07
-8.0689012e-09
3.0773731e-07
-1.38743e-08
3.0763203e-07
-1.9588525e-08
3.0753688e-07
-2.5188299e-08
3.0743852e-07
-3.06545e-08
3.0732366e-07
-3.5971556e-08
3.0717933e-07
-4.1126968e-08
3.0699309e-07
-4.6110841e-08
3.0675319e-07
-5.0915527e-08
3.0644873e-07
-5.5535259e-08
3.0606976e-07
-5.9965891e-08
3.0560725e-07
-6.4204618e-08
3.0505324e-07
-6.8249794e-08
3.0440076e-07
-7.2100706e-08
3.0364385e-07
-7.5757459e-08
3.0277757e-07
-7.922079e-08
3.0179796e-07
-8.2491987e-08
3.0070204e-07
-8.5572722e-08
2.9948777e-07
-8.8464981e-08
2.9815392e-07
-9.1170904e-08
2.966998e-07
-9.3692762e-08
2.9512418e-07
-9.603265e-08
2.9342238e-07
-9.8191498e-08
2.9158399e-07
-1.0017182e-07
2.8961619e-07
-1.0199047e-07
2.8761492e-07
-1.0367764e-07
2.8550011e-07
-1.0519277e-07
-1.0652059e-07
3.0840986e-07
9.4807971e-09
3.0918026e-07
1.8668717e-08
3.0950823e-07
2.4669781e-08
3.0946411e-07
3.0355796e-08
3.0915505e-07
3.6209717e-08
3.0867124e-07
4.1807746e-08
3.0807622e-07
4.6631589e-08
3.0741318e-07
5.0340666e-08
3.0671344e-07
5.279028e-08
3.0600227e-07
5.3971872e-08
3.0530186e-07
5.3953146e-08
3.046323e-07
5.2838135e-08
3.0401149e-07
5.074532e-08
3.0345483e-07
4.7796663e-08
3.0297472e-07
4.411233e-08
3.0258035e-07
3.9807751e-08
3.0227745e-07
3.4991903e-08
3.0206838e-07
2.9765993e-08
3.0195215e-07
2.4222672e-08
3.0192477e-07
1.8445437e-08
3.0197939e-07
1.2508531e-08
3.0210672e-07
6.4769475e-09
3.0229544e-07
4.0696533e-10
3.0253276e-07
-5.6531896e-09
3.0280455e-07
-1.1662614e-08
3.0309589e-07
-1.7587261e-08
3.0339154e-07
-2.339898e-08
3.0367628e-07
-2.907484e-08
3.0393521e-07
-3.4596312e-08
3.0415403e-07
-3.9948762e-08
3.043192e-07
-4.5120765e-08
3.0441814e-07
-5.0103728e-08
3.0443928e-07
-5.4891338e-08
3.0437219e-07
-5.9479305e-08
3.0420758e-07
-6.3864909e-08
3.0393732e-07
-6.8046844e-08
3.035544e-07
-7.2024857e-08
3.0305297e-07
-7.5799666e-08
3.0242824e-07
-7.9372662e-08
3.0167648e-07
-8.2745892e-08
3.00795e-07
-8.5921801e-08
2.9978216e-07
-8.8903249e-08
2.9863732e-07
-9.1693287e-08
2.9736078e-07
-9.4295209e-08
2.9595323e-07
-9.671239e-08
2.9441443e-07
-9.8948615e-08
2.9274015e-07
-1.0100893e-07
2.9091218e-07
-1.0289793e-07
2.8891022e-07
-1.0461258e-07
2.8695766e-07
-1.0615196e-07
2.8483551e-07
-1.0755762e-07
-1.087966e-07
3.0009078e-07
9.4088866e-09
3.007311e-07
1.8745618e-08
3.0086671e-07
2.4959412e-08
3.0059397e-07
3.0811681e-08
3.0004492e-07
3.6746457e-08
2.9933179e-07
4.23403e-08
2.9853677e-07
4.7088796e-08
2.9771789e-07
5.0666663e-08
2.9691753e-07
5.2941658e-08
2.9616834e-07
5.3914783e-08
2.9549647e-07
5.3661241e-08
2.9492279e-07
5.2291622e-08
2.9446332e-07
4.993042e-08
2.9412929e-07
4.6705456e-08
2.9392728e-07
4.2742408e-08
2.9385931e-07
3.8161989e-08
2.9392327e-07
3.3077925e-08
2.941132e-07
2.7595746e-08
2.9441995e-07
2.1811707e-08
2.9483147e-07
1.5812387e-08
2.953335e-07
9.674311e-09
2.9590989e-07
3.4642392e-09
2.9654343e-07
-2.7604364e-09
2.9721603e-07
-8.9507496e-09
2.979092e-07
-1.5065852e-08
2.9860449e-07
-2.1072007e-08
2.9928393e-07
-2.6941868e-08
2.9993022e-07
-3.2653455e-08
3.0052711e-07
-3.8189587e-08
3.0105941e-07
-4.3537e-08
3.0151325e-07
-4.868592e-08
3.0187603e-07
-5.3629322e-08
3.0213661e-07
-5.8362652e-08
3.0228515e-07
-6.2883204e-08
3.0231327e-07
-6.7189975e-08
3.0221379e-07
-7.128315e-08
3.019809e-07
-7.5164059e-08
3.0160991e-07
-7.8834745e-08
3.0109732e-07
-8.2298004e-08
3.0044065e-07
-8.5557017e-08
2.9963855e-07
-8.8615443e-08
2.9869058e-07
-9.1477084e-08
2.9759734e-07
-9.4146015e-08
2.963601e-07
-9.662628e-08
2.949806e-07
-9.8922118e-08
2.9345994e-07
-1.0103804e-07
2.9179587e-07
-1.0297907e-07
2.8997768e-07
-1.0474551e-07
2.8802775e-07
-1.0635418e-07
2.8602426e-07
-1.0779367e-07
2.8386112e-07
-1.0907614e-07
-1.1020514e-07
2.919941e-07
9.3967611e-09
2.9250801e-07
1.8979125e-08
2.9245863e-07
2.5478766e-08
2.919677e-07
3.1546645e-08
2.9119128e-07
3.758898e-08
2.9026322e-07
4.3184867e-08
2.8928379e-07
4.7846964e-08
2.8832551e-07
5.1268766e-08
2.8744142e-07
5.3334235e-08
2.8667118e-07
5.4057476e-08
2.8604441e-07
5.3524659e-08
2.8558234e-07
5.1855907e-08
2.8529858e-07
4.9184416e-08
2.8519982e-07
4.564588e-08
2.852863e-07
4.1373163e-08
2.855526e-07
3.6493249e-08
2.8598837e-07
3.1125302e-08
2.8657927e-07
2.5379247e-08
2.8730768e-07
1.9354871e-08
2.881536e-07
1.3141244e-08
2.8909526e-07
6.8166056e-09
2.901099e-07
4.4855492e-10
2.9117442e-07
-5.9051169e-09
2.9226576e-07
-1.2195855e-08
2.9336127e-07
-1.8383637e-08
2.9443931e-07
-2.443603e-08
2.9547942e-07
-3.0327154e-08
2.9646267e-07
-3.6036839e-08
2.9737164e-07
-4.1549746e-08
2.9819066e-07
-4.6854657e-08
2.9890575e-07
-5.1943761e-08
2.995047e-07
-5.6812103e-08
2.9997692e-07
-6.1457023e-08
3.0031352e-07
-6.5877762e-08
3.0050711e-07
-7.007503e-08
3.005518e-07
-7.4050748e-08
3.0044299e-07
-7.7807717e-08
3.0017741e-07
-8.134947e-08
2.9975284e-07
-8.4680018e-08
2.9916826e-07
-8.7803781e-08
2.9842356e-07
-9.0725382e-08
2.975197e-07
-9.3449626e-08
2.9645846e-07
-9.5981315e-08
2.9524231e-07
-9.8325197e-08
2.9387371e-07
-1.0048571e-07
2.9235446e-07
-1.0246742e-07
2.9068642e-07
-1.042769e-07
2.8887627e-07
-1.0592108e-07
2.8694866e-07
-1.0741819e-07
2.8487927e-07
-1.0874225e-07
2.826762e-07
-1.0990366e-07
-1.1091966e-07
2.8411379e-07
9.4402883e-09
2.8450509e-07
1.9357431e-08
2.8427926e-07
2.6208352e-08
2.8358311e-07
3.2533597e-08
2.8259643e-07
3.8702719e-08
2.8147403e-07
4.4299741e-08
2.8033378e-07
4.8857601e-08
2.7926202e-07
5.2092252e-08
2.7832171e-07
5.3907656e-08
2.7755866e-07
5.4334734e-08
2.7700508e-07
5.3474099e-08
2.7668165e-07
5.1458483e-08
2.7659873e-07
4.8432368e-08
2.7675761e-07
4.4541363e-08
2.7715154e-07
3.9927021e-08
2.7776705e-07
3.4723545e-08
2.785852e-07
2.9056007e-08
2.7958293e-07
2.3038761e-08
2.8073413e-07
1.6774801e-08
2.820108e-07
1.0355092e-08
2.8338387e-07
3.8587813e-09
2.8482422e-07
-2.6465325e-09
2.8630322e-07
-9.1036453e-09
2.8779316e-07
-1.546544e-08
2.8926778e-07
-2.1693654e-08
2.9070269e-07
-2.7758022e-08
2.9207546e-07
-3.3634932e-08
2.9336592e-07
-3.9306734e-08
2.94556e-07
-4.476053e-08
2.9562993e-07
-4.9987666e-08
2.9657404e-07
-5.4982698e-08
2.9737679e-07
-5.974307e-08
2.9802853e-07
-6.426826e-08
2.9852155e-07
-6.8559627e-08
2.9884973e-07
-7.2619713e-08
2.9900858e-07
-7.6452225e-08
2.9899498e-07
-8.0061469e-08
2.9880709e-07
-8.345243e-08
2.9844419e-07
-8.6630303e-08
2.9790667e-07
-8.960065e-08
2.9719585e-07
-9.2369001e-08
2.9631404e-07
-9.4941052e-08
2.9526439e-07
-9.7322311e-08
2.9405076e-07
-9.9518225e-08
2.9267704e-07
-1.0153346e-07
2.9114647e-07
-1.0337267e-07
2.8946309e-07
-1.050445e-07
2.876422e-07
-1.0656892e-07
2.8568048e-07
-1.0793631e-07
2.8356338e-07
-1.0913257e-07
2.8131909e-07
-1.1017656e-07
-1.1107555e-07
2.7644377e-07
9.5362715e-09
2.767157e-07
1.9870659e-08
2.7632172e-07
2.713094e-08
2.7543407e-07
3.3747462e-08
2.7425619e-07
4.005455e-08
2.7296354e-07
4.5643932e-08
2.7169099e-07
5.0072268e-08
2.7053782e-07
5.3082002e-08
2.6957595e-07
5.4601007e-08
2.6885606e-07
5.4681044e-08
2.6841177e-07
5.3440607e-08
2.6826183e-07
5.1028257e-08
2.6841221e-07
4.7602159e-08
2.6885761e-07
4.3319919e-08
2.6958341e-07
3.8332951e-08
2.7056734e-07
3.2783598e-08
2.7178145e-07
2.6802924e-08
2.7319358e-07
2.0509704e-08
2.7476918e-07
1.4009437e-08
2.7647229e-07
7.3943802e-09
2.7826694e-07
7.4347314e-10
2.8011797e-07
-5.8764362e-09
2.8199176e-07
-1.241006e-08
2.8385653e-07
-1.8812549e-08
2.8568308e-07
-2.5048553e-08
2.874448e-07
-3.1090642e-08
2.8911802e-07
-3.6918473e-08
2.9068177e-07
-4.2517356e-08
2.9211801e-07
-4.7877632e-08
2.9341124e-07
-5.2993432e-08
2.9454864e-07
-5.7862275e-08
2.9551963e-07
-6.2484037e-08
2.9631595e-07
-6.6860765e-08
2.969312e-07
-7.0995822e-08
2.9736092e-07
-7.4893887e-08
2.976021e-07
-7.8560239e-08
2.9765331e-07
-8.2000905e-08
2.9751421e-07
-8.5222036e-08
2.9718572e-07
-8.8230172e-08
2.9666961e-07
-9.1031691e-08
2.959687e-07
-9.3633153e-08
2.9508654e-07
-9.6040809e-08
2.9402762e-07
-9.8261022e-08
2.9279703e-07
-1.0029979e-07
2.9140025e-07
-1.0216248e-07
2.8983969e-07
-1.0385148e-07
2.8813502e-07
-1.0539386e-07
2.8628402e-07
-1.0678491e-07
2.8426281e-07
-1.0801209e-07
2.8209807e-07
-1.0907908e-07
2.7980485e-07
-1.1000305e-07
-1.1079134e-07
2.6897804e-07
9.682418e-09
2.6913297e-07
2.0510993e-08
2.6857835e-07
2.8231869e-08
2.6751277e-07
3.5165635e-08
2.6616359e-07
4.1613505e-08
2.6472683e-07
4.7177996e-08
2.633537e-07
5.1443634e-08
2.6215552e-07
5.418356e-08
2.6121173e-07
5.5354087e-08
2.6057654e-07
5.5031803e-08
2.6028317e-07
5.3356903e-08
2.6034696e-07
5.0496729e-08
2.6076778e-07
4.6625724e-08
2.6153257e-07
4.1915087e-08
2.6261761e-07
3.6527348e-08
2.6399114e-07
3.0613292e-08
2.656155e-07
2.4310125e-08
2.6744946e-07
1.7740383e-08
2.6944981e-07
1.1011489e-08
2.7157307e-07
4.215764e-09
2.737767e-07
-2.5688644e-09
2.7602021e-07
-9.2776758e-09
2.7826547e-07
-1.5858269e-08
2.804776e-07
-2.2269351e-08
2.8262501e-07
-2.8479211e-08
2.8467981e-07
-3.4464356e-08
2.8661758e-07
-4.0208194e-08
2.8841745e-07
-4.5699881e-08
2.9006176e-07
-5.0933229e-08
2.9153603e-07
-5.5905808e-08
2.9282855e-07
-6.0618121e-08
2.9393032e-07
-6.5072955e-08
2.9483455e-07
-6.927477e-08
2.9553668e-07
-7.3229291e-08
2.9603387e-07
-7.6943054e-08
2.96325e-07
-8.0423189e-08
2.9641022e-07
-8.3677076e-08
2.9629101e-07
-8.6712268e-08
2.9596976e-07
-8.9536229e-08
2.9544987e-07
-9.215636e-08
2.9473542e-07
-9.4579816e-08
2.9383136e-07
-9.6813604e-08
2.9274304e-07
-9.8864394e-08
2.914763e-07
-1.0073871e-07
2.9003813e-07
-1.0244346e-07
2.8844111e-07
-1.0398781e-07
2.8670381e-07
-1.0539422e-07
2.8478443e-07
-1.0664091e-07
2.8270735e-07
-1.0772571e-07
2.8049043e-07
-1.086666e-07
2.7814433e-07
-1.0946968e-07
-1.1015183e-07
2.6171083e-07
9.8771683e-09
2.6175019e-07