/*--------------------------------*- C++ -*----------------------------------*\
| =========                 |                                                 |
| \\      /  F ield         | OpenFOAM: The Open Source CFD Toolbox           |
|  \\    /   O peration     | Version:  2312                                  |
|   \\  /    A nd           | Website:  www.openfoam.com                      |
|    \\/     M anipulation  |                                                 |
\*---------------------------------------------------------------------------*/
FoamFile
{
    version     2.0;
    format      ascii;
    arch        "LSB;label=32;scalar=64";
    class       volScalarField;
    location    "0.03";
    object      Qdot;
}
// * * * * * * * * * * * * * * * * * * * * * * * * * * * * * * * * * * * * * //

dimensions      [1 -1 -3 0 0 0 0];

internalField   nonuniform List<scalar> 
3221
(
5.4204863e-06
1.9061482e-05
3.6440591e-05
5.7750571e-05
8.3035269e-05
0.00011125096
0.0001418095
0.00017463932
0.00020806288
0.00024218248
0.00027372855
0.0002996009
0.00030619816
0.00023888131
0.00018736276
0.00014833669
0.00012133759
0.00011204103
0.00011375599
0.00012133823
0.0001320198
0.00014418118
0.00015769568
0.00017259659
0.00018878015
0.00020634842
0.00022507517
0.00024461745
0.0002661463
0.00028885641
0.00031338208
0.00033998172
0.0003677706
0.0003971406
0.00042878741
0.00046181315
0.00049721651
0.0005343267
0.00057276725
0.00061350807
0.00065517195
0.00069974595
0.0007448389
0.00079190408
0.00083878028
0.0008882233
0.00093668048
0.00098698511
0.0010361614
0.001086402
0.0011343284
0.001182519
6.242496e-06
2.2348586e-05
4.3987554e-05
7.1860216e-05
0.00010670321
0.00014882939
0.00019827298
0.00025632401
0.00032208385
0.00039746886
0.0004813936
0.00057276675
0.00066836632
0.00075598277
0.00083561746
0.00091307659
0.0010019469
0.0011322144
0.0013142416
0.0015492663
0.0018423087
0.0021944826
0.002615025
0.0031154042
0.0037069059
0.00440637
0.0052312391
0.0062020736
0.0073462902
0.0086889425
0.010261923
0.012100475
0.014246768
0.016743124
0.019641377
0.022991742
0.026856073
0.031291964
0.036371043
0.042160416
0.048728639
0.056147807
0.064488005
0.073814841
0.084188324
0.095657482
0.10826269
0.12202924
0.13696401
0.15304643
0.17024207
0.18847803
7.6642728e-06
2.8404702e-05
5.8246953e-05
9.9284351e-05
0.00015505887
0.00022856738
0.00032436052
0.0004469123
0.00060381962
0.00080238967
0.001054363
0.0013699451
0.0017655691
0.0022568539
0.0028642283
0.0036217283
0.0045765978
0.0058166675
0.0074340972
0.0095313383
0.012235764
0.015698854
0.020124603
0.025753645
0.03290636
0.041966992
0.053423502
0.067872272
0.086048631
0.10885009
0.13736816
0.17291447
0.21707599
0.27171897
0.33907756
0.42173595
0.52272503
0.64550661
0.79403262
0.97273565
1.1865427
1.4408596
1.7415072
2.0946705
2.5067678
2.9843395
3.5338458
4.1614746
4.8728591
5.6728258
6.5650894
7.552107
9.4554387e-06
3.6440738e-05
7.7923968e-05
0.0001398299
0.00023011626
0.00035976438
0.00054230882
0.00079691413
0.0011532495
0.0016449266
0.002323904
0.0032570179
0.004540066
0.00629648
0.0086972408
0.011981425
0.016474414
0.022632572
0.031067023
0.042591177
0.058283707
0.079574159
0.1083617
0.14716083
0.1992799
0.26904738
0.36210634
0.48575683
0.64939414
0.86502556
1.1478882
1.5171759
1.9968826
2.6167421
3.4132838
4.4309677
5.7233801
7.3544434
9.3995673
11.946696
15.09713
18.966044
23.682553
29.389214
36.240866
44.402652
54.047145
65.350534
78.487788
93.62689
110.9227
130.51533
1.1450179e-05
4.5984116e-05
0.0001025487
0.00019280182
0.00033365723
0.00054903786
0.00087576484
0.0013655935
0.0020958627
0.0031792314
0.0047787228
0.0071334652
0.010589446
0.015648638
0.023024173
0.033758929
0.049335014
0.071869484
0.10436449
0.15102988
0.21777455
0.31281099
0.4475194
0.63756885
0.90439534
1.2771155
1.7950284
2.5107416
3.4941427
4.8373104
6.6604948
9.1193602
12.413487
16.796277
22.586218
30.179355
40.062798
52.828878
69.189374
89.989113
116.21809
149.02094
189.7026
239.72894
300.72089
374.44098
462.77131
567.68186
691.18906
835.30447
1001.98
1193.1078
1.3490622e-05
5.6465671e-05
0.00013112778
0.00025701298
0.0004651776
0.00080331173
0.0013444969
0.0022072082
0.0035647588
0.0056975939
0.0090254191
0.014198654
0.022201811
0.034536462
0.053463041
0.082384176
0.12636928
0.19294861
0.29321196
0.44338902
0.6670505
0.99819524
1.4854747
2.1979646
3.2329147
4.7260638
6.8651474
9.9073922
14.201809
20.217193
28.576701
40.099899
55.85276
77.206178
105.90279
144.13155
194.6087
260.66293
346.32164
456.39409
596.54639
773.36235
994.38338
1268.1207
1604.0325
2012.4606
2504.5209
3091.9444
3786.8678
4601.5742
5548.2223
6638.9312
1.5595848e-05
6.749311e-05
0.00016297057
0.00033217097
0.00062537293
0.0011265483
0.0019694131
0.0033744987
0.0056995916
0.0095194743
0.015761088
0.025905806
0.042305191
0.068673002
0.11084528
0.17789848
0.28388234
0.4503532
0.71009075
1.1125478
1.7316476
2.6768367
4.1086504
6.2601516
9.4662634
14.203121
21.140227
31.208363
45.686672
66.31224
95.415663
136.08535
192.36283
269.46974
374.06553
514.53241
701.2817
947.07192
1267.3262
1680.4328
2208.01
2875.1131
3710.3615
4745.9613
6017.6027
7564.2135
9427.5553
11651.659
14282.1
17365.124
20946.796
25073.636
1.7716451e-05
7.9309969e-05
0.00019788074
0.0004180046
0.00081610184
0.00152441
0.0027680464
0.0049270654
0.008643709
0.014998324
0.025785697
0.043986294
0.074499941
0.12532582
0.20941852
0.34758467
0.57291985
0.93758885
1.5229677
2.4546741
3.9245467
6.2222272
9.7799679
15.235161
23.516202
35.958345
54.457456
81.670229
121.27008
178.26789
259.40571
373.62988
532.64685
751.56048
1049.5842
1450.8144
1985.0437
2688.5844
3605.0658
4786.1588
6292.1794
8192.5161
10565.826
13499.946
17091.481
21445.019
26671.97
32889.02
40216.211
48774.737
58684.998
70069.541
1.9877319e-05
9.1819476e-05
0.00023604852
0.00051521598
0.0010399181
0.0020085125
0.0037704509
0.0069404463
0.012590712
0.022577981
0.040099956
0.070618205
0.12336782
0.2138551
0.367844
0.62771765
1.0624447
1.7830204
2.9659132
4.8882958
7.9799807
12.89871
20.637516
32.674908
51.181239
79.296739
121.49881
184.07729
275.73665
408.34227
597.82454
865.24859
1238.0484
1751.413
2449.8001
3388.5346
4635.4388
6272.4211
8396.941
11123.256
14583.352
18927.458
24324.046
30959.246
39035.593
48770.079
60391.472
74136.902
90247.653
108964.13
130521.17
155156.95
2.2127191e-05
0.00010487287
0.00027867362
0.00062596688
0.0013031611
0.0025944587
0.0050222562
0.0095285805
0.017808365
0.032887257
0.060103665
0.10880896
0.19521833
0.3471585
0.61183868
1.0684353
1.8480575
3.1650198
5.3648815
8.9969878
14.92197
24.467972
39.653284
63.497209
100.44498
156.93629
242.14909
368.95086
555.08673
824.62816
1209.6954
1752.4519
2507.3509
3543.5908
4947.7136
6826.2532
9308.3209
12547.993
16726.352
22053.038
28767.143
37137.331
47461.05
60062.767
75291.142
93515.154
115119.15
140496.76
170043.23
204144.45
243155.82
287350
2.4425946e-05
0.0001193773
0.00032573994
0.00075426103
0.0016157225
0.0033109384
0.0065943297
0.012867333
0.0247157
0.046869925
0.08788005
0.16304612
0.29943644
0.54436277
0.97946882
1.7437239
3.0703341
5.3448471
9.1949213
15.626039
26.222674
43.439886
71.016781
114.5496
182.26758
286.05845
442.79091
675.97759
1017.8133
1511.6068
2214.603
3201.1626
4566.237
6429.0368
8936.7612
12268.223
16637.179
22295.162
29533.614
38685.109
50123.51
64262.915
81555.288
102486.76
127572.56
157350.76
192374.79
233205.14
280401.04
334516.96
396132.89
463968.91
2.6873458e-05
0.00013518155
0.00037943899
0.00090404656
0.0019922964
0.0041983006
0.0085950622
0.017222937
0.033948123
0.065990332
0.12667624
0.24031575
0.45065302
0.83532636
1.5301209
2.7688482
4.9476683
8.7266431
15.186499
26.065365
44.10774
73.566968
120.9109
195.78824
312.3183
490.76684
759.66622
1158.4248
1740.4479
2576.762
3760.0957
5409.3264
7674.1563
10739.837
14831.727
20219.427
27220.255
36201.786
47583.238
61835.501
79479.669
101083.99
127259.25
158652.59
195939.98
239817.46
290991.15
350165.86
418028.83
495208.49
582095.81
676977.71
2.9517614e-05
0.0001528838
0.00044180249
0.0010824426
0.0024537666
0.0053186666
0.011183576
0.023004796
0.046485028
0.09252007
0.18158823
0.3516863
0.67220354
1.2678898
2.3592608
4.3293265
7.8313685
13.958779
24.506369
42.362277
72.080732
120.69713
198.85689
322.33585
514.03055
806.48915
1245.037
1891.5204
2828.6521
4164.8918
6039.7415
8629.2774
12151.689
16872.553
23109.551
31236.325
41685.175
54948.358
71577.778
92182.939
117427.1
148021.7
184719.14
228304.16
279584.14
339378.49
408507.75
487785.2
578027.39
680150.95
791653.45
915388.22
3.2410434e-05
0.00017289446
0.00051462104
0.0012990122
0.0030315439
0.0067572947
0.014600398
0.030822447
0.063834018
0.13000697
0.26068215
0.51488274
1.0018196
1.9199505
3.6230397
6.72941
12.297836
22.103498
39.059212
67.840612
115.78785
194.16847
319.89401
517.78295
823.45176
1286.8944
1976.772
2985.3828
4434.2212
6479.9706
9320.7052
13202.023
18422.786
25340.135
34373.428
46006.806
60790.125
79338.069
102327.34
130491.93
164616.53
205528.36
254087.56
311176.68
377689.33
454517.87
542537.38
642580.13
755407.51
881799.56
1018134
1171368.1
3.5574727e-05
0.00019600289
0.00060164405
0.0015655436
0.0037665041
0.0086417362
0.019197157
0.041606101
0.088324245
0.18405016
0.37687536
0.75863295
1.5012479
2.9199305
5.5802735
10.474767
19.305529
34.924022
61.994504
107.96439
184.43934
309.06979
508.05524
819.35798
1296.6888
2014.281
3072.4044
4603.4959
6778.7088
9814.6066
13979.67
19600.25
27065.58
36831.503
49422.588
65432.412
85521.842
110415.29
140894.99
177793.42
221984.18
274371.63
335879.69
407440.39
489982.17
584416.94
691617.93
812359.27
947162.13
1096271.8
1256814.5
1437883.1
3.916005e-05
0.00022276626
0.00070646319
0.0018996573
0.0047151622
0.011153119
0.025501151
0.056783354
0.12361413
0.2635887
0.55110939
1.1301237
2.2729192
4.4824747
8.6655137
16.416208
30.466516
55.377972
98.569129
171.78997
293.16482
489.92362
801.92263
1286.016
2021.2835
3115.0412
4709.4705
6988.6154
10185.417
14588.398
20547.575
28479.203
38868.966
52273.344
69318.939
90699.688
117171.99
149547.88
188686.44
235483.89
290862.54
355759.27
431113.87
517857.74
616903.17
729132.43
855379.97
996363.95
1152330.4
1319971.1
1506408.9
1711808.9
4.3115051e-05
0.00025385073
0.00083482146
0.0023237663
0.0059646062
0.014561237
0.034311393
0.07857497
0.17551325
0.38311488
0.81788154
1.708074
3.4893935
6.9715342
13.618373
26.003264
48.52274
88.475021
157.62967
274.42658
466.93903
776.71083
1263.5266
2011.1008
3133.5789
4782.6348
7154.8463
10498.951
15122.531
21397.658
29765.077
40736.565
54895.207
72893.475
95449.102
123338.88
157390.62
198473.59
247487.79
305352.59
372994.99
451338.3
541291.39
643738.78
759531.73
889484.37
1034405.7
1195320.8
1367540.7
1556218.5
1765562.4
1992332.5
4.74834e-05
0.00029067148
0.00099304243
0.0028689839
0.0076298978
0.019270343
0.046861602
0.11049033
0.25344426
0.56654323
1.2350253
2.6260472
5.4460442
11.013666
21.715352
41.736546
78.189016
142.77887
254.17344
441.21963
747.13402
1234.7196
1992.5666
3142.0846
4845.0814
7311.4878
10806.743
15658.315
22260.847
31079.486
42651.061
57582.933
76549.483
100286.36
129582.77
165272.07
208221.24
259319.51
319466.69
389561.71
470491.77
563122.76
668291.02
786795.8
919386.87
1066729.6
1229318
1407486.6
1596630
1806482
2034703.9
2280387.9
5.2327727e-05
0.00033444206
0.0011916903
0.0035819738
0.0098921015
0.025888652
0.065084918
0.15819183
0.37293482
0.85406812
1.9012335
4.1146505
8.6568985
17.704019
35.189988
67.982256
127.65583
233.04993
413.78341
714.86211
1202.4271
1970.5676
3148.9723
4911.0539
7482.0284
11146.358
16253.944
23224.514
32549.752
44792.913
60585.832
80623.446
105656.11
136480.11
173926.91
218851.52
272120.69
334601.24
407149.01
490598.84
585756.12
693390.59
814233.32
948977.63
1098278.8
1262703.5
1442297.5
1633091.4
1841928
2069821.2
2314754.3
2577551.1
5.8024037e-05
0.00038708621
0.0014422719
0.0045231948
0.013009326
0.035364745
0.092071776
0.23097915
0.56008879
1.3145639
2.9880955
6.579084
14.031228
28.985448
58.001917
112.4494
211.28099
384.90513
680.30468
1167.4455
1946.8544
3158.0457
4988.3023
7681.157
11543.83
16952.909
24357.652
34280.512
47314.692
64118.821
85409.056
111949.1
144538.75
184001.59
231172.55
286885.71
351962.99
427203.91
513376.91
611212.12
721396.37
844571
981334.86
1132260.9
1297961
1479362.3
1670799.2
1877551.5
2104301.3
2347040.7
2605916.9
2880841.5
6.4327821e-05
0.00045139642
0.0017622047
0.0057870713
0.017383143
0.049193425
0.13285289
0.34442625
0.8596626
2.0683236
4.7995403
10.743874
23.203247
48.353589
97.255989
188.88399
354.42412
643.03338
1129.09
1920.7576
3169.4216
5079.3128
7916.4749
12016.141
17787.659
25716.305
36361.643
50352.391
68378.127
91178.405
119530.07
154233.57
196099.15
245933.63
304528.25
372648.19
451023.73
540343.38
641248.8
754331.51
880131.47
1019137.3
1171788.2
1338474.5
1519518.5
1715026.5
1919519.4
2143464.3
2383695.4
2639205.5
2909985.8
3190049.6
7.1398265e-05
0.00052925592
0.0021771546
0.0075097119
0.023626221
0.069764729
0.19578911
0.5251693
1.3499773
3.3296249
7.8839406
17.926694
39.15497
82.180483
165.83789
321.99937
602.13228
1085.6383
1889.7185
3180.1579
5182.0842
8189.5644
12572.859
18782.276
27347.936
38875.201
54036.001
73556.726
98203.655
128767.04
166045
210828.2
263886.19
325955.85
397732.31
479862.3
572939.92
677504.44
794039.89
922976.01
1064690.3
1219510.5
1387715.4
1569520
1765097.7
1969978.6
2191422.6
2428831.2
2680672.2
2946895.5
3221631.8
3514301.5
7.9556639e-05
0.000625644
0.0027194523
0.0098968332
0.032704234
0.10100514
0.29506435
0.81969474
2.1709012
5.4877188
13.248846
30.563477
67.405345
142.21813
287.33044
556.50831
1034.7082
1849.6833
3184.6078
5290.4167
8496.2768
13216.653
19953.664
29294
41900.354
58498.021
79857.838
106776.99
140059.29
180496.42
228851.32
285844.57
352144.2
428359.02
515035.14
612655.31
721640.52
842353.25
975101.82
1120145.3
1277690.7
1447925
1630977.9
1826942.9
2031400.6
2250867.3
2485739.9
2733873.9
2995341.7
3264446.7
3549602.4
3850715.5
8.889986e-05
0.00074513613
0.0034423329
0.01325628
0.046165956
0.14948088
0.45526521
1.3109298
3.5774568
9.2635382
22.778468
53.227333
118.30072
250.35993
505.20202
973.64117
1795.4662
3174.6246
5393.8209
8826.292
13942.636
21311.086
31590.437
45515.951
63879.528
87506.118
117228.68
153863.94
198190.86
250933.14
312746.52
384211.1
465828.39
558022.39
661143.82
775476.51
901245.11
1038618.6
1187736.2
1348690.2
1521547.5
1706350
1903117.7
2107403.8
2324783.5
2557295.7
2801861.2
3058564.8
3321909.3
3599515.7
3892242.6
4197354.2
9.9778689e-05
0.00089488319
0.0044158728
0.018076565
0.066543984
0.22641285
0.71994776
2.1500216
6.0443886
16.018084
40.056249
94.626566
211.45697
447.7244
899.96598
1721.2131
3139.7928
5477.2339
9162.0867
14736.57
22853.952
34265.865
49800.435
70333.568
96756.571
129943.61
170722.11
219848.43
277990.36
345716.7
423493.82
511688.29
610574.24
720344.32
841122.31
972971.78
1115924.4
1269970.2
1435081.2
1611214.6
1798318.9
1996338.8
2200800.2
2416352.6
2646488.4
2887517.2
3139465.1
3396989.5
3667170.7
3951255.9
4246590.3
4553299.9
0.00011233875
0.0010858075
0.0057494273
0.025118253
0.098070762
0.35141772
1.1680671
3.6186303
10.473808
28.368518
72.005857
171.55601
384.41411
811.99164
1621.1025
3067.9129
5520.8108
9477.5403
15572.001
24567.689
37337.056
54828.549
78025.341
107900.9
145376.61
191285.74
246346.77
311147.15
386137.62
471635.59
567835.89
674826.82
792606.91
921115.53
1060239.6
1209838.3
1369756.9
1539838.9
1719934.3
1909903.8
2109618.1
2314571.2
2528677.1
2756434.6
2993843.8
3240927.5
3492498.4
3755418.9
4030604.6
4315881.9
4611391.7
4917328.1
0.000126777
0.001330255
0.007605246
0.03562121
0.14799123
0.5596157
1.946116
6.2533839
18.614995
51.437021
132.19919
316.761
709.5292
1490.401
2946.0143
5500.1826
9736.5647
16406.548
26417.564
40801.134
60663.857
87128.057
121270.37
164066.14
216345.79
278766.4
351799.49
435733.49
530688.14
636637.37
753434.67
880851.71
1018596.9
1166352
1323794.6
1490612.4
1666518
1851258.4
2044622.3
2246427.5
2452134.1
2665188.3
2890444.7
3124066
3366040.2
3611371.1
3867055.2
4133043.6
4407907.6
4691857.5
4985118.2
5287961.1
0.00014378271
0.0016496698
0.010233843
0.051630434
0.22897288
0.91540368
3.3324181
11.099574
33.927326
95.41476
247.58161
594.64658
1326.9111
2762.1745
5387.7176
9892.4031
17177.81
28340.444
44623.761
67345.67
97812.55
137233.24
186645.21
246861.56
318442.63
401691.91
496672.5
603237.13
721074.27
849745.61
988733.89
1137481.7
1295428.5
1462045.3
1636862.4
1819462
2009495.3
2206690.9
2410855.5
2617468.8
2829961.8
3052272.1
3281767
3518228.9
3756857.5
4005046.7
4261417.9
4525402.8
4797293.2
5077395.4
5366023.4
5663530
0.00016422598
0.0020703505
0.014031056
0.076607349
0.36377373
1.5398753
5.8686066
20.23831
63.381588
180.88424
472.22711
1132.6823
2508.3356
5155.4423
9888.6166
17799.906
30234.919
48722.681
74868.448
110227.72
156183.52
213846.44
283989.87
367024.69
463010.26
571692.68
692567.57
824941.07
968001.36
1120880.4
1282706.5
1452643
1629924.2
1813893.9
2004048.7
2199952.7
2401289.9
2607860.8
2815261.1
3027486.9
3247043.7
3470805.5
3701384.5
3932646.1
4172726.2
4418858.2
4671310.7
4930471.1
5196737.5
5470513.7
5752202.3
6042235.4
0.00018790361
0.0026336187
0.019630701
0.11653774
0.5942955
2.6667136
10.634616
37.90244
121.2734
349.965
915.56081
2184.0202
4780.2444
9663.2014
18162.45
31951.126
52946.497
83151.536
124467.69
178515.69
246496.42
329110.6
426541.65
538492.27
664265.76
802860.24
953077.58
1113622.7
1283190.3
1460535
1644519.5
1834133.9
2028514.9
2226986.7
2429218.6
2634826.3
2843635.3
3051294.8
3262861.7
3479195
3699018.4
3918477.5
4143154.6
4373937
4608952.2
4848953.8
5094464.4
5345990.8
5604035.2
5869093.3
6141648.6
6422204.7
0.00021636682
0.0034009327
0.028070037
0.18208863
0.99985927
4.7588905
19.836185
72.880067
237.39422
689.79825
1800.2604
4251.5517
9157.4874
18134.86
33283.188
57049.957
91997.433
140520.45
204577.7
285490.76
383841.61
499470.94
631564.86
778789.68
939458.13
1111691.9
1293566.7
1483229.6
1678983.7
1879351.6
2083105.3
2289227.1
2496892.9
2705465.9
2915248.5
3125800.5
3333000
3542592
3754531.1
3967840.4
4179074.4
4394377.5
4613459.1
4835970.2
5062210.8
5292806.9
5528378
5769530.9
6016858.2
6270934.2
6532309.2
6801544.4
0.00025101455
0.0044618747
0.041101248
0.29275008
1.7349094
8.7587448
38.087159
143.77458
474.71119
1382.1833
3580.5983
8331.0992
17579.959
33969.679
60669.787
101038.46
158192.21
234591.28
331736.58
450031.22
588807.62
746492.55
920840.32
1109201.5
1308771.8
1516799.1
1730740.3
1948363.9
2167799.6
2387581.6
2606666.7
2824244.7
3039712.9
3252136.3
3463835.5
3669213.7
3875751.8
4080306.1
4286185.1
4487123.4
4691831.2
4897361.1
5105140.8
5315718
5529658.4
5747645.6
5970379.7
6198547.8
6432813.3
6673809.4
6922133.6
7178385.9
0.00029337531
0.0059617101
0.061751148
0.48523138
3.1091437
16.637249
75.265439
290.67889
967.89007
2808.4404
7182.4045
16380.962
33710.421
63309.983
109675.93
177002.66
268525.86
386042.7
529706.59
698106.55
888551.05
1097473.9
1320859.7
1554626.2
1794921.9
2038326.7
2281972.9
2523592.3
2761468
2994466.7
3222141.6
3444121.7
3660502.3
3867855.4
4071418.2
4271545.6
4469065
4659817.3
4852015.2
5041868.3
5231898.5
5422593.8
5615010.7
5809964.2
6008212.8
6210533.1
6417695.9
6630446.9
6849497.3
7075514.9
7309118.8
7550925.3
0.00034502217
0.0081233575
0.095403273
0.83083048
5.7627596
32.631105
152.99579
601.39158
2007.5489
5769.9592
14483.586
32210.33
64352.516
117024.38
196051.76
305910.5
448929.16
624951.94
831486.87
1064199
1317589.1
1585679
1862596.1
2143005.2
2422373.5
2697074
2964417.3
3222615.8
3470500
3707567.1
3934681.2
4151843.5
4355847.8
4553521.3
4744870.9
4927080
5105642.2
5281021.8
5453888.8
5624782.5
5795330.3
5966568.4
6139576.7
6315310.2
6494650.6
6678447.3
6867518
7062641.2
7264548.1
7473913.5
7691347
7917455.5
0.00041019464
0.011313403
0.15193492
1.4726374
11.061314
66.098069
319.62279
1270.8162
4224.5238
11947.912
29259.566
63117.534
121887.92
213871.3
345572.15
520318.7
737651.48
993539.53
1281223.7
1592346.9
1918071.1
2249981.6
2580707.6
2904267.1
3216182
3513346.8
3793934.6
4057364.6
4303379.4
4532060.5
4747278.5
4944398.7
5131231.1
5308844.9
5473703
5633799
5787946
5938132.1
6085736.6
6231888
6378030
6525391
6675116.1
6828233.4
6985685
7148352.7
7317066.2
7492604.2
7675689.1
7866972.7
8067016.6
8276391.3
0.00049204258
0.016137533
0.25007805
2.7079588
22.012784
138.2656
685.32155
2736.2964
8991.1193
24848.156
59000.918
122816.01
228299.73
385303.75
599075.82
869043.73
1189063.1
1548800.4
1935628
2336470.3
2739242.5
3133748.8
3512099.1
3868776.1
4200498.1
4505617.1
4783907.8
5037082.6
5266064.9
5469885.2
5656865.6
5827957.6
5981379.7
6126178.2
6259903.1
6386753.9
6508264.1
6626353.2
6742671.5
6858616
6975604.6
7094933.9
7217775.7
7345163.4
7478039
7617266.3
7763644.9
7917916.9
8080766
8252797
8434464.4
8626285.1
0.00059640126
0.023644929
0.42665865
5.1774915
45.463434
298.5439
1505.463
5986.4621
19286.833
51705.752
118306.68
236462.09
421503.61
682349.25
1018979.9
1422505.4
1877356.4
2364468.1
2864378.8
3359575.5
3835868.8
4282865.2
4693847.9
5065348.6
5396843.2
5689134.7
5943984.6
6167434.6
6356340.8
6523323.6
6666042.8
6792771
6903884.4
7004087.6
7095056.7
7179965.8
7261009.2
7340226.2
7419425.9
7500051.3
7583463.1
7670955.9
7763669.9
7862561.5
7968513.6
8082316.4
8204691.9
8336305.6
8477774.5
8629653.9
8792173.5
8965840.6
0.00073303109
0.035694241
0.75694051
10.315954
97.519106
664.78485
3380.3696
13263.967
41538.983
107226.26
234994.25
448903.39
764749.45
1184785.6
1696931.5
2278062.4
2899351.2
3531559.3
4148962.3
4731516.6
5265488.4
5742916.8
6160611
6518967
6822301.9
7074727.5
7278754
7446874.6
7578670.1
7684955.3
7769401
7836671.2
7890356.4
7934724.3
7972571.9
8006841.1
8039897.4
8073799.9
8110456.2
8151103.1
8196934.3
8249208
8308973.5
8376994.6
8454049
8540792.4
8637818.8
8745673.2
8864872.4
0.00091413991
0.055713131
1.4013138
21.467908
217.34022
1524.4821
7736.4311
29651.475
89455.621
220699.23
460627.76
837472.64
1359643.4
2012277.9
2761669
3564153
4375300.2
5156695.2
5879479.6
6525138.6
7084534.4
7555696.5
7941766.2
8248356.1
8487763.4
8662764.4
8790432
8874823.3
8925990.8
8951264
8957825.5
8950142.9
8932704.2
8909885.9
8884768.4
8860115.5
8838171.5
8820795.1
8810089.8
8806658.3
8811379.7
8825525.1
8850008
8885198.3
8931776.1
8990186.4
9060845
9144125.5
9240359.1
0.0011587207
0.090275393
2.7175202
46.763899
503.28969
3593.1015
17985.38
66601.045
191790.39
448989.82
887721.28
1530538.1
2362609.9
3336253.7
4385366.6
5441606
6446486.8
7357513.8
8149193.8
8810884.8
9343578.2
9755324.9
10058701
10263573
10393898
10456891
10471254
10444876
10388186
10310345
10221194
10123089
10021287
9920441.7
9823232.7
9732075.3
9648831.1
9574734.8
9512692.2
9461734.1
9422285.9
9395895.1
9383325.7
9384124.7
9399058.9
9428224.6
9471823.4
9530011.3
9602927.8
0.0014975139
0.1525872
5.5435939
106.84658
1210.329
8681.1806
42303.542
149627.77
407529.47
899126.69
1676101.5
2732154.6
4003280.8
5389998.6
6785965.8
8100260.4
9268575.2
10254842
11046972
11650255
12082165
12364310
12517757
12567297
12539729
12446307
12311180
12143058
11952323
11750810
11546358
11343038
11145303
10956600
10779122
10614794
10464901
10330343
10212414
10110730
10025302
9956492.5
9905809.6
9870963.7
9853528.5
9852888.5
9869054.3
9901922.2
9951423.7
0.0019806526
0.27052191
11.9499
256.51811
3019.2414
21428.87
100219.62
334616.7
854324.06
1765307.3
3090140.1
4751236.7
6601198
8473106.3
10222538
11749245
13000204
13961867
14648251
15088807
15323921
15387950
15321808
15149162
14910918
14616443
14292482
13950714
13601909
13256085
12920087
12598005
12293460
12008261
11743444
11500335
11279339
11080593
10904264
10749770
10616638
10504652
10413937
10342986
10293120
10262423
10251088
10258671
10284883
0.0026903468
0.50636205
27.353084
648.01807
7797.6675
53821.335
237944.59
741152.34
1758957.8
3385157.3
5546039.3
8030279.6
10574770
12945445
14980957
16600095
17787226
18571248
19005608
19149572
19072258
18821769
18453444
17990509
17480959
16942485
16393920
15849211
15318487
14809557
14327294
13874570
13454148
13065338
12707307
12380987
12085467
11819855
11583276
11374574
11192661
11036654
10905822
10798870
10715356
10655237
10616723
10599291
10602536
0.0037719631
1.0084133
66.82661
1723.8984
20790.566
136878.76
563114.66
1617614.4
3541154.2
6317499.2
9663068.3
13164168
16434357
19205935
21348398
22843327
23744106
24141748
24137431
23833016
23313969
22639122
21876434
21056414
20222927
19397594
18590072
17815577
17081860
16393584
15752485
15159049
14615854
14118104
13662110
13249446
12877065
12542889
12244948
11981316
11750173
11549916
11379112
11236219
11120125
11029672
10964651
10923031
10903801
0.0054957972
2.1561713
175.18097
4829.0858
57003.598
350520.7
1320573.8
3460351.6
6939772.4
11434105
16302851
20894728
24750939
27653286
29577539
30620919
30935109
30688172
30035099
29107049
27997712
26790466
25553779
24306628
23100388
21951242
20852861
19825273
18870940
17990212
17180319
16437752
15767541
15157577
14599641
14098986
13648472
13244959
12885286
12566653
12286408
12042189
11831892
11653538
11505456
11386076
11294043
11228885
11188274
0.0083901555
5.0033746
495.30916
14227.042
159903.9
897824.3
3048278.8
7212421
13176652
19999687
26569080
32062985
36094159
38629767
39844358
39998901
39365067
38180821
36637136
34891667
33065487
31217517
29434435
27690736
26073947
24571848
23152409
21853129
20664521
19581838
18596261
17697002
16899007
16176009
15511976
14923635
14394653
13921909
13500827
13127731
12799041
12511596
12262624
12049628
11870414
11722953
11605496
11516540
11455356
0.013571826
12.760715
1517.6841
43961.162
455757.98
2281285.7
6872606
14554383
24122482
33691376
41733381
47505124
50939570
52354795
52206437
50960152
48967646
46502218
43839212
41103581
38439093
35845230
33464704
31183789
29099991
27201386
25457191
23874331
22441955
21151752
19987456
18936803
17999761
17156645
16390373
15718464
15111223
14570198
14088647
13662187
13286180
12956639
12670118
12423582
12214327
12039824
11897934
11786824
11704898
0.023617305
36.302412
5058.5879
141727.09
1307380.1
5693284.1
15005352
28246813
42375287
54487292
63058480
67893384
69556892
68859684
66598264
63375528
59544923
55511254
51519274
47625007
44032435
40631301
37547237
34704097
32135824
29825755
27740317
25865712
24183656
22684443
21340517
20135771
19062456
18102182
17239135
16470958
15793387
15186937
14646345
14168140
13746356
13376183
13053509
12774767
12536768
12336422
12171219
12039022
11937933
0.045145804
117.16499
18369.298
472473.42
3728316.9
13796077
31437264
52371003
71104299
84356983
91515321
93544055
91903876
87990598
82771507
76931111
70895937
65014060
59530958
54388174
49689396
45455711
41647344
38205942
35138778
32409733
29975746
27806177
25871282
24166245
22644252
21285756
20079584
19005513
18046305
17192969
16433747
15766920
15171995
14644175
14178505
13769440
13412229
13102799
12837538
12612661
12425367
12273242
12154071
0.097601056
437.09354
72485.425
1606641.8
10410409
32049244
62603706
92157531
1.1349812e+08
1.2473797e+08
1.274386e+08
1.2423937e+08
1.1764524e+08
1.0926807e+08
1.002316e+08
91333306
82745968
74893915
67650062
61178723
55341722
50250146
45702152
41640887
38070120
34922034
32139785
29677440
27487515
25585879
23889486
22379342
21044911
19861300
18808554
17873405
17042901
16306405
15661395
15089334
14581934
14135943
13745980
13407513
13116643
12868606
12660522
12489704
12353638
0.24866088
1920.1921
307948.91
5467930.1
27958212
70410071
1.1739081e+08
1.5300007e+08
1.7175701e+08
1.7588941e+08
1.7021899e+08
1.5927943e+08
1.4589808e+08
1.3192357e+08
1.1848473e+08
1.0619676e+08
94926430
84723664
75732188
67914351
60966049
54909978
49615585
44962441
40895503
37335567
34211784
31465037
29044160
26929001
25049294
23409642
21953466
20665580
19523201
18510090
17611681
16815531
16110969
15501765
14956293
14475512
14054706
13688919
0.79103154
10085.125
1382702.6
18170302
70784624
1.4426655e+08
2.0545849e+08
2.3843405e+08
2.4582214e+08
2.3633996e+08
2.1842961e+08
1.9708041e+08
1.7538989e+08
1.5518657e+08
1.3717262e+08
1.2104844e+08
1.068846e+08
94374967
83747092
74411528
66352045
59395328
53371931
48134993
43586030
39627650
36174207
33153942
30507299
28193650
26153619
24358922
22796152
21415576
20188306
19101571
18139115
17286760
16530565
15877645
15301393
14788233
14338568
13947142
3.4036816
63700.351
6364388.8
57208209
1.6537467e+08
2.7200287e+08
3.3309984e+08
3.4747972e+08
3.3235347e+08
3.0317959e+08
2.6927001e+08
2.3544673e+08
2.0489686e+08
1.7851603e+08
1.553456e+08
1.3538028e+08
1.1848498e+08
1.0380114e+08
91296893
80609698
71473690
63650279
56927607
51128148
46118168
41780051
38013020
34732995
31870723
29372069
27179397
25254323
23562348
22105503
20802654
19647028
18624756
17720285
16920033
16218314
15615700
15074448
14597935
14182746
22.032044
477667.84
28725288
1.6485763e+08
3.4892733e+08
4.6630616e+08
4.974521e+08
4.7260349e+08
4.2544291e+08
3.714925e+08
3.1882929e+08
2.7247754e+08
2.336121e+08
2.0047558e+08
1.7250454e+08
1.492176e+08
1.2938329e+08
1.1254462e+08
98395524
86425896
76271288
67630279
60248675
53917741
48473691
43778875
39717671
36194166
33129444
30459239
28123705
26077044
24275333
22726958
21364332
20146191
19068561
18115950
17274085
16531388
15898180
15334536
14833330
14396315
244.23505
4064196.6
1.1987665e+08
4.1894949e+08
6.5171416e+08
7.2029918e+08
6.8243279e+08
6.0136202e+08
5.1609893e+08
4.3453273e+08
3.6430471e+08
3.0704456e+08
2.5939122e+08
2.2055868e+08
1.8869722e+08
1.6181861e+08
1.3934626e+08
1.2060722e+08
1.0495183e+08
91797363
80700022
71302237
63310316
56485994
50639459
45614305
41280869
37532132
34280083
31452196
28984890
26827045
24934554
23284946
21866944
20599516
19470890
18474150
17594090
16816559
16150379
15568402
15045402
14588515
5274.943
35751984
4.308363e+08
9.0495294e+08
1.0607059e+09
9.9789909e+08
8.6049939e+08
7.1891282e+08
5.9331354e+08
4.8814937e+08
4.0425039e+08
3.3610619e+08
2.8174807e+08
2.3892439e+08
2.029957e+08
1.7300341e+08
1.4834145e+08
1.2790727e+08
1.1090509e+08
96681601
84729572
74643920
66096062
58821192
52607027
47280234
42698265
38743925
35320896
32349621
29762333
27503536
25526625
23795321
22310417
21006463
19832415
18795595
17881070
17075141
16373725
15775410