/*--------------------------------*- C++ -*----------------------------------*\
| =========                 |                                                 |
| \\      /  F ield         | OpenFOAM: The Open Source CFD Toolbox           |
|  \\    /   O peration     | Version:  2312                                  |
|   \\  /    A nd           | Website:  www.openfoam.com                      |
|    \\/     M anipulation  |                                                 |
\*---------------------------------------------------------------------------*/
FoamFile
{
    version     2.0;
    format      ascii;
    arch        "LSB;label=32;scalar=64";
    class       volScalarField;
    location    "0.05";
    object      alphat;
}
// * * * * * * * * * * * * * * * * * * * * * * * * * * * * * * * * * * * * * //

dimensions      [1 -1 -1 0 0 0 0];

internalField   nonuniform List<scalar> 
3251
(
0.019415756
0.019478824
0.019546657
0.01961954
0.019697749
0.019781569
0.019871291
0.019967214
0.020069642
0.020178886
0.020295261
0.020419085
0.020550678
0.020690364
0.020838461
0.02099529
0.021161166
0.021336398
0.021521291
0.02171614
0.021921229
0.022136833
0.022363212
0.022600612
0.022849263
0.02310938
0.023381158
0.023664773
0.023960381
0.02426812
0.024588106
0.024920432
0.025265174
0.025622385
0.025992098
0.026374327
0.026769069
0.027176298
0.027595977
0.02802805
0.028472447
0.028929086
0.029397874
0.029878708
0.030371479
0.030876071
0.03139237
0.031920266
0.032459664
0.033010495
0.033572732
0.034146382
0.034732041
0.035329321
0.035937333
0.036555915
0.037185075
0.037824901
0.019416807
0.019479893
0.019547755
0.019620672
0.019698916
0.019782771
0.019872529
0.019968488
0.020070952
0.020180232
0.020296643
0.020420503
0.020552133
0.020691855
0.020839988
0.020996853
0.021162764
0.021338031
0.021522959
0.021717842
0.021922965
0.022138602
0.022365013
0.022602445
0.022851128
0.023111275
0.023383082
0.023666725
0.023962361
0.024270127
0.024590137
0.024922488
0.025267253
0.025624485
0.02599422
0.026376469
0.026771228
0.027178475
0.02759817
0.028030258
0.028474669
0.028931322
0.029400124
0.029880974
0.030373762
0.030878376
0.031394703
0.031922637
0.032462083
0.033012973
0.033575278
0.034149021
0.03473449
0.03533141
0.035939186
0.036557581
0.037186571
0.037826359
0.019418688
0.019481812
0.019549721
0.019622692
0.019700991
0.019784902
0.019874716
0.01997073
0.020073251
0.020182587
0.020299053
0.020422969
0.020554654
0.02069443
0.020842618
0.020999536
0.0211655
0.021340819
0.021525798
0.02172073
0.021925902
0.022141586
0.022368042
0.022605518
0.022854243
0.023114431
0.023386276
0.023669956
0.023965626
0.024273424
0.024593464
0.024925843
0.025270633
0.025627889
0.025997643
0.026379911
0.026774686
0.027181946
0.027601652
0.028033748
0.028478166
0.028934825
0.029403631
0.029884484
0.030377277
0.030881897
0.031398236
0.031926186
0.032465655
0.03301657
0.033578896
0.034152642
0.034737928
0.035334541
0.035942065
0.036560243
0.037189017
0.037828602
0.019421388
0.019484572
0.01955255
0.019625593
0.019703967
0.019787953
0.019877842
0.019973932
0.020076527
0.020185938
0.02030248
0.02042647
0.020558228
0.020698077
0.020846337
0.021003325
0.021169358
0.021344746
0.02152979
0.021724787
0.02193002
0.022145764
0.022372279
0.02260981
0.022858587
0.023118825
0.023390717
0.02367444
0.023970151
0.024277986
0.02459806
0.024930468
0.025275285
0.025632564
0.026002338
0.026384621
0.026779409
0.027186677
0.027606388
0.028038486
0.028482902
0.028939556
0.029408355
0.0298892
0.030381983
0.030886594
0.031402924
0.031930868
0.032470332
0.03302124
0.033583544
0.034157231
0.034742326
0.035338654
0.035945913
0.03656385
0.03719238
0.037831468
0.0194249
0.019488167
0.019556233
0.019629368
0.019707835
0.019791916
0.019881899
0.019978084
0.020080773
0.020190278
0.020306913
0.020430996
0.020562846
0.020702785
0.020851133
0.021008209
0.021174327
0.021349798
0.021534924
0.021729999
0.021935308
0.022151125
0.022377709
0.022615306
0.022864146
0.023124442
0.023396389
0.023680162
0.023975919
0.024283796
0.024603907
0.024936348
0.025281193
0.025638494
0.026008286
0.026390582
0.026785377
0.027192649
0.027612358
0.02804445
0.028488855
0.028945494
0.029414274
0.029895097
0.030387855
0.030892441
0.031408743
0.031936659
0.032476092
0.033026959
0.033589202
0.034162783
0.034747675
0.035343722
0.0359507
0.036568381
0.0371967
0.019428972
0.01949234
0.019560507
0.019633747
0.019712321
0.019796508
0.019886598
0.01998289
0.020085686
0.020195297
0.020312037
0.020436224
0.020568177
0.020708217
0.020856666
0.021013839
0.021180053
0.021355617
0.021540833
0.021735995
0.021941388
0.022157285
0.022383946
0.022621615
0.022870523
0.023130883
0.023402888
0.023686716
0.023982522
0.024290441
0.024610591
0.024943064
0.025287935
0.025645258
0.026015065
0.02639737
0.026792169
0.027199438
0.027619139
0.028051217
0.028495604
0.028952219
0.02942097
0.029901759
0.030394481
0.030899025
0.031415284
0.031943151
0.032482529
0.033033331
0.033595482
0.034168928
0.034753611
0.035349389
0.035956084
0.036573514
0.037201844
0.019433493
0.019496972
0.019565252
0.019638607
0.019717297
0.019801601
0.019891809
0.019988217
0.02009113
0.020200856
0.020317711
0.020442011
0.020574076
0.020714227
0.020862783
0.021020063
0.021186381
0.021362045
0.021547358
0.021742614
0.021948098
0.022164081
0.022390824
0.022628571
0.022877551
0.023137978
0.023410046
0.023693929
0.023989786
0.02429775
0.024617938
0.024950444
0.025295341
0.025652683
0.026022503
0.026404814
0.026799613
0.027206876
0.027626564
0.028058622
0.028502984
0.028959567
0.029428281
0.029909028
0.030401701
0.030906193
0.031422395
0.031950199
0.032489505
0.03304022
0.033602259
0.034175552
0.034760019
0.03535553
0.035961941
0.036579108
0.037207359
0.019438817
0.019502428
0.019570841
0.01964433
0.019723156
0.019807596
0.019897939
0.019994483
0.020097531
0.020207391
0.020324379
0.020448811
0.020581006
0.020721284
0.020869966
0.021027368
0.021193805
0.021369586
0.021555011
0.021750376
0.021955963
0.022172045
0.022398882
0.022636717
0.02288578
0.023146283
0.02341842
0.023702368
0.02399828
0.024306294
0.024626524
0.024959064
0.025303988
0.02566135
0.026031181
0.026413497
0.026808291
0.027215543
0.027635212
0.028067244
0.028511571
0.028968113
0.029436779
0.02991747
0.030410082
0.030914506
0.031430632
0.031958352
0.032497564
0.033048168
0.033610068
0.034183178
0.034767406
0.03536263
0.035968728
0.036585587
0.037213534
0.019445004
0.019508769
0.019577336
0.01965098
0.019729962
0.019814558
0.019905058
0.020001758
0.020104961
0.020214975
0.020332116
0.020456698
0.020589042
0.020729467
0.020878292
0.021035835
0.021202408
0.021378321
0.021563875
0.021759363
0.021965069
0.022181263
0.022408206
0.022646141
0.022895297
0.023155886
0.023428102
0.02371212
0.024008095
0.024316163
0.024636439
0.024969016
0.025313968
0.025671348
0.02604119
0.026423507
0.026818294
0.027225528
0.027645171
0.028077168
0.028521452
0.028977942
0.029446548
0.02992717
0.030419705
0.030924043
0.031440075
0.031967691
0.032506786
0.033057252
0.033618985
0.034191885
0.034775849
0.035370761
0.035976522
0.036593044
0.019452119
0.019516061
0.019584805
0.019658626
0.019737786
0.01982256
0.019913238
0.020010116
0.020113495
0.020223685
0.020340999
0.020465754
0.020598266
0.020738858
0.020887846
0.021045547
0.021212276
0.021388339
0.021574038
0.021769665
0.021975504
0.022191825
0.022418888
0.022656935
0.022906196
0.023166881
0.023439184
0.02372328
0.024019325
0.024327452
0.024647777
0.024980394
0.025325376
0.025682775
0.026052625
0.02643494
0.026829714
0.027236926
0.027656536
0.02808849
0.02853272
0.028989146
0.029457678
0.029938217
0.030430658
0.030934893
0.03145081
0.0319783
0.032517252
0.033067556
0.033629095
0.034201756
0.034785427
0.035380004
0.035985413
0.036601674
0.019460232
0.019524375
0.019593319
0.019667342
0.019746703
0.019831679
0.019922558
0.020019636
0.020123216
0.020233604
0.020351114
0.020476062
0.020608765
0.020749544
0.020898716
0.021056597
0.021223499
0.021399732
0.021585594
0.021781378
0.021987366
0.022203829
0.022431026
0.022669198
0.022918575
0.023179367
0.023451768
0.023735951
0.024032071
0.024340263
0.024660642
0.024993301
0.025338312
0.02569573
0.026065587
0.026447897
0.026842654
0.027249836
0.027669405
0.028101306
0.028545471
0.029001821
0.029470265
0.029950705
0.030443035
0.030947146
0.031462928
0.031990268
0.032529053
0.033079168
0.033640485
0.034212878
0.03479623
0.035390449
0.0359955
0.019469417
0.019533786
0.019602956
0.019677205
0.019756793
0.019841996
0.019933101
0.020030405
0.020134208
0.020244818
0.020362548
0.020487713
0.020620631
0.020761619
0.020910996
0.021069078
0.021236176
0.021412597
0.021598641
0.0217946
0.022000755
0.022217377
0.022444723
0.022683035
0.022932541
0.023193451
0.023465959
0.023750237
0.02404644
0.024354703
0.024675139
0.025007843
0.025352886
0.025710322
0.026080183
0.026462484
0.026857218
0.027264364
0.027683883
0.028115721
0.02855981
0.02901607
0.029484411
0.029964735
0.030456935
0.030960902
0.031476524
0.032003689
0.032542282
0.033092181
0.03365325
0.034225349
0.034808351
0.035402198
0.036006984
0.019479751
0.019544373
0.019613797
0.019688299
0.01976814
0.019853597
0.019944955
0.02004251
0.020146563
0.020257422
0.020375397
0.020500804
0.02063396
0.020775182
0.020924789
0.021083094
0.021250409
0.02142704
0.021613287
0.02180944
0.022015781
0.022232578
0.022460089
0.022698555
0.022948204
0.023209244
0.023481869
0.023766252
0.024062546
0.024370886
0.024691384
0.025024135
0.025369211
0.025726664
0.026096527
0.026478814
0.02687352
0.027280622
0.027700082
0.028131845
0.028575845
0.029032001
0.029500223
0.029980412
0.030472462
0.030976262
0.031491701
0.032018665
0.032557038
0.033106696
0.033667491
0.034239268
0.034821893
0.035415356
0.019491319
0.019556224
0.019625929
0.019700713
0.019780836
0.019866574
0.019958214
0.020056048
0.020160379
0.020271513
0.02038976
0.020515436
0.020648857
0.020790339
0.020940199
0.021098752
0.021266308
0.021443172
0.021629643
0.021826011
0.022032556
0.022249547
0.02247724
0.022715876
0.022965682
0.023226866
0.02349962
0.023784116
0.024080509
0.024388931
0.024709496
0.025042297
0.025387406
0.025744876
0.026114738
0.026497007
0.026891678
0.027298728
0.027718119
0.028149797
0.028593694
0.02904973
0.029517815
0.02999785
0.030489727
0.030993337
0.031508566
0.032035301
0.032573427
0.033122817
0.033683316
0.03425475
0.034836971
0.035430139
0.01950421
0.019569427
0.019639445
0.019714542
0.019794977
0.019881027
0.019972977
0.020071121
0.020175759
0.020287197
0.020405745
0.020531718
0.020665431
0.0208072
0.020957341
0.021116167
0.021283988
0.021461109
0.021647827
0.021844432
0.022051202
0.022268406
0.022496299
0.022735122
0.0229851
0.02324644
0.023519335
0.023803956
0.024100455
0.024408967
0.024729603
0.025062457
0.0254076
0.025765085
0.026134944
0.02651719
0.026911818
0.027318807
0.027738118
0.028169697
0.028613477
0.029069377
0.029537306
0.030017166
0.030508849
0.031012242
0.031527234
0.032053711
0.032591559
0.033140655
0.03370084
0.034271915
0.0348537
0.019518518
0.019584081
0.019654443
0.019729884
0.019810664
0.019897058
0.01998935
0.020087835
0.020192811
0.020304585
0.020423465
0.020549765
0.020683799
0.020825884
0.020976333
0.02113546
0.021303573
0.021480975
0.021667965
0.021864829
0.022071847
0.022289285
0.022517397
0.022756424
0.023006589
0.023268101
0.023541148
0.023825904
0.024122519
0.024431127
0.02475184
0.025084749
0.025429927
0.025787425
0.026157277
0.026539495
0.026934074
0.027340992
0.027760211
0.028191678
0.028635324
0.02909107
0.029558824
0.030038487
0.03052995
0.031033101
0.031547825
0.032074011
0.032611551
0.033160327
0.033720185
0.034290909
0.034872308
0.019534345
0.019600286
0.019671028
0.019746848
0.019828007
0.019914778
0.020007447
0.020106306
0.020211654
0.020323795
0.020443039
0.020569698
0.020704085
0.020846515
0.020997302
0.021156759
0.021325191
0.021502903
0.021690189
0.021887338
0.022094626
0.022312319
0.022540671
0.02277992
0.02303029
0.023291987
0.023565201
0.023850103
0.024146843
0.024455554
0.024776347
0.025109315
0.025454528
0.025812039
0.026181879
0.026564063
0.026958584
0.027365421
0.027784536
0.028215875
0.028659371
0.029114944
0.029582502
0.030061945
0.030553163
0.031056042
0.031570467
0.032096327
0.032633522
0.033181951
0.033741479
0.034311888
0.019551796
0.019618154
0.019689312
0.019765547
0.01984712
0.019934305
0.020027386
0.020126654
0.020232409
0.020344953
0.020464594
0.020591645
0.020726418
0.020869227
0.021020384
0.0211802
0.021348981
0.02152703
0.021714641
0.021912099
0.022119682
0.022337653
0.022566266
0.022805757
0.023056349
0.023318247
0.023591641
0.0238767
0.024173575
0.024482396
0.024803276
0.025136304
0.025481554
0.025839075
0.0262089
0.026591042
0.026985496
0.027392241
0.027811239
0.028242435
0.028685763
0.029141142
0.029608482
0.03008768
0.030578625
0.031081202
0.031595293
0.032120788
0.032657597
0.033205649
0.033764854
0.034335167
0.019570987
0.019637799
0.019709411
0.019786101
0.019868127
0.019955763
0.020049293
0.020149009
0.020255207
0.02036819
0.020488266
0.020615744
0.020750937
0.020894158
0.021045718
0.021205926
0.021375088
0.021553504
0.021741467
0.021939263
0.022147166
0.022365439
0.022594334
0.022834088
0.02308492
0.023347037
0.023620625
0.023905854
0.024202872
0.024511812
0.024832782
0.025165875
0.02551116
0.025868689
0.026238494
0.026620588
0.027014966
0.027421607
0.027840472
0.028271508
0.028714649
0.029169814
0.029636911
0.030115838
0.030606483
0.031108726
0.031622447
0.032147533
0.032683907
0.03323154
0.033790401
0.034360524
0.019592039
0.019659346
0.019731453
0.019808636
0.019891156
0.019979284
0.020073304
0.020173505
0.020280186
0.020393647
0.020514195
0.020642138
0.020777789
0.020921458
0.021073455
0.021234089
0.021403664
0.021582479
0.021770825
0.021968986
0.022177236
0.022395837
0.022625039
0.022865076
0.023116168
0.02337852
0.023652318
0.023937728
0.024234901
0.024543966
0.024865033
0.025198192
0.025543514
0.025901048
0.026270828
0.026652865
0.027047156
0.027453679
0.027872396
0.028303255
0.028746187
0.029201115
0.029667946
0.030146575
0.03063689
0.031138768
0.031652079
0.032176708
0.032712585
0.033259745
0.033818228
0.034387943
0.019615079
0.019682923
0.019755569
0.01983329
0.019916345
0.020005007
0.020099558
0.020200288
0.020307492
0.020421471
0.020542532
0.02067098
0.020807127
0.020951281
0.021103753
0.021264849
0.021434871
0.021614118
0.021802878
0.022001436
0.022210061
0.022429016
0.022658548
0.022898891
0.023150264
0.023412869
0.023686892
0.023972498
0.024269836
0.024579034
0.024900203
0.02523343
0.025578788
0.025936324
0.026306073
0.026688045
0.027082238
0.027488629
0.027907181
0.028337842
0.028780546
0.029235212
0.02970175
0.030180054
0.030670009
0.031171488
0.031684352
0.032208471
0.032743773
0.033290391
0.03384852
0.019640244
0.019708671
0.019781902
0.019860205
0.01994384
0.02003308
0.020128207
0.020229508
0.02033728
0.02045182
0.020573435
0.02070243
0.020839113
0.020983793
0.021136778
0.021298374
0.02146888
0.021648592
0.021837801
0.022036785
0.022245816
0.022465153
0.022695041
0.022935714
0.023187389
0.023450266
0.023724529
0.024010344
0.024307857
0.024617198
0.024938473
0.025271772
0.025617164
0.0259747
0.02634441
0.026726308
0.02712039
0.027526634
0.027945004
0.028375447
0.028817898
0.029272277
0.029738494
0.030216444
0.03070601
0.031207059
0.031719441
0.032242997
0.032777622
0.033323611
0.033881684
0.019667679
0.019736736
0.0198106
0.019889532
0.019973795
0.02006366
0.020159408
0.020261327
0.020369711
0.020484859
0.020607072
0.020736656
0.020873919
0.021019167
0.021172706
0.02133484
0.021505867
0.021686083
0.021875774
0.022075219
0.022284687
0.022504434
0.022734706
0.022975733
0.023227731
0.023490899
0.02376542
0.024051457
0.024349158
0.024658648
0.024980035
0.025313407
0.025658834
0.026016364
0.026386029
0.026767843
0.0271618
0.027567881
0.027986048
0.028416251
0.028858425
0.02931249
0.029778358
0.030255923
0.030745069
0.03124566
0.031757535
0.032280493
0.032814304
0.019697539
0.019767276
0.019841822
0.019921433
0.020006372
0.02009691
0.020193329
0.020295914
0.020404958
0.020520759
0.020643618
0.020773838
0.020911725
0.021057584
0.02121172
0.021374433
0.021546023
0.02172678
0.02191699
0.02211693
0.022326866
0.022547054
0.022777737
0.023019144
0.023271488
0.023534968
0.023809763
0.024096039
0.024393937
0.024703585
0.025025089
0.025358537
0.025703996
0.026061516
0.026431128
0.026812846
0.027206664
0.027612564
0.028030508
0.028460447
0.028902317
0.02935604
0.029821527
0.030298676
0.030787372
0.03128748
0.031798839
0.032321226
0.019729988
0.019800458
0.019875735
0.019956076
0.020041742
0.020133005
0.020230145
0.020333446
0.020443201
0.020559705
0.020683258
0.020814161
0.02095272
0.021099236
0.021254012
0.021417349
0.021589542
0.02177088
0.021961647
0.022162118
0.022372557
0.022593217
0.02282434
0.023066153
0.023318867
0.02358268
0.023857768
0.024144295
0.024442404
0.024752218
0.025073844
0.025407368
0.025752858
0.026110363
0.026479913
0.026861522
0.027255186
0.027660885
0.028078584
0.028508233
0.02894977
0.02940312
0.029868194
0.030344894
0.030833107
0.031332709
0.031843561
0.032365578
0.019698489
0.019765205
0.019836455
0.019912516
0.019993638
0.020080084
0.020172126
0.02027004
0.020374111
0.020484628
0.020601887
0.020726185
0.020857822
0.020997101
0.021144322
0.021299786
0.021463791
0.02163663
0.021818591
0.022009955
0.022210994
0.022421971
0.022643137
0.02287473
0.023116976
0.023370085
0.023634251
0.023909651
0.024196445
0.024494775
0.024804764
0.025126516
0.025460118
0.025805636
0.026163119
0.026532597
0.026914084
0.027307576
0.027713054
0.028130483
0.028559816
0.02900099
0.029453933
0.029918558
0.030394772
0.030882467
0.031381531
0.031891855
0.032413427
0.01973582
0.019803364
0.019875449
0.019952346
0.020034306
0.020121589
0.020214464
0.020313208
0.020418103
0.020529439
0.020647506
0.020772602
0.020905025
0.021045075
0.021193051
0.021349251
0.021513971
0.021687502
0.021870129
0.022062131
0.022263777
0.022475329
0.022697034
0.022929129
0.023171837
0.023425366
0.023689907
0.023965637
0.024252713
0.024551276
0.024861448
0.025183331
0.025517011
0.025862554
0.026220007
0.026589403
0.026970753
0.027364055
0.027769289
0.028186423
0.028615409
0.029056187
0.029508687
0.029972825
0.030448512
0.030935648
0.03143413
0.031943873
0.032464894
0.019776218
0.019844651
0.019917628
0.01999542
0.020078276
0.020166453
0.02026022
0.020359852
0.020465629
0.020577838
0.020696771
0.020822721
0.020955984
0.021096859
0.021245641
0.021402628
0.021568112
0.021742381
0.021925719
0.022118402
0.022320696
0.022532859
0.022755138
0.022987767
0.023230966
0.023484941
0.02374988
0.024025959
0.024313333
0.024612141
0.024922503
0.025244521
0.025578279
0.025923842
0.026281259
0.02665056
0.027031757
0.027424848
0.027829814
0.028246624
0.028675232
0.029115579
0.029567597
0.030031206
0.030506321
0.030992848
0.031490695
0.031999789
0.032520153
0.019819874
0.019889259
0.01996319
0.020041938
0.02012575
0.020214883
0.020309602
0.020410182
0.020516901
0.020630044
0.0207499
0.020876761
0.021010921
0.021152675
0.021302318
0.021460144
0.021626442
0.021801499
0.021985594
0.022179001
0.022381985
0.022594799
0.022817689
0.023050885
0.023294604
0.023549051
0.023814412
0.024090859
0.024378546
0.02467761
0.024988169
0.025310326
0.025644161
0.025989741
0.026347111
0.026716303
0.027097329
0.027490187
0.02789486
0.028311316
0.028739511
0.029179389
0.029630883
0.030093917
0.03056841
0.031054273
0.031551423
0.032059791
0.032579399
0.019866989
0.019937392
0.020012343
0.020092111
0.020176942
0.020267093
0.020362828
0.020464418
0.02057214
0.020686278
0.020807118
0.02093495
0.021070065
0.021212757
0.021363317
0.021522035
0.0216892
0.021865094
0.022049994
0.022244172
0.022447888
0.022661394
0.022884931
0.023118727
0.023362998
0.023617943
0.023883749
0.024160583
0.024448599
0.02474793
0.025058695
0.025380992
0.025714904
0.026060493
0.026417807
0.026786875
0.027167711
0.027560313
0.027964663
0.028380732
0.028808478
0.029247844
0.029698769
0.030161179
0.030634995
0.031120135
0.031616518
0.032124081
0.032642838
0.019917777
0.019989266
0.020065302
0.020146155
0.020232072
0.020323307
0.020420122
0.020522787
0.020631578
0.020746774
0.020868661
0.020997525
0.021133656
0.021277343
0.021428877
0.021588544
0.021756629
0.021933413
0.022119168
0.022314162
0.022518654
0.022732893
0.022957115
0.023191546
0.023436399
0.023691871
0.023958145
0.024235386
0.024523745
0.024823355
0.025134332
0.025456772
0.025790757
0.026136349
0.026493594
0.026862522
0.027243147
0.027635466
0.028039463
0.028455111
0.028882366
0.029321178
0.029771484
0.030233216
0.030706296
0.031190646
0.031686191
0.032192865
0.032710678
0.019972459
0.020045101
0.020122291
0.020204298
0.020291368
0.020383754
0.020481717
0.020585524
0.020695449
0.020811769
0.020934767
0.021064727
0.021201936
0.021346681
0.021499248
0.021659921
0.021828982
0.022006707
0.022193368
0.022389227
0.022594541
0.022809553
0.023034499
0.023269601
0.023515067
0.023771093
0.024037858
0.024315525
0.024604243
0.024904142
0.025215336
0.02553792
0.025871975
0.026217561
0.026574724
0.026943494
0.027323884
0.027715892
0.028119505
0.028534692
0.028961416
0.029399625
0.02984926
0.030310254
0.030782536
0.031266027
0.031760655
0.032266355
0.032783132
0.020031262
0.020105128
0.020183541
0.020266772
0.020355065
0.020448672
0.020547852
0.020652869
0.020763996
0.020881508
0.021005683
0.021136805
0.021275156
0.02142102
0.021574681
0.021736419
0.021906513
0.022085235
0.022272852
0.022469626
0.022675806
0.022891635
0.023117344
0.023353152
0.023599263
0.02385587
0.02412315
0.024401263
0.024690353
0.024990551
0.025301967
0.025624695
0.025958814
0.026304385
0.026661452
0.027030043
0.027410173
0.02780184
0.028205031
0.028619719
0.029045864
0.02948342
0.029932328
0.030392524
0.030863938
0.031346497
0.031840128
0.032344767
0.032860413
0.020094421
0.020169581
0.020249289
0.020333816
0.020423404
0.020518303
0.02061877
0.020725069
0.020837468
0.020956239
0.021081661
0.021214011
0.021353569
0.021500617
0.021655434
0.021818297
0.021989481
0.022169255
0.022357882
0.022555619
0.022762713
0.022979402
0.023205914
0.023442462
0.02368925
0.023946466
0.024214283
0.024492859
0.024782336
0.025082842
0.025394484
0.025717355
0.026051533
0.026397076
0.026754029
0.02712242
0.027502262
0.027893556
0.028296288
0.028710431
0.02913595
0.029572797
0.030020918
0.030480251
0.030950727
0.031432276
0.031924825
0.032428312
0.032942731
0.020162173
0.0202387
0.020319777
0.020405672
0.020496627
0.020592891
0.020694719
0.020802371
0.020916113
0.021036216
0.021162952
0.021296599
0.021437432
0.021585728
0.021741764
0.021905814
0.022078147
0.022259028
0.022448718
0.022647469
0.022855523
0.023073116
0.023300469
0.023537795
0.023785291
0.024043142
0.024311519
0.024590577
0.024880454
0.025181274
0.025493144
0.025816156
0.026150384
0.026495887
0.026852707
0.027220873
0.027600398
0.027991283
0.028393514
0.028807068
0.029231907
0.029667989
0.03011526
0.030573659
0.031043122
0.031523579
0.03201496
0.032517202
0.033030296
0.020234762
0.020312729
0.020395247
0.020482584
0.020574982
0.020672685
0.020775947
0.020885025
0.021000183
0.021121689
0.021249811
0.021384824
0.021526999
0.02167661
0.02183393
0.021999227
0.022172768
0.022354815
0.022545621
0.022745436
0.022954497
0.023173036
0.023401271
0.023639409
0.023887644
0.024146157
0.024415116
0.024694671
0.024984959
0.0252861
0.025598201
0.025921349
0.026255618
0.026601064
0.026957731
0.027325645
0.027704821
0.028095259
0.028496946
0.028909859
0.029333965
0.02976922
0.030215573
0.030672967
0.031141337
0.031620618
0.032110739
0.03261164
0.033123309
0.020312427
0.020391908
0.020475944
0.020564799
0.020658713
0.02075793
0.020862701
0.02097328
0.021089928
0.021212909
0.021342489
0.021478937
0.021622523
0.021773515
0.021932183
0.02209879
0.0222736
0.022456868
0.022648844
0.022849773
0.023059889
0.023279418
0.023508573
0.023747557
0.023996561
0.024255762
0.024525322
0.024805391
0.0250961
0.025397569
0.025709898
0.026033176
0.026367473
0.026712846
0.027069336
0.02743697
0.027815761
0.028205711
0.028606807
0.029019028
0.029442341
0.029876704
0.03032207
0.030778381
0.031245577
0.031723593
0.032212361
0.032711821
0.033221961
0.020395409
0.02047648
0.020562107
0.020652556
0.020748063
0.02084887
0.020955225
0.021067379
0.021185591
0.02131012
0.021441229
0.021579184
0.021724249
0.02187669
0.022036771
0.022204751
0.022380888
0.022565433
0.022758634
0.022960727
0.023171944
0.023392504
0.023622617
0.023862481
0.024112284
0.024372196
0.024642378
0.024922973
0.025214113
0.025515911
0.025828466
0.026151866
0.026486178
0.026831457
0.027187744
0.027555066
0.027933435
0.028322853
0.028723308
0.029134781
0.029557239
0.029990644
0.030434948
0.030890097
0.031356033
0.031832692
0.03232001
0.032817927
0.03332643
0.020483943
0.020566677
0.020653972
0.02074609
0.020843265
0.020945738
0.021053752
0.021167558
0.021287407
0.021413557
0.021546268
0.0216858
0.021832414
0.02198637
0.022147927
0.022317341
0.022494865
0.022680745
0.022875222
0.023078529
0.023290891
0.023512524
0.023743632
0.023984409
0.024235037
0.024495683
0.024766503
0.025047638
0.025339214
0.025641342
0.025954121
0.02627763
0.026611941
0.026957104
0.02731316
0.027680134
0.02805804
0.028446879
0.028846642
0.029257307
0.029678846
0.03011122
0.030554385
0.031008289
0.031472876
0.031948084
0.032433852
0.032930121
0.033436877
0.020578252
0.020662724
0.020751762
0.020845624
0.020944543
0.021048757
0.021158506
0.021274036
0.021395598
0.021523442
0.021657826
0.021799004
0.021947234
0.022102772
0.02226587
0.02243678
0.022615748
0.022803017
0.022998822
0.02320339
0.023416941
0.023639686
0.023871825
0.024113545
0.024365024
0.024626425
0.024897898
0.025179582
0.025471599
0.025774056
0.026087049
0.026410657
0.026744946
0.027089968
0.027445761
0.027812351
0.028189751
0.028577962
0.028976975
0.029386771
0.029807322
0.030238592
0.030680538
0.03113311
0.031596255
0.032069915
0.032554028
0.033048541
0.033553438
0.020678546
0.02076483
0.020855683
0.020951364
0.021052103
0.021158132
0.02126969
0.021387019
0.021510364
0.021639975
0.021776102
0.021918996
0.022068909
0.022226092
0.022390793
0.022563258
0.022743728
0.022932439
0.023129621
0.023335497
0.02355028
0.023774174
0.024007376
0.024250067
0.02450242
0.024764594
0.025036734
0.025318974
0.025611433
0.025914215
0.026227413
0.026551103
0.026885347
0.0272302
0.027585697
0.027951861
0.028328708
0.028716238
0.029114442
0.029523304
0.029942796
0.030372885
0.030813528
0.03126468
0.031726289
0.032198299
0.032680653
0.033173299
0.033676221
0.020785014
0.02087318
0.020965923
0.021063495
0.021166125
0.021274043
0.021387482
0.021506682
0.021631883
0.02176333
0.021901269
0.022045945
0.022197607
0.022356498
0.022522863
0.02269694
0.022878966
0.02306917
0.023267777
0.023475003
0.023691056
0.023916136
0.02415043
0.024394118
0.024647366
0.024910327
0.025183143
0.025465944
0.025758843
0.026061943
0.026375332
0.026699085
0.027033262
0.027377912
0.027733075
0.028098771
0.028475014
0.028861807
0.029259142
0.029667001
0.03008536
0.030514187
0.030953443
0.031403083
0.031863058
0.032333316
0.032813802
0.033304467
0.033805297
0.020897817
0.020987935
0.021082636
0.02118217
0.021286763
0.021396639
0.02151203
0.02163317
0.021760296
0.021893646
0.022033463
0.022179987
0.022333459
0.022494119
0.022662204
0.022837948
0.023021581
0.023213326
0.023413402
0.023622019
0.023839379
0.024065675
0.02430109
0.024545796
0.024799955
0.025063716
0.025337214
0.025620576
0.025913911
0.026217318
0.026530881
0.026854674
0.027188755
0.02753317
0.027887956
0.028253137
0.028628725
0.029014722
0.029411122
0.029817908
0.030235058
0.030662541
0.03110032
0.031548354
0.032006596
0.032474997
0.032953505
0.033442074
0.033940693
0.02101708
0.021109215
0.021205941
0.021307504
0.021414127
0.021526029
0.021643439
0.021766586
0.021895701
0.02203102
0.022172777
0.022321209
0.02247655
0.022639036
0.022808895
0.022986357
0.023171645
0.023364976
0.023566561
0.023776605
0.023995303
0.024222843
0.024459401
0.024705144
0.024960228
0.025224795
0.025498979
0.025782898
0.02607666
0.026380359
0.026694077
0.027017883
0.027351835
0.027695978
0.028050344
0.02841496
0.028789837
0.029174977
0.029570374
0.029976014
0.030391876
0.03081793
0.031254143
0.031700475
0.032156883
0.03262332
0.033099739
0.033586096
0.034082381
0.021142881
0.021237094
0.021335908
0.021439564
0.021548279
0.021662272
0.021781763
0.021906978
0.022038145
0.022175491
0.022319248
0.022469644
0.02262691
0.022791272
0.022962956
0.023142182
0.023329167
0.023524123
0.023727253
0.023938756
0.024158821
0.024387627
0.024625347
0.02487214
0.025128156
0.025393533
0.0256684
0.025952869
0.026247045
0.026551017
0.026864865
0.027188656
0.027522443
0.027866271
0.028220173
0.028584168
0.028958275
0.029342494
0.029736819
0.030141238
0.030555731
0.030980271
0.031414826
0.03185936
0.032313833
0.0327782
0.033252417
0.033736444
0.034230274
0.021275242
0.02137159
0.021472549
0.021578355
0.021689221
0.021805361
0.021926992
0.022054333
0.022187606
0.022327036
0.022472844
0.022625257
0.022784495
0.022950781
0.023124333
0.023305364
0.023494084
0.023690698
0.023895404
0.024108392
0.024329844
0.024559935
0.024798828
0.025046679
0.025303631
0.025569817
0.025845359
0.026130366
0.026424938
0.026729161
0.027043111
0.027366851
0.027700434
0.028043903
0.028397288
0.028760611
0.029133885
0.029517115
0.029910297
0.030313418
0.03072646
0.031149399
0.031582206
0.032024846
0.032477282
0.032939473
0.033411377
0.033892956
0.034384207
0.021414115
0.021512648
0.021615803
0.02172381
0.021836879
0.021955218
0.022079039
0.022208556
0.022343986
0.022485546
0.022633454
0.022787926
0.02294918
0.02311743
0.023292886
0.023475756
0.023666242
0.023864542
0.024070847
0.024285339
0.024508194
0.02473958
0.024979655
0.025228566
0.025486451
0.025753437
0.026029642
0.026315169
0.026610115
0.02691456
0.027228579
0.02755223
0.027885566
0.028228627
0.028581443
0.028944035
0.029316414
0.029698587
0.030090552
0.030492297
0.030903806
0.031325057
0.031756024
0.032196676
0.032646977
0.033106888
0.033576371
0.034055387
0.034543938
0.021559367
0.021660127
0.021765521
0.021875773
0.021991089
0.02211167
0.022237725
0.022369461
0.022507089
0.02265082
0.022800864
0.022957434
0.023120738
0.023290982
0.023468372
0.023653107
0.023845383
0.024045388