/*--------------------------------*- C++ -*----------------------------------*\
| =========                 |                                                 |
| \\      /  F ield         | OpenFOAM: The Open Source CFD Toolbox           |
|  \\    /   O peration     | Version:  2312                                  |
|   \\  /    A nd           | Website:  www.openfoam.com                      |
|    \\/     M anipulation  |                                                 |
\*---------------------------------------------------------------------------*/
FoamFile
{
    version     2.0;
    format      ascii;
    arch        "LSB;label=32;scalar=64";
    class       volScalarField;
    location    "0.05";
    object      CH4;
}
// * * * * * * * * * * * * * * * * * * * * * * * * * * * * * * * * * * * * * //

dimensions      [0 0 0 0 0 0 0];

internalField   nonuniform List<scalar> 
3251
(
0.047262856
0.045841529
0.044425945
0.043017742
0.041618647
0.040230345
0.038854497
0.03749274
0.036146679
0.034817876
0.033507849
0.032218057
0.030949902
0.02970471
0.028483738
0.027288156
0.02611905
0.024977413
0.023864144
0.02278004
0.021725799
0.020702013
0.01970917
0.018747653
0.01781774
0.016919605
0.016053321
0.015218863
0.014416108
0.013644844
0.012904773
0.012195512
0.011516607
0.01086753
0.010247692
0.0096564453
0.0090930929
0.0085568931
0.0080470667
0.0075628036
0.0071032688
0.0066676082
0.006254955
0.005864435
0.0054951721
0.0051462944
0.0048169404
0.004506267
0.0042134585
0.0039377416
0.0036783965
0.0034347014
0.0032064623
0.0029927259
0.0027921098
0.0026039536
0.0024276545
0.0022626737
0.047260498
0.045839297
0.044423954
0.043015965
0.041617069
0.040228954
0.038853284
0.037491696
0.036145797
0.034817149
0.033507269
0.032217619
0.030949597
0.029704534
0.028483682
0.027288215
0.026119217
0.024977683
0.023864509
0.022780494
0.021726335
0.020702625
0.019709853
0.0187484
0.017818545
0.016920462
0.016054225
0.015219808
0.014417089
0.013645855
0.012905809
0.012196569
0.011517679
0.010868614
0.010248782
0.0096575389
0.0090941856
0.0085579813
0.0080481474
0.007563874
0.0071043264
0.0066686515
0.0062559832
0.0058654483
0.0054961724
0.0051472854
0.0048179282
0.0045072599
0.0042144662
0.0039387719
0.0036794542
0.0034358105
0.0032073972
0.0029933496
0.0027925367
0.0026042288
0.002427794
0.0022627589
0.047253062
0.045832109
0.044417143
0.043009525
0.041610988
0.040223219
0.038847886
0.037486626
0.036141044
0.034812705
0.033503125
0.032213766
0.030946026
0.029701235
0.028480647
0.027285434
0.026116681
0.024975381
0.023862433
0.022778634
0.021724681
0.020701168
0.019708582
0.018747306
0.017817618
0.016919692
0.016053603
0.015219323
0.014416732
0.013645618
0.012905682
0.012196543
0.011517745
0.010868763
0.010249008
0.009657832
0.009094539
0.0085583879
0.0080486005
0.0075643673
0.0071048544
0.0066692093
0.0062565667
0.0058660547
0.0054968001
0.0051479348
0.0048186014
0.0045079606
0.0042151985
0.0039395365
0.0036802438
0.0034366152
0.0032080702
0.0029937927
0.0027928052
0.0026043569
0.0024277881
0.0022626325
0.047240343
0.045819823
0.044405382
0.04299829
0.041600269
0.040213007
0.038838169
0.037477393
0.036132284
0.034804407
0.033495279
0.03220636
0.03093905
0.029694678
0.028474496
0.027279678
0.026111308
0.024970379
0.023857788
0.022774334
0.021720714
0.020697519
0.019705238
0.018744254
0.017814844
0.016917183
0.016051344
0.015217302
0.014414935
0.013644032
0.012904293
0.012195338
0.011516713
0.01086789
0.010248282
0.009657242
0.0090940735
0.0085580362
0.0080483522
0.0075642128
0.0071047848
0.0066692162
0.0062566429
0.005866194
0.0054969977
0.0051481874
0.0048189072
0.0045083186
0.0042156074
0.003939991
0.0036807282
0.0034371032
0.0032084603
0.0029940114
0.0027928756
0.0026043048
0.0024276169
0.0022621995
0.047222272
0.045802378
0.044388617
0.042982208
0.041584862
0.040198264
0.038824078
0.037463942
0.036119462
0.034792201
0.033483676
0.032195349
0.030928616
0.029684808
0.028465176
0.027270894
0.026103045
0.024962622
0.023850522
0.022767542
0.02171438
0.020691627
0.019699771
0.018739194
0.017810175
0.016912887
0.016047404
0.0152137
0.014411653
0.013641053
0.0129016
0.012192915
0.011514542
0.010865956
0.010246568
0.0096557329
0.0090927543
0.0085568925
0.0080473703
0.0075633794
0.0071040874
0.0066686434
0.006256184
0.0058658394
0.0054967393
0.0051480182
0.0048188214
0.0045083111
0.0042156719
0.0039401166
0.0036808937
0.0034372747
0.0032085622
0.0029939862
0.0027927284
0.0026040585
0.0024273045
0.047200177
0.04578105
0.044368081
0.042962465
0.041565904
0.04018008
0.038806657
0.037447273
0.036103531
0.034776995
0.033469183
0.032181553
0.030915504
0.029672365
0.028453388
0.027259744
0.026092516
0.024952698
0.023841185
0.022758775
0.021706164
0.020683944
0.019692601
0.018732518
0.017803973
0.016907139
0.01604209
0.0152088
0.014407147
0.013636921
0.012897822
0.01218947
0.011511412
0.010863121
0.01024401
0.0096534335
0.009090696
0.0085550582
0.0080457435
0.0075619446
0.0071028295
0.0066675483
0.0062552386
0.0058650315
0.005496058
0.0051474535
0.0048183643
0.0045079528
0.0042154022
0.0039399211
0.0036807484
0.0034371448
0.00320839
0.0029937267
0.0027923768
0.0026036381
0.0024269795
0.047174869
0.045756612
0.044344526
0.04293979
0.041544103
0.040159142
0.038786571
0.037428025
0.036085109
0.034759386
0.033452372
0.032165526
0.030900246
0.02965786
0.02843962
0.027246695
0.02608017
0.024941035
0.023830188
0.022748424
0.021696438
0.020674823
0.019684064
0.018724544
0.01779654
0.016900225
0.016035673
0.015202857
0.014401657
0.01363186
0.012893169
0.012185204
0.011507509
0.010859562
0.010240773
0.0096504983
0.0090880429
0.0085526681
0.0080435979
0.0075600257
0.0071011204
0.0066660328
0.0062539015
0.0058638586
0.005495036
0.0051465702
0.0048176082
0.0045073124
0.0042148645
0.0039394692
0.0036803573
0.0034367796
0.0032080031
0.0029932795
0.0027918592
0.0026030656
0.0024264737
0.047144365
0.045727148
0.044316102
0.042912406
0.041517749
0.040133808
0.038762243
0.03740469
0.036062752
0.034737993
0.033431926
0.032146011
0.030881645
0.029640155
0.028422792
0.027230725
0.026065038
0.02492672
0.023816667
0.022735675
0.021684439
0.020663548
0.019673491
0.018714646
0.017787292
0.016891602
0.016027649
0.015195405
0.014394751
0.013625475
0.012887277
0.01217978
0.011502528
0.010854998
0.010236602
0.0096466961
0.009084586
0.0085495336
0.0080407639
0.007557471
0.0070988247
0.0066639767
0.0062520665
0.0058622273
0.0054935917
0.0051452975
0.0048164923
0.0045063384
0.004214016
0.0039387262
0.0036796918
0.0034361548
0.003207374
0.0029926096
0.0027911335
0.0026022875
0.0024256599
0.047108275
0.045692273
0.044282441
0.042879954
0.041486497
0.040103743
0.038733351
0.037376957
0.036036161
0.034712527
0.033407567
0.032122742
0.030859446
0.029619005
0.02840267
0.02721161
0.026046905
0.024909546
0.023800428
0.022720344
0.021669989
0.020649953
0.019660721
0.018702674
0.017776088
0.016881136
0.016017891
0.015186325
0.014386318
0.013617659
0.012880048
0.012173107
0.011496382
0.010849349
0.010231422
0.0096419565
0.0090802595
0.0085455938
0.0080371849
0.007554228
0.0070958938
0.0066613348
0.0062496917
0.0058600986
0.0054916892
0.0051436021
0.0048149857
0.0045050022
0.0042128307
0.0039376684
0.0036787311
0.0034352524
0.0032064858
0.0029916999
0.0027901857
0.0026013034
0.047066181
0.045651584
0.044243151
0.042842056
0.04144998
0.040068594
0.038699554
0.037344495
0.036005017
0.034682682
0.033379002
0.032095435
0.030833375
0.029594149
0.028379004
0.027189109
0.026025544
0.024889298
0.023781263
0.022702234
0.021652903
0.02063386
0.019645588
0.018688469
0.017762777
0.016868685
0.016006265
0.01517549
0.014376239
0.0136083
0.012871375
0.012165086
0.011488978
0.010842529
0.010225152
0.0096362044
0.0090749938
0.0085407836
0.0080328005
0.0075502405
0.0070922754
0.0066580588
0.0062467322
0.005857431
0.0054892899
0.0051414482
0.0048130552
0.0045032734
0.0042112808
0.0039362712
0.0036774535
0.0034340534
0.0032053202
0.0029905336
0.0027890069
0.0026001732
0.047017643
0.045604652
0.044197816
0.04279831
0.04140781
0.040027985
0.038660489
0.037306955
0.035968983
0.034648133
0.033345916
0.03206379
0.030803147
0.029565311
0.028351531
0.027162972
0.026000713
0.024865743
0.023758952
0.022681135
0.021632981
0.020615078
0.019627912
0.01867186
0.017747198
0.016854097
0.015992628
0.015162766
0.014364387
0.013597281
0.012861149
0.012155613
0.011480219
0.010834446
0.010217707
0.0096293602
0.0090687144
0.0085350339
0.0080275463
0.0075454487
0.0070879141
0.0066540972
0.0062431406
0.0058541806
0.0054863529
0.005138798
0.0048106659
0.0045011197
0.0042093368
0.0039345082
0.0036758362
0.0034325375
0.0032038585
0.0029890955
0.0027875904
0.046962194
0.045551024
0.044145998
0.042748292
0.041359577
0.039981519
0.038615773
0.037263968
0.035927703
0.034608537
0.033307981
0.03202749
0.030768455
0.029532199
0.028319969
0.027132929
0.025972157
0.024838639
0.023733264
0.022656825
0.021610012
0.02059341
0.019607504
0.018652669
0.017729182
0.016837212
0.01597683
0.015148009
0.014350628
0.013584474
0.012849249
0.012144576
0.011470001
0.010825002
0.010208995
0.0096213391
0.0090613424
0.0085282711
0.008021354
0.0075397893
0.0070827512
0.0066493956
0.0062388662
0.0058503004
0.005482835
0.0051356114
0.0048077806
0.0044985066
0.0042069674
0.0039323517
0.0036738552
0.0034306843
0.0032020819
0.0029873738
0.0027859978
0.04689934
0.04549022
0.044087233
0.042691552
0.041304845
0.039928777
0.038565
0.037215142
0.0358808
0.034563532
0.033264847
0.031986199
0.030728978
0.029494505
0.028284024
0.027098699
0.025939605
0.024807727
0.023703952
0.022629072
0.021583774
0.020568644
0.019584162
0.018630706
0.017708549
0.01681786
0.01595871
0.01513107
0.01433482
0.013569746
0.012835552
0.012131858
0.011458213
0.010814096
0.010198922
0.0096120515
0.0090527943
0.0085204175
0.0080141512
0.0075331949
0.0070767241
0.006643896
0.0062338554
0.0058457409
0.0054786901
0.0051318456
0.0048043596
0.0044953977
0.0042041392
0.0039297722
0.0036714858
0.003428473
0.0031999717
0.0029853563
0.046828561
0.045421737
0.04402103
0.042627617
0.041243158
0.039869317
0.038507743
0.037160064
0.035827875
0.034512733
0.033216145
0.031939563
0.030684375
0.029451901
0.028243383
0.027059982
0.025902771
0.024772734
0.023670757
0.022597628
0.021554032
0.020540556
0.019557676
0.01860577
0.017685109
0.016795862
0.015938098
0.015111789
0.014316813
0.013552957
0.012819924
0.012117335
0.01144474
0.010801618
0.010187385
0.0096014021
0.0090429813
0.0085113905
0.0080058611
0.0075255942
0.0070697667
0.006637537
0.0062280514
0.0058404494
0.0054738697
0.0051274558
0.0048003613
0.0044917541
0.0042008166
0.0039267383
0.0036687026
0.0034258848
0.0031975125
0.0029831101
0.046749304
0.045345039
0.043946874
0.042555986
0.041174031
0.039802669
0.03844355
0.037098299
0.03576851
0.034455737
0.033161486
0.031887208
0.030634288
0.029404044
0.028197716
0.027016462
0.025861355
0.024733374
0.023633404
0.02256223
0.021520539
0.02050891
0.019527822
0.01857765
0.017658662
0.016771029
0.015914817
0.015089998
0.014296448
0.013533957
0.012802225
0.012100876
0.011429458
0.010787452
0.010174276
0.0095892905
0.0090318096
0.0085011025
0.0079964023
0.0075169116
0.0070618088
0.0066302538
0.0062213942
0.0058343705
0.0054683225
0.0051223943
0.0047957412
0.0044875343
0.0041969612
0.0039232164
0.0036654799
0.0034229043
0.0031946836
0.046660992
0.045259565
0.043864221
0.042476133
0.041096954
0.039728343
0.038371946
0.037029388
0.035702261
0.034392117
0.033100461
0.03182874
0.030578338
0.029350571
0.028146675
0.026967808
0.025815037
0.024689342
0.023591604
0.022522606
0.021483031
0.020473458
0.019494364
0.018546121
0.017628997
0.01674316
0.015888677
0.015065518
0.014273559
0.013512588
0.012782308
0.012082341
0.011412238
0.010771478
0.010159481
0.0095756103
0.00901918
0.0084894613
0.0079856889
0.0075070672
0.0070527762
0.0066219776
0.0062138201
0.0058274456
0.0054619942
0.0051166111
0.0047904528
0.0044826943
0.0041925314
0.0039191697
0.0036617916
0.0034195276
0.0031915511
0.046563012
0.045164723
0.043772497
0.042387505
0.041011394
0.03964582
0.038292431
0.036952848
0.035628663
0.034321425
0.033032637
0.031763744
0.030516128
0.0292911
0.028089896
0.026913669
0.025763485
0.02464032
0.023545053
0.022478464
0.021441233
0.020433939
0.019457054
0.018510949
0.017595891
0.016712046
0.01585948
0.015038162
0.014247968
0.013488685
0.012760016
0.012061585
0.011392941
0.010753566
0.010142881
0.0095602493
0.0090049878
0.0084763692
0.0079736301
0.0074959766
0.0070425908
0.006612636
0.0062052624
0.0058196129
0.0054548282
0.0051100536
0.0047844468
0.0044771869
0.0041874816
0.0039145564
0.0036576101
0.0034157605
0.046454722
0.045059893
0.043671103
0.04228952
0.040916786
0.039554558
0.03820448
0.036868173
0.035547227
0.034243191
0.032957562
0.031691785
0.030447238
0.02922523
0.028026993
0.026853678
0.025706347
0.024585973
0.023493431
0.0224295
0.021394857
0.020390077
0.019415631
0.018471887
0.017559111
0.016677466
0.015827017
0.015007733
0.01421949
0.013462073
0.012735186
0.012038453
0.011371424
0.010733582
0.010124348
0.0095430892
0.0089891227
0.0084617234
0.00796013
0.0074835508
0.0070311699
0.0066021525
0.0061956504
0.0058108075
0.0054467648
0.0051026671
0.0047776719
0.0044709621
0.0041817612
0.003909328
0.0036529029
0.0034117535
0.046335447
0.044944423
0.043559408
0.042181568
0.040812542
0.039453985
0.038107541
0.03677483
0.035457441
0.034156919
0.032874761
0.031612406
0.030371231
0.029152541
0.027957565
0.02678745
0.025643255
0.024525949
0.023436404
0.022375396
0.021343599
0.020341584
0.019369821
0.018428675
0.01751841
0.016639187
0.01579107
0.014974026
0.01418793
0.013432569
0.012707646
0.012012784
0.011347535
0.010711383
0.01010375
0.0095240058
0.0089714686
0.0084454157
0.007945088
0.0074696962
0.0070184266
0.0065904467
0.00618491
0.0058009613
0.0054377418
0.0050943948
0.0047700752
0.0044639677
0.0041753141
0.0039034248
0.0036475934
0.0034071586
0.046204477
0.044817631
0.043436753
0.042063013
0.040698044
0.039343504
0.038001038
0.036672263
0.035358767
0.034062093
0.032783735
0.031525129
0.030287648
0.029072593
0.027881189
0.02671458
0.025573822
0.024459879
0.02337362
0.022315817
0.02128714
0.020288159
0.019319338
0.018381042
0.017473531
0.016596965
0.015751407
0.014936822
0.014153085
0.013399981
0.012677213
0.011984407
0.011321114
0.010686819
0.010080948
0.0095028684
0.0089519036
0.0084273323
0.0079283981
0.0074543142
0.0070042696
0.0065774341
0.0061729633
0.0057900032
0.0054276946
0.0050851781
0.0047616031
0.0044561501
0.0041680785
0.0038967796
0.0036416174
0.0034017928
0.046061066
0.044678806
0.043302453
0.041933189
0.040572649
0.039222493
0.037884368
0.03655989
0.035250645
0.033958173
0.032683965
0.031429454
0.030196007
0.028984924
0.027797425
0.026634648
0.025497646
0.024387379
0.023304713
0.022250414
0.021225149
0.020229484
0.019263883
0.018328704
0.017424206
0.016550548
0.01570779
0.014895896
0.01411474
0.013364107
0.012643701
0.011953146
0.011291995
0.010659736
0.010055794
0.0094795403
0.0089302998
0.008407354
0.0079099492
0.0074373016
0.006988603
0.006563026
0.0061597286
0.0057778585
0.0054165561
0.0050749579
0.0047522035
0.0044474579
0.0041599879
0.0038893219
0.0036349801
0.045904434
0.044527211
0.043155794
0.041791404
0.040435685
0.039090302
0.037756903
0.036437105
0.03513249
0.033844595
0.032574909
0.031324859
0.030095811
0.028889056
0.027705813
0.026547214
0.025414308
0.024308049
0.023229299
0.022178822
0.021157279
0.020165232
0.019203142
0.018271364
0.017370154
0.016499669
0.015659967
0.01485101
0.014072672
0.013324738
0.01260691
0.011918814
0.011260005
0.010629969
0.010028136
0.0094538784
0.0089065235
0.008385356
0.0078896251
0.0074185501
0.0069713262
0.0065471294
0.0061451205
0.0057644493
0.0054042565
0.0050636745
0.0047418281
0.0044378496
0.0041509725
0.0038809713
0.0036279187
0.045733764
0.044362086
0.042996039
0.04163694
0.040286454
0.038946254
0.037617989
0.036303275
0.035003692
0.033720773
0.032456002
0.031210804
0.029986537
0.02878449
0.027605874
0.02645182
0.025323368
0.024221471
0.023146982
0.022100662
0.021083169
0.02009506
0.01913679
0.018208714
0.017311084
0.016444053
0.015607677
0.014801919
0.01402665
0.013281655
0.012566635
0.011881219
0.01122496
0.010597349
0.0099978142
0.0094257334
0.0088804354
0.0083612081
0.0078673042
0.0073979466
0.0069523343
0.006529647
0.0061290492
0.0057496938
0.0053907233
0.0050512676
0.0047304367
0.0044273105
0.0041409671
0.045548227
0.044182658
0.042822426
0.041469052
0.040124232
0.038789648
0.037466948
0.036157747
0.03486362
0.033586099
0.03232666
0.031086725
0.029867646
0.028670708
0.027497115
0.026347993
0.025224376
0.024127212
0.02305735
0.022015543
0.021002447
0.020018612
0.019064492
0.018140435
0.017246692
0.016383413
0.015550651
0.014748368
0.013976433
0.013234631
0.012522664
0.011840159
0.011186674
0.010561698
0.0099646635
0.0093949503
0.0088518903
0.0083347747
0.00784286
0.0073753733
0.0069315177
0.0065104771
0.0061114209
0.0057335063
0.0053758801
0.0050376748
0.004717998
0.0044158947
0.045347084
0.04398815
0.042634173
0.04128697
0.039948271
0.038619758
0.037303078
0.035999842
0.034711622
0.033439943
0.032186278
0.030952041
0.029738581
0.028547175
0.027379023
0.026235242
0.025116863
0.024024826
0.022959975
0.021923059
0.020914725
0.019935523
0.018985898
0.018066198
0.017176667
0.016317453
0.015488609
0.014690092
0.013921771
0.013183431
0.012474774
0.011795428
0.01114495
0.010522833
0.0099285118
0.0093613681
0.0088207375
0.0083059151
0.0078161613
0.0073507076
0.0069087621
0.0064895137
0.0060921373
0.0057157961
0.0053596443
0.0050228254
0.0047044767
0.0044038204
0.046486233
0.045130154
0.043777791
0.042430464
0.041089896
0.039757795
0.038435835
0.037125656
0.035828864
0.034547025
0.033281659
0.032034233
0.030806155
0.029598768
0.028413341
0.027251069
0.026113063
0.025000346
0.023913852
0.02285442
0.02182279
0.020819607
0.019845413
0.01890065
0.01798566
0.017100685
0.016245869
0.015421261
0.014626819
0.013862408
0.013127814
0.012422738
0.01174681
0.011099587
0.010480566
0.0098891817
0.0093248206
0.0087868215
0.0082744836
0.0077870718
0.0073238226
0.0068839492
0.0064666464
0.0060710955
0.0056964673
0.0053419257
0.0050066305
0.0046897534
0.0043906288
0.046245462
0.044895994
0.043550643
0.04221044
0.040877004
0.039552007
0.038237108
0.036933937
0.035644093
0.034369136
0.03311058
0.031869884
0.030648451
0.029447615
0.028268641
0.027112714
0.025980938
0.024874331
0.023793819
0.022740233
0.02171431
0.020716685
0.019747897
0.018808381
0.017898475
0.017018417
0.016168347
0.015348313
0.014558269
0.013798081
0.013067531
0.012366323
0.011694085
0.011050379
0.010434701
0.0098464906
0.0092851366
0.008749982
0.0082403303
0.0077554514
0.007294587
0.0068569564
0.0064417607
0.0060481884
0.0056754189
0.0053226273
0.0049889899
0.0046737059
0.004376165
0.045985335
0.044643465
0.043305741
0.041973208
0.040647443
0.03933009
0.038022788
0.036727161
0.035444797
0.034177251
0.032926027
0.031692579
0.030478302
0.029284522
0.028112497
0.026963404
0.02583834
0.024738314
0.023664245
0.022616957
0.02159718
0.020605543
0.019642577
0.018708714
0.017804285
0.016929524
0.016084569
0.015269463
0.014484158
0.013728518
0.013002327
0.012305287
0.011637029
0.010997113
0.01038504
0.0098002516
0.0092421408
0.0087100545
0.0082033011
0.0077211558
0.0072628661
0.0068276575
0.0064147384
0.0060233049
0.0056525457
0.0053016471
0.0049698004
0.0046562241
0.0043603303
0.045705086
0.04437157
0.043042125
0.041717861
0.040400346
0.039091207
0.037792072
0.036504553
0.03523023
0.03397065
0.032727309
0.031501654
0.03029507
0.029108877
0.027944323
0.026802579
0.025684731
0.024591782
0.023524641
0.022484125
0.021470957
0.020485758
0.019529053
0.018601268
0.017702729
0.016833665
0.015994209
0.015184402
0.014404194
0.013653448
0.012931945
0.012239389
0.011575411
0.010939574
0.010331379
0.0097502744
0.0091956545
0.0086668716
0.0081632391
0.0076840379
0.0072285219
0.0067959234
0.0063854583
0.0059963308
0.0056277392
0.0052788806
0.0049489589
0.0046372058
0.0043430411
0.045403825
0.044079349
0.042758849
0.041443487
0.040134836
0.038834517
0.037544147
0.03626533
0.034999638
0.033748607
0.032513728
0.031296437
0.030098111
0.028920063
0.027763529
0.026629672
0.025519571
0.024434217
0.023374513
0.022341267
0.021335192
0.020356904
0.01940692
0.018485659
0.017593442
0.016730493
0.015896941
0.015092823
0.014318087
0.013572594
0.012856124
0.012168382
0.011509
0.010877543
0.010273515
0.0096963661
0.0091454967
0.0086202632
0.0081199847
0.0076439481
0.0071914142
0.0067616224
0.0063537965
0.0059671494
0.0056008886
0.0052542216
0.0049263629
0.0046165538
0.0043242162
0.045080609
0.043765849
0.042454971
0.041149172
0.039850033
0.03855917
0.037278197
0.036008706
0.034752263
0.033510395
0.032284583
0.031076256
0.029886781
0.02871746
0.027569522
0.026444118
0.025342318
0.024265104
0.023213369
0.022187912
0.021189439
0.020218556
0.019275773
0.018361503
0.01747606
0.016619663
0.015792436
0.014994414
0.014225541
0.013485677
0.012774602
0.01209202
0.011437564
0.010810801
0.01021124
0.009638333
0.0090914851
0.0085700582
0.0080733772
0.0076007357
0.0071514013
0.0067246214
0.0063196278
0.0059356425
0.005571882
0.0052275636
0.0049019113
0.0045941741
0.0043037746
0.044734473
0.043430121
0.042129562
0.040834014
0.039545063
0.038264325
0.036993408
0.035733898
0.034487352
0.033255288
0.03203918
0.030840444
0.029660438
0.028500455
0.027361713
0.026245352
0.025152433
0.024083927
0.023040717
0.022023594
0.021033251
0.020070289
0.019135209
0.018228417
0.017350219
0.01650083
0.01568037
0.014888868
0.014126267
0.013392424
0.01268712
0.012010057
0.011360871
0.010739132
0.01014435
0.0095759819
0.0090334381
0.0085160858
0.0080232561
0.0075542496
0.0071083415
0.006684787
0.0062828268
0.0059016916
0.0055406074
0.0051988007
0.0048755044
0.0045699746
0.004281635
0.044364459
0.043071229
0.041781707
0.040497122
0.039219065
0.03794915
0.036688979
0.035440134
0.034204163
0.032982575
0.031776831
0.030588341
0.029418452
0.028268443
0.027139524
0.026032823
0.024949389
0.023890183
0.022856078
0.021847853
0.020866194
0.01991169
0.018984835
0.018086026
0.017215565
0.016373659
0.015560423
0.014775882
0.014019977
0.013292564
0.01259342
0.011922252
0.011278694
0.010662319
0.010072641
0.0095091222
0.0089711763
0.0084581771
0.0079694626
0.0075043405
0.007062094
0.0066419869
0.0062432686
0.0058651791
0.0055069538
0.0051678284
0.0048470441
0.0045438649
0.0042577162
0.043969624
0.042688257
0.041410514
0.040137632
0.038871202
0.037612836
0.036364134
0.035126667
0.033901976
0.032691561
0.031496873
0.030319311
0.02916021
0.028020839
0.026902394
0.025805994
0.024732673
0.023683384
0.022658985
0.021660247
0.020687844
0.019742356
0.018824268
0.017933969
0.017071753
0.016237822
0.015432285
0.014655164
0.013906395
0.013185833
0.012493257
0.01182837
0.011190811
0.010580155
0.0099959181
0.009437568
0.0089045244
0.0083961671
0.0079118411
0.0074508619
0.0070125211
0.0065960912
0.0062008308
0.0058259896
0.0054708124
0.0051345442
0.0048164351
0.0045157567
0.004231938
0.043549061
0.042280324
0.041015128
0.039754715
0.038500673
0.037254611
0.036018124
0.034792776
0.033580099
0.032381583
0.03119867
0.030032743
0.028885129
0.027757084
0.02664979
0.025564354
0.024501799
0.023463063
0.022448995
0.021460352
0.020497799
0.019561904
0.018653144
0.017771899
0.016918455
0.016093008
0.015295661
0.014526432
0.013785255
0.013071982
0.012386391
0.011728188
0.011097011
0.010492438
0.0099139909
0.0093611411
0.0088333144
0.0083298973
0.0078502422
0.0073936729
0.0069594896
0.0065469742
0.006155395
0.0057840113
0.0054320779
0.0050988493
0.0047835848
0.0044855646
0.004204222
0.043101913
0.0418466
0.040594745
0.039347591
0.038106724
0.036873748
0.03565025
0.034437789
0.033237887
0.032052022
0.030881624
0.029728067
0.028592663
0.027476654
0.026381211
0.025307426
0.02425631
0.023228788
0.022225694
0.021247776
0.020295684
0.019369979
0.018471126
0.017599495
0.016755366
0.015938927
0.015150276
0.014389427
0.01365631
0.012950777
0.012272603
0.011621495
0.010997094
0.010398981
0.0098266824
0.0092796738
0.0087573877
0.0082592178
0.0077845244
0.0073326398
0.0069028735
0.006494517
0.0061068486
0.0057391379
0.0053906501
0.0050606495
0.0047484053
0.0044532069
0.004174493
0.042627391
0.041386321
0.040148625
0.038915546
0.037688665
0.036469581
0.035259873
0.034061092
0.032874748
0.03170231
0.030545195
0.029404764
0.028282314
0.027179076
0.026096205
0.025034779
0.023995796
0.022980165
0.021988709
0.021022162
0.020081162
0.019166259
0.018277906
0.017416466
0.016582209
0.015775317
0.014995882
0.014243913
0.013519337
0.012822004
0.012151689
0.0115081
0.01089088
0.010299614
0.0097338303
0.0091930125
0.0086765992
0.0081839913
0.0077145576
0.0072676395
0.006842556
0.006438609
0.0060550872
0.0056912708
0.0053464358
0.0050198572
0.0047108144
0.004418607
0.0041426799
0.042124795
0.04089881
0.039676114
0.038457949
0.037245889
0.036041525
0.03484643
0.033662143
0.032490165
0.031331952
0.030188908
0.02906238
0.027953651
0.026863937
0.025794378
0.024746038
0.023719898
0.022716854
0.021737716
0.020783201
0.019853939
0.018950464
0.01807322
0.01722256
0.016398746
0.015601951
0.014832263
0.014089685
0.013374141
0.01268548
0.012023476
0.011387838
0.010778212
0.010194185
0.0096352922
0.0091010221
0.0085908202
0.0081040957
0.007640226
0.007198562
0.006778433
0.0063791513
0.0060000167
0.0056403208
0.0052993507
0.0049763928
0.0046707375
0.0043816951
0.0041087178
0.041593538
0.040383501
0.039176666
0.037974274
0.036777888
0.035589095
0.034409455
0.033240498
0.032083712
0.030940541
0.029812374
0.028700545
0.02760632
0.0265309
0.02547541
0.024440897
0.023428327
0.022438581
0.021472452
0.020530647
0.019613778
0.01872237
0.017856855
0.017017574
0.016204783
0.015418645
0.014659243
0.013926576
0.013220563
0.012541053
0.011887819
0.011260571
0.010658958
0.010082571
0.00953095
0.0090035898
0.0084999437
0.0080194289
0.0075614322
0.0071253145
0.0067104157
0.0063160593
0.0059415567
0.0055862113
0.005249322
0.0049301872
0.0046281091
0.0043424099
0.0040725493
0.041033167
0.039839959
0.038649865
0.037464121
0.036284282
0.035111925
0.033948599
0.032795823
0.031655072
0.030527775
0.029415308
0.028318987
0.027240064
0.026179722
0.025139069
0.024119137
0.023120874
0.022145146
0.021192731
0.020264319
0.019360511
0.018481817
0.017628657
0.016801364
0.016000181
0.015225268
0.014476698
0.013754466
0.01305849
0.012388614
0.011744614
0.0111262
0.010533023
0.0099646796
0.0094207153
0.0089006312
0.0084038882
0.0079299128
0.0074781012
0.0070478249
0.006638435
0.0062492666
0.0058796432
0.0055288806
0.0051962905
0.004881184
0.0045828757
0.0043007005
0.0040341266
0.040443399
0.039267914
0.038095453
0.036927246
0.035764838
0.034609795
0.033463655
0.032327923
0.031204061
0.030093482
0.028997546
0.027917554
0.026854739
0.025810268
0.02478523
0.02378064
0.02279743
0.021836448
0.020898455
0.019984128
0.019094051
0.018228722
0.017388549
0.016573854
0.015784871
0.01502175
0.014284561
0.013573292
0.012887858
0.012228103
0.011593802
0.010984667
0.010400352
0.0098404576
0.009304536
0.008792095
0.008302604
0.0078354986
0.0073901853
0.0069660465
0.006562445
0.0061787282
0.0058142322
0.0054682859
0.0051402144
0.0048293422
0.0045349977
0.0042565289
0.0039934138
0.039824145
0.038667286
0.037513359
0.036363586
0.035219501
0.034082658
0.032954582
0.031836764
0.03073065
0.02963764
0.028559074
0.027496235
0.026450339
0.025422535
0.024413893
0.02342541
0.022457999
0.021512491
0.020589632
0.01969008
0.018814406
0.017963093
0.017136539
0.016335052
0.015558857
0.014808098
0.014082836
0.013383056
0.01270867
0.01205952
0.011435381
0.010835968
0.010260938
0.0097098969
0.0091824023
0.0086779701
0.0081960783
0.0077361722
0.0072976691
0.0068799628
0.0064824282
0.0061044254
0.0057453039
0.0054044064
0.0050810719
0.0047746395
0.0044844521
0.0042098722
0.0039503885
0.039175552
0.038038225
0.036903735
0.035773294
0.034648425
0.033530668
0.032421536
0.031322502
0.030234998
0.029160404
0.028100044
0.027055182
0.026027016
0.025016672
0.024025205
0.023053589
0.022102721
0.021173413
0.020266393
0.019382302
0.018521697
0.017685047
0.016872736
0.016085061
0.015322238
0.014584402
0.013871608
0.013183838
0.012520999
0.011882932
0.011269413
0.01068016
0.010114833
0.0095730426
0.0090543545
0.0085582919
0.0080843421
0.0076319605
0.0072005755
0.0067895928
0.0063984
0.0060263704
0.0056728673
0.0053372477
0.0050188655
0.0047170752
0.0044312356
0.0041607253
0.0039050448
0.038498037
0.037381143
0.036266987
0.035156772
0.034052007
0.032954217
0.031864899
0.030785513
0.029717472
0.028662136
0.027620811
0.026594741
0.025585104
0.024593006
0.02361948
0.022665483
0.021731891
0.020819496
0.019929009
0.019061055
0.018216174
0.017394821
0.016597366
0.015824096
0.015075216
0.014350854
0.013651058
0.012975805
0.012325
0.011698484
0.011096033
0.010517367
0.0099621509
0.0094300015
0.0089204906
0.0084331503
0.0079674773
0.0075229378
0.0070989717
0.0066949972
0.0063104148
0.0059446115
0.0055969648
0.0052668464
0.0049536259
0.004656674
0.0043753673
0.0041091026
0.003857395
0.037792333
0.036696759
0.03560382
0.034514709
0.033430919
0.032353962
0.031285317
0.030226426
0.029178683
0.02814343
0.027121953
0.026115473
0.025125147
0.024152061
0.023197228
0.022261582
0.021345979
0.020451193
0.019577916
0.018726754
0.017898233
0.017092791
0.016310787
0.015552496
0.014818112
0.014107756
0.01342147
0.012759226
0.012120927
0.011506413
0.010915462
0.010347795
0.0098030845
0.0092809512
0.008780975
0.008302697
0.0078456239
0.007409233
0.0069929763
0.0065962846
0.0062185719
0.0058592391
0.0055176782
0.0051932757
0.0048854171
0.0045934905
0.0043168918
0.0040550402
0.0038074709
0.03705953
0.035986137
0.034915275
0.033848121
0.032786154
0.031730869
0.030683729
0.029646155
0.028619522
0.027605151
0.026604305
0.025618186
0.024647928
0.023694594
0.022759176
0.021842586
0.020945658
0.020069149
0.019213729
0.018379989
0.017568435
0.016779494
0.016013509
0.015270744
0.014551384
0.013855542
0.013183252
0.012534485
0.01190914
0.011307057
0.010728016
0.010171742
0.00963791
0.0091261493
0.0086360474
0.0081671546
0.0077189883
0.0072910374
0.0068827661
0.0064936185
0.0061230222
0.0057703922
0.0054351347
0.0051166512
0.0048143424
0.004527614
0.004255883
0.0039985964
0.0037553245
0.036301125