/*--------------------------------*- C++ -*----------------------------------*\
| =========                 |                                                 |
| \\      /  F ield         | OpenFOAM: The Open Source CFD Toolbox           |
|  \\    /   O peration     | Version:  2312                                  |
|   \\  /    A nd           | Website:  www.openfoam.com                      |
|    \\/     M anipulation  |                                                 |
\*---------------------------------------------------------------------------*/
FoamFile
{
    version     2.0;
    format      ascii;
    arch        "LSB;label=32;scalar=64";
    class       volScalarField;
    location    "0.05";
    object      H2O;
}
// * * * * * * * * * * * * * * * * * * * * * * * * * * * * * * * * * * * * * //

dimensions      [0 0 0 0 0 0 0];

internalField   nonuniform List<scalar> 
3251
(
0.03872045
0.038447326
0.038145629
0.03781515
0.037455952
0.037068237
0.036652354
0.036208795
0.035738194
0.035241319
0.03471907
0.034172475
0.033602678
0.033010932
0.032398592
0.031767105
0.031117994
0.030452851
0.029773325
0.029081107
0.028377917
0.027665494
0.026945585
0.026219925
0.025490236
0.024758208
0.024025493
0.023293692
0.022564352
0.021838951
0.021118898
0.020405523
0.019700073
0.019003711
0.018317509
0.017642449
0.016979423
0.016329231
0.015692579
0.015070088
0.014462291
0.013869633
0.013292482
0.012731127
0.012185782
0.011656593
0.01114364
0.010646945
0.010166477
0.0097021523
0.0092538498
0.0088214446
0.0084048015
0.0080036194
0.0076175552
0.0072462951
0.0068895148
0.0065468709
0.038716272
0.038443227
0.038141594
0.037811144
0.037451972
0.037064286
0.036648437
0.036204916
0.035734356
0.035237527
0.03471533
0.034168791
0.033599053
0.033007372
0.032395101
0.031763686
0.031114652
0.030449589
0.029770147
0.029078015
0.028374914
0.027662583
0.026942767
0.026217203
0.02548761
0.02475568
0.024023063
0.023291361
0.022562119
0.021836816
0.021116861
0.020403582
0.019698228
0.019001959
0.018315849
0.01764088
0.016977942
0.016327834
0.015691266
0.015068856
0.014461135
0.013868553
0.013291475
0.012730189
0.012184911
0.011655786
0.011142896
0.010646263
0.010165855
0.0097015909
0.0092533495
0.0088209984
0.0084043714
0.0080031883
0.0076171298
0.0072458815
0.006889121
0.0065465048
0.038708465
0.038435484
0.038133913
0.037803499
0.037444361
0.037056716
0.036640915
0.03619745
0.035726956
0.035230202
0.034708088
0.034161641
0.033592004
0.033000433
0.03238828
0.031756992
0.031108092
0.030443172
0.029763878
0.029071901
0.028368961
0.027656796
0.02693715
0.02621176
0.025482344
0.024750594
0.024018158
0.023286639
0.02255758
0.02183246
0.021112687
0.020399589
0.019694413
0.018998321
0.018312385
0.017637586
0.016974815
0.016324871
0.015688461
0.015066205
0.014458634
0.013866196
0.013289257
0.012728106
0.012182957
0.011653957
0.011141188
0.010644671
0.010164376
0.0097002207
0.0092520853
0.0088198276
0.0084032641
0.0080021279
0.0076161152
0.0072449147
0.0068882072
0.006545637
0.038697022
0.038424094
0.038122577
0.037792204
0.037433109
0.037045516
0.036629779
0.03618639
0.035715985
0.035219333
0.034697335
0.034151017
0.033581523
0.032990107
0.032378123
0.031747016
0.031098309
0.030433593
0.029754514
0.029062761
0.028360053
0.027648129
0.026928731
0.026203594
0.025474437
0.024742949
0.024010778
0.023279526
0.022550735
0.021825883
0.021106377
0.020393544
0.019688632
0.018992799
0.018307119
0.017632571
0.016970046
0.016320341
0.015684166
0.015062137
0.014454787
0.013862563
0.013285831
0.012724879
0.012179922
0.011651107
0.011138516
0.01064217
0.010162039
0.0096980421
0.0092500574
0.0088179348
0.008401481
0.0080004374
0.0076145106
0.0072433945
0.0068867723
0.0065442526
0.038681964
0.038409077
0.038107607
0.037777277
0.037418233
0.037030704
0.036615045
0.036171751
0.035701458
0.035204936
0.034683086
0.034136934
0.033567624
0.032976409
0.032364644
0.031733772
0.031085316
0.030420865
0.029742066
0.029050605
0.028348202
0.027636593
0.026917519
0.026192714
0.025463896
0.024732751
0.024000929
0.023270027
0.022541589
0.02181709
0.021097935
0.020385452
0.019680885
0.018985395
0.018300052
0.017625835
0.016963634
0.016314247
0.015678381
0.015056653
0.014449595
0.013857654
0.013281195
0.012720507
0.012175804
0.011647234
0.011134878
0.010638758
0.010158843
0.009695052
0.0092472629
0.0088153186
0.0083990194
0.0079981126
0.0076123122
0.0072413183
0.0068848184
0.03866438
0.038391519
0.038090088
0.037759801
0.037400811
0.037013352
0.03659778
0.036154594
0.035684428
0.035188054
0.034666373
0.034120412
0.033551314
0.032960332
0.032348819
0.031718219
0.031070053
0.030405911
0.029727436
0.029036316
0.028334266
0.027623023
0.026904326
0.026179908
0.025451484
0.024720741
0.023989324
0.023258832
0.022530804
0.021806716
0.021087972
0.020375897
0.019671735
0.018976644
0.018291695
0.017617865
0.016956044
0.016307028
0.015671524
0.015050148
0.014443432
0.013851822
0.013275684
0.012715305
0.0121709
0.011642616
0.011130535
0.010634679
0.010155016
0.0096914662
0.0092439043
0.0088121693
0.0083960577
0.0079953203
0.0076096768
0.0072388347
0.0068825013
0.038644784
0.038371937
0.038070538
0.037740294
0.037381361
0.036993976
0.0365785
0.03613543
0.035665404
0.035169193
0.034647698
0.034101947
0.033533083
0.032942358
0.032331126
0.031700827
0.031052984
0.030389183
0.029711069
0.029020326
0.02831867
0.027607834
0.026889556
0.026165568
0.025437584
0.024707286
0.023976321
0.023246285
0.022518715
0.021795085
0.021076798
0.020365177
0.019661466
0.018966821
0.018282311
0.017608913
0.016947515
0.016298913
0.015663813
0.01504283
0.014436496
0.013845255
0.013269474
0.01270944
0.012165368
0.011637404
0.01112563
0.010630069
0.010150687
0.0096874048
0.0092400957
0.0088085951
0.0083926972
0.007992155
0.0076066929
0.0072360254
0.0068798668
0.038621648
0.038348806
0.038047434
0.037717234
0.037358365
0.036971065
0.036555699
0.036112764
0.035642901
0.03514688
0.034625604
0.034080099
0.033511509
0.032921086
0.032310182
0.031680238
0.031032773
0.030369376
0.029691685
0.029001387
0.028300194
0.027589837
0.026872054
0.026148573
0.025421106
0.024691335
0.023960903
0.023231403
0.022504373
0.021781284
0.021063537
0.020352453
0.019649274
0.018955155
0.018271163
0.017598276
0.016937378
0.016289265
0.015654641
0.015034123
0.01442824
0.013837437
0.013262078
0.012702453
0.012158774
0.011631188
0.011119777
0.010624563
0.010145514
0.0096825472
0.0092355367
0.0088043144
0.0083886726
0.0079883665
0.0076031243
0.0072326645
0.006876691
0.038594709
0.038321864
0.038020515
0.037690363
0.037331564
0.036944361
0.03652912
0.036086341
0.035616664
0.035120863
0.034599839
0.03405462
0.033486347
0.032896274
0.032285751
0.031656217
0.031009193
0.030346262
0.029669065
0.028979283
0.028278627
0.027568828
0.026851619
0.026128728
0.025401863
0.024672704
0.023942891
0.023214017
0.022487615
0.021765155
0.021048035
0.020337576
0.019635016
0.01894151
0.018258122
0.017585828
0.016925513
0.016277969
0.015643902
0.015023925
0.014418567
0.013828273
0.013253408
0.012694257
0.012151037
0.011623892
0.011112903
0.010618094
0.010139432
0.009676834
0.0092301715
0.0087992747
0.0083839349
0.0079839087
0.007598928
0.0072287112
0.038563692
0.038290836
0.037989507
0.037659404
0.037300682
0.036913588
0.036498489
0.036055887
0.035586424
0.035090874
0.034570138
0.034025245
0.033457337
0.032867665
0.032257578
0.031628517
0.030981998
0.030319604
0.029642972
0.028953783
0.028253747
0.027544588
0.02682804
0.026105826
0.025379653
0.024651198
0.023922098
0.023193943
0.022468264
0.021746528
0.02103013
0.02032039
0.019618543
0.018925742
0.01824305
0.017571439
0.016911794
0.016264907
0.015631479
0.015012125
0.014407373
0.013817666
0.013243368
0.012684766
0.012142073
0.011615436
0.011104935
0.010610593
0.010132376
0.0096702021
0.009223941
0.008793421
0.0083784323
0.0079787334
0.0075940599
0.0072241315
0.0385283
0.038255427
0.037954115
0.037624064
0.037265428
0.036878455
0.036463515
0.036021114
0.035551893
0.035056627
0.03453622
0.033991698
0.033424203
0.032834987
0.032225398
0.031596874
0.03095093
0.030289147
0.02961316
0.028924647
0.028225314
0.027516886
0.02680109
0.026079649
0.025354265
0.024626612
0.023898325
0.023170989
0.022446134
0.021725223
0.02100965
0.020300729
0.019599696
0.018907699
0.018225799
0.017554968
0.016896088
0.016249949
0.015617252
0.014998609
0.014394548
0.01380551
0.01323186
0.012673884
0.012131794
0.011605736
0.011095792
0.010601982
0.010124275
0.009662585
0.0092167829
0.0087866948
0.0083721102
0.00797279
0.0075884731
0.038488224
0.038215327
0.037914031
0.037584034
0.037225492
0.036838654
0.036423893
0.035981717
0.035512768
0.035017823
0.034497786
0.033953682
0.033386656
0.032797955
0.032188928
0.03156101
0.030915716
0.030254623
0.029579366
0.028891617
0.028193081
0.027485478
0.026770533
0.026049965
0.025325473
0.024598728
0.02387136
0.023144952
0.022421029
0.021701053
0.020986411
0.020278418
0.019578305
0.018887218
0.018206216
0.017536269
0.016878254
0.016232962
0.015601092
0.014983254
0.014379975
0.013791697
0.013218781
0.012661513
0.012120106
0.011594704
0.01108539
0.010592184
0.010115053
0.0096539123
0.0092086313
0.0087790347
0.0083649114
0.0079660255
0.0075821226
0.038443135
0.038170208
0.037868925
0.037538986
0.037180547
0.036793859
0.036379298
0.035937373
0.03546873
0.034974144
0.034454522
0.033910888
0.033344386
0.032756264
0.032147868
0.031520633
0.030876068
0.030215752
0.029541312
0.028854422
0.028156781
0.027450106
0.026736118
0.026016532
0.025293043
0.024567318
0.023840983
0.023115618
0.022392743
0.021673816
0.020960223
0.020253273
0.019554195
0.018864131
0.018184139
0.017515184
0.016858143
0.016213804
0.015582864
0.014965932
0.014363533
0.013776108
0.013204018
0.012647547
0.012106908
0.011582246
0.01107364
0.010581113
0.010104631
0.0096441096
0.0091994165
0.008770376
0.0083567757
0.0079583823
0.038392686
0.038119723
0.037818451
0.037488575
0.037130249
0.036743727
0.036329388
0.035887743
0.03541944
0.034925256
0.034406097
0.033862988
0.033297073
0.032709597
0.032101906
0.031475432
0.030831683
0.030172233
0.029498709
0.028812779
0.028116138
0.0274105
0.026697581
0.025979092
0.025256724
0.024532139
0.02380696
0.02308276
0.022361057
0.021643304
0.020930882
0.020225099
0.019527177
0.018838258
0.018159394
0.017491549
0.016835598
0.016192324
0.015562425
0.014946506
0.014345092
0.013758621
0.013187455
0.012631876
0.012092097
0.011568261
0.011060449
0.010568682
0.010092927
0.0096330983
0.0091890653
0.0087606505
0.00834764
0.0079498045
0.038336512
0.038063508
0.037762246
0.037432437
0.037074234
0.036687896
0.036273803
0.035832469
0.035364544
0.034870806
0.034352162
0.033809637
0.033244373
0.032657616
0.032050709
0.031425083
0.030782241
0.030123756
0.02945125
0.028766386
0.028070858
0.027366373
0.026654644
0.025937376
0.025216255
0.024492938
0.023769043
0.02304614
0.022325741
0.021609294
0.020898176
0.02019369
0.019497056
0.01880941
0.018131802
0.017465192
0.016810453
0.016168366
0.015539624
0.014924833
0.014324515
0.013739107
0.013168969
0.012614383
0.012075561
0.011552646
0.011045717
0.010554797
0.010079851
0.0096207955
0.0091775001
0.0087497871
0.0083374367
0.038274229
0.038001177
0.037699925
0.037370188
0.03701212
0.036625984
0.036212163
0.035771174
0.035303668
0.034810424
0.03429235
0.033750472
0.03318593
0.03259997
0.031993932
0.031369243
0.030727407
0.03006999
0.029398611
0.02871493
0.028020634
0.027317427
0.026607015
0.025891099
0.025171359
0.024449447
0.023726976
0.023005509
0.022286554
0.021571553
0.02086188
0.020158832
0.019463623
0.018777388
0.018101172
0.017435931
0.016782535
0.016141762
0.015514303
0.014900762
0.014301659
0.013717429
0.01314843
0.012594946
0.012057184
0.01153529
0.011029341
0.010539358
0.01006531
0.0096071136
0.0091646395
0.008737711
0.0083260996
0.03820543
0.037932326
0.037631084
0.037301424
0.036943506
0.036557593
0.036144071
0.035703463
0.035236418
0.03474372
0.034226276
0.033685112
0.033121368
0.032536286
0.031931207
0.031307554
0.030666828
0.03001059
0.029340455
0.028658079
0.027965143
0.027263345
0.026554387
0.025839963
0.025121748
0.024401387
0.023680486
0.022960604
0.022243242
0.021529838
0.020821759
0.020120297
0.019426663
0.018741985
0.018067304
0.017403574
0.01675166
0.016112338
0.015486296
0.014874135
0.014276372
0.013693443
0.013125703
0.012573434
0.012036844
0.011516077
0.011011209
0.010522263
0.010049207
0.0095919602
0.0091503975
0.0087243435
0.038129692
0.03785653
0.037555297
0.037225723
0.036867968
0.036482299
0.036069109
0.035628918
0.035162383
0.034670286
0.034153536
0.033613158
0.033050291
0.032466177
0.031862153
0.03123964
0.030600134
0.029945193
0.029276428
0.028595487
0.027904047
0.027203799
0.026496441
0.025783657
0.025067118
0.024348462
0.023629289
0.022911151
0.022195541
0.021483893
0.020777567
0.020077849
0.019385946
0.01870298
0.018029989
0.017367921
0.016717637
0.016079911
0.015455427
0.014844784
0.014248497
0.013666998
0.013100644
0.012549712
0.012014412
0.011494885
0.010991208
0.010503403
0.010031438
0.0095752378
0.0091346829
0.0087096068
0.038046566
0.037773343
0.03747212
0.037142639
0.036785063
0.036399664
0.035986837
0.035547107
0.035081131
0.034589694
0.034073705
0.03353419
0.032972287
0.032389235
0.031786369
0.031165107
0.03052694
0.029873422
0.029206158
0.02852679
0.027836991
0.027138444
0.026432839
0.025721855
0.025007154
0.024290367
0.023573088
0.02285686
0.022143172
0.021433449
0.020729045
0.02003124
0.019341235
0.018660146
0.017989007
0.017328761
0.016680266
0.01604429
0.015421514
0.014812536
0.014217866
0.013637938
0.013073102
0.012523638
0.011989753
0.011471587
0.010969217
0.010482663
0.010011895
0.0095568431
0.0091173972
0.0086933837
0.037955586
0.037682298
0.037381086
0.037051707
0.036694328
0.036309225
0.035896797
0.035457571
0.034992209
0.034501496
0.033986342
0.033447773
0.032886925
0.032305036
0.031703437
0.031083543
0.030446841
0.02979488
0.029129258
0.028451612
0.027763606
0.027066919
0.026363231
0.025654214
0.024941522
0.02422678
0.023511571
0.022797433
0.022085845
0.021378226
0.020675923
0.01998021
0.019292279
0.018613244
0.01794413
0.017285876
0.016639335
0.016005273
0.015384366
0.014777207
0.014184308
0.013606095
0.013042922
0.012495063
0.011962726
0.011446048
0.010945108
0.010459923
0.0099904642
0.0095366672
0.0090984342
0.0086755673
0.037856259
0.037582907
0.037281705
0.036952439
0.036595278
0.0362105
0.035798509
0.035359837
0.034895147
0.034405226
0.033890984
0.033353449
0.032793753
0.032213134
0.03161292
0.03099452
0.030359417
0.029709154
0.029045324
0.028369557
0.027683508
0.026988849
0.026287251
0.02558038
0.02486988
0.024157367
0.023444416
0.022732555
0.022023258
0.021317934
0.020617922
0.019924488
0.019238821
0.018562023
0.017895117
0.017239036
0.016594627
0.015962651
0.015343782
0.014738609
0.014147639
0.013571299
0.013009938
0.012463831
0.011933182
0.01141813
0.01091875
0.010435059
0.0099670266
0.0095145955
0.0090776871
0.037748072
0.037474659
0.037173469
0.036844328
0.036487405
0.036102985
0.035691474
0.035253408
0.034789452
0.034300396
0.033787151
0.033250743
0.032692305
0.03211307
0.031514363
0.030897591
0.03026423
0.029615817
0.028953937
0.028280214
0.027596296
0.026903843
0.026204521
0.025499984
0.024791869
0.02408178
0.023371285
0.022661903
0.021955097
0.021252268
0.020554748
0.019863795
0.019180588
0.018506226
0.017841721
0.017188003
0.016545913
0.015916207
0.015299555
0.014696542
0.014107672
0.013533369
0.01297398
0.012429779
0.011900969
0.011387687
0.010890007
0.010407943
0.0099414593
0.0094905058
0.0090550494
0.037630482
0.037357022
0.037055845
0.036726843
0.036370184
0.035986157
0.035575171
0.035137767
0.034674613
0.034186501
0.033674342
0.033139162
0.032582092
0.032004363
0.031407297
0.030792294
0.030160826
0.029514423
0.028854662
0.02818316
0.027501554
0.026811498
0.026114646
0.025412644
0.024707116
0.023999659
0.02329183
0.022585137
0.021881035
0.021180915
0.0204861
0.019797838
0.019117302
0.018445581
0.017783684
0.01713253
0.016492957
0.015865715
0.015251468
0.0146508
0.01406421
0.013492118
0.012934871
0.01239274
0.011865927
0.011354568
0.010858735
0.010378442
0.0099136348
0.037502922
0.037229434
0.036928277
0.036599433
0.036243067
0.035859472
0.035449061
0.035012381
0.034550101
0.034063017
0.03355204
0.033018194
0.032462612
0.031886519
0.031291233
0.03067815
0.030048735
0.029404512
0.028747049
0.028077953
0.027398855
0.026711395
0.02601722
0.025317962
0.024615238
0.023910632
0.02320569
0.02250191
0.021800736
0.021103549
0.020411663
0.019726316
0.019048672
0.018379812
0.017720737
0.017072361
0.016435514
0.01581094
0.015199299
0.01460117
0.014017049
0.013447353
0.012892427
0.012352538
0.011827889
0.011318615
0.010824789
0.01034642
0.037364811
0.037091301
0.03679019
0.036461527
0.036105487
0.035722366
0.035312586
0.034876695
0.034415368
0.033929402
0.033419709
0.032887313
0.032333343
0.031759024
0.031165668
0.030554665
0.029927474
0.029285609
0.028630633
0.027964141
0.027287754
0.026603104
0.025911822
0.025215533
0.02451584
0.023814315
0.023112493
0.022411862
0.021713853
0.021019836
0.020331114
0.019648917
0.018974399
0.018308632
0.017652607
0.017007233
0.016373331
0.01575164
0.015142817
0.014547432
0.01396598
0.013398874
0.012846455
0.012308992
0.011786683
0.011279665
0.010788014
0.010311741
0.037462062
0.037215625
0.03694204
0.036640991
0.036312537
0.035956859
0.03557426
0.035165169
0.03473014
0.03426985
0.033785098
0.033276798
0.032745974
0.032193751
0.031621352
0.031030084
0.03042133
0.029796542
0.029157228
0.028504937
0.027841259
0.027167799
0.02648618
0.025798023
0.025104937
0.024408514
0.023710314
0.023011859
0.022314624
0.021620029
0.020929431
0.020244123
0.019565324
0.018894176
0.018231744
0.01757901
0.016936873
0.016306148
0.015687568
0.015081783
0.014489359
0.013910786
0.013346474
0.012796762
0.012261915
0.011742133
0.011237551
0.01074825
0.010274236
0.037301349
0.037054693
0.036781041
0.036480073
0.036151856
0.03579658
0.035414556
0.035006219
0.034572128
0.034112965
0.033629532
0.033122742
0.03259362
0.032043288
0.031472964
0.030883951
0.030277626
0.029655432
0.029018868
0.028369475
0.027708828
0.027038525
0.026360173
0.025675381
0.024985746
0.024292845
0.023598226
0.022903397
0.022209819
0.021518899
0.020831983
0.020150351
0.019475209
0.01880769
0.018148848
0.017499656
0.016861004
0.0162337
0.015618469
0.015015954
0.014426718
0.013851245
0.013289942
0.012743145
0.012211116
0.011694055
0.011192098
0.010705327
0.010233743
0.037128204
0.036881376
0.036607673
0.036306809
0.035978863
0.035624034
0.035242641
0.034835128
0.034402059
0.033944122
0.033462118
0.032956964
0.032429681
0.031881392
0.031313309
0.030726729
0.030123022
0.029503624
0.028870022
0.028223749
0.027566366
0.026899459
0.026224622
0.025543449
0.024857525
0.024168412
0.023477643
0.022786711
0.022097063
0.021410094
0.020727134
0.020049451
0.01937824
0.018714621
0.018059637
0.017414251
0.016779344
0.016155715
0.015544083
0.014945084
0.014359274
0.013787132
0.013229063
0.012685398
0.012156399
0.011642263
0.011143126
0.010659072
0.010190097
0.036942033
0.036695034
0.036421296
0.036120563
0.035792924
0.035438591
0.035057893
0.03465128
0.034219324
0.033762716
0.033282261
0.032778875
0.032253581
0.031707495
0.031141828
0.030557869
0.029956981
0.029340591
0.028710176
0.028067255
0.02741338
0.026750121
0.02607906
0.025401775
0.024719834
0.024034786
0.023348148
0.022661398
0.021975969
0.021293237
0.020614522
0.019941076
0.019274081
0.018614645
0.017963799
0.017322495
0.016691605
0.01607192
0.015464148
0.014868919
0.014286784
0.013718217
0.013163618
0.012623314
0.012097565
0.011586567
0.011090456
0.010609314
0.010143136
0.036742192
0.036495017
0.036221259
0.035920684
0.035593394
0.035239612
0.034859677
0.034454048
0.034023303
0.033568137
0.033089358
0.032587884
0.032064734
0.031521024
0.030957957
0.030376818
0.029778962
0.029165803
0.02853881
0.027899489
0.027249377
0.026590032
0.025923019
0.025249901
0.02457223
0.023891539
0.023209327
0.022527057
0.021846145
0.021167953
0.020493783
0.019824874
0.019162393
0.018507436
0.017861021
0.017224089
0.016597501
0.015982037
0.015378398
0.014787207
0.014209008
0.013644269
0.013093385
0.012556681
0.012034413
0.011526776
0.011033905
0.010555881
0.010092696
0.036528011
0.036280663
0.036006903
0.035706518
0.035379623
0.035026453
0.034647357
0.034242802
0.033813373
0.033359771
0.032882805
0.032383394
0.031862555
0.031321402
0.030761133
0.030183024
0.029588421
0.028978731
0.028355407
0.027719944
0.027073864
0.02641871
0.025756031
0.025087373
0.024414272
0.023738241
0.023060764
0.022383285
0.021707203
0.021033864
0.020364554
0.019700495
0.019042841
0.018392671
0.017750993
0.017118733
0.016496742
0.01588579
0.01528657
0.014699695
0.014125703
0.013565056
0.013018144
0.012485288
0.011966742
0.011462698
0.01097329
0.010498597
0.010038612
0.036298818
0.036051303
0.035777564
0.035477407
0.03515096
0.034798468
0.034420294
0.034016912
0.033588914
0.033137005
0.032661998
0.032164812
0.031646462
0.031108059
0.030550793
0.029975936
0.029384822
0.028778847
0.028159453
0.027528119
0.026886353
0.026235681
0.025577634
0.024913742
0.024245522
0.023574469
0.022902048
0.022229684
0.021558759
0.020890601
0.020226477
0.019567594
0.018915089
0.018270029
0.017633403
0.017006129
0.016389043
0.015782907
0.015188401
0.014606131
0.014036628
0.013480348
0.012937675
0.012408926
0.011894352
0.011394142
0.010908429
0.010437292
0.0099807201
0.036053935
0.03580627
0.03553258
0.035232695
0.034906754
0.034555017
0.034177855
0.033775753
0.033349309
0.032899234
0.032426342
0.031931553
0.031415881
0.03088043
0.030326388
0.029755015
0.029167637
0.028565638
0.027950445
0.027323523
0.026686365
0.026040478
0.025387376
0.024728569
0.024065555
0.02339981
0.022732778
0.022065868
0.021400438
0.020737799
0.020079201
0.019425832
0.018778813
0.018139194
0.017507952
0.016885988
0.016274127
0.015673118
0.015083634
0.01450627
0.013941548
0.013389919
0.012851762
0.012327388
0.011817045
0.01132092
0.010839144
0.010371794
0.0099188593
0.035792697
0.035544904
0.035271299
0.034971737
0.03464637
0.03429547
0.03391942
0.033518714
0.033093957
0.032645865
0.032175255
0.031683046
0.031170251
0.030637969
0.03008738
0.029519737
0.028936354
0.028338603
0.027727896
0.027105683
0.026473439
0.025832653
0.025184819
0.024531429
0.023873959
0.023213865
0.02255257
0.02189146
0.021231877
0.02057511
0.019922389
0.019274884
0.018633699
0.017999866
0.017374347
0.016758028
0.016151723
0.015556167
0.014972021
0.014399873
0.013840235
0.013293552
0.012760196
0.012240474
0.011734631
0.01124285
0.010765261
0.010301939
0.0098528719
0.03551445
0.035266559
0.034993083
0.034693903
0.034369185
0.034019215
0.033644386
0.033245203
0.032822278
0.032376329
0.031908179
0.031418745
0.030909037
0.030380151
0.029833258
0.029269602
0.028690486
0.028097267
0.027491343
0.026874148
0.026247137
0.02561178
0.024969551
0.024321921
0.023670345
0.023016256
0.022361056
0.021706109
0.021052736
0.020402203
0.019755722
0.019114442
0.018479449
0.017851757
0.017232312
0.016621986
0.016021576
0.015431806
0.014853326
0.014286713
0.013732472
0.013191038
0.012662778
0.012147994
0.011646927
0.011159758
0.010686613
0.010227567
0.009782607
0.035218566
0.034970615
0.034697321
0.034398592
0.034074609
0.03372567
0.033352183
0.032954659
0.032533719
0.032090087
0.031624586
0.031138133
0.030631736
0.030106484
0.029563542
0.029004142
0.028429577
0.027841187
0.027240356
0.026628498
0.02600705
0.025377463
0.024741188
0.024099674
0.023454352
0.022806634
0.022157899
0.021509487
0.020862696
0.020218772
0.019578904
0.018944221
0.018315788
0.017694603
0.017081593
0.016477614
0.015883449
0.015299808
0.01472733
0.014166581
0.013618056
0.013082183
0.012559322
0.01204977
0.011553764
0.011071481
0.010603045
0.010148531
0.0097079224
0.034904452
0.034656488
0.034383438
0.034085238
0.033762086
0.033414292
0.033042276
0.03264656
0.032227773
0.031786641
0.03132399
0.030840737
0.030337885
0.029816519
0.029277794
0.028722933
0.028153213
0.027569961
0.026974543
0.026368355
0.025752814
0.025129347
0.024499385
0.023864352
0.023225658
0.022584688
0.021942797
0.021301302
0.020661477
0.020024544
0.019391671
0.018763965
0.018142471
0.017528166
0.01692196
0.016324692
0.015737129
0.015159969
0.014593836
0.014039286
0.013496805
0.012966812
0.01244966
0.01194564
0.011454985
0.010977869
0.010514414
0.010064692
0.0096286881
0.03457156
0.03432364
0.034050907
0.033753327
0.033431111
0.033084587
0.032714185
0.032320438
0.031903981
0.031465545
0.031005958
0.030526135
0.030027077
0.02950986
0.028975631
0.028425601
0.027861034
0.027283241
0.026693569
0.026093394
0.025484111
0.024867127
0.024243847
0.023615672
0.022983986
0.022350149
0.021715491
0.021081304
0.020448836
0.019819286
0.019193798
0.018573457
0.017959286
0.017352242
0.016753217
0.01616303
0.015582435
0.015012112
0.014452675
0.013904666
0.013368562
0.012844772
0.012333645
0.011835463
0.011350456
0.010878793
0.010420596
0.0099759334
0.0095447896
0.034219404
0.033971596
0.033699265
0.033402405
0.033081246
0.032736129
0.032367496
0.031975891
0.031561954
0.031126424
0.030670126
0.030193977
0.029698971
0.029186179
0.028656737
0.028111843
0.027552747
0.026980743
0.026397159
0.02580335
0.025200689
0.024590558
0.023974339
0.023353406
0.022729117
0.022102807
0.021475778
0.020849296
0.020224585
0.019602816
0.018985109
0.018372527
0.017766069
0.017166673
0.016575209
0.015992479
0.01541922
0.014856097
0.014303709
0.013762588
0.013233199
0.012715942
0.012211158
0.011719125
0.011240066
0.010774147
0.010321487
0.0098821546
0.0094561317
0.033847574
0.033599959
0.033328126
0.033032101
0.032712131
0.03236857
0.032001875
0.031612598
0.031201386
0.030768982
0.030316213
0.029843993
0.029353311
0.02884523
0.028320876
0.027781434
0.027228138
0.026662264
0.026085119
0.025498038
0.02490237
0.024299471
0.023690698
0.023077399
0.022460903
0.021842518
0.02122352
0.020605147
0.019988594
0.019375008
0.018765483
0.018161058
0.017562708
0.016971348
0.01638783
0.015812936
0.015247385
0.014691826
0.014146845
0.013612961
0.013090626
0.012580234
0.012082116
0.011596543
0.011123734
0.010663852
0.010217013
0.0097832823
0.009362643
0.033455756
0.033208428
0.032937205
0.032642143
0.032323506
0.031981666
0.03161709
0.03123034
0.030822071
0.030393027
0.029944038
0.029476013
0.028989938
0.028486866
0.027967913
0.027434248
0.02688709
0.026327694
0.025757349
0.025177364
0.024589066
0.023993784
0.023392848
0.022787578
0.022179276
0.02156922
0.020958658
0.020348798
0.019740809
0.01913581
0.01853487
0.017939
0.017349153
0.016766221
0.016191033
0.015624354
0.015066883
0.014519254
0.013982037
0.013455738
0.012940799
0.012437603
0.011946472
0.011467672
0.011001416
0.010547864
0.010107128
0.0096792734
0.0092642809
0.033043755
0.032796821
0.032526332
0.032232374
0.031915232
0.03157529
0.031213028
0.030829018
0.030423921
0.029998485
0.029553538
0.029089989
0.028608814
0.028111059
0.027597827
0.027070273
0.026529597
0.025977037
0.025413857
0.024841344
0.024260797
0.023673521
0.023080816
0.022483974
0.021884267
0.021282944
0.020681222
0.020080282
0.019481262
0.018885254
0.018293298
0.017706381
0.01712543
0.016551315
0.015984841
0.015426753
0.014877732
0.014338396
0.013809298
0.01329093
0.012783725
0.012288053
0.01180423
0.011332514
0.010873112
0.01042618
0.0099918291
0.009570121
0.0091610369
0.032611515
0.032365097
0.032095481
0.031802786
0.031487312
0.03114946
0.030789722
0.030408679
0.030006997
0.029585426
0.029144796
0.02868601
0.028210039
0.027717918
0.027210736
0.026689633
0.026155792
0.025610427
0.025054782
0.024490117
0.023917706
0.023338825
0.022754746
0.02216673
0.021576019
0.02098383
0.020391352
0.019799734
0.019210084
0.018623466
0.018040892
0.01746332
0.016891654
0.016326737
0.015769355
0.01522023
0.014680023
0.014149336
0.013628706
0.013118611
0.012619472
0.012131649
0.011655448
0.011191121
0.010738869
0.010298845
0.0098711548
0.0094558607
0.0090529428
0.032159146
0.031913383
0.031644796
0.031353535
0.031039918
0.030704363
0.030347371
0.029969533
0.029571521
0.029154086
0.028718058
0.028264333
0.027793877
0.027307712
0.026806915
0.026292609
0.025765956
0.025228151
0.024680411
0.024123973
0.023560081
0.022989983
0.02241492
0.021836124
0.021254804
0.020672147
0.020089309
0.019507408
0.018927523
0.018350686
0.01777788
0.017210038
0.016648036
0.016092693
0.01554477
0.015004969
0.014473932
0.013952241
0.013440419
0.01293893
0.012448181
0.011968521
0.011500249
0.011043609
0.010598795
0.010165957
0.0097451979
0.0093365779
0.0089400769
0.031686959
0.031442005
0.031174616
0.030884976
0.030573422
0.030240382
0.029886373
0.029511991
0.029117913
0.028704895
0.02827376
0.027825402
0.027360778
0.026880898
0.026386824
0.025879662
0.025360553
0.024830669
0.024291204
0.023743366
0.023188371
0.022627438
0.022061777
0.021492586
0.020921045
0.020348307
0.019775495
0.019203696
0.018633956
0.018067279
0.017504618
0.016946877
0.016394904
0.015849495
0.015311386
0.014781258
0.014259732
0.013747373
0.013244686
0.012752121
0.012270072
0.01179888
0.011338831
0.010890163
0.010453065
0.010027681
0.0096141115
0.0092124149
0.0088225706
0.031195492
0.030951517
0.030685513
0.030397696
0.03008842
0.02975813
0.02940735
0.029036685
0.028646818
0.028238502
0.027812561
0.027369881
0.026911408
0.026438143
0.025951131
0.025451458
0.024940246
0.024418641
0.023887813
0.023348942
0.022803215
0.022251819
0.021695932
0.021136721
0.020575332
0.020012885
0.019450469
0.018889141
0.018329913
0.017773758
0.017221599
0.016674311
0.016132716
0.015597583
0.015069624
0.014549499
0.014037808
0.013535096
0.013041853
0.012558514
0.012085461
0.011623022
0.011171475
0.01073105
0.01030193
0.0098842537
0.0094781185
0.0090835797
0.0087006151
0.030685551
0.03044274
0.030178322
0.029892543
0.029585777
0.029258479
0.028911186
0.028544509
0.028159134
0.027755813
0.027335368
0.026898678
0.026446678
0.025980356
0.02550074
0.025008897
0.024505926
0.023992951
0.023471112
0.022941563
0.022405459
0.021863957
0.021318202
0.020769327
0.020218444
0.01966664
0.019114972
0.018564461
0.018016088
0.017470794
0.016929472
0.016392967
0.015862074
0.015337535
0.01482004
0.014310223
0.013808666
0.013315895
0.012832384
0.012358551
0.011894765
0.011441344
0.010998557
0.010566626
0.010145728
0.0097359953
0.0093375212
0.0089503558
0.0085744689
0.030158247
0.0299168