/*--------------------------------*- C++ -*----------------------------------*\
| =========                 |                                                 |
| \\      /  F ield         | OpenFOAM: The Open Source CFD Toolbox           |
|  \\    /   O peration     | Version:  2312                                  |
|   \\  /    A nd           | Website:  www.openfoam.com                      |
|    \\/     M anipulation  |                                                 |
\*---------------------------------------------------------------------------*/
FoamFile
{
    version     2.0;
    format      ascii;
    arch        "LSB;label=32;scalar=64";
    class       volScalarField;
    location    "0.05";
    object      Ma;
}
// * * * * * * * * * * * * * * * * * * * * * * * * * * * * * * * * * * * * * //

dimensions      [0 0 0 0 0 0 0];

internalField   nonuniform List<scalar> 
3251
(
0.0032853071
0.0032058426
0.0031268716
0.0030484056
0.002970455
0.0028930317
0.0028161471
0.0027398133
0.0026640422
0.0025888462
0.0025142378
0.0024402296
0.0023668345
0.0022940653
0.002221935
0.0021504566
0.0020796431
0.0020095074
0.0019400626
0.0018713214
0.0018032964
0.001736
0.0016694443
0.0016036411
0.001538602
0.001474338
0.0014108597
0.0013481773
0.0012863003
0.001225238
0.0011649987
0.0011055904
0.0010470204
0.00098929532
0.0009324211
0.00087640312
0.00082124604
0.00076695386
0.00071352995
0.00066097699
0.00060929704
0.00055849153
0.00050856126
0.0004595065
0.00041132689
0.00036402156
0.00031758931
0.00027202856
0.00022733775
0.00018351592
0.00014056462
9.8493102e-05
5.7350072e-05
1.7653946e-05
2.3727497e-05
6.199529e-05
9.9797925e-05
0.00013683802
0.003285302
0.0032058468
0.0031268854
0.003048429
0.0029704877
0.0028930733
0.0028161975
0.0027398722
0.0026641095
0.0025889217
0.0025143214
0.0024403212
0.0023669339
0.0022941725
0.0022220499
0.0021505792
0.0020797734
0.0020096455
0.0019402084
0.0018714749
0.0018034577
0.0017361691
0.0016696214
0.0016038264
0.0015387955
0.0014745399
0.0014110701
0.0013483965
0.0012865286
0.0012254755
0.0011652458
0.0011058474
0.0010472876
0.00098957322
0.00093271021
0.00087670401
0.00082155939
0.00076728049
0.0007138708
0.00066133323
0.00060967008
0.00055888314
0.00050897367
0.0004599426
0.00041179051
0.00036451793
0.00031812575
0.00027261588
0.00022799272
0.00018426664
0.00014146355
9.965646e-05
5.9127579e-05
2.2244565e-05
2.6871077e-05
6.3073606e-05
0.00010035073
0.00013715359
0.0032852328
0.0032057976
0.0031268558
0.0030484186
0.0029704959
0.0028930998
0.0028162418
0.0027399339
0.0026641884
0.0025890174
0.0025144337
0.0024404499
0.0023670789
0.0022943336
0.0022222271
0.0021507723
0.0020799825
0.0020098706
0.0019404496
0.0018717323
0.0018037314
0.0017364594
0.0016699283
0.0016041502
0.0015391365
0.0014748984
0.0014114465
0.0013487911
0.0012869418
0.0012259079
0.0011656979
0.0011063199
0.0010477811
0.00099008856
0.0009332483
0.00087726592
0.00082214636
0.00076789398
0.00071451256
0.00066200536
0.00061037517
0.0005596244
0.00050975516
0.00046076956
0.00041266986
0.00036545909
0.00031914194
0.00027372647
0.00022922768
0.00018567588
0.00014313914
0.0001017977
6.2296712e-05
2.8847134e-05
3.1799651e-05
6.4951849e-05
0.0001012997
0.00013767011
0.0032850984
0.0032056936
0.0031267815
0.0030483732
0.0029704785
0.0028931099
0.0028162788
0.0027399973
0.0026642776
0.0025891321
0.0025145735
0.0024406146
0.0023672682
0.0022945474
0.0022224653
0.0021510349
0.0020802694
0.0020101819
0.0019407853
0.0018720927
0.0018041167
0.0017368697
0.0016703641
0.0016046117
0.0015396242
0.0014754127
0.0014119879
0.0013493602
0.0012875393
0.0012265344
0.0011663543
0.001107007
0.0010485
0.00099084039
0.0009340344
0.00087808783
0.00082300587
0.00076879321
0.00071545402
0.0006629921
0.0006114109
0.00056071372
0.00051090391
0.00046198523
0.00041396235
0.0003668418
0.00032063364
0.00027535452
0.00023103411
0.00018772991
0.00014556624
0.00010485956
6.6663871e-05
3.6391552e-05
3.783148e-05
6.7569261e-05
0.00010263803
0.00013838849
0.0032848953
0.0032055313
0.003126659
0.0030482892
0.0029704322
0.0028931002
0.0028163051
0.0027400589
0.0026643738
0.0025892625
0.0025147377
0.0024408121
0.0023674988
0.0022948108
0.0022227614
0.0021513637
0.0020806309
0.0020105761
0.0019412126
0.001872553
0.0018046104
0.0017373972
0.0016709257
0.001605208
0.0015402556
0.0014760798
0.0014126915
0.001350101
0.0012883181
0.0012273522
0.001167212
0.0011079059
0.0010494415
0.0009918259
0.00093506567
0.00087916686
0.00082413499
0.00076997515
0.00071669205
0.00066429014
0.00061277375
0.00056214734
0.00051241579
0.00046358501
0.00041566271
0.00036865985
0.00032259321
0.00027749012
0.00023339829
0.00019040793
0.00014870891
0.00010876652
7.201627e-05
4.4410624e-05
4.4533186e-05
7.085359e-05
0.00010435843
0.0032846476
0.003205332
0.0031265066
0.0030481824
0.0029703698
0.0028930813
0.0028163286
0.0027401241
0.00266448
0.0025894091
0.0025149242
0.0024410381
0.0023677639
0.0022951149
0.0022231042
0.0021517452
0.0020810511
0.0020110352
0.0019417106
0.0018730904
0.0018051874
0.0017380142
0.0016715832
0.0016059065
0.0015409958
0.0014768624
0.0014135172
0.0013509707
0.0012892328
0.001228313
0.0011682202
0.0011089627
0.0010505485
0.00099298483
0.00093627853
0.00088043594
0.00082546295
0.00077136513
0.00071814777
0.00066581607
0.00061437536
0.00056383137
0.00051419075
0.00046546179
0.00041765558
0.00037078798
0.00032488315
0.00027998003
0.00023614558
0.00019350412
0.00015231116
0.00011316978
7.780683e-05
5.2228916e-05
5.1232366e-05
7.4472072e-05
0.00010629884
0.0032844257
0.0032051642
0.0031263913
0.0030481183
0.0029703553
0.0028931154
0.0028164103
0.0027402524
0.0026646543
0.0025896286
0.0025151883
0.0024413463
0.002368116
0.0022955106
0.0022235434
0.0021522278
0.0020815772
0.0020116049
0.0019423241
0.001873748
0.0018058895
0.0017387614
0.001672376
0.0016067455
0.0015418817
0.0014777961
0.0014144996
0.0013520028
0.0012903157
0.001229448
0.0011694086
0.0011102061
0.0010518486
0.00099434359
0.00093769817
0.00088191901
0.00082701241
0.00077298445
0.00071984106
0.00066758826
0.00061623244
0.00056578073
0.00051624166
0.00046762608
0.00041994869
0.00037323055
0.00032750355
0.00028281866
0.00023926239
0.00019699282
0.00015632725
0.00011798735
8.3897363e-05
5.9844997e-05
5.7834367e-05
7.8299308e-05
0.00010838452
0.0032842038
0.0032050066
0.0031262961
0.0030480836
0.0029703797
0.0028931974
0.0028165488
0.0027404463
0.0026649025
0.0025899305
0.0025155431
0.0024417537
0.0023685754
0.0022960217
0.0022241061
0.0021528421
0.0020822432
0.0020123227
0.001943094
0.0018745705
0.001806765
0.0017396904
0.0016733593
0.0016077839
0.0015429761
0.0014789474
0.0014157089
0.0013532714
0.0012916449
0.0012308391
0.0011708634
0.0011117265
0.0010534365
0.00099600131
0.00093942831
0.00088372455
0.00082889679
0.00077495169
0.0007218959
0.00066973639
0.00061848075
0.00056813768
0.00051871784
0.00047023495
0.00042270772
0.00037616294
0.00033064096
0.00028620567
0.00024296418
0.00020110886
0.00016101655
0.00012351106
9.0637969e-05
6.7804295e-05
6.4790082e-05
8.2574044e-05
0.00011075991
0.0032839582
0.0032048361
0.0031261985
0.0030480569
0.002970422
0.0028933072
0.0028167245
0.0027406868
0.0026652067
0.0025902974
0.0025159721
0.002442244
0.0023691266
0.0022966336
0.0022247784
0.0021535748
0.0020830363
0.0020131765
0.001944009
0.0018755469
0.0018078035
0.0017407917
0.0016745242
0.0016090134
0.0015442711
0.0014803092
0.0014171387
0.0013547705
0.001293215
0.0012324819
0.0011725808
0.0011135204
0.0010553094
0.00099795583
0.00094146742
0.00088585162
0.00083111576
0.00077726711
0.00072431318
0.00067226194
0.00062112232
0.00057090481
0.00052162237
0.00047329188
0.0004259364
0.00037958891
0.00033429874
0.00029014325
0.00024725049
0.00020584638
0.00016636216
0.00012970281
9.7964169e-05
7.6089383e-05
7.2092646e-05
8.7309342e-05
0.0032836659
0.0032046305
0.0031260771
0.0030480174
0.0029704624
0.0028934255
0.0028169192
0.0027409563
0.0026655499
0.0025907131
0.0025164595
0.0024428024
0.0023697555
0.0022973326
0.0022255473
0.0021544136
0.0020839451
0.0020141556
0.0019450587
0.0018766678
0.0018089963
0.0017420572
0.0016758633
0.001610427
0.0015457606
0.0014818758
0.0014187839
0.0013564959
0.0012950223
0.0012343732
0.001174558
0.0011155861
0.0010574661
0.0010002066
0.00094381548
0.00088830085
0.00083367054
0.00077993255
0.00072709528
0.00067516786
0.00062416067
0.00057408611
0.00052495965
0.00047680158
0.00042963957
0.00038351311
0.00033848083
0.00029463376
0.00025212058
0.00021119872
0.00017234646
0.00013652679
0.0001058255
8.4693336e-05
7.9740399e-05
9.251437e-05
0.0032833023
0.003204366
0.003125909
0.003047943
0.0029704793
0.0028935317
0.0028171128
0.0027412356
0.0026659136
0.00259116
0.0025169884
0.0024434127
0.0023704466
0.002298104
0.0022263989
0.0021553452
0.0020849569
0.0020152479
0.0019462319
0.0018779226
0.0018103334
0.0017434774
0.0016773678
0.0016120169
0.0015474373
0.0014836407
0.0014206387
0.0013584423
0.0012970623
0.0012365089
0.0011767919
0.0011179208
0.0010599045
0.001002752
0.00094647163
0.00089107194
0.00083656144
0.00078294889
0.00073024367
0.00067845613
0.00062759825
0.00057768444
0.00052873289
0.00048076741
0.00043382055
0.00038793846
0.00034318917
0.00029967726
0.000257571
0.00021715626
0.00017894956
0.00014394865
0.00011418203
9.3614684e-05
8.7735389e-05
0.0032828418
0.003204018
0.0031256703
0.0030478108
0.0029704509
0.0028936046
0.0028172849
0.0027415052
0.002666279
0.0025916199
0.0025175417
0.0024440584
0.0023711841
0.0022989328
0.0022273187
0.002156356
0.0020860589
0.0020164413
0.0019475173
0.0018793006
0.0018118048
0.0017450433
0.0016790292
0.0016137752
0.0015492939
0.0014855973
0.0014226971
0.0013606045
0.0012993304
0.0012388853
0.0011792792
0.0011205219
0.0010626227
0.0010055908
0.00094943515
0.0008941648
0.00083978894
0.00078631716
0.00073375989
0.0006821288
0.00063143753
0.00058170265
0.00053294513
0.00048519251
0.00043848226
0.00039286727
0.0003484249
0.00030527266
0.00026359698
0.00022370814
0.00018615131
0.00015193741
0.00012300333
0.00010285555
9.6081712e-05
0.0032822579
0.0032035607
0.0031253362
0.0030475966
0.0029703537
0.0028936218
0.0028174141
0.0027417444
0.0026666263
0.0025920738
0.002518101
0.002444722
0.0023719513
0.0022998031
0.0022282918
0.0021574318
0.0020872375
0.0020177231
0.0019489027
0.0018807904
0.0018134
0.0017467449
0.0016808384
0.0016156935
0.0015513229
0.0014877387
0.0014249529
0.0013629768
0.0013018216
0.001241498
0.0011820163
0.0011233865
0.0010656183
0.0010087213
0.000952705
0.00089757898
0.00084335316
0.00079003803
0.00073764512
0.00068618748
0.00063568051
0.00058614299
0.0005375988
0.00049007921
0.0004436267
0.00039830081
0.00035418784
0.00031141746
0.00027019217
0.00023084222
0.00019393161
0.00016046549
0.00013226643
0.00011242008
0.0032815222
0.0032029669
0.0031248803
0.0030472752
0.0029701634
0.0028935597
0.0028174776
0.0027419312
0.0026669344
0.0025925016
0.002518647
0.0024453852
0.0023727307
0.0023006982
0.0022293022
0.0021585574
0.0020884784
0.0020190797
0.0019503756
0.0018823802
0.0018151077
0.0017485718
0.0016827858
0.0016177629
0.001553516
0.0014900574
0.0014273993
0.0013655533
0.0013045308
0.0012443425
0.0011849993
0.0011265113
0.0010688888
0.0010121416
0.00095627983
0.0009013137
0.00084725388
0.0007941118
0.00074190013
0.00069063336
0.00064032869
0.00059100721
0.00054269568
0.00049542917
0.00044925506
0.00040423933
0.00036047673
0.0003181079
0.00027734908
0.00023854562
0.00020227101
0.00016950888
0.00014195424
0.00012231368
0.0032806047
0.0032022074
0.0031242747
0.0030468193
0.0029698539
0.0028933932
0.0028174513
0.0027420425
0.0026671812
0.0025928819
0.0025191593
0.0024460283
0.0023735035
0.0023016001
0.0022303328
0.0021597166
0.0020897662
0.0020204965
0.001951922
0.0018840571
0.001816916
0.0017505126
0.0016848607
0.0016199736
0.0015558642
0.0014925453
0.001430029
0.0013683273
0.0013074518
0.0012474136
0.0011882236
0.0011298925
0.0010724309
0.0010158491
0.00096015769
0.00090536762
0.00085149031
0.00079853818
0.00074652508
0.00069546699
0.00064538292
0.00059629627
0.00054823674
0.0005012431
0.00045536749
0.00041068197
0.00036728904
0.00032533897
0.00028505909
0.000246805
0.00021115105
0.00017904693
0.00015205422
0.0032794735
0.0032012515
0.0031234893
0.0030462003
0.0029693972
0.0028930954
0.0028173092
0.0027420533
0.0026673425
0.0025931916
0.0025196157
0.0024466299
0.0023742495
0.0023024895
0.0022313652
0.0021608917
0.0020910843
0.0020219578
0.0019535271
0.0018858068
0.0018188115
0.0017525552
0.0016870518
0.0016223149
0.0015583577
0.0014951931
0.0014328335
0.0013712912
0.0013105779
0.001250705
0.0011916839
0.0011335255
0.0010762407
0.0010198404
0.0009643359
0.00090973863
0.00085606091
0.00080331613
0.00075151938
0.0007006881
0.00065084317
0.00060201029
0.00055422201
0.00050752071
0.00046196304
0.00041762669
0.00037462108
0.00033310452
0.00029331275
0.00025560682
0.0002205544
0.00018906197
0.00016255739
0.0032780942
0.0032000659
0.0031224922
0.003045387
0.0029687635
0.0028926374
0.0028170234
0.0027419368
0.0026673925
0.0025934059
0.0025199924
0.0024471674
0.0023749466
0.0023033454
0.0022323793
0.0021620638
0.0020924144
0.0020234463
0.0019551745
0.0018876141
0.0018207797
0.0017546856
0.0016893461
0.0016247748
0.0015609853
0.0014979907
0.0014358035
0.0013744364
0.0013139012
0.0012542098
0.0011953738
0.0011374045
0.0010803132
0.0010241114
0.00096881086
0.00091442375
0.00086096323
0.0008084437
0.00075688146
0.00070629548
0.00065670844
0.00060814831
0.00056065041
0.00051426055
0.00046903958
0.00042507025
0.0003824679
0.00034139733
0.00030209983
0.00026493753
0.00023046497
0.00019953904
0.0032764304
0.0031986152
0.0031212491
0.0030443463
0.0029679207
0.0028919882
0.0028165641
0.002741664
0.0026673034
0.002593498
0.0025202636
0.002447616
0.0023755712
0.0023041451
0.0022333534
0.0021632121
0.0020937369
0.0020249432
0.0019568465
0.001889462
0.0018228046
0.001756889
0.0016917296
0.0016273402
0.0015637348
0.0015009265
0.0014389283
0.001377753
0.0013174128
0.0012579198
0.0011992859
0.0011415229
0.0010846426
0.0010286568
0.00097357793
0.00091941894
0.00086619377
0.00081391787
0.00076260875
0.00071228683
0.00066297664
0.00061470828
0.00056751973
0.00052146
0.00047659374
0.00043300815
0.00039082347
0.00035020918
0.00031140958
0.00027478374
0.00024086796
0.00021046557
0.0032744429
0.0031968615
0.0031197232
0.0030430427
0.0029668344
0.0028911146
0.0028158992
0.0027412041
0.0026670453
0.0025934391
0.0025204015
0.002447949
0.0023760977
0.002304864
0.0022342641
0.0021643141
0.0020950301
0.002026428
0.0019585235
0.001891332
0.0018248688
0.0017591488
0.0016941865
0.0016299964
0.0015665922
0.0015039876
0.0014421959
0.0013812299
0.0013211023
0.0012618255
0.0012034116
0.0011458729
0.0010892216
0.0010334701
0.00097863132
0.000924719
0.00087174792
0.0008197345
0.00076869748
0.00071865872
0.00066964448
0.00062168694
0.00057482652
0.00052911519
0.00048462094
0.00044143474
0.00039968056
0.00035953104
0.00032123075
0.00028513232
0.00025174979
0.00022183085
0.0032720901
0.0031947644
0.0031178754
0.0030414383
0.0029654678
0.002889981
0.0028149941
0.0027405237
0.0026665862
0.0025931982
0.0025203765
0.0024481377
0.0023764985
0.0023054757
0.0022350858
0.0021653454
0.0020962709
0.0020278786
0.0019601843
0.0018932039
0.001826953
0.0017614466
0.0016966998
0.0016327269
0.0015695423
0.0015071598
0.0014455928
0.0013848546
0.0013249581
0.001265916
0.0012077409
0.0011504452
0.0010940418
0.0010385436
0.000983964
0.00093031754
0.00087761982
0.00082588825
0.00077514272
0.0007254065
0.00067670749
0.00062907979
0.00058256612
0.00053722102
0.00049311539
0.00045034316
0.00040903109
0.00036935305
0.00033155184
0.00029597051
0.00026309789
0.00023362555
0.0032693278
0.0031922811
0.0031156642
0.0030394926
0.0029637819
0.0028885495
0.0028138124
0.0027395874
0.0026658917
0.0025927423
0.0025201564
0.0024481512
0.0023767439
0.0023059515
0.0022357912
0.0021662798
0.0020974341
0.0020292707
0.0019618059
0.0018950558
0.0018290363
0.0017637628
0.0016992505
0.0016355142
0.0015725684
0.0015104271
0.0014491042
0.0013886132
0.0013289672
0.0012701793
0.0012122623
0.0011552294
0.0010990935
0.0010438683
0.0009895677
0.00093620693
0.00088380241
0.00083237253
0.00078193829
0.0007325243
0.00068415995
0.00063688114
0.00059073264
0.00054577122
0.00050207014
0.00045972561
0.00041886588
0.00037966487
0.0003423611
0.00030728574
0.0002749005
0.0032661094
0.0031893661
0.0031130454
0.0030371629
0.0029617351
0.00288678
0.002812315
0.0027383576
0.0026649254
0.0025920361
0.0025197074
0.0024479569
0.0023768023
0.0023062612
0.002236351
0.0021670891
0.0020984926
0.0020305785
0.0019633635
0.001896864
0.0018310962
0.0017660758
0.0017018183
0.0016383388
0.001575652
0.0015137723
0.0014527138
0.0013924902
0.001333115
0.0012746017
0.0012169634
0.0011602136
0.0011043658
0.001049434
0.00099543287
0.00094237827
0.00089028741
0.00083917957
0.00078907684
0.00074000503
0.00069199495
0.00064508412
0.00059931905
0.00055475837
0.00051147721
0.00046957319
0.00042917522
0.00039045546
0.00035364666
0.00031906594
0.00028714684
0.0032623856
0.0031859717
0.0031099727
0.0030344043
0.0029592839
0.00288463
0.0028104608
0.0027367943
0.0026636487
0.0025910423
0.0025189933
0.0024475198
0.0023766401
0.0023063722
0.002236734
0.0021677433
0.0020994177
0.0020317745
0.0019648307
0.0018986032
0.0018331085
0.0017683625
0.0017043812
0.0016411797
0.0015787733
0.0015171765
0.0014564036
0.0013964688
0.0013373858
0.0012791684
0.0012218301
0.0011653847
0.0011098462
0.0010552292
0.0010015488
0.00094882149
0.0008970653
0.00084630039
0.0007965498
0.00074784047
0.00070020448
0.00065368073
0.00060831722
0.00056417406
0.00052132762
0.00047987634
0.0004399485
0.00040171362
0.00036539661
0.0032581052
0.0031820479
0.0031063975
0.0030311693
0.0029563822
0.002882055
0.0028082066
0.0027348557
0.0026620211
0.0025897216
0.0025179761
0.0024468033
0.0023762219
0.0023062504
0.0022369073
0.0021682108
0.0021001788
0.0020328292
0.0019661794
0.0019002466
0.0018350474
0.0017705984
0.0017069156
0.0016440148
0.0015819111
0.0015206195
0.0014601547
0.001400531
0.0013417625
0.0012838633
0.0012268472
0.0011707284
0.0011155214
0.0010612412
0.0010079035
0.00095552532
0.00090412549
0.00085372491
0.00080434754
0.00075602131
0.00070877942
0.00066266195
0.00061771806
0.00057400891
0.00053161165
0.00049062464
0.0004511749
0.00041342772
0.0032532145
0.0031775429
0.003102269
0.0030274088
0.0029529821
0.0028790084
0.0028055072
0.0027324979
0.00266
0.0025880329
0.0025166161
0.0024457688
0.0023755104
0.0023058599
0.0022368362
0.0021684581
0.002100744
0.002033712
0.00196738
0.0019017656
0.0018368858
0.0017727574
0.0017093969
0.0016468201
0.0015850427
0.0015240799
0.0014639466
0.0014046574
0.0013462267
0.0012886689
0.0012319983
0.0011762293
0.0011213768
0.0010674562
0.0010144839
0.0009624775
0.00091145631
0.00086144203
0.0008124594
0.00076453727
0.00071770975
0.00067201785
0.0006275116
0.00058425283
0.00054231885
0.0005018074
0.00046284311
0.00042558656
0.0033232807
0.0032476577
0.0031724023
0.0030975344
0.0030230714
0.0029490338
0.0028754418
0.0028023157
0.0027296754
0.0026575413
0.0025859334
0.0025148717
0.0024443763
0.0023744669
0.0023051633
0.0022364847
0.0021684505
0.0021010796
0.0020343905
0.0019684015
0.0019031305
0.0018385951
0.0017748123
0.0017117988
0.0016495709
0.0015881444
0.001527535
0.0014677577
0.0014088275
0.001350759
0.001293567
0.0012372659
0.0011818708
0.0011273967
0.0010738596
0.0010212762
0.0009696648
0.0009190452
0.00086943974
0.00082087389
0.00077337723
0.00072698461
0.00068173773
0.0006376872
0.00059489506
0.00055343835
0.0005134134
0.00047494204
0.00043817889
0.0033165413
0.0032413778
0.0031665702
0.0030921395
0.0030181044
0.002944486
0.0028713054
0.0027985836
0.0027263412
0.0026545994
0.0025833789
0.0025127003
0.0024425844
0.0023730515
0.0023041218
0.0022358154
0.002168152
0.0021011509
0.0020348313
0.0019692117
0.0019043106
0.0018401457
0.0017767346
0.0017140942
0.0016522411
0.0015911915
0.0015309612
0.0014715656
0.0014130199
0.0013553391
0.0012985381
0.0012426319
0.0011876356
0.0011335648
0.0010804358
0.0010282657
0.00097707323
0.00092687882
0.00087770532
0.0008295788
0.00078252939
0.00073659252
0.00069181033
0.00064823366
0.00060592445
0.00056495886
0.00052543145
0.00048746026
0.00045119367
0.0033089868
0.0032343162
0.0031599895
0.0030860288
0.0030124537
0.0029392862
0.0028665482
0.0027942613
0.0027224472
0.0026511277
0.0025803241
0.002510058
0.0024403506
0.002371223
0.0023026959
0.0022347901
0.0021675256
0.0021009225
0.0020350002
0.0019697778
0.0019052741
0.0018415074
0.0017784953
0.0017162553
0.0016548042
0.0015941584
0.0015343342
0.0014753471
0.0014172127
0.0013599461
0.0013035626
0.0012480774
0.0011935059
0.0011398641
0.0010871686
0.001035437
0.00098468826
0.00093494336
0.00088622558
0.00083856144
0.00079198152
0.00074652158
0.00070222398
0.0006591395
0.00061732954
0.00057686907
0.0005378501
0.00050038667
0.00046461997
0.0033005555
0.0032264131
0.0031526024
0.003079146
0.0030060645
0.0029333811
0.0028611182
0.0027892985
0.0027179445
0.0026470787
0.0025767232
0.0025069003
0.0024376319
0.0023689398
0.0023008453
0.0022333698
0.0021665339
0.0021003581
0.0020348624
0.0019700663
0.001905989
0.0018426491
0.0017800648
0.0017182537
0.001657233
0.0015970194
0.0015376293
0.0014790788
0.0014213833
0.0013645586
0.00130862
0.001253583
0.0011994634
0.0011462773
0.0010940417
0.0010427745
0.00099249513
0.00094322474
0.00089498706
0.00084780892
0.00080172117
0.00075675972
0.00071296692
0.00067039315
0.00062909897
0.0005891576
0.00055065831
0.00051371026
0.00047844734
0.0032911859
0.0032176092
0.0031443508
0.0030714344
0.0029988819
0.0029267171
0.0028549637
0.0027836449
0.0027127842
0.0026424049
0.0025725301
0.0025031826
0.0024343852
0.0023661602
0.0022985298
0.0022315157
0.0021651394
0.0020994217
0.0020343832
0.0019700438
0.0019064232
0.0018435403
0.0017814136
0.0017200612
0.0016595005
0.0015997486
0.001540822
0.0014827371
0.0014255097
0.0013691555
0.0013136903
0.0012591298
0.00120549
0.0011527873
0.0011010388
0.0010502629
0.0010004791
0.00095170899
0.00090397641
0.00085730844
0.00081173602
0.00076729504
0.00072402754
0.00068198328
0.00064122156
0.00060181362
0.00056384528
0.00052742079
0.00049266606
0.0032808174
0.0032078449
0.0031351769
0.003062838
0.0029908513
0.0029192414
0.002848033
0.0027772504
0.0027069179
0.0026370596
0.0025676994
0.002498861
0.0024305679
0.0023628432
0.0022957096
0.0022291896
0.0021633051
0.0020980777
0.0020335283
0.0019696774
0.001906545
0.0018441505
0.0017825127
0.0017216501
0.0016615803
0.0016023207
0.0015438882
0.0014862992
0.0014295698
0.0013737161
0.0013187539
0.0012646992
0.0012115681
0.0011593773
0.0011081442
0.0010578872
0.0010086261
0.0009603826
0.00091318079
0.00086704772
0.0008220143
0.00077811616
0.00073539483
0.00069389914
0.00065368687
0.0006148268
0.00057740121
0.0005415087
0.00050726739
0.0032693903
0.0031970626
0.0031250246
0.0030533021
0.0029819194
0.0029109023
0.0028402762
0.0027700665
0.0027002984
0.002630997
0.0025621869
0.0024938928
0.0024261388
0.0023589488
0.0022923464
0.0022263544
0.0021609956
0.0020962919
0.0020322649
0.0019689356
0.0019063243
0.0018444509
0.0017833345
0.0017229939
0.0016634472
0.0016047118
0.001546805
0.0014897433
0.0014335432
0.0013782209
0.0013237923
0.0012702736
0.0012176811
0.0011660318
0.001115343
0.0010656334
0.0010169228
0.00096923314
0.00092258835
0.00087701548
0.00083254519
0.00078921269
0.00074705876
0.00070613103
0.00066648545
0.00062818812
0.00059131723
0.00055596587
0.0005222439
0.0032568481
0.0031852068
0.00311384
0.0030427745
0.0029720357
0.0029016505
0.0028316455
0.002762047
0.0026928811
0.0026241738
0.0025559509
0.0024882376
0.002421059
0.0023544398
0.002288404
0.0022229755
0.0021581774
0.0020940323
0.0020305623
0.0019677889
0.001905733
0.0018444146
0.0017838534
0.0017240684
0.0016650779
0.0016068999
0.0015495515
0.0014930498
0.0014374112
0.0013826522
0.0013287888
0.0012758375
0.0012238145
0.0011727369
0.0011226223
0.0010734893
0.0010253579
0.00097824976
0.00093218888
0.00088720202
0.00084331947
0.00080057581
0.00075901084
0.00071867076
0.00067960944
0.00064188993
0.00060558632
0.00057078563
0.0005375898
0.0032431375
0.0031722261
0.003101573
0.0030312064
0.002961153
0.0028914406
0.0028220969
0.0027531492
0.0026846248
0.0026165506
0.0025489531
0.0024818587
0.0024152931
0.0023492819
0.0022838498
0.0022190214
0.0021548205
0.0020912702
0.0020283932
0.0019662114
0.0019047461
0.001844018
0.0017840469
0.0017248522
0.0016664525
0.0016088659
0.00155211
0.0014962018
0.0014411581
0.0013869953
0.0013337297
0.0012813778
0.0012299561
0.0011794815
0.0011299717
0.0010814453
0.0010339222
0.00098742403
0.00094197446
0.00089759992
0.00085433014
0.00081219886
0.00077124474
0.0007315123
0.00069305306
0.00065592689
0.00062020333
0.0005859636
0.00055330145
0.0032282106
0.0031580739
0.0030881788
0.0030185547
0.0029492294
0.002880232
0.0028115913
0.0027433357
0.0026754935
0.0026080925
0.0025411603
0.0024747241
0.0024088106
0.002343446
0.002278656
0.0022144657
0.0021508996
0.0020879816
0.0020257346
0.0019641814
0.0019033434
0.0018432418
0.0017838969
0.0017253283
0.0016675549
0.001610595
0.0015544664
0.0014991864
0.0014447718
0.0013912392
0.0013386049
0.0012868855
0.0012360975
0.0011862578
0.0011373842
0.001089495
0.0010426101
0.00099675074
0.00095194036
0.00090820484
0.0008655732
0.00082407817
0.00078375705
0.00074465244
0.00070681337
0.00067029621
0.00063516605
0.00060149791
0.00056937775
0.0032120269
0.0031427112
0.0030736196
0.0030047829
0.0029362301
0.0028679915
0.0028000968
0.0027325758
0.0026654578
0.0025987716
0.0025325458
0.0024668085
0.0024015874
0.0023369094
0.002272801
0.0022092881
0.0021463958
0.0020841486
0.0020225701
0.0019616833
0.0019015104
0.0018420728
0.0017833912
0.0017254855
0.0016683749
0.0016120779
0.0015566126
0.0015019962
0.0014482458
0.001395378
0.0013434094
0.0012923562
0.0012422351
0.001193063
0.0011448574
0.0010976366
0.0010514201
0.001006229
0.000962086
0.00091901652
0.00087704862
0.0008362139
0.00079654806
0.00075809166
0.00072089095
0.00068499879
0.00065047548
0.00061739013
0.00058582089
0.0031945551
0.0031261081
0.0030578671
0.002989864
0.0029221293
0.0028546944
0.0027875903
0.0027208478
0.0026544972
0.0025885687
0.0025230917
0.0024580954
0.0023936081
0.0023296578
0.0022662718
0.0022034767
0.0021412982
0.0020797614
0.0020188907
0.0019587094
0.0018992403
0.0018405051
0.0017825249
0.0017253199
0.0016689095
0.0016133125
0.001558547
0.0015046306
0.0014515803
0.0013994127
0.0013481445
0.0012977919
0.0012483715
0.0011999001
0.0011523949
0.001105874
0.0010603566
0.0010158632
0.00097241614
0.00093003984
0.0008887614
0.00084861108
0.00080962284
0.00077183499
0.00073529091
0.00070003967
0.00066613698
0.0006336458
0.00060263682
0.0031757757
0.0031082466
0.0030409043
0.0029737825
0.0029069128
0.0028403279
0.00277406
0.0027081411
0.0026426026
0.0025774758
0.0025127912
0.0024485788
0.002384868
0.0023216877
0.0022590659
0.0021970299
0.0021356062
0.0020748206
0.0020146979
0.0019552621
0.0018965363
0.0018385427
0.0017813028
0.0017248369
0.0016691648
0.0016143055
0.0015602772
0.0015070976
0.0014547838
0.0014033524
0.00135282
0.0013032028
0.0012545172
0.0012067798
0.0011600076
0.0011142184
0.0010694308
0.0010256649
0.00098294214
0.00094128613
0.00090072276
0.00086128079
0.00082299228
0.00078589316
0.00075002373
0.00071542935
0.00068216084
0.00065027536
0.0006198363
0.0031556846
0.0030891233
0.0030227294
0.0029565375
0.0028905809
0.0028248934
0.0027595085
0.0026944594
0.0026297787
0.0025654987
0.002501651
0.0024382666
0.002375376
0.0023130088
0.0022511938
0.0021899592
0.0021293322
0.0020693392
0.0020100056
0.0019513559
0.0018934137
0.0018362016
0.0017797414
0.0017240537
0.0016691586
0.0016150752
0.0015618218
0.0015094163
0.0014578756
0.0014072166
0.0013574556
0.0013086087
0.0012606922
0.0012137223
0.0011677157
0.0011226898
0.0010786627
0.0010356537
0.00099368354
0.00095277462
0.00091295156
0.00087424149
0.00083667442
0.00080028373
0.00076510664
0.00073118453
0.00069856361
0.00066729514
0.00063743547
0.0031342953
0.0030687533
0.0030033582
0.0029381461
0.0028731517
0.00280841
0.0027439559
0.0026798238
0.0026160475
0.0025526603
0.0024896949
0.0024271835
0.0023651574
0.0023036471
0.0022426824
0.0021822922
0.0021225044
0.0020633461
0.0020048432
0.0019470207
0.0018899028
0.0018335125
0.0017778717
0.0017230016
0.0016689224
0.0016156532
0.0015632127
0.0015116186
0.001460888
0.0014110375
0.0013620834
0.0013140417
0.0012669283
0.0012207591
0.0011755505
0.0011313193
0.0010880828
0.0010458597
0.0010046697
0.00096453403
0.00092547585
0.00088752049
0.0008506958
0.00081503252
0.00078056461
0.00074732962
0.00071536895
0.00068472825
0.00065545722
0.0031116442
0.0030471735
0.0029828286
0.0029186471
0.0028546648
0.0027909182
0.0027274436
0.0026642764
0.0026014517
0.002539004
0.0024769672
0.0024153743
0.0023542577
0.0022936488
0.0022335783
0.0021740759
0.0021151701
0.0020568888
0.0019992584
0.0019423046
0.0018860519
0.0018305237
0.0017757423
0.0017217292
0.0016685046
0.0016160881
0.0015644982
0.0015137526
0.0014638685
0.0014148624
0.0013667504
0.0013195482
0.0012732714
0.0012279356
0.0011835566
0.0011401505
0.0010977341
0.0010563249
0.0010159417
0.00097660443
0.00093833458
0.00090115561
0.00086509309
0.00083017499
0.00079643203
0.00076389778
0.00073260905
0.000702606
0.0006739318
0.003087794
0.0030244476
0.0029612051
0.0028981053
0.0028351858
0.0027724843
0.0027100383
0.0026478845
0.0025860593
0.0025245984
0.0024635366
0.0024029081
0.0023427463
0.0022830835
0.0022239513
0.0021653802
0.0021073995
0.0020500375
0.0019933216
0.0019372777
0.0018819309
0.001827305
0.0017734226
0.0017203055
0.001667974
0.0016164479
0.0015657457
0.0015158852
0.0014668834
0.0014187568
0.0013715211
0.0013251918
0.0012797841
0.0012353132
0.0011917942
0.0011492425
0.0011076742
0.0010671057
0.0010275545
0.00098903913
0.00095157948
0.00091519695
0.00087991471
0.00084575794
0.00081275398
0.00078093257
0.00075032592
0.00072096884
0.00069289854
0.0030628393
0.0030006705
0.0029385829
0.0028766168
0.0028148111
0.0027532049
0.002691837
0.0026307455
0.0025699679
0.002509541
0.0024495009
0.0023898828
0.0023307211
0.0022720491
0.0022138992
0.0021563027
0.0020992897
0.0020428892
0.0019871291