/*--------------------------------*- C++ -*----------------------------------*\
| =========                 |                                                 |
| \\      /  F ield         | OpenFOAM: The Open Source CFD Toolbox           |
|  \\    /   O peration     | Version:  2312                                  |
|   \\  /    A nd           | Website:  www.openfoam.com                      |
|    \\/     M anipulation  |                                                 |
\*---------------------------------------------------------------------------*/
FoamFile
{
    version     2.0;
    format      ascii;
    arch        "LSB;label=32;scalar=64";
    class       volScalarField;
    location    "0.05";
    object      nut;
}
// * * * * * * * * * * * * * * * * * * * * * * * * * * * * * * * * * * * * * //

dimensions      [0 2 -1 0 0 0 0];

internalField   nonuniform List<scalar> 
3251
(
0.033279337
0.03332702
0.033377656
0.033431384
0.03348836
0.033548755
0.033612748
0.03368053
0.033752303
0.033828276
0.033908664
0.033993691
0.034083579
0.034178557
0.034278848
0.034384677
0.03449626
0.034613808
0.034737522
0.034867593
0.035004197
0.035147495
0.035297631
0.035454732
0.035618904
0.035790232
0.03596878
0.036154589
0.036347679
0.036548047
0.036755667
0.036970493
0.037192458
0.037421477
0.037657445
0.037900242
0.038149735
0.038405775
0.038668206
0.038936861
0.03921157
0.039492155
0.039778439
0.040070245
0.040367399
0.040669734
0.040977092
0.041289333
0.041606341
0.041928042
0.042254411
0.042585406
0.042921682
0.043262888
0.043608086
0.043957158
0.044310175
0.044667302
0.033279804
0.033327526
0.033378214
0.033431991
0.033489016
0.033549458
0.033613498
0.033681326
0.033753144
0.033829161
0.033909594
0.033994663
0.034084594
0.034179613
0.034279945
0.034385813
0.034497434
0.03461502
0.03473877
0.034868876
0.035005513
0.035148843
0.03529901
0.035456141
0.035620341
0.035791695
0.035970268
0.036156101
0.036349213
0.036549601
0.03675724
0.036972084
0.037194066
0.037423099
0.03765908
0.03790189
0.038151393
0.038407443
0.038669882
0.038938545
0.03921326
0.039493852
0.039780144
0.040071959
0.040369124
0.040671475
0.040978857
0.041291131
0.041608184
0.041929939
0.042256368
0.04258746
0.042923541
0.043264369
0.043609329
0.043958212
0.044311046
0.044668137
0.033280489
0.033328272
0.033379034
0.033432884
0.03348998
0.033550492
0.0336146
0.033682495
0.033754379
0.03383046
0.033910955
0.033996085
0.034086075
0.034181152
0.03428154
0.034387461
0.034499135
0.03461677
0.034740568
0.034870719
0.035007399
0.03515077
0.035300976
0.035458142
0.035622375
0.035793761
0.035972362
0.03615822
0.036351355
0.036551763
0.03675942
0.036974279
0.037196273
0.037425317
0.037661307
0.037904122
0.038153628
0.03840968
0.038672119
0.03894078
0.039215492
0.03949608
0.039782368
0.040074179
0.040371344
0.040673697
0.040981086
0.041293373
0.041610446
0.041932224
0.042258669
0.042589769
0.042925668
0.043266184
0.043610899
0.043959572
0.044312188
0.044669081
0.03328137
0.033329241
0.033380099
0.033434044
0.033491233
0.033551836
0.033616033
0.033684015
0.033755984
0.033832147
0.033912722
0.03399793
0.034087996
0.034183145
0.034283603
0.034389592
0.03450133
0.034619026
0.034742883
0.034873089
0.035009821
0.03515324
0.03530349
0.035460698
0.035624969
0.035796388
0.035975019
0.036160904
0.036354062
0.03655449
0.036762162
0.036977033
0.037199036
0.037428085
0.037664076
0.03790689
0.038156392
0.038412437
0.038674866
0.038943515
0.039218214
0.039498786
0.039785057
0.040076853
0.040374001
0.040676341
0.040983719
0.041296001
0.041613069
0.04193484
0.042261262
0.04259231
0.042928028
0.043268265
0.04361273
0.043961179
0.04431356
0.044669963
0.033282439
0.033330425
0.033381402
0.033435464
0.033492768
0.033553483
0.033617789
0.033685877
0.033757949
0.033834212
0.033914885
0.034000187
0.034090344
0.03418558
0.034286122
0.034392191
0.034504005
0.034621774
0.034745699
0.034875969
0.035012761
0.035156236
0.035306537
0.035463791
0.035628103
0.035799559
0.035978222
0.036164135
0.036357315
0.03655776
0.036765446
0.036980325
0.037202332
0.03743138
0.037667367
0.037910172
0.038159662
0.038415691
0.038678101
0.038946728
0.039221401
0.039501946
0.039788188
0.040079954
0.040377072
0.040679382
0.040986733
0.041298987
0.041616027
0.041937762
0.042264127
0.042595081
0.042930611
0.043270584
0.04361479
0.04396301
0.044315207
0.033283621
0.033331742
0.033382851
0.033437044
0.033494477
0.033555316
0.033619744
0.033687951
0.033760137
0.033836512
0.033917292
0.034002698
0.034092954
0.034188287
0.034288921
0.034395078
0.034506975
0.034624822
0.034748821
0.03487916
0.035016016
0.03515955
0.035309905
0.035467207
0.035631562
0.035803055
0.03598175
0.036167688
0.036360889
0.03656135
0.036769045
0.036983929
0.037205935
0.037434978
0.037670954
0.037913744
0.038163215
0.038419219
0.038681602
0.038950198
0.039224837
0.039505345
0.039791547
0.040083271
0.040380348
0.040682615
0.040989922
0.041302131
0.041619123
0.0419408
0.042267084
0.042597918
0.042933258
0.043272984
0.043616938
0.043964941
0.044317206
0.033284894
0.033333161
0.033384416
0.033438751
0.033496322
0.033557297
0.033621856
0.03369019
0.0337625
0.033838995
0.033919891
0.034005408
0.034095772
0.034191207
0.034291939
0.034398189
0.034510175
0.034628106
0.034752183
0.034882595
0.035019518
0.035163113
0.035313523
0.035470875
0.035635273
0.035806804
0.03598553
0.036171494
0.036364714
0.036565188
0.03677289
0.036987776
0.037209777
0.03743881
0.037674771
0.037917541
0.038166986
0.038422961
0.038685309
0.038953867
0.039228464
0.039508928
0.039795083
0.040086757
0.040383781
0.040685994
0.040993246
0.041305397
0.041622326
0.041943927
0.042270112
0.042600811
0.04293596
0.043275447
0.04361915
0.043966928
0.044319179
0.033286358
0.033334796
0.033386219
0.033440718
0.033498449
0.03355958
0.033624291
0.033692772
0.033765224
0.033841856
0.033922885
0.03400853
0.034099017
0.03419457
0.034295413
0.03440177
0.034513856
0.034631882
0.034756047
0.034886541
0.03502354
0.035167204
0.035317676
0.035475082
0.035639529
0.0358111
0.03598986
0.03617585
0.03636909
0.036569575
0.036777283
0.036992166
0.03721416
0.037443178
0.037679117
0.03792186
0.038171272
0.038427209
0.038689514
0.038958024
0.039232569
0.039512976
0.039799071
0.040090682
0.04038764
0.040689785
0.040996965
0.04130904
0.041625886
0.041947391
0.042273455
0.042603995
0.042938934
0.043278168
0.0436216
0.043969117
0.044321135
0.033288025
0.033336661
0.033388275
0.033442963
0.033500877
0.033562186
0.03362707
0.033695718
0.033768333
0.033845122
0.033926302
0.034012092
0.034102718
0.034198404
0.034299375
0.034405852
0.034518052
0.034636184
0.034760449
0.034891035
0.035028118
0.035171858
0.035322399
0.035479866
0.035644365
0.035815981
0.035994776
0.036180794
0.036374052
0.036574549
0.036782259
0.036997137
0.037219118
0.037448115
0.037684028
0.037926736
0.038176107
0.038431996
0.038694248
0.038962699
0.03923718
0.039517519
0.039803541
0.040095075
0.040391952
0.040694012
0.041001103
0.041313084
0.041629827
0.041951214
0.042277135
0.042607494
0.042942204
0.043281168
0.043624311
0.043971552
0.03328991
0.033338771
0.033390604
0.033445505
0.033503627
0.033565138
0.033630217
0.033699055
0.033771853
0.033848819
0.033930169
0.034016124
0.034106906
0.034202742
0.034303856
0.034410468
0.034522795
0.034641047
0.034765423
0.034896111
0.035033288
0.035177113
0.03532773
0.035485264
0.03564982
0.035821483
0.036000317
0.036186363
0.03637964
0.036580146
0.036787857
0.037002726
0.037224689
0.03745366
0.037689538
0.037932203
0.038181524
0.038437356
0.038699544
0.038967925
0.03924233
0.039522587
0.039808522
0.040099964
0.040396745
0.040698703
0.041005687
0.041317554
0.041634173
0.041955422
0.042281177
0.042611333
0.042945792
0.04328447
0.043627318
0.043974387
0.033292029
0.033341143
0.033393223
0.033448364
0.03350672
0.033568458
0.033633757
0.033702808
0.033775811
0.033852976
0.033934517
0.034020655
0.034111614
0.034207617
0.03430889
0.034415653
0.034528123
0.034646507
0.034771006
0.034901809
0.035039089
0.035183008
0.035333708
0.035491315
0.035655933
0.035827647
0.036006521
0.036192597
0.036385893
0.036586407
0.036794115
0.037008972
0.037230912
0.03745985
0.037695686
0.0379383
0.038187562
0.038443326
0.038705439
0.038973737
0.039248052
0.039528213
0.039814046
0.04010538
0.040402047
0.040703886
0.041010743
0.041322476
0.041638951
0.041960039
0.042285608
0.042615538
0.042949725
0.043288103
0.043630661
0.033294396
0.033343795
0.033396152
0.033451562
0.033510179
0.03357217
0.033637715
0.033707004
0.033780237
0.033857623
0.033939377
0.03402572
0.034116874
0.034213064
0.034314514
0.034421444
0.034534071
0.034652603
0.034777238
0.034908167
0.035045562
0.035189583
0.035340375
0.035498061
0.035662746
0.035834515
0.036013432
0.036199538
0.036392853
0.036593373
0.036801076
0.037015915
0.037237826
0.037466725
0.037702511
0.037945065
0.038194257
0.038449942
0.038711967
0.038980169
0.039254381
0.039534431
0.039820147
0.040111355
0.04040789
0.040709589
0.0410163
0.041327877
0.041644186
0.041965093
0.042290455
0.042620138
0.042954032
0.043292103
0.043634493
0.033297028
0.033346745
0.033399409
0.033455119
0.033514027
0.0335763
0.033642118
0.033711671
0.033785159
0.033862791
0.033944781
0.03403135
0.034122721
0.034219117
0.034320763
0.034427879
0.034540679
0.034659373
0.034784159
0.034915226
0.035052746
0.035196881
0.035347772
0.035505544
0.035670302
0.035842131
0.036021093
0.036207231
0.036400563
0.036601088
0.036808782
0.037023599
0.037245476
0.037474328
0.037710054
0.037952539
0.038201649
0.038457243
0.038719168
0.03898726
0.039261353
0.039541276
0.039826857
0.040117922
0.040414306
0.040715845
0.041022387
0.041333787
0.041649908
0.041970613
0.04229575
0.042625166
0.042958744
0.04329651
0.033299944
0.033350012
0.033403018
0.033459059
0.033518289
0.033580874
0.033646994
0.033716839
0.033790609
0.033868512
0.033950763
0.034037582
0.034129192
0.034225816
0.034327677
0.034434996
0.034547988
0.03466686
0.034791812
0.034923029
0.035060687
0.035204945
0.035355944
0.03551381
0.035678646
0.035850538
0.036029548
0.036215719
0.036409069
0.036609596
0.036817277
0.037032068
0.037253903
0.037482701
0.037718359
0.037960763
0.038209781
0.038465271
0.03872708
0.038995047
0.039269006
0.039548785
0.039834212
0.040125116
0.040421327
0.040722685
0.041029035
0.041340233
0.041656144
0.041976628
0.042301526
0.04263066
0.042963903
0.043301488
0.033303159
0.033353616
0.033406999
0.033463407
0.033522991
0.03358592
0.033652372
0.033722538
0.033796618
0.03387482
0.033957358
0.034044451
0.034136323
0.034233197
0.034335296
0.034442838
0.034556039
0.034675107
0.034800238
0.034931621
0.035069429
0.035213821
0.035364938
0.035522904
0.035687825
0.035859785
0.036038846
0.03622505
0.036418417
0.036618944
0.036826609
0.037041367
0.037263154
0.037491888
0.037727469
0.037969781
0.038218694
0.038474066
0.038735745
0.039003572
0.039277379
0.039556996
0.03984225
0.040132971
0.04042899
0.040730143
0.041036276
0.041347248
0.041662925
0.04198317
0.042307817
0.042636663
0.042969545
0.033306695
0.033357579
0.033411376
0.033468186
0.03352816
0.033591466
0.033658283
0.033728801
0.033803221
0.03388175
0.033964602
0.034051996
0.034144156
0.034241303
0.03434366
0.034451446
0.034564876
0.034684156
0.034809485
0.034941048
0.035079019
0.035223555
0.0353748
0.035532876
0.035697887
0.035869919
0.036049033
0.036235272
0.036428655
0.03662918
0.036836824
0.037051544
0.037273276
0.037501938
0.03773743
0.037979638
0.038228432
0.038483672
0.038745206
0.039012874
0.039286511
0.039565947
0.03985101
0.040141527
0.040437329
0.040738253
0.041044145
0.041354863
0.04167028
0.041990268
0.042314663
0.042643238
0.042975833
0.033310569
0.033361922
0.033416173
0.033473422
0.033533822
0.033597541
0.033664757
0.033735661
0.033810452
0.033889337
0.033972532
0.034060255
0.034152728
0.034250173
0.034352812
0.034460865
0.034574543
0.034694055
0.034819598
0.034951356
0.035089503
0.035234197
0.035385579
0.035543773
0.035708882
0.03588099
0.036060161
0.036246435
0.036439834
0.036640354
0.036847973
0.037062648
0.037284317
0.037512896
0.037748289
0.03799038
0.038239042
0.038494134
0.038755505
0.039022998
0.039296446
0.039575681
0.03986053
0.040150821
0.040446384
0.040747054
0.041052675
0.041363109
0.041678238
0.041997951
0.042322102
0.042650458
0.033314802
0.033366667
0.033421413
0.033479142
0.033540008
0.033604176
0.033671827
0.03374315
0.033818345
0.03389762
0.033981188
0.034069268
0.034162082
0.034259851
0.034362797
0.034471138
0.034585087
0.03470485
0.034830624
0.034962594
0.035100933
0.035245797
0.035397327
0.035555647
0.03572086
0.03589305
0.03607228
0.036258591
0.036452004
0.036652516
0.036860105
0.037074729
0.037296326
0.037524813
0.037760094
0.038002055
0.03825057
0.038505497
0.038766689
0.039033987
0.039307227
0.039586239
0.039870853
0.040160894
0.040456193
0.040756582
0.041061903
0.04137202
0.041686826
0.042006244
0.042330172
0.042658584
0.033319416
0.033371838
0.033427123
0.033485374
0.033546745
0.033611402
0.033679525
0.033751304
0.033826938
0.033906635
0.033990608
0.034079076
0.034172259
0.03427038
0.034373658
0.034482312
0.034596554
0.034716589
0.034842614
0.034974812
0.035113357
0.035258404
0.035410094
0.035568549
0.035733874
0.035906151
0.036085443
0.036271792
0.036465217
0.036665718
0.036873273
0.037087839
0.037309354
0.037537739
0.037772896
0.038014713
0.038263063
0.038517809
0.038778803
0.039045886
0.039318896
0.039597664
0.039882019
0.040171788
0.040466798
0.040766878
0.041071867
0.041381629
0.04169607
0.04201516
0.042338858
0.042667246
0.03332443
0.033377458
0.033433327
0.033492145
0.033554063
0.03361925
0.033687884
0.033760157
0.033836267
0.033916421
0.034000833
0.03408972
0.034183303
0.034281804
0.034385441
0.034494433
0.034608991
0.03472932
0.034855615
0.03498806
0.035126827
0.035272071
0.035423932
0.035582533
0.035747976
0.035920345
0.036099703
0.03628609
0.036479528
0.036680015
0.036887529
0.037102029
0.037323454
0.037551724
0.037786744
0.038028401
0.038276572
0.038531118
0.038791893
0.039058741
0.039331499
0.03961
0.039894074
0.040183545
0.04047824
0.040777985
0.04108261
0.041391972
0.041705993
0.042024711
0.04234816
0.0426763
0.033329867
0.03338355
0.033440053
0.033499483
0.033561993
0.033627752
0.03369694
0.033769746
0.033846369
0.033927017
0.034011902
0.034101242
0.034195257
0.034294167
0.034398193
0.034507549
0.034622448
0.034743093
0.034869679
0.035002389
0.035141394
0.03528685
0.035438894
0.03559765
0.03576322
0.035935687
0.036115114
0.036301541
0.036494989
0.036695458
0.036902926
0.037117353
0.037338677
0.037566821
0.037801689
0.038043172
0.038291145
0.038545472
0.038806008
0.039072599
0.039345082
0.039623293
0.03990706
0.040196209
0.040490565
0.040789947
0.041094176
0.041403092
0.041716618
0.042034911
0.042358164
0.033335746
0.033390139
0.033447325
0.033507416
0.033570565
0.033636941
0.033706725
0.033780105
0.033857282
0.033938462
0.034023857
0.034113685
0.034208164
0.034307516
0.034411958
0.034521707
0.034636972
0.034757957
0.034884856
0.035017851
0.035157112
0.035302793
0.035455035
0.035613956
0.035779661
0.035952232
0.03613173
0.036318198
0.036511656
0.036712103
0.036919519
0.037133864
0.037355077
0.037583082
0.037817784
0.038059075
0.038306831
0.03856092
0.038821196
0.039087506
0.039359691
0.039637586
0.039921022
0.040209825
0.040503817
0.040802812
0.041106618
0.041415041
0.041727971
0.042045772
0.042369224
0.033342088
0.03339725
0.033455172
0.033515973
0.033579809
0.033646849
0.033717273
0.033791271
0.033869043
0.033950794
0.034036738
0.034127089
0.034222068
0.034321894
0.034426784
0.034536953
0.034652612
0.034773962
0.034901196
0.035034496
0.035174031
0.035319955
0.035472405
0.035631504
0.035797352
0.035970032
0.036149606
0.036336116
0.036529581
0.036730003
0.036937361
0.037151615
0.037372706
0.037600559
0.03783508
0.038076161
0.038323683
0.038577511
0.038837504
0.03910351
0.039375372
0.039652926
0.039936005
0.040224436
0.040518041
0.040816631
0.041119999
0.041427902
0.041740092
0.033348914
0.033404906
0.033463618
0.033525182
0.033589754
0.033657506
0.033728617
0.033803278
0.033881688
0.033964052
0.034050584
0.034141497
0.034237011
0.034337345
0.034442715
0.034553336
0.034669415
0.034791156
0.034918749
0.035052375
0.035192202
0.035338385
0.03549106
0.035650346
0.035816347
0.035989143
0.036168796
0.036355348
0.036548821
0.036749213
0.036956506
0.03717066
0.037391618
0.037619304
0.037853627
0.038094482
0.038341748
0.038595294
0.038854981
0.039120658
0.039392171
0.039669357
0.039952053
0.040240087
0.040533283
0.040831454
0.041134389
0.041441821
0.03335625
0.033413134
0.03347269
0.033535069
0.033600429
0.033668943
0.033740789
0.03381616
0.033895252
0.033978273
0.034065433
0.034156948
0.034253035
0.034353912
0.034459795
0.034570898
0.034687429
0.034809586
0.034937562
0.035071537
0.035211677
0.035358136
0.035511049
0.035670535
0.035836697
0.036009616
0.036189352
0.036375949
0.036569426
0.036769784
0.036977005
0.037191051
0.037411863
0.037639369
0.037873478
0.038114086
0.038361076
0.038614317
0.038873673
0.039138996
0.039410132
0.039686923
0.039969208
0.040256818
0.040549584
0.040847326
0.041149859
0.041457087
0.033308877
0.033364152
0.033421958
0.033482412
0.033545659
0.033611861
0.033681188
0.03375382
0.033829948
0.03390977
0.033993492
0.034081324
0.03417348
0.034270179
0.034371636
0.034478068
0.034589686
0.034706696
0.034829299
0.034957684
0.03509203
0.035232504
0.035379256
0.035532422
0.035692122
0.035858455
0.036031503
0.036211327
0.036397968
0.036591449
0.036791769
0.036998911
0.037212838
0.037433492
0.037660803
0.037894681
0.038135023
0.038381714
0.038634628
0.038893627
0.039158567
0.039429299
0.039705667
0.039987511
0.04027467
0.04056698
0.040864275
0.041166401
0.041473365
0.033316343
0.033372611
0.033431395
0.033492802
0.033556975
0.033624074
0.033694267
0.033767737
0.033844672
0.033925272
0.034009741
0.034098289
0.03419113
0.03428848
0.034390556
0.034497572
0.034609738
0.034727261
0.034850338
0.034979158
0.0351139
0.035254727
0.035401792
0.035555228
0.035715153
0.035881667
0.036054852
0.036234768
0.036421456
0.036614938
0.036815217
0.037022273
0.03723607
0.037456554
0.037683654
0.037917283
0.038157339
0.03840371
0.03865627
0.038914886
0.039179417
0.039449714
0.039725627
0.040007
0.040293678
0.040585503
0.040882322
0.041184006
0.041490608
0.033324284
0.03338163
0.033441458
0.03350388
0.033569037
0.033637089
0.033708205
0.033782565
0.03386036
0.033941787
0.03402705
0.03411636
0.034209929
0.034307973
0.034410707
0.034518344
0.034631094
0.034749161
0.034872742
0.035002026
0.035137187
0.035278391
0.035425787
0.035579509
0.035739674
0.03590638
0.036079709
0.036259721
0.036446458
0.036639941
0.036840173
0.037047135
0.037260794
0.037481094
0.037707968
0.037941329
0.038181078
0.038427105
0.038679287
0.038937492
0.039201584
0.039471417
0.039746843
0.040027712
0.040313874
0.040605179
0.040901486
0.041202679
0.041508825
0.033332718
0.033391216
0.033452157
0.033515657
0.03358186
0.033650924
0.033723019
0.033798326
0.033877033
0.033959338
0.034045446
0.034135564
0.034229907
0.034328687
0.03443212
0.034540416
0.034653786
0.034772431
0.034896548
0.035026323
0.03516193
0.035303534
0.035451282
0.035605307
0.035765725
0.035932635
0.036106116
0.03628623
0.036473017
0.0366665
0.03686668
0.037073542
0.037287051
0.037507155
0.037733786
0.03796686
0.038206281
0.03845194
0.038703717
0.038961484
0.039225106
0.039494442
0.039769348
0.040049679
0.040335288
0.040626035
0.040921785
0.04122243
0.041528041
0.033341655
0.033401378
0.033463501
0.033528145
0.033595456
0.033665593
0.033738726
0.033815034
0.033894708
0.033977945
0.034064947
0.034155924
0.034251086
0.034350647
0.03445482
0.034563816
0.034677843
0.034797101
0.034921786
0.035052081
0.035188162
0.035330189
0.03547831
0.035632656
0.035793342
0.035960467
0.03613411
0.03631433
0.03650117
0.036694651
0.036894776
0.03710153
0.03731488
0.037534774
0.037761146
0.037993914
0.038232985
0.038478252
0.038729597
0.038986897
0.039250018
0.039518824
0.039793174
0.040072928
0.040357946
0.040648091
0.040943236
0.041243277
0.041548278
0.033351099
0.033412118
0.033475491
0.033541346
0.03360983
0.033681102
0.033755332
0.033832701
0.033913398
0.03399762
0.034085569
0.034177453
0.034273483
0.034373871
0.034478828
0.034588564
0.034703286
0.034823194
0.034948479
0.035079326
0.035215908
0.035358383
0.035506898
0.035661584
0.035822555
0.035989907
0.03616372
0.036344053
0.036530948
0.036724427
0.036924494
0.037131133
0.037344312
0.037563983
0.037790079
0.038022523
0.038261222
0.038506071
0.038756958
0.039013759
0.039276347
0.039544588
0.039818347
0.040097486
0.04038187
0.040671368
0.040965857
0.041265236
0.04156956
0.033361046
0.033423433
0.033488126
0.03355526
0.033624982
0.033697452
0.033772842
0.03385133
0.033933107
0.034018369
0.034107319
0.034200161
0.034297108
0.034398369
0.034504155
0.034614674
0.034730131
0.034850724
0.034976645
0.035108075
0.035245186
0.035388135
0.035537068
0.035692114
0.035853385
0.036020978
0.036194971
0.036375424
0.036562377
0.036755854
0.036955858
0.037162375
0.037375374
0.037594808
0.037820613
0.038052713
0.038291016
0.038535424
0.038785823
0.039042096
0.039304118
0.03957176
0.039844888
0.040123371
0.040407078
0.040695882
0.040989663
0.041288321
0.041591906
0.033371484
0.033435311
0.033501396
0.033569877
0.033640903
0.033714636
0.033791247
0.033870916
0.033953831
0.03404019
0.034130194
0.034224048
0.034321961
0.034424143
0.034530803
0.034642148
0.034758381
0.034879699
0.035006291
0.035138337
0.035276007
0.035419457
0.035568831
0.035724256
0.035885845
0.036053693
0.036227877
0.036408457
0.036595472
0.036788946
0.036988885
0.037195274
0.037408083
0.037627268
0.037852765
0.038084501
0.038322388
0.038566327
0.038816212
0.039071926
0.039333348
0.039600353
0.039872813
0.040150599
0.040433584
0.040721645
0.041014665
0.041312546
0.04161533
0.033382395
0.033447735
0.033515281
0.033585178
0.033657576
0.033732637
0.033810532
0.033891442
0.033975556
0.034063069
0.034154183
0.034249102
0.034348033
0.034451185
0.034558767
0.034670982
0.034788033
0.034910114
0.035037414
0.035170109
0.035308369
0.035452348
0.035602188
0.035758015
0.03591994
0.036088057
0.036262443
0.036443157
0.036630239
0.036823713
0.037023583
0.037229838
0.037442449
0.037661371
0.037886545
0.038117898
0.038355345
0.038598792
0.038848134
0.039103258
0.039364047
0.039630379
0.039902131
0.040179177
0.040461395
0.040748664
0.041040871
0.041337918
0.041639842
0.033393749
0.033460674
0.033529753
0.033601136
0.033674972
0.033751427
0.03383067
0.033912884
0.033998256
0.034086983
0.034179262
0.0342753
0.034375302
0.034479475
0.034588025
0.034701157
0.034819068
0.034941953
0.035069998
0.035203378
0.03534226
0.035486796
0.035637128
0.035793379
0.035955659
0.036124062
0.036298662
0.03647952
0.036666675
0.036860149
0.03705995
0.037266066
0.037478469
0.037697117
0.037921952
0.038152904
0.038389891
0.03863282
0.038881591
0.039136094
0.039396216
0.039661839
0.039932843
0.040209106
0.040490511
0.040776939
0.041068281
0.041364439
0.041665445
0.033405506
0.033474088
0.033544771
0.033617708
0.033693052
0.033770966
0.033851622
0.033935202
0.034021894
0.034111892
0.034205395
0.034302607
0.034403733
0.034508978
0.034618546
0.03473264
0.034851457
0.034975187
0.035104016
0.035238117
0.035377653
0.035522778
0.035673627
0.035830326
0.035992982
0.036161687
0.036336516
0.036517527
0.03670476
0.036898238
0.03709797
0.037303943
0.037516131
0.037734493
0.037958975
0.038189508
0.038426013
0.038668401
0.038916573
0.039170425
0.039429847
0.039694724
0.039964941
0.04024038
0.040520925
0.040806465
0.041096889
0.041392105
0.041692137
0.033417613
0.033487924
0.033560282
0.033634842
0.03371176
0.0337912
0.033873334
0.033958343
0.034046416
0.034137746
0.034232531
0.034330973
0.034433277
0.034539645
0.034650281
0.034765385
0.034885152
0.035009771
0.035139424
0.035274282
0.035414508
0.035560251
0.035711647
0.035868819
0.036031872
0.036200897
0.036375969
0.036557145
0.036744465
0.036937953
0.037137613
0.03734344
0.037555407
0.037773474
0.03799759
0.038227687
0.03846369
0.038705513
0.038953061
0.039206232
0.039464921
0.039729017
0.039998407
0.04027298
0.040552622
0.040837225
0.041126682
0.041420902
0.041719907
0.033430003
0.033502114
0.033576216
0.033652468
0.033731028
0.03381206
0.033895736
0.033982238
0.034071753
0.034164475
0.0342606
0.03436033
0.034463866
0.034571412
0.034683166
0.034799329
0.034920092
0.035045643
0.035176161
0.035311815
0.035452766
0.03559916
0.035751133
0.035908803
0.036072276
0.036241642
0.036416973
0.036598326
0.036785742
0.036979243
0.037178836
0.037384516
0.037596256
0.03781402
0.038037757
0.038267404
0.038502887
0.038744123
0.038991021
0.039243483
0.039501407
0.039764687
0.040033214
0.04030688
0.040585575
0.040869195
0.041157636
0.041450809
0.041748733
0.033442594
0.033516575
0.033592489
0.033670502
0.033750771
0.03383346
0.033918743
0.034006801
0.03409782
0.034191994
0.034289518
0.034390593
0.034495417
0.034604193
0.034717118
0.034834389
0.034956196
0.035082723
0.035214148
0.035350639
0.035492351
0.03563943
0.035792009
0.035950206
0.036114124
0.036283851
0.036459459
0.036641004
0.036828526
0.037022049
0.03722158
0.03742711
0.037638621
0.037856075
0.038079423
0.038308606
0.038543551
0.03878418
0.039030405
0.039282132
0.039539262
0.039801693
0.040069321
0.04034204
0.040619747
0.040902339
0.041189717
0.041481795
0.041778587
0.033455288
0.033531206
0.033609001
0.033688841
0.033770883
0.033855295
0.033942248
0.034031925
0.034124511
0.034220197
0.03431918
0.034421657
0.034527826
0.034637886
0.034752034
0.034870463
0.034993362
0.035120912
0.035253288
0.035390655
0.035533167
0.035680967
0.035834185
0.035992937
0.036157326
0.036327437
0.036503341
0.036685094
0.036872735
0.037066288
0.037265761
0.037471147
0.037682427
0.037899566
0.038122517
0.038351224
0.038585617
0.038825621
0.039071151
0.039322118
0.039578426
0.039839977
0.040106672
0.040378409
0.040655088
0.04093661
0.04122288
0.041513816
0.041809428
0.033467969
0.03354589
0.033625631
0.033707362
0.033791244
0.033877441
0.033966129
0.034057487
0.0341517
0.03424896
0.03434946
0.034453397
0.034560967
0.034672367
0.034787791
0.03490743
0.035031469
0.035160089
0.035293461
0.035431746
0.035575097
0.035723654
0.035877545
0.036036884
0.036201771
0.03637229
0.036548512
0.036730491
0.036918266
0.037111861
0.037311284
0.037516531
0.037727578
0.0379444
0.03816695
0.038395171
0.038629
0.038868363
0.03911318
0.039363365
0.039618826
0.03987947
0.0401452
0.04041592
0.040691534
0.040971947
0.041257068
0.041546818
0.041841204
0.033480502
0.033560491
0.03364224
0.033725926
0.033811709
0.033899756
0.03399024
0.03408334
0.034179242
0.034278135
0.034380212
0.034485667
0.034594695
0.03470749
0.034824243
0.034945144
0.035070375
0.035200112
0.035334524
0.035473772
0.035618003
0.035767356
0.035921955
0.036081913
0.036247327
0.036418281
0.036594844
0.036777069
0.036964995
0.037158645
0.037358029
0.037563141
0.037773965
0.037990468
0.038212612
0.038440342
0.038673597
0.038912307
0.039156395
0.039405778
0.039660371
0.039920082
0.04018482
0.040454493
0.040729008
0.041008276
0.041292208
0.041580731
0.041873848
0.033492737
0.033574852
0.033658671
0.033744372
0.033832118
0.033922075
0.034014415
0.034109319
0.03420697
0.034307556
0.034411268
0.034518299
0.034628842
0.034743087
0.034861224
0.034983439
0.035109911
0.035240815
0.035376316
0.035516569
0.035661722
0.03581191
0.035967255
0.036127866
0.036293839
0.036465257
0.036642187
0.03682468
0.037012775
0.037206497
0.037405854
0.037610843
0.037821447
0.038037636
0.038259374
0.03848661
0.038719285
0.038957333
0.039200679
0.039449246
0.039702952
0.039961709
0.040225431
0.040494029
0.040767417
0.041045506
0.041328216
0.041615473
0.041907283
0.033504502
0.0335888
0.033674747
0.033762522
0.033852289
0.033944214
0.034038471
0.034135237
0.034234696
0.034337033
0.034442439
0.034551104
0.034663217
0.034778968
0.034898544
0.035022126
0.035149891
0.035282011
0.035418647
0.035559953
0.035706071
0.035857135
0.036013264
0.036174564
0.03634113
0.036513042
0.036690365
0.036873152
0.037061439
0.03725525
0.037454597
0.037659474
0.037869869
0.038085753
0.038307086
0.038533829
0.038765922
0.039003301
0.039245898
0.039493638
0.039746442
0.040004229
0.040266915
0.040534416
0.04080665
0.041083534
0.041364989
0.041650948
0.041941415
0.033515612
0.033602146
0.033690273
0.033780177
0.033872021
0.033965972
0.034062201
0.034160887
0.034262211
0.034366358
0.034473515
0.03458387
0.03469761
0.034814923
0.03493599
0.035060993
0.035190103
0.035323489
0.035461309
0.035603713
0.035750842
0.035902824
0.036059777
0.036221804
0.036388998
0.036561436
0.036739183
0.03692229
0.037110794
0.037304717
0.037504071
0.037708854
0.037919051
0.038134639
0.038355581
0.03858183
0.038813342
0.039050053
0.039291896
0.039538802
0.039790695
0.0400475
0.040309135
0.040575523
0.040846583
0.041122237
0.041402412
0.041687043
0.041976134
0.033525867
0.033614684
0.033705042
0.033797125
0.033891099
0.033987128
0.034085386
0.034186047
0.034289291
0.034395303
0.034504266
0.034616367
0.03473179
0.034850719
0.034973333
0.035099808
0.035230316
0.035365018
0.035504071
0.035647621
0.035795805
0.035948749
0.036106567
0.036269361
0.036437219
0.036610218
0.036788422
0.036971879
0.037160625
0.037354685
0.037554069
0.037758775
0.037968793
0.038184097
0.038404656
0.038630428
0.038861362
0.039097406
0.039338497
0.039584567
0.039835546
0.040091361
0.040351937
0.040617199
0.040887071
0.04116148
0.041440353
0.041723631
0.042011317
0.033535055
0.033626198
0.033718831
0.033813141
0.033909293
0.034007452
0.034107788
0.034210476
0.034315695
0.034423625
0.034534449
0.03464835
0.034765509
0.034886108
0.035010321
0.035138322
0.035270277
0.035406347
0.035546682
0.035691425
0.035840711
0.035994661
0.036153386
0.036316986
0.036485548
0.036659145
0.036837839
0.037021677
0.037210697
0.03740492
0.037604359
0.037809012
0.038018869
0.038233909
0.0384541
0.038679405
0.038909775
0.03914516
0.039385504
0.039630742
0.039880808
0.040135633
0.040395147
0.040659279
0.040927957
0.041201109
0.041478667
0.041760572
0.04204683
0.033542959
0.033636465
0.033731413
0.033827992
0.033926365
0.034026699
0.034129161
0.034233926
0.034341168
0.034451068
0.034563804
0.034679557
0.034798505
0.034920825
0.035046689
0.035176267
0.035309721
0.035447207
0.035588872
0.035734857