/*--------------------------------*- C++ -*----------------------------------*\
| =========                 |                                                 |
| \\      /  F ield         | OpenFOAM: The Open Source CFD Toolbox           |
|  \\    /   O peration     | Version:  2312                                  |
|   \\  /    A nd           | Website:  www.openfoam.com                      |
|    \\/     M anipulation  |                                                 |
\*---------------------------------------------------------------------------*/
FoamFile
{
    version     2.0;
    format      ascii;
    arch        "LSB;label=32;scalar=64";
    class       volScalarField;
    location    "0.05";
    object      omega;
}
// * * * * * * * * * * * * * * * * * * * * * * * * * * * * * * * * * * * * * //

dimensions      [0 0 -1 0 0 0 0];

internalField   nonuniform List<scalar> 
3251
(
347.23604
343.45334
339.69716
335.96654
332.26061
328.57865
324.92011
321.28457
317.6718
314.08173
310.51446
306.9703
303.44973
299.95342
296.48222
293.03717
289.61949
286.23057
282.87193
279.54527
276.25241
272.99527
269.77589
266.59637
263.45886
260.36557
257.31869
254.32041
251.3729
248.47824
245.63847
242.8555
240.13114
237.46708
234.86484
232.32579
229.85114
227.44191
225.09895
222.82291
220.61429
218.47336
216.40023
214.39485
212.45698
210.58621
208.78198
207.04356
205.37008
203.76045
202.21344
200.72779
199.30074
197.93156
196.62063
195.36681
194.16829
193.02298
347.22472
343.44246
339.68667
335.95643
332.25087
328.56929
324.91111
321.27592
317.6635
314.07376
310.50682
306.96299
303.44273
299.94673
296.47584
293.03109
289.6137
286.22506
282.86671
279.54032
276.24772
272.99085
269.77172
266.59245
263.45518
260.36212
257.31547
254.3174
251.37009
248.47563
245.63604
242.85325
240.12906
237.46515
234.86305
232.32413
229.8496
227.44048
225.09762
222.82167
220.61311
218.47224
216.39917
214.39382
212.45595
210.58518
208.78091
207.04244
205.36887
203.75913
202.21199
200.72612
199.29944
197.93098
196.62045
195.36695
194.16872
193.02335
347.20202
343.4206
339.6656
335.93612
332.23131
328.55045
324.89298
321.25848
317.64673
314.05765
310.49136
306.94816
303.42853
299.93314
296.46284
293.01868
289.60187
286.2138
282.856
279.53016
276.2381
272.98175
269.76314
266.58437
263.4476
260.35502
257.30883
254.31122
251.36435
248.47031
245.63113
242.84873
240.12491
237.46136
234.8596
232.321
229.84677
227.43793
225.09532
222.81962
220.61128
218.47061
216.39771
214.39251
212.45478
210.58411
208.77992
207.04149
205.36793
203.75819
202.21105
200.72517
199.29886
197.931
196.62092
195.36778
194.16992
193.02485
347.16799
343.38781
339.63399
335.90566
332.20196
328.52218
324.86576
321.2323
317.62155
314.03345
310.46813
306.92587
303.40716
299.91267
296.44327
292.99998
289.58403
286.19681
282.83984
279.51482
276.22357
272.96801
269.75017
266.57217
263.43614
260.34429
257.29881
254.3019
251.3557
248.46232
245.62377
242.84198
240.11875
237.45576
234.85454
232.31645
229.8427
227.43432
225.09214
222.81684
220.60887
218.46855
216.39596
214.39105
212.45357
210.58311
208.7791
207.04083
205.36739
203.75776
202.21073
200.72501
199.29908
197.93179
196.62218
195.36943
194.17197
193.02786
347.12267
343.34413
339.59187
335.86506
332.16284
328.4845
324.82948
321.19738
317.58797
314.00118
310.43713
306.89612
303.37864
299.88535
296.41713
292.97501
289.56021
286.17411
282.81825
279.49432
276.20414
272.94964
269.73285
266.55586
263.42083
260.32996
257.28544
254.28947
251.34418
248.45168
245.61399
242.83303
240.1106
237.44838
234.84789
232.31051
229.83743
227.42968
225.08811
222.81336
220.60593
218.46608
216.39395
214.38945
212.45234
210.58222
208.77851
207.04049
205.36729
203.75787
202.21107
200.72562
199.30013
197.93339
196.62428
195.37195
194.17478
347.06933
343.29269
339.54228
335.81726
332.11677
328.44012
324.78675
321.15626
317.54841
313.96315
310.4006
306.86106
303.34502
299.85316
296.38632
292.94557
289.53212
286.14734
282.79279
279.47015
276.18123
272.92798
269.71241
266.53662
263.40278
260.31307
257.26968
254.27481
251.33061
248.43917
245.6025
242.82252
240.10105
237.43975
234.84014
232.30361
229.83133
227.42435
225.0835
222.80944
220.60264
218.4634
216.39182
214.38783
212.45119
210.58149
208.77817
207.0405
205.36761
203.75849
202.21201
200.72691
199.30188
197.93568
196.62708
195.37514
194.17769
347.00959
343.23509
339.48674
335.76372
332.06518
328.39042
324.73889
321.11019
317.5041
313.92055
310.35968
306.82178
303.30735
299.81707
296.3518
292.91257
289.50062
286.11733
282.76424
279.44304
276.15554
272.90368
269.68949
266.51505
263.38254
260.29413
257.25202
254.2584
251.31541
248.42515
245.58963
242.81078
240.09038
237.43012
234.83152
232.29593
229.82458
227.41846
225.07843
222.80515
220.59909
218.46053
216.38959
214.38619
212.4501
210.5809
208.77804
207.04078
205.36828
203.75953
202.21341
200.72873
199.30418
197.93852
196.63045
195.37892
194.18138
346.93878
343.1668
339.42089
335.70024
332.004
328.33149
324.68214
321.05557
317.45155
313.87003
310.31115
306.77519
303.26267
299.77427
296.31083
292.87342
289.46326
286.08172
282.73036
279.41087
276.12505
272.87485
269.66228
266.48945
263.35851
260.27165
257.23106
254.23892
251.29738
248.40853
245.57438
242.79686
240.07775
237.41873
234.82132
232.28688
229.81662
227.41155
225.07251
222.80016
220.59498
218.45725
216.38708
214.3844
212.44897
210.58039
208.77809
207.04135
205.36932
203.76103
202.21538
200.73118
199.30718
197.94211
196.63461
195.3836
194.18646
346.85608
343.08705
339.34399
335.62611
331.93256
328.26265
324.61585
320.99176
317.39016
313.81101
310.25444
306.72076
303.21047
299.72425
296.26296
292.82767
289.41958
286.0401
282.69076
279.37326
276.08941
272.84114
269.63048
266.45952
263.33042
260.24537
257.20655
254.21614
251.2763
248.3891
245.55657
242.7806
240.063
237.40544
234.80943
232.27635
229.80737
227.40352
225.06565
222.79441
220.59027
218.45352
216.38426
214.38244
212.4478
210.57995
208.77832
207.04221
205.37077
203.76303
202.21792
200.7343
199.31092
197.94648
196.63962
195.38914
346.76065
342.99501
339.25524
335.54055
331.85009
328.1832
324.53933
320.9181
317.3193
313.74288
310.18898
306.65791
303.15019
299.66649
296.20768
292.77483
289.36914
285.99203
282.64502
279.32981
276.04823
272.80219
269.59373
266.42494
263.29797
260.215
257.17823
254.18983
251.25195
248.36666
245.53599
242.76183
240.04598
237.39011
234.79573
232.2642
229.79672
227.3943
225.05778
222.78783
220.5849
218.44929
216.3811
214.38027
212.44657
210.57958
208.77875
207.04338
205.37262
203.76554
202.22107
200.7381
199.31541
197.95168
196.64547
195.39527
346.65157
342.88981
339.1538
335.44275
331.75583
328.09238
324.45186
320.8339
317.23828
313.66498
310.11413
306.58605
303.08125
299.60043
296.14446
292.71439
289.31145
285.93703
282.59269
279.28011
276.00111
272.75762
269.55167
266.38535
263.26082
260.18024
257.14581
254.15971
251.22407
248.34098
245.51243
242.74034
240.0265
237.37257
234.78005
232.25032
229.78455
227.38378
225.04882
222.78034
220.57881
218.44451
216.37756
214.37789
212.44526
210.57928
208.77938
207.04486
205.37491
203.76858
202.22485
200.74262
199.3207
197.95772
196.65216
346.52791
342.77053
339.03878
335.33185
331.64894
327.98939
324.35266
320.7384
317.1464
313.57662
310.02922
306.50453
303.00306
299.5255
296.07273
292.64581
289.24598
285.87462
282.5333
279.22369
275.94763
272.70703
269.50393
266.34042
263.21864
260.14077
257.10901
254.12551
251.19242
248.31181
245.48568
242.71595
240.00438
237.35265
234.76226
232.23457
229.77076
227.37185
225.03867
222.77187
220.57194
218.43914
216.3736
214.37525
212.44386
210.57902
208.78019
207.04667
205.37763
203.77217
202.22927
200.74787
199.32679
197.96459
196.6594
346.38865
342.63622
338.90925
335.20696
331.52856
327.87339
324.24094
320.63083
317.04289
313.47709
309.93358
306.41269
302.91495
299.44106
295.99189
292.56853
289.17219
285.80428
282.46635
279.16009
275.88733
272.64999
269.4501
266.28974
263.17107
260.09626
257.06749
254.08692
251.1567
248.2789
245.4555
242.68842
239.97943
237.33018
234.74219
232.2168
229.7552
227.35839
225.02722
222.76234
220.5642
218.43311
216.36917
214.37232
212.44233
210.5788
208.78119
207.0488
205.38081
203.77632
202.23434
200.75386
199.33371
197.97231
346.23275
342.48584
338.76422
335.06713
331.39377
327.7435
324.11582
320.51037
316.92697
313.36561
309.82644
306.30982
302.81625
299.34646
295.90133
292.48194
289.08951
285.72545
282.39132
279.08881
275.81974
272.58605
269.38974
266.23292
263.11773
260.04633
257.02092
254.04364
251.11664
248.24197
245.42164
242.65752
239.95142
237.30496
234.71965
232.19685
229.73773
227.34329
225.01438
222.75164
220.55554
218.42636
216.36422
214.36906
212.44065
210.5786
208.78236
207.05125
205.38444
203.78103
202.24008
200.7606
199.34144
197.98057
346.0591
342.31834
338.60267
334.91135
331.24361
327.5988
323.97642
320.37615
316.79781
313.24139
309.70705
306.19516
302.70625
299.24102
295.80038
292.3854
288.99733
285.63756
282.30765
279.00931
275.74436
272.51472
269.32241
266.16952
263.0582
259.99062
256.96894
253.99532
251.0719
248.20074
245.38381
242.62302
239.92012
237.27677
234.69447
232.17455
229.7182
227.32641
225.00002
222.73967
220.54584
218.4188
216.35868
214.36542
212.43878
210.57839
208.7837
207.05402
205.38853
203.78633
202.24648
200.76806
199.35
345.86654
342.13259
338.42351
334.73859
331.07706
327.43829
323.8218
320.22727
316.65452
313.10357
309.57459
306.06795
302.58418
299.12401
295.68834
292.27826
288.895
285.53998
282.21476
278.92104
275.66065
272.4355
269.24762
266.0991
262.99207
259.9287
256.91117
253.94162
251.02217
248.15489
245.34174
242.58463
239.8853
237.24541
234.66643
232.14972
229.69644
227.3076
224.98401
222.72633
220.53502
218.41036
216.35249
214.36133
212.43667
210.57813
208.78517
207.0571
205.39308
203.79221
202.25353
200.77619
199.35907
345.65386
341.92741
338.22561
334.54774
330.89307
327.26096
323.65097
320.06276
316.49619
312.95127
309.4282
305.92735
302.44926
298.99467
295.56449
292.1598
288.78186
285.43208
282.11204
278.82341
275.56804
272.34786
269.16486
266.02116
262.91887
259.86017
256.8472
253.88214
250.96708
248.10409
245.29513
242.54207
239.84669
237.21062
234.63533
232.12216
229.67228
227.28669
224.9662
222.71147
220.52296
218.40094
216.34556
214.35674
212.43427
210.57779
208.78675
207.06047
205.3981
203.79867
202.26123
200.78491
345.41978
341.70158
338.00777
334.33766
330.69052
327.06574
323.46288
319.88163
316.32185
312.78356
309.26699
305.77249
302.30065
298.85219
295.42804
292.02929
288.65719
285.31318
281.99882
278.7158
275.46596
272.25123
269.07361
265.9352
262.83813
259.78455
256.77662
253.81649
250.90627
248.04799
245.24363
242.49506
239.80402
237.17214
234.60091
232.09165
229.64552
227.26352
224.94645
222.69497
220.50954
218.39044
216.3378
214.35156
212.43152
210.57731
208.78841
207.06412
205.40357
203.80575
202.26956
200.7937
345.16297
341.45381
337.76876
334.10714
330.46825
326.8515
323.25645
319.68282
316.13048
312.59947
309.09
305.60248
302.13748
298.69574
295.27819
291.88594
288.52026
285.18256
281.87442
278.59755
275.35377
272.14502
268.9733
265.84069
262.74934
259.70138
256.69897
253.74425
250.83933
247.98623
245.18691
242.44325
239.75698
237.12972
234.56294
232.05797
229.61595
227.23789
224.92458
222.67668
220.49463
218.37874
216.32911
214.34571
212.42834
210.57663
208.79009
207.06801
205.40951
203.81346
202.27865
200.80349
344.88205
341.18276
337.50726
333.85492
330.22505
326.61707
323.03056
319.46525
315.92103
312.39796
308.89626
305.41636
301.95882
298.52442
295.1141
291.72896
288.37027
285.03947
281.73814
278.46798
275.23083
272.0286
268.86332
265.73706
262.65195
259.61014
256.61377
253.66497
250.76583
247.9184
245.1246
242.38631
239.70525
237.08304
234.52114
232.02086
229.58335
227.2096
224.90041
222.65643
220.47809
218.36571
216.31939
214.3391
212.42464
210.57568
208.79173
207.07212
205.41592
203.82184
202.28853
200.81468
344.57558
340.88702
337.22194
333.5797
329.95964
326.36121
322.78401
319.22776
315.69239
312.17797
308.68474
305.21313
301.76374
298.33734
294.93487
291.55747
288.20641
284.88313
281.58921
278.32637
275.09643
271.90133
268.74306
265.62372
262.54542
259.51031
256.52051
253.57816
250.68535
247.84408
245.05631
242.32387
239.64851
237.0318
234.47522
231.98006
229.54748
227.17844
224.87375
222.63403
220.45976
218.3512
216.3085
214.3316
212.42033
210.57437
208.79325
207.07636
205.42277
203.83091
202.29907
344.24206
340.56515
336.91136
333.28011
329.67072
326.08267
322.51556
318.96917
315.44342
311.93839
308.45437
304.99177
301.55122
298.1335
294.73959
291.3706
288.02783
284.71272
281.42686
278.17197
274.94987
271.7625
268.61187
265.50005
262.42915
259.40131
256.41867
253.48334
250.59739
247.76284
244.98162
242.25556
239.58638
236.97567
234.42487
231.9353
229.50807
227.14416
224.84436
222.60931
220.43945
218.33507
216.2963
214.3231
212.41529
210.57258
208.79455
207.08065
205.43004
203.84066
202.30944
343.87994
340.21561
336.57408
332.95472
329.3569
325.7801
322.22395
318.68823
315.1729
311.67807
308.20401
304.75119
301.32022
297.91193
294.52727
291.1674
287.83362
284.52737
281.25025
278.00397
274.79038
271.61141
268.46905
265.36538
262.30251
259.28257
256.30769
253.37997
250.50147
247.67421
244.90009
242.18095
239.51848
236.91428
234.36977
231.88625
229.46484
227.1065
224.81203
222.58204
220.41698
218.31714
216.28264
214.31345
212.4094
210.57019
208.79547
207.08479
205.43764
343.48761
339.83685
336.20856
332.60208
329.01677
325.45213
321.90783
318.38366
314.87961
311.39579
307.93252
304.49026
301.06967
297.67156
294.29693
290.94692
287.62285
284.32619
281.05852
277.82157
274.61719
271.44729
268.31388
265.21904
262.16486
259.15346
256.18698
253.26749
250.39706
247.57768
244.81126
242.0996
239.44442
236.84726
234.30956
231.83261
229.4175
227.0652
224.77649
222.55199
220.39214
218.29722
216.26735
214.3025
212.4025
210.56706
208.79583
207.08844
343.06335
339.42721
335.81323
332.22065
328.64884
325.09734
321.56582
318.05412
314.56223
311.09031
307.63867
304.20782
300.79842
297.41131
294.0475
290.70814
287.39457
284.10825
280.85078
277.62391
274.42945
271.26936
268.14562
265.0603
262.0155
259.01333
256.05591
253.14532
250.28361
247.47275
244.71464
242.01107
239.36374
236.77421
234.24387
231.77401
229.36572
227.01995
224.73748
222.51892
220.3647
218.2751
216.25024
214.29008
212.39445
210.56304
208.79545
207.09086
346.24754
342.60514
338.98498
335.38646
331.80886
328.2516
324.71425
321.19651
317.69823
314.21945
310.76033
307.32123
303.90267
300.50533
297.13006
293.7779
290.45002
287.14775
283.87257
280.6261
277.41007
274.22633
271.07679
267.96347
264.88841
261.85373
258.86151
255.91386
253.01286
250.16053
247.35885
244.6097
241.91487
239.27601
236.69469
234.17229
231.71008
229.30915
226.97044
224.6947
222.48255
220.33442
218.25057
216.23111
214.27602
212.38509
210.55801
208.79429
207.09288
345.73586
342.11142
338.50848
334.92659
331.36511
327.82349
324.30135
320.79841
317.31457
313.84987
310.40452
306.9789
303.57355
300.18917
296.82665
293.48701
290.17146
286.88135
283.61816
280.38351
277.17915
274.00691
270.86873
267.76661
264.7026
261.67879
258.69727
255.76013
252.86944
250.02722
247.23542
244.49591
241.81047
239.18074
236.60825
234.09441
231.64044
229.24743
226.91631
224.64783
222.44259
220.30102
218.22336
216.20974
214.26011
212.37425
210.55184
208.79234
207.09457
345.18583
341.58046
337.99597
334.43192
330.88773
327.3629
323.85707
320.37002
316.90166
313.45208
310.02151
306.61035
303.21918
299.84871
296.49986
293.17367
289.87136
286.59429
283.34396
280.12201
276.93017
273.77029
270.64431
267.55421
264.50205
261.48991
258.51988
255.59403
252.71441
249.88304
247.10185
244.3727
241.69734
239.07741
236.51442
234.00976
231.56465
229.18016
226.85721
224.59654
222.39873
220.26421
218.19323
216.18589
214.24214
212.36176
210.54439
208.78949
207.09583
344.59545
341.01044
337.44566
333.90071
330.37503
326.86818
323.37983
319.90979
316.45802
313.02463
309.60989
306.21423
302.83823
299.48267
296.14846
292.83668
289.54855
286.28546
283.04892
279.84056
276.66215
273.51551
270.40259
267.32538
264.28593
261.2863
258.32857
255.41481
252.54707
249.72733
246.95751
244.23946
241.57491
238.96549
236.41269
233.91789
231.48228
229.10693
226.79274
224.54045
222.35063
220.22369
218.15989
216.1593
214.22188
212.3474
210.53549
208.7856
207.09651
343.96274
340.39947
336.85574
333.33119
329.8253
326.33767
322.868
319.41615
315.98211
312.56603
309.16821
305.78912
302.42936
299.08974
295.77119
292.47482
289.20186
285.95373
282.73193
279.53812
276.37405
273.24158
270.14264
267.07922
264.05335
261.0671
258.12254
255.22173
252.36669
249.55939
246.80174
244.09557
241.44259
238.84442
236.30253
233.81827
231.39284
229.02729
226.72249
224.47918
222.29793
220.17912
218.12302
216.12969
214.19907
212.33095
210.52494
208.78049
207.09641
343.28573
339.74563
336.22435
332.72155
329.23678
325.76965
322.31992
318.88748
315.47237
312.07477
308.69502
305.3336
301.99119
298.66858
295.36676
292.08683
288.83008
285.59791
282.39186
279.21358
276.06484
272.9475
269.86348
266.81478
263.80343
260.83148
257.90098
255.01399
252.17251
249.3785
246.63385
243.94037
241.29976
238.71361
236.18338
233.7104
231.29585
228.94077
226.64602
224.41233
222.24023
220.13014
218.08228
216.09674
214.17343
212.31215
210.51251
208.77396
207.09532
342.56242
339.04699
335.54961
332.06999
328.60769
325.16241
321.73392
318.32216
314.92722
311.54931
308.18881
304.84624
301.52231
298.21784
294.93384
291.67146
288.43197
285.21682
282.02756
278.86584
275.73345
272.63223
269.56413
266.53113
263.53525
260.57853
257.66304
254.79078
251.96377
249.18393
246.45315
243.7732
241.14578
238.57245
236.05466
233.59371
231.19078
228.84688
226.56286
224.33943
222.17714
220.07636
218.03733
216.06012
214.14465
212.29071
210.49792
208.76574
207.09301
341.79082
338.30163
334.82965
331.37466
327.93628
324.51421
321.10831
317.71856
314.34507
310.98811
307.64809
304.32558
301.0213
297.73614
294.47111
291.22739
288.0063
284.80926
281.63786
278.49378
275.37878
272.29474
269.24357
266.22728
263.24787
260.30738
257.40784
254.55128
251.73966
248.97491
246.25889
243.59336
240.97998
238.4203
235.91576
233.46764
231.07708
228.7451
226.47252
224.26005
222.10821
220.01738
217.98778
216.01948
214.1124
212.26633
210.4809
208.75558
207.08921
340.96896
337.50761
334.0626
330.63375
327.22074
323.82333
320.44142
317.07503
313.72432
310.38961
307.07134
303.77014
300.48676
297.22211
293.97724
290.75335
287.55179
284.37401
281.2216
278.09625
274.99974
271.93395
268.90079
265.90225
262.94035
260.0171
257.13453
254.29464
251.49938
248.75067
246.05034
243.40012
240.80168
238.25652
235.76606
233.33158
230.95419
228.63488
226.37449
224.17368
222.03297
219.95275
217.93321
215.97442
214.07631
212.23866
210.46112
208.74315
207.08363
340.09488
336.66304
333.2466
329.84545
326.45934
323.08806
319.73157
316.38995
313.06339
309.75227
306.45709
303.17848
299.91726
296.67436
293.45088
290.24804
287.06721
283.90986
280.7776
277.67213
274.59524
271.5488
268.53475
265.55505
262.61172
259.70677
256.8422
254.02
251.24211
248.51042
245.82673
243.19278
240.61017
238.08043
235.60493
233.18492
230.82152
228.51568
226.26823
224.07982
221.95096
219.88201
217.87318
215.92454
214.036
212.20734
210.43823
208.72814
207.07595
339.16669
335.76605
332.37983
329.008
325.65033
322.30671
318.97713
315.66171
312.36073
309.07459
305.80383
302.54916
299.3114
296.09155
292.89072
289.71018
286.5513
283.4156
280.30468
277.22027
274.16417
271.13825
268.14443
265.1847
262.26105
259.37547
256.52997
253.72651
250.96702
248.25335
245.5873
242.97057
240.40476
237.89135
235.4317
233.02704
230.67846
228.38691
226.15319
223.97794
221.86166
219.8047
217.80726
215.8694
213.99104
212.17197
210.41185
208.71017
207.06582
338.18256
334.81486
331.46055
328.11967
324.79205
321.47764
318.17648
314.88877
311.61481
308.35507
305.11014
301.88077
298.66783
295.47235
292.29548
289.13851
286.00286
282.89005
279.80171
276.73958
273.70546
270.70124
267.72883
264.79022
261.88737
259.0223
256.19696
253.41332
250.67328
247.97868
245.33129
242.73278
240.18472
237.68859
235.24571
232.85729
230.52441
228.24799
226.0288
223.86749
221.76454
219.7203
217.73494
215.80854
213.941
212.13214
210.38159
208.68888
207.05288
337.14073
333.80776
330.48709
327.17883
323.8829
320.59929
317.32812
314.06962
310.82418
307.5923
304.37463
301.17196
297.98522
294.81547
291.6639
288.53183
285.4207
282.33207
279.26758
276.22898
273.21808
270.23677
267.28697
264.37065
261.48979
258.64635
255.84231
253.0796
250.3601
247.68563
245.05793
242.47866
239.94936
237.47147
235.0463
232.67504
230.35874
228.0983
225.8945
223.74793
221.65909
219.6283
217.65575
215.74148
213.88543
212.08739
210.34702
208.66384
207.03674
336.0396
332.74316
329.45788
326.18397
322.92139
319.67021
316.4306
313.20288
309.98747
306.78494
303.59599
300.42147
297.26234
294.11971
290.99481
287.88899
284.80373
281.74059
278.70124
275.68745
272.70104
269.74388
266.81792
263.92511
261.06741
258.24679
255.4652
252.72455
250.0267
247.37344
244.7665
242.2075
239.69797
237.23931
234.83282
232.47966
230.18085
227.93728
225.74969
223.6187
221.54475
219.52818
217.56916
215.66775
213.82386
212.03728
210.3077
208.63463
207.01698
334.87771
331.61962
328.37153
325.13368
321.90614
318.68904
315.48262
312.28725
309.10342
305.93176
302.77303
299.62812
296.49805
293.38396
290.28713
287.20894
284.1509
281.1146
278.10172
275.11405
272.1534
269.22168
266.32081
263.45273
260.61942
257.82281
255.06484
252.3474
249.67233
247.0414
244.4563
241.91863
239.4299
236.99148
234.60465
232.27053
229.99013
227.76432
225.59382
223.47923
221.42099
219.41942
217.47469
215.58684
213.75579
211.98134
210.26318
208.60082
206.99318
333.65382
330.43593
327.22679
324.02677
320.83598
317.65463
314.48302
311.3216
308.17093
305.03168
301.90468
298.79087
295.69132
292.60723
289.53989
286.49074
283.46131
280.45321
277.46815
274.50792
271.57436
268.66937
265.79486
262.95277
260.14507
257.37369
254.64053
251.94747
249.29632
246.68883
244.12667
241.61141
239.14453
236.72737
234.36117
232.04706
229.78601
227.57886
225.42633
223.329
221.28728
219.3015
217.37181
215.49825
213.68075
211.91911
210.213
208.56196
206.9649
332.3669
329.19106
326.0227
322.86226
319.70993
316.56601
313.43087
310.30502
307.18908
304.08381
300.99007
297.90887
294.84133
291.78869
288.75229
285.7336
282.73418
279.75567
276.7998
273.86837
270.96322
268.08625
265.23939
262.42458
259.64374
256.8988
254.19165
251.52415
248.89808
246.31517
243.77706
241.28528
238.84129
236.44641
234.10186
231.80872
229.56796
227.38039
225.24671
223.16748
221.14312
219.17391
217.26003
215.40151
213.59827
211.85011
210.1567
208.51759
206.9317
331.01629
327.88433
324.75854
321.63943
318.5273
315.42249
312.32547
309.23681
306.1572
303.08746
300.02853
296.98147
293.94744
290.92772
287.92372
284.93693
281.96894
279.02142
276.09611
273.19483
270.31943
267.47182
264.65391
261.86763
259.11491
256.39765
253.71772
251.07697
248.47714
245.91994
243.40697
240.93976
238.51972
236.14815
233.82624
231.55505
229.33551
227.16843
225.05448
222.99421
220.98802
219.0362
217.1389
215.29616
213.50789
211.77389
210.09385
208.46729
206.89316
329.60166
326.51541
323.43396
320.35794
317.2877
314.22369
311.16643
308.11658
305.0749
302.04227
299.0197
296.00829
293.00926
290.02396
287.05382
284.10037
281.16523
278.2501
275.35674
272.48697
269.64267
266.82573
264.03806
261.2816
258.55825
255.8699
253.21841
250.60557
248.03314
245.50278
243.01607
240.5745
238.17945
235.83221
233.53393
231.28565
229.08827
226.94259
224.84925
222.80878
220.82159
218.88795
217.00799
215.18177
213.40918
211.69004
210.02402
208.41065
206.84887
328.12314
325.0844
322.04905
319.01783
315.99119
312.96963
309.95377
306.94433
303.94216
300.94821
297.96352
294.98928
292.02677
289.07736
286.14253
283.22386
280.32299
277.44164
274.58161
271.74472
268.93284
266.14789
263.39176
260.66638
257.97365
255.31543
252.69356
250.10982
247.56593
245.06352
242.60415
240.18928
237.82027
235.49836
233.22468
231.00025
228.82596
226.70256
224.63069
222.61087
220.64348
218.72879
216.86694
215.05797
213.30178
211.59818
209.94685
208.3473
206.79846
326.58145
323.59194
320.60441
317.61967
314.63827
311.66079
308.68794
305.7205
302.7594
299.80565
296.86038
293.92481
291.00028
288.08822
285.19016
282.30768
279.44249
276.59631
273.77097
270.96829
268.19016
265.43849
262.71518
260.02214
257.36124
254.73435
252.14328
249.58978
247.07555
244.60218
242.17122
239.78409
237.44211
235.14652
232.8984
230.69874
228.54842
226.44817
224.39861
222.40024
220.45344
218.55846
216.71545
214.92445
213.18535
211.49799
209.86202
208.27695
206.74163
324.97791
322.03932
319.10125
316.16463
313.23007
310.29826
307.36996
304.44607
301.52756
298.61553
295.71115
292.81572
289.93063
287.05736
284.19746
281.35258
278.52443
275.71479
272.92546
270.15831
267.41522
264.6981
262.00885
259.34935
256.72149
254.12709
251.56796
249.04581
246.56231
244.11905
241.71752
239.35912
237.04516
234.77681
232.55516
230.38117
228.25568
226.17941
224.15296
222.17682
220.25135
218.37681
216.55335
214.78099
213.05967
211.3892
209.76928
208.19934
206.67812
323.31466
320.42858
317.54155
314.65459
311.7684
308.88377
306.00154
303.12267
300.24822
297.37935
294.5173
291.66344
288.81919
285.98608
283.16573
280.3598
277.57003
274.79822
272.0462
269.31584
266.60904
263.92768
261.27368
258.6489
256.05522
253.49443
250.96832
248.47858
246.02685
243.6147
241.24358
238.91486
236.62982
234.38962
232.19531
230.04781
227.94796
225.89645
223.89386
221.94068
220.03725
218.18383
216.38056
214.62748
212.92455
211.27162
209.66837
208.1142
321.59478
318.76267
315.92814
313.09229
310.25593
307.4199
304.58516
301.75272
298.92372
296.09939
293.28104
290.47009
287.66802
284.8764
282.09689
279.33119
276.58107
273.84834
271.13486
268.4425
265.77315
263.12872
260.5111
257.92214
255.3637
252.83758
250.34551
247.88917
245.47018
243.09007
240.75026
238.45211
236.19685
233.98561
231.81943
229.6992
227.62573
225.59969
223.62167
221.6921
219.81135
217.97966
216.19717
214.46394
212.77994
211.14503
209.55886
319.82242
317.04563
314.26493
311.48153
308.6963
305.9102
303.12424
300.33953
297.55727
294.77877
292.00539
289.23861
286.47997
283.73108
280.99362
278.26935
275.56006
272.86757
270.19376
267.54051
264.90972
262.30328
259.72308
257.17096
254.64876
252.15825
249.70115
247.27912
244.89374
242.54652
240.23884
237.97204
235.74733
233.5658
231.42845
229.33618
227.28975
225.28984
223.33698
221.43163
219.57411
217.76468
216.00348
214.29055
212.62586
211.00925
318.00305
315.28274
312.55705
309.82725
307.09434
304.35933
301.62333
298.88751
296.15317
293.42164
290.69439
287.97292
285.25882
282.55377
279.85948
277.17773
274.51033
271.85913
269.22602
266.61288
264.02162
261.45412
258.91226
256.39789
253.91279
251.45875
249.03744
246.65051
244.2995
241.9859
239.71107
237.4763
235.28278
233.13159
231.0237
228.95996
226.94114
224.96788
223.04072
221.16007
219.32627
217.53955
215.80003
214.10775
212.46258
210.86388
316.14366
313.48078
310.81106
308.13585
305.45623
302.77331
300.08826
297.40234
294.7169
292.03335
289.35321
286.67804
284.00947
281.34923
278.69905
276.06075
273.43616
270.82715
268.23561
265.66345
263.11255
260.5848
258.08207
255.60619
253.15893
250.74205
248.35721
246.00602
243.69001
241.41063
239.16921
236.96703
234.80523
232.68488
230.60692
228.57218
226.58141
224.63523
222.73415
220.8786
219.06889
217.30522
215.58773
213.91641
212.29112
210.71113
314.253
311.64826
309.03522
306.41534
303.78978
301.15971
298.52639
295.89115
293.25541
290.62063
287.98839
285.3603
282.73806
280.12339
277.51808
274.92398
272.34293
269.77683
267.22757
264.69704
262.18716
259.69979
257.23679
254.79997
252.39111
250.01192
247.66405
245.34908
243.06852
240.82377
238.61618
236.44696
234.31725
232.22808
230.18038
228.17495
226.21252
224.2937
222.41898
220.58878
218.8034
217.06304
215.36781
213.71771
212.11259
210.55175
312.3419
309.79568
307.23976
304.67566
302.10462
299.5279
296.94682
294.36279
291.77727
289.19181
286.60802
284.02756
281.45216
278.88361
276.32371
273.77431
271.23731
268.71459
266.20807
263.71964
261.25119
258.8046
256.38171
253.98432
251.61418
249.27298
246.96237
244.68388
242.43901
240.22914
238.05556
235.9195
233.82205
231.76421
229.7469
227.77091
225.83695
223.94559
222.09734
220.2926
218.53164
216.81469
215.14183
213.51309
211.92829
210.38679
310.42358
307.9359
305.43714
302.92892
300.41253
297.88932
295.36067
292.82804
290.29297
287.75705
285.22194
282.68936
280.16106
277.63885
275.12458
272.62013
270.12738
267.64825
265.18464
262.73847
260.31161
257.90592
255.52325
253.16537
250.83402
248.53088
246.25755
244.01556
241.80636
239.63134
237.49175
235.38878
233.32353
231.29696
229.30997
227.36334
225.45774
223.59377
221.7719
219.99252
218.25592
216.5623
214.91177
213.30433
211.73986
210.21769
308.51399
306.08442
303.64245
301.18977
298.72775
296.25779
293.78135
291.29993
288.81514
286.32861
283.84205
281.3572
278.87587
276.39989
273.93113
271.47148
269.02286
266.58716
264.16632
261.76222
259.37676
257.01178
254.66911
252.35051
250.0577
247.79234
245.55601
243.35022
241.1764
239.03591
236.92999
234.85979
232.8264
230.83076
228.87375
226.95614
225.07859
223.24167
221.44587
219.69155
217.97901
216.30845
214.67999
213.09364
211.54929
210.04628
306.63223
304.25979
301.87372
299.47574
297.0673
294.64985
292.2249
289.79403
287.35887
284.92112
282.4825
280.04481
277.60988
275.17956
272.75575
270.34034
267.93527
265.54244
263.16378
260.80119
258.45653
256.13165
253.82837
251.54843
249.29353
247.06531
244.86534
242.69511
240.55602
238.4494
236.37648
234.3384
232.33622
230.37087
228.44321
226.55399
224.70387
222.89341
221.12308
219.39326
217.70424
216.05622
214.44933
212.88361
211.35895
209.87472
304.80097
302.48407
300.15236
297.80762
295.45135
293.08507
290.71033
288.32875
285.94202
283.55186
281.16004
278.76838
276.37873
273.99297
271.61302
269.24078
266.87819
264.52716
262.18961
259.86744
257.56251
255.27667
253.01169
250.76933
248.55127
246.35912
244.19443
242.05867
239.95324
237.87944
235.83848
233.83149
231.85949
229.92342
228.02412
226.16233
224.33869
222.55378
220.80804
219.10185
217.43551
215.80922
214.22313
212.67727
211.17156
303.04696
300.78322
298.50359