/*--------------------------------*- C++ -*----------------------------------*\
| =========                 |                                                 |
| \\      /  F ield         | OpenFOAM: The Open Source CFD Toolbox           |
|  \\    /   O peration     | Version:  2312                                  |
|   \\  /    A nd           | Website:  www.openfoam.com                      |
|    \\/     M anipulation  |                                                 |
\*---------------------------------------------------------------------------*/
FoamFile
{
    version     2.0;
    format      ascii;
    arch        "LSB;label=32;scalar=64";
    class       surfaceScalarField;
    location    "0.05";
    object      phi;
}
// * * * * * * * * * * * * * * * * * * * * * * * * * * * * * * * * * * * * * //

dimensions      [1 0 -1 0 0 0 0];

oriented        oriented;

internalField   nonuniform List<scalar> 
6378
(
7.2684713e-08
1.4780196e-09
7.0998374e-08
1.4597958e-09
6.9324706e-08
1.4414287e-09
6.7663815e-08
1.4229432e-09
6.6015782e-08
1.4043005e-09
6.4380661e-08
1.3855337e-09
6.2758484e-08
1.3666665e-09
6.1149266e-08
1.3477231e-09
5.9553001e-08
1.3287276e-09
5.7969665e-08
1.3097039e-09
5.6399222e-08
1.2906764e-09
5.4841616e-08
1.271669e-09
5.3296782e-08
1.2527056e-09
5.1764638e-08
1.2338095e-09
5.0245095e-08
1.2150038e-09
4.8738054e-08
1.1963109e-09
4.7243406e-08
1.1777525e-09
4.5761037e-08
1.1593494e-09
4.429083e-08
1.141122e-09
4.2832661e-08
1.1230893e-09
4.1386407e-08
1.1052697e-09
3.9951943e-08
1.0876804e-09
3.8529147e-08
1.0703376e-09
3.7117897e-08
1.0532561e-09
3.5718077e-08
1.0364501e-09
3.4329576e-08
1.019932e-09
3.2952289e-08
1.0037136e-09
3.1586119e-08
9.8780491e-10
3.0230978e-08
9.7221515e-10
2.8886788e-08
9.5695208e-10
2.7553479e-08
9.4202241e-10
2.6230996e-08
9.2743153e-10
2.4919294e-08
9.1318378e-10
2.361834e-08
8.9928228e-10
2.2328115e-08
8.8572919e-10
2.104861e-08
8.7252547e-10
1.9779833e-08
8.5967127e-10
1.8521801e-08
8.4716569e-10
1.7274546e-08
8.3500711e-10
1.6038111e-08
8.2319302e-10
1.4812552e-08
8.1172041e-10
1.3597934e-08
8.0058556e-10
1.2394335e-08
7.8978454e-10
1.1201843e-08
7.7931392e-10
1.0020551e-08
7.6916519e-10
8.8505645e-09
7.5933699e-10
7.6919954e-09
7.4982269e-10
6.5449611e-09
7.406147e-10
5.4095857e-09
7.3170281e-10
4.2859996e-09
7.2307876e-10
3.1743416e-09
7.1473183e-10
2.0747641e-09
7.0664661e-10
9.8745977e-10
6.9887072e-10
-8.7406789e-11
6.9139741e-10
-1.1497066e-09
6.8420526e-10
-2.1993135e-09
6.7727152e-10
-3.2360992e-09
6.7057462e-10
6.6408937e-10
7.268227e-08
2.7323253e-09
7.0996112e-08
2.6944216e-09
6.9322638e-08
2.6563058e-09
6.7661946e-08
2.6180128e-09
6.6014108e-08
2.5795378e-09
6.4379178e-08
2.540942e-09
6.275719e-08
2.5022792e-09
6.1148156e-08
2.4636031e-09
5.9552072e-08
2.4249668e-09
5.7968915e-08
2.3864232e-09
5.6398647e-08
2.3480245e-09
5.4841215e-08
2.3098221e-09
5.3296551e-08
2.2718667e-09
5.1764577e-08
2.2342075e-09
5.0245202e-08
2.1968924e-09
4.8738326e-08
2.1599679e-09
4.7243843e-08
2.1234785e-09
4.5761639e-08
2.0874668e-09
4.4291594e-08
2.0519735e-09
4.2833588e-08
2.0170368e-09
4.1387496e-08
1.9826927e-09
3.9953195e-08
1.9489747e-09
3.853056e-08
1.9159137e-09
3.7119472e-08
1.8835378e-09
3.5719815e-08
1.8518724e-09
3.4331477e-08
1.8209403e-09
3.2954353e-08
1.7907612e-09
3.1588347e-08
1.7613519e-09
3.023337e-08
1.7327267e-09
2.8889345e-08
1.7048967e-09
2.7556202e-08
1.6778705e-09
2.6233886e-08
1.6516536e-09
2.4922351e-08
1.6262491e-09
2.3621565e-08
1.6016576e-09
2.2331508e-08
1.5778771e-09
2.1052173e-08
1.5549033e-09
1.9783566e-08
1.5327296e-09
1.8525705e-08
1.5113474e-09
1.7278622e-08
1.4907465e-09
1.6042359e-08
1.4709146e-09
1.4816972e-08
1.4518381e-09
1.3602527e-08
1.4335021e-09
1.23991e-08
1.4158906e-09
1.1206781e-08
1.3989875e-09
1.0025663e-08
1.3827725e-09
8.8558506e-09
1.3672298e-09
7.6974567e-09
1.3523395e-09
6.5505992e-09
1.3380807e-09
5.4154029e-09
1.3244294e-09
4.291999e-09
1.3113634e-09
3.1805264e-09
1.2988577e-09
2.0811351e-09
1.2868866e-09
9.9400535e-10
1.2754731e-09
-8.0701569e-11
1.2645994e-09
-1.1428509e-09
1.2542353e-09
-2.1923139e-09
1.2443457e-09
-3.2289613e-09
1.2348949e-09
1.2258434e-09
7.2676583e-08
3.9863164e-09
7.0990837e-08
3.9287456e-09
6.9317775e-08
3.8708857e-09
6.7657492e-08
3.8127928e-09
6.6010059e-08
3.7544966e-09
6.4375527e-08
3.6960843e-09
6.2753929e-08
3.6376383e-09
6.1145279e-08
3.5792418e-09
5.9549574e-08
3.5209767e-09
5.796679e-08
3.4629247e-09
5.639689e-08
3.4051659e-09
5.4839821e-08
3.3477793e-09
5.3295517e-08
3.2908422e-09
5.1763899e-08
3.2344296e-09
5.0244877e-08
3.1786146e-09
4.8738353e-08
3.1234675e-09
4.7244219e-08
3.0690556e-09
4.5762362e-08
3.0154435e-09
4.4292665e-08
2.962692e-09
4.2835004e-08
2.9108586e-09
4.1389258e-08
2.859997e-09
3.9955302e-08
2.8101569e-09
3.8533014e-08
2.7613839e-09
3.7122273e-08
2.7137193e-09
3.5722963e-08
2.6672001e-09
3.4334973e-08
2.6218589e-09
3.29582e-08
2.5777239e-09
3.1592546e-08
2.5348185e-09
3.0237923e-08
2.493162e-09
2.8894252e-08
2.4527689e-09
2.7561467e-08
2.4136495e-09
2.623951e-08
2.3758099e-09
2.4928336e-08
2.3392517e-09
2.3627914e-08
2.3039729e-09
2.2338222e-08
2.2699675e-09
2.1059255e-08
2.2372256e-09
1.9791017e-08
2.2057344e-09
1.8533527e-08
2.1754775e-09
1.7286816e-08
2.1464358e-09
1.6050927e-08
2.1185874e-09
1.4825915e-08
2.0919082e-09
1.3611847e-08
2.066372e-09
1.2408798e-08
2.0419509e-09
1.1216857e-08
2.0186161e-09
1.0036118e-08
1.996335e-09
8.8666862e-09
1.9750779e-09
7.7086739e-09
1.9548116e-09
6.5621997e-09
1.9355015e-09
5.4273888e-09
1.9171102e-09
4.3043726e-09
1.8996015e-09
3.1932899e-09
1.8829363e-09
2.0942888e-09
1.8670778e-09
1.0075389e-09
1.8520249e-09
-6.6802549e-11
1.837748e-09
-1.1285972e-09
1.8242078e-09
-2.1777131e-09
1.811357e-09
-3.2140182e-09
1.7991468e-09
1.7875228e-09
7.2667632e-08
5.2397894e-09
7.0982527e-08
5.1625726e-09
6.9310096e-08
5.0849846e-09
6.7650437e-08
5.0071086e-09
6.6003617e-08
4.9290089e-09
6.4369688e-08
4.8507986e-09
6.2748684e-08
4.7725878e-09
6.1140619e-08
4.6944888e-09
5.9545488e-08
4.6166125e-09
5.7963272e-08
4.539069e-09
5.6393933e-08
4.4619664e-09
5.4837418e-08
4.3854113e-09
5.3293663e-08
4.3095074e-09
5.1762588e-08
4.2343558e-09
5.0244106e-08
4.1600545e-09
4.8738118e-08
4.0866978e-09
4.7244518e-08
4.0143759e-09
4.5763193e-08
3.943175e-09
4.4294025e-08
3.8731764e-09
4.2836894e-08
3.8044569e-09
4.1391677e-08
3.7370877e-09
3.9958251e-08
3.6711348e-09
3.8536493e-08
3.6066585e-09
3.7126283e-08
3.5437134e-09
3.5727507e-08
3.482348e-09
3.4340052e-08
3.422605e-09
3.2963816e-08
3.3645206e-09
3.1598702e-08
3.3081253e-09
3.0244622e-08
3.253443e-09
2.8901498e-08
3.200492e-09
2.7569262e-08
3.1492843e-09
2.6247857e-08
3.0998262e-09
2.4937239e-08
3.0521183e-09
2.3637376e-08
3.0061557e-09
2.2348247e-08
2.9619284e-09
2.1069845e-08
2.9194214e-09
1.9802175e-08
2.8786151e-09
1.8545257e-08
2.8394855e-09
1.729912e-08
2.8020048e-09
1.6063807e-08
2.7661415e-09
1.4839374e-08
2.7318608e-09
1.3625886e-08
2.6991254e-09
1.242342e-08
2.6678954e-09
1.1232063e-08
2.6381293e-09
1.0051909e-08
2.6097822e-09
8.8830646e-09
2.5828106e-09
7.7256406e-09
2.5571677e-09
6.5797565e-09
2.5328054e-09
5.4455373e-09
2.5096728e-09
4.3231148e-09
2.4877196e-09
3.2126268e-09
2.4668932e-09
2.1142196e-09
2.4471439e-09
1.028054e-09
2.428449e-09
-4.5716833e-11
2.4107663e-09
-1.1069528e-09
2.3940458e-09
-2.1555185e-09
2.378228e-09
-3.1912752e-09
2.363247e-09
7.2655339e-08
6.4925404e-09
7.0971102e-08
6.3957123e-09
6.9299525e-08
6.2984182e-09
6.7640703e-08
6.2007841e-09
6.5994707e-08
6.1029058e-09
6.4361588e-08
6.004922e-09
6.2741381e-08
5.9069707e-09
6.1134101e-08
5.809193e-09
5.9539744e-08
5.7117286e-09
5.795829e-08
5.6147158e-09
5.6389705e-08
5.5182909e-09
5.4833935e-08
5.4225877e-09
5.3290918e-08
5.3277367e-09
5.1760575e-08
5.2338649e-09
5.0242819e-08
5.1410952e-09
4.8737553e-08
5.0495459e-09
4.7244672e-08
4.9593301e-09
4.5764063e-08
4.8705558e-09
4.429561e-08
4.7833247e-09
4.2839193e-08
4.6977326e-09
4.1394689e-08
4.6138687e-09
3.9961977e-08
4.531815e-09
3.8540934e-08
4.4516468e-09
3.7131442e-08
4.3734318e-09
3.5733385e-08
4.2972301e-09
3.4346654e-08
4.2230943e-09
3.2971144e-08
4.1510692e-09
3.1606759e-08
4.0811916e-09
3.0253412e-08
4.0134908e-09
2.8911025e-08
3.9479885e-09
2.7579531e-08
3.8846984e-09
2.6258873e-08
3.8236272e-09
2.4949006e-08
3.7647743e-09
2.3649898e-08
3.7081323e-09
2.2361528e-08
3.653687e-09
2.1083891e-08
3.6014182e-09
1.9816989e-08
3.5512997e-09
1.8560843e-08
3.5032999e-09
1.7315482e-08
3.4573823e-09
1.6080949e-08
3.4135057e-09
1.4857299e-08
3.371625e-09
1.3644596e-08
3.3316914e-09
1.2442918e-08
3.293653e-09
1.125235e-08
3.2574561e-09
1.0072988e-08
3.2230428e-09
8.9049368e-09
3.190356e-09
7.7483079e-09
3.1593355e-09
6.6032204e-09
3.1299196e-09
5.4697993e-09
3.1020438e-09
4.348176e-09
3.0756438e-09
3.2384873e-09
3.0506531e-09
2.1408772e-09
3.027009e-09
1.0554996e-09
3.0046688e-09
-1.7496524e-11
2.9835771e-09
-1.0779709e-09
2.9636723e-09
-2.1257858e-09
2.9448826e-09
2.9271267e-09
6.4318705e-08
7.6009968e-09
6.282834e-08
7.4868348e-09
6.1349165e-08
7.3721247e-09
5.9881268e-08
7.2570233e-09
5.8424711e-08
7.1416597e-09
5.6979541e-08
7.0261936e-09
5.554579e-08
6.910789e-09
5.4123472e-08
6.7956118e-09
5.2712585e-08
6.6808272e-09
5.1313113e-08
6.5665986e-09
4.9925024e-08
6.4530871e-09
4.8548275e-08
6.3404507e-09
4.718281e-08
6.2288435e-09
4.5828561e-08
6.1184155e-09
4.4485452e-08
6.0093116e-09
4.3153397e-08
5.9016714e-09
4.1832304e-08
5.7956283e-09
4.0522076e-08
5.6913094e-09
3.922261e-08
5.5888348e-09
3.79338e-08
5.4883171e-09
3.6655539e-08
5.3898612e-09
3.5387719e-08
5.2935636e-09
3.4130233e-08
5.1995127e-09
3.2882977e-08
5.1077877e-09
3.1645849e-08
5.0184593e-09
3.0418752e-08
4.9315888e-09
2.9201594e-08
4.8472284e-09
2.7994291e-08
4.7654209e-09
2.6796766e-08
4.6862002e-09
2.560895e-08
4.6095908e-09
2.4430784e-08
4.5356083e-09
2.3262216e-08
4.4642598e-09
2.2103209e-08
4.3955434e-09
2.0953733e-08
4.3294495e-09
1.981377e-08
4.2659605e-09
1.8683314e-08
4.2050514e-09
1.7562369e-08
4.1466903e-09
1.6450952e-08
4.0908389e-09
1.5349088e-08
4.0374528e-09
1.4256815e-08
3.9864825e-09
1.317418e-08
3.9378735e-09
1.2101243e-08
3.8915672e-09
1.1038069e-08
3.847501e-09
9.9847356e-09
3.80561e-09
8.941326e-09
3.7658252e-09
7.9079325e-09
3.7280774e-09
6.8846542e-09
3.6922944e-09
5.8715961e-09
3.6584023e-09
4.8688687e-09
3.6263248e-09
3.8765876e-09
3.595985e-09
2.8948729e-09
3.5673044e-09
1.92385e-09
3.5402079e-09
9.6365038e-10
3.5146366e-09
1.4402556e-11
3.4905234e-09
-9.2377e-10
3.4677961e-09
-1.8507451e-09
3.4463728e-09
3.4261618e-09
6.6083742e-08
8.739206e-09
6.4553223e-08
8.6072694e-09
6.3034181e-08
8.4746965e-09
6.1526708e-08
8.3416781e-09
6.0030869e-08
8.2083769e-09
5.8546716e-08
8.0749755e-09
5.7074282e-08
7.9416641e-09
5.5613581e-08
7.8086346e-09
5.4164615e-08
7.6760781e-09
5.2727367e-08
7.5441839e-09
5.1301806e-08
7.4131384e-09
4.9887889e-08
7.2831244e-09
4.848556e-08
7.1543206e-09
4.7094751e-08
7.0269002e-09
4.5715383e-08
6.9010309e-09
4.4347372e-08
6.7768743e-09
4.2990622e-08
6.6545846e-09
4.1645036e-08
6.5343086e-09
4.0310508e-08
6.4161851e-09
3.8986931e-08
6.3003441e-09
3.7674196e-08
6.1869068e-09
3.6372192e-08
6.0759846e-09
3.5080811e-08
5.9676791e-09
3.3799946e-08
5.862082e-09
3.2529493e-08
5.7592742e-09
3.1269353e-08
5.6593262e-09
3.0019433e-08
5.562298e-09
2.8779646e-08
5.4682386e-09
2.7549913e-08
5.3771864e-09
2.6330164e-08
5.2891692e-09
2.5120337e-08
5.2042044e-09
2.3920382e-08
5.1222992e-09
2.2730257e-08
5.0434511e-09
2.1549934e-08
4.9676479e-09
2.0379393e-08
4.8948683e-09
1.9218628e-08
4.8250828e-09
1.8067644e-08
4.7582535e-09
1.6926455e-08
4.6943352e-09
1.5795089e-08
4.6332757e-09
1.4673584e-08
4.5750167e-09
1.3561989e-08
4.5194943e-09
1.2460363e-08
4.4666394e-09
1.1368773e-08
4.4163789e-09
1.0287298e-08
4.3686364e-09
9.2160239e-09
4.3233311e-09
8.1550444e-09
4.2803815e-09
7.1044609e-09
4.2397031e-09
6.0643809e-09
4.2012095e-09
5.0349174e-09
4.1648122e-09
4.0161883e-09
4.1304214e-09
3.0083157e-09
4.0979461e-09
2.0114262e-09
4.0672983e-09
1.0256508e-09
4.0384037e-09
5.1118423e-11
4.0111828e-09
-9.1204508e-10
3.985552e-09
-1.8637123e-09
3.9614185e-09
3.938681e-09
6.7895551e-08
9.9077858e-09
6.6324006e-08
9.7576289e-09
6.4764227e-08
9.6067426e-09
6.321631e-08
9.4553533e-09
6.1680326e-08
9.3036571e-09
6.015633e-08
9.1518616e-09
5.8644357e-08
9.0001841e-09
5.7144424e-08
8.848843e-09
5.5656534e-08
8.6980562e-09
5.4180671e-08
8.5480395e-09
5.2716807e-08
8.3990054e-09
5.1264897e-08
8.2511623e-09
4.9824886e-08
8.1047136e-09
4.8396704e-08
7.9598568e-09
4.6980276e-08
7.8167832e-09
4.5575512e-08
7.6756765e-09
4.4182319e-08
7.5367126e-09
4.2800595e-08
7.4000586e-09
4.1430235e-08
7.2658725e-09
4.0071129e-08
7.1343023e-09
3.8723167e-08
7.0054857e-09
3.7386237e-08
6.8795495e-09
3.6060227e-08
6.7566093e-09
3.4745029e-08
6.6367691e-09
3.3440536e-08
6.5201208e-09
3.2146649e-08
6.4067445e-09
3.0863271e-08
6.2967078e-09
2.9590313e-08
6.1900662e-09
2.8327696e-08
6.086863e-09
2.7075347e-08
5.9871294e-09
2.5833204e-08
5.8908845e-09
2.4601213e-08
5.7981361e-09
2.3379334e-08
5.7088805e-09
2.2167536e-08
5.6231032e-09
2.0965799e-08
5.5407795e-09
1.9774117e-08
5.4618748e-09
1.8592493e-08
5.3863453e-09
1.7420942e-08
5.3141388e-09
1.6259493e-08
5.245195e-09
1.5108184e-08
5.1794467e-09
1.3967064e-08
5.1168202e-09
1.2836193e-08
5.0572361e-09
1.171564e-08
5.00061e-09
1.0605485e-08
4.9468539e-09
9.5058144e-09
4.8958748e-09
8.4167253e-09
4.8475787e-09
7.3383208e-09
4.8018683e-09
6.2707104e-09
4.7586444e-09
5.2140094e-09
4.7178059e-09
4.1683376e-09
4.6792498e-09
3.1338191e-09
4.6428723e-09
2.1105811e-09
4.6085719e-09
1.0987544e-09
4.5762592e-09
9.8468441e-11
4.5458419e-09
-8.9014819e-10
4.5172238e-09
-1.8669592e-09
4.490296e-09
6.9754691e-08
1.1107348e-08
6.8141252e-08
1.0938521e-08
6.6539868e-08
1.0768867e-08
6.4950643e-08
1.0598649e-08
6.3373654e-08
1.0428096e-08
6.1808957e-08
1.0257443e-08
6.0256592e-08
1.0086934e-08
5.871658e-08
9.9168164e-09
5.7188923e-08
9.7473349e-09
5.567361e-08
9.5787325e-09
5.4170611e-08
9.4112484e-09
5.2679884e-08
9.2451174e-09
5.1201374e-08
9.0805685e-09
4.9735011e-08
8.9178241e-09
4.8280719e-08
8.7570994e-09
4.6838409e-08
8.5986013e-09
4.5407986e-08
8.4425277e-09
4.3989348e-08
8.2890668e-09
4.2582388e-08
8.1383962e-09
4.1186995e-08
7.9906825e-09
3.9803056e-08
7.8460806e-09
3.8430457e-08
7.704733e-09
3.7069087e-08
7.5667696e-09
3.5718834e-08
7.4323072e-09
3.437959e-08
7.3014492e-09
3.3051252e-08
7.1742853e-09
3.1733724e-08
7.0508913e-09
3.0426914e-08
6.9313294e-09
2.913074e-08
6.8156479e-09
2.7845129e-08
6.7038814e-09
2.6570017e-08
6.5960512e-09
2.5305349e-08
6.4921654e-09
2.4051082e-08
6.3922194e-09
2.2807186e-08
6.2961965e-09
2.157364e-08
6.2040681e-09
2.0350436e-08
6.1157949e-09
1.9137578e-08
6.0313269e-09
1.7935081e-08
5.9506046e-09
1.6742973e-08
5.8735598e-09
1.5561293e-08
5.800116e-09
1.439009e-08
5.7301895e-09
1.3229424e-08
5.6636903e-09
1.2079367e-08
5.6005223e-09
1.0939999e-08
5.5405859e-09
9.8114082e-09
5.4837755e-09
8.6936931e-09
5.4299841e-09
7.5869587e-09
5.3791011e-09
6.4913165e-09
5.3310145e-09
5.4068838e-09
5.28561e-09
4.3337821e-09
5.2427714e-09
3.2721367e-09
5.2023812e-09
2.2220758e-09
5.1643242e-09
1.1837299e-09
5.1284962e-09
1.5722868e-10
5.0947915e-09
-8.5729567e-10
5.0630993e-09
5.0332947e-09
7.1661695e-08
1.23385e-08
7.0005497e-08
1.215055e-08
6.8361648e-08
1.1961671e-08
6.6730257e-08
1.1772162e-08
6.5111405e-08
1.1582286e-08
6.3505156e-08
1.1392307e-08
6.1911551e-08
1.1202498e-08
6.0330615e-08
1.1013133e-08
5.8762354e-08
1.0824487e-08
5.7206757e-08
1.0636829e-08
5.5663798e-08
1.0450428e-08
5.4133434e-08
1.0265544e-08
5.2615611e-08
1.0082433e-08
5.1110262e-08
9.9013422e-09
4.9617309e-08
9.7225126e-09
4.8136663e-08
9.5461744e-09
4.6668228e-08
9.3725482e-09
4.5211902e-08
9.2018438e-09
4.3767577e-08
9.0342591e-09
4.2335141e-08
8.8699798e-09
4.0914479e-08
8.7091785e-09
3.9505476e-08
8.552014e-09
3.8108019e-08
8.398631e-09
3.6721993e-08
8.2491594e-09
3.5347291e-08
8.1037144e-09
3.3983806e-08
7.9623957e-09
3.263144e-08
7.8252878e-09
3.1290101e-08
7.6924596e-09
2.9959705e-08
7.5639647e-09
2.8640175e-08
7.4398414e-09
2.7331447e-08
7.3201132e-09
2.6033465e-08
7.2047886e-09
2.4746186e-08
7.0938623e-09
2.3469575e-08
6.987315e-09
2.2203614e-08
6.8851148e-09
2.0948292e-08
6.7872171e-09
1.9703613e-08
6.6935659e-09
1.8469592e-08
6.6040944e-09
1.7246257e-08
6.5187259e-09
1.6033647e-08
6.4373747e-09
1.4831811e-08
6.3599469e-09
1.3640811e-08
6.2863414e-09
1.2460717e-08
6.2164505e-09
1.1291612e-08
6.1501626e-09
1.0133586e-08
6.0873588e-09
8.9867374e-09
6.0279189e-09
7.8511734e-09
5.9717192e-09
6.7270074e-09
5.9186337e-09
5.6143581e-09
5.868535e-09
4.5133487e-09
5.8212932e-09
3.4241055e-09
5.776777e-09
2.346757e-09
5.7348568e-09
1.2814333e-09
5.6954137e-09
2.2826468e-10
5.6583285e-09
-8.1261133e-10
5.6234713e-09
7.3617005e-08
1.3601838e-08
7.1917195e-08
1.3394309e-08
7.0230028e-08
1.3185745e-08
6.855562e-08
1.2976481e-08
6.6894059e-08
1.2766814e-08
6.5245412e-08
1.2557037e-08
6.3609727e-08
1.2347453e-08
6.1987031e-08
1.2138367e-08
6.0377334e-08
1.1930081e-08
5.8780628e-08
1.1722894e-08
5.7196887e-08
1.1517102e-08
5.5626073e-08
1.1312994e-08
5.4068131e-08
1.1110852e-08
5.2522996e-08
1.0910951e-08
5.0990589e-08
1.0713556e-08
4.9470823e-08
1.0518922e-08
4.7963601e-08
1.0327293e-08
4.646882e-08
1.0138902e-08
4.4986372e-08
9.9539659e-09
4.3516144e-08
9.7726915e-09
4.2058019e-08
9.5952693e-09
4.0611883e-08
9.4218748e-09
3.9177618e-08
9.2526679e-09
3.775511e-08
9.0877925e-09
3.6344249e-08
8.9273755e-09
3.4944927e-08
8.7715274e-09
3.3557045e-08
8.6203412e-09
3.2180507e-08
8.4738932e-09
3.0815228e-08
8.3322425e-09
2.9461132e-08
8.1954311e-09
2.811815e-08
8.0634849e-09
2.6786227e-08
7.936413e-09
2.5465316e-08
7.8142094e-09
2.4155384e-08
7.6968525e-09
2.285641e-08
7.5843065e-09
2.1568383e-08
7.4765221e-09
2.0291306e-08
7.3734367e-09
1.9025193e-08
7.2749764e-09
1.7770073e-08
7.1810557e-09
1.6525984e-08
7.0915796e-09
1.5292975e-08
7.0064438e-09
1.407111e-08
6.9255359e-09
1.2860458e-08
6.8487358e-09
1.1661103e-08
6.7759204e-09
1.0473137e-08
6.7069568e-09
9.2966579e-09
6.6417113e-09
8.1317756e-09
6.5800463e-09
6.9786046e-09
6.521822e-09
5.837265e-09
6.4668974e-09
4.7078811e-09
6.4151286e-09
3.59058e-09
6.36637e-09
2.4854905e-09
6.3204772e-09
1.3927416e-09
6.2773172e-09
3.1246472e-10
6.2367555e-09
6.1986424e-09
7.5620989e-08
1.4897949e-08
7.3876725e-08
1.4670384e-08
7.2145399e-08
1.4441674e-08
7.0427134e-08
1.4212189e-08
6.8722026e-08
1.398226e-08
6.7030148e-08
1.375221e-08
6.5351552e-08
1.3522375e-08
6.3686271e-08
1.3293089e-08
6.2034316e-08
1.3064684e-08
6.0395684e-08
1.2837489e-08
5.8770352e-08
1.2611828e-08
5.7158282e-08
1.2388019e-08
5.5559424e-08
1.2166373e-08
5.3973712e-08
1.1947191e-08
5.2401068e-08
1.1730764e-08
5.0841407e-08
1.1517372e-08
4.9294631e-08
1.1307285e-08
4.7760638e-08
1.1100755e-08
4.6239317e-08
1.0898025e-08
4.4730557e-08
1.0699319e-08
4.323424e-08
1.0504847e-08
4.1750248e-08
1.0314802e-08
4.0278465e-08
1.012936e-08
3.8818775e-08
9.9486788e-09
3.7371064e-08
9.7728978e-09
3.5935226e-08
9.6021381e-09
3.4511157e-08
9.4365022e-09
3.3098761e-08
9.2760737e-09
3.1697952e-08
9.1209174e-09
3.030865e-08
8.9710796e-09
2.8930787e-08
8.8265884e-09
2.7564305e-08
8.6874539e-09
2.6209157e-08
8.5536692e-09
2.4865307e-08
8.4252107e-09
2.3532734e-08
8.3020387e-09
2.2211425e-08
8.1840988e-09
2.0901384e-08
8.0713223e-09
1.9602624e-08
7.9636275e-09
1.8315172e-08
7.8609206e-09
1.7039067e-08
7.7630965e-09
1.5774359e-08
7.6700405e-09
1.4521109e-08
7.5816289e-09
1.3279391e-08
7.4977308e-09
1.2049285e-08
7.4182052e-09
1.0830886e-08
7.3429105e-09
9.624293e-09
7.2716978e-09
8.4296164e-09
7.2044151e-09
7.2469719e-09
7.1409083e-09
6.076481e-09
7.0810224e-09
4.9182687e-09
7.0245995e-09
3.7724629e-09
6.9714789e-09
2.6391917e-09
6.9215015e-09
1.518583e-09
6.8745203e-09
4.1077142e-10
6.8303825e-09
7.7673913e-08
1.6227407e-08
7.5884368e-08
1.597935e-08
7.4108058e-08
1.5730032e-08
7.2345113e-08
1.5479858e-08
7.0595636e-08
1.5229194e-08
6.8859706e-08
1.4978396e-08
6.7137383e-08
1.472783e-08
6.5428702e-08
1.4477863e-08
6.3733681e-08
1.4228856e-08
6.2052319e-08
1.398117e-08
6.0384598e-08
1.3735158e-08
5.8730482e-08
1.3491169e-08
5.7089921e-08
1.324954e-08
5.5462854e-08
1.3010601e-08
5.3849203e-08
1.277467e-08
5.2248883e-08
1.2542053e-08
5.0661799e-08
1.2313044e-08
4.9087846e-08
1.208792e-08
4.7526917e-08
1.1866945e-08
4.5978897e-08
1.1650365e-08
4.4443668e-08
1.1438408e-08
4.2921113e-08
1.1231286e-08
4.1411114e-08
1.1029191e-08
3.9913552e-08
1.0832295e-08
3.8428314e-08
1.0640751e-08
3.6955291e-08
1.0454691e-08
3.5494378e-08
1.0274227e-08
3.4045479e-08
1.0099451e-08
3.2608503e-08
9.9304323e-09
3.1183371e-08
9.767223e-09
2.9770012e-08
9.6098532e-09
2.8368367e-08
9.4583342e-09
2.6978388e-08
9.3126583e-09
2.5600038e-08
9.1727997e-09
2.4233293e-08
9.0387152e-09
2.2878141e-08
8.9103451e-09
2.1534583e-08
8.7876146e-09
2.0202634e-08
8.670434e-09
1.8882318e-08
8.5587008e-09
1.7573675e-08
8.4523003e-09
1.6276754e-08
8.3511068e-09
1.4991616e-08
8.2549849e-09
1.3718335e-08
8.1637907e-09
1.2456994e-08
8.0773714e-09
1.1207684e-08
7.9955704e-09
9.9705076e-09
7.9182246e-09
8.7455752e-09
7.8451677e-09
7.5330036e-09
7.7762308e-09
6.3329149e-09
7.7112447e-09
5.1454351e-09
7.650037e-09
3.9706921e-09
7.5924318e-09
2.8088134e-09
7.5382554e-09
1.6599254e-09
7.4873461e-09
7.4395294e-09
7.9775927e-08
1.7590773e-08
7.7940295e-08
1.7321768e-08
7.6118194e-08
1.7051381e-08
7.4309763e-08
1.6780052e-08
7.2515113e-08
1.650818e-08
7.0734331e-08
1.6236156e-08
6.8967481e-08
1.5964379e-08
6.7214605e-08
1.5693247e-08
6.5475727e-08
1.5423154e-08
6.3750848e-08
1.5154492e-08
6.2039955e-08
1.4887644e-08
6.0343016e-08
1.4622989e-08
5.8659984e-08
1.4360895e-08
5.6990799e-08
1.4101719e-08
5.5335385e-08
1.3845808e-08
5.3693659e-08
1.3593494e-08
5.2065527e-08
1.3345096e-08
5.0450885e-08
1.3100916e-08
4.8849625e-08
1.2861241e-08
4.7261632e-08
1.2626337e-08
4.5686789e-08
1.2396455e-08
4.4124978e-08
1.2171823e-08
4.2576078e-08
1.1952651e-08
4.1039972e-08
1.1739125e-08
3.9516545e-08
1.1531413e-08
3.8005685e-08
1.1329657e-08
3.6507287e-08
1.1133981e-08
3.5021253e-08
1.0944482e-08
3.3547491e-08
1.0761239e-08
3.2085919e-08
1.0584307e-08
3.0636467e-08
1.0413718e-08
2.9199071e-08
1.0249487e-08
2.7773684e-08
1.0091603e-08
2.6360267e-08
9.9400404e-09
2.4958794e-08
9.7947509e-09
2.3569253e-08
9.6556701e-09
2.2191644e-08
9.5227168e-09
2.082598e-08
9.3957935e-09
1.9472285e-08
9.2747889e-09
1.8130597e-08
9.1595781e-09
1.6800967e-08
9.0500244e-09
1.5483455e-08
8.9459806e-09
1.4178134e-08
8.8472899e-09
1.2885086e-08
8.7537865e-09
1.1604406e-08
8.6652991e-09
1.0336194e-08
8.5816503e-09
9.0805615e-09
8.5026584e-09
7.8376256e-09
8.42814e-09
6.6075095e-09
8.3579111e-09
5.3903394e-09
8.2917847e-09
4.1862437e-09
8.2295694e-09
2.9953482e-09
8.1710769e-09
1.8177797e-09
8.1161287e-09
8.1927046e-08
1.8988591e-08
8.0044546e-08
1.8698186e-08
7.8175872e-08
1.840627e-08
7.6321174e-08
1.8113319e-08
7.4480569e-08
1.7819768e-08
7.2654154e-08
1.7526042e-08
7.0842e-08
1.7232573e-08
6.9044155e-08
1.6939792e-08
6.7260647e-08
1.6648127e-08
6.5491486e-08
1.6358001e-08
6.373666e-08
1.606983e-08
6.1996142e-08
1.5784023e-08
6.0269889e-08
1.5500978e-08
5.8557842e-08
1.5221082e-08
5.685993e-08
1.494471e-08
5.517607e-08
1.4672223e-08
5.350617e-08
1.4403965e-08
5.1850126e-08
1.4140263e-08
5.0207832e-08
1.3881427e-08
4.8579174e-08
1.3627747e-08
4.6964033e-08
1.3379493e-08
4.5362291e-08
1.3136913e-08
4.3773827e-08
1.2900234e-08
4.2198523e-08
1.2669658e-08
4.0636263e-08
1.2445367e-08
3.9086934e-08
1.2227515e-08
3.7550429e-08
1.2016235e-08
3.6026648e-08
1.1811635e-08
3.4515499e-08
1.1613798e-08
3.3016898e-08
1.1422786e-08
3.1530772e-08
1.1238633e-08
3.0057058e-08
1.1061355e-08
2.8595705e-08
1.0890942e-08
2.7146674e-08
1.0727365e-08
2.5709938e-08
1.0570572e-08
2.4285482e-08
1.0420495e-08
2.2873305e-08
1.0277045e-08
2.1473419e-08
1.0140116e-08
2.0085849e-08
1.000959e-08
1.8710631e-08
9.8853298e-09
1.7347815e-08
9.7671884e-09
1.5997461e-08
9.6550065e-09
1.4659642e-08
9.5486138e-09
1.3334439e-08
9.4478314e-09
1.2021947e-08
9.3524732e-09
1.0722266e-08
9.2623468e-09
9.4355082e-09
9.1772555e-09
8.1617905e-09
9.0970001e-09
6.9012362e-09
9.0213822e-09
5.653972e-09
8.9502e-09
4.4201267e-09
8.883246e-09
3.1998251e-09
8.8203178e-09
8.7612148e-09
8.412713e-08
2.0421388e-08
8.2197009e-08
2.0109133e-08
8.0281008e-08
1.9795233e-08
7.8379287e-08
1.9480198e-08
7.6491975e-08
1.9164498e-08
7.4619174e-08
1.8848594e-08
7.2760964e-08
1.8532954e-08
7.0917401e-08
1.8218041e-08
6.9088519e-08
1.7904318e-08
6.7274333e-08
1.7592241e-08
6.5474837e-08
1.7282258e-08
6.3690009e-08
1.697481e-08
6.1919809e-08
1.6670327e-08
6.0164181e-08
1.6369226e-08
5.8423058e-08
1.6071912e-08
5.669636e-08
1.5778771e-08
5.4983994e-08
1.5490178e-08
5.3285861e-08
1.5206484e-08
5.1601854e-08
1.4928023e-08
4.9931859e-08
1.465511e-08
4.8275759e-08
1.4388034e-08
4.6633435e-08
1.4127063e-08
4.5004766e-08
1.3872443e-08
4.3389634e-08
1.3624392e-08
4.178792e-08
1.3383105e-08
4.0199511e-08
1.3148751e-08
3.86243e-08
1.2921472e-08
3.7062184e-08
1.2701386e-08
3.5513071e-08
1.2488583e-08
3.3976874e-08
1.2283128e-08
3.2453519e-08
1.208506e-08
3.0942941e-08
1.1894397e-08
2.9445088e-08
1.1711127e-08
2.7959918e-08
1.153522e-08
2.6487404e-08
1.1366621e-08
2.502753e-08
1.1205256e-08
2.3580293e-08
1.1051029e-08
2.2145703e-08
1.0903829e-08
2.0723785e-08
1.0763525e-08
1.9314573e-08
1.0629972e-08
1.7918117e-08
1.0503011e-08
1.6534476e-08
1.0382469e-08
1.5163723e-08
1.0268165e-08
1.3805938e-08
1.0159904e-08
1.2461215e-08
1.0057486e-08
1.1129655e-08
9.9607035e-09
9.8113684e-09
9.8693439e-09
8.5064725e-09
9.7831925e-09
7.2150908e-09
9.7020357e-09
5.93735e-09
9.6256575e-09
4.6733798e-09
9.5538334e-09
3.4233056e-09
9.4863468e-09
8.6375857e-08
2.188967e-08
8.4397397e-08
2.1555123e-08
8.243335e-08
2.1218789e-08
8.0483885e-08
2.088121e-08
7.8549142e-08
2.0542896e-08
7.6629234e-08
2.0204342e-08
7.4724248e-08
1.9866053e-08
7.2834249e-08
1.9528528e-08
7.0959278e-08
1.9192263e-08
6.9099355e-08
1.8857747e-08
6.7254482e-08
1.8525465e-08
6.5424641e-08
1.8195888e-08
6.3609797e-08
1.7869479e-08
6.1809898e-08
1.7546687e-08
6.0024881e-08
1.7227944e-08
5.8254666e-08
1.6913671e-08
5.6499167e-08
1.6604264e-08
5.4758284e-08
1.6300106e-08
5.3031911e-08
1.6001554e-08
5.1319937e-08
1.5708946e-08
4.9622245e-08
1.5422594e-08
4.7938715e-08
1.5142788e-08
4.6269228e-08
1.4869788e-08
4.4613663e-08
1.4603833e-08
4.2971902e-08
1.4345132e-08
4.1343831e-08
1.4093865e-08
3.9729341e-08
1.3850188e-08
3.812833e-08
1.3614226e-08
3.6540701e-08
1.3386078e-08
3.4966368e-08
1.3165813e-08
3.3405254e-08
1.2953476e-08
3.1857294e-08
1.2749083e-08
3.0322433e-08
1.2552625e-08
2.8800628e-08
1.2364068e-08
2.729185e-08
1.2183355e-08
2.579608e-08
1.2010406e-08
2.4313316e-08
1.184512e-08
2.2843566e-08
1.1687376e-08
2.1386852e-08
1.1537034e-08
1.994321e-08
1.139394e-08
1.8512686e-08
1.1257921e-08
1.7095339e-08
1.1128795e-08
1.5691241e-08
1.1006364e-08
1.4300473e-08
1.0890421e-08
1.2923126e-08
1.078075e-08
1.1559301e-08
1.0677129e-08
1.0209108e-08
1.0579328e-08
8.8726628e-09
1.0487117e-08
7.5500887e-09
1.0400269e-08
6.2415131e-09
1.0318551e-08
4.9470674e-09
1.0241723e-08
1.016955e-08
8.8672704e-08
2.3393925e-08
8.6645227e-08
2.3036651e-08
8.4632451e-08
2.2677439e-08
8.263456e-08
2.2316864e-08
8.0651703e-08
2.1955475e-08
7.8684003e-08
2.1593805e-08
7.6731558e-08
2.1232394e-08
7.479444e-08
2.0871778e-08
7.28727e-08
2.0512489e-08
7.0966364e-08
2.0155051e-08
6.9075441e-08
1.9799983e-08
6.7199918e-08
1.944779e-08
6.5339767e-08
1.9098968e-08
6.349494e-08
1.8753998e-08
6.1665377e-08
1.8413344e-08
5.9851004e-08
1.8077455e-08
5.8051734e-08
1.7746759e-08
5.6267473e-08
1.7421662e-08
5.4498116e-08
1.7102551e-08
5.2743552e-08
1.6789786e-08
5.1003667e-08
1.6483703e-08
4.927834e-08
1.6184611e-08
4.7567452e-08
1.5892792e-08
4.5870882e-08
1.5608501e-08
4.4188513e-08
1.5331962e-08
4.252023e-08
1.506337e-08
4.0865921e-08
1.4802891e-08
3.9225483e-08
1.4550661e-08
3.759882e-08
1.4306786e-08
3.5985842e-08
1.4071341e-08
3.4386473e-08
1.3844374e-08
3.2800643e-08
1.3625904e-08
3.1228297e-08
1.3415922e-08
2.966939e-08
1.3214392e-08
2.8123891e-08
1.3021253e-08
2.6591781e-08
1.283642e-08
2.5073054e-08
1.2659786e-08
2.3567717e-08
1.2491222e-08
2.2075791e-08
1.2330579e-08
2.059731e-08
1.217769e-08
1.9132319e-08
1.2032373e-08
1.7680878e-08
1.1894433e-08
1.6243054e-08
1.1763656e-08
1.481893e-08
1.1639823e-08
1.3408595e-08
1.1522702e-08
1.2012149e-08
1.1412054e-08
1.0629699e-08
1.1307636e-08
9.2613624e-09
1.1209199e-08
7.9072598e-09
1.11165e-08
6.5675193e-09
1.1029296e-08
5.2422756e-09
1.0947327e-08
1.0870341e-08
9.1016917e-08
2.493462e-08
8.8939791e-08
2.4554191e-08
8.6877652e-08
2.4171667e-08
8.4830695e-08
2.3787652e-08
8.2799084e-08
2.3402735e-08
8.0782951e-08
2.3017488e-08
7.8782405e-08
2.2632488e-08
7.6797528e-08
2.2248309e-08
7.482838e-08
2.1865519e-08
7.2874995e-08
2.1484679e-08
7.0937389e-08
2.1106342e-08
6.9015556e-08
2.0731049e-08
6.7109474e-08
2.0359329e-08
6.52191e-08
1.9991696e-08
6.334438e-08
1.9628648e-08
6.1485243e-08
1.9270663e-08
5.9641606e-08
1.8918199e-08
5.7813377e-08
1.8571691e-08
5.6000454e-08
1.8231552e-08
5.4202728e-08
1.7898167e-08
5.2420085e-08
1.7571895e-08
5.0652407e-08
1.7253069e-08
4.8899574e-08
1.6941989e-08
4.7161466e-08
1.6638928e-08
4.5437964e-08
1.6344126e-08
4.3728953e-08
1.6057794e-08
4.2034321e-08
1.5780108e-08
4.0353964e-08
1.5511215e-08
3.8687783e-08
1.5251228e-08
3.7035689e-08
1.5000229e-08
3.5397601e-08
1.4758271e-08
3.3773451e-08
1.4525373e-08
3.2163178e-08
1.4301527e-08
3.0566739e-08
1.4086696e-08
2.8984098e-08
1.3880816e-08
2.7415236e-08
1.3683796e-08
2.5860144e-08
1.3495523e-08
2.4318829e-08
1.3315859e-08
2.2791308e-08
1.3144646e-08
2.1277615e-08
1.2981707e-08
1.9777794e-08
1.2826849e-08
1.8291901e-08
1.2679858e-08
1.6820005e-08
1.2540513e-08
1.5362185e-08
1.2408577e-08
1.3918531e-08
1.2283804e-08
1.2489139e-08
1.2165939e-08
1.1074117e-08
1.205472e-08
9.6735776e-09
1.1949885e-08
8.2876415e-09
1.1851176e-08
6.9164387e-09
1.1758331e-08
5.5601098e-09
1.1671079e-08
1.1589143e-08
9.3407488e-08
2.6512197e-08
9.1280134e-08
2.61082e-08
8.9168048e-08
2.5701941e-08
8.7071438e-08
2.5294051e-08
8.4990482e-08
2.4885162e-08