/*--------------------------------*- C++ -*----------------------------------*\
| =========                 |                                                 |
| \\      /  F ield         | OpenFOAM: The Open Source CFD Toolbox           |
|  \\    /   O peration     | Version:  2312                                  |
|   \\  /    A nd           | Website:  www.openfoam.com                      |
|    \\/     M anipulation  |                                                 |
\*---------------------------------------------------------------------------*/
FoamFile
{
    version     2.0;
    format      ascii;
    arch        "LSB;label=32;scalar=64";
    class       volScalarField;
    location    "0.05";
    object      Qdot;
}
// * * * * * * * * * * * * * * * * * * * * * * * * * * * * * * * * * * * * * //

dimensions      [1 -1 -3 0 0 0 0];

internalField   nonuniform List<scalar> 
3251
(
1817723.2
1763062.4
1704137.2
1641067.3
1574090.3
1503524.5
1429767.6
1353292.5
1274639.3
1194405.6
1113234.5
1031799.6
950789.6
870890.44
792768.03
717050.88
644313.89
575064.18
509729.4
448649.11
392069.69
340142.83
292927.49
250395.22
212438.22
178879.7
149485.74
123978.04
102046.83
83363.267
67590.904
54395.747
43454.654
34461.983
27134.44
21214.26
16470.868
12701.259
9729.3435
7404.4988
5599.5851
4208.6241
3144.3257
2335.6059
1725.2021
1267.4602
926.33836
673.65008
487.5492
351.24877
251.95308
179.97281
128.05788
90.790266
64.14419
45.171164
31.713957
22.204189
1816308.6
1761697
1702819.9
1639789.3
1572853
1502331.1
1428621.3
1352196.3
1273596
1193417.7
1112304.1
1030928.4
949978.65
870140.32
792078.71
716421.72
643743.67
574551.14
509271.23
448243.07
391712.67
339831.41
292658.06
250164.03
212241.5
178713.71
149346.88
123862.87
101952.12
83286.044
67528.483
54345.72
43414.901
34430.66
27109.966
21195.296
16456.292
12690.148
9720.94
7398.1929
5594.8895
4205.1538
3141.7799
2333.7518
1723.8615
1266.4976
925.6523
673.16476
487.20865
351.01162
251.78872
179.86249
127.98228
90.735822
64.105865
45.144056
31.694382
22.190431
1813610.8
1759069.5
1700266.8
1637307.9
1570447.6
1500007.7
1426386.3
1350055.9
1271556
1191483.3
1110479.8
1029217.7
948384.11
868663.36
790719.59
715179.52
642616.3
573535.39
508362.86
447436.93
391002.84
339211.36
292120.81
249702.35
211848.05
178381.23
149068.28
123631.39
101761.43
83130.297
67402.348
54244.43
43334.244
34366.967
27060.084
21156.546
16426.433
12667.321
9703.6242
7385.1577
5585.1499
4197.9297
3136.4597
2329.861
1721.0353
1264.4585
924.19078
672.12414
486.47259
350.4941
251.42648
179.61216
127.80912
90.614595
64.021499
45.085319
31.65308
22.161481
1809629.5
1755180.7
1696478
1633622.2
1566872.6
1496552.9
1423061.2
1346870
1268517.9
1188601.1
1107760.2
1026666.2
946004.7
866458.32
788689.51
713323.18
640930.75
572015.98
507003.42
446229.9
389939.49
338282.03
291315.18
249009.67
211257.43
177881.84
148649.58
123283.32
101474.52
82895.804
67212.314
54091.719
43212.55
34270.793
26984.699
21097.935
16381.227
12632.726
9677.3547
7365.3602
5570.3401
4186.9308
3128.3488
2323.9208
1716.714
1261.3355
921.94818
670.52394
485.33783
349.69396
250.865
179.22132
127.53782
90.425759
63.890486
44.994535
31.589932
22.116858
1804376.4
1750042.1
1691465.1
1628743.2
1562138.8
1491976.9
1418656
1342648.1
1264491.1
1184780
1104153.9
1023282.1
942848.07
863532.38
785995.12
710858.84
638692.63
569998.03
505197.51
444626.08
388526.24
337046.61
290243.93
248088.39
210471.68
177217.27
148092.24
122819.85
101092.37
82583.365
66959.024
53888.102
43050.229
34142.46
26884.066
21019.659
16320.824
12586.48
9642.2183
7338.8655
5550.5085
4172.1932
3117.4732
2315.9499
1710.9108
1257.1378
918.93104
668.36869
483.80744
348.61342
250.10591
178.6914
127.1693
90.169665
63.713025
44.871841
31.505289
1798238.3
1744032.5
1685598.3
1623031.3
1556595.9
1486618.1
1413496.6
1337702.8
1259773.8
1180303.2
1099928.3
1019316.4
939148.7
860103.03
782836.84
707969.93
636068.66
567631.94
503079.82
442745.16
386868.64
335597.41
288987.16
247007.41
209549.6
176437.31
147438.02
122275.73
100643.64
82216.431
66661.498
53648.875
42859.476
33991.612
26765.747
20927.6
16249.765
12532.057
9600.8559
7307.6646
5527.1452
4154.8239
3104.6502
2306.5476
1704.0622
1252.1814
915.36652
665.82081
481.99695
347.33406
249.20653
178.06263
126.73153
89.865571
63.502383
44.726358
31.406207
1791404
1737337.8
1679059.7
1616664.2
1550416.7
1480643.8
1407744.4
1332189.1
1254514.1
1175311.5
1095216.6
1014894.4
935023.46
856278.79
779314.79
704748.18
633142.28
564993.07
500717.92
440647.25
385019.74
333980.89
287585.22
245801.51
208520.9
175567.09
146708.05
121668.56
100142.87
81806.898
66329.395
53381.815
42646.503
33823.169
26633.607
20824.772
16170.378
12471.245
9554.6279
7272.7857
5501.0215
4135.3974
3090.3045
2296.0256
1696.3955
1246.631
911.37325
662.96516
479.96679
345.89878
248.19708
177.35635
126.23944
89.523734
63.265614
44.562808
31.294639
1783348.2
1729444
1671347.9
1609153.9
1543127.6
1473596.3
1400958.6
1325684.7
1248309.4
1169422.9
1089658.4
1009678
930157.19
851767.63
775160.13
700947.8
629690.34
561880.29
497931.84
438172.58
382838.78
332074.03
285931.45
244378.96
207307.35
174540.47
145846.84
120952.2
99552.018
81323.663
65937.497
53066.644
42395.14
33624.342
26477.614
20703.366
16076.637
12399.426
9500.0235
7231.5796
5470.1531
4112.4379
3073.346
2283.5843
1687.3281
1240.0647
906.64758
659.58462
477.56251
344.1983
247.00062
176.51872
125.65553
89.118048
62.984593
44.368711
31.161507
1773992.4
1720274.4
1662388.2
1600427.7
1534658.3
1465407.7
1393074.3
1318127.5
1241100.7
1162581.7
1083201.2
1003618.1
924504.27
846527.42
770334.23
696533.57
625680.96
558264.96
494696.04
435298.53
380305.89
329859.5
284010.87
242726.91
205898.03
173348.21
144846.68
120120.22
98865.782
80762.398
65482.294
52700.54
42103.134
33393.349
26296.367
20562.29
15967.695
12315.951
9436.548
7183.6717
5434.2583
4085.735
3053.6188
2269.1088
1676.7758
1232.4212
901.14517
655.64722
474.76126
342.21634
245.60561
175.54162
124.97406
88.644443
62.656506
44.142344
1763255.5
1709750.3
1652104.1
1590411.3
1524936.8
1456008.6
1384024.9
1309454.1
1232827.5
1154730.8
1075791.5
996664.75
918018.3
840515.35
764797.84
691469.76
621081.85
554118.09
490984.7
432002.25
377401.01
327319.84
281808.38
240832.42
204281.9
171981.03
143699.76
119166.18
98078.842
80118.751
64960.257
52280.666
41768.222
33128.396
26088.457
20400.447
15842.703
12220.166
9363.7032
7128.6849
5393.0533
4055.0767
3030.9655
2252.4829
1664.6533
1223.6384
894.82102
651.12054
471.53977
339.93631
244.00024
174.41669
124.18912
88.098765
62.278514
43.88251
1751055
1697791.2
1640417.5
1579028.8
1513889.8
1445328.6
1373743
1299599.9
1223428.9
1145812.7
1067375.2
988767.51
910652.53
833688.37
758511.54
685720.54
615860.66
549410.66
486771.98
428260.92
374104.15
324437.63
279308.94
238682.59
202448.03
170429.67
142398.37
118083.64
97185.918
79388.409
64367.893
51804.211
41388.161
32827.707
25852.49
20216.748
15700.818
12111.425
9280.9947
7066.2442
5346.2559
4020.252
3005.2293
2233.5909
1650.8758
1213.6542
887.63011
645.97209
467.87473
337.34154
242.17266
173.13552
123.29475
87.476816
61.847807
1737307.4
1684316
1627249.4
1566203.8
1501443.6
1433296.8
1362160.6
1288500.5
1212843.7
1135769.7
1057898.3
979876.06
902360.38
826003.61
751436.16
679250.33
609985.29
544113.96
482032.36
424052.03
370395.56
321195.73
276497.78
236264.79
200385.66
168685.1
140934.94
116866.34
96181.843
78567.153
63701.781
51268.424
40960.757
32489.546
25587.098
20010.126
15541.215
11989.091
9187.9375
6995.9817
5293.5889
3981.0534
2976.2557
2212.3186
1635.3593
1202.4074
879.52786
640.16963
463.74294
334.41546
240.11106
171.68971
122.28494
86.774487
61.362761
1721928.8
1669243
1612520.8
1551859.8
1487524.3
1419842.2
1349210.1
1276091.5
1201011
1124544.6
1047307.4
969940.64
893095.85
817418.83
743533.16
672024.21
603424.32
538199.88
476740.91
419353.6
366256.05
317577.47
273360.52
233566.73
198084.4
166738.54
139302.16
115508.2
95061.629
77650.913
62958.626
50670.658
40483.895
32112.238
25290.967
19779.556
15363.097
11852.553
9084.063
6917.5416
5234.7838
3937.2795
2943.8949
2188.555
1618.0221
1189.8382
870.4707
633.68157
459.12164
331.14175
237.8038
170.07095
121.15376
85.987825
1704835.8
1652491
1596152.8
1535920.7
1472058.8
1404895
1334824.6
1262309.5
1187871.1
1112081.1
1035549.9
958912.63
882814.11
807892.94
734765.14
664008.37
596147.38
531641.35
470873.64
414144.55
361667.22
313566.92
269883.48
230576.72
195534.32
164581.68
137493.07
114003.49
93820.554
76635.837
62135.309
50008.405
39955.576
31694.198
24962.849
19524.062
15165.709
11701.228
8968.926
6830.5855
5169.5851
3888.7384
2908.0036
2162.1938
1598.7858
1175.889
860.41664
626.4774
453.98877
327.50458
235.23959
168.27121
119.89547
85.114806
1685945.8
1633980.1
1578068.1
1518311.9
1454975.6
1388386.6
1318939.2
1247092.9
1173365.8
1098325.1
1022575.3
946745.18
871472.07
797386.58
725096.35
655170.56
588125.6
524412.69
464407.89
408405
356611.76
309149.11
266053.83
227283.85
192726.22
162206.77
135501.23
112346.87
92454.242
75518.358
61228.943
49279.347
39373.952
31233.963
24601.593
19242.746
14948.352
11534.576
8842.1131
6734.7984
5097.7542
3835.2509
2868.4477
2133.1354
1577.5767
1160.5055
849.32592
618.52814
448.32332
323.48881
232.40768
166.28288
118.50449
1665178.4
1613632.1
1558191.4
1498961.2
1436205.2
1370250.8
1301490.9
1230382.5
1157439.6
1083224.5
1008335.6
933393.97
859029.12
785862.76
714493.34
645480.72
579332.14
516490.12
457322.71
402116.68
351073.81
304310.4
261859.87
223678.2
189651.72
159606.82
133320.83
110533.54
90958.759
74295.276
60236.943
48481.407
38737.364
30730.218
24206.165
18934.797
14710.397
11352.113
8703.2512
6629.8956
5019.0752
3776.6539
2825.1049
2101.2885
1554.3271
1143.6378
837.16179
609.80684
442.1056
319.08024
229.29803
164.09926
116.97804
1642456.3
1591372.6
1536450.9
1477799.3
1415681.9
1350425.2
1282420.8
1212122.6
1140040.6
1066731.2
992785.88
918817.97
845447.81
773287.55
702925.56
634911.54
569742.76
507852.25
449599.39
395263.29
345039.32
299038.73
257291.36
219751.08
186303.54
156775.75
130946.83
108559.36
89330.721
72963.841
59157.088
47612.804
38044.393
30181.838
23775.676
18599.521
14451.303
11153.419
8552.0171
6515.6295
4933.3594
3712.8046
2777.8676
2066.5725
1528.9769
1125.2413
823.89127
600.28914
435.3177
314.26583
225.90152
161.71475
1617706.4
1567131
1512778.8
1454761.9
1393344.1
1328851.7
1261674.1
1192262.2
1121121.1
1048801.1
975886
902980.36
830694.79
759630.9
690366.14
623439.16
559336.42
498480.68
441221.93
387831.03
338496.44
293324.02
252339.78
215495.35
182675.71
153708.6
128375.15
106420.99
87567.403
71521.846
57987.6
46672.113
37293.902
29587.922
23309.416
18236.358
14170.632
10938.153
8388.1479
6391.7978
4840.4518
3643.5847
2726.6463
2028.9197
1501.4753
1105.2781
809.48605
589.95389
427.94379
309.03393
222.21014
159.13017
1590861.3
1540842.8
1487113.6
1429790.2
1369136.5
1305478
1239202.1
1170756
1100639.4
1029395.9
957600.94
885849.54
814741.65
744867.51
676792.7
611043.93
548095.98
488360.57
432177.58
379809.03
331435.98
287158.54
246998.65
210905.65
178763.81
150401.76
125602.83
104116.02
85666.861
69967.724
56727.221
45658.328
36485.09
28947.832
22806.881
17844.912
13868.072
10706.071
8211.4521
6258.2513
4740.237
3568.9052
2671.3725
1988.2781
1471.7828
1083.7181
793.92349
578.78382
419.97058
303.37447
218.21564
156.33178
1561860.7
1512450.8
1459400.7
1402832.7
1343010.8
1280259.2
1214963.2
1147565.6
1078560.6
1008483.9
937902.29
867400.17
797566.03
728977.77
662188.2
597711.17
536008.92
477481.33
422457.48
371189.92
323851.87
280537.31
241263.96
205978.71
174565.23
146853.13
122628.22
101643.14
83628.053
68300.652
55375.3
44570.932
35617.545
28261.241
22267.807
17424.97
13543.454
10457.037
8021.8212
6114.9034
4632.6457
3488.7113
2612.0029
1944.6136
1439.8728
1060.541
777.18764
566.76629
411.38777
297.27961
213.91291
153.31142
1530652.6
1481906.5
1429594.5
1373846.9
1314927.4
1253159.1
1188924.3
1122661.4
1054857.9
986041.64
916769.4
847614.39
779152.63
711948.77
646541.9
583432.08
523068.14
465837.33
412057.22
361970.35
315741.61
273458.55
235134.44
200713.71
170079.44
143062.42
119451.15
99002.284
81450.978
66520.657
53931.875
43409.962
34691.3
27528.17
21692.207
16976.537
13196.773
10191.041
7819.2415
5961.7384
4517.6617
3402.9871
2548.5228
1897.913
1405.7339
1035.737
759.27044
553.89413
402.18837
290.7443
209.3014
1497195.6
1449172.4
1397660
1342800.8
1284857.6
1224151.9
1161062.8
1096023.4
1029514.6
962054.93
894190.72
826482.98
759494.39
693775.35
629850.29
568204.55
509272.72
453428.59
400977.57
352151.61
307106.83
265924.09
228612.02
195112.55
165308.26
139031.3
116073.16
96194.808
79136.802
64628.726
52397.765
42176.086
33706.885
26749.038
21080.404
16499.856
12828.21
9908.2144
7603.8064
5798.8209
4395.3287
3311.7609
2480.9499
1848.1868
1369.3719
1009.309
740.17306
540.16696
392.36927
283.76695
204.39416
1461459.8
1414223.3
1363574.9
1309674.9
1252784.9
1193224
1131367.8
1067643.8
1002525
936520.57
870165.15
804006.74
738593.71
674461.26
612118.17
552034.2
494628.78
440261.55
389225.07
341740.15
297953.79
257939.84
221702.18
189180.22
160256.17
134763.74
112497.66
93223.635
76687.991
62626.909
50774.651
40870.665
32665.389
25924.701
20433.062
15995.438
12438.152
9608.8461
7375.7285
5626.3055
4265.7571
3215.1108
2409.3383
1795.4719
1330.8118
981.274
719.90732
525.59336
381.93214
1423429.3
1377047.4
1327331
1274464.3
1218707
1160375.9
1099842.3
1037527.7
973896.65
909447.82
844703.52
780197.77
716463.66
654020.22
593359.66
534935.21
479150.37
426349.83
376812.73
330748.25
288293.86
249516.19
214414.3
182925.1
154930.53
130266.11
108730.16
90093.418
74108.44
60518.428
49065.166
39495.824
31568.507
25056.496
19751.225
15464.086
12027.212
9293.3972
7135.351
5444.4447
4129.1306
3113.1687
2333.7819
1739.8344
1290.0996
951.6642
698.4972
510.1957
1383108.9
1337647.9
1288937.1
1237180.6
1182638.2
1125624.1
1066505
1005695.7
943651.51
880859.95
817830.03
755080.85
693129.24
632477.13
573599.21
516931.32
462860.2
411714.96
363760.68
319194.48
278144.02
240668.5
206762.09
176359.26
149341.88
125547.51
104778.38
86810.683
71403.59
58307.769
47272.967
38054.513
30418.593
24146.282
19036.343
14906.921
11596.244
8962.5152
6883.1588
5253.5977
3985.7128
3006.1258
2254.4179
1681.3719
1247.3041
920.52807
675.9789
494.02164
1381819
1340548.8
1296054.6
1248421.9
1197854.4
1144611.1
1089003
1031392
972185.05
911827.9
850795.82
789583.69
728694.75
668628.61
609869.14
552872.62
498056.66
445790.52
396387.04
350096.76
307104.34
267527.33
231417.41
198763.83
169498.74
143504.13
120619.88
100652.49
83383.959
68580.531
56000.765
45402.806
36550.56
29218.701
23196.468
18290.3
14325.401
11146.367
8617.0469
6619.7877
5054.2374
3835.8518
2894.2364
2171.4302
1620.2161
1202.5187
887.93067
652.39395
477.07108
1336125.7
1295772.8
1252314.5
1205835.1
1156537.5
1104678.9
1050567.3
994558.68
937051.93
878482.06
819311.39
760019.75
701093.53
643014.21
586246.69
531227.96
478356.63
427983.78
380405.41
335857.07
294510.61
256473.3
221789.22
190442.73
162363.8
137434.78
115498.19
96365.145
79823.876
65648.087
53604.667
43460.579
34988.715
27972.617
22210.045
17515.435
13721.335
10678.968
8258.0476
6346.0323
4846.9564
3679.9856
2777.821
2085.0514
1556.5343
1155.8626
853.9561
627.8014
459.38154
1288199.4
1248846.5
1206498.6
1161250
1113304.4
1062917.5
1010393.4
956081.81
900372.76
843689.72
786481.15
729210.91
672347.66
616353.81
561674.41
508726.36
457888.57
409493.27
363819.17
321086.42
281453.82
245018.23
211816.11
181827.06
154979.06
131155.06
110200.57
91931.672
76143.247
62616.876
51128.188
41453.368
33374.678
26684.886
21190.602
16714.553
13096.9
10195.718
7886.7882
6062.8508
4632.4707
3518.6448
2657.2694
1995.5654
1490.5313
1107.4824
818.7081
602.27377
441.00425
1238151.9
1199868.2
1158705
1114765.8
1068255.1
1019427
968581.38
916060.85
862245.79
807547.37
752399.31
697248.52
642545.05
588731.39
536231.91
485442.7
436722.28
390383.57
346687.52
305838.61
267982.43
233205.39
201536.37
172950.37
147373.61
124689.99
104748.31
87370.04
72357.091
59499.33
48581.52
39389.451
31715.108
25360.816
20142.33
15890.936
12454.639
9698.5725
7504.7579
5771.3675
4411.6222
3352.454
2533.0414
1903.3076
1422.45
1057.5521
782.3103
575.89761
422.00092
1186112.9
1148965.3
1109060.6
1066509.3
1021516.5
974333.92
925256.58
874619.48
822792.49
770173.57
717180.82
664243.38
611791.78
560247.75
510014.28
461465.98
414940.45
370730.84
329080.03
290176.65
254153.01
221085.09
190994.37
163851.43
139581.05
118068.38
99165.914
82700.884
68482.625
56309.682
45976.323
37278.29
30017.616
24006.47
19070.018
15048.331
11797.46
9189.7669
7113.6617
5472.8715
4185.3771
3182.1317
2405.6666
1808.6654
1352.5712
1006.2738
744.90659
548.77428
402.44359
1132239.8
1096295.4
1057722.4
1016637
973243.9
927792.03
880570.79
831906.71
782158.34
731709.6
680962.08
630326.31
580212.48
531020.85
483132.35
436899.54
392638.67
350622.8
311076.56
274172.63
240030.1
208714.63
180240.5
154574.19
131639.35
111322.75
93480.977
77947.407
64539.188
53063.902
43325.667
35130.487
28290.722
22628.64
17979.029
14190.938
11128.622
8671.8093
6715.4131
5168.811
3954.8224
3008.4871
2275.7427
1712.0767
1281.2133
953.87691
706.66097
521.02001
382.41471
1076721.4
1042047.7
1004878.8
965335.78
923622.31
879983.71
834703.02
788097.46
740513.4
692319.89
643901.15
595648.29
547950.45
501185.77
455712.51
411860.82
369925.24
330158.54
292767.04
257907.52
225685.96
196157.96
169330.88
145167.47
123590.6
104489.09
87723.998
73135.227
60548.103
49779.584
40643.939
32957.703
26543.799
21234.79
16875.258
13323.371
10451.708
8147.4596
6312.1202
4860.7828
3721.1581
2832.415
2143.9316
1614.0275
1208.7302
900.61721
667.75684
492.76531
362.00691
1019780.7
986444.25
950750.15
912823.69
872866.67
831120.07
787859.7
743392.65
698052.25
652191.83
606177.47
560380.12
515167.2
470894.17
427896.27
386480.83
346920.55
309447.88
274250.85
241470.52
211200.02
183485.21
158326.94
135684.59
115480.72
97606.58
81928.11
68292.13
56532.473
46475.77
37946.7
30772.545
24786.971
19832.983
15765.074
12450.62
9770.5938
7619.7031
5906.0645
4550.517
3485.6859
2654.8871
2010.9534
1515.047
1135.5082
846.77463
628.39551
464.15399
341.3224
961675.18
929740.61
895589.27
859349.91
821221.79
781440.64
740274.22
698018.61
654993.27
611534.99
567990.99
524711.4
482041.4
440313.34
399839.11
360903.11
323756.14
288610.41
255635.9
224958.24
196658.07
170771.97
147294.7
126182.75
107358.83
90717.073
76128.677
63447.734
52516.893
43172.712
35250.484
28588.4
23030.988
18431.779
14655.237
11577.98
9089.3946
7091.7128
5499.6732
4239.856
3249.7937
2476.9411
1877.578
1415.7027
1061.9622
792.6504
588.79423
435.34169
320.47209
902695.95
872224.86
839680.29
805193.74
768961.15
731212.18
692205.6
652225.66
611577.13
570579.53
529560.56
488848.98
448767.31
409624.51
371708.98
335282.18
300573.15
267774.11
237037.35
208473.49
182151.21
158098.27
136303.91
116722.27
99276.665
83864.546
70362.785
58633.057
48527.091
39891.574
32572.558
26419.241
21287.064
17040.108
13552.798
10710.977
8412.4063
6566.8031
5095.4839
3930.7279
3014.9357
2299.6659
1744.6148
1316.5917
988.52998
738.56318
549.1834
406.49398
299.57424
843166.64
814216.13
783337.01
750662.67
716384.94
680726.47
643936.24
606285.8
568064.48
529573.86
491121.56
453014.56
415552.44
379020.64
343684.09
309781.49
277520.42
247073.54
218575.92
192123.77
167774.37
145547.34
125426.97
107365.58
91287.642
77094.356
64668.622
53879.994
44589.489
36654.07
29930.625
24279.383
19566.685
15667.111
12464.98
9855.2708
7744.0326
6048.3734
4696.1017
3625.1147
2782.6088
2124.1838
1612.8997
1218.3323
915.6656
684.84427
509.80322
377.7839
278.75283
783440.34
756061.68
726899.88
696089.3
663816.78
630297.12
595768.64
560489.39
524732.59
488781.31
452922.65
417441.54
382614.49
348703.47
315950.15
284570.82
254752.07
226647.56
200375.82
176019.33
153624.72
133204.12
114737.54
98176.109
83445.922
70452.385
59084.756
49220.706
40730.7
33482.046
27342.478
22183.209
17881.387
14321.972
11399.037
9016.5501
7088.7002
5539.8445
4304.1509
3325.0152
2554.3249
1951.6308
1483.2801
1121.5525
843.83148
631.83197
470.89964
349.38921
258.13556
723895.53
698132.66
670731.7
641826.95
611599.38
580255.11
548020.95
515140.78
481871.07
448475.96
415221.71
382371.1
350177.61
318879.98
288697.02
259823.11
232424.54
206636.68
182562.34
160271.08
139799.67
121153.53
104309.11
89216.934
75805.257
63984.08
53649.316
44686.942
36976.956
30397.014
24825.626
20144.86
16242.508
13013.715
10362.1
8200.4091
6450.7667
5044.5867
3922.22
3032.4041
2331.5803
1783.133
1356.5981
1026.878
773.4895
579.86515
432.71977
321.48904
237.8516
664930.45
640818.49
615211.94
588243.99
560088.88
530943.19
501021.51
470552.88
439776.59
408937.48
378280.88
348047.45
318467.92
289758.18
262114.76
235710.88
210693.31
187180.06
165259.12
144988.06
126394.7
109478.58
94213.282
80549.372
68417.759
57733.406
48399.119
40309.303
33353.505
27419.653
22396.882
18177.913
14660.931
11751.002
9361.0138
7412.2208
5834.421
4565.8438
3552.8044
2749.1884
2115.8228
1619.7825
1233.6724
934.91867
705.09123
529.27616
395.5068
294.26032
218.02895
606955.99
584519.73
560729.7
535716.86
509647.92
482709.12
455102.15
427040.73
398746.6
370445.17
342360.89
314712.5
287708.43
261542.36
236389.29
212402.16
189709.21
168412.14
148585.15
130274.86
113501.06
98258.286
84518.02
72231.451
61332.613
51741.75
43368.744
36116.475
29883.978
24569.294
20071.952
16295.035
13146.808
10541.913
8402.1696
6657.0058
5243.5817
4106.6547
3198.246
2477.1615
1908.4173
1462.6118
1115.2793
846.25465
639.06776
480.38348
359.49465
267.87396
198.7918
550387.2
529639.7
507675.36
484621.89
460637.62
435897.77
410590.62
384914.16
359072.38
333271.3
307714.7
282599.87
258113.55
234428
211697.65
190056.22
169614.56
150459.21
132651.72
116228.84
101203.35
87565.653
75285.857
64316.37
54594.765
46046.825
38589.618
32134.472
26589.764
21863.407
17865.012
14507.661
11709.299
9393.743
7491.3382
5939.3026
4681.7967
3669.7762
2860.6739
2217.9582
1710.612
1312.5683
1002.1337
761.42239
575.81933
433.48406
324.90248
242.49079
180.2576
495633.47
476574.75
456431.14
435325.99
413408.57
390842.52
367802.24
344469.79
321031.42
297673.92
274580.84
251928.66
229883.23
208596.41
188203.16
168819.19
150539.22
133435.86
117559.27
102937.43
89577.161
77465.577
66572.142
56851.015
48243.67
40681.619
34089.144
28385.916
23489.421
19317.126
15788.329
12825.673
10356.323
8312.7982
6633.5159
5263.0467
4152.1486
3257.6099
2541.9492
1973.0128
1523.5059
1170.4898
894.87081
680.90096
515.70528
388.84602
291.92928
218.25775
162.53429
443087.7
425703.75
407360.76
388176.73
368291.27
347855.96
327031.09
305982.71
284879.52
263889.48
243176.5
222897.1
203197.23
184209.5
166050.67
148819.79
132596.78
117441.67
103394.47
90475.588
78686.855
68012.98
58423.431
49874.603
42312.158
35673.449
29889.92
24889.39
20598.15
16942.817
13851.912
11257.132
9094.3358
7304.2278
5832.7876
4631.4637
3657.1725
2872.1383
2243.6148
1743.5203
1348.0202
1037.0828
794.02984
605.09974
459.03488
346.70178
260.74882
195.30412
145.71761
393114.92
377376.99
360798.75
343492.01
325586.18
307220.53
288541.11
269698.14
250843.05
232125.62
213690.92
195676.47
178209.55
161404.76
145362.1
130165.35
115881.08
102558.12
90227.601
78903.503
68583.661
59251.171
50876.119
43417.534
36825.478
31043.173
26009.09
21658.922
17927.375
14749.745
12063.241
9808.0551
7928.1625
6371.8839
5092.2188
4046.9842
3198.7883
2514.8725
1966.8554
1530.4057
1184.8743
912.90419
700.03995
534.34792
406.05938
307.24215
231.50525
173.73826
129.88863
346040.79
331905.11
317039.88
301549.95
285554.22
269179.5
252557.71
235823.51
219111.68
202554.53
186279.3
170405.67
155043.54
140290.96
126232.61
112938.52
100463.36
88846.155
78110.426
68264.831
59304.148
51210.592
43955.392
37500.535
31800.603
26804.629
22457.893
18703.609
15484.441
12743.826
10427.079
8482.2679
6860.8726
5518.2276
4413.7805
3511.1847
2778.2551
2186.8161
1712.4689
1334.3019
1034.5681
798.34777
613.20991
468.88651
356.96591
270.61163
204.30954
153.64492
115.11177
302140.76
289548.71
276329.23
262579.57
248407.98
233928.81
219260.17
204521.64
189832.07
175307.27
161057.76
147186.7
133787.99
120944.68
108727.64
97194.694
86390.083
76344.368
67074.7
58585.467
50869.245
43908.02
37674.6
32134.158
27245.831
22964.318
19241.414
16027.431
13272.471
10927.524
8945.3791
7281.3346
5893.7284
4744.2863
3798.3153
3024.7601
2396.1485
1888.4469
1480.852
1155.5373
897.3731
693.63643
533.72184
408.8633
311.87356
236.90536
179.23699
135.08321
101.43329
261630.39
250509.33
238853.76
226752.95
214304.46
201610.48
188775.68
175905.3
163103.14
150469.57
138099.68
126081.5
114494.47
103408.12
92881.115
82960.58
73681.767
65068.093
57131.487
49873.033
43283.873
37346.316
32035.087
27318.681
23160.736
19521.393
16358.595
13629.27
11290.39
9299.8708
7617.3135
6204.5781
5026.201
4049.6664
3245.5462
2587.5304
2052.3648
1619.7188
1272.0003
994.13572
773.33035
598.82069
461.62962
354.3314
270.83193
206.16786
156.32625
118.08569
88.880208
224657.88
214922.37
204735.84
194179.32
183339.87
172307.88
161175.27
150033.74
138973.05
128079.38
117433.74
107110.48
97176.113
87688.246
78694.867
70233.872
62332.903
55009.467
48271.326
42117.131
36537.248
31514.754
27026.534
23044.443
19536.481
16467.941
13802.486
11503.132
9533.1158
7856.6275
6439.4046
5249.1901
4256.0588
3432.6228
2754.1314
2198.4811
1746.1513
1380.0846
1085.5245
849.82757
662.2589
513.78385
396.86217
305.25121
233.82246
178.39392
135.57995
102.65895
191299.13
182852.83
174029.51
164901.89
155546.89
146043.69
136472.17
126911.48
117438.52
108126.55
99043.891
90252.754
81808.239
73757.569
66139.546
58984.25
52312.989
46138.489
40465.295
35290.372
30603.857
26389.934
22627.787
19292.586
16356.485
13789.569
11560.751
9638.5749
7991.9192
6590.5845
5405.7692
4410.4279
3579.5238
2890.1825
2321.7598
1855.838
1476.1631
1168.5379
920.68207
722.07256
563.77181
438.25354
339.23144
261.49594
200.76217
153.53148
116.96778
161556.12
154294.13
146719.78
138897.65
130894.97
122780.42
114622.79
106489.7
98446.416
90554.63
82871.424
75448.327
68330.549
61556.395
55156.892
49155.606
43568.682
38405.07
33666.919
29350.139
25445.067
21937.227
18808.148
16036.196
13597.401
11466.243
9616.3822
8021.3126
6654.9239
5491.9726
4508.4544
3681.884
2991.4874
2418.3145
1945.2837
1557.1689
1240.5408
983.67247
776.42096
610.09255
477.30016
371.81885
288.44462
222.86008
171.50961
131.48562
135358.85
129170.37
122725.27
116080.23
109293.47
102423.99
95530.421
88670.051
81897.733
75264.953
68818.968
62602.076
56651.023
50996.583
45663.3
40669.414
36026.942
31741.928
27814.822
24240.984
21011.265
18112.67
15529.038
13241.74
11230.363
9473.3501
7948.5936
6633.9562
5507.7221
4548.966
3737.8454
3055.815
2485.7717
2012.1363
1620.8806
1299.5095
1037.007
823.75537
651.43504
512.91263
402.12335
313.95248
244.11985
189.07029
145.87227
112.12673
112570.76
107342.05
101904.06
96306.044
90597.922
84829.884
79051.506
73310.861
67653.671
62122.538
56756.262
51589.269
46651.179
41966.495
37554.454
33429.01
29598.952
26068.156
22835.937
19897.489
17244.398
14865.194
12745.923
10870.727
9222.397
7782.8929
6533.8211
5456.849
4534.0602
3748.2438
3083.1205
2523.5062
2055.4203
1666.1434
1344.2328
1079.5021
862.97355
686.80889
544.22622
429.40782
337.40396
264.03641
205.80472
159.79755
123.61064
95.273024
92997.573
88614.89
84062.582
79383.015
74618.62
69811.745
65003.945
60235.249
55543.474
50963.607
46527.269
42262.282
38192.345
34336.829
30710.689
27324.494
24184.565
21293.214
18649.059
16247.414
14080.719
12139.008
10410.381
8881.4762
7537.9205
6364.7474
5346.775
4468.9358
3716.5543
3075.5721
2532.7214
2075.6497
1692.9989
1374.4468
1110.7134
893.54144
715.65388
570.69667
453.16992
358.3527
282.22503
221.3899
172.99778
134.67522
104.45888
80.736154
76398.699
72751.115
68966.658
65081.453
61131.277
57151.595
53176.989
49240.567
45373.402
41604.051
37958.132
34457.999
31122.511
27966.895
25002.71
22237.9
19676.94
17321.055
15168.499
13214.89
11453.574
9876.0086
8472.1555
7230.861
6140.2183
5187.9026
4361.4692
3648.6134
3037.3866
2516.371
2074.8118
1702.7115
1390.8885
1131.0049
915.56913
737.91637
592.17292
473.20846
376.57993
298.47063
235.62734
185.29772
145.16976
113.31472
88.134256
68.312875
62500.502
59482.398
56354.113
53146.221
49888.691
46611.041
43341.89
40108.474
36936.204
33848.28
30865.373
28005.376
25283.244
22710.909
20297.274
18048.284
15967.066
14054.123
12307.582
10723.473
9296.0367
8018.0385
6881.0875
5875.9447
4992.813
4221.603
3552.1687
2974.5104
2478.9437
2056.2336
1697.6959
1395.2682
1141.5527
929.83574
754.08669
608.94073
489.66888
392.13867
312.76875
248.47986
196.64438
155.0363
121.78295
95.319425
74.346476
57.792497
51010.341
48523.435
45947.828
43309.244
40632.67
37942.568
35262.534
32614.899
30020.385
27497.796
25063.777
22732.633
20516.212
18423.861
16462.437
14636.388
12947.877
11396.958
9981.7848
8698.8506
7543.2363
6508.8719
5588.7944
4775.3948
4060.6502
3436.3344
2894.204
2426.1565
2024.3627
1681.3692
1390.177
1144.2942
937.76841
765.19952
621.73738
503.06657
405.38164
325.35506
260.10065
207.13423
164.33332
129.89727
102.3088
80.297715
62.807394
48.964461
41630.328
39585.137
37468.325
35301.457
33105.313
30900.129
28705.33
26539.212
24418.665
22358.935
20373.438
18473.625
16668.905
14966.623
13372.082
11888.623
10517.737
9259.2217
8111.3534
7071.0879
6134.2678
5295.8342
4550.0351
3890.6248
3311.0489
2804.611
2364.6201
1984.5148
1657.9657
1378.9561
1141.8417
941.3907
772.8081
631.74442
514.29268
416.97548
336.72454
270.85488
217.03529
173.25691
137.80104
109.20732
86.243081
67.874473
53.23973
41.624976
34069.867
32386.558
30645.052
28863.418
27058.94
25248.376
23447.74
21672.054
19935.124
18249.352
16625.594
15073.065
13599.28
12210.05
10909.511
9700.1997
8583.1515
7558.033
6623.2914
5776.3189
5013.6239
4331.004
3723.7149
3186.6313
2714.3947
2301.5467
1942.6454
1632.3643
1365.5718
1137.3951
943.26582
778.95151
640.57352
524.61336
427.90945
347.64636
281.33811
226.80722
182.16104
145.76651
116.22441
92.343902
73.118027
57.700568
45.384612
28056.252
26664.884
25225.756
23754.044
22264.18
20770.101
19285.079
17821.517