/*--------------------------------*- C++ -*----------------------------------*\
| =========                 |                                                 |
| \\      /  F ield         | OpenFOAM: The Open Source CFD Toolbox           |
|  \\    /   O peration     | Version:  2312                                  |
|   \\  /    A nd           | Website:  www.openfoam.com                      |
|    \\/     M anipulation  |                                                 |
\*---------------------------------------------------------------------------*/
FoamFile
{
    version     2.0;
    format      ascii;
    arch        "LSB;label=32;scalar=64";
    class       volScalarField;
    location    "0.01";
    object      alphat;
}
// * * * * * * * * * * * * * * * * * * * * * * * * * * * * * * * * * * * * * //

dimensions      [1 -1 -1 0 0 0 0];

internalField   nonuniform List<scalar> 
3250
(
0.019714292
0.019767571
0.019820176
0.01987202
0.019923074
0.019973317
0.02002273
0.020071294
0.020118992
0.020165806
0.020211719
0.020256711
0.020300762
0.020343851
0.020385955
0.020427051
0.02046711
0.020506104
0.020544003
0.02058077
0.020616371
0.020650763
0.020683906
0.020715752
0.020746253
0.02077536
0.02080302
0.020829181
0.02085379
0.020876794
0.020898156
0.020917821
0.020935751
0.020951919
0.020966305
0.020978903
0.020989722
0.020998788
0.021006141
0.02101186
0.021016041
0.021018805
0.021020307
0.021020745
0.019603269
0.01965599
0.019708021
0.019759288
0.019809765
0.019859433
0.019908274
0.019956272
0.020003408
0.020049666
0.020095029
0.020139478
0.020182993
0.020225554
0.020267139
0.020307724
0.020347285
0.020385793
0.020423218
0.020459529
0.02049469
0.020528664
0.020561409
0.020592883
0.020623041
0.020651835
0.020679216
0.020705133
0.020729527
0.020752298
0.020773629
0.020793253
0.020811189
0.020827421
0.020841938
0.020854736
0.020865831
0.020875252
0.020883041
0.020889282
0.02089407
0.020897524
0.020899797
0.020901126
0.01938359
0.019435186
0.019486096
0.019536245
0.019585611
0.019634175
0.019681921
0.019728832
0.019774893
0.019820087
0.019864397
0.019907806
0.019950297
0.019991849
0.020032443
0.020072057
0.020110668
0.02014825
0.020184777
0.020220222
0.020254553
0.020287738
0.020319739
0.02035052
0.020380041
0.02040826
0.020435133
0.020460619
0.02048468
0.020507322
0.020528358
0.020547907
0.020565897
0.020582307
0.020597131
0.020610375
0.020622063
0.020632232
0.020640935
0.020648258
0.020654311
0.020659217
0.020663139
0.020666324
0.019080497
0.019130467
0.019179758
0.019228302
0.019276075
0.019323061
0.019369243
0.019414608
0.019459138
0.01950282
0.019545637
0.019587575
0.019628617
0.019668745
0.019707941
0.019746184
0.019783455
0.019819733
0.019854998
0.019889229
0.0199224
0.019954486
0.019985456
0.02001528
0.020043926
0.020071358
0.020097544
0.020122451
0.020146051
0.020168328
0.020189191
0.020208684
0.020226778
0.020243465
0.020258748
0.020272645
0.020285191
0.020296437
0.020306451
0.020315319
0.02032317
0.020330136
0.020336392
0.02034219
0.018711973
0.018759896
0.018807155
0.018853686
0.018899466
0.01894448
0.018988713
0.01903215
0.019074778
0.019116583
0.019157551
0.019197668
0.01923692
0.019275289
0.019312759
0.019349308
0.019384921
0.019419587
0.019453299
0.019486044
0.019517804
0.01954856
0.019578289
0.019606968
0.019634571
0.019661075
0.019686454
0.01971068
0.019733726
0.01975557
0.019776299
0.019795805
0.01981409
0.01983117
0.019847069
0.019861821
0.019875475
0.019888096
0.019899767
0.019910587
0.019920692
0.019930236
0.019939399
0.019948439
0.018295297
0.018340846
0.018385753
0.018429958
0.018473438
0.01851618
0.018558168
0.018599391
0.018639835
0.01867949
0.018718343
0.018756384
0.018793604
0.018829986
0.018865509
0.01890014
0.018933849
0.018966688
0.01899866
0.019029757
0.019059966
0.019089268
0.019117647
0.019145087
0.019171571
0.019197085
0.019221615
0.019245148
0.019267678
0.019289215
0.019309743
0.019329286
0.019347844
0.01936544
0.01938211
0.019397904
0.019412886
0.019427136
0.019440754
0.019453858
0.019466582
0.019479104
0.019491614
0.019504373
0.017846137
0.017889084
0.017931421
0.017973095
0.018014085
0.018054372
0.018093939
0.018132775
0.018170868
0.018208209
0.018244789
0.018280601
0.018315637
0.018349884
0.018383318
0.01841587
0.01844734
0.018478224
0.018508392
0.018537795
0.018566409
0.018594217
0.018621209
0.018647378
0.01867272
0.018697231
0.018720912
0.018743772
0.018765826
0.018787088
0.01880749
0.018827139
0.018846064
0.018864294
0.018881878
0.01889888
0.01891538
0.018931474
0.018947276
0.018962921
0.018978562
0.018994369
0.019010558
0.019027392
0.017378135
0.017418387
0.017458059
0.0174971
0.017535486
0.017573201
0.017610233
0.01764657
0.017682204
0.017717128
0.017751337
0.017784828
0.017817597
0.01784965
0.017881007
0.017911731
0.017942035
0.017971443
0.01800006
0.01802792
0.018055043
0.018081438
0.018107114
0.01813208
0.018156345
0.018179919
0.018202816
0.018225054
0.01824666
0.018267666
0.018288097
0.018307999
0.018327413
0.018346391
0.018365001
0.018383326
0.018401461
0.018419521
0.018437633
0.018455948
0.018474632
0.018493875
0.018513861
0.018534903
0.0169038
0.016941518
0.016978631
0.017015125
0.017050988
0.01708621
0.017120783
0.0171547
0.017187955
0.017220543
0.017252464
0.017283715
0.017314298
0.017344222
0.017373498
0.017402148
0.017430182
0.017457537
0.017484226
0.017510265
0.017535673
0.017560467
0.017584667
0.017608285
0.017631346
0.017653877
0.017675906
0.017697463
0.017718589
0.017739331
0.017759739
0.017779866
0.017799767
0.017819515
0.017839192
0.017858897
0.017878742
0.017898856
0.01791938
0.017940476
0.017962324
0.017985121
0.018009102
0.018034513
0.016360044
0.016396015
0.016431473
0.016466377
0.016500703
0.016534434
0.01656757
0.016600104
0.016632032
0.01666335
0.016694054
0.016724144
0.01675362
0.016782484
0.016810742
0.016838403
0.016865479
0.016891984
0.016917931
0.016943319
0.016968157
0.016992462
0.017016253
0.017039555
0.017062397
0.017084814
0.017106834
0.017128492
0.017149826
0.017170882
0.017191711
0.017212366
0.017232904
0.0172534
0.017273936
0.017294598
0.017315486
0.017336712
0.017358401
0.017380695
0.017403751
0.017427741
0.017452857
0.017479308
0.017507324
0.017537154
0.015900692
0.015933789
0.015966409
0.015998525
0.016030125
0.016061198
0.016091729
0.016121708
0.01615113
0.016179991
0.01620829
0.016236028
0.016263209
0.016289838
0.016315921
0.016341473
0.016366508
0.016391041
0.01641509
0.016438671
0.016461805
0.016484514
0.016506825
0.016528769
0.016550383
0.016571706
0.01659278
0.016613654
0.016634379
0.016655013
0.016675619
0.016696261
0.016717009
0.016737952
0.016759191
0.016780828
0.016802978
0.016825764
0.016849328
0.016873821
0.016899414
0.01692629
0.01695465
0.016984712
0.017016709
0.017050889
0.0154548
0.015485163
0.015515096
0.015544574
0.015573581
0.015602104
0.015630133
0.015657659
0.015684678
0.015711187
0.015737187
0.015762681
0.015787674
0.015812177
0.015836197
0.015859753
0.015882862
0.015905542
0.015927818
0.015949714
0.015971257
0.015992479
0.016013416
0.016034105
0.016054591
0.016074921
0.016095149
0.016115333
0.016135537
0.016155829
0.016176286
0.016196983
0.016218008
0.016239461
0.016261453
0.016284104
0.016307539
0.016331896
0.016357328
0.016383999
0.016412089
0.016441793
0.016473319
0.016506891
0.01654275
0.016581135
0.015026249
0.01505401
0.015081382
0.015108347
0.015134887
0.015160991
0.015186647
0.01521185
0.015236595
0.015260882
0.015284712
0.015308093
0.015331031
0.015353537
0.015375625
0.015397316
0.01541863
0.01543959
0.015460225
0.015480565
0.015500645
0.015520504
0.015540183
0.015559731
0.015579198
0.015598642
0.015618124
0.015637712
0.015657481
0.015677511
0.015697888
0.015718704
0.015740057
0.015762062
0.015784839
0.015808518
0.015833237
0.015859148
0.015886412
0.015915206
0.015945718
0.015978152
0.016012723
0.016049662
0.016089213
0.016131609
0.014617477
0.014642787
0.014667748
0.014692348
0.014716569
0.014740401
0.014763832
0.014786858
0.014809475
0.014831686
0.014853492
0.014874903
0.014895929
0.014916582
0.014936879
0.014956845
0.014976503
0.01499588
0.01501501
0.015033929
0.015052677
0.015071298
0.015089843
0.015108365
0.015126925
0.015145586
0.01516442
0.015183503
0.01520292
0.01522276
0.015243122
0.015264108
0.01528583
0.015308411
0.015331983
0.015356685
0.015382668
0.015410091
0.015439128
0.015469964
0.015502795
0.015537833
0.015575299
0.015615429
0.015658468
0.015704648
0.014229941
0.01425296
0.014275671
0.014298065
0.014320126
0.014341842
0.014363204
0.014384209
0.014404853
0.01442514
0.014445075
0.014464666
0.014483928
0.014502875
0.014521526
0.014539911
0.014558053
0.014575987
0.014593748
0.014611378
0.014628921
0.01464643
0.014663959
0.01468157
0.014699328
0.014717307
0.014735585
0.014754247
0.014773386
0.014793102
0.014813502
0.014834699
0.014856816
0.014879985
0.014904348
0.014930053
0.01495726
0.014986139
0.015016871
0.01504965
0.015084678
0.015122174
0.015162365
0.015205489
0.015251796
0.01530151
0.013864326
0.013885218
0.013905843
0.013926194
0.013946257
0.013966018
0.013985471
0.014004612
0.014023439
0.014041957
0.014060172
0.014078095
0.014095741
0.014113127
0.014130277
0.014147221
0.014163987
0.014180611
0.014197135
0.014213603
0.014230066
0.01424658
0.014263206
0.014280011
0.014297069
0.014314457
0.014332263
0.01435058
0.014369507
0.014389154
0.014409634
0.014431071
0.014453597
0.014477356
0.014502495
0.014529172
0.014557554
0.014587819
0.014620156
0.014654766
0.014691858
0.014731655
0.014774389
0.014820302
0.014869644
0.014922637
0.013520745
0.013539668
0.01355837
0.013576839
0.013595063
0.013613028
0.013630729
0.01364816
0.013665323
0.013682222
0.013698866
0.013715267
0.013731441
0.013747408
0.013763196
0.013778833
0.013794355
0.013809798
0.013825209
0.013840636
0.013856134
0.013871764
0.013887591
0.013903689
0.013920136
0.013937019
0.013954428
0.013972466
0.013991237
0.014010859
0.01403145
0.01405314
0.014076072
0.014100421
0.014126319
0.014153928
0.014183427
0.014215001
0.014248847
0.01428517
0.014324187
0.014366124
0.014411216
0.01445971
0.014511856
0.014567873
0.013198889
0.013215989
0.013232922
0.013249667
0.013266206
0.013282528
0.013298626
0.013314497
0.013330142
0.013345567
0.013360782
0.0133758
0.013390638
0.01340532
0.013419876
0.013434335
0.013448735
0.013463119
0.013477532
0.013492029
0.013506668
0.013521515
0.013536639
0.013552118
0.013568037
0.013584487
0.013601567
0.013619381
0.013638043
0.013657673
0.013678392
0.013700325
0.013723613
0.013748585
0.013775233
0.013803737
0.013834291
0.013867093
0.013902347
0.013940265
0.013981066
0.014024981
0.01407225
0.014123119
0.014177842
0.014236634
0.012882501
0.012898092
0.012913547
0.012928868
0.012944038
0.01295904
0.012973863
0.012988501
0.013002952
0.013017217
0.013031303
0.013045221
0.013058986
0.013072617
0.013086139
0.013099583
0.013112983
0.013126376
0.013139809
0.013153332
0.013167001
0.013180878
0.013195032
0.013209538
0.013224479
0.013239942
0.013256024
0.01327283
0.013290469
0.01330906
0.013328725
0.013349582
0.013371723
0.013395083
0.013420929
0.013448336
0.013477691
0.013509236
0.013543184
0.013579746
0.013619139
0.013661587
0.013707325
0.013756593
0.013809641
0.013866724
0.013928054
0.012603539
0.012617584
0.01263153
0.012645378
0.01265911
0.01267271
0.012686169
0.01269948
0.01271264
0.012725654
0.012738527
0.012751272
0.012763905
0.012776445
0.012788922
0.012801367
0.012813814
0.012826305
0.012838889
0.012851617
0.012864549
0.012877751
0.012891295
0.012905259
0.01291973
0.012934801
0.012950572
0.012967152
0.012984657
0.013003209
0.013022938
0.013043979
0.013066493
0.013090784
0.013116616
0.013144572
0.013174692
0.013207153
0.013242163
0.013279934
0.013320687
0.01336465
0.013412059
0.013463158
0.013518199
0.013577437
0.013641082
0.012343812
0.012356435
0.012369005
0.012381513
0.012393939
0.012406267
0.012418488
0.012430594
0.012442585
0.012454464
0.012466239
0.012477923
0.012489532
0.01250109
0.012512626
0.012524171
0.012535763
0.012547446
0.012559269
0.012571288
0.012583565
0.012596168
0.012609173
0.01262266
0.012636721
0.012651452
0.012666958
0.012683351
0.012700752
0.012719288
0.012739099
0.012760339
0.0127832
0.012807956
0.012834201
0.012862691
0.012893509
0.012926813
0.012962801
0.013001685
0.013043688
0.013089039
0.013137979
0.013190752
0.013247611
0.013308812
0.013374566
0.012102277
0.012113587
0.012124899
0.012136183
0.012147419
0.012158589
0.012169684
0.012180698
0.01219163
0.012202483
0.012213267
0.012223994
0.012234681
0.012245356
0.012256046
0.012266785
0.012277613
0.012288574
0.012299721
0.012311111
0.012322808
0.012334884
0.012347416
0.012360489
0.012374197
0.01238864
0.012403926
0.012420171
0.0124375
0.012456046
0.012475955
0.012497385
0.012520513
0.012545508
0.01257233
0.012601387
0.012632863
0.012666944
0.012703827
0.012743729
0.012786872
0.012833493
0.01288383
0.01293813
0.012996646
0.013059634
0.013127306
0.011867754
0.011877871
0.011888014
0.011898184
0.011908356
0.011918509
0.011928628
0.011938701
0.011948723
0.011958694
0.011968618
0.011978504
0.011988365
0.011998221
0.012008099
0.012018027
0.012028041
0.012038181
0.012048495
0.012059036
0.012069864
0.012081044
0.012092652
0.012104766
0.012117474
0.012130873
0.012145066
0.012160163
0.012176286
0.012193561
0.012212128
0.012232133
0.012253735
0.012277102
0.012302383
0.01232968
0.012359308
0.012391423
0.012426233
0.012463951
0.012504795
0.01254899
0.01259677
0.012648378
0.012704064
0.012764082
0.01282869
0.012898101
0.011660585
0.011669603
0.011678679
0.011687809
0.011696969
0.011706138
0.011715301
0.011724446
0.011733569
0.011742669
0.011751752
0.011760825
0.011769904
0.01177901
0.011788169
0.011797411
0.011806773
0.011816297
0.011826031
0.01183603
0.011846356
0.011857078
0.011868269
0.011880014
0.011892402
0.011905531
0.011919508
0.011934446
0.011950469
0.011967707
0.011986302
0.012006402
0.012028168
0.012051761
0.01207733
0.01210493
0.012135188
0.012167902
0.012203386
0.012241867
0.01228357
0.012328724
0.012377566
0.012430339
0.012487294
0.012548687
0.012614775
0.012685773
0.011468459
0.01147646
0.01148456
0.011492742
0.011500981
0.011509255
0.011517548
0.011525851
0.011534158
0.011542469
0.011550788
0.011559127
0.011567498
0.011575927
0.011584438
0.011593062
0.011601837
0.011610807
0.011620021
0.011629535
0.011639414
0.011649726
0.011660548
0.011671966
0.011684072
0.011696965
0.011710755
0.011725558
0.011741499
0.011758713
0.011777342
0.011797537
0.011819459
0.011843275
0.011869167
0.011897409
0.011927878
0.011961101
0.011997199
0.012036379
0.012078868
0.012124897
0.012174704
0.012228535
0.012286641
0.01234928
0.012416709
0.012489144
0.011290399
0.011297461
0.011304668
0.011311985
0.011319383
0.011326842
0.011334346
0.011341883
0.011349448
0.011357043
0.011364672
0.011372344
0.011380076
0.011387892
0.011395818
0.011403884
0.011412131
0.011420602
0.011429349
0.011438429
0.011447907
0.011457853
0.011468347
0.011479475
0.011491331
0.011504018
0.011517646
0.011532334
0.011548209
0.011565407
0.011584074
0.011604362
0.011626434
0.011650457
0.011676606
0.011704996
0.011736099
0.011769837
0.011806501
0.011846322
0.011889528
0.011936354
0.01198704
0.012041834
0.012100986
0.012164756
0.012233404
0.012307144
0.011119363
0.011125423
0.011131654
0.011138051
0.01114458
0.011151214
0.01115793
0.011164714
0.011171555
0.011178447
0.011185391
0.011192393
0.011199461
0.011206615
0.011213876
0.011221272
0.011228835
0.011236605
0.011244628
0.011252954
0.011261644
0.011270762
0.011280381
0.011290582
0.011301453
0.011313088
0.011325593
0.01133908
0.011353669
0.01136949
0.011386681
0.011405388
0.011425768
0.011447982
0.011472204
0.011498633
0.011527557
0.01155885
0.011593013
0.01163019
0.011670594
0.011714454
0.011762005
0.011813491
0.011869159
0.011929262
0.01199406
0.012063813
0.012138741
0.010967403
0.010972682
0.010978153
0.010983809
0.010989619
0.010995556
0.011001596
0.011007725
0.011013931
0.011020211
0.011026564
0.011032996
0.011039516
0.011046144
0.011052903
0.01105982
0.011066928
0.011074268
0.011081885
0.011089833
0.011098171
0.011106967
0.011116293
0.011126231
0.011136872
0.011148312
0.011160656
0.011174019
0.011188523
0.0112043
0.011221489
0.011240239
0.011260706
0.011283055
0.011307458
0.011334103
0.011363285
0.011394997
0.011429577
0.011467224
0.011508159
0.011552614
0.011600826
0.011653038
0.011709499
0.011770466
0.011836197
0.011906956
0.011982966
0.010826782
0.010831339
0.010836112
0.010841092
0.010846246
0.010851545
0.010856969
0.0108625
0.010868129
0.010873851
0.010879666
0.01088558
0.010891602
0.010897754
0.010904057
0.01091054
0.010917235
0.010924185
0.010931437
0.010939043
0.010947064
0.010955569
0.010964632
0.010974335
0.01098477
0.010996035
0.011008237
0.011021491
0.011035922
0.011051662
0.011068853
0.011087645
0.011108198
0.011130677
0.011155249
0.011182041
0.01121153
0.011243601
0.011278558
0.011316633
0.011358052
0.011403047
0.011451858
0.01150473
0.011561912
0.011623661
0.01169024
0.011761912
0.011838914
0.010696706
0.010700603
0.010704738
0.010709099
0.010713652
0.01071837
0.010723231
0.010728217
0.01073332
0.010738533
0.010743858
0.010749301
0.01075487
0.010760589
0.010766478
0.010772566
0.010778888
0.010785485
0.010792405
0.010799702
0.010807437
0.01081568
0.010824505
0.010833997
0.010844248
0.010855356
0.010867431
0.010880589
0.010894956
0.010910665
0.010927861
0.010946695
0.010967328
0.010989931
0.011014696
0.011041879
0.011071427
0.01110376
0.011139051
0.011177512
0.01121937
0.011264857
0.011314212
0.011367682
0.011425517
0.011487976
0.011555322
0.011627819
0.01170574
0.010576439
0.010579733
0.010583283
0.010587077
0.010591082
0.010595269
0.010599615
0.010604104
0.010608727
0.010613476
0.010618355
0.010623368
0.010628526
0.01063385
0.010639363
0.010645092
0.010651075
0.010657351
0.010663971
0.010670988
0.010678464
0.01068647
0.010695081
0.010704382
0.010714466
0.010725434
0.010737396
0.010750468
0.010764778
0.010780462
0.010797663
0.010816537
0.010837244
0.010859955
0.010884854
0.010912212
0.01094201
0.010974609
0.011010207
0.011049021
0.011091278
0.01113721
0.011187059
0.011241071
0.011299499
0.011362599
0.011430637
0.011503874
0.011582593
0.011667018
0.010465294
0.010468034
0.01047105
0.010474326
0.010477829
0.01048153
0.010485406
0.010489442
0.010493625
0.010497952
0.010502423
0.010507045
0.010511827
0.010516792
0.010521962
0.010527366
0.01053304
0.010539025
0.010545372
0.010552135
0.010559376
0.010567167
0.010575584
0.010584713
0.010594647
0.010605489
0.010617348
0.010630343
0.010644603
0.010660265
0.010677473
0.010696383
0.010717159
0.010739971
0.01076496
0.010792482
0.01082252
0.010855367
0.010891247
0.010930382
0.010973001
0.011019338
0.011069634
0.011124137
0.011183101
0.011246782
0.011315446
0.011389355
0.011468807
0.011554003
0.010362627
0.010364861
0.010367387
0.01037019
0.010373234
0.010376491
0.010379937
0.010383557
0.01038734
0.010391281
0.010395381
0.010399645
0.010404085
0.010408723
0.01041358
0.010418687
0.01042408
0.010429801
0.010435899
0.010442431
0.01044946
0.010457055
0.010465296
0.010474269
0.010484068
0.010494795
0.010506562
0.010519488
0.010533703
0.010549345
0.010566559
0.010585504
0.010606344
0.010629262
0.01065449
0.010682033
0.010712245
0.010745313
0.010781449
0.010820876
0.010863822
0.010910525
0.010961226
0.011016174
0.011075622
0.011139831
0.011209063
0.011283582
0.011363692
0.011449606
0.010267839
0.01026961
0.010271688
0.010274057
0.010276682
0.010279532
0.010282586
0.010285827
0.010289244
0.010292832
0.010296592
0.01030053
0.010304658
0.010308997
0.01031357
0.010318406
0.010323543
0.010329023
0.010334895
0.010341217
0.010348052
0.01035547
0.010363551
0.010372382
0.010382058
0.010392681
0.010404364
0.010417228
0.010431402
0.010447026
0.010464246
0.010483221
0.010504114
0.010527102
0.010552416
0.010580124
0.010610509
0.010643777
0.010680145
0.010719835
0.010763078
0.010810112
0.010861179
0.010916529
0.010976417
0.011041102
0.01111085
0.011185923
0.011266631
0.011353193
0.010180373
0.010181721
0.010183389
0.010185361
0.010187602
0.010190081
0.010192776
0.01019567
0.010198752
0.010202017
0.010205467
0.010209107
0.01021295
0.010217017
0.01022133
0.010225919
0.010230823
0.010236083
0.01024175
0.01024788
0.010254538
0.010261795
0.010269731
0.010278433
0.010287996
0.010298525
0.010310132
0.010322939
0.010337076
0.010352683
0.010369909
0.010388911
0.010409852
0.01043288
0.010458297
0.010486149
0.010516691
0.010550141
0.010586718
0.010626646
0.010670157
0.01071749
0.010768887
0.010824601
0.010884885
0.010950002
0.011020216
0.011095793
0.011177042
0.01126419
0.010099711
0.010100671
0.010101964
0.010103574
0.010105463
0.010107603
0.010109969
0.010112546
0.010115322
0.010118293
0.010121459
0.010124828
0.010128409
0.010132227
0.010136303
0.010140668
0.010145358
0.010150418
0.010155897
0.010161853
0.01016835
0.01017546
0.010183264
0.010191848
0.010201309
0.010211751
0.010223289
0.010236044
0.010250147
0.010265738
0.010282968
0.010301996
0.010322992
0.010346154
0.010371581
0.010399538
0.010430218
0.010463831
0.010500596
0.010540739
0.010584492
0.010632094
0.01068379
0.010739831
0.010800474
0.01086598
0.010936616
0.011012648
0.011094389
0.011182066
0.01002537
0.010025975
0.010026926
0.010028205
0.010029773
0.010031601
0.010033667
0.010035954
0.01003845
0.010041152
0.01004406
0.01004718
0.010050523
0.010054114
0.010057973
0.010062132
0.010066629
0.010071505
0.010076813
0.01008261
0.01008896
0.010095937
0.010103619
0.010112096
0.010121464
0.010131827
0.010143301
0.010156008
0.01017008
0.010185656
0.010202889
0.010221937
0.010242972
0.010266193
0.010291696
0.010319755
0.010350559
0.010384319
0.010421253
0.010461589
0.010505559
0.010553404
0.010605369
0.010661705
0.010722671
0.010788528
0.010859545
0.01093599
0.011018175
0.011106331
0.0099569029
0.0099571845
0.009957823
0.0099587982
0.0099600729
0.0099616175
0.0099634088
0.0099654302
0.009967671
0.0099701264
0.0099727975
0.0099756904
0.0099788166
0.0099821995
0.0099858613
0.0099898328
0.0099941516
0.0099988615
0.010004013
0.010009665
0.010015881
0.010022735
0.010030307
0.010038686
0.010047968
0.01005826
0.010069676
0.010082338
0.01009638
0.010111943
0.010129177
0.010148241
0.010169305
0.01019256
0.010218154
0.010246307
0.010277222
0.010311114
0.010348201
0.01038871
0.010432876
0.010480939
0.010533145
0.010589747
0.010651004
0.010717178
0.010788539
0.010865355
0.010947943
0.011036532
0.0098938948
0.0098938804
0.0098942339
0.0098949324
0.0098959389
0.0098972237
0.009898764
0.0099005431
0.0099025502
0.0099047807
0.0099072355
0.0099099213
0.0099128488
0.0099160421
0.0099195234
0.0099233236
0.0099274805
0.009932038
0.0099370472
0.0099425661
0.0099486602
0.0099554023
0.0099628735
0.0099711626
0.0099803672
0.0099905931
0.010001955
0.010014577
0.010028592
0.010044141
0.010061376
0.010080455
0.010101542
0.010124841
0.010150505
0.01017874
0.010209756
0.010243765
0.010280989
0.010321654
0.010365995
0.010414253
0.010466677
0.010523518
0.010585036
0.010651495
0.010723166
0.010800317
0.010883267
0.010972248
0.009835961
0.0098356755
0.0098357695
0.0098362153
0.0098369767
0.0098380243
0.0098393352
0.0098408928
0.0098426865
0.0098447115
0.0098469689
0.0098494655
0.0098522116
0.0098552318
0.0098585483
0.0098621922
0.0098662013
0.0098706198
0.0098754989
0.0098808968
0.0098868792
0.0098935193
0.0099008984
0.0099091057
0.0099182388
0.0099284043
0.0099397172
0.0099523016
0.0099662908
0.0099818272
0.0099990625
0.010018156
0.010039266
0.010062607
0.010088326
0.010116635
0.010147739
0.010181854
0.010219199
0.010260004
0.010304502
0.010352936
0.010405554
0.01046261
0.010524363
0.010591078
0.010663027
0.01074048
0.010823757
0.010913091
0.0097827463
0.0097822113
0.0097820684
0.0097822835
0.0097828209
0.0097836517
0.0097847531
0.0097861086
0.0097877074
0.0097895448
0.009791622
0.0097939459
0.0097965265
0.0097993888
0.0098025549
0.0098060562
0.0098099305
0.0098142221
0.0098189825
0.00982427
0.0098301506
0.0098366976
0.0098439925
0.0098521249
0.0098611928
0.0098713029
0.0098825705
0.0098951202
0.0099090855
0.0099246094
0.0099418442
0.0099609527
0.009982113
0.010005462
0.010031228
0.010059601
0.010090785
0.010124993
0.010162448
0.010203377
0.010248016
0.010296607
0.010349399
0.010406647
0.010468611
0.010535556
0.010607753
0.010685478
0.010769049
0.010858702
0.0097339214
0.0097331558
0.0097327954
0.0097327994
0.0097331323
0.0097337652
0.0097346755
0.0097358464
0.0097372674
0.0097389338
0.0097408466
0.009743013
0.0097454428
0.0097481609
0.00975119
0.0097545612
0.0097583126
0.0097624886
0.0097671408
0.0097723276
0.0097781152
0.0097845773
0.0097917954
0.0097998594
0.0098088676
0.0098189268
0.0098301529
0.0098426705
0.0098566135
0.0098721252
0.0098893582
0.0099084755
0.009929654
0.0099530369
0.009978848
0.010007278
0.010038533
0.010072825
0.010110377
0.010151417
0.010196181
0.010244913
0.010297861
0.010355281
0.010417433
0.010484583
0.010557004
0.010634972
0.010718806
0.010808745
0.0096950357
0.009692517
0.0096905964
0.0096891689
0.0096881979
0.0096876387
0.0096874499
0.0096875961
0.0096880486
0.0096887845
0.0096897873
0.0096910463
0.0096925567
0.0096943197
0.0096963425
0.0096986351
0.0097012217
0.009704126
0.0097073788
0.0097110182
0.0097150889
0.0097196424
0.0097247375
0.0097304405
0.0097368251
0.0097439731
0.0097519747
0.0097609283
0.009770941
0.0097821288
0.0097946167
0.009808539
0.0098240389
0.0098412692
0.0098603924
0.0098815801
0.0099049998
0.009930852
0.0099593337
0.0099906508
0.010025017
0.010062656
0.010103795
0.010148671
0.010197528
0.010250616
0.010308189
0.010370508
0.010437842
0.010510463
0.010588647
0.010672717
0.010762914
0.0096580959
0.0096547068
0.0096519702
0.009649831
0.0096482084
0.0096470499
0.009646309
0.0096459443
0.0096459204
0.0096462084
0.0096467856
0.0096476353
0.0096487467
0.0096501151
0.0096517418
0.0096536339
0.0096558016
0.0096582686
0.0096610593
0.0096642043
0.0096677418
0.0096717166
0.0096761804
0.009681192
0.0096868179
0.0096931319
0.0097002161
0.0097081607
0.0097170644
0.0097270345
0.0097381873
0.0097506479
0.0097645508
0.0097800394
0.0097972667
0.0098163949
0.0098375949
0.0098610425
0.0098869306
0.0099154578
0.0099468304
0.0099812631
0.010018978
0.010060205
0.010105182
0.01015415
0.010207362
0.010265071
0.01032754
0.010395037
0.010467836
0.010546213
0.010630494
0.010720919
0.0096214263
0.0096178375
0.0096149061
0.009612576
0.0096107744
0.0096094443
0.0096085377
0.0096080127
0.009607834
0.0096079724
0.0096084052
0.0096091156
0.0096100928
0.0096113322
0.0096128349
0.0096146082
0.0096166625
0.0096190207
0.0096217081
0.0096247552
0.0096282001
0.0096320878
0.00963647
0.0096414057
0.0096469614
0.0096532113
0.0096602374
0.0096681301
0.0096769883
0.0096869196
0.0096980402
0.0097104757
0.0097243605
0.0097398385
0.0097570626
0.009776195
0.0097974072
0.0098208777
0.0098467971
0.0098753642
0.009906786
0.0099412772
0.0099790605
0.010020366
0.010065431
0.010114499
0.01016782
0.010225651
0.010288253
0.010355895
0.010428851
0.0105074
0.010591867
0.010682497
0.0095879627
0.0095841926
0.0095810851
0.0095785839
0.0095766192
0.0095751327
0.0095740752
0.0095734045
0.009573085
0.0095730876
0.0095733893
0.0095739732
0.0095748286
0.0095759509
0.0095773411
0.0095790065
0.0095809578
0.0095832174
0.0095858111
0.0095887693
0.0095921302
0.0095959388
0.009600247
0.0096051138
0.0096106059
0.0096167975
0.0096237708
0.0096316163
0.0096404331
0.0096503289
0.0096614201
0.0096738325
0.0096877007
0.0097031686
0.0097203894
0.0097395254
0.0097607486
0.0097842384
0.0098101851
0.0098387874
0.0098702525
0.0099047954
0.0099426391
0.0099840138
0.010029157
0.010078313
0.010131732
0.01018967
0.01025239
0.010320161
0.010393256
0.010471956
0.010556587
0.010647398
0.0095574805
0.0095535471
0.0095502807
0.0095476255
0.0095455129
0.0095438842
0.0095426897
0.0095418869
0.0095414398
0.0095413192
0.009541502
0.0095419713
0.0095427164
0.0095437325
0.0095450208
0.0095465885
0.0095484466
0.0095506168
0.0095531255
0.0095560032
0.009559288
0.009563025
0.0095672662
0.0095720706
0.009577505
0.0095836437
0.0095905691
0.0095983719
0.009607151
0.0096170145
0.0096280789
0.0096404701
0.009654323
0.0096697815
0.009686999
0.0097061378
0.0097273706
0.0097508771
0.0097768474
0.0098054806
0.0098369838
0.0098715724
0.0099094694
0.0099509054
0.009996118
0.010045352
0.010098857
0.01015689
0.010219715
0.010287599
0.010360817
0.010439649
0.010524424
0.010615393
0.0095297715
0.0095256914
0.0095222819
0.009519488
0.0095172418
0.0095154845
0.0095141661
0.0095132436
0.0095126811
0.009512449
0.0095125243
0.00951289
0.0095135353
0.0095144554
0.0095156515
0.0095171308
0.0095189047
0.009520994
0.0095234261
0.009526231
0.009529447
0.0095331193
0.0095372998
0.0095420479
0.0095474301
0.009553521
0.0095604031
0.0095681671
0.0095769121
0.0095867463
0.0095977864
0.0096101582
0.0096239969
0.0096394467
0.0096566608
0.0096758021
0.009697043
0.0097205637
0.0097465547
0.0097752148
0.0098067516
0.0098413803
0.0098793244
0.0099208144
0.0099660882
0.01001539
0.010068972
0.01012709
0.010190006
0.010257989
0.010331314
0.010410262
0.010495163
0.010586268
0.0095046426
0.0095004308
0.0094968928
0.0094939743
0.0094916077
0.0094897343
0.009488304
0.0094872735
0.0094866068
0.0094862742
0.0094862525
0.0094865247
0.00948708
0.0094879135
0.0094890265
0.0094904261
0.009492124
0.0094941404
0.0094965033
0.0094992426
0.0095023966
0.0095060106
0.0095101364
0.0095148336
0.0095201688
0.0095262166
0.0095330596
0.0095407885
0.0095495028
0.0095593104
0.0095703283
0.0095826826
0.0095965083
0.0096119499
0.0096291609
0.009648304
0.0096695517
0.0096930848
0.0097190936
0.0097477774
0.0097793435
0.0098140075
0.0098519928
0.0098935303
0.0099388581
0.0099882207
0.010041869
0.010100061
0.010163058
0.010231128
0.010304547
0.010383595
0.010468603
0.010559824
0.0094819141
0.0094775842
0.0094739312
0.0094709008
0.0094684261
0.0094664484
0.0094649173
0.0094637897
0.0094630293
0.0094626062
0.0094624973
0.0094626853
0.0094631596
0.0094639153
0.0094649535
0.0094662815
0.009467911
0.0094698618
0.0094721625
0.0094748428
0.0094779411
0.0094815026
0.0094855794
0.0094902308
0.0094955237
0.0095015327
0.0095083405
0.009516038
0.0095247245
0.0095345081
0.0095455061
0.0095578443
0.0095716582
0.0095870923
0.0096043002
0.0096234448
0.0096446981
0.0096682417
0.0096942661
0.0097229704
0.0097545621
0.0097892569
0.0098272784