/*--------------------------------*- C++ -*----------------------------------*\
| =========                 |                                                 |
| \\      /  F ield         | OpenFOAM: The Open Source CFD Toolbox           |
|  \\    /   O peration     | Version:  2312                                  |
|   \\  /    A nd           | Website:  www.openfoam.com                      |
|    \\/     M anipulation  |                                                 |
\*---------------------------------------------------------------------------*/
FoamFile
{
    version     2.0;
    format      ascii;
    arch        "LSB;label=32;scalar=64";
    class       volScalarField;
    location    "0.01";
    object      CO2;
}
// * * * * * * * * * * * * * * * * * * * * * * * * * * * * * * * * * * * * * //

dimensions      [0 0 0 0 0 0 0];

internalField   nonuniform List<scalar> 
3250
(
4.4993021e-06
3.6685383e-06
2.9853034e-06
2.4244517e-06
1.9650294e-06
1.5894922e-06
1.2831727e-06
1.0338386e-06
8.31313e-07
6.671507e-07
5.343601e-07
4.2716721e-07
3.4081495e-07
2.7139333e-07
2.1569618e-07
1.7110052e-07
1.3546547e-07
1.0704764e-07
8.443053e-08
6.6465837e-08
5.2224774e-08
4.0957766e-08
3.206121e-08
2.5050114e-08
1.9535644e-08
1.5206729e-08
1.1815051e-08
9.1628042e-09
7.0927617e-09
5.4802124e-09
4.2264283e-09
3.2534544e-09
2.4998306e-09
1.9172117e-09
1.4676474e-09
1.1214074e-09
8.5524716e-10
6.5102886e-10
4.9471764e-10
3.7520084e-10
2.8399508e-10
2.1455021e-10
1.6177671e-10
1.2175233e-10
4.7174017e-06
3.8457688e-06
3.1290339e-06
2.5407758e-06
2.0589824e-06
1.6652242e-06
1.344096e-06
1.0827519e-06
8.7050678e-07
6.9849481e-07
5.5937785e-07
4.4709678e-07
3.5666056e-07
2.8396766e-07
2.256555e-07
1.7897364e-07
1.4167761e-07
1.1193997e-07
8.8276218e-08
6.9483151e-08
5.4587742e-08
4.2804862e-08
3.350239e-08
2.6172514e-08
2.0408172e-08
1.5883773e-08
1.2339451e-08
9.5682401e-09
7.4056704e-09
5.7213807e-09
4.4117953e-09
3.3957274e-09
2.6088402e-09
2.0005867e-09
1.5313022e-09
1.1699191e-09
8.9215155e-10
6.7905181e-10
5.1596325e-10
3.9128107e-10
2.9614036e-10
2.2370558e-10
1.6866316e-10
1.2692037e-10
5.1359958e-06
4.1859358e-06
3.4049319e-06
2.7640965e-06
2.2393814e-06
1.8106592e-06
1.46111e-06
1.1767122e-06
9.4580647e-07
7.5872139e-07
6.0745441e-07
4.8539976e-07
3.8711772e-07
3.0813941e-07
2.4480211e-07
1.9411084e-07
1.5362225e-07
1.2134756e-07
9.5671674e-08
7.5285938e-08
5.913235e-08
4.6357467e-08
3.6274376e-08
2.8331408e-08
2.2086477e-08
1.7186077e-08
1.3348142e-08
1.0348088e-08
8.0074762e-09
6.1847645e-09
4.7682515e-09
3.6693413e-09
2.818476e-09
2.1609146e-09
1.6536995e-09
1.2631916e-09
9.6310108e-10
7.3292081e-10
5.5679082e-10
4.2218812e-10
3.1948187e-10
2.4130189e-10
1.8190395e-10
1.3686523e-10
5.74608e-06
4.6817872e-06
3.8071531e-06
3.0897091e-06
2.5024453e-06
2.022763e-06
1.631784e-06
1.3137756e-06
1.0556603e-06
8.4659372e-07
6.776058e-07
5.4129456e-07
4.3156665e-07
3.4341791e-07
2.7274825e-07
2.1620621e-07
1.7105852e-07
1.3508111e-07
1.0646841e-07
8.3757905e-08
6.5767647e-08
5.1544548e-08
4.0321761e-08
3.1483635e-08
2.4536978e-08
1.9087547e-08
1.4820876e-08
1.1486664e-08
8.8861003e-09
6.8615942e-09
5.2886252e-09
4.0687268e-09
3.1244481e-09
2.3948989e-09
1.8323111e-09
1.3992904e-09
1.0666234e-09
8.1153563e-10
6.1630846e-10
4.6724543e-10
3.5351512e-10
2.6695613e-10
2.012059e-10
1.5136092e-10
6.5436813e-06
5.3301209e-06
4.3331189e-06
3.5155385e-06
2.8465052e-06
2.3001952e-06
1.8550424e-06
1.4930802e-06
1.1993784e-06
9.6156046e-07
7.69392e-07
6.1443051e-07
4.8972831e-07
3.8958144e-07
3.0931807e-07
2.4512066e-07
1.9387684e-07
1.5305455e-07
1.2059886e-07
9.4846021e-08
7.4451984e-08
5.8333378e-08
4.5618826e-08
3.5608988e-08
2.7743807e-08
2.1575735e-08
1.67479e-08
1.2976346e-08
1.0035622e-08
7.7471054e-09
5.9693269e-09
4.5910696e-09
3.5245607e-09
2.7008332e-09
2.0658135e-09
1.5771885e-09
1.2019136e-09
9.1423296e-10
6.941075e-10
5.2608457e-10
3.9796734e-10
3.0045427e-10
2.2640389e-10
1.7028048e-10
7.5278088e-06
6.130142e-06
4.982188e-06
4.0410662e-06
3.2711411e-06
2.6426148e-06
2.1306085e-06
1.7144012e-06
1.3767784e-06
1.1034736e-06
8.8269298e-07
7.0471036e-07
5.6152392e-07
4.465663e-07
3.5446023e-07
2.8081347e-07
2.2204647e-07
1.7524434e-07
1.3804447e-07
1.0853523e-07
8.5172972e-08
6.6713697e-08
5.2157075e-08
4.0700454e-08
3.1701203e-08
2.4645927e-08
1.9125369e-08
1.4813986e-08
1.1453378e-08
8.8388442e-09
6.8085887e-09
5.2350342e-09
4.0177672e-09
3.0778882e-09
2.353548e-09
1.796364e-09
1.368564e-09
1.0407187e-09
7.8994449e-10
5.984839e-10
4.5264993e-10
3.4166655e-10
2.5739834e-10
1.9354637e-10
8.6986662e-06
7.0820232e-06
5.7544855e-06
4.6663811e-06
3.7764148e-06
3.0500635e-06
2.4585091e-06
1.9777549e-06
1.5878687e-06
1.2723362e-06
1.0175082e-06
8.1213109e-07
6.4694889e-07
5.1436684e-07
4.0816851e-07
3.2327955e-07
2.5557455e-07
2.0165577e-07
1.5880684e-07
1.2482439e-07
9.7927882e-08
7.6682107e-08
5.9932996e-08
4.6754709e-08
3.6406169e-08
2.8295504e-08
2.1951036e-08
1.6997679e-08
1.3137778e-08
1.0135651e-08
7.805321e-09
5.9997168e-09
4.6033299e-09
3.5254617e-09
2.6950242e-09
2.0564182e-09
1.5662499e-09
1.19072e-09
9.0355605e-10
6.8437666e-10
5.1739998e-10
3.9048463e-10
2.9410428e-10
2.2109082e-10
1.0056106e-05
8.1857134e-06
6.6499356e-06
5.3913968e-06
4.3622402e-06
3.5224601e-06
2.8386701e-06
2.2830746e-06
1.8325905e-06
1.4680966e-06
1.1737924e-06
9.3665337e-07
7.4596903e-07
5.9295273e-07
4.7041252e-07
3.7247316e-07
2.9433815e-07
2.3215623e-07
1.8276509e-07
1.4361052e-07
1.1263181e-07
8.8169776e-08
6.889134e-08
5.37277e-08
4.1823757e-08
3.2496855e-08
2.5203184e-08
1.9510459e-08
1.5075767e-08
1.1627651e-08
8.9516944e-09
6.8789172e-09
5.2764066e-09
4.0398068e-09
3.0873582e-09
2.3551402e-09
1.7932818e-09
1.3629519e-09
1.0339756e-09
7.8295171e-10
5.9176891e-10
4.464363e-10
3.3620702e-10
2.5267848e-10
1.159424e-05
9.4364772e-06
7.6645475e-06
6.2126906e-06
5.0256851e-06
4.0573076e-06
3.2689777e-06
2.628581e-06
2.1094536e-06
1.6895128e-06
1.3505152e-06
1.0774259e-06
8.5788414e-07
6.8175192e-07
5.4073367e-07
4.2805716e-07
3.3820742e-07
2.6670767e-07
2.0992383e-07
1.6491674e-07
1.2931448e-07
1.0120723e-07
7.9060684e-08
6.1644917e-08
4.7975976e-08
3.7268538e-08
2.8897155e-08
2.2364758e-08
1.7277133e-08
1.3322276e-08
1.0253778e-08
7.8775222e-09
6.0408415e-09
4.6238979e-09
3.532824e-09
2.6942512e-09
2.0509511e-09
1.5583746e-09
1.1819124e-09
8.9473045e-10
6.7606403e-10
5.0987438e-10
3.838686e-10
2.884335e-10
1.9984776e-05
1.6327431e-05
1.3313668e-05
1.0834169e-05
8.7985132e-06
7.1308665e-06
5.7676363e-06
4.655643e-06
3.7505203e-06
3.0153462e-06
2.4194705e-06
1.937513e-06
1.5485084e-06
1.2351811e-06
9.8332961e-07
7.8130806e-07
6.1958838e-07
4.9039371e-07
3.8739144e-07
3.0543739e-07
2.4036145e-07
1.887909e-07
1.4800416e-07
1.1581005e-07
9.0448349e-08
7.0508124e-08
5.4861106e-08
4.2606851e-08
3.3028294e-08
2.5555641e-08
1.9737087e-08
1.5215159e-08
1.1707642e-08
8.9921203e-09
6.8937426e-09
5.2753216e-09
4.0294329e-09
3.0721302e-09
2.3379486e-09
1.7759398e-09
1.3465327e-09
1.0190545e-09
7.69777e-10
5.8038422e-10
4.3677772e-10
3.28112e-10
2.2837218e-05
1.8657249e-05
1.5211995e-05
1.2377575e-05
1.0050713e-05
8.1446708e-06
6.5867358e-06
5.3160757e-06
4.2819368e-06
3.4420831e-06
2.7614562e-06
2.2110282e-06
1.7668239e-06
1.4090893e-06
1.121588e-06
8.9100696e-07
7.0645559e-07
5.5904625e-07
4.415427e-07
3.4806701e-07
2.7385537e-07
2.150557e-07
1.6856015e-07
1.3186694e-07
1.0296671e-07
8.0249084e-08
6.2426393e-08
4.8471193e-08
3.7565462e-08
2.905931e-08
2.2437534e-08
1.7292589e-08
1.3302785e-08
1.0214642e-08
7.8289229e-09
5.9893484e-09
4.5735772e-09
3.4860289e-09
2.6521829e-09
2.0140572e-09
1.5266288e-09
1.1550079e-09
8.7221141e-10
6.5741298e-10
4.945699e-10
3.7140579e-10
2.5941129e-05
2.1191115e-05
1.7276244e-05
1.4055685e-05
1.1412065e-05
9.2467748e-06
7.4771221e-06
6.0339394e-06
4.8595232e-06
3.905858e-06
3.1330911e-06
2.5082279e-06
2.0040192e-06
1.5980158e-06
1.271768e-06
1.0101494e-06
8.0078767e-07
6.3358708e-07
5.0032871e-07
3.9433718e-07
3.1020312e-07
2.4355311e-07
1.9085921e-07
1.4928195e-07
1.1654105e-07
9.0809362e-08
7.062604e-08
5.4825678e-08
4.2480565e-08
3.2853804e-08
2.5361322e-08
1.954118e-08
1.5028808e-08
1.1537023e-08
8.8401333e-09
6.7611417e-09
5.161519e-09
3.9330632e-09
2.9914323e-09
2.2710181e-09
1.7208881e-09
1.3015826e-09
9.8259163e-10
7.403715e-10
5.5678938e-10
4.1798479e-10
2.9275741e-05
2.3913013e-05
1.9493505e-05
1.5858076e-05
1.2874146e-05
1.0430336e-05
8.4332376e-06
6.8047274e-06
5.4796322e-06
4.4037252e-06
3.5320009e-06
2.8272018e-06
2.2585603e-06
1.800731e-06
1.4328858e-06
1.1379498e-06
9.0195859e-07
7.135183e-07
5.6335439e-07
4.4393486e-07
3.4915698e-07
2.7408734e-07
2.1474684e-07
1.6793333e-07
1.3107564e-07
1.0211384e-07
7.9401225e-08
6.162432e-08
4.7737714e-08
3.6911155e-08
2.8486687e-08
2.1944021e-08
1.68726e-08
1.2949118e-08
9.9195339e-09
7.5846522e-09
5.7885986e-09
4.4096498e-09
3.3529461e-09
2.5447145e-09
1.9276978e-09
1.4575468e-09
1.0999796e-09
8.2854793e-10
6.2288781e-10
4.6743646e-10
3.2817847e-05
2.6804031e-05
2.1848321e-05
1.7772109e-05
1.4426645e-05
1.1686963e-05
9.4482698e-06
7.6229191e-06
6.1377991e-06
4.9320806e-06
3.9552821e-06
3.1656153e-06
2.5285738e-06
2.0157345e-06
1.6037419e-06
1.2734511e-06
1.0092061e-06
7.9823406e-07
6.3013912e-07
4.9647954e-07
3.904162e-07
3.0642111e-07
2.4003615e-07
1.8767412e-07
1.4645511e-07
1.1407213e-07
8.8681267e-08
6.8811945e-08
5.3293904e-08
4.1197888e-08
3.1787605e-08
2.4480914e-08
1.8818537e-08
1.4438872e-08
1.1057842e-08
8.4527415e-09
6.4493339e-09
4.9115854e-09
3.7335066e-09
2.8326876e-09
2.1451823e-09
1.6214728e-09
1.2232906e-09
9.2111967e-10
6.9223994e-10
5.192885e-10
3.6540582e-05
2.9842196e-05
2.4322719e-05
1.978311e-05
1.60576e-05
1.300693e-05
1.0514324e-05
8.4821195e-06
6.8288539e-06
5.4867531e-06
4.399576e-06
3.5207694e-06
2.811895e-06
2.2412934e-06
1.782952e-06
1.4155495e-06
1.1216518e-06
8.870367e-07
7.001299e-07
5.5153366e-07
4.3363527e-07
3.4028209e-07
2.6651286e-07
2.0833607e-07
1.6254757e-07
1.2658105e-07
9.8385581e-08
7.6325734e-08
5.9100263e-08
4.5676059e-08
3.5234676e-08
2.7129128e-08
2.0849061e-08
1.5992743e-08
1.2244632e-08
9.3574001e-09
7.1375842e-09
5.4341709e-09
4.1295249e-09
3.1322014e-09
2.37126e-09
1.7917796e-09
1.3513265e-09
1.0171802e-09
7.6416066e-10
5.7302435e-10
4.041404e-05
3.3003151e-05
2.6896764e-05
2.1874805e-05
1.7753754e-05
1.4379457e-05
1.1622654e-05
9.3752475e-06
7.5470747e-06
6.0631285e-06
4.8611692e-06
3.8896814e-06
3.106133e-06
2.4754951e-06
1.968989e-06
1.5630282e-06
1.238328e-06
9.7915817e-07
7.727183e-07
6.0861625e-07
4.7843466e-07
3.7537139e-07
2.9394207e-07
2.2973487e-07
1.7920873e-07
1.3952783e-07
1.084262e-07
8.4097201e-08
6.5103564e-08
5.0304372e-08
3.8795922e-08
2.9863948e-08
2.2945119e-08
1.7596072e-08
1.3468647e-08
1.029e-08
7.8467484e-09
5.9723656e-09
4.5371591e-09
3.4403333e-09
2.603712e-09
1.9667861e-09
1.4828159e-09
1.11577e-09
8.3792731e-10
6.2810064e-10
4.4405899e-05
3.626089e-05
2.9549189e-05
2.4029824e-05
1.950096e-05
1.5793047e-05
1.2763936e-05
1.0294756e-05
8.2863656e-06
6.6562933e-06
5.3361091e-06
4.2691785e-06
3.408746e-06
2.7163073e-06
2.1602313e-06
1.7145959e-06
1.3582085e-06
1.0737845e-06
8.4726007e-07
6.6721834e-07
5.2441313e-07
4.1137329e-07
3.2207583e-07
2.5167622e-07
1.9628658e-07
1.527938e-07
1.1871068e-07
9.2054452e-08
7.1248011e-08
5.5039615e-08
4.2437947e-08
3.2659634e-08
2.508693e-08
1.923364e-08
1.4718202e-08
1.1241592e-08
8.5699892e-09
6.5209569e-09
4.9524434e-09
3.7540726e-09
2.8402571e-09
2.1447675e-09
1.6164578e-09
1.2159096e-09
9.1280393e-10
6.8396553e-10
4.8482288e-05
3.9588077e-05
3.2257921e-05
2.6230217e-05
2.128461e-05
1.7235834e-05
1.3928549e-05
1.1232862e-05
9.0404441e-06
7.2611861e-06
5.8203269e-06
4.6559961e-06
3.71712e-06
2.9616414e-06
2.3550135e-06
1.8689272e-06
1.4802408e-06
1.1700817e-06
9.2309546e-07
7.2681918e-07
5.7116042e-07
4.4796528e-07
3.5066112e-07
2.7396199e-07
2.1362632e-07
1.6625824e-07
1.2914504e-07
1.0012451e-07
7.7477047e-08
5.9838053e-08
4.6127027e-08
3.5490304e-08
2.7254844e-08
2.0890215e-08
1.5981574e-08
1.22032e-08
9.3004564e-09
7.0747305e-09
5.3714179e-09
4.0704183e-09
3.0786263e-09
2.3240118e-09
1.7509631e-09
1.3166309e-09
9.880651e-10
7.4007694e-10
6.4310829e-05
5.2614668e-05
4.2958473e-05
3.5001005e-05
2.8458001e-05
2.3090061e-05
1.8695926e-05
1.5106859e-05
1.2181776e-05
9.803025e-06
7.8727465e-06
6.3097565e-06
5.0468742e-06
4.0286466e-06
3.2094147e-06
2.551676e-06
2.0247025e-06
1.6033776e-06
1.2672202e-06
9.9956903e-07
7.8690183e-07
6.182697e-07
4.8482781e-07
3.7944747e-07
2.9639626e-07
2.31075e-07
1.7980201e-07
1.3963669e-07
1.0823553e-07
8.3735058e-08
6.4656736e-08
4.9830086e-08
3.8330708e-08
2.943103e-08
2.255099e-08
1.7247312e-08
1.3166075e-08
1.0031489e-08
7.6286267e-09
5.7902476e-09
4.3864702e-09
3.3166308e-09
2.5028711e-09
1.885094e-09
1.4170059e-09
1.063017e-09
7.9591669e-10
6.9392381e-05
5.6767897e-05
4.6345209e-05
3.7756778e-05
3.0695573e-05
2.4903011e-05
2.0161721e-05
1.6289472e-05
1.313391e-05
1.056799e-05
8.4860516e-06
6.8004453e-06
5.4386458e-06
4.3407938e-06
3.4576069e-06
2.7486103e-06
2.1806438e-06
1.7266057e-06
1.3643984e-06
1.0760477e-06
8.4696744e-07
6.6534872e-07
5.2165309e-07
4.0819386e-07
3.1879071e-07
2.4848578e-07
1.9331085e-07
1.5009689e-07
1.1631878e-07
8.9968891e-08
6.9454615e-08
5.3515308e-08
4.1155211e-08
3.1588658e-08
2.4200446e-08
1.8504335e-08
1.4121903e-08
1.0756792e-08
8.1778771e-09
6.2053263e-09
4.6995065e-09
3.5522212e-09
2.6798055e-09
2.0176963e-09
1.5161719e-09
1.1370162e-09
8.5100639e-10
7.4461831e-05
6.0911305e-05
4.9723119e-05
4.0504679e-05
3.2926188e-05
2.6709854e-05
2.1622188e-05
1.7467464e-05
1.4082056e-05
1.1329532e-05
9.0964337e-06
7.2886488e-06
5.8283131e-06
4.6511667e-06
3.7043088e-06
2.9442975e-06
2.3355453e-06
1.8489698e-06
1.4608612e-06
1.1519359e-06
9.0654729e-07
7.1202931e-07
5.5815257e-07
4.3667462e-07
3.409692e-07
2.657215e-07
2.0667816e-07
1.6044299e-07
1.2431027e-07
9.6129129e-08
7.4193573e-08
5.7153378e-08
4.3942061e-08
3.3718591e-08
2.5826208e-08
1.9742667e-08
1.5063068e-08
1.1470594e-08
8.7181185e-09
6.613361e-09
5.0070472e-09
3.7835338e-09
2.853418e-09
2.1477252e-09
1.6133496e-09
1.2094833e-09
9.0491665e-10
7.9483541e-05
6.5015728e-05
5.3068699e-05
4.32256e-05
3.5134298e-05
2.8497963e-05
2.3067095e-05
1.8632562e-05
1.5019542e-05
1.208228e-05
9.699577e-06
7.7709074e-06
6.2131092e-06
4.9575568e-06
3.9477616e-06
3.13734e-06
2.4882988e-06
1.9695931e-06
1.5559161e-06
1.2266881e-06
9.6521238e-07
7.5797492e-07
5.9406277e-07
4.6468393e-07
3.6277134e-07
2.8265739e-07
2.1980713e-07
1.7060003e-07
1.3215209e-07
1.0217112e-07
7.88393e-08
6.0718134e-08
4.6671739e-08
3.5805277e-08
2.7417108e-08
2.0953538e-08
1.5982827e-08
1.2167773e-08
9.2454783e-09
7.0114335e-09
5.306899e-09
4.0089245e-09
3.0224791e-09
2.274264e-09
1.7078571e-09
1.2799126e-09
9.5727354e-10
0.00010301868
8.4431595e-05
6.9056149e-05
5.6360833e-05
4.5902227e-05
3.7305809e-05
3.02559e-05
2.4487182e-05
1.9777286e-05
1.5940338e-05
1.2821386e-05
1.0291592e-05
8.2441067e-06
6.5905457e-06
5.2579806e-06
4.1863875e-06
3.3264852e-06
2.6379121e-06
2.0876914e-06
1.648945e-06
1.2998177e-06
1.0225808e-06
8.0288631e-07
6.291498e-07
4.9203937e-07
3.8405512e-07
2.991832e-07
2.3261233e-07
1.8050196e-07
1.3979332e-07
1.0805571e-07
8.3361789e-08
6.4186687e-08
4.932664e-08
3.7833606e-08
2.8962998e-08
2.2129323e-08
1.6875364e-08
1.2843914e-08
9.7566234e-09
7.3970371e-09
5.5971829e-09
4.2269886e-09
3.1859417e-09
2.3965337e-09
1.799117e-09
1.3478776e-09
1.0077624e-09
0.00010893608
8.9273796e-05
7.3008928e-05
5.9580559e-05
4.8519173e-05
3.9428233e-05
3.1973547e-05
2.587427e-05
2.0895037e-05
1.6839134e-05
1.3542583e-05
1.0869059e-05
8.7055132e-06
6.9584417e-06
5.5507016e-06
4.418807e-06
3.51064e-06
2.7835208e-06
2.2025826e-06
1.7394106e-06
1.3709028e-06
1.0783217e-06
8.4650481e-07
6.6321178e-07
5.1858376e-07
4.0469847e-07
3.1520432e-07
2.4502061e-07
1.9009236e-07
1.4719054e-07
1.1374957e-07
8.7735521e-08
6.7539491e-08
5.1891639e-08
3.9792055e-08
3.0455687e-08
2.3263517e-08
1.7735779e-08
1.3495329e-08
1.0248783e-08
7.768095e-09
5.8763466e-09
4.4365693e-09
3.3429462e-09
2.5138976e-09
1.8866587e-09
1.4130332e-09
1.0561276e-09
0.00011469361
9.3985541e-05
7.6854001e-05
6.2711534e-05
5.1063156e-05
4.14908e-05
3.3642193e-05
2.7221326e-05
2.1980151e-05
1.7711375e-05
1.4242221e-05
1.1429058e-05
9.1527939e-06
7.3149388e-06
5.8342431e-06
4.6438491e-06
3.6888778e-06
2.9243933e-06
2.3136906e-06
1.8268602e-06
1.4395885e-06
1.1321574e-06
8.8861371e-07
6.9608e-07
5.4418604e-07
4.2459981e-07
3.3064222e-07
2.5697139e-07
1.9932461e-07
1.5430796e-07
1.1922529e-07
9.1939548e-08
7.0760542e-08
5.43545e-08
4.1671169e-08
3.1884817e-08
2.435052e-08
1.8560086e-08
1.4119056e-08
1.0719745e-08
8.122958e-09
6.1431638e-09
4.6367574e-09
3.4928204e-09
2.6258601e-09
1.9701165e-09
1.4751045e-09
1.1021822e-09
0.00012026611
9.8545373e-05
8.057434e-05
6.5740011e-05
5.3523036e-05
4.3484495e-05
3.5254554e-05
2.8522479e-05
2.3027908e-05
1.8553277e-05
1.4917269e-05
1.1969167e-05
9.5840215e-06
7.6585051e-06
6.10739e-06
4.8605525e-06
3.8604398e-06
3.0599321e-06
2.4205457e-06
1.9109257e-06
1.5055868e-06
1.1838635e-06
9.2903826e-07
7.2761876e-07
5.6874111e-07
4.4367793e-07
3.4543428e-07
2.6841654e-07
2.0816179e-07
1.6111733e-07
1.2446132e-07
9.5957438e-08
7.3837347e-08
5.6705817e-08
4.3464456e-08
3.3250861e-08
2.538684e-08
1.9345314e-08
1.4712849e-08
1.1167838e-08
8.4603879e-09
6.3967197e-09
4.8268792e-09
3.6350699e-09
2.7320591e-09
2.0492267e-09
1.5339037e-09
1.1457831e-09
0.00015303122
0.0001256396
0.00010293759
8.415637e-05
6.865486e-05
5.5889785e-05
4.5402021e-05
3.6804751e-05
2.9773003e-05
2.4034517e-05
1.9361807e-05
1.5565306e-05
1.248746e-05
9.9976641e-06
7.9879265e-06
6.3691824e-06
5.06816e-06
4.02473e-06
3.1896694e-06
2.5227818e-06
1.9913212e-06
1.568675e-06
1.2332667e-06
9.6764411e-07
7.5772418e-07
5.9216884e-07
4.6187119e-07
3.5953322e-07
2.7931986e-07
2.1657629e-07
1.6759762e-07
1.2944166e-07
9.9777082e-08
7.6760743e-08
5.8938639e-08
4.5166156e-08
3.4543625e-08
2.6368969e-08
2.0089258e-08
1.5275122e-08
1.1591899e-08
8.7795319e-09
6.6363909e-09
5.0064808e-09
3.7693655e-09
2.8322575e-09
2.1238196e-09
1.5893121e-09
1.1868355e-09
0.00015932493
0.00013079318
0.00010714848
8.7589302e-05
7.1447384e-05
5.8156387e-05
4.7237731e-05
3.8288247e-05
3.0969266e-05
2.4997074e-05
2.0134648e-05
1.618449e-05
1.2982476e-05
1.0392566e-05
8.3022906e-06
6.618902e-06
5.2661076e-06
4.1813068e-06
3.3132603e-06
2.6201301e-06
2.0678376e-06
1.628691e-06
1.2802418e-06
1.0043349e-06
7.8632218e-07
6.1441246e-07
4.7913621e-07
3.72906e-07
2.8965626e-07
2.2454909e-07
1.737345e-07
1.3415553e-07
1.0339038e-07
7.9524664e-08
6.1048494e-08
4.6773551e-08
3.5765727e-08
2.7295623e-08
2.079065e-08
1.5804917e-08
1.1991233e-08
9.0798886e-09
6.8618186e-09
5.175307e-09
3.8955272e-09
2.926329e-09
2.1938058e-09
1.641267e-09
1.2252951e-09
0.00016533591
0.00013571416
0.00011116811
9.0865175e-05
7.4111187e-05
6.031771e-05
4.8987514e-05
3.970176e-05
3.2108649e-05
2.59135e-05
2.0870153e-05
1.677352e-05
1.3453187e-05
1.076792e-05
8.6009648e-06
6.8560544e-06
5.4540099e-06
4.3298708e-06
3.4304726e-06
2.7124113e-06
2.1403371e-06
1.6855292e-06
1.3247079e-06
1.0390489e-06
8.1336591e-07
6.3543653e-07
4.9544629e-07
3.8553255e-07
2.9941074e-07
2.3206904e-07
1.7951968e-07
1.3859684e-07
1.0679285e-07
8.2125832e-08
6.3032926e-08
4.8284968e-08
3.6913661e-08
2.8165701e-08
2.1448867e-08
1.6301818e-08
1.2365555e-08
9.3612677e-09
7.0728778e-09
5.3332782e-09
4.013507e-09
3.0142486e-09
2.2591776e-09
1.6897631e-09
1.2611431e-09
0.00017105557
0.00014039459
0.00011498986
9.3978656e-05
7.6641998e-05
6.2370349e-05
5.0648667e-05
4.1043149e-05
3.3189463e-05
2.6782466e-05
2.156728e-05
1.7331581e-05
1.3898961e-05
1.1123234e-05
8.8835692e-06
7.080347e-06
5.6316426e-06
4.4702506e-06
3.5411762e-06
2.799527e-06
2.2087455e-06
1.7391339e-06
1.3666237e-06
1.0717554e-06
8.3883285e-07
6.5522461e-07
5.1078952e-07
3.9740436e-07
3.0857727e-07
2.3913191e-07
1.8495026e-07
1.4276362e-07
1.0998324e-07
8.4563464e-08
6.489123e-08
4.9696789e-08
3.7986999e-08
2.8979156e-08
2.2063942e-08
1.6765886e-08
1.271494e-08
9.6237474e-09
7.2696445e-09
5.480465e-09
4.123368e-09
3.0960694e-09
2.3199682e-09
1.7348765e-09
1.2944224e-09
0.0001764777
0.00014482974
0.00011860995
9.6926731e-05
7.9037446e-05
6.431245e-05
5.2219747e-05
4.2311297e-05
3.421085e-05
2.7603314e-05
2.2225528e-05
1.7858294e-05
1.4319513e-05
1.1458297e-05
9.1499477e-06
7.2916659e-06
5.7989236e-06
4.6023879e-06
3.6453305e-06
2.8814493e-06
2.2730445e-06
1.7894934e-06
1.4059822e-06
1.102451e-06
8.6272166e-07
6.7377679e-07
5.2516687e-07
4.0852289e-07
3.1715754e-07
2.4573946e-07
1.9002795e-07
1.4665746e-07
1.1296298e-07
8.6838936e-08
6.6625432e-08
5.1015679e-08
3.8987566e-08
2.9736809e-08
2.2636457e-08
1.7197585e-08
1.3039763e-08
9.8676309e-09
7.4523633e-09
5.6170635e-09
4.2252672e-09
3.1719212e-09
2.3763166e-09
1.7766799e-09
1.3254074e-09
9.8671021e-10
0.00018159967
0.00014901776
0.00012202704
9.9708422e-05
8.1296824e-05
6.6143515e-05
5.3700414e-05
4.3505983e-05
3.5172675e-05
2.8375971e-05
2.2844868e-05
1.8353661e-05
1.4714863e-05
1.1773142e-05
9.4001389e-06
7.4900524e-06
5.955894e-06
4.7263221e-06
3.7429719e-06
2.9582116e-06
2.3332636e-06
1.8366341e-06
1.4428063e-06
1.1311553e-06
8.8504904e-07
6.9110722e-07
5.3859024e-07
4.1889807e-07
3.251598e-07
2.518985e-07
1.9475835e-07
1.5028294e-07
1.1573576e-07
8.8955082e-08
6.8237552e-08
5.2241012e-08
3.9916607e-08
3.0439866e-08
2.3167397e-08
1.7597697e-08
1.3340643e-08
1.0093405e-08
7.6214159e-09
5.7433718e-09
4.3194357e-09
3.2419785e-09
2.4283303e-09
1.8152279e-09
1.3539628e-09
1.0078043e-09
0.00018642218
0.00015295945
0.00012524194
0.00010232451
8.3420867e-05
6.7864221e-05
5.5091284e-05
4.4627758e-05
3.6075425e-05
2.9100866e-05
2.3425676e-05
1.8818006e-05
1.508529e-05
1.2068006e-05
9.634346e-06
7.6756783e-06
6.1026987e-06
4.8421748e-06
3.834202e-06
3.0298983e-06
2.389473e-06
1.8806135e-06
1.4771434e-06
1.157907e-06
9.0584673e-07
7.0724172e-07
5.5108057e-07
4.2854684e-07
3.325977e-07
2.5762e-07
1.9915023e-07
1.5364708e-07
1.1830721e-07
9.0916281e-08
6.9728568e-08
5.3374896e-08
4.0776173e-08
3.109001e-08
2.3658095e-08
1.7967267e-08
1.3618394e-08
1.0301703e-08
7.7772922e-09
5.8597681e-09
4.4061644e-09
3.3064634e-09
2.4761759e-09
1.8506514e-09
1.380148e-09
1.0270883e-09
0.00019094869
0.00015665786
0.00012825729
0.00010477727
8.5411526e-05
6.9476234e-05
5.6393771e-05
4.5677819e-05
3.6920112e-05
2.9778851e-05
2.3968663e-05
1.9251924e-05
1.5431291e-05
1.2343302e-05
9.8529092e-06
7.8488244e-06
6.2395687e-06
4.9501353e-06
3.9191758e-06
3.0966358e-06
2.4417753e-06
1.9215152e-06
1.509061e-06
1.1827607e-06
9.2515859e-07
7.2221551e-07
5.6266607e-07
4.3749172e-07
3.3948917e-07
2.629182e-07
2.032149e-07
1.5675883e-07
1.2068443e-07
9.2728748e-08
7.1107773e-08
5.4421554e-08
4.1568999e-08
3.1689312e-08
2.4110156e-08
1.830754e-08
1.3873978e-08
1.0493266e-08
7.9205635e-09
5.9666909e-09
4.485789e-09
3.3656328e-09
2.5200517e-09
1.8831106e-09
1.4041181e-09
1.0447289e-09
0.000195185
0.00016011791
0.00013107725
0.00010707023
8.7271764e-05
7.0982038e-05
5.7609953e-05
4.6657899e-05
3.7708175e-05
3.0411117e-05
2.4474816e-05
1.9656228e-05
1.5753533e-05
1.2599578e-05
1.0056279e-05
8.0098585e-06
6.3668035e-06
5.0504473e-06
3.9980908e-06
3.1585839e-06
2.4902997e-06
1.9594429e-06
1.5386425e-06
1.2057831e-06
9.4303801e-07
7.3607114e-07
5.7338058e-07
4.4575957e-07
3.4585549e-07
2.6780992e-07
2.069656e-07
1.5962856e-07
1.228755e-07
9.4398713e-08
7.237739e-08
5.5384605e-08
4.2298069e-08
3.22401e-08
2.4525381e-08
1.8619906e-08
1.4108466e-08
1.0668918e-08
8.0518593e-09
6.0646211e-09
4.5586758e-09
3.4197651e-09
2.5601702e-09
1.9127718e-09
1.4260048e-09
1.0608314e-09
0.00019913875
0.00016334606
0.00013370723
0.0001092079
8.9005358e-05
7.2384776e-05
5.8742435e-05
4.7570154e-05
3.8441394e-05
3.0999131e-05
2.4945339e-05
2.0031907e-05
1.6052826e-05
1.2837494e-05
1.0244991e-05
8.1592163e-06
6.4847565e-06
5.1433962e-06
4.0711773e-06
3.2159279e-06
2.5351948e-06
1.9945159e-06
1.5659832e-06
1.2270504e-06
9.5954545e-07
7.4885662e-07
5.8326212e-07
4.5338043e-07
3.5172035e-07
2.7231379e-07
2.1041696e-07
1.6226773e-07
1.2488915e-07
9.5930597e-08
7.3542535e-08
5.6268187e-08
4.2966628e-08
3.2744887e-08
2.4905708e-08
1.8905854e-08
1.4323e-08
1.082953e-08
8.1718465e-09
6.1540666e-09
4.6252109e-09
3.4691527e-09
2.5967521e-09
1.9398031e-09
1.4459379e-09
1.0754911e-09
0.00020281905
0.00016635005
0.00013615363
0.00011119561
9.0616725e-05
7.3688102e-05
5.9794236e-05
4.8417069e-05
3.9121812e-05
3.1544568e-05
2.5381603e-05
2.0380079e-05
1.6330081e-05
1.3057791e-05
1.0419647e-05
8.2973843e-06
6.5938203e-06
5.2292986e-06
4.1386897e-06
3.2688719e-06
2.5766241e-06
2.0268645e-06
1.5911869e-06
1.246645e-06
9.7474642e-07
7.6062379e-07
5.9235164e-07
4.6038657e-07
3.571091e-07
2.764497e-07
2.1358455e-07
1.6468857e-07
1.267354e-07
9.7335687e-08
7.4609565e-08
5.7076789e-08
4.3578091e-08
3.3206296e-08
2.5253153e-08
1.916693e-08
1.4518762e-08
1.0976006e-08
8.2812121e-09
6.2355492e-09
4.6857896e-09
3.5140944e-09
2.6300227e-09
1.9643743e-09
1.4640463e-09
1.0888031e-09
0.00020623605
0.00016913857
0.00013842358
0.00011303929
9.2110761e-05
7.4896055e-05
6.0768679e-05
4.9201373e-05
3.9751664e-05
3.2049256e-05
2.57851e-05
2.0701959e-05
1.6586285e-05
1.3261269e-05
1.0580894e-05
8.4248844e-06
6.6944152e-06
5.3084922e-06
4.2008988e-06
3.3176326e-06
2.6147603e-06
2.0566265e-06
1.6143632e-06
1.2646537e-06
9.8870962e-07
7.714269e-07
6.0069186e-07
4.6681157e-07
3.6204809e-07
2.8023825e-07
2.1648445e-07
1.6690358e-07
1.2842383e-07
9.8620246e-08
7.5584233e-08
5.7814925e-08
4.4135937e-08
3.3627002e-08
2.5569765e-08
1.9404702e-08
1.4696949e-08
1.1109258e-08
8.3806483e-09
6.3095937e-09
4.7408087e-09
3.5548897e-09
2.6602071e-09
1.9866545e-09
1.4804572e-09
1.1008617e-09
0.00020940044
0.0001717211
0.0001405248
0.00011474528
9.3492705e-05
7.6012943e-05
6.1669298e-05
4.9925962e-05
4.0333318e-05
3.2515126e-05
2.6157402e-05
2.0998823e-05
1.6822472e-05
1.3448764e-05
1.0729408e-05
8.5422611e-06
6.7869788e-06
5.3813278e-06
4.2580852e-06
3.3624339e-06
2.6497822e-06
2.0839439e-06
1.6356246e-06
1.2811658e-06
1.0015054e-06
7.8132139e-07
6.0832638e-07
4.7268965e-07
3.6656409e-07
2.8370038e-07
2.1913297e-07
1.6892539e-07
1.2996412e-07
9.9791122e-08
7.6472313e-08
5.8487112e-08
4.464365e-08
3.4009679e-08
2.5857592e-08
1.9620733e-08
1.4858752e-08
1.1230189e-08
8.4708415e-09
6.3767191e-09
4.79066e-09
3.5918335e-09
2.6875269e-09
2.0068098e-09
1.4952952e-09
1.1117591e-09
0.00021232288
0.00017410754
0.00014246543
0.00011632024
9.4768011e-05
7.704324e-05
6.2499759e-05
5.0593831e-05
4.0869218e-05
3.2944169e-05
2.6500126e-05
2.1271984e-05
1.7039704e-05
1.3621136e-05
1.0865879e-05
8.6500697e-06
6.8719567e-06
5.4481621e-06
4.3105341e-06
3.4035032e-06
2.6818703e-06
2.1089599e-06
1.6550847e-06
1.2962708e-06
1.0132045e-06
7.9036293e-07
6.152989e-07
4.7805501e-07
3.7068387e-07
2.8685694e-07
2.2154632e-07
1.7076654e-07
1.3136578e-07
1.0085601e-07
7.7279623e-08
5.9097828e-08
4.5104667e-08
3.4356959e-08
2.6118646e-08
1.9816558e-08
1.5005338e-08
1.1339686e-08
8.552462e-09
6.4374317e-09
4.8357249e-09
3.6252125e-09
2.7121975e-09
2.0250013e-09
1.5086804e-09
1.1215846e-09
0.0002150133
0.00017630735
0.00014425373
0.00011777097
9.5942247e-05
7.7991503e-05
6.3263788e-05
5.1208023e-05
4.1361845e-05
3.3338402e-05
2.681491e-05
2.1522767e-05
1.7239053e-05
1.3779246e-05
1.0991002e-05
8.7488679e-06
6.9497956e-06
5.5093523e-06
4.35853e-06
3.4410669e-06
2.7112046e-06
2.1318173e-06
1.6728562e-06
1.3100578e-06
1.0238771e-06
7.9860656e-07
6.2165258e-07
4.8294143e-07
3.7443375e-07
2.8972845e-07
2.2374049e-07
1.7243948e-07
1.32638e-07
1.0182244e-07
7.8011883e-08
5.9651448e-08
4.552234e-08
3.4671406e-08
2.6354882e-08
1.9993665e-08
1.5137837e-08
1.1438606e-08
8.6261575e-09
6.4922198e-09
4.8763708e-09
3.6553027e-09
2.7344255e-09
2.0413834e-09
1.5207279e-09
1.1304235e-09
0.00021748291
0.00017832846
0.00014589762
0.00011910423
9.7020992e-05
7.88623e-05
6.3965117e-05
5.1771583e-05
4.1813675e-05
3.3699836e-05
2.7103383e-05
2.1752491e-05
1.7421582e-05
1.3923951e-05
1.1105465e-05
8.8392078e-06
7.0209371e-06
5.5652507e-06
4.402354e-06
3.4753485e-06
2.7379622e-06
2.1526562e-06
1.6890498e-06
1.322614e-06
1.0335916e-06
8.0610609e-07
6.2742954e-07
4.8738181e-07
3.7783941e-07
2.9233486e-07
2.2573095e-07
1.7395632e-07
1.3379153e-07
1.0269769e-07
7.8674603e-08
6.0152189e-08
4.5899897e-08
3.4955485e-08
2.656818e-08
2.0153483e-08
1.5257334e-08
1.1527769e-08
8.6925475e-09
6.5415501e-09
4.9129482e-09
3.6823667e-09
2.7544076e-09
2.056103e-09
1.5315468e-09
1.1383564e-09
0.00039359845
0.00032482682
0.00026744884
0.0002197669
0.00018018496
0.00014740584
0.00012032683
9.8009778e-05
7.9660152e-05
6.4607438e-05
5.2287517e-05
4.2227153e-05
3.4030456e-05
2.7367153e-05
2.1962453e-05
1.7588338e-05
1.4056094e-05
1.1209944e-05
8.9216298e-06
7.0858132e-06
5.6162019e-06
4.44228e-06
3.5065653e-06
2.7623154e-06
2.1716128e-06
1.703773e-06
1.3340241e-06
1.0424145e-06
8.1291358e-07
6.3267049e-07
4.9140792e-07
3.8092556e-07
2.946954e-07
2.275326e-07
1.7532849e-07
1.3483458e-07
1.0348852e-07
7.9273038e-08
6.0604087e-08
4.6240423e-08
3.5211551e-08
2.6760332e-08
2.0297373e-08
1.5364861e-08
1.1607955e-08
8.7522199e-09
6.5858646e-09
4.9457888e-09
3.706653e-09
2.7723297e-09
2.0692983e-09
1.5412396e-09
1.1454592e-09
0.00048051626
0.00039740238
0.00032795795
0.00027002901
0.00022186079
0.00018188581
0.00014878648
0.0001214454
9.8914023e-05
8.0389487e-05
6.5194361e-05
5.2758767e-05
4.2604669e-05
3.4332198e-05
2.7607784e-05
2.2153918e-05
1.7740337e-05
1.4176491e-05
1.1305095e-05
8.9966581e-06
7.1448421e-06
5.6625391e-06
4.4785728e-06
3.5349274e-06
2.7844304e-06
2.1888184e-06
1.7171293e-06
1.3443692e-06
1.0504097e-06
8.1907898e-07
6.3741445e-07
4.9505017e-07
3.8371587e-07
2.968284e-07
2.2915963e-07
1.7656693e-07
1.3577527e-07
1.0420143e-07
7.9812181e-08
6.1010967e-08
4.6546843e-08
3.5441832e-08
2.6933033e-08
2.0426622e-08
1.546139e-08
1.1679898e-08
8.8057283e-09
6.6255794e-09
4.9752044e-09
3.7283949e-09
2.7883659e-09
2.0810988e-09
1.5499022e-09
1.1518024e-09
0.00048475013
0.00040088884
0.00033082032
0.00027237841