/*--------------------------------*- C++ -*----------------------------------*\
| =========                 |                                                 |
| \\      /  F ield         | OpenFOAM: The Open Source CFD Toolbox           |
|  \\    /   O peration     | Version:  2312                                  |
|   \\  /    A nd           | Website:  www.openfoam.com                      |
|    \\/     M anipulation  |                                                 |
\*---------------------------------------------------------------------------*/
FoamFile
{
    version     2.0;
    format      ascii;
    arch        "LSB;label=32;scalar=64";
    class       volScalarField;
    location    "0.01";
    object      f_Bilger;
}
// * * * * * * * * * * * * * * * * * * * * * * * * * * * * * * * * * * * * * //

dimensions      [0 0 0 0 0 0 0];

internalField   nonuniform List<scalar> 
3250
(
1.6462771e-06
1.3420458e-06
1.0919387e-06
8.8670436e-07
7.1863981e-07
5.8130122e-07
4.6930523e-07
3.7816532e-07
3.0415112e-07
2.441685e-07
1.9565715e-07
1.5650344e-07
1.2496662e-07
9.9616333e-08
7.9280046e-08
6.2998709e-08
4.9989772e-08
3.9616075e-08
3.1360051e-08
2.480221e-08
1.9603281e-08
1.5489519e-08
1.2240498e-08
9.67913e-09
7.663482e-09
6.0799894e-09
4.8380473e-09
3.8654676e-09
3.1048498e-09
2.5107016e-09
2.0469084e-09
1.6850427e-09
1.4025954e-09
1.1819386e-09
1.0092187e-09
8.735771e-10
7.665916e-10
6.8161991e-10
6.1375131e-10
5.5893544e-10
5.1462878e-10
4.7864884e-10
4.4979533e-10
4.2686443e-10
1.7258195e-06
1.4066839e-06
1.1443606e-06
9.2913241e-07
7.5291027e-07
6.0892752e-07
4.9153169e-07
3.9601262e-07
3.1845446e-07
2.5560986e-07
2.0479203e-07
1.637834e-07
1.3075783e-07
1.0421514e-07
8.2925689e-08
6.588398e-08
5.2269675e-08
4.1414965e-08
3.277752e-08
2.5917808e-08
2.048044e-08
1.617871e-08
1.278176e-08
1.0104211e-08
7.9974693e-09
6.342684e-09
5.0450963e-09
4.0291233e-09
3.2348141e-09
2.6145384e-09
2.1304338e-09
1.7528872e-09
1.4582829e-09
1.2282885e-09
1.0482591e-09
9.0706809e-10
7.9563849e-10
7.0729105e-10
6.3655397e-10
5.7943002e-10
5.3311433e-10
4.9540146e-10
4.6546215e-10
4.4149678e-10
1.8784919e-06
1.5307495e-06
1.2449864e-06
1.010584e-06
8.1871005e-07
6.6197793e-07
5.3421903e-07
4.302944e-07
3.4593274e-07
2.7759292e-07
2.2234575e-07
1.7777434e-07
1.4188886e-07
1.1305518e-07
8.9934184e-08
7.1431197e-08
5.6653375e-08
4.4874069e-08
3.5503376e-08
2.8063279e-08
2.2167436e-08
1.7504217e-08
1.3822783e-08
1.092178e-08
8.6398386e-09
6.8479515e-09
5.4432993e-09
4.3438582e-09
3.4846316e-09
2.8138688e-09
2.2907822e-09
1.883037e-09
1.5650554e-09
1.3170713e-09
1.1231228e-09
9.7131268e-10
8.5162399e-10
7.5698498e-10
6.8117e-10
6.2011373e-10
5.7050853e-10
5.301198e-10
4.982388e-10
4.7263471e-10
2.1009968e-06
1.7115886e-06
1.3916777e-06
1.1293376e-06
9.1465506e-07
7.3934148e-07
5.9647709e-07
4.8029865e-07
3.8601741e-07
3.0966442e-07
2.4795757e-07
1.9818958e-07
1.5813223e-07
1.2595619e-07
1.0016288e-07
7.9527639e-08
6.3051919e-08
4.9923297e-08
3.9482429e-08
3.1195197e-08
2.4630091e-08
1.9439131e-08
1.5342358e-08
1.211509e-08
9.5773431e-09
7.5852709e-09
6.0242588e-09
4.8029166e-09
3.8488421e-09
3.1044313e-09
2.524231e-09
2.0723203e-09
1.7202433e-09
1.4460119e-09
1.2319157e-09
1.0647082e-09
9.332028e-10
8.296177e-10
7.4689326e-10
6.8057413e-10
6.2683177e-10
5.8321473e-10
5.4878409e-10
5.210173e-10
2.3918649e-06
1.9480188e-06
1.5834832e-06
1.2846281e-06
1.0401304e-06
8.4052434e-07
6.7790961e-07
5.4570775e-07
4.3845422e-07
3.5162108e-07
2.8146512e-07
2.2489958e-07
1.793847e-07
1.4283602e-07
1.1354646e-07
9.0121478e-08
7.1424315e-08
5.653027e-08
4.4689092e-08
3.52933e-08
2.7852304e-08
2.1970623e-08
1.7330221e-08
1.3675902e-08
1.0803331e-08
8.5492448e-09
6.7835663e-09
5.4026727e-09
4.3244418e-09
3.4836418e-09
2.8286387e-09
2.3188877e-09
1.9222175e-09
1.6136959e-09
1.3733013e-09
1.1860061e-09
1.0392937e-09
9.2418873e-10
8.3278339e-10
7.6004849e-10
7.0146597e-10
6.541305e-10
6.1660613e-10
5.8624127e-10
2.7507144e-06
2.239733e-06
1.8201556e-06
1.4762564e-06
1.1949752e-06
9.653965e-07
7.784113e-07
6.2643637e-07
5.031739e-07
4.0340667e-07
3.2282275e-07
2.5786728e-07
2.0561617e-07
1.6367017e-07
1.3006507e-07
1.0319683e-07
8.1758377e-08
6.4685482e-08
5.1115704e-08
4.0351235e-08
3.182872e-08
2.5094134e-08
1.9782474e-08
1.5600876e-08
1.2314937e-08
9.7374008e-09
7.7190858e-09
6.1412536e-09
4.9097567e-09
3.9499e-09
3.2026801e-09
2.6215954e-09
2.1699357e-09
1.819086e-09
1.5463457e-09
1.3343466e-09
1.1689078e-09
1.0397311e-09
9.3796089e-10
8.5749087e-10
7.9327765e-10
7.4174137e-10
7.0064047e-10
6.6711436e-10
3.1775856e-06
2.5867714e-06
2.1017246e-06
1.7042437e-06
1.3792041e-06
1.1139673e-06
8.9798756e-07
7.22487e-07
5.8017688e-07
4.6502016e-07
3.7202846e-07
2.9709003e-07
2.3682361e-07
1.8845541e-07
1.4971537e-07
1.1875084e-07
9.40558e-08
7.4389986e-08
5.876201e-08
4.6367762e-08
3.6557544e-08
2.8807652e-08
2.2697081e-08
1.7888068e-08
1.4110356e-08
1.114809e-08
8.8293311e-09
7.0173209e-09
5.6035884e-09
4.5022008e-09
3.6453923e-09
2.9795481e-09
2.4625432e-09
2.0614403e-09
1.7502115e-09
1.5088195e-09
1.3212506e-09
1.1753884e-09
1.0613065e-09
9.7190357e-10
9.0115511e-10
8.4476829e-10
7.9951187e-10
7.6236557e-10
3.6724049e-06
2.9890981e-06
2.4281494e-06
1.9685483e-06
1.5927782e-06
1.2862015e-06
1.0366072e-06
8.3383216e-07
6.6943911e-07
5.3644059e-07
4.29064e-07
3.4255202e-07
2.7299327e-07
2.1717953e-07
1.7248524e-07
1.3676581e-07
1.0827061e-07
8.5594223e-08
6.7582713e-08
5.3304106e-08
4.2006595e-08
3.3084868e-08
2.6052701e-08
2.0520236e-08
1.6175679e-08
1.2770101e-08
1.0105264e-08
8.023598e-09
6.4001316e-09
5.1359384e-09
4.1529042e-09
3.3894754e-09
2.7972602e-09
2.3382839e-09
1.9828073e-09
1.7076256e-09
1.4944792e-09
1.3294313e-09
1.2012867e-09
1.1015291e-09
1.0232745e-09
9.6130224e-10
9.1139239e-10
8.7004992e-10
4.2330048e-06
3.4449725e-06
2.7979642e-06
2.2679145e-06
1.8346223e-06
1.481184e-06
1.1934957e-06
9.5982015e-07
7.7041488e-07
6.1721308e-07
4.9355185e-07
3.9394118e-07
3.1386831e-07
2.496325e-07
1.9820606e-07
1.5711753e-07
1.2435451e-07
9.8283586e-08
7.7578899e-08
6.1168223e-08
4.8186341e-08
3.7936629e-08
2.9859543e-08
2.3506535e-08
1.851886e-08
1.4610189e-08
1.1552527e-08
9.1647177e-09
7.303091e-09
5.8539818e-09
4.7276549e-09
3.8534172e-09
3.1757578e-09
2.6510588e-09
2.2452151e-09
1.9315574e-09
1.6893764e-09
1.5024424e-09
1.3581036e-09
1.2465499e-09
1.1596803e-09
1.0912098e-09
1.0358935e-09
9.8984838e-10
7.2958634e-06
5.9600992e-06
4.8595931e-06
3.9543317e-06
3.2112314e-06
2.6025562e-06
2.1050548e-06
1.6992892e-06
1.3690471e-06
1.1008395e-06
8.8347151e-07
7.0767466e-07
5.657943e-07
4.5152382e-07
3.5967985e-07
2.8601218e-07
2.2704405e-07
1.7993794e-07
1.4238353e-07
1.1250423e-07
8.8778868e-08
6.9977257e-08
5.5106765e-08
4.3368274e-08
3.4119927e-08
2.6847241e-08
2.1138888e-08
1.6666606e-08
1.3169011e-08
1.0438454e-08
8.3102818e-09
6.6542909e-09
5.3677361e-09
4.3696488e-09
3.596492e-09
2.9983128e-09
2.5362022e-09
2.1795693e-09
1.9047762e-09
1.6933289e-09
1.5308575e-09
1.4058576e-09
1.3091067e-09
1.2332232e-09
1.1717848e-09
1.120352e-09
8.3351357e-06
6.8089833e-06
5.5512856e-06
4.5167251e-06
3.6675364e-06
2.9720115e-06
2.4035768e-06
1.9400069e-06
1.5627624e-06
1.2564189e-06
1.0081751e-06
8.0743401e-07
6.4544415e-07
5.1499611e-07
4.1016507e-07
3.2609342e-07
2.58808e-07
2.0506663e-07
1.6222976e-07
1.2815347e-07
1.011003e-07
7.9665393e-08
6.2715417e-08
4.9338083e-08
3.880078e-08
3.0516374e-08
2.4015466e-08
1.8923523e-08
1.4942372e-08
1.1835175e-08
9.414193e-09
7.5309842e-09
6.0684829e-09
4.9344065e-09
4.0564231e-09
3.3776147e-09
2.8537109e-09
2.449851e-09
2.1393182e-09
1.9008511e-09
1.7182169e-09
1.5783419e-09
1.4705637e-09
1.3862253e-09
1.3178946e-09
1.2605131e-09
9.4658748e-06
7.7320975e-06
6.3033466e-06
5.1281359e-06
4.163566e-06
3.3736062e-06
2.7280493e-06
2.2016338e-06
1.7732896e-06
1.425487e-06
1.1436786e-06
9.1582234e-07
7.3197426e-07
5.839431e-07
4.6499777e-07
3.696201e-07
2.9329714e-07
2.323466e-07
1.8377093e-07
1.4513575e-07
1.1446837e-07
9.0174065e-08
7.0966411e-08
5.5810162e-08
4.3873966e-08
3.4491763e-08
2.7131037e-08
2.1367019e-08
1.6861525e-08
1.3346058e-08
1.0607737e-08
8.4783957e-09
6.8252999e-09
5.5440183e-09
4.5525317e-09
3.7864886e-09
3.1957013e-09
2.7408106e-09
2.3914193e-09
2.123708e-09
1.9192079e-09
1.7629792e-09
1.6429572e-09
1.549308e-09
1.4733609e-09
1.4093422e-09
1.0680512e-05
8.7236025e-06
7.1110701e-06
5.7847632e-06
4.6962481e-06
3.8048447e-06
3.0764449e-06
2.482526e-06
1.9992979e-06
1.6069689e-06
1.2891152e-06
1.0321421e-06
8.2482419e-07
6.5791539e-07
5.2381818e-07
4.1630473e-07
3.3028211e-07
2.6159519e-07
2.0686191e-07
1.6333581e-07
1.2879169e-07
1.0143078e-07
7.9802365e-08
6.2739032e-08
4.9303534e-08
3.8744952e-08
3.0463133e-08
2.3979256e-08
1.8912367e-08
1.4959817e-08
1.1881976e-08
9.4892834e-09
7.6324519e-09
6.1937551e-09
5.0810549e-09
4.221768e-09
3.5595908e-09
3.0500958e-09
2.6593561e-09
2.3603044e-09
2.1322895e-09
1.9585271e-09
1.825337e-09
1.7214052e-09
1.637141e-09
1.5659377e-09
1.1970593e-05
9.7766095e-06
7.9688242e-06
6.4820021e-06
5.2618251e-06
4.2626689e-06
3.4462804e-06
2.7806705e-06
2.2391589e-06
1.7995497e-06
1.4434253e-06
1.155541e-06
9.2330982e-07
7.3636469e-07
5.8618774e-07
4.6579708e-07
3.6948371e-07
2.9259023e-07
2.3132615e-07
1.8261365e-07
1.4395927e-07
1.1334774e-07
8.9153782e-08
7.0069837e-08
5.504608e-08
4.3241728e-08
3.3984618e-08
2.6738855e-08
2.1077815e-08
1.666297e-08
1.3226001e-08
1.0555029e-08
8.4828463e-09
6.8780097e-09
5.6372382e-09
4.6796359e-09
3.9420411e-09
3.3750761e-09
2.9405409e-09
2.6085467e-09
2.3557841e-09
2.1634255e-09
2.0160984e-09
1.9012922e-09
1.8080821e-09
1.7291104e-09
1.3326344e-05
1.0883122e-05
8.8700655e-06
7.2145092e-06
5.8559406e-06
4.7435353e-06
3.8346788e-06
3.0937366e-06
2.4909877e-06
2.0017085e-06
1.6053838e-06
1.2850342e-06
1.0266408e-06
8.1865806e-07
6.5160037e-07
5.176933e-07
4.1058019e-07
3.2507581e-07
2.5696044e-07
2.0280808e-07
1.5984353e-07
1.2582397e-07
9.8940939e-08
7.7739532e-08
6.1051919e-08
4.7942747e-08
3.7664494e-08
2.9621137e-08
2.3338393e-08
1.8439867e-08
1.4627458e-08
1.1665511e-08
9.3684832e-09
7.5900168e-09
6.2156901e-09
5.1553326e-09
4.3391653e-09
3.7120832e-09
3.2321663e-09
2.8656948e-09
2.5872372e-09
2.3754236e-09
2.2135621e-09
2.0871599e-09
1.9845787e-09
1.8973996e-09
1.4736887e-05
1.2034277e-05
9.8075406e-06
7.9763601e-06
6.4737678e-06
5.2435183e-06
4.2384547e-06
3.419144e-06
2.7526992e-06
2.2117628e-06
1.7736364e-06
1.4195333e-06
1.1339443e-06
9.0409668e-07
7.1949778e-07
5.7154799e-07
4.5321694e-07
3.5876997e-07
2.8354102e-07
2.2374175e-07
1.7630406e-07
1.3874846e-07
1.0907609e-07
8.5678849e-08
6.7266316e-08
5.2804783e-08
4.1468511e-08
3.2599026e-08
2.5672474e-08
2.0273402e-08
1.6072407e-08
1.2809739e-08
1.028013e-08
8.3224495e-09
6.809952e-09
5.6437195e-09
4.746177e-09
4.0573781e-09
3.5302553e-09
3.1286227e-09
2.8235631e-09
2.591914e-09
2.4149786e-09
2.2766912e-09
2.1644805e-09
2.0688267e-09
1.6190474e-05
1.3220619e-05
1.0773513e-05
8.7612351e-06
7.1101577e-06
5.7584323e-06
4.6542123e-06
3.754144e-06
3.022072e-06
2.4279222e-06
1.9467417e-06
1.5578811e-06
1.2442923e-06
9.919385e-07
7.8928692e-07
6.2688876e-07
4.9701769e-07
3.9337408e-07
3.1083071e-07
2.45227e-07
1.931922e-07
1.5200391e-07
1.1946643e-07
9.3814674e-08
7.3631455e-08
5.7782136e-08
4.5360723e-08
3.5643739e-08
2.8057603e-08
2.21453e-08
1.7546593e-08
1.3975948e-08
1.1208393e-08
9.0673722e-09
7.4136749e-09
6.1390927e-09
5.1584639e-09
4.406551e-09
3.8311636e-09
3.3940363e-09
3.0610965e-09
2.8101496e-09
2.6168442e-09
2.4672153e-09
2.3446846e-09
2.2409414e-09
1.7674788e-05
1.4432211e-05
1.1759955e-05
9.5626061e-06
7.7597954e-06
6.2839594e-06
5.0784503e-06
4.095903e-06
3.2968188e-06
2.6483423e-06
2.1232175e-06
1.6988868e-06
1.3567321e-06
1.0814206e-06
8.6036008e-07
6.8323053e-07
5.4159769e-07
4.2858192e-07
3.3858762e-07
2.6707181e-07
2.1035683e-07
1.6547054e-07
1.3001797e-07
1.0207269e-07
8.0088717e-08
6.2829118e-08
4.9304202e-08
3.8727279e-08
3.0470618e-08
2.403803e-08
1.9035731e-08
1.5152668e-08
1.2144489e-08
9.8171727e-09
8.0208311e-09
6.6361204e-09
5.5720574e-09
4.7553549e-09
4.1326026e-09
3.6573589e-09
3.2986439e-09
3.0252065e-09
2.8176041e-09
2.6544128e-09
2.5235029e-09
2.4108597e-09
2.3443222e-05
1.9179478e-05
1.5659515e-05
1.2758887e-05
1.0373932e-05
8.4173558e-06
6.8157732e-06
5.5076626e-06
4.4415864e-06
3.574651e-06
2.8711815e-06
2.3015822e-06
1.8413638e-06
1.4703121e-06
1.1717845e-06
9.3211115e-07
7.4009244e-07
5.8657384e-07
4.6409096e-07
3.6657143e-07
2.8908728e-07
2.2764825e-07
1.7903118e-07
1.4063816e-07
1.1038031e-07
8.6581636e-08
6.7900354e-08
5.3264981e-08
4.1821374e-08
3.2890778e-08
2.5934579e-08
2.0526541e-08
1.6330132e-08
1.3080457e-08
1.0565942e-08
8.6258286e-09
7.131359e-09
5.9827735e-09
5.1024664e-09
4.4301932e-09
3.9188954e-09
3.5311883e-09
3.237402e-09
3.0124184e-09
2.8385069e-09
2.6971589e-09
2.5767131e-09
2.529343e-05
2.0691762e-05
1.6892767e-05
1.3762431e-05
1.1188813e-05
9.077636e-06
7.349653e-06
5.9384316e-06
4.7884315e-06
3.8533416e-06
3.0946464e-06
2.4803968e-06
1.9841574e-06
1.5841104e-06
1.262293e-06
1.003954e-06
7.9700746e-07
6.315765e-07
4.9960766e-07
3.9455081e-07
3.110902e-07
2.4492272e-07
1.9257227e-07
1.5123805e-07
1.1866778e-07
9.3055008e-08
7.2953534e-08
5.7208686e-08
4.4900312e-08
3.5297028e-08
2.7818759e-08
2.2006341e-08
1.7497181e-08
1.400509e-08
1.1306262e-08
9.2236657e-09
7.619898e-09
6.3876618e-09
5.4433885e-09
4.7224341e-09
4.1735681e-09
3.7573982e-09
3.4410751e-09
3.200287e-09
3.0121415e-09
2.8601e-09
2.7319448e-09
2.7139273e-05
2.220049e-05
1.8122811e-05
1.4763109e-05
1.2001155e-05
9.7356836e-06
7.8815823e-06
6.3675066e-06
5.1338137e-06
4.1307748e-06
3.3170361e-06
2.6582956e-06
2.1261745e-06
1.6972521e-06
1.3522491e-06
1.0753329e-06
8.5353454e-07
6.7625516e-07
5.3485482e-07
4.2230606e-07
3.3290742e-07
2.6204319e-07
2.0598608e-07
1.6173249e-07
1.2686807e-07
9.945613e-08
7.7946801e-08
6.1102702e-08
4.7937833e-08
3.7668715e-08
2.967387e-08
2.3461409e-08
1.8643069e-08
1.4912261e-08
1.2030425e-08
9.8070351e-09
8.0953732e-09
6.7801572e-09
5.7726383e-09
5.0023175e-09
4.4159905e-09
3.9697215e-09
3.630983e-09
3.3703994e-09
3.1681373e-09
3.0071418e-09
2.8683279e-09
2.8967779e-05
2.3695052e-05
1.9341098e-05
1.5753965e-05
1.2805298e-05
1.0386902e-05
8.4078353e-06
6.7918745e-06
5.4753012e-06
4.4049929e-06
3.5367769e-06
2.8340171e-06
2.2664052e-06
1.8089316e-06
1.44101e-06
1.1457371e-06
9.0926762e-07
7.2028846e-07
5.6957777e-07
4.4963636e-07
3.5438016e-07
2.7888488e-07
2.1917406e-07
1.720442e-07
1.3492026e-07
1.0573717e-07
8.2842565e-08
6.4917241e-08
5.0910425e-08
3.998698e-08
3.1484646e-08
2.4879434e-08
1.9757559e-08
1.5793153e-08
1.27309e-08
1.0369232e-08
8.5512442e-09
7.154539e-09
6.0837928e-09
5.2648662e-09
4.6398602e-09
4.1635036e-09
3.7996381e-09
3.5208355e-09
3.3043455e-09
3.1271961e-09
2.9869944e-09
3.7543242e-05
3.0769539e-05
2.516635e-05
2.0539945e-05
1.6728702e-05
1.3596115e-05
1.1027128e-05
8.9250418e-06
7.2088128e-06
5.8106995e-06
4.6742307e-06
3.7524528e-06
3.006427e-06
2.4039436e-06
1.918426e-06
1.528001e-06
1.2147101e-06
9.6384553e-07
7.6339066e-07
6.035515e-07
4.7636441e-07
3.7536946e-07
2.9533872e-07
2.3205119e-07
1.8210671e-07
1.4277269e-07
1.1185793e-07
8.7609467e-08
6.8627957e-08
5.3798931e-08
4.2236777e-08
3.3239284e-08
2.6250954e-08
2.0833285e-08
1.6641017e-08
1.3403119e-08
1.0906464e-08
8.9847474e-09
7.5081813e-09
6.3755795e-09
5.5083654e-09
4.8451455e-09
4.3382717e-09
3.9504814e-09
3.6512445e-09
3.4173684e-09
3.2360665e-09
3.0805501e-09
3.9698031e-05
3.2532825e-05
2.6605779e-05
2.1712452e-05
1.768172e-05
1.4369061e-05
1.1652681e-05
9.4302256e-06
7.6159204e-06
6.1380762e-06
4.9369361e-06
3.9628197e-06
3.174531e-06
2.5379963e-06
2.0251044e-06
1.6127211e-06
1.2818553e-06
1.0169547e-06
8.0531479e-07
6.3658178e-07
5.0233809e-07
3.9575637e-07
3.1131212e-07
2.4454547e-07
1.9186438e-07
1.5038241e-07
1.1778539e-07
9.2222202e-08
7.2215434e-08
5.6588593e-08
4.4406921e-08
3.4929379e-08
2.7569836e-08
2.186571e-08
1.7452834e-08
1.4045384e-08
1.1417825e-08
9.3956883e-09
7.8416843e-09
6.649082e-09
5.7348436e-09
5.0345106e-09
4.4978394e-09
4.0854748e-09
3.7677643e-09
3.5217344e-09
3.3223547e-09
3.1698622e-09
4.1794692e-05
3.4248674e-05
2.8006034e-05
2.2852669e-05
1.8608184e-05
1.5120218e-05
1.2260391e-05
9.9208283e-06
8.0111371e-06
6.4557757e-06
5.1917822e-06
4.1668167e-06
3.3374825e-06
2.6678896e-06
2.1284316e-06
1.6947467e-06
1.3468379e-06
1.0683317e-06
8.4585394e-07
6.6850671e-07
5.2743111e-07
4.154428e-07
3.2672921e-07
2.5659855e-07
2.0127254e-07
1.5771551e-07
1.2349402e-07
9.666184e-08
7.5665892e-08
5.9269642e-08
4.6490793e-08
3.6550745e-08
2.883376e-08
2.2853955e-08
1.8228755e-08
1.465736e-08
1.1904999e-08
9.7864345e-09
8.1580492e-09
6.9077199e-09
5.948378e-09
5.2122691e-09
4.6470694e-09
4.212206e-09
3.8756907e-09
3.6128903e-09
3.4112576e-09
3.2431277e-09
4.3824072e-05
3.5909272e-05
2.9360911e-05
2.395559e-05
1.9504039e-05
1.5846303e-05
1.2847607e-05
1.0394714e-05
8.3927468e-06
6.7624222e-06
5.4376683e-06
4.3635654e-06
3.4945823e-06
2.7930684e-06
2.2279682e-06
1.7737305e-06
1.4093846e-06
1.1177618e-06
8.848401e-07
6.9919525e-07
5.5154167e-07
4.3435001e-07
3.4152939e-07
2.6816409e-07
2.1029603e-07
1.6474558e-07
1.2896427e-07
1.0091416e-07
7.8969311e-08
6.1835355e-08
4.8484236e-08
3.810123e-08
3.0042111e-08
2.3798582e-08
1.8970485e-08
1.5243643e-08
1.2370817e-08
1.0160062e-08
8.4606354e-09
7.155323e-09
6.1529945e-09
5.3831101e-09
4.7908918e-09
4.3340289e-09
3.9807559e-09
3.7071399e-09
3.4886373e-09
3.3227537e-09
5.5762191e-05
4.5781072e-05
3.7508885e-05
3.0665457e-05
2.5017154e-05
2.0365992e-05
1.6544657e-05
1.3412188e-05
1.0850164e-05
8.7593706e-06
7.0569131e-06
5.6737151e-06
4.552366e-06
3.6452752e-06
2.9130932e-06
2.3233672e-06
1.8493995e-06
1.4692811e-06
1.1650774e-06
9.2214263e-07
7.2854597e-07
5.7459134e-07
4.5241765e-07
3.556665e-07
2.7920701e-07
2.1890846e-07
1.7145297e-07
1.3418173e-07
1.049689e-07
8.2118623e-08
6.4281153e-08
5.0384604e-08
3.9579648e-08
3.1194795e-08
2.4700304e-08
1.9679111e-08
1.5803317e-08
1.2817193e-08
1.0519024e-08
8.7522845e-09
7.3949055e-09
6.35212e-09
5.550382e-09
4.9330173e-09
4.4563654e-09
4.0866831e-09
3.7982604e-09
3.5763378e-09
3.3963296e-09
5.8054423e-05
4.7658033e-05
3.9042501e-05
3.1915729e-05
2.6034185e-05
2.1191483e-05
1.7213221e-05
1.3952482e-05
1.1285853e-05
9.1099512e-06
7.3384062e-06
5.8992534e-06
4.7326884e-06
3.789142e-06
3.0276336e-06
2.414369e-06
1.9215502e-06
1.5263685e-06
1.2101547e-06
9.5766551e-07
7.5648465e-07
5.9652304e-07
4.6960203e-07
3.691073e-07
2.8970221e-07
2.27091e-07
1.7782378e-07
1.3913634e-07
1.0881889e-07
8.5108953e-08
6.6603926e-08
5.2190136e-08
4.0985273e-08
3.2291875e-08
2.5559802e-08
2.0356029e-08
1.6340044e-08
1.3246077e-08
1.0865285e-08
9.035041e-09
7.6287267e-09
6.5479631e-09
5.7166621e-09
5.0759368e-09
4.5805011e-09
4.1962971e-09
3.8977617e-09
3.661548e-09
3.4796945e-09
6.0243713e-05
4.9450308e-05
4.0506476e-05
3.3108813e-05
2.7004345e-05
2.1978637e-05
1.7850493e-05
1.4467289e-05
1.1700827e-05
9.4437311e-06
7.6063016e-06
6.1138092e-06
4.9041593e-06
3.9258898e-06
3.1364603e-06
2.5007946e-06
1.9900436e-06
1.580539e-06
1.2529106e-06
9.9134478e-07
7.8296234e-07
6.1729947e-07
4.858749e-07
3.8183054e-07
2.9963383e-07
2.3483197e-07
1.8384948e-07
1.4382194e-07
1.1245985e-07
8.7937378e-08
6.8801757e-08
5.3899644e-08
4.2317433e-08
3.3333033e-08
2.637698e-08
2.1001385e-08
1.6853126e-08
1.3657806e-08
1.1199405e-08
9.3096522e-09
7.8575743e-09
6.7415379e-09
5.8827889e-09
5.2206341e-09
4.7084056e-09
4.3104243e-09
3.9996149e-09
3.7579466e-09
3.5667944e-09
6.2326907e-05
5.1154978e-05
4.1898388e-05
3.4242755e-05
2.792607e-05
2.2726208e-05
1.8455487e-05
1.4955828e-05
1.2094471e-05
9.760226e-06
7.8602197e-06
6.3170866e-06
5.0665484e-06
4.0553401e-06
3.2394355e-06
2.5825381e-06
2.0547984e-06
1.6317307e-06
1.2932982e-06
1.0231451e-06
8.0795251e-07
6.3690088e-07
5.0122166e-07
3.938255e-07
3.0899409e-07
2.4212578e-07
1.8952612e-07
1.4823582e-07
1.1588989e-07
9.0602619e-08
7.0873786e-08
5.5512557e-08
4.3575776e-08
3.4318088e-08
2.7151701e-08
2.1613815e-08
1.7342645e-08
1.4052685e-08
1.1521782e-08
9.5765105e-09
8.0819048e-09
6.9331531e-09
6.0491913e-09
5.36735e-09
4.8395305e-09
4.4293506e-09
4.1093582e-09
3.857582e-09
3.6610205e-09
6.4301725e-05
5.2770301e-05
4.3216845e-05
3.5316448e-05
2.8798489e-05
2.3433517e-05
1.9027672e-05
1.541769e-05
1.2466469e-05
1.0059195e-05
8.0999778e-06
6.5089473e-06
5.2197523e-06
4.1774158e-06
3.3365026e-06
2.6595581e-06
2.115785e-06
1.6799225e-06
1.3313027e-06
1.0530563e-06
8.3144854e-07
6.5532306e-07
5.1563981e-07
4.0509087e-07
3.1778246e-07
2.489724e-07
1.9485395e-07
1.5237833e-07
1.1910942e-07
9.310503e-08
7.2820267e-08
5.702901e-08
4.4760299e-08
3.5246949e-08
2.7884098e-08
2.2195431e-08
1.7808592e-08
1.4430263e-08
1.1831844e-08
9.8350243e-09
8.3010249e-09
7.122151e-09
6.2149792e-09
5.5151959e-09
4.9733283e-09
4.5516735e-09
4.2217598e-09
3.9633363e-09
3.7590623e-09
3.5966087e-09
6.6167199e-05
5.4295598e-05
4.4461351e-05
3.6329532e-05
2.9621342e-05
2.410038e-05
1.9566924e-05
1.5852794e-05
1.2816773e-05
1.0340612e-05
8.3255651e-06
6.6893915e-06
5.363778e-06
4.2921287e-06
3.4276753e-06
2.7318696e-06
2.1730181e-06
1.7251286e-06
1.3669372e-06
1.0810904e-06
8.5346099e-07
6.7257527e-07
5.2913735e-07
4.1563348e-07
3.260047e-07
2.5537661e-07
1.998369e-07
1.5625268e-07
1.2212096e-07
9.5446554e-08
7.4642642e-08
5.8450015e-08
4.587166e-08
3.6119938e-08
2.8574201e-08
2.2745178e-08
1.8250783e-08
1.4790386e-08
1.212939e-08
1.0084885e-08
8.5145696e-09
7.3079641e-09
6.3795841e-09
5.6633495e-09
5.1085015e-09
4.6764503e-09
4.3380662e-09
4.0710216e-09
3.8596809e-09
3.6909378e-09
6.7923572e-05
5.5731157e-05
4.5632197e-05
3.7282285e-05
3.0394893e-05
2.472704e-05
2.0073464e-05
1.6261338e-05
1.3145557e-05
1.0604631e-05
8.537117e-06
6.8585366e-06
5.4987268e-06
4.399565e-06
3.5130272e-06
2.7995345e-06
2.2265499e-06
1.7673926e-06
1.4002381e-06
1.1072775e-06
8.7401462e-07
6.8867778e-07
5.4173079e-07
4.2546667e-07
3.3367153e-07
2.6134698e-07
2.0448174e-07
1.5986412e-07
1.2492855e-07
9.7630225e-08
7.6343131e-08
5.9777135e-08
4.6910899e-08
3.6937624e-08
2.9221134e-08
2.3262681e-08
1.86688e-08
1.5132446e-08
1.2413591e-08
1.0325085e-08
8.7213139e-09
7.4892726e-09
6.5414125e-09
5.810173e-09
5.2435119e-09
4.8017248e-09
4.4547988e-09
4.1803291e-09
3.9620083e-09
3.787142e-09
6.9572104e-05
5.7078076e-05
4.6730341e-05
3.8175537e-05
3.1119852e-05
2.5314103e-05
2.0547808e-05
1.6643759e-05
1.3453192e-05
1.0851563e-05
8.7348929e-06
7.0165991e-06
5.6247786e-06
4.4998742e-06
3.5926818e-06
2.8626547e-06
2.2764641e-06
1.8067832e-06
1.4312614e-06
1.1316631e-06
8.9314646e-07
7.0366054e-07
5.5344424e-07
4.3460982e-07
3.4079844e-07
2.6689581e-07
2.087982e-07
1.6322032e-07
1.2753817e-07
9.9660703e-08
7.7925325e-08
6.1013107e-08
4.7880083e-08
3.7701764e-08
2.9828048e-08
2.3748931e-08
1.9063019e-08
1.5456542e-08
1.2684357e-08
1.0555357e-08
8.9208742e-09
7.6654951e-09
6.6998652e-09
5.9548918e-09
5.3774131e-09
4.9268153e-09
4.5722806e-09
4.2910727e-09
4.0652798e-09
3.8839518e-09
7.1114901e-05
5.8338155e-05
4.7757299e-05
3.9010567e-05
3.1797297e-05
2.5862474e-05
2.0990711e-05
1.7000686e-05
1.3740198e-05
1.1081841e-05
8.919251e-06
7.1638744e-06
5.7421765e-06
4.5932555e-06
3.6668022e-06
2.9213632e-06
2.322869e-06
1.843388e-06
1.4600779e-06
1.1543044e-06
9.1090228e-07
7.1756015e-07
5.6430685e-07
4.4308599e-07
3.4740359e-07
2.7203733e-07
2.1279732e-07
1.6632977e-07
1.299563e-07
1.0154281e-07
7.939276e-08
6.216044e-08
4.8780887e-08
3.8413377e-08
3.0394334e-08
2.4203977e-08
1.943323e-08
1.5762156e-08
1.2940882e-08
1.0774644e-08
9.1119365e-09
7.8351677e-09
6.8532257e-09
6.0957343e-09
5.5084189e-09
5.0497917e-09
4.6885149e-09
4.4001882e-09
4.1696297e-09
3.9825893e-09
7.2554748e-05
5.9513744e-05
4.8715044e-05
3.9789026e-05
3.2428604e-05
2.6373298e-05
2.1403123e-05
1.7332906e-05
1.4007227e-05
1.1295998e-05
9.0906305e-06
7.3007225e-06
5.8512148e-06
4.6799492e-06
3.7355836e-06
2.9758187e-06
2.3658928e-06
1.8773107e-06
1.4867714e-06
1.1752685e-06
9.2733606e-07
7.3041977e-07
5.7435305e-07
4.5092259e-07
3.5350871e-07
2.767887e-07
2.1649263e-07
1.6920309e-07
1.3219124e-07
1.0328308e-07
8.0750524e-08
6.3223091e-08
4.9616273e-08
3.9073676e-08
3.0921564e-08
2.4629019e-08
1.9780269e-08
1.6049828e-08
1.3183473e-08
1.0983066e-08
9.2944965e-09
7.9981325e-09
7.0013211e-09
6.2324063e-09
5.6362016e-09
5.1704402e-09
4.8028489e-09
4.5103136e-09
4.273203e-09
4.0813994e-09
7.3894964e-05
6.0607661e-05
4.9605902e-05
4.0512851e-05
3.3015382e-05
2.6847906e-05
2.1786142e-05
1.7641322e-05
1.425502e-05
1.1494645e-05
9.2495294e-06
7.4275496e-06
5.9522243e-06
4.7602236e-06
3.7992437e-06
3.0261968e-06
2.4056774e-06
1.9086653e-06
1.5114331e-06
1.1946284e-06
9.4250579e-07
7.4228539e-07
5.8361916e-07
4.5814815e-07
3.5913612e-07
2.8116725e-07
2.1989749e-07
1.7185048e-07
1.3425069e-07
1.0488717e-07
8.200273e-08
6.4203956e-08
5.0388374e-08
3.9685511e-08
3.1410607e-08
2.5024215e-08
2.0103895e-08
1.6318994e-08
1.3411285e-08
1.1179535e-08
9.4672326e-09
8.1529096e-09
7.1424489e-09
6.3631295e-09
5.7588631e-09
5.2867039e-09
4.9141839e-09
4.6156692e-09
4.3759603e-09
4.1801214e-09
7.5139243e-05
6.1623074e-05
5.0432481e-05
4.1184203e-05
3.3559417e-05
2.728777e-05
2.2140981e-05
1.792693e-05
1.4484393e-05
1.1678448e-05
9.3964916e-06
7.5447986e-06
6.0455646e-06
4.8343706e-06
3.8580185e-06
3.0726881e-06
2.4423761e-06
1.937575e-06
1.5341616e-06
1.2124631e-06
9.5647461e-07
7.5320733e-07
5.9214518e-07
4.6479442e-07
3.6431094e-07
2.8519286e-07
2.2302755e-07
1.7428425e-07
1.361443e-07
1.0636266e-07
8.3155279e-08
6.5107639e-08
5.1100733e-08
4.0251149e-08
3.1863615e-08
2.5391268e-08
2.0405428e-08
1.6570681e-08
1.3625125e-08
1.136469e-08
9.6306756e-09
8.2999146e-09
7.2770119e-09
6.4882116e-09
5.8766943e-09
5.3988884e-09
5.0214817e-09
4.7207393e-09
4.4757442e-09
4.2767922e-09
7.6291493e-05
6.2563446e-05
5.1197591e-05
4.1805397e-05
3.4062617e-05
2.7694459e-05
2.2468926e-05
1.8190783e-05
1.4696206e-05
1.1848108e-05
9.5320882e-06
7.6529332e-06
6.1316113e-06
4.9026935e-06
3.9121523e-06
3.1154892e-06
2.4761465e-06
1.9641658e-06
1.5550578e-06
1.2288526e-06
9.6930585e-07
7.6323558e-07
5.9997041e-07
4.7089214e-07
3.690571e-07
2.8888398e-07
2.2589697e-07
1.7651514e-07
1.3788011e-07
1.0771546e-07
8.4212428e-08
6.5937067e-08
5.1755208e-08
4.0771379e-08
3.2281044e-08
2.5730188e-08
2.0684498e-08
1.6804209e-08
1.3824054e-08
1.1537373e-08
9.7834679e-09
8.4376478e-09
7.4033229e-09
6.6058668e-09
5.9877499e-09
5.5048936e-09
5.1239488e-09
4.818295e-09
4.5726492e-09
4.3706509e-09
7.7355597e-05
6.3432381e-05
5.1904198e-05
4.2378859e-05
3.4526972e-05
2.8069605e-05
2.2771313e-05
1.8433974e-05
1.4891352e-05
1.2004353e-05
9.6569097e-06
7.7524323e-06
6.2107522e-06
4.9655055e-06
3.9618978e-06
3.1548031e-06
2.5071517e-06
1.9885685e-06
1.5742259e-06
1.2438802e-06
9.8106598e-07
7.72423e-07
6.0713684e-07
4.7647461e-07
3.7340097e-07
2.922615e-07
2.2852226e-07
1.7855619e-07
1.394684e-07
1.0895368e-07
8.5180552e-08
6.6697251e-08
5.2355689e-08
4.1249469e-08
3.2665491e-08
2.604311e-08
2.0942892e-08
1.70211e-08
1.40094e-08
1.169877e-08
9.9267037e-09
8.567115e-09
7.5223671e-09
6.7170083e-09
6.0929297e-09
5.6055716e-09
5.2207907e-09
4.9142278e-09
4.6641623e-09
4.4601915e-09
7.8335186e-05
6.4233337e-05
5.2555319e-05
4.2907066e-05
3.4954508e-05
2.8414867e-05
2.3049499e-05
1.865761e-05
1.5070733e-05
1.2147915e-05
9.7715506e-06
7.8437769e-06
6.2833756e-06
5.0231194e-06
4.0075062e-06
3.1908312e-06
2.5355526e-06
2.0109113e-06
1.591768e-06
1.2576268e-06
9.9181873e-07
7.8081972e-07
6.1368373e-07
4.8157242e-07
3.7736625e-07
2.9534365e-07
2.3091733e-07
1.8041791e-07
1.4091703e-07
1.1008309e-07
8.606382e-08
6.7391117e-08
5.2903886e-08
4.1686555e-08
3.3017401e-08
2.632996e-08
2.1180134e-08
1.7220563e-08
1.418012e-08
1.1847641e-08
1.0058971e-08
8.6867771e-09
7.6324555e-09
6.819852e-09
6.1903015e-09
5.6988331e-09
5.3113625e-09
5.0008327e-09
4.7510043e-09
4.5450939e-09
7.9234361e-05
6.4969211e-05
5.3153843e-05
4.3392487e-05
3.5347262e-05
2.8731911e-05
2.3304846e-05
1.8862803e-05
1.5235251e-05
1.2279528e-05
9.8766063e-06
7.9274489e-06
6.3498704e-06
5.0758485e-06
4.0492295e-06
3.2237758e-06
2.5615113e-06
2.0313238e-06
1.6077874e-06
1.2701747e-06
1.0016297e-06
7.884779e-07
6.1965248e-07
4.8621845e-07
3.8097902e-07
2.9815115e-07
2.3309864e-07
1.8211339e-07
1.4223643e-07
1.1111201e-07
8.6868882e-08
6.802405e-08
5.3404772e-08
4.2086249e-08
3.3339755e-08
2.6593277e-08
2.1398435e-08
1.7404571e-08
1.4338016e-08
1.1985662e-08
1.0181864e-08
8.7981545e-09
7.7350828e-09
6.9158397e-09
6.2812869e-09
5.7860826e-09
5.3955229e-09
5.0845422e-09
4.8310513e-09
4.6237563e-09
0.00014340008
0.00011834323
9.7438083e-05
8.0065964e-05
6.5645141e-05
5.3702952e-05
4.3837601e-05
3.5707247e-05
2.9022383e-05
2.3538697e-05
1.9050644e-05
1.5385798e-05
1.2399914e-05
9.9726601e-06
8.0039189e-06
6.4106156e-06
5.1239974e-06
4.0873117e-06
3.2538319e-06
2.5851833e-06
2.0499295e-06
1.6223822e-06
1.2816014e-06
1.0105598e-06
7.9544528e-07
6.2508037e-07
4.9044162e-07
3.8426161e-07
3.0070108e-07
2.3507916e-07
1.8365238e-07
1.4343382e-07
1.1204571e-07
8.7599484e-08
6.8598576e-08
5.3859666e-08
4.2449387e-08
3.363281e-08
2.6832838e-08
2.1597194e-08
1.7572225e-08
1.4481958e-08
1.211152e-08
1.0293922e-08
8.899682e-09
7.828571e-09
7.003207e-09
6.364017e-09
5.8653271e-09
5.4725034e-09
5.1581859e-09
4.9053828e-09
4.6965198e-09
0.00017506815
0.00014478529
0.00011948341
9.8377598e-05
8.082834e-05
6.6264376e-05
5.4205592e-05
4.4244822e-05
3.6036438e-05
2.9287898e-05
2.3752369e-05
1.9222209e-05
1.5523243e-05
1.250978e-05
1.0060284e-05
8.0736491e-06
6.4659837e-06
5.1678654e-06
4.1219931e-06
3.281192e-06
2.6067224e-06
2.0668514e-06
1.6356502e-06
1.2919847e-06
1.0186711e-06
8.0177116e-07
6.3000656e-07
4.9427305e-07
3.8723877e-07
3.0301316e-07
2.3687464e-07
1.850475e-07
1.4451936e-07
1.128924e-07
8.8262306e-08
6.9120151e-08
5.4272967e-08
4.2779765e-08
3.3899827e-08
2.7051491e-08
2.1778952e-08
1.7725843e-08
1.4614101e-08
1.2227261e-08
1.0397118e-08
8.993267e-09
7.9147898e-09
7.0837872e-09
6.440303e-09
5.9383735e-09
5.5428687e-09
5.2281242e-09
4.9720602e-09
4.7621284e-09
0.00017660995