/*--------------------------------*- C++ -*----------------------------------*\
| =========                 |                                                 |
| \\      /  F ield         | OpenFOAM: The Open Source CFD Toolbox           |
|  \\    /   O peration     | Version:  2312                                  |
|   \\  /    A nd           | Website:  www.openfoam.com                      |
|    \\/     M anipulation  |                                                 |
\*---------------------------------------------------------------------------*/
FoamFile
{
    version     2.0;
    format      ascii;
    arch        "LSB;label=32;scalar=64";
    class       volScalarField;
    location    "0.01";
    object      k;
}
// * * * * * * * * * * * * * * * * * * * * * * * * * * * * * * * * * * * * * //

dimensions      [0 2 -2 0 0 0 0];

internalField   nonuniform List<scalar> 
3250
(
9.0836116
9.0816146
9.0799547
9.078626
9.077617
9.0769163
9.0765133
9.0763983
9.0765628
9.0770003
9.0777057
9.0786755
9.0799083
9.0814048
9.0831679
9.0852026
9.0875163
9.0901184
9.0930204
9.0962361
9.0997809
9.103672
9.1079285
9.1125709
9.1176214
9.1231036
9.1290424
9.1354643
9.1423965
9.1498685
9.1579138
9.1665627
9.1758496
9.1858099
9.1964803
9.2078981
9.2201013
9.2331279
9.2470147
9.2617973
9.2775089
9.2941779
9.3118274
9.3304727
9.1026384
9.1004873
9.0986805
9.0972116
9.0960691
9.0952415
9.0947182
9.0944897
9.0945477
9.0948855
9.0954985
9.0963832
9.0975384
9.098965
9.1006661
9.1026469
9.1049152
9.1074808
9.1103559
9.1135547
9.1170931
9.1209891
9.1252622
9.1299337
9.1350264
9.1405646
9.1465742
9.1530819
9.1601141
9.1676979
9.1758937
9.1847067
9.1941753
9.2043382
9.2152335
9.2268993
9.2393742
9.2526962
9.2669027
9.2820288
9.2981078
9.3151679
9.3332314
9.3523082
9.1249577
9.1225891
9.1205734
9.1189046
9.1175712
9.116562
9.1158665
9.1154756
9.1153814
9.1155774
9.1160595
9.1168249
9.1178728
9.1192044
9.1208233
9.1227354
9.1249492
9.1274757
9.1303282
9.1335222
9.1370748
9.1410053
9.1453346
9.1500853
9.1552819
9.1609503
9.1671181
9.1738146
9.1810727
9.1889315
9.1973989
9.2065372
9.2163766
9.2269532
9.238306
9.2504746
9.2634986
9.277417
9.2922673
9.3080843
9.3249003
9.3427421
9.3616295
9.3815689
9.1556153
9.1529708
9.1506902
9.1487678
9.1471922
9.1459525
9.1450386
9.1444419
9.144155
9.1441723
9.1444897
9.1451057
9.14602
9.1472344
9.1487529
9.1505822
9.1527321
9.1552159
9.1580489
9.1612479
9.1648317
9.1688213
9.1732392
9.1781101
9.1834605
9.1893189
9.1957153
9.2026819
9.2102534
9.2184646
9.2273508
9.2369525
9.2473098
9.2584625
9.2704514
9.2833178
9.2971025
9.3118455
9.3275843
9.3443529
9.3621818
9.3810955
9.4011103
9.4222275
9.1928857
9.1899354
9.1873609
9.1851568
9.1833121
9.1818162
9.1806597
9.1798345
9.179334
9.1791535
9.1792898
9.1797419
9.1805109
9.181599
9.1830106
9.1847529
9.1868382
9.1892843
9.1921084
9.1953289
9.1989659
9.203042
9.2075819
9.2126126
9.2181633
9.2242653
9.2309513
9.238256
9.2462169
9.254878
9.2642737
9.2744526
9.2854524
9.2973159
9.3100872
9.32381
9.3385266
9.3542774
9.3710998
9.3890268
9.4080861
9.4282988
9.4496765
9.4722139
9.2353459
9.2320852
9.229212
9.2267215
9.224603
9.2228465
9.2214434
9.2203863
9.2196696
9.2192895
9.2192441
9.2195331
9.2201592
9.2211254
9.2224358
9.2240973
9.2261255
9.2285508
9.2313881
9.234655
9.2383725
9.2425648
9.2472594
9.2524863
9.2582781
9.2646694
9.2716971
9.2794008
9.2878241
9.2970129
9.3069931
9.3178289
9.329564
9.3422422
9.355909
9.3706097
9.386388
9.4032845
9.4213359
9.4405734
9.4610215
9.4826963
9.5056033
9.5297293
9.2816458
9.2780912
9.2749347
9.2721718
9.2697929
9.267789
9.266152
9.2648756
9.2639552
9.263388
9.2631733
9.2633124
9.2638089
9.264668
9.265894
9.2674915
9.2694781
9.2719194
9.274803
9.2781437
9.2819664
9.2862999
9.2911757
9.296628
9.3026933
9.3094105
9.3168211
9.3249694
9.3339001
9.3436534
9.3542962
9.3658596
9.3784003
9.3919686
9.4066119
9.4223767
9.4393074
9.4574444
9.476823
9.4974717
9.519411
9.5426513
9.5671898
9.593004
9.3304042
9.3265845
9.3231749
9.320169
9.3175582
9.3153344
9.3134904
9.3120208
9.3109217
9.3101916
9.309831
9.3098429
9.3102325
9.311011
9.3121924
9.3137965
9.3158374
9.3182861
9.3211976
9.3246046
9.3285356
9.3330214
9.3380956
9.3437949
9.3501588
9.35723
9.3650538
9.3736794
9.3831593
9.3935414
9.4048646
9.4171962
9.4305923
9.4451024
9.4607753
9.4776588
9.4957975
9.5152313
9.5359931
9.5581078
9.5815907
9.6064469
9.6326619
9.6602032
9.3802411
9.3761707
9.3725382
9.3693267
9.3665231
9.3641181
9.3621047
9.3604779
9.359235
9.3583755
9.3579011
9.3578163
9.3581278
9.3588482
9.3599923
9.3615782
9.3636206
9.3661255
9.3691225
9.3726433
9.3767219
9.3813936
9.3866965
9.3926711
9.3993621
9.4068162
9.415083
9.4242158
9.4342705
9.4452989
9.4573455
9.4704789
9.4847595
9.5002397
9.5169703
9.5349997
9.5543722
9.5751261
9.5972916
9.6208893
9.6459279
9.6724008
9.7002896
9.7295466
9.4394117
9.4343275
9.4296634
9.4254418
9.4216568
9.4182976
9.4153539
9.4128173
9.4106815
9.4089426
9.4075988
9.4066508
9.4061017
9.4059573
9.406226
9.4069212
9.4080592
9.4096583
9.4117379
9.4143165
9.4174202
9.4210806
9.4253333
9.4302173
9.435775
9.4420519
9.449095
9.4569552
9.465686
9.4753436
9.485985
9.4976683
9.5104599
9.5244138
9.5395903
9.5560479
9.5738402
9.5930163
9.6136195
9.6356856
9.6592409
9.6843007
9.7108661
9.7389229
9.7684404
9.7993565
9.4874611
9.4822338
9.4774635
9.473145
9.4692673
9.4658193
9.4627914
9.4601764
9.4579688
9.4561659
9.4547668
9.4537736
9.4531906
9.4530252
9.4532872
9.4539914
9.4551555
9.4567992
9.4589453
9.4616185
9.4648477
9.4686663
9.473112
9.4782266
9.4840553
9.4906473
9.4980542
9.5063311
9.5155357
9.5257277
9.5369674
9.549317
9.562847
9.5776137
9.5936795
9.6111049
9.6299452
9.6502489
9.672058
9.695405
9.720312
9.7467877
9.7748255
9.8044014
9.8354714
9.8679604
9.5325244
9.5272398
9.5224224
9.5180637
9.5141498
9.510669
9.5076119
9.5049714
9.5027428
9.5009242
9.4995157
9.4985206
9.4979446
9.4977966
9.4980875
9.4988344
9.5000562
9.5017746
9.5040151
9.5068063
9.5101806
9.5141743
9.518828
9.5241863
9.5302978
9.5372147
9.5449928
9.5536909
9.5633707
9.5740956
9.5859296
9.5989394
9.6131971
9.628763
9.6457007
9.6640717
9.6839316
9.7053286
9.7283022
9.7528817
9.7790839
9.8069105
9.8363464
9.8673567
9.8998843
9.9338394
9.5735394
9.5682625
9.5634575
9.559115
9.55522
9.5517601
9.5487255
9.5461095
9.5439079
9.5421192
9.5407447
9.5397886
9.5392581
9.5391634
9.5395167
9.5403377
9.5416463
9.5434665
9.5458262
9.5487571
9.5522949
9.5564789
9.561353
9.5669649
9.5733666
9.5806136
9.5887653
9.5978842
9.6080361
9.6192883
9.6317089
9.6453665
9.6603316
9.6766712
9.6944516
9.7137346
9.7345752
9.75702
9.7811059
9.806858
9.8342873
9.8633883
9.8941363
9.9264853
9.9603648
9.9956697
9.6096193
9.6044058
9.599667
9.5953926
9.5915665
9.5881757
9.5852105
9.5826639
9.5805321
9.5788142
9.5775125
9.576632
9.5761812
9.5761718
9.5766173
9.5775399
9.5789606
9.5809057
9.5834056
9.5864946
9.5902113
9.5945982
9.5997024
9.6055748
9.6122707
9.6198491
9.6283728
9.637908
9.6485236
9.6602905
9.6732797
9.6875631
9.7032142
9.7203016
9.7388922
9.7590485
9.7808247
9.8042657
9.8294054
9.8562642
9.8848471
9.9151407
9.9471105
9.9806988
10.015822
10.052359
9.6400797
9.6349771
9.6303508
9.626189
9.6224749
9.6191948
9.6163388
9.6138998
9.6118745
9.6102623
9.6090662
9.6082924
9.6079504
9.6080528
9.6086159
9.6096628
9.6112163
9.6133051
9.6159617
9.6192232
9.6231307
9.6277299
9.6330707
9.6392075
9.6461988
9.6541069
9.6629981
9.6729421
9.6840113
9.6962796
9.7098208
9.7247087
9.7410176
9.7588193
9.7781822
9.7991689
9.8218325
9.8462158
9.8723488
9.9002473
9.9299096
9.9613141
9.9944165
10.029147
10.06541
10.103066
9.6644495
9.6594958
9.6550196
9.6510067
9.6474395
9.6443039
9.6415893
9.6392889
9.6373994
9.6359209
9.6348568
9.6342144
9.6340042
9.6342397
9.6349403
9.6361292
9.6378315
9.640078
9.6429037
9.6463478
9.6504542
9.6552716
9.6608526
9.6672549
9.67454
9.6827737
9.6920255
9.7023683
9.7138775
9.7266296
9.7407008
9.7561674
9.7731065
9.791592
9.8116917
9.8334672
9.856971
9.8822433
9.9093109
9.9381842
9.9688549
10.001293
10.035445
10.071229
10.108534
10.147209
9.6824694
9.677691
9.6733933
9.6695568
9.6661629
9.663197
9.6606483
9.6585097
9.6567781
9.655454
9.6545416
9.6540489
9.6539877
9.6543718
9.6552242
9.6565677
9.6584301
9.660844
9.6638466
9.6674797
9.6717897
9.6768277
9.6826497
9.6893159
9.6968911
9.7054443
9.7150479
9.7257779
9.7377121
9.7509289
9.7655066
9.781524
9.7990632
9.818205
9.8390092
9.8615351
9.8858346
9.9119463
9.9398935
9.9696816
10.001296
10.034698
10.069823
10.10658
10.144844
10.18445
9.694078
9.6894906
9.6853892
9.6817474
9.6785448
9.6757658
9.6733992
9.671438
9.6698792
9.6687236
9.667976
9.6676452
9.6677435
9.6682871
9.6693001
9.6708062
9.6728353
9.6754221
9.6786059
9.6824306
9.6869454
9.6922039
9.6982648
9.7051912
9.713051
9.7219158
9.7318614
9.7429661
9.7553098
9.7689726
9.7840333
9.8005711
9.8186727
9.8384508
9.8599332
9.8831754
9.9082304
9.9351364
9.9639137
9.9945629
10.027063
10.061367
10.097401
10.135062
10.174215
10.214677
9.7042343
9.6993636
9.6949913
9.6910996
9.6876636
9.6846623
9.6820796
9.6799042
9.678129
9.6767509
9.6757713
9.6751955
9.675033
9.6752963
9.6760052
9.6771827
9.6788548
9.6810534
9.6838148
9.6871804
9.6911966
9.6959147
9.701391
9.7076867
9.7148678
9.7230048
9.7321725
9.7424491
9.7539156
9.7666542
9.7807467
9.7962726
9.8133075
9.8319325
9.8523301
9.8744613
9.8983856
9.9241589
9.9518188
9.9813826
10.012846
10.046182
10.081335
10.118224
10.156733
10.196714
10.237975
9.7032733
9.6986115
9.6944524
9.6907716
9.6875429
9.6847446
9.6823606
9.6803787
9.6787916
9.6775965
9.6767947
9.6763923
9.6763993
9.6768287
9.6777035
9.6790456
9.6808836
9.6832506
9.6861851
9.6897305
9.6939351
9.6988527
9.7045419
9.7110666
9.7184954
9.7269014
9.7363621
9.7469584
9.7587739
9.7718937
9.786404
9.8023939
9.8199637
9.8392245
9.8600835
9.8827769
9.9073347
9.9337884
9.9621655
9.9924776
10.024715
10.058844
10.094803
10.132501
10.171812
10.212577
10.254591
9.6966672
9.6922098
9.688261
9.6847892
9.6817663
9.6791697
9.676982
9.6751908
9.6737887
9.6727732
9.6721459
9.6719135
9.6720858
9.672679
9.6737152
9.675218
9.6772174
9.6797483
9.6828509
9.6865704
9.6909574
9.6960676
9.7019622
9.7087074
9.7163742
9.7250385
9.7347801
9.7456824
9.7578319
9.7713168
9.7862282
9.8026613
9.8207142
9.8404534
9.8618896
9.8851533
9.9103189
9.9374219
9.966484
9.9975114
10.030489
10.065376
10.102105
10.140575
10.180652
10.222166
10.2649
9.6848577
9.6805921
9.6768411
9.6735669
9.670739
9.6683339
9.6663335
9.6647251
9.663501
9.6626586
9.6621998
9.6621316
9.6624638
9.6632159
9.6644084
9.6660671
9.6682233
9.6709135
9.6741795
9.6780684
9.6826329
9.6879308
9.6940255
9.7009855
9.7088845
9.7178005
9.727816
9.7390169
9.7514921
9.7653326
9.7806314
9.7974818
9.8159682
9.8361544
9.8581495
9.8819901
9.9077502
9.9354769
9.9651939
9.9969045
10.03059
10.066205
10.103674
10.142888
10.183703
10.22594
10.269369
9.6730079
9.6683837
9.6643057
9.6607405
9.6576504
9.6550045
9.652778
9.6509523
9.6495143
9.6484561
9.6477751
9.6474736
9.6475582
9.6480407
9.6489411
9.6502801
9.652085
9.6543885
9.6572287
9.6606488
9.6646978
9.6694303
9.6749061
9.6811908
9.6883552
9.6964752
9.7056312
9.7159082
9.7273943
9.7401807
9.7543605
9.7700281
9.7872759
9.8061899
9.8268467
9.8493422
9.8737419
9.9000871
9.9284255
9.9587827
9.9911602
10.025535
10.061853
10.100036
10.139966
10.181495
10.224431
10.268537
9.652295
9.6478315
9.6439209
9.6405238
9.637601
9.6351207
9.6330572
9.6313912
9.6301092
9.6292031
9.6286702
9.6285132
9.6287383
9.6293601
9.6303973
9.6318721
9.633813
9.6362539
9.6392342
9.642799
9.6469987
9.6518898
9.6575342
9.6639995
9.6713585
9.6796894
9.6890751
9.6996026
9.7113624
9.7244479
9.7389541
9.7549765
9.7726086
9.7919382
9.8130457
9.8360038
9.8609473
9.8878547
9.9167816
9.9477552
9.9807754
10.015816
10.05282
10.091702
10.132338
10.17457
10.218199
10.262977
9.6281097
9.6237836
9.6200195
9.6167706
9.6139962
9.6116631
9.609745
9.6082217
9.6070794
9.6063098
9.6059102
9.6058834
9.6062355
9.6069837
9.6081452
9.6097438
9.6118092
9.6143765
9.6174864
9.6211853
9.6255256
9.6305653
9.6363683
9.643004
9.6505475
9.659079
9.6686836
9.6794506
9.6914726
9.704845
9.719665
9.7360294
9.7540335
9.7737692
9.7953257
9.8187984
9.8441961
9.871629
9.9011221
9.9326924
9.9663361
10.002023
10.039694
10.079255
10.120578
10.163496
10.207804
10.253245
9.6010284
9.5968184
9.5931788
9.5900572
9.5874111
9.5852059
9.5834144
9.5820158
9.5809959
9.5803463
9.5800642
9.5801519
9.5806174
9.5814776
9.5827502
9.5844601
9.5866379
9.5893199
9.592548
9.5963703
9.6008404
9.6060183
9.6119694
9.6187652
9.6264827
9.6352042
9.6450168
9.6560119
9.6682844
9.6819317
9.6970525
9.7137456
9.7321081
9.7522333
9.7742069
9.7980982
9.8240118
9.8519677
9.8820106
9.9141594
9.9484085
9.9847246
10.023044
10.063268
10.105264
10.148858
10.193837
10.239937
9.5763351
9.5716012
9.5674925
9.563957
9.560942
9.5584038
9.5563068
9.5546229
9.5533307
9.5524156
9.5518689
9.5516881
9.5518748
9.5524392
9.5533971
9.5547673
9.5565755
9.5588533
9.561638
9.5649729
9.5689073
9.5734965
9.5788017
9.5848904
9.5918358
9.5997167
9.6086173
9.6186269
9.6298388
9.6423499
9.6562595
9.6716682
9.6886763
9.7073826
9.7278838
9.7502723
9.7746263
9.8009795
9.8294284
9.8600014
9.8927108
9.9275476
9.9644756
10.003427
10.044301
10.086956
10.131215
10.176858
10.223611
9.5450301
9.5403666
9.5363363
9.5328837
9.5299548
9.5275045
9.5254962
9.523901
9.5226971
9.5218693
9.5214089
9.5213133
9.5215837
9.5222323
9.5232738
9.5247281
9.5266218
9.5289872
9.5318628
9.535293
9.5393284
9.5440257
9.5494476
9.5556633
9.5627476
9.5707812
9.5798502
9.5900456
9.6014628
9.6142005
9.62836
9.6440434
9.6613525
9.6803871
9.7012447
9.7240204
9.7487912
9.7756039
9.8045383
9.8356257
9.8688781
9.9042851
9.941808
9.9813761
10.022884
10.066186
10.111099
10.157397
10.204801
9.5124296
9.5078143
9.5038411
9.5004511
9.4975884
9.4952067
9.4932685
9.491744
9.4906109
9.4898536
9.4894634
9.4894374
9.4897767
9.4904953
9.4916068
9.4931322
9.4950988
9.4975399
9.5004948
9.5040091
9.5081345
9.5129292
9.5184573
9.5247895
9.5320022
9.5401779
9.5494044
9.5597746
9.5713856
9.584338
9.5987348
9.61468
9.6322766
9.6516247
9.672819
9.6959498
9.7211317
9.7483953
9.7778005
9.8093846
9.843162
9.8791213
9.9172217
9.9573897
9.9995156
10.043451
10.089007
10.135951
10.184
9.4789762
9.4743906
9.4704553
9.4671089
9.464294
9.4619629
9.4600772
9.4586063
9.4575276
9.456825
9.4564897
9.4565185
9.4569132
9.457688
9.4588566
9.4604407
9.4624683
9.4649735
9.4679966
9.4715842
9.4757892
9.480671
9.486295
9.4927335
9.5000644
9.5083718
9.5177451
9.5282791
9.5400725
9.5532277
9.5678494
9.5840433
9.6019144
9.6215656
9.6430949
9.6665871
9.692148
9.7198281
9.7496806
9.7817419
9.8160256
9.8525188
9.8911787
9.9319292
9.9746576
10.019211
10.065397
10.112976
10.161664
9.4450699
9.4404969
9.4365821
9.4332622
9.430478
9.4281809
9.4263316
9.4248988
9.4238592
9.4231967
9.4229021
9.4229721
9.4234093
9.4242277
9.4254413
9.4270725
9.42915
9.4317086
9.4347894
9.4384401
9.4427147
9.4476736
9.4533838
9.4599187
9.4673578
9.4757867
9.4852965
9.4959834
9.507948
9.5212942
9.5361284
9.5525579
9.5706896
9.5906283
9.6124773
9.6363203
9.6622437
9.6903198
9.7206003
9.7531199
9.7878909
9.8248992
9.8641001
9.905415
9.9487285
9.9938848
10.040686
10.088889
10.138205
10.188297
9.4110647
9.406489
9.4025792
9.3992702
9.3965015
9.3942235
9.3923959
9.3909869
9.3899727
9.389337
9.3890703
9.3891693
9.389637
9.3904874
9.3917351
9.3934028
9.3955198
9.3981218
9.4012507
9.4049549
9.4092897
9.4143165
9.4201035
9.4267254
9.4342632
9.4428039
9.45244
9.4632693
9.475394
9.4889195
9.503954
9.5206063
9.5389842
9.5591911
9.5813235
9.6055074
9.63179
9.6602484
9.6909395
9.7238988
9.7591381
9.796642
9.8363644
9.8782248
9.922105
9.9678466
10.015247
10.064061
10.113996
10.164709
9.3772695
9.3726773
9.3687589
9.3654471
9.3626805
9.3604083
9.3585895
9.3571917
9.3561907
9.3555698
9.3553196
9.3554364
9.355924
9.3567962
9.3580679
9.3597624
9.3619097
9.3645459
9.3677139
9.371463
9.3758492
9.3809352
9.3867904
9.3934905
9.4011178
9.4097608
9.4195134
9.430475
9.442749
9.4564426
9.4716653
9.4885275
9.5071394
9.5276077
9.5500309
9.5745147
9.6011315
9.6299535
9.6610368
9.6944167
9.7301045
9.7680841
9.8083078
9.8506936
9.8951212
9.9414295
9.9894133
10.038822
10.089362
10.140685
9.3439495
9.3393291
9.3353902
9.3320639
9.3292877
9.3270097
9.3251884
9.3237908
9.3227922
9.3221758
9.3219319
9.322057
9.3225549
9.3234397
9.3247265
9.3264394
9.3286085
9.3312709
9.3344699
9.3382558
9.3426855
9.3478228
9.3537378
9.3605078
9.3682161
9.3769525
9.3868124
9.3978962
9.4103092
9.4241597
9.4395587
9.456618
9.4754488
9.4961611
9.5188581
9.5436303
9.5705644
9.5997321
9.6311889
9.6649699
9.7010862
9.7395208
9.7802251
9.8231154
9.8680699
9.9149251
9.9634732
10.01346
10.064588
10.116508
9.311329
9.3066707
9.3027013
9.2993506
9.2965547
9.2942613
9.2924278
9.2910208
9.2900155
9.2893945
9.2891483
9.2892732
9.2897732
9.2906625
9.2919569
9.2936804
9.295864
9.2985452
9.3017681
9.3055837
9.3100497
9.3152308
9.3211983
9.3280304
9.3358118
9.3446331
9.3545912
9.365788
9.3783298
9.3923266
9.4078904
9.4251343
9.4441693
9.4651049
9.4880585
9.5131094
9.5403457
9.5698414
9.6016528
9.6358152
9.6723393
9.7112079
9.7523713
9.7957447
9.8412047
9.8885859
9.9376781
9.9882245
10.039924
10.092424
9.2795949
9.2748906
9.2708826
9.2674991
9.2646753
9.2623581
9.2605044
9.2590802
9.2580602
9.2574272
9.2571712
9.2572887
9.2577837
9.2586709
9.259966
9.2616938
9.2638854
9.266579
9.2698194
9.2736583
9.2781542
9.2833725
9.2893857
9.2962728
9.3041196
9.313018
9.323066
9.3343667
9.3470277
9.3611602
9.3768779
9.394295
9.4135246
9.4346753
9.4578634
9.4831739
9.5106948
9.5405005
9.5726475
9.6071713
9.6440827
9.6833638
9.7249645
9.768799
9.8147422
9.8626275
9.9122425
9.9633278
10.015579
10.068643
9.2488992
9.2441426
9.2400894
9.2366665
9.2338082
9.2314606
9.2295799
9.2281319
9.227091
9.2264395
9.2261676
9.2262718
9.226756
9.2276352
9.2289255
9.2306519
9.2328461
9.2355466
9.238799
9.2426555
9.2471755
9.2524252
9.2584778
9.2654134
9.2733187
9.2822869
9.2924168
9.3038129
9.3165838
9.3308421
9.3467026
9.3642812
9.3836934
9.4050505
9.4284543
9.4540073
9.4817957
9.5118934
9.5443571
9.5792225
9.6165004
9.6561726
9.6981884
9.7424613
9.7888653
9.837232
9.8873474
9.9389499
9.9917327
10.04534
9.2193632
9.2145494
9.2104461
9.2069786
9.2040805
9.2016971
9.1997843
9.1983073
9.1972401
9.1965652
9.1962724
9.1963585
9.1968269
9.1976935
9.1989743
9.2006946
9.2028867
9.2055896
9.2088492
9.2127185
9.2172575
9.2225332
9.2286197
9.2355979
9.2435555
9.2525865
9.262791
9.2742744
9.2871465
9.3015211
9.3175137
9.3352416
9.354822
9.3763659
9.3999782
9.4257601
9.4537998
9.4841719
9.5169336
9.5521209
9.5897445
9.6297862
9.6721951
9.7168837
9.7637251
9.8125501
9.8631429
9.91524
9.9685324
10.022662
9.1910801
9.1862056
9.1820486
9.1785327
9.1755909
9.1731678
9.1712188
9.1697087
9.1686114
9.167909
9.1675914
9.1676556
9.1681044
9.1689545
9.170222
9.1719326
9.1741188
9.17682
9.1800828
9.1839608
9.1885144
9.1938115
9.1999269
9.2069424
9.2149464
9.224034
9.2343061
9.2458693
9.2588345
9.2733161
9.2894311
9.307297
9.3270328
9.3487506
9.3725579
9.3985542
9.4268292
9.4574585
9.4904998
9.5259895
9.5639384
9.6043283
9.6471079
9.6921894
9.7394451
9.7887047
9.8397512
9.8923196
9.9460988
10.000729
9.164119
9.1591812
9.1549683
9.1514015
9.1484131
9.1459475
9.1439594
9.1424133
9.1412829
9.1405501
9.1402047
9.140244
9.1406704
9.1415011
9.1427523
9.1444501
9.1466272
9.1493236
9.1525863
9.1564693
9.1610339
9.1663483
9.1724882
9.1795361
9.1875813
9.1967197
9.2070532
9.2186891
9.2317395
9.2463199
9.262548
9.2805416
9.300416
9.322301
9.3462895
9.3724854
9.40098
9.4318496
9.4651525
9.5009254
9.5391795
9.5798963
9.6230247
9.6684764
9.7161231
9.7657935
9.8172698
9.8702854
9.9245279
9.979636
9.1385276
9.1335249
9.1292547
9.1256354
9.1225989
9.1200889
9.1180598
9.1164757
9.1153102
9.1145448
9.1141696
9.1141819
9.1145837
9.1153927
9.1166254
9.1183081
9.1204737
9.1231628
9.1264226
9.1303078
9.13488
9.1402084
9.1463689
9.153445
9.1615267
9.1707106
9.1810995
9.1928017
9.2059299
9.220601
9.2369335
9.2550471
9.27506
9.29709
9.3212444
9.3476255
9.3763244
9.407418
9.4409651
9.4770026
9.515542
9.5565651
9.6000206
9.6458198
9.6938342
9.7438918
9.7957737
9.8492125
9.903894
9.9594558
9.1143344
9.1092668
9.1049385
9.1012661
9.0981807
9.0956253
9.0935541
9.091931
9.090729
9.0899299
9.0895235
9.0895072
9.0898832
9.0906689
9.0918816
9.0935474
9.0956998
9.0983795
9.1016343
9.1055192
9.1100965
9.1154357
9.1216136
9.1287141
9.136828
9.1460526
9.1564916
9.1682539
9.1814533
9.1962072
9.2126357
9.2308594
9.2509982
9.2731644
9.2974729
9.3240257
9.3529144
9.3842162
9.4179904
9.4542744
9.4930799
9.534389
9.5781502
9.6242749
9.6726341
9.7230552
9.7753188
9.8291562
9.8842524
9.9402436
9.1124183
9.1044232
9.0975179
9.0915484
9.0864195
9.082034
9.0783088
9.0751744
9.0725736
9.07046
9.0687972
9.0675583
9.0667249
9.0662866
9.066241
9.0665904
9.0673519
9.0685434
9.0701912
9.0723291
9.074998
9.0782461
9.0821288
9.0867089
9.0920564
9.0982488
9.1053703
9.1135126
9.1227737
9.1332577
9.1450746
9.1583388
9.1731686
9.1896847
9.2080088
9.2282608
9.2505556
9.2750072
9.3017191
9.3307836
9.3622784
9.3962634
9.4327763
9.4718293
9.5134046
9.5574508
9.6038793
9.6525607
9.7033221
9.7559434
9.8101553
9.8656416
9.9220376
9.1005834
9.091266
9.0831883
9.0762047
9.070172
9.0649833
9.0605419
9.0567647
9.053582
9.0509362
9.0487804
9.0470783
9.0458026
9.0449347
9.0444644
9.0443893
9.0447118
9.0454486
9.0466185
9.0482476
9.0503701
9.0530271
9.0562672
9.0601463
9.0647275
9.0700812
9.0762855
9.0834253
9.0915926
9.1008861
9.1114108
9.1232771
9.1366002
9.1514991
9.1680953
9.1865112
9.2068672
9.2292804
9.2538643
9.2807231
9.30995
9.3416233
9.3758033
9.4125283
9.4518108
9.4936332
9.5379442
9.5846553
9.6336368
9.6847156
9.7376712
9.7922335
9.8480855
9.9048617
9.0809056
9.0715014
9.0633458
9.0562894
9.0501936
9.0449466
9.0404509
9.0366233
9.0333935
9.0307036
9.0285066
9.0267657
9.0254537
9.0245518
9.0240499
9.0239454
9.0242412
9.0249534
9.0261015
9.0277117
9.0298183
9.0324628
9.0356942
9.0395684
9.0441492
9.0495075
9.0557216
9.062877
9.0710663
9.0803888
9.0909501
9.1028611
9.1162378
9.1311997
9.147869
9.1663688
9.1868205
9.2093423
9.2340477
9.2610418
9.2904182
9.322256
9.356616
9.393537
9.4330316
9.4750826
9.519639
9.5666121
9.6158724
9.6672463
9.7205131
9.7754021
9.8315956
9.8887275
9.0625891
9.0531027
9.0448732
9.0377483
9.0315915
9.0262883
9.0217404
9.0178641
9.0145888
9.0118562
9.0096192
9.0078407
9.0064934
9.0055585
9.0050256
9.0048924
9.005162
9.0058499
9.0069764
9.0085678
9.0106584
9.0132902
9.0165121
9.0203808
9.0249602
9.0303215
9.0365437
9.0437125
9.0519212
9.0612696
9.0718636
9.083815
9.0972403
9.1122596
9.1289956
9.1475722
9.1681114
9.1907325
9.2155494
9.2426676
9.2721814
9.3041705
9.3386961
9.3757975
9.4154876
9.4577496
9.5025326
9.5497479
9.5992661
9.6509134
9.704469
9.7596615
9.8161727
9.8736362
9.0456033
9.0360396
9.0277402
9.0205511
9.014336
9.0089792
9.0043815
9.0004586
8.9971398
8.9943663
8.9920909
8.9902763
8.9888949
8.987928
8.9873653
8.9872044
8.9874485
8.9881128
8.9892183
8.9907911
8.992866
8.9954849
8.9986973
9.0025599
9.007137
9.0125003
9.018729
9.0259094
9.0341352
9.0435065
9.05413
9.0661179
9.0795872
9.0946586
9.1114553
9.130102
9.1507211
9.173433
9.1983517
9.2255834
9.2552231
9.2873509
9.3220284
9.3592954
9.3991652
9.4416212
9.4866127
9.5340513
9.5838072
9.635707
9.6895295
9.745003
9.8018087
9.8595799
9.0299114
9.0202755
9.0119105
9.0046612
8.9983911
8.9929835
8.9883387
8.9843718
8.9810116
8.9781993
8.9758873
8.9740382
8.9726244
8.9716271
8.9710358
8.9708483
8.971068
8.9717096
8.9727948
8.9743498
8.9764092
8.9790155
8.9822183
8.9860745
8.9906488
8.9960132
9.0022472
9.0094376
9.0176783
9.0270701
9.03772
9.0497408
9.0632498
9.0783685
9.0952204
9.1139307
9.1346228
9.1574172
9.1824288
9.2097642
9.2395188
9.2717733
9.3065898
9.3440084
9.3840427
9.4266765
9.4718593
9.5195028
9.5694773
9.6216093
9.6756776
9.7314101
9.7884876
9.8465433
9.015472
9.005769
8.9973429
8.9900375
8.9837159
8.9782607
8.9735715
8.9695632
8.9661641
8.9633152
8.9609686
8.959087
8.9576425
8.9566163
8.9559981
8.9557853
8.9559819
8.9566019
8.9576678
8.9592056
8.9612503
8.9638443
8.9670376
8.9708874
8.9754585
8.9808233
8.9870616
8.9942606
9.0025145
9.0119245
9.0225981
9.0346484
9.0481933
9.0633547
9.0802567
9.0990247
9.119783
9.1426525
9.1677484
9.1951781
9.2250375
9.2574074
9.2923506
9.3299074
9.3700919
9.4128881
9.4582458
9.5060766
9.5562512
9.608596
9.6628899
9.7188601
9.7761875
9.834505
9.0022401
8.9924751
8.9839924
8.976635
8.9702655
8.964766
8.9600354
8.9559884
8.9525529
8.9496698
8.9472909
8.9453788
8.9439056
8.9428523
8.9422087
8.9419722
8.942147
8.9427467
8.9437943
8.9453159
8.9473466
8.9499289
8.953113
8.9569565
8.9615242
8.9668889
8.9731307
8.980337
8.9886026
8.9980288
9.0087235
9.0208003
9.0343776
9.0495776
9.0665248
9.0853449
9.1061633
9.1291007
9.1542732
9.1817884
9.2117427
9.2442175
9.2792757
9.3169581
9.3572792
9.4002232
9.44574
9.4937417
9.5440987
9.5966376
9.6511376
9.7073252
9.7648813
9.8234385
8.990168
8.980346
8.9718112
8.9644059
8.9579922
8.9524517
8.9476829
8.9435999
8.9401308
8.9372158
8.9348069
8.9328665
8.9313665
8.9302881
8.9296208
8.9293623
8.9295168
8.9300975
8.9311281
8.9326344
8.9346519
8.9372232
8.9403986
8.9442359
8.9488002
8.9541645
8.9604091
8.9676218
8.9758976
8.9853381
8.9960518
9.0081524
9.0217587
9.0369934
9.0539814
9.0728487
9.0937211
9.1167199
9.1419614
9.1695539
9.199594
9.2321636
9.267326
9.3051221
9.3455669
9.3886447
9.4343059
9.4824625
9.5329852
9.5857005
9.6403879
9.6967733
9.7545378
9.8133135
8.9792061
8.969332
8.9607496
8.9533005
8.9468463
8.9412681
8.9364641
8.9323482
8.9288479
8.9259037
8.9234672
8.9215006
8.919976
8.9188743
8.9181852
8.9179063
8.918042
8.9186051
8.9196199
8.9211122
8.9231174
8.9256785
8.9288457
8.9326771
8.937238
8.9426017
8.9488486
8.9560668
8.9643516
8.9738049
8.9845354
8.9966573
9.0102896
9.0255554
9.0425801
9.0614898
9.0824108
9.1054647
9.1307683
9.1584304
9.1885479
9.2212028
9.256459
9.2943576
9.3349139
9.3781125
9.423904
9.4722005
9.5228729
9.5757476
9.6306048
9.6871693
9.7451226
9.8040963
8.9693036
8.9593824
8.9507567
8.9432678
8.9367767
8.9311641
8.926328
8.922182
8.9186534
8.9156824
8.9132206
8.9112301
8.9096829
8.90856
8.9078509
8.9075533
8.9076718
8.9082189
8.9092192
8.9106985
8.9126924
8.915244
8.9184036
8.9222295
8.9267873
8.9321502
8.938399
8.945622
8.9539147
8.9633794
8.9741249
8.9862657
8.9999212
9.0152149
9.0322723
9.0512201
9.0721844
9.0952877
9.1206471
9.1483715
9.1785582
9.2112897
9.2466299
9.2846205
9.3252768
9.3685838
9.4144923
9.4629146
9.5137216
9.5667397
9.6217497
9.6784755
9.7365993
9.7957512
8.9604092
8.9504455
8.9417809
8.934256
8.9277316
8.9220879
8.9172228
8.9130494
8.9094951
8.9064999
8.9040151
8.902003
8.9004354
8.8992931
8.8985659
8.8982514
8.8983543
8.8988867
8.8998739
8.9013414
8.9033251
8.905868
8.9090207
8.9128416
8.9173963
8.9227584
8.9290088
8.936236
8.9445357
8.9540104
8.9647692
8.9769268
8.9906031
9.0059214
9.023008
9.0419897
9.0629927
9.08614
9.111549
9.139329
9.1695775
9.2023772
9.2377924
9.275865
9.3166106
9.3600144
9.4060273
9.454562
9.5054893
9.5586357
9.6137823
9.6706526
9.7289293
9.7882412
8.9524716
8.9424698
8.9337704
8.9262133
8.919659
8.9139876
8.9090963
8.9048985
8.901321
8.898304
8.8957986
8.893767
8.892181
8.8910214
8.8902779
8.8899481
8.890037
8.8905563
8.8915316
8.8929886
8.894963
8.8974981
8.9006446
8.9044609
8.9090129
8.9143742
8.9206259
8.9278568
8.9361626
8.9456462
8.9564167
8.9685893
8.9822838
8.9976241
9.0147365
9.0337481
9.0547855
9.0779718
9.1034248
9.131254
9.1615572
9.1944174
9.2298991
9.2680444
9.3088691
9.3523586
9.3984642
9.4470987
9.4981329
9.5513932
9.6066612
9.66366
9.7220731
9.7815289
9.8416084
8.9454396
8.9354042
8.9266738
8.9190882
8.9125074
8.9068112
8.9018968
8.897677
8.8940791
8.8910425
8.8885188
8.8864699
8.8848675
8.8836925
8.8829344
8.8825911
8.8826675
8.8831751
8.8841399
8.8855875
8.8875537
8.8900819
8.8932228
8.897035
8.9015846
8.9069451
8.9131981
8.9204322
8.9287434
8.9382348
8.9490157
8.9612014
8.974912
8.9902716
9.0074067
9.0264446
9.0475123
9.070733
9.0962248
9.1240973
9.1544486
9.187362
9.2229021
9.2611113
9.3020056
9.3455707
9.3917579
9.4404802
9.4916086
9.5449694
9.6003443
9.6574566
9.7159903
9.7755741
9.835789
8.9392628
8.9291978
8.9204404
8.9128297
8.9062257
8.9005076
8.8955727
8.8913338
8.8877177
8.8846641
8.8821242
8.88006
8.8784431
8.8772545
8.8764837
8.8761285
8.8761939
8.8766912
8.8776468
8.8790861
8.8810451
8.8835672
8.8867033
8.890512
8.8950594
8.9004194
8.9066733
8.9139103
8.9222263
8.9317245
8.9425145
8.9547117
8.9684364
8.9838129
9.0009678
9.0200288
9.0411228
9.0643735
9.0898991
9.1178094
9.1482028
9.1811625
9.2167536
9.2550186
9.2959736
9.3396046
9.3858629
9.4346619
9.4858726
9.5393214
9.5947894
9.6520011
9.7106403
9.770336
9.8306687
8.9338917
8.9238012
8.9150202
8.9073878
8.9007636
8.8950266
8.8900739
8.8858182
8.8821863
8.8791178
8.8765638
8.8744863
8.872857
8.8716566
8.8708747
8.8705091
8.870565
8.8710534
8.872001
8.8734332
8.875386
8.8779028
8.8810348
8.8848404
8.889386
8.8947455
8.9010004
8.9082398
8.91656
8.9260642
8.9368622
8.9490694
8.9628063
8.9781974
8.9953695
9.0144505
9.0355673
9.0588439
9.0843987
9.1123417
9.1427713
9.175771
9.2114061
9.2497192
9.2907267
9.3344144
9.3807342
9.4295994
9.4808813
9.5344062
9.5899543
9.6472522
9.7059827
9.7657756
9.8262111
9.8868272
8.9292781
8.9191657
8.9103646
8.9027137
8.8960722
8.8903189
8.8853509
8.8810808
8.8774354
8.8743541
8.8717881
8.8696992
8.8680591
8.8668486
8.8660573
8.8656828
8.8657306
8.8662115
8.8671522
8.8685784
8.8705259
8.8730384
8.8761668
8.8799699
8.884514
8.8898732
8.896129
8.9033706
8.9116945
8.9212038
8.9320086
8.9442244
8.9579719
8.9733755
8.9905624
9.0096604
9.0307968
9.0540955
9.0796752
9.107646
9.1381065
9.1711404
9.2068129
9.245167
9.286219
9.3299552
9.3763273
9.4252489
9.4765914
9.5301812
9.5857977
9.6431692
9.7019778
9.7618536
9.8223774
9.8830866
8.9253749
8.9152442
8.9064262
8.8987597
8.8921038
8.8863367
8.8813558
8.8770736
8.8734167
8.8703247
8.8677486
8.8656501
8.864001
8.8627821
8.8619828
8.8616009
8.8616419
8.8621165
8.8630516
8.8644727
8.8664159
8.8689247
8.8720502
8.8758513
8.8803943
8.8857533
8.8920099
8.8992535
8.9075805
8.9170944
8.927905