/*--------------------------------*- C++ -*----------------------------------*\
| =========                 |                                                 |
| \\      /  F ield         | OpenFOAM: The Open Source CFD Toolbox           |
|  \\    /   O peration     | Version:  2312                                  |
|   \\  /    A nd           | Website:  www.openfoam.com                      |
|    \\/     M anipulation  |                                                 |
\*---------------------------------------------------------------------------*/
FoamFile
{
    version     2.0;
    format      ascii;
    arch        "LSB;label=32;scalar=64";
    class       volScalarField;
    location    "0.01";
    object      Ma;
}
// * * * * * * * * * * * * * * * * * * * * * * * * * * * * * * * * * * * * * //

dimensions      [0 0 0 0 0 0 0];

internalField   nonuniform List<scalar> 
3250
(
0.0012711857
0.0012489003
0.0012272097
0.0012061157
0.0011856227
0.001165736
0.0011464612
0.0011278045
0.0011097719
0.0010923697
0.0010756038
0.0010594799
0.0010440033
0.0010291787
0.0010150102
0.001001501
0.00098865363
0.00097647006
0.00096495244
0.00095410327
0.00094392529
0.00093442164
0.00092559569
0.00091745134
0.00090999297
0.00090322615
0.0008971584
0.00089180185
0.00088717887
0.00088327597
0.00087995193
0.00087734694
0.00087549239
0.00087437657
0.00087399475
0.0008743448
0.00087542475
0.00087723178
0.00087976162
0.00088300779
0.0008869577
0.00089159886
0.00089691688
0.00090289488
0.00093245546
0.00091012208
0.00088835508
0.00086715717
0.00084653321
0.00082648892
0.00080703073
0.00078816561
0.00076990094
0.00075224442
0.00073520398
0.00071878756
0.00070300307
0.00068785807
0.00067335958
0.00065951366
0.0006463253
0.00063379896
0.00062193976
0.00061075388
0.00060024817
0.00059042994
0.00058130665
0.00057288581
0.00056517458
0.00055817931
0.00055190409
0.00054634737
0.00054149992
0.00053741933
0.00053428046
0.00053185066
0.00053016439
0.00052926079
0.00052915092
0.00052984275
0.00053134186
0.00053365157
0.00053677325
0.00054070684
0.00054544842
0.00055099173
0.00055732924
0.0005644523
0.00072632673
0.00070391165
0.00068204602
0.00066073254
0.00063997586
0.0006197814
0.00060015538
0.00058110468
0.00056263686
0.00054476005
0.00052748293
0.00051081464
0.00049476465
0.00047934258
0.00046455767
0.00045041784
0.00043692865
0.00042409383
0.0004119197
0.00040041508
0.00038959035
0.00037945613
0.00037002317
0.00036130168
0.00035330179
0.00034603308
0.00033950501
0.00033373178
0.00032870863
0.00032437686
0.00032095277
0.00031842324
0.00031667105
0.00031570883
0.00031556365
0.00031625048
0.00031778001
0.00032016003
0.00032339631
0.00032749451
0.00033245896
0.00033828946
0.00034498659
0.00035255122
0.00054938354
0.00052713763
0.00050544117
0.00048429714
0.00046370997
0.00044368474
0.00042422723
0.00040534395
0.00038704211
0.00036932963
0.00035221511
0.0003357079
0.00031981815
0.00030455699
0.00028993636
0.0002759671
0.00026265312
0.00024998865
0.000237976
0.00022662209
0.00021593443
0.00020591957
0.00019658183
0.00018792388
0.00017994622
0.00017264826
0.00016602889
0.000160079
0.00015478724
0.00015015628
0.00014612653
0.00014278645
0.00014014486
0.00013818435
0.00013690982
0.00013634294
0.00013651366
0.00013745829
0.00013921853
0.00014184199
0.00014538112
0.00014988424
0.00015539937
0.00016197398
0.00041880482
0.00039810604
0.00037808995
0.00035877356
0.00034017655
0.00032232045
0.00030522897
0.00028892802
0.00027344546
0.00025881073
0.00024505411
0.00023220601
0.00022029596
0.00020935221
0.00019940281
0.00019047669
0.00018258989
0.00017570859
0.0001697749
0.0001647357
0.00016052733
0.00015707059
0.00015427147
0.00015202394
0.00015021416
0.00014872382
0.0001474364
0.00014625133
0.0001450437
0.00014358368
0.00014188651
0.00013998922
0.00013768777
0.00013488708
0.00013152957
0.00012755558
0.00012291117
0.00011755066
0.00011143813
0.00010455159
9.689035e-05
8.8482052e-05
7.9405872e-05
6.9842866e-05
0.0003554624
0.00033957795
0.00032481364
0.00031121779
0.0002988343
0.00028770076
0.00027784664
0.00026929023
0.00026203535
0.00025606843
0.00025135635
0.00024784546
0.0002454621
0.00024411381
0.00024370326
0.00024416292
0.00024543176
0.0002473347
0.00024963565
0.00025220718
0.00025495594
0.00025778656
0.00026060386
0.0002633168
0.00026583907
0.00026808926
0.00026999253
0.00027146999
0.00027241286
0.00027274414
0.00027258905
0.00027177359
0.00027020542
0.0002678337
0.00026461064
0.00026048812
0.00025541719
0.00024934985
0.00024223981
0.00023404347
0.00022472056
0.00021423259
0.00020254478
0.0001896336
0.00036383322
0.00035501171
0.00034756901
0.00034150226
0.00033678478
0.00033336826
0.00033118812
0.00033016589
0.00033021127
0.00033122475
0.00033310058
0.00033573
0.00033900346
0.00034281452
0.00034708182
0.00035175553
0.00035672343
0.00036169711
0.00036654272
0.00037127028
0.00037586041
0.00038025582
0.00038438864
0.00038819306
0.00039160672
0.0003945687
0.00039701844
0.00039889054
0.00040012933
0.00040074489
0.00040065564
0.00039973412
0.00039798674
0.00039537098
0.00039183185
0.00038731978
0.00038178955
0.00037519862
0.00036750753
0.00035868178
0.0003486933
0.00033751921
0.00032514089
0.00031156067
0.00041763306
0.00041427365
0.00041212994
0.00041114995
0.00041125926
0.00041236811
0.00041438105
0.00041720045
0.00042072831
0.00042486798
0.00042952586
0.00043461295
0.00044004695
0.00044575427
0.00045165508
0.00045761847
0.00046345207
0.00046907682
0.00047456859
0.00047988776
0.00048496229
0.00048972671
0.00049412411
0.00049810071
0.00050160679
0.00050459063
0.00050700328
0.00050879541
0.00050991598
0.00051030672
0.00050983014
0.00050853555
0.00050639365
0.00050333629
0.00049930707
0.00049425977
0.00048815152
0.00048094258
0.00047259782
0.00046308746
0.00045238603
0.0004404745
0.00042735753
0.00041304859
0.00048703123
0.00048670932
0.00048740517
0.00048902686
0.00049148277
0.00049468507
0.00049854653
0.00050298067
0.00050790264
0.00051322994
0.00051888268
0.00052478343
0.00053085651
0.00053702549
0.00054320282
0.00054928627
0.00055521683
0.00056103556
0.00056669856
0.0005721131
0.00057720444
0.00058191963
0.00058621162
0.00059003554
0.00059333815
0.00059606731
0.00059817254
0.00059959699
0.00060028576
0.00060020983
0.0005993347
0.00059762084
0.00059499599
0.00059140095
0.00058679306
0.00058113208
0.00057437826
0.00056649478
0.00055744945
0.00054721515
0.00053577085
0.00052310946
0.00050924698
0.00049420146
0.0005570513
0.00055625444
0.00055645031
0.00055757682
0.00055954739
0.00056226915
0.00056565845
0.00056963784
0.00057413134
0.00057906401
0.00058436246
0.00058995516
0.00059577245
0.00060174627
0.00060780958
0.00061389499
0.00061993243
0.00062585485
0.00063162695
0.00063724134
0.00064264317
0.00064775886
0.00065252857
0.00065690098
0.00066082779
0.00066425814
0.00066713784
0.00066941873
0.00067104923
0.00067197435
0.00067214946
0.00067155473
0.00067015644
0.00066788218
0.00066466199
0.00066044821
0.00065520056
0.00064887837
0.00064144262
0.00063285811
0.00062309501
0.00061213107
0.00059995554
0.00058657184
0.00057199134
0.00055625147
0.00061887815
0.00061877333
0.00061954025
0.00062111161
0.00062340577
0.00062634365
0.00062985392
0.00063386697
0.00063831416
0.00064312807
0.00064824281
0.00065359401
0.00065911881
0.0006647557
0.0006704443
0.00067612506
0.00068173952
0.00068723351
0.00069256505
0.00069770238
0.00070259698
0.0007071936
0.00071143781
0.00071527694
0.00071865912
0.00072153292
0.00072385204
0.00072556806
0.0007266301
0.00072698818
0.00072660002
0.0007254261
0.00072340803
0.00072048574
0.00071661214
0.0007117426
0.00070583124
0.00069883491
0.00069071498
0.00068143839
0.00067097901
0.00065932004
0.00064645722
0.0006324001
0.00061717228
0.00060082961
0.00067348498
0.00067336737
0.0006740354
0.00067542423
0.00067746419
0.00068008792
0.00068323038
0.0006868275
0.00069081616
0.0006951343
0.00069972115
0.00070451718
0.00070946417
0.00071450507
0.000719584
0.0007246462
0.00072963858
0.00073451101
0.00073921847
0.00074371982
0.00074796961
0.00075191847
0.00075551541
0.00075870924
0.00076144875
0.00076368328
0.00076536456
0.00076644364
0.00076687074
0.00076659788
0.00076558036
0.00076376569
0.00076108798
0.00075749784
0.00075295664
0.00074741923
0.00074083808
0.0007331699
0.00072437749
0.00071443063
0.00070330767
0.00069099781
0.00067750399
0.00066284569
0.00064706256
0.00063022388
0.00072017524
0.00071959127
0.00071973695
0.00072055308
0.00072197836
0.00072395214
0.00072641451
0.00072930623
0.00073256869
0.0007361441
0.00073997555
0.00074400718
0.00074818407
0.00075245237
0.00075675919
0.00076105271
0.00076528246
0.00076939986
0.00077335877
0.00077711482
0.00078062225
0.00078383328
0.00078669877
0.00078916886
0.00079119325
0.00079272165
0.00079370425
0.00079409105
0.00079383139
0.00079287539
0.00079117478
0.00078867636
0.00078531935
0.00078105731
0.00077584835
0.00076964532
0.00076240124
0.00075407474
0.00074463147
0.00073404529
0.00072230002
0.00070939205
0.00069533343
0.00068015573
0.00066391478
0.00064669722
0.00075929999
0.00075795316
0.00075730026
0.00075728695
0.00075785786
0.00075895748
0.00076053044
0.00076252158
0.00076487612
0.00076753974
0.00077045874
0.00077358008
0.00077685152
0.00078022148
0.00078363926
0.00078705492
0.00079041952
0.00079368519
0.00079680535
0.00079973412
0.00080242512
0.00080483085
0.00080690281
0.00080859165
0.0008098474
0.00081061961
0.00081085764
0.00081051008
0.00080952494
0.00080785035
0.00080543687
0.00080223407
0.00079818863
0.00079325421
0.00078738106
0.00078051987
0.00077262578
0.00076366062
0.00075359411
0.00074240516
0.00073008422
0.0007166361
0.00070208372
0.0006864725
0.00066987589
0.00065240163
0.00079162635
0.00078932252
0.00078768916
0.00078667629
0.00078623318
0.00078630871
0.00078685147
0.00078780994
0.00078913264
0.00079076831
0.00079266594
0.00079477498
0.0007970453
0.00079942731
0.00080187188
0.00080433051
0.00080675519
0.00080909864
0.00081131402
0.00081335484
0.00081517417
0.00081672443
0.0008179571
0.00081882294
0.00081927182
0.00081925304
0.00081871497
0.00081760522
0.00081586981
0.00081345524
0.00081031102
0.00080639089
0.00080165041
0.00079604743
0.00078951922
0.00078201321
0.00077348693
0.00076390681
0.0007532478
0.00074149522
0.00072864725
0.00071471857
0.00069974447
0.00068378621
0.00066693698
0.0006493289
0.00081805663
0.00081467326
0.0008119443
0.0008098237
0.00080826463
0.00080721987
0.00080664156
0.00080648147
0.00080669114
0.00080722204
0.0008080257
0.00080905374
0.00081025799
0.00081159054
0.0008130037
0.00081445008
0.00081588256
0.00081725424
0.00081851838
0.00081962819
0.00082053648
0.00082119539
0.00082155632
0.00082156974
0.00082118532
0.00082035159
0.00081901608
0.00081712454
0.00081462111
0.00081145064
0.00080756256
0.00080291304
0.00079747315
0.00079122441
0.00078406313
0.00077592941
0.0007667899
0.00075661877
0.00074539817
0.00073312077
0.00071979374
0.00070544272
0.00069011719
0.000673896
0.00065689474
0.00063927302
0.00083948853
0.00083495605
0.00083106632
0.00082777646
0.00082504337
0.00082282325
0.00082107152
0.00081974298
0.00081879203
0.00081817271
0.00081783891
0.00081774436
0.00081784274
0.00081808773
0.00081843301
0.00081883225
0.00081923915
0.00081960733
0.0008198903
0.00082004122
0.00082001281
0.00081975709
0.00081922528
0.0008183677
0.00081713368
0.00081547135
0.00081332748
0.00081064656
0.00080737189
0.00080344611
0.00079881222
0.00079342179
0.00078728308
0.00078042208
0.000772645
0.00076389046
0.00075414825
0.00074340546
0.00073165106
0.00071888517
0.00070512414
0.00069040579
0.00067479499
0.00065839058
0.00064133302
0.00062381283
0.00085674558
0.00085103512
0.00084595772
0.00084147353
0.00083754285
0.00083412501
0.00083117844
0.00082866079
0.00082652915
0.00082474006
0.00082324968
0.00082201379
0.00082098793
0.00082012735
0.0008193871
0.00081872197
0.00081808653
0.00081743503
0.00081672135
0.00081589888
0.00081492039
0.00081373793
0.00081230266
0.0008105649
0.00080847388
0.00080597793
0.00080302377
0.00079955727
0.000795523
0.00079086386
0.0007855207
0.00077947007
0.00077274274
0.00076521236
0.00075673509
0.00074732028
0.00073696954
0.00072566789
0.00071340403
0.00070018277
0.00068602918
0.00067099383
0.00065515873
0.00063864476
0.00062162016
0.00060431013
0.00087808862
0.00087054495
0.00086365995
0.00085739841
0.00085172402
0.00084660001
0.00084198864
0.0008378511
0.00083414779
0.00083083834
0.00082788172
0.00082523631
0.00082285996
0.00082071001
0.00081874337
0.00081691649
0.00081518535
0.0008135055
0.00081183192
0.00081011906
0.00080832067
0.00080638978
0.00080427856
0.00080193832
0.00079931945
0.00079637156
0.00079304343
0.00078928369
0.00078504187
0.00078027037
0.0007749298
0.00076901583
0.00076259269
0.00075552632
0.00074697288
0.00073755677
0.0007274064
0.00071644067
0.00070459604
0.00069184819
0.00067820321
0.00066369502
0.00064838804
0.00063238341
0.00061582651
0.00059891689
0.00058191775
0.00089017214
0.00088149293
0.00087346058
0.00086604245
0.000859205
0.00085291417
0.00084713483
0.00084183084
0.00083696515
0.00083249985
0.00082839625
0.00082461491
0.00082111573
0.00081785789
0.00081479996
0.00081189987
0.00080911487
0.00080640157
0.00080371586
0.00080101284
0.00079824682
0.00079537118
0.00079233839
0.00078909995
0.00078560646
0.00078180778
0.00077765336
0.00077309333
0.00076808012
0.00076257349
0.00075655168
0.00075002648
0.00074288771
0.00073459399
0.00072537069
0.00071557073
0.00070496442
0.00069350239
0.00068117309
0.00066797967
0.00065394456
0.00063911663
0.00062357804
0.00060745184
0.00059091133
0.00057419026
0.00055759501
0.00089985602
0.00089008751
0.00088095405
0.00087242506
0.00086446944
0.00085705559
0.00085015082
0.00084372141
0.00083773272
0.00083214918
0.00082693433
0.00082205088
0.00081746069
0.00081312483
0.00080900354
0.00080505626
0.00080124162
0.00079751737
0.00079384037
0.00079016657
0.0007864509
0.00078264726
0.00077870848
0.00077458631
0.00077023147
0.00076559379
0.00076062243
0.00075526634
0.00074947476
0.00074319748
0.00073638129
0.00072892342
0.0007205972
0.00071135695
0.00070204738
0.00069194776
0.00068093216
0.00066902045
0.00065624352
0.0006426343
0.00062823619
0.00061311717
0.00059738014
0.00058117302
0.00056469982
0.00054823319
0.00053212559
0.00090752869
0.00089673071
0.00088655607
0.00087697524
0.00086795962
0.00085947973
0.00085150506
0.00084400412
0.00083694448
0.00083029275
0.00082401462
0.00081807482
0.00081243716
0.00080706453
0.00080191888
0.00079696118
0.00079215144
0.00078744867
0.0007828108
0.00077819467
0.00077355599
0.00076884925
0.00076402775
0.00075904353
0.00075384746
0.0007483892
0.00074261731
0.00073647912
0.00072992036
0.00072288286
0.00071529676
0.00070705755
0.00069807456
0.00068852117
0.00067842641
0.00066772317
0.00065617074
0.00064375865
0.00063052386
0.00061650494
0.00060175786
0.00058636725
0.00057045692
0.00055420142
0.00053783875
0.00052168329
0.00050613943
0.00092589006
0.00091349828
0.00090174195
0.00089059512
0.00088003114
0.00087002321
0.00086054374
0.00085156419
0.00084305508
0.00083498601
0.00082732562
0.00082004157
0.00081310053
0.00080646819
0.00080010919
0.00079398715
0.00078806458
0.00078230291
0.00077666242
0.00077110217
0.00076557999
0.00076005241
0.00075447466
0.00074880056
0.00074298261
0.0007369719
0.00073071823
0.00072417003
0.00071727434
0.00070997636
0.00070221828
0.00069393529
0.00068505806
0.00067555417
0.00066547459
0.00065467202
0.00064339569
0.00063123806
0.00061828197
0.00060457155
0.0005901407
0.00057505121
0.00055940135
0.00054333574
0.00052705711
0.00051083984
0.0004950448
0.00048013161
0.00093127337
0.00091801276
0.00090537259
0.00089332888
0.00088185634
0.00087092984
0.00086052344
0.00085061034
0.00084116288
0.00083215248
0.00082354962
0.00081532381
0.00080744353
0.0007998762
0.00079258818
0.00078554466
0.0007787097
0.00077204611
0.00076551545
0.00075907795
0.00075269247
0.00074631644
0.00073990585
0.0007334152
0.00072679748
0.00072000427
0.00071298571
0.00070569062
0.0006980666
0.0006900601
0.00068161623
0.00067267936
0.00066319949
0.00065314704
0.00064256855
0.00063153037
0.00061943153
0.00060652403
0.00059299197
0.00057880169
0.00056396169
0.00054853564
0.00053263529
0.00051642704
0.00050014385
0.00048410006
0.0004687065
0.00045448336
0.00093531941
0.00092126695
0.00090782137
0.00089495855
0.00088265495
0.00087088672
0.00085962937
0.00084885762
0.00083854539
0.00082866574
0.00081919083
0.00081009182
0.00080133886
0.000792901
0.00078474617
0.00077684111
0.0007691513
0.00076164094
0.00075427283
0.00074700837
0.00073980746
0.00073262848
0.00072542821
0.00071816186
0.00071078306
0.00070324391
0.00069549505
0.0006874859
0.00067916487
0.00067047985
0.00066137912
0.000651814
0.00064174613
0.00063117088
0.00062008324
0.0006082403
0.0005954549
0.00058212952
0.00056815
0.00055351822
0.00053828419
0.00052252962
0.00050638527
0.00049004254
0.00047376773
0.00045791844
0.00044296075
0.00042947953
0.00093818446
0.00092341827
0.00090924512
0.00089564143
0.00088258475
0.00087005241
0.00085802109
0.00084646682
0.00083536492
0.00082468989
0.00081441535
0.00080451397
0.00079495741
0.00078571621
0.00077675976
0.00076805623
0.00075957246
0.00075127395
0.00074312473
0.00073508731
0.00072712263
0.00071918999
0.00071124701
0.00070324964
0.00069515213
0.00068690714
0.00067846586
0.0006697782
0.00066079322
0.00065145963
0.00064172699
0.00063154759
0.00062087993
0.00060968129
0.00059788472
0.00058542807
0.00057231037
0.00055848983
0.00054403171
0.00052896852
0.00051334927
0.00049727131
0.00048088623
0.00046441284
0.00044815366
0.00043251384
0.00041801955
0.00040532581
0.00095599822
0.00093999606
0.0009245934
0.00090976935
0.00089550153
0.00088176855
0.0008685486
0.0008558194
0.00084355812
0.00083174126
0.00082034458
0.000809343
0.00079871053
0.00078842017
0.00077844381
0.00076875219
0.00075931477
0.00075009967
0.0007410736
0.00073220174
0.00072344769
0.00071477336
0.00070613897
0.00069750295
0.00068882196
0.00068005088
0.00067114292
0.00066204973
0.00065272164
0.00064310801
0.00063315793
0.00062282118
0.0006120509
0.00060080614
0.00058905078
0.00057674865
0.00056376868
0.000549975
0.00053569023
0.00052080638
0.00050532849
0.00048933133
0.00047293247
0.00045630651
0.00043970199
0.00042346095
0.00040803982
0.00039402999
0.00038216228
0.00095741606
0.00094086461
0.00092489811
0.00090949663
0.00089463867
0.00088030338
0.00086646979
0.00085311647
0.00084022155
0.00082776256
0.00081571634
0.00080405897
0.00079276561
0.00078181046
0.00077116663
0.00076080605
0.00075069938
0.00074081591
0.00073112345
0.00072158826
0.00071217493
0.00070284634
0.00069356354
0.00068428575
0.00067497031
0.00066557269
0.00065604659
0.00064634407
0.00063641573
0.00062621108
0.00061567895
0.00060476845
0.00059342947
0.00058161158
0.00056926473
0.00055632983
0.00054271971
0.00052858555
0.00051391937
0.00049861349
0.00048272506
0.00046635174
0.00044963077
0.00043276035
0.00041602053
0.00039979583
0.00038459795
0.00037108545
0.00036007567
0.00095791727
0.00094088395
0.0009244226
0.00090851345
0.00089313526
0.0008782679
0.00086389099
0.00084998387
0.00083652544
0.00082349412
0.0008108677
0.00079862322
0.0007867369
0.00077518398
0.00076393864
0.00075297388
0.00074226144
0.00073177166
0.00072147337
0.0007113338
0.00070131849
0.00069139117
0.0006815137
0.00067164602
0.00066174609
0.00065176995
0.00064167174
0.00063140386
0.00062091715
0.00061016119
0.00059908484
0.00058763649
0.00057576487
0.00056341811
0.00055053931
0.00053709476
0.00052302683
0.00050845849
0.00049330646
0.00047754598
0.00046123915
0.00044448663
0.00042743945
0.00041031819
0.00039343531
0.00037722039
0.00036224438
0.00034923915
0.00033911349
0.00095758934
0.0009401384
0.00092324657
0.00090689449
0.00089106152
0.00087572783
0.00086087361
0.00084647878
0.00083252294
0.00081898526
0.00080584432
0.00079307803
0.00078066349
0.00076857687
0.0007567933
0.00074528674
0.00073402987
0.00072299398
0.00071214881
0.00070146251
0.00069090144
0.00068043013
0.00067001117
0.00065960517
0.00064917066
0.00063866418
0.00062804027
0.00061725164
0.00060624934
0.00059498315
0.00058340201
0.0005714555
0.00055909454
0.00054626657
0.00053292271
0.00051906525
0.00050455681
0.00048948248
0.00047383788
0.00045762812
0.00044090541
0.00042377325
0.00040639567
0.00038901549
0.00037197868
0.0003557624
0.00034100229
0.00032851248
0.00031929082
0.00095651469
0.00093870438
0.00092144144
0.00090470658
0.00088847924
0.00087274011
0.00085746979
0.00084264869
0.00082825701
0.00081427454
0.00080068056
0.00078745371
0.00077457188
0.00076201203
0.00074975013
0.00073776099
0.00072601814
0.0007144937
0.00070315825
0.00069198073
0.00068092826
0.0006699661
0.0006590575
0.00064816365
0.00063724363
0.00062625441
0.00061515088
0.00060388599
0.00059241095
0.00058067549
0.00056862856
0.0005562188
0.00054339363
0.00053009897
0.0005162876
0.00050201221
0.00048708654
0.00047157663
0.0004554946
0.00043885893
0.00042173027
0.00040422094
0.00038650926
0.00036886108
0.00035165728
0.00033542574
0.00032087207
0.00030889893
0.00030059667
0.00029714952
0.00095476925
0.00093665363
0.00091907382
0.00090201083
0.00088544455
0.00086935581
0.0008537256
0.00083853478
0.00082376401
0.00080939363
0.00079540351
0.00078177295
0.00076848049
0.00075550383
0.00074281965
0.00073040351
0.0007182297
0.00070627107
0.00069449895
0.00068288299
0.000671391
0.00065998889
0.00064864049
0.00063730755
0.00062594959
0.00061452399
0.00060298592
0.00059128854
0.00057938314
0.00056721944
0.00055474591
0.00054190938
0.00052865343
0.00051492548
0.00050073888
0.00048604232
0.00047069639
0.00045477034
0.00043827201
0.00042122705
0.0004037024
0.00038581908
0.00036776978
0.00034984375
0.00033245816
0.00031619462
0.00030183409
0.00029037409
0.00028300245
0.00028097585
0.00095242639
0.00093405349
0.00091620594
0.00089886474
0.00088200972
0.00086562214
0.00084968323
0.00083417423
0.0008190762
0.00080436997
0.00079003591
0.00077605389
0.00076240303
0.00074906166
0.0007360071
0.00072321557
0.00071066201
0.00069831997
0.00068616141
0.00067415663
0.00066227406
0.00065048017
0.00063873934
0.00062701378
0.00061526345
0.00060344603
0.00059151698
0.0005794296
0.00056713528
0.00055458377
0.00054172387
0.00052850346
0.00051486817
0.00050078231
0.00048625358
0.00047110968
0.00045535928
0.00043903652
0.00042214295
0.00040470531
0.0003867953
0.00036854187
0.00035015169
0.0003319374
0.00031435356
0.00029803859
0.00028385407
0.00027289934
0.00026646501
0.00026587407
0.00094955493
0.00093096876
0.00091289765
0.00089532281
0.00087822441
0.00086158375
0.00084538239
0.00082960183
0.00081422352
0.00079922868
0.00078459816
0.00077031228
0.00075635071
0.00074269232
0.000729315
0.00071619555
0.00070330951
0.00069063101
0.00067813263
0.0006657852
0.00065355772
0.00064141717
0.00062932842
0.00061725408
0.00060515449
0.00059298762
0.00058070914
0.00056827247
0.00055562901
0.00054272839
0.00052951895
0.00051594743
0.00050196286
0.00048753192
0.00047263409
0.00045711733
0.00044101582
0.00042433217
0.0004070675
0.00038925508
0.00037097134
0.00035235253
0.00033361863
0.00031510533
0.00029730535
0.00028091676
0.00026688757
0.00025642668
0.00025093251
0.00025178618
0.00094622213
0.00092746112
0.00090920591
0.00089143759
0.00087413627
0.00085728356
0.00084086119
0.00082485096
0.00080923462
0.00079399375
0.00077910959
0.00076456292
0.00075033385
0.00073640175
0.000722745
0.00070934095
0.00069616564
0.00068319376
0.00067039838
0.00065775087
0.00064522072
0.00063277536
0.0006203801
0.00060799793
0.00059558949
0.00058311302
0.00057052434
0.00055777697
0.00054482231
0.0005316099
0.00051808737
0.00050420063
0.00048989723
0.00047515596
0.00045991434
0.00044406718
0.0004276381
0.00041061433
0.00039300007
0.00037483073
0.00035618553
0.00033720691
0.00031812699
0.00029930375
0.00028126844
0.00026478156
0.00025088363
0.00024090178
0.00023634732
0.00023864935
0.00094249134
0.00092359038
0.00090518604
0.0008872596
0.00086979141
0.00085276312
0.00083615669
0.00081995413
0.00080413749
0.00078868868
0.0007735893
0.00075882049
0.0007443628
0.00073019602
0.00071629901
0.00070264956
0.00068922421
0.00067599811
0.00066294481
0.00065003615
0.00063724205
0.00062453038
0.00061186681
0.00059921468
0.0005865349
0.00057378593
0.00056092373
0.00054790189
0.00053467183
0.00052118323
0.00050738447
0.00049322197
0.00047864631
0.00046363849
0.00044806684
0.00043191058
0.00041517214
0.0003978315
0.00037988981
0.00036138181
0.00034238824
0.00032305626
0.00030362865
0.00028448452
0.0002661936
0.00024958136
0.00023578742
0.00022626685
0.00022264888
0.00022639868
0.00093842447
0.00091941344
0.00090089086
0.00088283776
0.00086523445
0.00084806284
0.00083130502
0.00081494325
0.00079895981
0.00078333693
0.00076805651
0.00075310006
0.0007384485
0.000724082
0.00070997986
0.00069612027
0.00068248022
0.00066903527
0.00065575943
0.00064262494
0.00062960214
0.00061665927
0.00060376234
0.000590875
0.00057795842
0.00056497121
0.00055186945
0.00053860672
0.00052513436
0.00051140203
0.00049735889
0.00048295531
0.00046814098
0.00045284357
0.00043698454
0.00042057193
0.00040356031
0.00038592974
0.00036768341
0.0003488556
0.00032952748
0.00030984948
0.00029007325
0.00027059739
0.00025202965
0.00023526273
0.00022154239
0.0002124625
0.00020977572
0.00021496899
0.00093407954
0.00091498539
0.00089637155
0.00087821909
0.00086050859
0.00084322198
0.00082634152
0.00080984968
0.00079372901
0.00077796196
0.00076253077
0.00074741725
0.00073260268
0.00071806758
0.00070379162
0.00068975339
0.00067593027
0.00066229823
0.00064883165
0.00063550318
0.00062228351
0.00060914124
0.0005960427
0.0005829518
0.00056982994
0.00055663588
0.00054332577
0.0005298531
0.00051616895
0.00050222241
0.00048796189
0.00047333835
0.00045828297
0.0004427321
0.00042665952
0.00041001475
0.00039275272
0.00037485639
0.00035632759
0.00033719895
0.00031755074
0.00029753487
0.00027740984
0.0002575917
0.00023872511
0.00022177202
0.00020809185
0.00019942954
0.00019766716
0.0002042969
0.00092951288
0.00091035827
0.0008916767
0.00087344889
0.00085565547
0.00083827857
0.00082130059
0.00080470421
0.0007884722
0.00077258727
0.00075703192
0.00074178829
0.00072683794
0.00071216176
0.00069773974
0.00068355084
0.0006695728
0.00065578196
0.00064215306
0.00062865912
0.00061527116
0.00060195811
0.00058868658
0.00057542075
0.0005621222
0.00054874985
0.00053525986
0.00052160566
0.00050773796
0.00049360477
0.00047915279
0.0004643262
0.000449052
0.00043332725
0.00041705545
0.00040019073
0.00038269921
0.0003645597
0.00034577005
0.00032635959
0.0003064062
0.0002860614
0.00026558823
0.00024541764
0.00022622956
0.00020905672
0.00019538023
0.00018710998
0.00018626444
0.00019432177
0.00092477699
0.00090558202
0.00088685306
0.00086857039
0.00085071509
0.0008332693
0.00081621561
0.00079953687
0.00078321609
0.00076723621
0.00075157999
0.00073622985
0.00072116764
0.00070637457
0.00069183094
0.00067751606
0.00066340799
0.00064948343
0.00063571746
0.00062208342
0.00060855266
0.0005950944
0.00058167554
0.00056826049
0.00055481101
0.00054128614
0.0005276421
0.00051383226
0.00049980708
0.00048551377
0.0004708939
0.00045588589
0.00044048337
0.00042459964
0.00040811636
0.00039104803
0.00037334954
0.0003549894
0.00033596025
0.00031628702
0.00029604375
0.0002753797
0.0002545599
0.00023402727
0.00021449459
0.00019706638
0.00018335393
0.0001754481
0.00017551178
0.00018498693
0.00091992225
0.00090070364
0.00088194459
0.00086362484
0.00084572564
0.00082822937
0.00081111875
0.00079437683
0.00077798681
0.00076193186
0.00074619501
0.00073075891
0.00071560571
0.00070071688
0.00068607307
0.00067165387
0.00065743768
0.00064340149
0.00062952073
0.00061576904
0.00060211807
0.00058853734
0.000574994
0.00056145267
0.0005478753
0.00053422104
0.00052044618
0.00050650407
0.00049234519
0.00047791715
0.00046316439
0.0004480322
0.00043249729
0.00041641817
0.00039977347
0.00038253655
0.00036465606
0.00034609792
0.00032685029
0.0003069332
0.00028641563
0.00026544271
0.00024427873
0.00022337518
0.00020347457
0.00018575338
0.00017196205
0.00016439085
0.00016535689
0.00017624007
0.00091499554
0.00089576776
0.00087699318
0.00085865115
0.00084072342
0.00082319236
0.00080604088
0.0007892522
0.00077280972
0.00075669685
0.00074089682
0.00072539254
0.00071016644
0.00069520025
0.0006804749
0.00066597028
0.0006516651
0.00063753665
0.00062356066
0.00060971106
0.00059595981
0.00058227669
0.00056862908
0.00055498183
0.00054129706
0.00052753402
0.00051364905
0.00049959549
0.00048532382
0.00047078189
0.00045591577
0.00044067072
0.00042498127
0.00040876171
0.00039199477
0.00037461532
0.0003565758
0.00033784115
0.00031839536
0.00029825302
0.00027747693
0.00025620613
0.00023470141
0.00021341898
0.00019312709
0.0001750734
0.00016115673
0.00015388846
0.00015575158
0.00016803394
0.00097059703
0.00094990945
0.00092973214
0.00091004036
0.00089081589
0.00087203771
0.00085368607
0.00083574267
0.0008181901
0.00080101137
0.00078418991
0.00076770929
0.00075155313
0.0007357049
0.00072014773
0.0007048643
0.00068983662
0.00067504587
0.00066047223
0.00064609468
0.00063189083
0.00061783668
0.00060390645
0.00059007237
0.00057630448
0.0005625704
0.00054883519
0.00053506112
0.00052120755
0.00050723084
0.00049308431
0.00047871827
0.00046408025
0.00044911526
0.00043376398
0.00041795183
0.00040163148
0.00038475282
0.00036724842
0.00034906977
0.00033017856
0.00031055401
0.00029020459
0.00026918576
0.0002476287
0.00022578773
0.00020411956
0.00018341332
0.0001649858
0.00015089358
0.00014389456
0.00014665193
0.00016032632
0.00098676388
0.0009655813
0.0009449241
0.00092477075
0.00090509817
0.00088588643
0.00086711479
0.00084876386
0.00083081558
0.00081325257
0.00079605803
0.00077921555
0.0007627089
0.00074652188
0.00073063817
0.00071504115
0.00069971373
0.00068463815
0.00066979587
0.00065516733
0.00064073179
0.00062646713
0.00061234962
0.00059835376
0.00058445206
0.00057061479
0.00055680981
0.00054300236
0.00052915489
0.00051522687
0.00050117465
0.00048695149
0.00047250749
0.00045778976
0.00044274215
0.00042730284
0.00041140181
0.00039499285
0.00037801459
0.00036040185
0.00034210223
0.00032307301
0.0003032881
0.00028274921
0.00026150344
0.00023967229
0.00021750067
0.00019544126
0.00017429817
0.00015545384
0.00014113183
0.00013436646
0.00013801865
0.00015308039
0.00098173218