/*--------------------------------*- C++ -*----------------------------------*\
| =========                 |                                                 |
| \\      /  F ield         | OpenFOAM: The Open Source CFD Toolbox           |
|  \\    /   O peration     | Version:  2312                                  |
|   \\  /    A nd           | Website:  www.openfoam.com                      |
|    \\/     M anipulation  |                                                 |
\*---------------------------------------------------------------------------*/
FoamFile
{
    version     2.0;
    format      ascii;
    arch        "LSB;label=32;scalar=64";
    class       volScalarField;
    location    "0.01";
    object      N2;
}
// * * * * * * * * * * * * * * * * * * * * * * * * * * * * * * * * * * * * * //

dimensions      [0 0 0 0 0 0 0];

internalField   nonuniform List<scalar> 
3250
(
0.76999874
0.76999897
0.76999916
0.76999932
0.76999945
0.76999956
0.76999964
0.76999971
0.76999977
0.76999982
0.76999985
0.76999988
0.76999991
0.76999993
0.76999994
0.76999995
0.76999996
0.76999997
0.76999998
0.76999998
0.76999999
0.76999999
0.76999999
0.77
0.77
0.77
0.77
0.77
0.77
0.77
0.77
0.77
0.77
0.77
0.77
0.77
0.77
0.77
0.77
0.77
0.77
0.77
0.77
0.77
0.76999868
0.76999892
0.76999912
0.76999929
0.76999942
0.76999953
0.76999963
0.7699997
0.76999976
0.76999981
0.76999985
0.76999988
0.7699999
0.76999992
0.76999994
0.76999995
0.76999996
0.76999997
0.76999998
0.76999998
0.76999999
0.76999999
0.76999999
0.77
0.77
0.77
0.77
0.77
0.77
0.77
0.77
0.77
0.77
0.77
0.77
0.77
0.77
0.77
0.77
0.77
0.77
0.77
0.77
0.77
0.76999856
0.76999883
0.76999905
0.76999923
0.76999937
0.76999949
0.76999959
0.76999967
0.76999974
0.76999979
0.76999983
0.76999987
0.76999989
0.76999992
0.76999993
0.76999995
0.76999996
0.76999997
0.76999998
0.76999998
0.76999999
0.76999999
0.76999999
0.76999999
0.77
0.77
0.77
0.77
0.77
0.77
0.77
0.77
0.77
0.77
0.77
0.77
0.77
0.77
0.77
0.77
0.77
0.77
0.77
0.77
0.76999839
0.76999869
0.76999893
0.76999913
0.7699993
0.76999943
0.76999954
0.76999963
0.76999971
0.76999977
0.76999981
0.76999985
0.76999988
0.76999991
0.76999993
0.76999994
0.76999995
0.76999996
0.76999997
0.76999998
0.76999998
0.76999999
0.76999999
0.76999999
0.77
0.77
0.77
0.77
0.77
0.77
0.77
0.77
0.77
0.77
0.77
0.77
0.77
0.77
0.77
0.77
0.77
0.77
0.77
0.77
0.76999816
0.7699985
0.76999879
0.76999902
0.7699992
0.76999936
0.76999948
0.76999958
0.76999967
0.76999973
0.76999979
0.76999983
0.76999987
0.76999989
0.76999992
0.76999993
0.76999995
0.76999996
0.76999997
0.76999998
0.76999998
0.76999999
0.76999999
0.76999999
0.77
0.77
0.77
0.77
0.77
0.77
0.77
0.77
0.77
0.77
0.77
0.77
0.77
0.77
0.77
0.77
0.77
0.77
0.77
0.77
0.76999789
0.76999828
0.7699986
0.76999887
0.76999908
0.76999926
0.7699994
0.76999952
0.76999962
0.76999969
0.76999976
0.76999981
0.76999985
0.76999988
0.7699999
0.76999992
0.76999994
0.76999995
0.76999996
0.76999997
0.76999998
0.76999998
0.76999999
0.76999999
0.76999999
0.77
0.77
0.77
0.77
0.77
0.77
0.77
0.77
0.77
0.77
0.77
0.77
0.77
0.77
0.77
0.77
0.77
0.77
0.77
0.76999756
0.76999801
0.76999839
0.76999869
0.76999894
0.76999915
0.76999931
0.76999945
0.76999956
0.76999965
0.76999972
0.76999978
0.76999982
0.76999986
0.76999989
0.76999991
0.76999993
0.76999995
0.76999996
0.76999997
0.76999998
0.76999998
0.76999999
0.76999999
0.76999999
0.77
0.77
0.77
0.77
0.77
0.77
0.77
0.77
0.77
0.77
0.77
0.77
0.77
0.77
0.77
0.77
0.77
0.77
0.77
0.76999718
0.7699977
0.76999813
0.76999849
0.76999878
0.76999901
0.76999921
0.76999936
0.76999949
0.76999959
0.76999967
0.76999974
0.76999979
0.76999984
0.76999987
0.7699999
0.76999992
0.76999994
0.76999995
0.76999996
0.76999997
0.76999998
0.76999998
0.76999999
0.76999999
0.76999999
0.77
0.77
0.77
0.77
0.77
0.77
0.77
0.77
0.77
0.77
0.77
0.77
0.77
0.77
0.77
0.77
0.77
0.77
0.76999674
0.76999735
0.76999785
0.76999826
0.76999859
0.76999886
0.76999909
0.76999927
0.76999941
0.76999953
0.76999962
0.7699997
0.76999976
0.76999981
0.76999985
0.76999988
0.76999991
0.76999993
0.76999995
0.76999996
0.76999997
0.76999998
0.76999998
0.76999999
0.76999999
0.76999999
0.77
0.77
0.77
0.77
0.77
0.77
0.77
0.77
0.77
0.77
0.77
0.77
0.77
0.77
0.77
0.77
0.77
0.77
0.76999438
0.76999541
0.76999626
0.76999696
0.76999753
0.769998
0.76999838
0.7699987
0.76999895
0.76999916
0.76999932
0.76999946
0.76999957
0.76999966
0.76999973
0.76999979
0.76999983
0.76999987
0.7699999
0.76999992
0.76999994
0.76999995
0.76999996
0.76999997
0.76999998
0.76999999
0.76999999
0.76999999
0.77
0.77
0.77
0.77
0.77
0.77
0.77
0.77
0.77
0.77
0.77
0.77
0.77
0.77
0.77
0.77
0.77
0.77
0.76999358
0.76999476
0.76999573
0.76999653
0.76999718
0.76999772
0.76999815
0.76999851
0.7699988
0.76999904
0.76999923
0.76999938
0.76999951
0.76999961
0.76999969
0.76999975
0.76999981
0.76999985
0.76999988
0.76999991
0.76999993
0.76999994
0.76999996
0.76999997
0.76999998
0.76999998
0.76999999
0.76999999
0.76999999
0.77
0.77
0.77
0.77
0.77
0.77
0.77
0.77
0.77
0.77
0.77
0.77
0.77
0.77
0.77
0.77
0.77
0.76999271
0.76999405
0.76999515
0.76999605
0.7699968
0.76999741
0.7699979
0.76999831
0.76999864
0.76999891
0.76999912
0.7699993
0.76999944
0.76999956
0.76999965
0.76999972
0.76999978
0.76999983
0.76999987
0.7699999
0.76999992
0.76999994
0.76999995
0.76999996
0.76999997
0.76999998
0.76999999
0.76999999
0.76999999
0.77
0.77
0.77
0.77
0.77
0.77
0.77
0.77
0.77
0.77
0.77
0.77
0.77000001
0.77000001
0.77000001
0.77000001
0.77000001
0.76999177
0.76999328
0.76999452
0.76999555
0.76999639
0.76999707
0.76999764
0.76999809
0.76999847
0.76999877
0.76999901
0.76999921
0.76999937
0.7699995
0.7699996
0.76999969
0.76999975
0.76999981
0.76999985
0.76999988
0.76999991
0.76999993
0.76999995
0.76999996
0.76999997
0.76999998
0.76999998
0.76999999
0.76999999
0.77
0.77
0.77
0.77
0.77
0.77
0.77
0.77
0.77
0.77000001
0.77000001
0.77000001
0.77000001
0.77000001
0.77000001
0.77000001
0.77000001
0.76999078
0.76999247
0.76999386
0.76999501
0.76999595
0.76999672
0.76999735
0.76999786
0.76999828
0.76999862
0.76999889
0.76999912
0.7699993
0.76999944
0.76999956
0.76999965
0.76999972
0.76999978
0.76999983
0.76999987
0.7699999
0.76999992
0.76999994
0.76999995
0.76999997
0.76999997
0.76999998
0.76999999
0.76999999
0.77
0.77
0.77
0.77
0.77
0.77
0.77
0.77
0.77000001
0.77000001
0.77000001
0.77000001
0.77000001
0.77000001
0.77000001
0.77000001
0.77000001
0.76998973
0.76999162
0.76999317
0.76999444
0.76999549
0.76999635
0.76999705
0.76999762
0.76999809
0.76999846
0.76999877
0.76999902
0.76999922
0.76999938
0.76999951
0.76999961
0.76999969
0.76999976
0.76999981
0.76999985
0.76999989
0.76999991
0.76999993
0.76999995
0.76999996
0.76999997
0.76999998
0.76999999
0.76999999
0.76999999
0.77
0.77
0.77
0.77
0.77
0.77
0.77000001
0.77000001
0.77000001
0.77000001
0.77000001
0.77000001
0.77000001
0.77000001
0.77000001
0.77000001
0.76998864
0.76999073
0.76999244
0.76999386
0.76999501
0.76999596
0.76999674
0.76999737
0.76999789
0.7699983
0.76999864
0.76999891
0.76999913
0.76999931
0.76999945
0.76999957
0.76999966
0.76999973
0.76999979
0.76999984
0.76999987
0.7699999
0.76999993
0.76999994
0.76999996
0.76999997
0.76999998
0.76999998
0.76999999
0.76999999
0.77
0.77
0.77
0.77
0.77
0.77000001
0.77000001
0.77000001
0.77000001
0.77000001
0.77000001
0.77000001
0.77000001
0.77000001
0.77000001
0.77000001
0.76998752
0.76998981
0.7699917
0.76999325
0.76999452
0.76999557
0.76999642
0.76999711
0.76999768
0.76999814
0.76999851
0.76999881
0.76999905
0.76999924
0.7699994
0.76999953
0.76999963
0.76999971
0.76999977
0.76999982
0.76999986
0.76999989
0.76999992
0.76999994
0.76999995
0.76999997
0.76999998
0.76999998
0.76999999
0.76999999
0.77
0.77
0.77
0.77
0.77
0.77000001
0.77000001
0.77000001
0.77000001
0.77000001
0.77000001
0.77000001
0.77000001
0.77000001
0.77000001
0.77000001
0.76998637
0.76998887
0.76999094
0.76999263
0.76999402
0.76999516
0.76999609
0.76999685
0.76999747
0.76999797
0.76999837
0.7699987
0.76999896
0.76999918
0.76999935
0.76999948
0.76999959
0.76999968
0.76999975
0.7699998
0.76999985
0.76999988
0.76999991
0.76999993
0.76999995
0.76999996
0.76999997
0.76999998
0.76999999
0.76999999
0.77
0.77
0.77
0.77
0.77
0.77000001
0.77000001
0.77000001
0.77000001
0.77000001
0.77000001
0.77000001
0.77000001
0.77000001
0.77000001
0.77000001
0.76998192
0.76998521
0.76998793
0.76999016
0.769992
0.76999351
0.76999475
0.76999576
0.76999658
0.76999725
0.76999779
0.76999823
0.76999859
0.76999888
0.76999911
0.76999929
0.76999944
0.76999956
0.76999965
0.76999973
0.76999979
0.76999984
0.76999987
0.7699999
0.76999993
0.76999995
0.76999996
0.76999997
0.76999998
0.76999999
0.76999999
0.77
0.77
0.77
0.77
0.77000001
0.77000001
0.77000001
0.77000001
0.77000001
0.77000001
0.77000001
0.77000001
0.77000001
0.77000001
0.77000001
0.77000001
0.76998049
0.76998404
0.76998697
0.76998939
0.76999137
0.769993
0.76999434
0.76999543
0.76999631
0.76999704
0.76999762
0.7699981
0.76999848
0.76999879
0.76999904
0.76999924
0.7699994
0.76999952
0.76999963
0.76999971
0.76999977
0.76999982
0.76999986
0.7699999
0.76999992
0.76999994
0.76999996
0.76999997
0.76999998
0.76999999
0.76999999
0.77
0.77
0.77
0.77
0.77000001
0.77000001
0.77000001
0.77000001
0.77000001
0.77000001
0.77000001
0.77000001
0.77000001
0.77000001
0.77000001
0.77000001
0.76997906
0.76998288
0.76998602
0.76998862
0.76999075
0.7699925
0.76999393
0.7699951
0.76999605
0.76999682
0.76999745
0.76999796
0.76999837
0.7699987
0.76999897
0.76999918
0.76999935
0.76999949
0.7699996
0.76999969
0.76999976
0.76999981
0.76999985
0.76999989
0.76999992
0.76999994
0.76999995
0.76999997
0.76999998
0.76999998
0.76999999
0.77
0.77
0.77
0.77
0.77000001
0.77000001
0.77000001
0.77000001
0.77000001
0.77000001
0.77000001
0.77000001
0.77000001
0.77000001
0.77000001
0.77000001
0.76997765
0.76998172
0.76998508
0.76998785
0.76999013
0.76999199
0.76999352
0.76999477
0.76999578
0.76999661
0.76999728
0.76999782
0.76999826
0.76999862
0.7699989
0.76999913
0.76999931
0.76999946
0.76999957
0.76999967
0.76999974
0.7699998
0.76999984
0.76999988
0.76999991
0.76999993
0.76999995
0.76999996
0.76999997
0.76999998
0.76999999
0.76999999
0.77
0.77
0.77
0.77000001
0.77000001
0.77000001
0.77000001
0.77000001
0.77000001
0.77000001
0.77000001
0.77000001
0.77000001
0.77000001
0.77000001
0.76997103
0.76997626
0.76998058
0.76998415
0.7699871
0.76998951
0.7699915
0.76999312
0.76999445
0.76999552
0.7699964
0.76999711
0.76999769
0.76999816
0.76999853
0.76999883
0.76999908
0.76999927
0.76999942
0.76999955
0.76999965
0.76999972
0.76999979
0.76999983
0.76999987
0.7699999
0.76999993
0.76999995
0.76999996
0.76999997
0.76999998
0.76999999
0.76999999
0.77
0.77
0.77
0.77000001
0.77000001
0.77000001
0.77000001
0.77000001
0.77000001
0.77000001
0.77000001
0.77000001
0.77000001
0.77000001
0.77000001
0.76996936
0.76997489
0.76997947
0.76998325
0.76998636
0.76998892
0.76999101
0.76999273
0.76999413
0.76999527
0.7699962
0.76999695
0.76999756
0.76999805
0.76999845
0.76999877
0.76999902
0.76999923
0.76999939
0.76999952
0.76999963
0.76999971
0.76999977
0.76999983
0.76999987
0.7699999
0.76999992
0.76999994
0.76999996
0.76999997
0.76999998
0.76999999
0.76999999
0.77
0.77
0.77
0.77000001
0.77000001
0.77000001
0.77000001
0.77000001
0.77000001
0.77000001
0.77000001
0.77000001
0.77000001
0.77000001
0.77000001
0.76996774
0.76997357
0.76997839
0.76998236
0.76998564
0.76998833
0.76999054
0.76999235
0.76999382
0.76999503
0.769996
0.76999679
0.76999744
0.76999795
0.76999837
0.7699987
0.76999897
0.76999919
0.76999936
0.7699995
0.76999961
0.76999969
0.76999976
0.76999982
0.76999986
0.76999989
0.76999992
0.76999994
0.76999996
0.76999997
0.76999998
0.76999999
0.76999999
0.77
0.77
0.77
0.77000001
0.77000001
0.77000001
0.77000001
0.77000001
0.77000001
0.77000001
0.77000001
0.77000001
0.77000001
0.77000001
0.77000001
0.76996617
0.76997228
0.76997734
0.76998151
0.76998495
0.76998777
0.76999009
0.76999198
0.76999353
0.76999479
0.76999581
0.76999664
0.76999731
0.76999786
0.76999829
0.76999864
0.76999893
0.76999915
0.76999933
0.76999947
0.76999959
0.76999968
0.76999975
0.76999981
0.76999985
0.76999989
0.76999992
0.76999994
0.76999995
0.76999997
0.76999998
0.76999999
0.76999999
0.77
0.77
0.77
0.77000001
0.77000001
0.77000001
0.77000001
0.77000001
0.77000001
0.77000001
0.77000001
0.77000001
0.77000001
0.77000001
0.77000001
0.76995695
0.76996466
0.76997104
0.76997633
0.76998069
0.76998428
0.76998723
0.76998965
0.76999163
0.76999325
0.76999456
0.76999563
0.7699965
0.7699972
0.76999776
0.76999822
0.76999859
0.76999888
0.76999911
0.7699993
0.76999945
0.76999957
0.76999967
0.76999974
0.7699998
0.76999985
0.76999988
0.76999991
0.76999993
0.76999995
0.76999997
0.76999998
0.76999999
0.76999999
0.77
0.77
0.77
0.77000001
0.77000001
0.77000001
0.77000001
0.77000001
0.77000001
0.77000001
0.77000001
0.77000001
0.77000001
0.77000001
0.77000001
0.76995518
0.7699632
0.76996986
0.76997536
0.7699799
0.76998364
0.76998671
0.76998923
0.76999129
0.76999297
0.76999434
0.76999546
0.76999636
0.76999709
0.76999767
0.76999815
0.76999853
0.76999884
0.76999908
0.76999928
0.76999943
0.76999955
0.76999965
0.76999973
0.76999979
0.76999984
0.76999988
0.76999991
0.76999993
0.76999995
0.76999997
0.76999998
0.76999998
0.76999999
0.77
0.77
0.77
0.77000001
0.77000001
0.77000001
0.77000001
0.77000001
0.77000001
0.77000001
0.77000001
0.77000001
0.77000001
0.77000001
0.77000001
0.76995348
0.76996182
0.76996872
0.76997444
0.76997915
0.76998303
0.76998622
0.76998883
0.76999097
0.76999272
0.76999414
0.76999529
0.76999622
0.76999698
0.76999759
0.76999808
0.76999848
0.76999879
0.76999905
0.76999925
0.76999941
0.76999954
0.76999964
0.76999972
0.76999978
0.76999984
0.76999987
0.76999991
0.76999993
0.76999995
0.76999996
0.76999998
0.76999998
0.76999999
0.77
0.77
0.77
0.77000001
0.77000001
0.77000001
0.77000001
0.77000001
0.77000001
0.77000001
0.77000001
0.77000001
0.77000001
0.77000001
0.77000001
0.76995187
0.7699605
0.76996765
0.76997356
0.76997844
0.76998245
0.76998575
0.76998846
0.76999067
0.76999247
0.76999394
0.76999513
0.7699961
0.76999688
0.76999751
0.76999802
0.76999843
0.76999875
0.76999902
0.76999923
0.76999939
0.76999952
0.76999963
0.76999971
0.76999978
0.76999983
0.76999987
0.7699999
0.76999993
0.76999995
0.76999996
0.76999997
0.76999998
0.76999999
0.77
0.77
0.77
0.77000001
0.77000001
0.77000001
0.77000001
0.77000001
0.77000001
0.77000001
0.77000001
0.77000001
0.77000001
0.77000001
0.77000001
0.76995034
0.76995925
0.76996662
0.76997273
0.76997776
0.76998191
0.76998531
0.7699881
0.76999038
0.76999224
0.76999375
0.76999498
0.76999598
0.76999679
0.76999744
0.76999796
0.76999838
0.76999872
0.76999899
0.7699992
0.76999937
0.76999951
0.76999962
0.7699997
0.76999977
0.76999983
0.76999987
0.7699999
0.76999993
0.76999995
0.76999996
0.76999997
0.76999998
0.76999999
0.77
0.77
0.77
0.77000001
0.77000001
0.77000001
0.77000001
0.77000001
0.77000001
0.77000001
0.77000001
0.77000001
0.77000001
0.77000001
0.77000001
0.77000001
0.7699489
0.76995807
0.76996566
0.76997194
0.76997712
0.76998139
0.76998489
0.76998776
0.76999011
0.76999202
0.76999358
0.76999484
0.76999587
0.7699967
0.76999737
0.7699979
0.76999834
0.76999868
0.76999896
0.76999918
0.76999936
0.7699995
0.76999961
0.7699997
0.76999977
0.76999982
0.76999986
0.7699999
0.76999992
0.76999994
0.76999996
0.76999997
0.76999998
0.76999999
0.77
0.77
0.77
0.77000001
0.77000001
0.77000001
0.77000001
0.77000001
0.77000001
0.77000001
0.77000001
0.77000001
0.77000001
0.77000001
0.77000001
0.77000001
0.76994754
0.76995695
0.76996475
0.7699712
0.76997652
0.7699809
0.7699845
0.76998745
0.76998985
0.76999182
0.76999342
0.76999471
0.76999576
0.76999661
0.7699973
0.76999785
0.7699983
0.76999865
0.76999893
0.76999916
0.76999934
0.76999949
0.7699996
0.76999969
0.76999976
0.76999982
0.76999986
0.7699999
0.76999992
0.76999994
0.76999996
0.76999997
0.76999998
0.76999999
0.77
0.77
0.77
0.77000001
0.77000001
0.77000001
0.77000001
0.77000001
0.77000001
0.77000001
0.77000001
0.77000001
0.77000001
0.77000001
0.77000001
0.77000001
0.76994626
0.76995591
0.7699639
0.76997051
0.76997596
0.76998045
0.76998413
0.76998715
0.76998962
0.76999163
0.76999326
0.76999459
0.76999567
0.76999654
0.76999724
0.7699978
0.76999826
0.76999862
0.76999891
0.76999914
0.76999933
0.76999947
0.76999959
0.76999968
0.76999976
0.76999981
0.76999986
0.76999989
0.76999992
0.76999994
0.76999996
0.76999997
0.76999998
0.76999999
0.77
0.77
0.77
0.77000001
0.77000001
0.77000001
0.77000001
0.77000001
0.77000001
0.77000001
0.77000001
0.77000001
0.77000001
0.77000001
0.77000001
0.77000001
0.76994507
0.76995493
0.76996311
0.76996986
0.76997544
0.76998002
0.76998379
0.76998687
0.76998939
0.76999145
0.76999312
0.76999448
0.76999558
0.76999647
0.76999718
0.76999776
0.76999822
0.76999859
0.76999889
0.76999913
0.76999931
0.76999946
0.76999958
0.76999968
0.76999975
0.76999981
0.76999986
0.76999989
0.76999992
0.76999994
0.76999996
0.76999997
0.76999998
0.76999999
0.77
0.77
0.77000001
0.77000001
0.77000001
0.77000001
0.77000001
0.77000001
0.77000001
0.77000001
0.77000001
0.77000002
0.77000002
0.77000002
0.77000001
0.77000001
0.76994395
0.76995402
0.76996237
0.76996926
0.76997495
0.76997963
0.76998347
0.76998662
0.76998919
0.76999128
0.76999299
0.76999437
0.76999549
0.7699964
0.76999713
0.76999772
0.76999819
0.76999857
0.76999887
0.76999911
0.7699993
0.76999945
0.76999958
0.76999967
0.76999975
0.76999981
0.76999985
0.76999989
0.76999992
0.76999994
0.76999996
0.76999997
0.76999998
0.76999999
0.77
0.77
0.77000001
0.77000001
0.77000001
0.77000001
0.77000001
0.77000001
0.77000001
0.77000002
0.77000002
0.77000002
0.77000002
0.77000002
0.77000002
0.77000002
0.76994291
0.76995318
0.76996167
0.7699687
0.76997449
0.76997926
0.76998317
0.76998638
0.76998899
0.76999113
0.76999286
0.76999427
0.76999541
0.76999634
0.76999708
0.76999768
0.76999816
0.76999854
0.76999885
0.7699991
0.76999929
0.76999945
0.76999957
0.76999967
0.76999974
0.7699998
0.76999985
0.76999989
0.76999992
0.76999994
0.76999996
0.76999997
0.76999998
0.76999999
0.77
0.77
0.77000001
0.77000001
0.77000001
0.77000001
0.77000001
0.77000001
0.77000002
0.77000002
0.77000002
0.77000002
0.77000002
0.77000002
0.77000002
0.77000002
0.76994195
0.76995239
0.76996103
0.76996818
0.76997407
0.76997892
0.7699829
0.76998615
0.76998882
0.76999099
0.76999275
0.76999418
0.76999534
0.76999628
0.76999703
0.76999764
0.76999813
0.76999852
0.76999883
0.76999908
0.76999928
0.76999944
0.76999956
0.76999966
0.76999974
0.7699998
0.76999985
0.76999989
0.76999992
0.76999994
0.76999996
0.76999997
0.76999998
0.76999999
0.77
0.77
0.77000001
0.77000001
0.77000001
0.77000001
0.77000001
0.77000001
0.77000002
0.77000002
0.77000002
0.77000002
0.77000002
0.77000002
0.77000002
0.77000002
0.76994105
0.76995166
0.76996044
0.7699677
0.76997368
0.7699786
0.76998264
0.76998595
0.76998865
0.76999085
0.76999265
0.7699941
0.76999528
0.76999623
0.76999699
0.76999761
0.7699981
0.7699985
0.76999882
0.76999907
0.76999927
0.76999943
0.76999956
0.76999966
0.76999974
0.7699998
0.76999985
0.76999989
0.76999992
0.76999994
0.76999996
0.76999997
0.76999998
0.76999999
0.77
0.77
0.77000001
0.77000001
0.77000001
0.77000001
0.77000001
0.77000002
0.77000002
0.77000002
0.77000002
0.77000002
0.77000002
0.77000002
0.77000002
0.77000002
0.76994023
0.76995098
0.76995989
0.76996725
0.76997332
0.76997831
0.76998241
0.76998576
0.7699885
0.76999073
0.76999255
0.76999402
0.76999521
0.76999618
0.76999695
0.76999758
0.76999808
0.76999848
0.7699988
0.76999906
0.76999926
0.76999942
0.76999955
0.76999965
0.76999973
0.7699998
0.76999985
0.76999988
0.76999991
0.76999994
0.76999996
0.76999997
0.76999998
0.76999999
0.77
0.77
0.77000001
0.77000001
0.77000001
0.77000001
0.77000001
0.77000002
0.77000002
0.77000002
0.77000002
0.77000002
0.77000002
0.77000002
0.77000002
0.77000002
0.76993947
0.76995036
0.76995939
0.76996684
0.76997299
0.76997804
0.76998219
0.76998559
0.76998836
0.76999062
0.76999246
0.76999395
0.76999516
0.76999613
0.76999692
0.76999755
0.76999806
0.76999846
0.76999879
0.76999905
0.76999925
0.76999942
0.76999955
0.76999965
0.76999973
0.76999979
0.76999984
0.76999988
0.76999991
0.76999994
0.76999996
0.76999997
0.76999998
0.76999999
0.77
0.77
0.77000001
0.77000001
0.77000001
0.77000001
0.77000001
0.77000002
0.77000002
0.77000002
0.77000002
0.77000002
0.77000002
0.77000002
0.77000002
0.77000002
0.76993877
0.76994979
0.76995892
0.76996647
0.76997269
0.7699778
0.76998199
0.76998543
0.76998823
0.76999052
0.76999238
0.76999389
0.76999511
0.76999609
0.76999689
0.76999753
0.76999804
0.76999845
0.76999878
0.76999904
0.76999925
0.76999941
0.76999954
0.76999965
0.76999973
0.76999979
0.76999984
0.76999988
0.76999991
0.76999994
0.76999996
0.76999997
0.76999998
0.76999999
0.77
0.77
0.77000001
0.77000001
0.77000001
0.77000001
0.77000002
0.77000002
0.77000002
0.77000002
0.77000002
0.77000002
0.77000002
0.77000002
0.77000002
0.77000002
0.7698892
0.76990855
0.7699247
0.76993812
0.76994927
0.7699585
0.76996612
0.76997241
0.76997757
0.76998181
0.76998528
0.76998812
0.76999043
0.7699923
0.76999383
0.76999506
0.76999606
0.76999686
0.7699975
0.76999802
0.76999843
0.76999877
0.76999903
0.76999924
0.76999941
0.76999954
0.76999964
0.76999973
0.76999979
0.76999984
0.76999988
0.76999991
0.76999994
0.76999996
0.76999997
0.76999998
0.76999999
0.77
0.77
0.77000001
0.77000001
0.77000001
0.77000001
0.77000002
0.77000002
0.77000002
0.77000002
0.77000002
0.77000002
0.77000002
0.77000002
0.77000002
0.77000002
0.76986473
0.76988812
0.76990767
0.76992397
0.76993753
0.76994879
0.76995811
0.76996581
0.76997215
0.76997737
0.76998165
0.76998515
0.76998801
0.76999034
0.76999224
0.76999377
0.76999502
0.76999602
0.76999683
0.76999748
0.769998
0.76999842
0.76999876
0.76999902
0.76999923
0.7699994
0.76999954
0.76999964
0.76999972
0.76999979
0.76999984
0.76999988
0.76999991
0.76999994
0.76999996
0.76999997
0.76999998
0.76999999
0.77
0.77
0.77000001
0.77000001
0.77000001
0.77000001
0.77000002
0.77000002
0.77000002
0.77000002
0.77000002
0.77000002
0.77000002
0.77000002
0.77000002
0.77000002
0.76986354
0.76988714
0.76990686
0.76992331
0.76993699
0.76994835
0.76995775
0.76996552
0.76997192
0.76997718
0.7699815
0.76998503
0.76998791
0.76999026
0.76999217
0.76999372
0.76999498
0.76999599
0.76999681
0.76999746
0.76999799
0.76999841
0.76999875
0.76999902
0.76999923
0.7699994
0.76999953
0.76999964
0.76999972
0.76999979
0.76999984
0.76999988
0.76999991
0.76999994
0.76999996
0.76999997
0.76999998
0.76999999
0.77
0.77
0.77000001
0.77000001
0.77000001
0.77000001
0.77000002
0.77000002
0.77000002
0.77000002
0.77000002
0.77000002
0.77000002
0.77000002
0.77000002
0.77000002
0.76986245
0.76988624
0.76990612
0.76992271
0.7699365
0.76994795
0.76995743
0.76996525
0.7699717
0.76997701
0.76998136
0.76998492
0.76998783
0.76999019
0.76999212
0.76999368
0.76999494
0.76999596
0.76999678
0.76999745
0.76999798
0.7699984
0.76999874
0.76999901
0.76999922
0.76999939
0.76999953
0.76999964
0.76999972
0.76999979
0.76999984
0.76999988
0.76999991
0.76999994
0.76999996
0.76999997
0.76999998
0.76999999
0.77
0.77
0.77000001
0.77000001
0.77000001
0.77000001
0.77000002
0.77000002
0.77000002
0.77000002
0.77000002
0.77000002
0.77000002
0.77000002
0.77000002
0.77000002
0.76986145
0.76988542
0.76990545
0.76992216
0.76993605
0.76994758
0.76995713
0.76996501
0.76997151
0.76997685
0.76998123
0.76998482
0.76998774
0.76999013
0.76999207
0.76999364
0.76999491
0.76999594
0.76999676
0.76999743
0.76999796
0.76999839
0.76999873
0.769999
0.76999922
0.76999939
0.76999953
0.76999963
0.76999972
0.76999979
0.76999984
0.76999988
0.76999991
0.76999994
0.76999996
0.76999997
0.76999998
0.76999999
0.77
0.77
0.77000001
0.77000001
0.77000001
0.77000002
0.77000002
0.77000002
0.77000002
0.77000002
0.77000002
0.77000002
0.77000002
0.77000002
0.77000002
0.77000002
0.76986055
0.76988468
0.76990484
0.76992166
0.76993565
0.76994725
0.76995686
0.7699648
0.76997134
0.76997671
0.76998112
0.76998473
0.76998767
0.76999007
0.76999202
0.7699936
0.76999488
0.76999591
0.76999675
0.76999742
0.76999795
0.76999838
0.76999872
0.769999
0.76999922
0.76999939
0.76999952
0.76999963
0.76999972
0.76999978
0.76999984
0.76999988
0.76999991
0.76999994
0.76999996
0.76999997
0.76999998
0.76999999
0.77
0.77
0.77000001
0.77000001
0.77000001
0.77000002
0.77000002
0.77000002
0.77000002
0.77000002
0.77000002
0.77000002
0.77000002
0.77000002
0.77000002
0.77000002
0.76985973
0.76988401
0.76990429
0.76992121
0.76993528
0.76994696
0.76995662
0.7699646
0.76997118
0.76997659
0.76998102
0.76998465
0.76998761
0.76999002
0.76999198
0.76999357
0.76999486
0.76999589
0.76999673
0.7699974
0.76999794
0.76999837
0.76999872
0.76999899
0.76999921
0.76999938
0.76999952
0.76999963
0.76999972
0.76999978
0.76999984
0.76999988
0.76999991
0.76999994
0.76999996
0.76999997
0.76999998
0.76999999
0.77
0.77
0.77000001
0.77000001
0.77000001
0.77000002
0.77000002
0.77000002
0.77000002
0.77000002
0.77000002
0.77000002
0.77000002
0.77000002
0.77000002
0.77000002
0.76985899
0.7698834
0.7699038
0.76992081
0.76993495
0.76994669
0.7699564
0.76996443
0.76997104
0.76997647
0.76998093
0.76998457
0.76998755
0.76998997
0.76999194
0.76999354
0.76999483
0.76999588
0.76999672
0.76999739
0.76999793
0.76999837
0.76999871
0.76999899
0.76999921
0.76999938
0.76999952
0.76999963
0.76999972
0.76999978
0.76999984
0.76999988
0.76999991
0.76999994
0.76999996
0.76999997
0.76999998
0.76999999
0.77
0.77
0.77000001
0.77000001
0.77000001
0.77000002
0.77000002
0.77000002
0.77000002
0.77000002
0.77000002
0.77000002
0.77000002
0.77000002
0.77000002
0.77000002
0.76985833
0.76988286
0.76990335
0.76992044
0.76993466
0.76994645
0.76995621
0.76996427
0.76997091
0.76997637
0.76998084
0.76998451
0.7699875
0.76998993
0.76999191
0.76999351
0.76999481
0.76999586
0.7699967
0.76999738
0.76999793
0.76999836
0.76999871
0.76999899
0.76999921
0.76999938
0.76999952
0.76999963
0.76999971
0.76999978
0.76999984
0.76999988
0.76999991
0.76999994
0.76999995
0.76999997
0.76999998
0.76999999
0.77
0.77
0.77000001
0.77000001
0.77000001
0.77000002
0.77000002
0.77000002
0.77000002
0.77000002
0.77000002
0.77000002
0.77000002
0.77000002
0.77000002
0.77000002
0.76985774
0.76988237
0.76990296
0.76992012
0.76993439
0.76994623
0.76995604
0.76996413
0.7699708
0.76997628
0.76998077
0.76998445
0.76998745
0.76998989
0.76999188
0.76999349
0.76999479
0.76999584
0.76999669
0.76999737
0.76999792
0.76999836
0.7699987
0.76999898
0.7699992
0.76999938
0.76999952
0.76999963
0.76999971
0.76999978
0.76999983
0.76999988
0.76999991
0.76999994
0.76999995
0.76999997
0.76999998
0.76999999
0.77
0.77
0.77000001
0.77000001
0.77000001
0.77000002
0.77000002
0.77000002
0.77000002
0.77000002
0.77000002
0.77000002
0.77000002
0.77000002
0.77000002
0.77000002
0.76985721
0.76988194
0.7699026
0.76991983
0.76993416
0.76994604
0.76995588
0.769964
0.7699707
0.7699762
0.76998071
0.7699844
0.76998741
0.76998986
0.76999185
0.76999347
0.76999478
0.76999583
0.76999668
0.76999736
0.76999791
0.76999835
0.7699987
0.76999898
0.7699992
0.76999938
0.76999952
0.76999963
0.76999971
0.76999978
0.76999983
0.76999988
0.76999991
0.76999993
0.76999995
0.76999997
0.76999998
0.76999999
0.77
0.77
0.77000001
0.77000001
0.77000001
0.77000002
0.77000002
0.77000002
0.77000002
0.77000002
0.77000002
0.77000002
0.77000002
0.77000002
0.77000002
0.77000002
0.76985674
0.76988156
0.76990229
0.76991957
0.76993395
0.76994587
0.76995574
0.76996389
0.76997061
0.76997613
0.76998065
0.76998435
0.76998737
0.76998983
0.76999183
0.76999345
0.76999476
0.76999582
0.76999667
0.76999736
0.76999791
0.76999835
0.7699987
0.76999898
0.7699992
0.76999938
0.76999951
0.76999963
0.76999971
0.76999978
0.76999983
0.76999988
0.76999991
0.76999993
0.76999995
0.76999997
0.76999998
0.76999999
0.77
0.77
0.77000001
0.77000001
0.77000001
0.77000002
0.77000002
0.77000002
0.77000002
0.77000002
0.77000002
0.77000002
0.77000002
0.77000002
0.77000002
0.77000002
0.76985633
0.76988122
0.76990201
0.76991935
0.76993377
0.76994573
0.76995562
0.7699638
0.76997053
0.76997606
0.7699806
0.76998431
0.76998734
0.76998981
0.76999181
0.76999343
0.76999475
0.76999581
0.76999666
0.76999735
0.7699979
0.76999834
0.76999869
0.76999897
0.7699992
0.76999937
0.76999951
0.76999962
0.76999971
0.76999978
0.76999983
0.76999988
0.76999991
0.76999993
0.76999995
0.76999997
0.76999998
0.76999999
0.77
0.77
0.77000001
0.77000001
0.77000001
0.77000002
0.77000002
0.77000002
0.77000002
0.77000002
0.77000002
0.77000002
0.77000002
0.77000002
0.77000002
0.77000002
0.77000002
0.76985597
0.76988093
0.76990177
0.76991915
0.76993361
0.7699456
0.76995552
0.76996371
0.76997046
0.76997601
0.76998055
0.76998427
0.76998731
0.76998978
0.76999179
0.76999342
0.76999474
0.7699958
0.76999666
0.76999735
0.7699979
0.76999834
0.76999869
0.76999897
0.7699992
0.76999937
0.76999951
0.76999962
0.76999971
0.76999978
0.76999983
0.76999988
0.76999991
0.76999993
0.76999995
0.76999997
0.76999998
0.76999999
0.77
0.77
0.77000001
0.77000001
0.77000001
0.77000002
0.77000002
0.77000002
0.77000002
0.77000002
0.77000002
0.77000002
0.77000002
0.77000002
0.77000002
0.77000002
0.77000002
0.76985566
0.76988067
0.76990156
0.76991898
0.76993347
0.76994548
0.76995543
0.76996364
0.7699704
0.76997596
0.76998052
0.76998424
0.76998729
0.76998976
0.76999178
0.76999341
0.76999473
0.76999579
0.76999665
0.76999734
0.76999789
0.76999834
0.76999869
0.76999897
0.76999919
0.76999937
0.76999951
0.76999962
0.76999971
0.76999978
0.76999983
0.76999988
0.76999991
0.76999993
0.76999995
0.76999997
0.76999998
0.76999999
0.77
0.77
0.77000001
0.77000001
0.77000001
0.77000002
0.77000002
0.77000002
0.77000002
0.77000002
0.77000002
0.77000002
0.77000002
0.77000002
0.77000002
0.77000002
0.77000002
0.76985539
0.76988045
0.76990138
0.76991884
0.76993335
0.76994539
0.76995535
0.76996358
0.76997035
0.76997592
0.76998048
0.76998422
0.76998727
0.76998975
0.76999176
0.7699934
0.76999472
0.76999579
0.76999665
0.76999734
0.76999789
0.76999833
0.76999869
0.76999897
0.76999919
0.76999937
0.76999951
0.76999962
0.76999971
0.76999978
0.76999983
0.76999988
0.76999991
0.76999993
0.76999995
0.76999997
0.76999998
0.76999999
0.77
0.77
0.77000001
0.77000001
0.77000001
0.77000002
0.77000002
0.77000002
0.77000002
0.77000002
0.77000002
0.77000002
0.77000002
0.77000002
0.77000002
0.77000002
0.77000002
0.77000002
0.76985516