/*--------------------------------*- C++ -*----------------------------------*\
| =========                 |                                                 |
| \\      /  F ield         | OpenFOAM: The Open Source CFD Toolbox           |
|  \\    /   O peration     | Version:  2312                                  |
|   \\  /    A nd           | Website:  www.openfoam.com                      |
|    \\/     M anipulation  |                                                 |
\*---------------------------------------------------------------------------*/
FoamFile
{
    version     2.0;
    format      ascii;
    arch        "LSB;label=32;scalar=64";
    class       volScalarField;
    location    "0.01";
    object      omega;
}
// * * * * * * * * * * * * * * * * * * * * * * * * * * * * * * * * * * * * * //

dimensions      [0 0 -1 0 0 0 0];

internalField   nonuniform List<scalar> 
3250
(
360.29635
359.98632
359.68988
359.40725
359.13844
358.88343
358.64219
358.4147
358.20099
358.0011
357.81509
357.64309
357.48531
357.34198
357.21345
357.10014
357.00258
356.92139
356.85734
356.81128
356.78422
356.77729
356.79178
356.82908
356.89078
356.97857
357.09432
357.24002
357.4178
357.62992
357.87884
358.16701
358.49704
358.87159
359.29336
359.76508
360.28943
360.86903
361.50639
362.20383
362.96348
363.78713
364.67622
365.63176
360.67097
360.36143
360.06551
359.78342
359.51514
359.26066
359.01994
358.79299
358.57982
358.38046
358.195
358.02356
357.86634
357.7236
357.59567
357.48298
357.38605
357.30553
357.24217
357.19684
357.17056
357.16446
357.17982
357.21806
357.28076
357.36964
357.48655
357.63349
357.81257
358.026
358.27671
358.5667
358.89862
359.27521
359.69917
360.17324
360.7001
361.28236
361.92252
362.6229
363.3856
364.21243
365.1048
366.06354
361.1034
360.79636
360.50286
360.22311
359.95712
359.70486
359.46631
359.24146
359.03034
358.83299
358.64951
358.48003
358.32474
358.18392
358.05789
357.9471
357.85207
357.77347
357.71206
357.66873
357.6445
357.64052
357.65809
357.69865
357.76379
357.85523
357.97486
358.12471
358.30698
358.5241
358.77803
359.07178
359.40784
359.78887
360.2176
360.69674
361.22898
361.81695
362.46311
363.16976
363.93895
364.77244
365.67156
366.63704
361.69245
361.38951
361.09997
360.82408
360.56182
360.31318
360.07814
359.8567
359.6489
359.45479
359.27448
359.10811
358.9559
358.81811
358.69508
358.58725
358.49516
358.41951
358.36109
358.3208
358.29967
358.29889
358.31976
358.36373
358.43242
358.52759
358.65114
358.80514
358.99181
359.21346
359.47252
359.7716
360.11335
360.50046
360.93566
361.42167
361.96118
362.55679
363.21094
363.92588
364.70358
365.54573
366.45355
367.42762
362.39945
362.10232
361.81841
361.54797
361.291
361.04747
360.81739
360.60075
360.39759
360.208
360.03209
359.87003
359.72205
359.58844
359.46952
359.3657
359.27758
359.20591
359.1515
359.11528
359.0983
359.10174
359.12693
359.17534
359.24861
359.34853
359.47703
359.63618
359.82824
360.05565
360.32082
360.62646
360.97514
361.36957
361.81252
362.30671
362.85482
363.45942
364.12289
364.84742
365.6349
366.48689
367.40448
368.38809
363.19142
362.90187
362.62528
362.36193
362.11186
361.87501
361.65137
361.44097
361.24384
361.06009
360.88982
360.73321
360.59047
360.46189
360.34783
360.24872
360.1652
360.09825
360.04864
360.01726
360.00516
360.01352
360.0437
360.09721
360.17571
360.28103
360.41514
360.58018
360.77847
361.01249
361.28441
361.59722
361.95355
362.35609
362.8076
363.31078
363.8683
364.48267
365.15623
365.89108
366.689
367.55139
368.47921
369.47265
364.03706
363.75682
363.48916
363.23434
362.99233
362.76322
362.54702
362.34379
362.1536
361.97654
361.81276
361.66246
361.52588
361.40333
361.29517
361.20174
361.12371
361.06274
361.01905
360.99346
360.98706
361.00108
361.03694
361.09619
361.18055
361.29187
361.43219
361.60369
361.80869
362.0495
362.32901
362.64955
363.01397
363.42502
363.88544
364.39792
364.96508
365.58938
366.27308
367.01818
367.82633
368.69877
369.63625
370.63873
364.90334
364.63346
364.37587
364.13077
363.89821
363.67822
363.47083
363.2761
363.09411
362.92498
362.76886
362.62598
362.49663
362.38119
362.28017
362.19425
362.12403
362.06928
362.0315
362.0118
362.01134
362.03137
362.0733
362.13871
362.22933
362.34706
362.49395
362.67224
362.88434
363.13268
363.41958
363.74799
364.12069
364.54038
365.00975
365.53147
366.10811
366.74208
367.43552
368.19032
369.00797
369.88956
370.83558
371.84573
365.75993
365.50107
365.25471
365.02067
364.79887
364.58929
364.39197
364.20695
364.03433
363.87423
363.72684
363.59238
363.47118
363.36363
363.27023
363.19161
363.12835
363.08092
363.05029
363.03754
363.04386
363.07058
363.11917
363.19124
363.28857
363.4131
363.56692
363.75231
363.97169
364.22752
364.52216
364.85854
365.23947
365.66764
366.14574
366.67638
367.26208
367.90514
368.60762
369.37125
370.19735
371.08676
372.03982
373.05592
367.10003
366.83274
366.57591
366.33072
366.09735
365.8758
365.66604
365.46809
365.28197
365.10775
364.94553
364.79545
364.65772
364.53257
364.42035
364.32146
364.23641
364.16579
364.11028
364.07054
364.04748
364.04214
364.05573
364.0896
364.14526
364.22439
364.32877
364.46038
364.62134
364.81394
365.04056
365.30371
365.60615
365.95045
366.33938
366.77569
367.26205
367.80104
368.3951
369.04642
369.75694
370.52822
371.36141
372.25715
373.21549
374.23553
367.82393
367.57101
367.32908
367.09845
366.87916
366.67117
366.4745
366.28915
366.11516
365.95263
365.80165
365.66239
365.53505
365.41991
365.31732
365.22768
365.15153
365.08946
365.04219
365.01048
364.99525
364.99758
365.01868
365.05992
365.12283
365.20912
365.32061
365.45932
365.62742
365.82719
366.06105
366.33152
366.64138
366.9932
367.38971
367.83368
368.32773
368.87438
369.47597
370.1346
370.85206
371.62974
372.4686
373.36905
374.33086
375.35285
368.46067
368.22371
367.99745
367.7821
367.57762
367.38396
367.20112
367.0291
366.86796
366.71776
366.57865
366.45079
366.3344
366.22977
366.13727
366.05732
365.99046
365.93732
365.89862
365.87519
365.868
365.87814
365.90686
365.95554
366.02575
366.11921
366.23779
366.38353
366.55862
366.76539
367.00625
367.28378
367.60072
367.95967
368.36333
368.81442
369.31552
369.86908
370.47736
371.14232
371.86562
372.64847
373.49161
374.39522
375.35882
376.3809
368.99312
368.7728
368.56275
368.36319
368.17402
367.99518
367.82665
367.66843
367.52057
367.38315
367.2563
367.14021
367.03511
366.9413
366.85916
366.78915
366.73182
366.6878
366.65786
366.64286
366.64379
366.66179
366.69812
366.75422
366.83168
366.93223
367.05778
367.2104
367.39231
367.60586
367.85351
368.13781
368.46142
368.82701
369.2373
369.69494
370.20245
370.76221
371.37636
372.04676
372.77488
373.56178
374.40798
375.31341
376.27732
377.2979
369.40803
369.20461
369.01103
368.82748
368.65386
368.49006
368.33606
368.19185
368.05747
367.93301
367.8186
367.71443
367.62076
367.53789
367.46623
367.40624
367.35849
367.32364
367.30249
367.29592
367.30495
367.33075
367.37463
367.43804
367.52261
367.63009
367.76244
367.92174
368.11023
368.33028
368.58436
368.87505
369.205
369.57688
369.99336
370.45704
370.9704
371.53573
372.15505
372.8301
373.56221
374.35224
375.20049
376.10667
377.06974
378.0876
369.69638
369.50983
369.33269
369.16513
369.00702
368.85824
368.71875
368.58852
368.46759
368.35605
368.25404
368.16176
368.07946
368.00747
367.94621
367.89616
367.8579
367.83214
367.81967
367.82141
367.83842
367.87189
367.92315
367.99371
368.08519
368.19942
368.33835
368.50409
368.69893
368.92525
369.18552
369.48231
369.81825
370.19601
370.61825
371.08754
371.60627
372.17665
372.80061
373.47973
374.21519
375.00767
375.85727
376.76344
377.72489
378.73922
369.8534
369.68339
369.52241
369.37057
369.22771
369.09369
368.96845
368.85196
368.74425
368.64541
368.55557
368.47495
368.4038
368.34248
368.2914
368.25107
368.22209
368.20519
368.20119
368.21103
368.2358
368.27672
368.33515
368.41262
368.5108
368.63153
368.77681
368.94877
369.14971
369.38202
369.64819
369.95078
370.29244
370.67583
371.10356
371.57814
372.10192
372.67701
373.30523
373.98805
374.72647
375.521
376.37153
377.27727
378.2367
379.24711
369.87828
369.72417
369.57885
369.44224
369.31416
369.19445
369.08302
368.97984
368.88494
368.79839
368.72034
368.651
368.59064
368.53963
368.49838
368.46744
368.44743
368.43907
368.44323
368.46088
368.49312
368.54121
368.60654
368.69066
368.79529
368.92228
369.07367
369.25161
369.4584
369.69646
369.96826
370.27638
370.62352
371.01242
371.44551
371.92523
372.45387
373.03349
373.6658
374.35214
375.09337
375.8898
376.74114
377.64638
378.60372
379.61023
369.77374
369.6346
369.5042
369.38215
369.26821
369.16218
369.06397
368.97353
368.89087
368.81608
368.74929
368.69074
368.64069
368.59951
368.56766
368.54568
368.53422
368.53402
368.54597
368.57107
368.61044
368.66538
368.7373
368.8278
368.9386
369.07161
369.22886
369.41256
369.625
369.8686
370.14581
370.45919
370.81147
371.20596
371.64445
372.12929
372.66277
373.24689
373.88329
374.57318
375.31728
376.11574
376.96804
377.87298
378.82853
379.83148
369.67683
369.54425
369.41981
369.30361
369.19536
369.09478
369.00169
368.91597
368.83756
368.76648
368.70279
368.64665
368.59828
368.55796
368.52609
368.50311
368.4896
368.48621
368.49372
368.51304
368.54519
368.59133
368.65276
368.73096
368.82753
368.94423
369.08299
369.2459
369.43515
369.65308
369.90208
370.18461
370.5031
370.86018
371.26046
371.70441
372.19442
372.73281
373.32155
373.96219
374.65584
375.40306
376.20385
377.05751
377.96263
378.91695
379.91702
369.31751
369.19864
369.08777
368.98481
368.88942
368.80133
368.72033
368.64628
368.57911
368.51883
368.46552
368.41933
368.38047
368.34926
368.32607
368.31139
368.30579
368.30997
368.32471
368.35094
368.38972
368.44223
368.5098
368.59394
368.69627
368.8186
368.96288
369.13122
369.32585
369.54913
369.8035
370.09157
370.41619
370.78057
371.18423
371.63267
372.12766
372.67106
373.26463
373.90979
374.60753
375.35829
376.1619
377.0175
377.92346
378.87734
379.87544
368.85291
368.74651
368.64809
368.55732
368.47381
368.39724
368.3274
368.26412
368.20734
368.15705
368.11334
368.07634
368.04628
368.02349
368.00834
368.00135
368.0031
368.01429
368.03576
368.06843
368.11339
368.17187
368.24521
368.33495
368.44275
368.57045
368.72002
368.8936
369.09345
369.32196
369.58166
369.87523
370.20548
370.57479
370.98438
371.43799
371.93816
372.48677
373.08544
373.73549
374.43777
375.1926
375.99965
376.85789
377.76552
378.71989
379.7171
368.29398
368.19878
368.11165
368.03198
367.9593
367.89326
367.83361
367.78018
367.7329
367.69175
367.65681
367.62822
367.60623
367.59115
367.58338
367.58345
367.59195
367.60961
367.63728
367.67591
367.72663
367.79066
367.86941
367.96442
368.0774
368.2102
368.36484
368.54349
368.74842
368.98208
369.247
369.54583
369.88116
370.25522
370.67109
371.13065
371.63649
372.19067
372.79484
373.45021
374.15755
374.91705
375.72824
376.58993
377.50015
378.45605
379.45355
367.74425
367.6516
367.56695
367.49008
367.42044
367.35753
367.301
367.25056
367.20605
367.16736
367.13448
367.10749
367.08653
367.07185
367.06377
367.06272
367.06921
367.08387
367.10744
367.1408
367.18492
367.24094
367.31013
367.39392
367.49389
367.61176
367.74943
367.90894
368.09249
368.30239
368.5411
368.81116
369.11521
369.45579
369.83538
370.25684
370.72251
371.23439
371.79454
372.40462
373.0658
373.77876
374.54357
375.35964
376.22563
377.1394
378.09794
379.09695
367.02195
366.93854
366.86318
366.79545
366.73474
366.68057
366.63252
366.59033
366.55378
366.52279
366.49732
366.47746
366.46335
366.45524
366.45346
366.45845
366.47074
366.49098
366.51992
366.55846
366.6076
366.6685
366.74247
366.83095
366.93555
367.05804
367.20034
367.36453
367.55283
367.76759
368.01127
368.28646
368.59577
368.94177
369.327
369.75389
370.22603
370.74422
371.31069
371.9271
372.59457
373.31371
374.08449
374.90618
375.77733
376.69563
377.6579
378.65967
366.24225
366.16677
366.09951
366.03979
365.98696
365.94048
365.89994
365.86503
365.83555
365.81137
365.79248
365.77894
365.77092
365.76865
365.7725
365.78288
365.80037
365.82561
365.8594
365.90262
365.95633
366.0217
366.10006
366.19289
366.30183
366.42868
366.57539
366.74407
366.93697
367.15647
367.40508
367.68537
368
368.35159
368.74282
369.17653
369.65403
370.17849
370.75155
371.37467
372.0489
372.77477
373.55214
374.38019
375.25733
376.1811
377.14818
378.1539
365.41667
365.34792
365.28764
365.23487
365.18888
365.14912
365.11513
365.08659
365.06328
365.04507
365.03195
365.02397
365.0213
365.02419
365.033
365.04817
365.07027
365.09997
365.13808
365.18553
365.24336
365.3128
365.39519
365.49205
365.60504
365.73599
365.88689
366.05987
366.25723
366.48137
366.73483
367.0202
367.34015
367.69735
368.09439
368.53362
369.0181
369.54933
370.1293
370.7595
371.44093
372.17402
372.95858
373.79367
374.67757
375.60771
376.58062
377.5914
364.62729
364.55564
364.49298
364.43871
364.3919
364.3518
364.31781
364.28946
364.26643
364.24846
364.23543
364.22731
364.22416
364.22615
364.23354
364.24668
364.26604
364.2922
364.32585
364.36781
364.41903
364.48058
364.5537
364.63978
364.74035
364.85711
364.99191
365.14678
365.3239
365.52556
365.75423
366.01244
366.30284
366.62811
366.99096
367.39412
367.8401
368.33062
368.8686
369.4557
370.09329
370.78229
371.52306
372.31534
373.15808
374.04946
374.98677
375.96643
376.98332
363.7368
363.67007
363.61245
363.56322
363.52144
363.48631
363.45722
363.43368
363.41533
363.40192
363.39332
363.38948
363.39048
363.39648
363.40775
363.42464
363.44765
363.47735
363.51446
363.55982
363.61438
363.67926
363.75571
363.84515
363.94913
364.06938
364.20781
364.36644
364.5475
364.75332
364.98638
365.24927
365.54462
365.87516
366.24359
366.65269
367.10493
367.60229
368.14737
368.74185
369.38709
370.08397
370.83282
371.63326
372.48418
373.38365
374.32886
375.31611
376.34005
362.83233
362.76949
362.71594
362.67086
362.63324
362.60225
362.57725
362.55773
362.54331
362.53374
362.52887
362.52865
362.53317
362.54257
362.55714
362.57725
362.60339
362.63615
362.67627
362.7246
362.78211
362.84996
362.9294
363.02188
363.12899
363.25249
363.39429
363.55648
363.7413
363.95112
364.18845
364.4559
364.75615
365.09189
365.46579
365.88053
366.3393
366.84373
367.39605
367.99807
368.65116
369.35618
370.11341
370.92239
371.78194
372.69004
373.64376
374.63928
375.67115
361.92228
361.86251
361.8122
361.77044
361.73618
361.70857
361.68692
361.6707
361.65952
361.65312
361.65135
361.65415
361.66159
361.67385
361.6912
361.71402
361.74282
361.7782
361.82091
361.87181
361.93192
362.00238
362.0845
362.17973
362.2897
362.41619
362.56116
362.7267
362.9151
363.12876
363.37022
363.64212
363.94717
364.28812
364.66771
365.0885
365.55349
366.0647
366.62422
367.23384
367.89492
368.60828
369.37411
370.19193
371.06047
371.9776
372.94032
373.94471
374.98523
361.0143
360.95685
360.90903
360.86986
360.83826
360.81332
360.79434
360.78078
360.77222
360.76839
360.76913
360.7744
360.78425
360.79886
360.8185
360.84359
360.87461
360.9122
360.95712
361.01024
361.0726
361.14536
361.22986
361.32757
361.44015
361.5694
361.71731
361.88601
362.07781
362.29515
362.54059
362.81681
363.12655
363.47259
363.85779
364.28466
364.75585
365.27377
365.84049
366.45777
367.12691
367.8487
368.62331
369.45017
370.32796
371.25446
372.22656
373.24022
374.2898
375.36825
360.11514
360.05935
360.01334
359.97612
359.94653
359.92365
359.90674
359.89525
359.88875
359.88696
359.8897
359.89692
359.9087
359.92521
359.94672
359.97366
360.00652
360.04596
360.09273
360.14774
360.21204
360.28682
360.37343
360.47336
360.5883
360.72009
360.87073
361.0424
361.23743
361.45827
361.70754
361.98794
362.30223
362.65317
363.04346
363.47645
363.95402
364.47868
365.0526
365.67752
366.35475
367.08504
367.8685
368.70453
369.59173
370.52783
371.50962
372.53294
373.5921
374.67988
359.23067
359.17594
359.13117
359.09531
359.06717
359.0458
359.03044
359.0205
359.01556
359.01532
359.0196
359.02834
359.04163
359.05963
359.08263
359.11104
359.1454
359.18634
359.23466
359.29127
359.35723
359.43376
359.52222
359.62414
359.74123
359.87534
360.02852
360.20296
360.40103
360.62522
360.87816
361.16258
361.4813
361.83715
362.23286
362.67137
363.15507
363.68637
364.2674
364.89991
365.58519
366.32395
367.11629
367.96154
368.85825
369.80409
370.79576
371.829
372.89803
373.99563
358.36591
358.31173
358.26768
358.23269
358.20551
358.18516
358.17088
358.16205
358.15823
358.15912
358.16453
358.17441
358.18882
358.20795
358.2321
358.26167
358.29721
358.33937
358.38895
358.44689
358.51426
358.59229
358.68238
358.78607
358.90509
359.04133
359.19685
359.37389
359.57482
359.80218
360.05862
360.34691
360.66988
361.03041
361.43135
361.87534
362.36505
362.90285
363.49089
364.13089
364.82412
365.5713
366.37245
367.2269
368.13313
369.08875
370.0904
371.13373
372.21282
373.32048
357.52509
357.47101
357.42726
357.39269
357.36605
357.34632
357.33271
357.32459
357.32152
357.32317
357.32935
357.34002
357.35525
357.3752
357.40019
357.43063
357.46707
357.51019
357.56079
357.61982
357.68837
357.76769
357.85919
357.96445
358.08521
358.22339
358.38108
358.56053
358.76415
358.99451
359.25429
359.54627
359.87329
360.23822
360.64419
361.09362
361.5892
362.13336
362.72825
363.37559
364.07664
364.83209
365.64195
366.5055
367.42119
368.38656
369.39819
370.45167
371.54093
372.65878
356.7117
356.65735
356.61352
356.57902
356.55255
356.53308
356.51979
356.51206
356.5094
356.51149
356.51815
356.52932
356.54507
356.56557
356.59114
356.62221
356.65932
356.70317
356.75456
356.81447
356.884
356.96442
357.05715
357.16379
357.28612
357.42606
357.58574
357.76742
357.97357
358.20675
358.4697
358.76522
359.09618
359.46545
359.87612
360.33075
360.832
361.38233
361.98387
362.63836
363.34705
364.1106
364.92901
365.80151
366.72652
367.70154
368.72308
369.78666
370.88611
372.0142
355.92855
355.87362
355.8294
355.79466
355.76806
355.74856
355.7353
355.72766
355.72514
355.72741
355.73429
355.74571
355.76174
355.78256
355.8085
355.83997
355.87755
355.92192
355.97392
356.03452
356.10485
356.18619
356.27999
356.38785
356.51157
356.65311
356.81461
356.99838
357.20688
357.44272
357.70866
358.00753
358.34226
358.71577
359.13087
359.59047
360.09718
360.65347
361.26145
361.92288
362.63898
363.41041
364.23714
365.1184
366.05254
367.03703
368.06834
369.14191
370.25147
371.38975
355.17785
355.12208
355.07723
355.04199
355.01501
354.99522
354.98176
354.97397
354.97136
354.97359
354.98047
354.99193
355.00804
355.02899
355.05509
355.08679
355.12466
355.16939
355.22183
355.28297
355.35394
355.43605
355.53075
355.63968
355.76465
355.90764
356.07082
356.2565
356.4672
356.70553
356.97427
357.2763
357.61457
357.992
358.41147
358.87585
359.38782
359.94982
360.56401
361.23212
361.95538
362.73444
363.56925
364.45901
365.40205
366.39578
367.43664
368.52002
369.63954
370.7879
354.46124
354.40442
354.35874
354.3228
354.29524
354.27497
354.26111
354.25298
354.25009
354.25209
354.25879
354.27011
354.28614
354.30705
354.33317
354.36494
354.40295
354.4479
354.50064
354.56217
354.63366
354.71639
354.81187
354.92173
355.04781
355.19211
355.35682
355.54428
355.757
355.99767
356.26905
356.57405
356.91564
357.2968
357.72043
358.18938
358.70636
359.27384
359.89397
360.56849
361.29863
362.08504
362.92764
363.82562
364.77727
365.77997
366.83012
367.92305
369.05232
370.21057
353.77992
353.72185
353.67518
353.63839
353.6101
353.58918
353.57476
353.56614
353.56282
353.56444
353.57081
353.58187
353.59766
353.6184
353.64441
353.67613
353.71416
353.7592
353.81213
353.87394
353.94581
354.02907
354.1252
354.23588
354.36294
354.50842
354.67452
354.86361
355.07823
355.32106
355.59492
355.90271
356.24734
356.63212
357.05968
357.53297
358.05472
358.62741
359.25321
359.93386
360.67059
361.46403
362.31411
363.21998
364.17992
365.19128
366.25041
367.3526
368.49134
369.65923
353.13464
353.07514
353.02737
352.98961
352.96046
352.93878
352.92367
352.91444
352.91057
352.9117
352.91764
352.9283
352.94377
352.96423
352.99002
353.02159
353.05953
353.10457
353.15758
353.21958
353.29174
353.37541
353.47209
353.58347
353.71141
353.85796
354.02532
354.21591
354.43227
354.67713
354.95331
355.26375
355.61143
355.99943
356.43066
356.90804
357.4343
358.01194
358.64313
359.3296
360.0726
360.87275
361.72998
362.6434
363.61128
364.63095
365.69872
366.80983
367.95772
369.13494
352.52577
352.46471
352.41573
352.37691
352.34681
352.32427
352.3084
352.29846
352.29395
352.29451
352.29992
352.31011
352.32516
352.34526
352.37075
352.40209
352.43987
352.48482
352.53784
352.59993
352.67231
352.7563
352.85345
352.96544
353.09415
353.24165
353.41017
353.60213
353.82011
354.06683
354.34517
354.65808
355.00858
355.39964
355.83434
356.31558
356.8461
357.42841
358.06468
358.75668
359.50563
360.31215
361.17616
362.09677
363.07223
364.09983
365.17586
366.29552
367.4522
368.63841
352.23268
352.12098
352.02943
351.95286
351.89054
351.84033
351.8004
351.76929
351.74585
351.72913
351.71844
351.71323
351.71314
351.71796
351.72762
351.74219
351.76187
351.787
351.81804
351.8556
351.9004
351.95336
352.01549
352.088
352.17225
352.26978
352.38229
352.51169
352.66004
352.82961
353.02283
353.24229
353.49074
353.77108
354.08627
354.43935
354.83333
355.2713
355.75616
356.29069
356.87739
357.51847
358.21567
358.97023
359.78278
360.65321
361.58064
362.56328
363.59842
364.68231
365.81013
366.9752
368.17002
351.83854
351.70152
351.58759
351.49378
351.416
351.3524
351.30096
351.2599
351.22776
351.20337
351.18578
351.17428
351.16832
351.16755
351.17174
351.18082
351.19487
351.21409
351.23881
351.26951
351.3068
351.35141
351.40425
351.46636
351.53895
351.6234
351.72124
351.83421
351.96421
352.11333
352.28385
352.47822
352.69904
352.94909
353.23127
353.54857
353.90406
354.30077
354.74179
355.23004
355.76832
356.35915
357.00473
357.70682
358.46666
359.28488
360.16137
361.09522
362.08466
363.12693
364.21826
365.35382
366.52687
367.72988
351.34512
351.20575
351.08977
350.99397
350.91477
350.84985
350.79718
350.75499
350.7218
350.69644
350.67797
350.66564
350.65892
350.65743
350.66096
350.66945
350.68295
350.70167
350.72597
350.7563
350.79327
350.83766
350.89035
350.9524
351.02502
351.10961
351.20771
351.32107
351.45161
351.60142
351.7728
351.96821
352.19028
352.4418
352.72568
353.04495
353.40266
353.80191
354.24577
354.73719
355.27897
355.87365
356.52344
357.2301
357.99489
358.81842
359.70059
360.64049
361.6363
362.68529
363.78364
364.9265
366.1071
367.31788
350.88636
350.74472
350.62677
350.52915
350.44847
350.38223
350.32834
350.28502
350.2508
350.22448
350.20511
350.19195
350.18446
350.18225
350.18512
350.19299
350.20593
350.22415
350.24799
350.27793
350.31458
350.35871
350.41122
350.47318
350.54581
350.63049
350.72881
350.8425
350.97351
351.12394
351.29609
351.49246
351.71568
351.96855
352.254
352.57508
352.93486
353.33646
353.78294
354.2773
354.82234
355.4206
356.07431
356.78524
357.55464
358.38313
359.27061
360.21615
361.21795
362.27322
363.37817
364.52789
365.7156
366.9337
350.46131
350.31754
350.19771
350.09838
350.01624
349.9487
349.89362
349.8492
349.81396
349.78669
349.76644
349.75246
349.7442
349.74128
349.74348
349.75074
349.76312
349.78083
349.80421
349.83375
349.87007
349.91394
349.96625
350.02809
350.10069
350.18544
350.28393
350.39791
350.52933
350.68031
350.85317
351.05041
351.27467
351.52878
351.81568
352.13842
352.50011
352.90388
353.3528
353.84988
354.39792
354.99951
355.65685
356.37174
357.14543
357.97854
358.87096
359.82176
360.82912
361.89027
363.00137
364.15751
365.35188
366.57686
350.06896
349.92318
349.80156
349.70063
349.61709
349.54829
349.49205
349.44656
349.41033
349.38215
349.36104
349.34626
349.33725
349.33363
349.33519
349.34184
349.35366
349.37087
349.3938
349.42295
349.45893
349.50252
349.55463
349.61634
349.68889
349.77368
349.87231
349.98654
350.11832
350.2698
350.44329
350.64131
350.86653
351.12177
351.41
351.73428
352.09772
352.50348
352.95465
353.45423
354.00506
354.60971
355.27041
355.98897
356.76662
357.604
358.50099
359.45667
360.4692
361.5358
362.65263
363.81474
365.01532
366.24672
349.70817
349.56052
349.43723
349.33479
349.24991
349.1799
349.12256
349.07605
349.03888
349.00981
348.98788
348.97233
348.9626
348.9583
348.95923
348.9653
348.97659
348.9933
349.01579
349.04455
349.0802
349.12351
349.17541
349.23698
349.30947
349.39428
349.49302
349.60747
349.73957
349.89149
350.06556
350.26429
350.49038
350.74666
351.0361
351.36177
351.72683
352.13441
352.58764
353.08952
353.64291
354.25038
354.91418
355.6361
356.41741
357.25872
358.15994
359.12012
360.13743
361.20907
362.33119
363.49883
364.70518
365.94255
349.37776
349.22836
349.10351
348.99967
348.91353
348.84238
348.78399
348.73652
348.69844
348.66854
348.64582
348.62953
348.61912
348.61418
348.61451
348.62002
348.63079
348.64703
348.6691
348.69748
348.73281
348.77585
348.82754
348.88897
348.96139
349.04621
349.14504
349.25967
349.39206
349.54437
349.71896
349.91834
350.14521
350.40243
350.69297
351.01993
351.38646
351.79571
352.25082
352.75481
353.31054
353.9206
354.58723
355.31224
356.0969
356.94183
357.84692
358.81123
359.83293
360.90921
362.03621
363.20895
364.42062
365.66352
349.07647
348.92546
348.79917
348.69403
348.60671
348.53449
348.47512
348.42674
348.38782
348.35712
348.33367
348.31669
348.30562
348.30008
348.29984
348.30482
348.31511
348.3309
348.35257
348.38059
348.41561
348.45839
348.50988
348.57117
348.64351
348.72833
348.82724
348.94202
349.07467
349.22733
349.40238
349.60234
349.82993
350.088
350.37955
350.70767
351.07554
351.48631
351.94314
352.44905
353.00691
353.61933
354.28854
355.01638
355.80409
356.65232
357.56095
358.52905
359.55477
360.63528
361.76675
362.94417
364.16072
365.40873
348.80303
348.65054
348.52291
348.41658
348.32817
348.25496
348.19468
348.14545
348.10574
348.07431
348.05017
348.03254
348.02087
348.01476
348.01399
348.01848
348.02831
348.04369
348.06497
348.09266
348.12738
348.16993
348.22123
348.28238
348.35464
348.43945
348.53842
348.65334
348.78621
348.93919
349.11466
349.31515
349.54338
349.80222
350.09468
350.42386
350.79293
351.20509
351.66347
352.17112
352.73092
353.34547
354.01704
354.74743
355.53793
356.38915
357.30101
358.27254
359.30191
360.38629
361.52184
362.70351
363.92452
365.17722
348.55613
348.40229
348.27345
348.16602
348.07662
348.0025
347.94137
347.89136
347.85093
347.81881
347.79403
347.77581
347.76358
347.75694
347.75568
347.75971
347.76912
347.78412
347.80505
347.83243
347.86688
347.9092
347.96031
348.02134
348.09353
348.17832
348.27734
348.39239
348.52545
348.67872
348.85456
349.05552
349.28433
349.54387
349.83715
350.16728
350.53745
350.95084
351.41063
351.91985
352.4814
353.09788
353.77157
354.50428
355.29728
356.15122
357.06599
358.04063
359.07331
360.16119
361.30042
362.48595
363.71099
364.96797
348.33446
348.1794
348.04947
347.94105
347.85074
347.77578
347.71389
347.66316
347.62206
347.58932
347.56396
347.54519
347.53245
347.52533
347.52362
347.52723
347.53626
347.5509
347.57151
347.5986
347.63281
347.67491
347.72587
347.78677
347.85889
347.94367
348.04273
348.15788
348.29113
348.44465
348.62082
348.8222
349.05153
349.3117
349.60571
349.9367
350.30785
350.72236
351.1834
351.69404
352.25716
352.87538
353.55097
354.28575
355.08102
355.93739
356.85477
357.83221
358.86786
359.95888
361.10143
362.29043
363.51909
364.77994
348.13672
347.98057
347.84965
347.74033
347.64921
347.5735
347.51091
347.45954
347.41783
347.38453
347.35864
347.33937
347.32616
347.31861
347.31649
347.31973
347.3284
347.34272
347.36305
347.38988
347.42386
347.46578
347.51658
347.57738
347.64943
347.7342
347.8333
347.94855
348.08195
348.23569
348.41216
348.61393
348.84372
349.10444
349.39911
349.73086
350.10289
350.5184
350.98057
351.49247
352.05699
352.67675
353.35404
354.09068
354.88795
355.7465
356.66621
357.64615
358.68446
359.77828
360.92379
362.11589
363.34777
364.61201
365.90013
347.96163
347.8045
347.6727
347.56259
347.47074
347.39436
347.33114
347.27918
347.23693
347.20312
347.17676
347.15705
347.14342
347.13548
347.133
347.1359
347.14426
347.1583
347.17836
347.20497
347.23875
347.2805
347.33117
347.39186
347.46386
347.54861
347.64775
347.76308
347.89662
348.05057
348.22731
348.42941
348.65961
348.92083
349.21608
349.54851
349.92131
350.33771
350.80087
351.31389
351.87965
352.50079
353.17958
353.91786
354.71691
355.57738
356.49916
357.48131
358.52197
359.61828
360.76641
361.96126
363.196
364.46323
365.75436
347.80789
347.64991
347.51733
347.40653
347.31404
347.23705
347.17328
347.1208
347.07807
347.04381
347.01703
346.99693
346.98293
346.97465
346.97185
346.97445
346.98253
346.99632
347.01616
347.04256
347.07616
347.11776
347.16832
347.22893
347.30088
347.38563
347.48479
347.6002
347.73387
347.88799
348.06497
348.26737
348.49794
348.75959
349.05535
349.38838
349.76186
350.17904
350.64308
351.15708
351.72393
352.34627
353.02638
353.7661
354.56672
355.42887
356.35247
357.33656
358.37928
359.47778
360.6282
361.82547
363.06272
364.33255
365.62643
347.67427
347.51554
347.3823
347.27089
347.17785
347.10034
347.03607
346.98314
346.93998
346.90533
346.87818
346.85773
346.84342
346.83484
346.83175
346.8341
346.84194
346.85551
346.87515
346.90137
346.93483
346.97631
347.02676
347.08731
347.15922
347.24395
347.34315
347.45863
347.59241
347.74669
347.92388
348.12654
348.35743
348.61946
348.91567
349.24922
349.6233
350.04116
350.50597
351.02082
351.58862
352.212
352.89326
353.63423
354.43621
355.29983
356.22499
357.21076
358.25528
359.35568
360.50808
361.70745
362.9469
364.21897
365.51523
366.82611
347.55956
347.4002
347.26638
347.15445
347.06094
346.98297
346.91828
346.86495
346.82143
346.78643
346.75896
346.73822
346.72363
346.71479
346.71147
346.7136
346.72124
346.73462
346.75409
346.78017
346.8135
346.85487
346.90524
346.96573
347.03761
347.12235
347.22158
347.33712
347.471
347.62542
347.80279
348.00568
348.23685
348.49921
348.79582
349.12981
349.50441
349.92285
350.38832
350.9039
351.47252
352.0968
352.77904
353.52108
354.32422
355.1891
356.11561
357.10282
358.14887
359.2509
360.405
361.60618
362.8475
364.12149
365.41982
366.73272
347.46257
347.30268
347.16838
347.05602
346.96212
346.88375
346.81869
346.76503
346.72119
346.68591
346.65818
346.63719
346.62237
346.61331
346.60979
346.61173
346.6192
346.63243
346.65177
346.67772
346.71094
346.75223
346.80254
346.86298
346.93485
347.01959
347.11884
347.23445
347.36842
347.52296
347.70049
347.90357
348.13498
348.39763