/*--------------------------------*- C++ -*----------------------------------*\
| =========                 |                                                 |
| \\      /  F ield         | OpenFOAM: The Open Source CFD Toolbox           |
|  \\    /   O peration     | Version:  2312                                  |
|   \\  /    A nd           | Website:  www.openfoam.com                      |
|    \\/     M anipulation  |                                                 |
\*---------------------------------------------------------------------------*/
FoamFile
{
    version     2.0;
    format      ascii;
    arch        "LSB;label=32;scalar=64";
    class       surfaceScalarField;
    location    "0.01";
    object      phi;
}
// * * * * * * * * * * * * * * * * * * * * * * * * * * * * * * * * * * * * * //

dimensions      [1 0 -1 0 0 0 0];

oriented        oriented;

internalField   nonuniform List<scalar> 
6378
(
2.6080329e-08
-6.7845256e-08
2.5178823e-08
-6.6532295e-08
2.4294728e-08
-6.5250863e-08
2.3428277e-08
-6.4001225e-08
2.2579815e-08
-6.2783869e-08
2.1749804e-08
-6.1599339e-08
2.0938823e-08
-6.0448204e-08
2.0147559e-08
-5.9331046e-08
1.9376795e-08
-5.8248453e-08
1.8627399e-08
-5.7201016e-08
1.790031e-08
-5.6189319e-08
1.7196518e-08
-5.5213936e-08
1.6517046e-08
-5.4275424e-08
1.5862928e-08
-5.3374311e-08
1.5235184e-08
-5.2511084e-08
1.4634782e-08
-5.1686184e-08
1.4062604e-08
-5.0900003e-08
1.3519416e-08
-5.0152918e-08
1.3005868e-08
-4.9445353e-08
1.2522496e-08
-4.8777789e-08
1.2069713e-08
-4.8150755e-08
1.1647801e-08
-4.7564819e-08
1.1256883e-08
-4.7020574e-08
1.0896899e-08
-4.6518652e-08
1.0567578e-08
-4.6059722e-08
1.0268402e-08
-4.5644523e-08
9.9986705e-09
-4.527393e-08
9.7578259e-09
-4.4949125e-08
9.5471882e-09
-4.4672422e-08
9.3732961e-09
-4.4445862e-08
9.2158649e-09
-4.4251843e-08
9.0807504e-09
-4.4109423e-08
8.9678464e-09
-4.401814e-08
8.8747693e-09
-4.3977165e-08
8.7984687e-09
-4.3986735e-08
8.7354475e-09
-4.404732e-08
8.6817449e-09
-4.4159424e-08
8.6328842e-09
-4.4323514e-08
8.5838537e-09
-4.4539968e-08
8.5298386e-09
-4.4809061e-08
8.463869e-09
-4.5130862e-08
8.3792127e-09
-4.5505335e-08
8.2684421e-09
-4.5932364e-08
-4.641175e-08
2.6275357e-08
-5.2060948e-08
2.539207e-08
-5.0747295e-08
2.4526108e-08
-4.9464156e-08
2.3677604e-08
-4.8211884e-08
2.284682e-08
-4.6990989e-08
2.2034136e-08
-4.5802018e-08
2.1240041e-08
-4.4645544e-08
2.0465125e-08
-4.3522157e-08
1.9710069e-08
-4.2432467e-08
1.8975633e-08
-4.1377093e-08
1.8262643e-08
-4.0356667e-08
1.7571983e-08
-3.9371825e-08
1.6904577e-08
-3.84232e-08
1.6261377e-08
-3.751141e-08
1.5643327e-08
-3.6637031e-08
1.5051309e-08
-3.5800565e-08
1.4486054e-08
-3.500242e-08
1.3948077e-08
-3.4242973e-08
1.3437771e-08
-3.3522771e-08
1.2955436e-08
-3.2842482e-08
1.2501293e-08
-3.2202852e-08
1.2075449e-08
-3.1604646e-08
1.1677871e-08
-3.1048644e-08
1.130832e-08
-3.0535606e-08
1.0966263e-08
-3.0066256e-08
1.0650705e-08
-2.9641202e-08
1.0359945e-08
-2.926077e-08
1.0091793e-08
-2.8924621e-08
9.8471689e-09
-2.8629369e-08
9.6880144e-09
-2.8374001e-08
9.4898985e-09
-2.8207726e-08
9.3138909e-09
-2.8083313e-08
9.1598358e-09
-2.8003722e-08
9.0238197e-09
-2.7974302e-08
8.90181e-09
-2.7997302e-08
8.7898558e-09
-2.8074225e-08
8.683812e-09
-2.820619e-08
8.5791354e-09
-2.8394096e-08
8.4708226e-09
-2.8638688e-08
8.3542455e-09
-2.8940619e-08
8.2224359e-09
-2.9300327e-08
8.0687658e-09
-2.9718123e-08
7.8859262e-09
-3.0194186e-08
-3.0728614e-08
2.7155135e-08
-3.7576507e-08
2.6280559e-08
-3.6265701e-08
2.5423471e-08
-3.4984524e-08
2.4583915e-08
-3.3733401e-08
2.3762054e-08
-3.2512853e-08
2.2958163e-08
-3.1323423e-08
2.2172615e-08
-3.0165677e-08
2.1405874e-08
-2.9040206e-08
2.065848e-08
-2.7947623e-08
1.9931043e-08
-2.6888571e-08
1.9224236e-08
-2.5863717e-08
1.8538794e-08
-2.4873758e-08
1.7875517e-08
-2.391941e-08
1.7235281e-08
-2.3001396e-08
1.6619008e-08
-2.2120396e-08
1.6027558e-08
-2.127694e-08
1.546147e-08
-2.0471296e-08
1.4920827e-08
-1.9703669e-08
1.4405581e-08
-1.8974793e-08
1.3915698e-08
-1.8285666e-08
1.3451162e-08
-1.7637341e-08
1.3011931e-08
-1.703085e-08
1.2597904e-08
-1.6467189e-08
1.2208912e-08
-1.5947336e-08
1.1844779e-08
-1.5472277e-08
1.1505537e-08
-1.5043061e-08
1.1191939e-08
-1.4660906e-08
1.0905716e-08
-1.4327265e-08
1.0646842e-08
-1.4045982e-08
1.0327473e-08
-1.3823284e-08
1.0106317e-08
-1.3629627e-08
9.8948664e-09
-1.3496987e-08
9.6918929e-09
-1.3421471e-08
9.4973855e-09
-1.3401593e-08
9.3097865e-09
-1.3438219e-08
9.1262514e-09
-1.3532405e-08
8.943093e-09
-1.3685262e-08
8.7559285e-09
-1.3897851e-08
8.5597278e-09
-1.4171135e-08
8.3500951e-09
-1.4506006e-08
8.1201391e-09
-1.4903403e-08
7.8633394e-09
-1.5363801e-08
7.5725571e-09
-1.5887669e-08
-1.6475376e-08
2.8496862e-08
-2.4627123e-08
2.7624615e-08
-2.3323884e-08
2.6770063e-08
-2.2049567e-08
2.5933198e-08
-2.0804653e-08
2.5114108e-08
-1.9589646e-08
2.4312967e-08
-1.8405057e-08
2.3530022e-08
-1.7251421e-08
2.2765588e-08
-1.6129306e-08
2.2020031e-08
-1.5039313e-08
2.1293768e-08
-1.3982086e-08
2.0587266e-08
-1.2958314e-08
1.9901058e-08
-1.1968737e-08
1.9235788e-08
-1.1014155e-08
1.8592289e-08
-1.0095432e-08
1.7971641e-08
-9.2134341e-09
1.7374907e-08
-8.3686792e-09
1.6802383e-08
-7.5609749e-09
1.6253362e-08
-6.7902633e-09
1.5726945e-08
-6.0575828e-09
1.5222655e-08
-5.3646414e-09
1.4740291e-08
-4.7129477e-09
1.427971e-08
-4.1037479e-09
1.3840725e-08
-3.5381687e-09
1.3423042e-08
-3.0172986e-09
1.3026231e-08
-2.5422358e-09
1.2649623e-08
-2.1141043e-09
1.2292046e-08
-1.7340515e-09
1.1951228e-08
-1.4033135e-09
1.1620069e-08
-1.1223076e-09
1.1307758e-08
-8.8970408e-10
1.1004275e-08
-7.1981138e-10
1.0718335e-08
-6.0113726e-10
1.0441466e-08
-5.3767183e-10
1.0169665e-08
-5.3180661e-10
9.8993895e-09
-5.8483902e-10
9.6271835e-09
-6.9836976e-10
9.3491849e-09
-8.7374225e-10
9.0609517e-09
-1.1122235e-09
8.7574044e-09
-1.4150471e-09
8.433581e-09
-1.7832869e-09
8.0836501e-09
-2.2180469e-09
7.7007405e-09
-2.7201249e-09
7.2778893e-09
-3.290276e-09
-3.9290731e-09
3.0115819e-08
-1.3336102e-08
2.9241171e-08
-1.2045993e-08
2.8384372e-08
-1.0784285e-08
2.7545441e-08
-9.5514966e-09
2.6724434e-08
-8.3480626e-09
2.5921434e-08
-7.1744175e-09
2.513656e-08
-6.0310379e-09
2.4369958e-08
-4.9184472e-09
2.3621797e-08
-3.837214e-09
2.2892259e-08
-2.7879569e-09
2.2181546e-08
-1.7713466e-09
2.1489914e-08
-7.8812573e-10
2.081775e-08
1.6089673e-10
2.0165816e-08
1.0747431e-09
1.9535657e-08
1.9522122e-09
1.8929488e-08
2.7924843e-09
1.8347965e-08
3.5964346e-09
1.778708e-08
4.3651702e-09
1.7244608e-08
5.0961733e-09
1.672011e-08
5.78645e-09
1.621365e-08
6.4343684e-09
1.5725211e-08
7.0389319e-09
1.5254585e-08
7.599182e-09
1.4801338e-08
8.1141026e-09
1.4364814e-08
8.5825964e-09
1.3944234e-08
9.0034631e-09
1.3538925e-08
9.3753921e-09
1.3148226e-08
9.6971354e-09
1.276921e-08
9.9669812e-09
1.2370347e-08
1.0182059e-08
1.2008645e-08
1.0346909e-08
1.1651825e-08
1.045374e-08
1.1295697e-08
1.0502344e-08
1.0937831e-08
1.04914e-08
1.0575431e-08
1.0419192e-08
1.0204888e-08
1.0284129e-08
9.82211e-09
1.0084655e-08
9.4225401e-09
9.8192686e-09
9.0010666e-09
9.4865538e-09
8.5522402e-09
9.0852249e-09
8.0707773e-09
8.614102e-09
7.549624e-09
8.071898e-09
6.9819987e-09
7.4577781e-09
6.7709767e-09
3.1858124e-08
-3.730993e-09
3.097771e-08
-2.4601622e-09
3.0115224e-08
-1.2174041e-09
2.927087e-08
-3.1480788e-12
2.8444698e-08
1.1823223e-09
2.7636688e-08
2.338661e-09
2.684681e-08
3.4654418e-09
2.607503e-08
4.5621812e-09
2.5321307e-08
5.6283487e-09
2.458557e-08
6.6633787e-09
2.3867705e-08
7.6666778e-09
2.3167561e-08
8.6376327e-09
2.2485063e-08
9.5756265e-09
2.1820561e-08
1.0479983e-08
2.1176069e-08
1.1349503e-08
2.0557589e-08
1.2181877e-08
1.997082e-08
1.2976159e-08
1.9395275e-08
1.3738103e-08
1.8830788e-08
1.4458562e-08
1.8279914e-08
1.5135609e-08
1.7743763e-08
1.5769667e-08
1.7222557e-08
1.6360543e-08
1.6716023e-08
1.690742e-08
1.6223535e-08
1.7409214e-08
1.5744207e-08
1.7864673e-08
1.5276986e-08
1.827237e-08
1.4820586e-08
1.8630738e-08
1.4373179e-08
1.893754e-08
1.3929061e-08
1.9188603e-08
1.347683e-08
1.9383194e-08
1.3039269e-08
1.9538492e-08
1.2604668e-08
1.9633823e-08
1.2166067e-08
1.9666344e-08
1.1719932e-08
1.9636786e-08
1.1262849e-08
1.954405e-08
1.0791096e-08
1.9386466e-08
1.0300497e-08
1.9162374e-08
9.7864189e-09
1.8870127e-08
9.2437776e-09
1.8508132e-08
8.6670692e-09
1.8074921e-08
8.0504023e-09
1.7569195e-08
7.3875765e-09
1.698969e-08
6.6716463e-09
1.6335054e-08
1.5604477e-08
3.3601678e-08
4.2373969e-09
3.2713218e-08
5.4819708e-09
3.1842863e-08
6.6988714e-09
3.0991116e-08
7.8880846e-09
3.0157964e-08
9.0493857e-09
2.9343218e-08
1.0182372e-08
2.8546666e-08
1.1286571e-08
2.7768104e-08
1.2361474e-08
2.7007323e-08
1.3406554e-08
2.6264077e-08
1.4421284e-08
2.5538032e-08
1.5405168e-08
2.482872e-08
1.6357788e-08
2.4135655e-08
1.7278836e-08
2.3458747e-08
1.8168322e-08
2.279923e-08
1.9027444e-08
2.2164078e-08
1.9857498e-08
2.1570405e-08
2.0650329e-08
2.0969564e-08
2.1381675e-08
2.037594e-08
2.2068894e-08
1.9794673e-08
2.2718729e-08
1.9226626e-08
2.3330085e-08
1.8671549e-08
2.3900881e-08
1.812859e-08
2.4429385e-08
1.759657e-08
2.4913964e-08
1.7073937e-08
2.5353108e-08
1.6558733e-08
2.5745277e-08
1.6048356e-08
2.6088952e-08
1.5538817e-08
2.6382982e-08
1.5028189e-08
2.6627216e-08
1.4549334e-08
2.6819376e-08
1.4035044e-08
2.694292e-08
1.3517712e-08
2.7010562e-08
1.29944e-08
2.7020752e-08
1.2459547e-08
2.6969839e-08
1.1908542e-08
2.6855229e-08
1.1336983e-08
2.6674776e-08
1.0740339e-08
2.6426489e-08
1.01138e-08
2.610849e-08
9.4522415e-09
2.5718983e-08
8.7502761e-09
2.525626e-08
8.0019678e-09
2.4718896e-08
7.2001175e-09
2.4105934e-08
6.3391318e-09
2.3415335e-08
2.2646364e-08
3.5251097e-08
1.0671722e-08
3.4354408e-08
1.188223e-08
3.3476338e-08
1.306708e-08
3.2617241e-08
1.4225964e-08
3.1776953e-08
1.5358059e-08
3.0955137e-08
1.6462675e-08
3.0151455e-08
1.7539201e-08
2.9365626e-08
1.8587035e-08
2.8597444e-08
1.9605567e-08
2.7846783e-08
2.059417e-08
2.7113632e-08
2.1552184e-08
2.6398134e-08
2.2478902e-08
2.5700498e-08
2.3373544e-08
2.50206e-08
2.4235165e-08
2.4357094e-08
2.5062085e-08
2.3702568e-08
2.5851166e-08
2.3034153e-08
2.6600913e-08
2.2398706e-08
2.7319426e-08
2.1782403e-08
2.7999004e-08
2.1179367e-08
2.8637557e-08
2.058725e-08
2.923501e-08
2.0004394e-08
2.979074e-08
1.9429577e-08
3.0303553e-08
1.8861956e-08
3.0771975e-08
1.8299932e-08
3.1194892e-08
1.7741854e-08
3.1570618e-08
1.7185724e-08
3.1897362e-08
1.6628332e-08
3.2173287e-08
1.6065183e-08
3.2396668e-08
1.5495619e-08
3.2565434e-08
1.4919132e-08
3.2676805e-08
1.4334466e-08
3.2729583e-08
1.3736056e-08
3.2721856e-08
1.3119088e-08
3.2651406e-08
1.2479525e-08
3.2516174e-08
1.1813292e-08
3.2314106e-08
1.1115949e-08
3.2043177e-08
1.0382651e-08
3.170145e-08
9.6082285e-09
3.1287133e-08
8.7874585e-09
3.0798547e-08
7.9151278e-09
3.0233712e-08
6.981631e-09
2.9590344e-08
5.9835184e-09
2.8869012e-08
2.8068033e-08
3.6737795e-08
1.5711522e-08
3.5836009e-08
1.6891991e-08
3.4953622e-08
1.8045956e-08
3.4089766e-08
1.9173404e-08
3.3243969e-08
2.0274008e-08
3.2415932e-08
2.1347293e-08
3.1605406e-08
2.2392751e-08
3.0812139e-08
2.3409844e-08
3.003588e-08
2.4397995e-08
2.9276376e-08
2.5356572e-08
2.8533379e-08
2.6284872e-08
2.7806609e-08
2.7182105e-08
2.7095622e-08
2.8047362e-08
2.639945e-08
2.8879538e-08
2.5715418e-08
2.9677245e-08
2.5037188e-08
3.0439541e-08
2.4362182e-08
3.1167602e-08
2.3705334e-08
3.1861877e-08
2.306421e-08
3.2519682e-08
2.24348e-08
3.3138277e-08
2.181444e-08
3.3716251e-08
2.1201081e-08
3.4252659e-08
2.0593009e-08
3.47466e-08
1.9989952e-08
3.5196965e-08
1.9389107e-08
3.5601145e-08
1.8788586e-08
3.5957452e-08
1.8186253e-08
3.6264097e-08
1.7578954e-08
3.6518805e-08
1.6961843e-08
3.6719534e-08
1.6331414e-08
3.686638e-08
1.569231e-08
3.6960123e-08
1.5040366e-08
3.6995911e-08
1.4369649e-08
3.6969613e-08
1.3675391e-08
3.6879321e-08
1.2953432e-08
3.6723491e-08
1.2199574e-08
3.6500245e-08
1.1409304e-08
3.6207579e-08
1.0577746e-08
3.5843511e-08
9.6996515e-09
3.5406104e-08
8.7691904e-09
3.4893481e-08
7.7798105e-09
3.4304001e-08
6.7280162e-09
3.3636572e-08
5.6046305e-09
3.2889511e-08
3.2061398e-08
3.9918587e-08
1.7182951e-08
3.8968393e-08
1.8377984e-08
3.803969e-08
1.9548016e-08
3.7131783e-08
2.0692582e-08
3.6243462e-08
2.1811089e-08
3.5373434e-08
2.2902882e-08
3.4521186e-08
2.3967757e-08
3.3686371e-08
2.5005463e-08
3.2868661e-08
2.6015644e-08
3.2067701e-08
2.6997857e-08
3.1283106e-08
2.7951579e-08
3.0514448e-08
2.8876216e-08
2.9761244e-08
2.9771096e-08
2.902291e-08
3.0635459e-08
2.8298652e-08
3.1468451e-08
2.7587251e-08
3.2269119e-08
2.6886674e-08
3.3036476e-08
2.6194337e-08
3.3769882e-08
2.550987e-08
3.4469461e-08
2.483599e-08
3.513502e-08
2.4172771e-08
3.576496e-08
2.3518675e-08
3.6357217e-08
2.2871823e-08
3.6910094e-08
2.2230363e-08
3.7422133e-08
2.1592339e-08
3.7891858e-08
2.095445e-08
3.8317697e-08
2.0315675e-08
3.8698456e-08
1.9673877e-08
3.9032363e-08
1.902656e-08
3.9317495e-08
1.8370971e-08
3.9551853e-08
1.7705272e-08
3.9733724e-08
1.7029455e-08
3.9861833e-08
1.6334181e-08
3.9934121e-08
1.5618832e-08
3.9948451e-08
1.4880564e-08
3.9901952e-08
1.411511e-08
3.9792236e-08
1.3318017e-08
3.9617267e-08
1.248471e-08
3.9375003e-08
1.1610407e-08
3.906337e-08
1.0690065e-08
3.8680324e-08
9.718333e-09
3.8223895e-08
8.6894685e-09
3.7692243e-08
7.5976313e-09
3.7083749e-08
6.4380491e-09
3.6396878e-08
5.2016029e-09
3.5629896e-08
3.4782211e-08
4.1010158e-08
2.0041533e-08
4.0057112e-08
2.1195189e-08
3.9124404e-08
2.2324048e-08
3.8211672e-08
2.3427673e-08
3.7317671e-08
2.4505526e-08
3.6441979e-08
2.5557388e-08
3.5584058e-08
2.6582965e-08
3.4743423e-08
2.7581931e-08
3.3919591e-08
2.8553914e-08
3.3112051e-08
2.9498483e-08
3.2320275e-08
3.0415145e-08
3.1543671e-08
3.1303337e-08
3.0781589e-08
3.2162426e-08
3.0033276e-08
3.2991712e-08
2.9297818e-08
3.3790424e-08
2.8574052e-08
3.4557737e-08
2.7860497e-08
3.5292829e-08
2.7155625e-08
3.5995006e-08
2.6458661e-08
3.6663835e-08
2.5769587e-08
3.7298833e-08
2.5088012e-08
3.7898737e-08
2.4412815e-08
3.846199e-08
2.3742444e-08
3.8987029e-08
2.3075109e-08
3.9472308e-08
2.2408728e-08
3.9916268e-08
2.1740777e-08
4.0317359e-08
2.106921e-08
4.0674096e-08
2.0391705e-08
4.098484e-08
1.9705634e-08
4.1247801e-08
1.9008516e-08
4.1461153e-08
1.8299303e-08
4.1623084e-08
1.7577169e-08
4.1731519e-08
1.683163e-08
4.1784012e-08
1.6061326e-08
4.1778788e-08
1.5264204e-08
4.1713705e-08
1.4436293e-08
4.1586391e-08
1.3573006e-08
4.1394572e-08
1.2669593e-08
4.1136062e-08
1.1721144e-08
4.0808716e-08
1.0722541e-08
4.0410454e-08
9.6684133e-09
3.993929e-08
8.5531426e-09
3.9393371e-08
7.3709711e-09
3.8771007e-08
6.1160222e-09
3.8070623e-08
4.7814309e-09
3.7290801e-08
3.6430526e-08
4.1869692e-08
2.2002941e-08
4.0915099e-08
2.3112615e-08
3.9980128e-08
2.419775e-08
3.9064414e-08
2.5258051e-08
3.8167243e-08
2.6293176e-08
3.7288082e-08
2.7302887e-08
3.6426412e-08
2.8286929e-08
3.5581698e-08
2.9244995e-08
3.4753379e-08
3.0176723e-08
3.3940854e-08
3.1081699e-08
3.3143482e-08
3.1959455e-08
3.2360569e-08
3.2809462e-08
3.1591352e-08
3.3631133e-08
3.0834983e-08
3.442382e-08
3.0090494e-08
3.518682e-08
2.9356774e-08
3.5919386e-08
2.8632563e-08
3.6620757e-08
2.7916569e-08
3.7290204e-08
2.720772e-08
3.7927054e-08
2.6505249e-08
3.8530577e-08
2.5808215e-08
3.9099685e-08
2.5115354e-08
3.9633075e-08
2.4425116e-08
4.0129334e-08
2.3735706e-08
4.0586985e-08
2.304509e-08
4.1004501e-08
2.2351022e-08
4.138032e-08
2.1651185e-08
4.1712869e-08
2.0943097e-08
4.2000493e-08
2.0224094e-08
4.2241468e-08
1.94917e-08
4.243406e-08
1.874434e-08
4.2576378e-08
1.7979876e-08
4.2665903e-08
1.71904e-08
4.2699951e-08
1.6373238e-08
4.2677063e-08
1.5525798e-08
4.2595517e-08
1.4644146e-08
4.2452964e-08
1.3723721e-08
4.2246988e-08
1.2759746e-08
4.1975306e-08
1.1747276e-08
4.1635731e-08
1.0681162e-08
4.1226166e-08
9.5560366e-09
4.0744621e-08
8.3663116e-09
4.0189237e-08
7.1062083e-09
3.9558309e-08
5.7697375e-09
3.8850294e-08
4.3506593e-09
3.8063841e-08
3.7197851e-08
4.2497831e-08
2.3219451e-08
4.1543593e-08
2.4283508e-08
4.060852e-08
2.5323381e-08
3.9692217e-08
2.6338907e-08
3.8794141e-08
2.7329865e-08
3.791374e-08
2.8296044e-08
3.7050459e-08
2.9237209e-08
3.6203722e-08
3.0153077e-08
3.5372912e-08
3.1043315e-08
3.4557368e-08
3.1907538e-08
3.3756378e-08
3.2745308e-08
3.2969175e-08
3.3556134e-08
3.2194925e-08
3.4339473e-08
3.1432715e-08
3.5094724e-08
3.068154e-08
3.5821237e-08
2.9940297e-08
3.6518317e-08
2.9207786e-08
3.7185235e-08
2.8482762e-08
3.7821244e-08
2.7764017e-08
3.8425579e-08
2.7050413e-08
3.8997397e-08
2.6340702e-08
3.9535677e-08
2.5633448e-08
4.0039235e-08
2.4927013e-08
4.0506768e-08
2.4219559e-08
4.0936878e-08
2.3509055e-08
4.1328091e-08
2.2793297e-08
4.1678862e-08
2.2069924e-08
4.1987588e-08
2.1336386e-08
4.2252582e-08
2.0589937e-08
4.2472064e-08
1.9827872e-08
4.2644171e-08
1.9047862e-08
4.2766953e-08
1.8247066e-08
4.2838322e-08
1.7420145e-08
4.2856235e-08
1.6563593e-08
4.2818828e-08
1.5674003e-08
4.2723897e-08
1.4747238e-08
4.2569061e-08
1.3778721e-08
4.2351985e-08
1.2763694e-08
4.207042e-08
1.1697227e-08
4.1722203e-08
1.0574188e-08
4.1305255e-08
9.3892281e-09
4.0817606e-08
8.1367864e-09
4.0257415e-08
6.8111118e-09
3.9622991e-08
5.4062807e-09
3.891282e-08
3.9162211e-09
3.8125589e-08
3.7260185e-08
4.2903188e-08
2.3829911e-08
4.1951547e-08
2.48475e-08
4.101869e-08
2.5841358e-08
4.0104187e-08
2.6811412e-08
3.9207525e-08
2.7757525e-08
3.8328155e-08
2.8679524e-08
3.7465496e-08
2.9577205e-08
3.6618934e-08
3.0450315e-08
3.5787813e-08
3.1298555e-08
3.4971424e-08
3.2121574e-08
3.4169008e-08
3.2918971e-08
3.3379746e-08
3.3690294e-08
3.2602755e-08
3.4435041e-08
3.1837078e-08
3.5152655e-08
3.1081678e-08
3.5842532e-08
3.0335435e-08
3.6504015e-08
2.9597151e-08
3.7136404e-08
2.8865564e-08
3.7738956e-08
2.8139378e-08
3.8310876e-08
2.7417265e-08
3.8851293e-08
2.6697798e-08
3.9359213e-08
2.5979406e-08
3.9833521e-08
2.5260359e-08
4.0272987e-08
2.4538753e-08
4.0676281e-08
2.3812516e-08
4.1041979e-08
2.3079406e-08
4.1368572e-08
2.2337016e-08
4.1654462e-08
2.1582739e-08
4.1897953e-08
2.0813786e-08
4.2097248e-08
2.0027359e-08
4.2250483e-08
1.9220905e-08
4.2355723e-08
1.8391521e-08
4.2410937e-08
1.7534389e-08
4.2414244e-08
1.664554e-08
4.2364204e-08
1.5721212e-08
4.225831e-08
1.4757223e-08
4.2093955e-08
1.3749039e-08
4.1868757e-08
1.2691943e-08
4.1580513e-08
1.1581022e-08
4.1227109e-08
1.0411157e-08
4.0806515e-08
9.1770199e-09
4.0316795e-08
7.8730802e-09
3.9756138e-08
6.493635e-09
3.9122879e-08
5.0328359e-09
3.8415534e-08
3.4847216e-09
3.7632823e-08
3.6773637e-08
4.3099727e-08
2.3957366e-08
4.2152965e-08
2.49283e-08
4.122463e-08
2.587603e-08
4.0314253e-08
2.6800553e-08
3.9421318e-08
2.7701783e-08
3.8545263e-08
2.8579597e-08
3.7685489e-08
2.9433823e-08
3.6841351e-08
3.0264246e-08
3.6012162e-08
3.1070602e-08
3.5197181e-08
3.1852577e-08
3.4395614e-08
3.2609809e-08
3.3606604e-08
3.3341886e-08
3.2829235e-08
3.4048347e-08
3.2062516e-08
3.4728676e-08
3.1305383e-08
3.5382309e-08
3.0556696e-08
3.6008627e-08
2.9815234e-08
3.6606959e-08
2.9079705e-08
3.7176581e-08
2.8348749e-08
3.7716702e-08
2.7620932e-08
3.8226458e-08
2.6894718e-08
3.8704884e-08
2.6168444e-08
3.915091e-08
2.5440299e-08
3.9563363e-08
2.4708321e-08
3.9940967e-08
2.3970387e-08
4.0282348e-08
2.3224209e-08
4.0586028e-08
2.246732e-08
4.0850419e-08
2.169705e-08
4.1073813e-08
2.0910548e-08
4.1254362e-08
2.0104975e-08
4.139013e-08
1.9277763e-08
4.1479163e-08
1.8426135e-08
4.151967e-08
1.7545645e-08
4.1510459e-08
1.663148e-08
4.1450732e-08
1.56796e-08
4.1336979e-08
1.4685947e-08
4.1166086e-08
1.3646121e-08
4.0935737e-08
1.2555462e-08
4.0643882e-08
1.1409084e-08
4.0288537e-08
1.020189e-08
3.9867749e-08
8.9285733e-09
3.937964e-08
7.5836451e-09
3.8822436e-08
6.1614565e-09
3.8194506e-08
4.6562373e-09
3.7494394e-08
3.0621273e-09
3.6720846e-08
3.5872766e-08
4.310465e-08
2.3708377e-08
4.2164994e-08
2.4633005e-08
4.1243405e-08
2.553503e-08
4.0339389e-08
2.6414481e-08
3.9452411e-08
2.7271324e-08
3.8581895e-08
2.8105474e-08
3.7727218e-08
2.8916801e-08
3.6887718e-08
2.9705124e-08
3.606268e-08
3.0470219e-08
3.5251341e-08
3.1211809e-08
3.445288e-08
3.1929572e-08
3.3666417e-08
3.2623135e-08
3.2891009e-08
3.3292075e-08
3.2125644e-08
3.3935918e-08
3.1369234e-08
3.4554139e-08
3.0620619e-08
3.5146156e-08
2.9878555e-08
3.571133e-08
2.914172e-08
3.6248964e-08
2.8408708e-08
3.6758293e-08
2.7678022e-08
3.7238472e-08
2.6948057e-08
3.7688571e-08
2.6217084e-08
3.8107563e-08
2.5483234e-08
3.8494324e-08
2.4744488e-08
3.884763e-08
2.3998666e-08
3.9166156e-08
2.3243419e-08
3.9448464e-08
2.2476199e-08
3.9692998e-08
2.1694263e-08
3.9898048e-08
2.0894723e-08
4.0061752e-08
2.0074831e-08
4.0182091e-08
1.9232333e-08
4.0256944e-08
1.8364978e-08
4.0284482e-08
1.7468217e-08
4.0264551e-08
1.6535446e-08
4.0197573e-08
1.5562472e-08
4.0078691e-08
1.4545883e-08
3.9903813e-08
1.3481652e-08
3.9670837e-08
1.2365204e-08
3.9378044e-08
1.1191652e-08
3.9023617e-08
9.9558928e-09
3.8605693e-08
8.6526302e-09
3.8122443e-08
7.2764066e-09
3.7572128e-08
5.8216302e-09
3.6953141e-08
4.2826081e-09
3.6264051e-08
2.6535795e-09
3.5503626e-08
3.4670777e-08
4.2936854e-08
2.3173431e-08
4.2006406e-08
2.4052535e-08
4.1093664e-08
2.4909698e-08
4.0198112e-08
2.5744957e-08
3.9319197e-08
2.6558323e-08
3.8456324e-08
2.7349749e-08
3.7608854e-08
2.8119144e-08
3.6776105e-08
2.8866362e-08
3.5957345e-08
2.9591216e-08
3.5151792e-08
3.0293468e-08
3.435861e-08
3.0972834e-08
3.3576902e-08
3.1628978e-08
3.2805706e-08
3.2261517e-08
3.2043994e-08
3.2870018e-08
3.1290665e-08
3.3453991e-08
3.0544539e-08
3.4012892e-08
2.9804356e-08
3.454612e-08
2.9068771e-08
3.5053009e-08
2.8336347e-08
3.5532824e-08
2.7605546e-08
3.5984755e-08
2.6874723e-08
3.6407909e-08
2.6142101e-08
3.6801302e-08
2.5405772e-08
3.7163859e-08
2.4663668e-08
3.7494409e-08
2.3913559e-08
3.7791684e-08
2.3153019e-08
3.805431e-08
2.237941e-08
3.8280799e-08
2.1589874e-08
3.8469528e-08
2.0781451e-08
3.8618737e-08
1.9951415e-08
3.8726484e-08
1.9097986e-08
3.8790329e-08
1.8220577e-08
3.8807493e-08
1.7316328e-08
3.8778072e-08
1.6370945e-08
3.8706361e-08
1.5382151e-08
3.8583867e-08
1.4348492e-08
3.8406238e-08
1.326642e-08
3.8172269e-08
1.2131315e-08
3.7880624e-08
1.0938201e-08
3.7529514e-08
9.6819142e-09
3.7117078e-08
8.3571495e-09
3.6641481e-08
6.9584765e-09
3.6100989e-08
5.4803602e-09
3.5494005e-08
3.9171876e-09
3.4819112e-08
2.2632995e-09
3.4075091e-08
3.3260861e-08
4.2615799e-08
2.2428025e-08
4.1696484e-08
2.3262759e-08
4.0794526e-08
2.4076208e-08
3.9909385e-08
2.486847e-08
3.9040484e-08
2.5639584e-08
3.8187209e-08
2.6389539e-08
3.7348907e-08
2.7118275e-08
3.6524881e-08
2.7825683e-08
3.5714387e-08
2.8511611e-08
3.4916632e-08
2.9175856e-08
3.4130766e-08
2.981817e-08
3.3355883e-08
3.0438257e-08
3.2591011e-08
3.1035771e-08
3.1835112e-08
3.1610314e-08
3.1087075e-08
3.2161438e-08
3.0345711e-08
3.2688635e-08
2.9609747e-08
3.319134e-08
2.8877822e-08
3.3668922e-08
2.8148483e-08
3.4120684e-08
2.7420168e-08
3.4545852e-08
2.6691205e-08
3.4943571e-08
2.5959796e-08
3.5312905e-08
2.5224003e-08
3.5652824e-08
2.4481735e-08
3.5962216e-08
2.3730724e-08
3.6239873e-08
2.2968494e-08
3.6484509e-08
2.219233e-08
3.6694756e-08
2.139925e-08
3.6869205e-08
2.0586085e-08
3.7006462e-08
1.9749722e-08
3.7105257e-08
1.888793e-08
3.7164005e-08
1.8002705e-08
3.7179199e-08
1.7104614e-08
3.7143558e-08
1.6149747e-08
3.7067517e-08
1.5148929e-08
3.6936719e-08
1.4103604e-08
3.6754396e-08
1.3009909e-08
3.6519869e-08
1.1862842e-08
3.6230888e-08
1.06572e-08
3.5885108e-08
9.3877358e-09
3.5480402e-08
8.0491368e-09
3.5014834e-08
6.6360151e-09
3.4486626e-08
5.1429034e-09
3.3894176e-08
3.5642752e-09
3.3236072e-08
1.894572e-09
3.2511104e-08
3.1718188e-08
4.3084466e-08
2.0721607e-08
4.2160561e-08
2.1534127e-08
4.1254186e-08
2.2325859e-08
4.0364803e-08
2.3097016e-08
3.9491853e-08
2.3847721e-08
3.8634744e-08
2.4578045e-08
3.779285e-08
2.5288006e-08
3.6965508e-08
2.5977577e-08
3.6152009e-08
2.6646682e-08
3.5351602e-08
2.72952e-08
3.4563486e-08
2.7922964e-08
3.3786807e-08
2.852976e-08
3.3020652e-08
2.9115327e-08
3.2264046e-08
2.9679357e-08
3.1515945e-08
3.0221489e-08
3.0775236e-08
3.074131e-08
3.0040723e-08
3.1238351e-08
2.9311131e-08
3.1712083e-08
2.8585091e-08
3.2161913e-08
2.7861139e-08
3.258718e-08
2.7137706e-08
3.2987149e-08
2.6413109e-08
3.3361007e-08
2.5685538e-08
3.3707858e-08
2.4953049e-08
3.4026722e-08
2.4213549e-08
3.4316533e-08
2.3464774e-08
3.4576146e-08
2.2704269e-08
3.4804345e-08
2.1929351e-08
3.499989e-08
2.11371e-08
3.5161592e-08
2.0324443e-08
3.5288466e-08
1.9488421e-08
3.5380098e-08
1.8625583e-08
3.5438602e-08
1.7732832e-08
3.5472422e-08
1.6834184e-08
3.5479453e-08
1.5871194e-08
3.5353682e-08
1.4867068e-08
3.5197611e-08
1.3818257e-08
3.5009178e-08
1.2720028e-08
3.477577e-08
1.1567654e-08
3.4491428e-08
1.0356074e-08
3.4153007e-08
9.0801292e-09
3.3758081e-08
7.7346039e-09
3.3304583e-08
6.3142048e-09
3.27907e-08
4.8135583e-09
3.221483e-08
3.2272367e-09
3.1575571e-08
1.5497907e-09
3.087172e-08
3.0102196e-08
4.2498617e-08
1.9771475e-08
4.1589597e-08
2.0541836e-08
4.0697753e-08
2.1292135e-08
3.982253e-08
2.2022586e-08
3.8963357e-08
2.2733336e-08
3.811963e-08
2.3424484e-08
3.7290713e-08
2.4096077e-08
3.6475933e-08
2.4748115e-08
3.5674579e-08
2.5380555e-08
3.4885895e-08
2.5993306e-08
3.4109076e-08
2.6586232e-08
3.3343267e-08
2.7159154e-08
3.2587554e-08
2.7711844e-08
3.1840964e-08
2.8244028e-08
3.1102453e-08
2.8755381e-08
3.0370908e-08
2.9245525e-08
2.9645136e-08
2.9714027e-08
2.8923862e-08
3.0160396e-08
2.8205717e-08
3.0584076e-08
2.7489237e-08
3.0984442e-08
2.6772852e-08
3.13608e-08
2.6054878e-08
3.1712375e-08
2.5333506e-08
3.2038313e-08
2.4606802e-08
3.2337674e-08
2.3872688e-08
3.2609432e-08
2.3128946e-08
3.2852477e-08
2.2373223e-08
3.3065614e-08
2.1603079e-08
3.3247585e-08
2.0816152e-08
3.3397061e-08
2.0010458e-08
3.3512636e-08
1.9184769e-08
3.3592689e-08
1.8338987e-08
3.3634586e-08
1.746942e-08
3.3627833e-08
1.6469544e-08
3.3556657e-08
1.5528425e-08
3.3504089e-08
1.4539755e-08
3.3385357e-08
1.3498733e-08
3.3210662e-08
1.240408e-08
3.298604e-08
1.1252941e-08
3.2710417e-08
1.0041418e-08
3.2381971e-08
8.7649501e-09
3.1998826e-08
7.4186143e-09
3.1559154e-08
5.9972836e-09
3.1061248e-08
4.4957115e-09
3.0503557e-08
2.9085721e-09
2.9884713e-08
1.2305209e-09
2.9203529e-08
2.8458917e-08
4.1812983e-08
1.8761228e-08
4.0920235e-08
1.9491071e-08
4.0044302e-08
2.0201611e-08
3.9184624e-08
2.089304e-08
3.8340614e-08
2.1565531e-08
3.751166e-08
2.2219207e-08
3.6697119e-08
2.2854141e-08
3.5896313e-08
2.347036e-08
3.5108528e-08
2.4067847e-08
3.4333007e-08
2.4646539e-08
3.3568948e-08
2.5206333e-08
3.2815497e-08
2.5747078e-08
3.2071744e-08
2.6268579e-08
3.1336719e-08
2.6770593e-08
3.0609385e-08
2.725283e-08
2.9888634e-08
2.7714947e-08
2.917328e-08
2.8156545e-08
2.8462052e-08
2.8577169e-08
2.775359e-08
2.8976299e-08
2.7046434e-08
2.9353348e-08
2.6339019e-08
2.970766e-08
2.5629667e-08
3.00385e-08
2.491658e-08
3.034505e-08
2.4197832e-08
3.0626412e-08
2.3471365e-08
3.0881592e-08
2.2734991e-08
3.1109505e-08
2.1986406e-08
3.1308965e-08
2.1223236e-08
3.1478665e-08
2.0443099e-08
3.1617152e-08
1.9643587e-08
3.1722732e-08
1.8821805e-08
3.1793181e-08
1.7972956e-08
3.1824281e-08
1.7082295e-08
3.1809919e-08
1.6155969e-08
3.1755736e-08
1.5194762e-08
3.1682556e-08
1.4202383e-08
3.1571352e-08
1.3163679e-08
3.1407727e-08
1.2073139e-08
3.1192746e-08
1.092645e-08
3.0927233e-08
9.7193354e-09
3.0610205e-08
8.4472414e-09
3.0240204e-08
7.105341e-09
2.9815639e-08
5.6886139e-09
2.9334927e-08
4.1919058e-09
2.8796587e-08
2.6099879e-09
2.8199286e-08
9.376116e-10
2.7541857e-08
2.6823208e-08
4.104379e-08
1.7722034e-08
4.0168479e-08
1.8413122e-08
3.9309643e-08
1.9085612e-08
3.8466698e-08
1.9739749e-08
3.7639044e-08
2.0375721e-08
3.682606e-08
2.099367e-08
3.6027099e-08
2.159369e-08
3.5241483e-08
2.2175832e-08
3.4468497e-08
2.2740102e-08
3.3707387e-08
2.3286465e-08
3.2957354e-08
2.3814844e-08
3.221755e-08
2.4325116e-08
3.1487073e-08
2.4817116e-08
3.0764961e-08
2.5290633e-08
3.0050185e-08
2.5745407e-08
2.9341648e-08
2.6181128e-08
2.8638174e-08
2.6597431e-08
2.7938502e-08
2.6993896e-08
2.7241283e-08
2.7370038e-08
2.6545067e-08
2.7725307e-08
2.5848302e-08
2.8059084e-08
2.514932e-08
2.8370672e-08
2.4446334e-08
2.8659295e-08
2.3737428e-08
2.892409e-08
2.3020554e-08
2.9164105e-08
2.2293525e-08
2.9378287e-08
2.1554017e-08
2.956548e-08
2.0799563e-08
2.9724404e-08
2.0027508e-08
2.9853627e-08
1.9234848e-08
2.9951499e-08
1.8417739e-08
3.0015991e-08
1.7570087e-08
3.0044666e-08
1.668536e-08
3.0037009e-08
1.5794322e-08
2.9995886e-08
1.4843437e-08
2.9906588e-08
1.3852747e-08
2.979257e-08
1.2817781e-08
2.9634349e-08
1.1733081e-08
2.9427389e-08
1.0593621e-08
2.9171754e-08
9.394532e-09
2.8866551e-08
8.1309725e-09
2.8510385e-08
6.7980335e-09
2.8101716e-08
5.3907123e-09
2.7639003e-08
3.9039243e-09
2.7120788e-08
2.3325047e-09
2.6545771e-08
6.7127717e-10
2.5912794e-08
2.5220745e-08
4.107924e-08
1.6005695e-08
4.0205732e-08
1.667794e-08
3.934891e-08
1.7331993e-08
3.8508189e-08
1.7968193e-08
3.7682985e-08
1.8586792e-08
3.6872693e-08
1.9187998e-08
3.607669e-08
1.9771969e-08
3.5294326e-08
2.0338818e-08
3.4524926e-08
2.0888617e-08
3.3767778e-08
2.1421394e-08
3.3022134e-08
2.1937138e-08
3.2287201e-08
2.2435795e-08
3.1562141e-08
2.291727e-08
3.084606e-08
2.3381426e-08
3.0138008e-08
2.3828078e-08
2.943697e-08
2.4256998e-08
2.874186e-08
2.4667906e-08
2.8051516e-08
2.506047e-08
2.7364694e-08
2.5434302e-08
2.6680057e-08
2.5788952e-08
2.5996172e-08
2.6123907e-08
2.5311501e-08
2.6438583e-08
2.4624392e-08
2.6732321e-08
2.3933073e-08
2.7004385e-08
2.3235642e-08
2.7253954e-08
2.253006e-08
2.7480115e-08
2.181414e-08
2.7681865e-08
2.1085539e-08
2.7858097e-08
2.0341729e-08
2.8007599e-08
1.9579938e-08
2.8129036e-08
1.8796991e-08
2.8220945e-08
1.7989033e-08
2.8281734e-08
1.7151422e-08
2.8310022e-08
1.6282192e-08
2.8305334e-08
1.5391798e-08
2.8264382e-08
1.4470061e-08
2.8172695e-08
1.3488584e-08
2.8066421e-08
1.2461554e-08
2.7911582e-08
1.1386391e-08
2.7710949e-08
1.0257702e-08
2.7464763e-08
9.0702636e-09
2.7171525e-08
7.8190413e-09
2.6829582e-08
6.4990656e-09
2.6437287e-08
5.1053557e-09
2.5993061e-08
3.6328799e-09
2.5495443e-08
2.0765453e-09
2.4943126e-08
4.3122752e-10
2.4334964e-08
2.3669817e-08
4.0166102e-08
1.5010829e-08
3.9312277e-08
1.564704e-08
3.8474765e-08
1.6265814e-08
3.7652984e-08
1.6867467e-08
3.6846343e-08