/*--------------------------------*- C++ -*----------------------------------*\
| =========                 |                                                 |
| \\      /  F ield         | OpenFOAM: The Open Source CFD Toolbox           |
|  \\    /   O peration     | Version:  2312                                  |
|   \\  /    A nd           | Website:  www.openfoam.com                      |
|    \\/     M anipulation  |                                                 |
\*---------------------------------------------------------------------------*/
FoamFile
{
    version     2.0;
    format      ascii;
    arch        "LSB;label=32;scalar=64";
    class       volScalarField;
    location    "0.01";
    object      Qdot;
}
// * * * * * * * * * * * * * * * * * * * * * * * * * * * * * * * * * * * * * //

dimensions      [1 -1 -3 0 0 0 0];

internalField   nonuniform List<scalar> 
3250
(
0.00082679703
0.00057865866
0.00040467238
0.00028279787
0.00019749095
0.0001378233
9.6116874e-05
6.6987304e-05
4.6654706e-05
3.2472488e-05
2.2587171e-05
1.5701363e-05
1.0907935e-05
7.573588e-06
5.2549772e-06
3.6448575e-06
2.526588e-06
1.7501134e-06
1.2122803e-06
8.3915865e-07
5.8021579e-07
4.016036e-07
2.7716549e-07
1.9197783e-07
1.3209249e-07
9.15765e-08
6.3304344e-08
4.3715088e-08
2.9612849e-08
2.0769736e-08
1.3819696e-08
9.8666708e-09
6.8687254e-09
4.1786583e-09
2.7188016e-09
2.2113273e-09
1.5184924e-09
5.4327751e-10
7.8699416e-10
4.8832617e-10
3.3352333e-10
2.2731645e-10
-2.705073e-10
-3.2027103e-10
0.0010236052
0.00071636749
0.00050098237
0.0003501189
0.00024452398
0.00017066322
0.00011903521
8.2971969e-05
5.7798231e-05
4.0236829e-05
2.7994018e-05
1.9464572e-05
1.3525625e-05
9.3940479e-06
6.5208008e-06
4.5239119e-06
3.1370308e-06
2.1737821e-06
1.506306e-06
1.0430336e-06
7.2150167e-07
4.9916664e-07
3.4513433e-07
2.3893178e-07
1.6515256e-07
1.1369194e-07
7.8327569e-08
5.4005852e-08
3.7148135e-08
2.5502429e-08
1.7454276e-08
1.1826833e-08
8.4926642e-09
5.3491022e-09
4.0968027e-09
2.8394784e-09
1.4015803e-09
1.3034802e-09
9.6658275e-10
6.1142007e-10
4.9088216e-10
-2.137073e-10
-3.048068e-10
2.0457382e-10
0.001518365
0.001062786
0.00074339512
0.00051966038
0.0003630358
0.00025346043
0.00017685088
0.00012332201
8.5944238e-05
5.9859612e-05
4.1667589e-05
2.8987626e-05
2.0155327e-05
1.4007138e-05
9.7286024e-06
6.7544534e-06
4.6864903e-06
3.250444e-06
2.2538528e-06
1.5619802e-06
1.081568e-06
7.4941043e-07
5.1823935e-07
3.5904377e-07
2.4833521e-07
1.7173592e-07
1.1829814e-07
8.211971e-08
5.6178401e-08
3.8636692e-08
2.7013165e-08
1.8136253e-08
1.242298e-08
8.9250112e-09
6.1677084e-09
3.6938129e-09
2.9539876e-09
1.5519172e-09
9.3020237e-10
9.2768654e-10
1.3537826e-10
-6.6398532e-11
2.9375924e-10
-2.2599815e-10
0.0026046028
0.0018239097
0.0012764149
0.00089274449
0.00062403968
0.0004359638
0.00030439731
0.00021241625
0.000148147
0.00010326658
7.1943907e-05
5.0095354e-05
3.4864027e-05
2.4252173e-05
1.6862037e-05
1.171794e-05
8.14025e-06
5.6523046e-06
3.9231808e-06
2.7220474e-06
1.8878528e-06
1.308942e-06
9.0720997e-07
6.2848463e-07
4.3535416e-07
3.0086333e-07
2.0807976e-07
1.4429909e-07
9.9789998e-08
6.8551088e-08
4.7158397e-08
3.2979273e-08
2.2780983e-08
1.5731127e-08
1.0289427e-08
7.425249e-09
5.1050045e-09
3.0068824e-09
2.4034653e-09
1.1468994e-09
6.987108e-10
2.6754195e-10
5.2061015e-10
4.2597879e-10
0.0049871612
0.0034951241
0.00244806
0.0017137471
0.0011990571
0.00083849971
0.00058605469
0.0004094002
0.00028584712
0.0001994802
0.00013913876
9.700284e-05
6.7594493e-05
4.708072e-05
3.2777239e-05
2.2809887e-05
1.5867648e-05
1.1033791e-05
7.669059e-06
5.3285729e-06
3.7014108e-06
2.5700308e-06
1.7832298e-06
1.2375832e-06
8.5840579e-07
5.9515816e-07
4.1198334e-07
2.8576672e-07
1.9732371e-07
1.3641652e-07
9.4693693e-08
6.5027595e-08
4.4783302e-08
3.1200588e-08
2.1585662e-08
1.4889289e-08
9.692934e-09
6.9997955e-09
4.301345e-09
2.8604032e-09
1.8187992e-09
1.1034214e-09
1.0381733e-09
2.0419695e-10
0.010308212
0.007232853
0.0050722987
0.0035553245
0.0024907873
0.001744132
0.0012207006
0.00085394159
0.00059708856
0.00041729468
0.00029150461
0.00020353905
0.00014205467
9.9100441e-05
6.9105562e-05
4.817204e-05
3.3568604e-05
2.3383198e-05
1.6281799e-05
1.1332344e-05
7.8838054e-06
5.4832339e-06
3.8118935e-06
2.6485156e-06
1.8400496e-06
1.2771318e-06
8.8671786e-07
6.1469794e-07
4.2656767e-07
2.9560431e-07
2.0471836e-07
1.4117876e-07
9.7402263e-08
6.7694021e-08
4.6157239e-08
3.1651141e-08
2.2121836e-08
1.5197008e-08
9.9217432e-09
7.1294074e-09
4.9403884e-09
2.8876036e-09
2.2475093e-09
1.5189701e-09
0.022315908
0.015682799
0.011015682
0.007733705
0.005426961
0.0038064658
0.0026686135
0.0018700352
0.0013098339
0.00091703679
0.00064174705
0.0004489002
0.00031386856
0.0002193631
0.00015325296
0.00010703525
7.4755774e-05
5.2176844e-05
3.6397992e-05
2.5378925e-05
1.7687588e-05
1.2322594e-05
8.5809494e-06
5.972882e-06
4.1557158e-06
2.8899265e-06
2.0086962e-06
1.3953991e-06
9.6880754e-07
6.7212302e-07
4.6592764e-07
3.2223499e-07
2.2339763e-07
1.5436329e-07
1.0656161e-07
7.2958752e-08
5.0054939e-08
3.422785e-08
2.3803719e-08
1.6277304e-08
1.0602197e-08
7.5481504e-09
5.1135001e-09
3.5228489e-09
0.049291159
0.03470571
0.024423795
0.017179929
0.012079
0.0084887705
0.0059629952
0.0041868869
0.0029385019
0.0020614357
0.0014455183
0.0010131839
0.00070984728
0.00049710824
0.00034796709
0.00024343799
0.00017016167
0.00011891606
8.3076608e-05
5.8017363e-05
4.0501029e-05
2.8261442e-05
1.9711523e-05
1.3742546e-05
9.576126e-06
6.6693453e-06
4.6418022e-06
3.2292758e-06
2.2447131e-06
1.5591113e-06
1.0819386e-06
7.500513e-07
5.1938947e-07
3.5920914e-07
2.4807055e-07
1.710388e-07
1.1770942e-07
8.0837262e-08
5.538412e-08
3.7345293e-08
2.5780332e-08
1.7576255e-08
1.1414367e-08
7.4723511e-09
0.1084769
0.07652207
0.053956451
0.038028648
0.026791044
0.018865976
0.013279433
0.0093430822
0.0065706888
0.0046189324
0.003245505
0.0022794636
0.0016002653
0.0011229442
0.00078763807
0.00055218931
0.00038693115
0.00027101851
0.00018974994
0.00013279318
9.2890923e-05
6.4947721e-05
4.538739e-05
3.170089e-05
2.212945e-05
1.5438161e-05
1.0762851e-05
7.4977116e-06
5.218836e-06
3.6287731e-06
2.5211492e-06
1.7492526e-06
1.2121514e-06
8.388117e-07
5.7947583e-07
3.9958211e-07
2.7446613e-07
1.8877237e-07
1.292619e-07
8.8182692e-08
5.9492937e-08
4.0731989e-08
2.7518034e-08
1.8506145e-08
0.4673548
0.33074442
0.23398323
0.16546328
0.11696136
0.082642828
0.05836895
0.041206741
0.029077811
0.020509747
0.014459807
0.010189829
0.0071774832
0.0050533212
0.0035561421
0.0025013601
0.0017585912
0.0012357758
0.00086795302
0.00060930504
0.00042751861
0.00029981334
0.0002101429
0.00014720923
0.00010306156
7.210732e-05
5.0415567e-05
3.522266e-05
2.4589096e-05
1.7150417e-05
1.1950355e-05
8.3179714e-06
5.7828153e-06
4.0149476e-06
2.7833661e-06
1.925849e-06
1.3307906e-06
9.1740458e-07
6.3037996e-07
4.3273583e-07
2.9595195e-07
2.0173897e-07
1.370125e-07
9.2172634e-08
6.239799e-08
4.1871211e-08
0.97114564
0.68924802
0.48897096
0.34673267
0.24575795
0.17410752
0.12328954
0.087263465
0.061735398
0.04365455
0.030854325
0.021796742
0.015390536
0.010861752
0.0076617335
0.0054017146
0.0038063557
0.0026807411
0.001886959
0.0013274747
0.00093334013
0.00065583522
0.00046055361
0.00032320838
0.00022666536
0.00015884262
0.00011122495
7.7815945e-05
5.4391022e-05
3.7978713e-05
2.6488939e-05
1.8452338e-05
1.2836579e-05
8.9164643e-06
6.1829689e-06
4.2793937e-06
2.9557453e-06
2.0366417e-06
1.3992943e-06
9.5869609e-07
6.5519201e-07
4.4593209e-07
3.0236931e-07
2.0351814e-07
1.3651006e-07
9.1584564e-08
1.9307725
1.3743121
0.97778359
0.69532233
0.49421358
0.35109693
0.24929995
0.17692877
0.12550286
0.088978504
0.063050726
0.044654532
0.031608803
0.02236217
0.015811718
0.011173739
0.0078916334
0.0055702876
0.0039293723
0.0027700969
0.0019515661
0.0013739681
0.0009666313
0.00067954802
0.00047734651
0.00033502707
0.0002349249
0.00016457069
0.00011516226
8.0493397e-05
5.6189389e-05
3.9168767e-05
2.7262232e-05
1.8942598e-05
1.3136491e-05
9.0917528e-06
6.2774835e-06
4.3231216e-06
2.9687426e-06
2.0322936e-06
1.3863272e-06
9.4194319e-07
6.3736034e-07
4.2918657e-07
2.8741064e-07
1.9139694e-07
3.6432236
2.6010687
1.8561333
1.3238372
0.94368316
0.67233037
0.47874288
0.34070822
0.2423376
0.17227161
0.12239336
0.086905905
0.061671393
0.043737755
0.03100003
0.021958093
0.015543438
0.010995412
0.0077728232
0.0054908334
0.0038759467
0.0027339041
0.0019268063
0.0013568221
0.00095458655
0.00067094831
0.00047110081
0.00033041102
0.00023145719
0.00016192521
0.00011311944
7.8899554e-05
5.4937838e-05
3.8180571e-05
2.6478799e-05
1.8321744e-05
1.26452e-05
8.7024465e-06
5.9710593e-06
4.0827376e-06
2.7810467e-06
1.8865528e-06
1.2737859e-06
8.5529808e-07
5.7171522e-07
3.7962835e-07
6.4888578
4.6471545
3.3264608
2.3797182
1.7014263
1.215747
0.86818668
0.61961192
0.44193627
0.3150133
0.2244002
0.15974892
0.11364958
0.080799206
0.057404946
0.040755591
0.028914292
0.020498212
0.014520672
0.01027809
0.0072690703
0.0051365292
0.0036263201
0.0025576812
0.0018021267
0.0012683935
0.00089170106
0.00062609906
0.00043901744
0.00030738698
0.00021488087
0.0001499535
0.0001044462
7.2598297e-05
5.0346392e-05
3.4827453e-05
2.4025902e-05
1.6524196e-05
1.1326929e-05
7.7359586e-06
5.2620477e-06
3.5634636e-06
2.4015116e-06
1.6091827e-06
1.0726662e-06
7.1023693e-07
10.868359
7.8085479
5.6070416
4.0236644
2.8855562
2.0680176
1.4811274
1.0600839
0.75821694
0.5419354
0.38707695
0.2762723
0.19704324
0.14043107
0.10000802
0.071165265
0.050600346
0.035948467
0.025517408
0.018097064
0.012822691
0.0090767729
0.0064186564
0.0045341228
0.0031992749
0.0022546945
0.0015869602
0.0011154389
0.00078285416
0.00054855245
0.00038370534
0.00026788874
0.00018664456
0.00012974669
8.9971674e-05
6.2222191e-05
4.2904449e-05
2.9488799e-05
2.0196057e-05
1.3777645e-05
9.3594447e-06
6.3282504e-06
4.2568782e-06
2.8474573e-06
1.8929376e-06
1.2501157e-06
17.077926
12.310066
8.8678191
6.3836844
4.5921741
3.3010633
2.3712305
1.7020546
1.2208099
0.87496783
0.62661363
0.4483994
0.32061274
0.22905488
0.16350572
0.11661425
0.083096946
0.059159087
0.042077253
0.029898373
0.021222897
0.015048696
0.010658784
0.007540591
0.0053279819
0.003759642
0.0026492249
0.0018639618
0.0013093389
0.00091814028
0.00064260782
0.00044884331
0.00031280834
0.00021747567
0.00015079922
0.00010426547
7.1865546e-05
4.9364604e-05
3.3781771e-05
2.3023244e-05
1.5621031e-05
1.0547299e-05
7.0831742e-06
4.7291575e-06
3.1375056e-06
2.066876e-06
25.140189
18.182131
13.140558
9.4897013
6.8478511
4.9375805
3.557354
2.5608703
1.8420015
1.3238178
0.9505957
0.68200236
0.48886704
0.35010812
0.2505019
0.1790635
0.12787304
0.091225022
0.065012609
0.046282148
0.03291116
0.023375753
0.016582763
0.011748704
0.0083125455
0.0058729236
0.0041429666
0.0029178349
0.0020514068
0.0014395539
0.0010081526
0.00070449507
0.00049113783
0.00034151145
0.0002368089
0.00016371059
0.00011280412
7.7448715e-05
5.2966776e-05
3.6069681e-05
2.444891e-05
1.6488272e-05
1.1058327e-05
7.3717599e-06
4.8819223e-06
3.2101264e-06
34.647292
25.143073
18.231299
13.208574
9.5615105
6.9154906
4.9973433
3.6080187
2.6025874
1.875608
1.3504297
0.97137621
0.69804009
0.50112007
0.35938669
0.25747208
0.18426133
0.13172271
0.094057689
0.067083856
0.047787291
0.03399817
0.024155864
0.017138999
0.012142618
0.0085894909
0.0060661076
0.0042765615
0.0030093306
0.002113386
0.0014810164
0.0010354942
0.00072221372
0.0005022896
0.00034832954
0.00024080258
0.00016589915
0.00011386977
7.7841681e-05
5.2978715e-05
3.5884302e-05
2.4179337e-05
1.6200407e-05
1.0787175e-05
7.1347464e-06
4.6846914e-06
61.334508
44.696147
32.546388
23.678374
17.211026
12.498565
9.0678638
6.5725547
4.759275
3.4428464
2.4880407
1.7961917
1.2953741
0.93320365
0.67156343
0.48274394
0.34662074
0.2485923
0.17807471
0.12740387
0.091035565
0.064963259
0.046294595
0.03294376
0.023408188
0.016606643
0.01176194
0.008316068
0.0058688511
0.0041336417
0.0029053697
0.0020375152
0.0014255495
0.00099505205
0.00069209278
0.0004800593
0.00033191978
0.00022868622
0.00015695727
0.00010727888
7.299409e-05
4.9422919e-05
3.3285769e-05
2.228854e-05
1.4830787e-05
9.801239e-06
6.4295222e-06
73.821306
53.98742
39.448269
28.796731
21.00044
15.299462
11.134712
8.0952313
5.8792157
4.2652233
3.0909262
2.237443
1.6177947
1.1684066
0.84285749
0.60728617
0.43701893
0.31409572
0.22545741
0.16161881
0.11569813
0.082708059
0.059038288
0.042078347
0.029942901
0.021271937
0.015085573
0.010678674
0.0075444564
0.0053191586
0.0037420247
0.0026263778
0.0018387186
0.0012835442
0.00089374304
0.00062028159
0.00042904653
0.0002956978
0.00020299856
0.00013877078
9.4430198e-05
6.393891e-05
4.3060543e-05
2.8830477e-05
1.9181147e-05
1.2672934e-05
8.3107664e-06
83.254391
61.104536
44.80395
32.817402
24.0119
17.549913
12.812716
9.3436599
6.8060371
4.9518217
3.5984953
2.6118837
1.8934554
1.3709308
0.99134663
0.71593658
0.51635824
0.37191401
0.26750676
0.19213747
0.13780242
0.098684579
0.070561396
0.050371558
0.035898454
0.025539153
0.018136019
0.012854114
0.009092062
0.0064173072
0.0045191601
0.0031747706
0.0022245126
0.001554339
0.0010830286
0.00075219537
0.00052063753
0.00035904324
0.00024662717
0.00016868691
0.00011484594
7.780042e-05
5.2420549e-05
3.5113519e-05
2.3371143e-05
1.544813e-05
1.0134675e-05
88.088619
64.882735
47.73897
35.085714
25.756591
18.885858
13.831387
10.117339
7.3914511
5.3932106
3.930166
2.8603009
2.078936
1.5090026
1.0938271
0.79178422
0.57233884
0.41311926
0.29775553
0.2142847
0.15397578
0.11046493
0.079119906
0.0565734
0.040380974
0.028770591
0.02045945
0.014520242
0.010283606
0.0072670907
0.0051234788
0.0036032657
0.0025274764
0.0017680586
0.0012330879
0.00085723425
0.00059390681
0.00040996118
0.00028187177
0.00019297881
0.00013151359
8.9181211e-05
6.0150863e-05
4.0334522e-05
2.6876378e-05
1.7785538e-05
1.1681481e-05
118.36521
87.580023
64.736079
47.795314
35.245531
25.959084
19.095428
14.028566
10.292741
7.5417694
5.518626
4.0326956
2.9427816
2.1444207
1.5604229
1.1338239
0.82264012
0.5959699
0.43109913
0.31135467
0.22451461
0.16163254
0.11616891
0.083350416
0.059697991
0.042679589
0.030455144
0.021689462
0.015415178
0.0109325
0.0077359968
0.0054611991
0.0038457237
0.0027010203
0.0018918404
0.0013211267
0.00091958869
0.00063792747
0.00044093125
0.00030358093
0.00020813872
0.00014205663
9.6481529e-05
6.518181e-05
4.3784096e-05
2.9227989e-05
1.9379016e-05
1.2753341e-05
110.41912
81.993031
60.817666
45.055292
33.335587
24.632185
18.176802
13.394912
9.8573288
7.2437856
5.3155659
3.8949512
2.8498003
2.0819872
1.5187427
1.106175
0.80442861
0.58407029
0.42339499
0.30642017
0.22139448
0.1596906
0.11498431
0.082646811
0.059295433
0.042462034
0.030348598
0.021647386
0.015408783
0.010944362
0.0077558677
0.0054833012
0.0038670067
0.0027200428
0.0019080594
0.0013347098
0.00093038793
0.00064647687
0.00044761195
0.00030874103
0.00021208301
0.00014504369
9.8723091e-05
6.6849402e-05
4.5013704e-05
3.0126714e-05
2.0029323e-05
1.3219029e-05
97.256778
72.471353
53.937617
40.091431
29.759594
22.059862
16.329194
12.069797
8.9083382
6.5651444
4.8309542
3.5493876
2.6037369
1.9070209
1.3945053
1.018082
0.74205229
0.5399658
0.3922547
0.28446548
0.2059391
0.14882741
0.10736124
0.077306588
0.055561218
0.039855932
0.028533648
0.020386329
0.014534808
0.01034036
0.0073397598
0.0051976544
0.0036717022
0.0025870925
0.0018179285
0.001273568
0.0008897728
0.00061953355
0.00042988002
0.00029718708
0.00020464294
0.00014031907
9.5772804e-05
6.5043736e-05
4.3936596e-05
2.9504302e-05
1.9685329e-05
1.3040778e-05
81.134955
60.658835
45.29346
33.774675
25.149946
18.700544
13.88438
10.292941
7.6186924
5.6303844
4.1543402
3.0602938
2.2506738
1.6525029
1.2112791
0.88636136
0.64749168
0.47217861
0.343731
0.2497827
0.18118716
0.13119072
0.094815104
0.068397035
0.049245597
0.0353876
0.025378704
0.018163562
0.012972445
0.0092449537
0.006573843
0.004663709
0.0033006745
0.0023301783
0.0016407375
0.0011521685
0.00080657628
0.00056294473
0.00039161748
0.00027147932
0.00018749174
0.00012896591
8.8322783e-05
6.0202636e-05
4.0824493e-05
2.7528149e-05
1.84477e-05
1.2277335e-05
85.655991
64.318287
48.240921
36.134485
27.028391
20.187614
15.055483
11.210654
8.3344675
6.1861662
4.5840574
3.3911934
2.5044917
1.8464715
1.3589823
0.99844888
0.732271
0.5360991
0.39177692
0.28578952
0.20809434
0.15124226
0.1097177
0.079444123
0.057414064
0.041412833
0.029812538
0.02141884
0.015357113
0.010988068
0.0078453117
0.0055892343
0.0039730191
0.0028176287
0.0019934396
0.0014067827
0.00099017024
0.00069504783
0.00048645599
0.00033941634
0.00023604725
0.00016358448
0.00011293991
7.7657132e-05
5.3160159e-05
3.6215127e-05
2.4540384e-05
1.653133e-05
1.1062883e-05
64.567304
48.633805
36.588625
27.488772
20.622216
15.447555
11.553276
8.62683
6.4310309
4.7860614
3.5557512
2.6371132
1.9523641
1.442843
1.0643786
0.78376421
0.57607759
0.42264652
0.3095061
0.22623078
0.1650516
0.12018997
0.087355797
0.0633701
0.045881731
0.03315513
0.023911623
0.017210975
0.012363155
0.0088627463
0.0063402767
0.0045261875
0.0032242002
0.0022916772
0.0016251562
0.0011497354
0.00081143962
0.00057124885
0.00040106228
0.00028077833
0.00019597839
0.00013635103
9.4537889e-05
6.5302396e-05
4.4923702e-05
3.076614e-05
2.0965718e-05
1.4208695e-05
9.5690605e-06
46.618669
35.216688
26.570849
20.019173
15.060497
11.312467
8.4834992
6.3514136
4.7470577
3.5417775
2.6378313
1.9610566
1.4552607
1.0779306
0.79695386
0.58811482
0.43318433
0.3184644
0.23368084
0.17114191
0.12510022
0.091269536
0.06645955
0.048300372
0.035035049
0.025363634
0.018326253
0.013215564
0.0095113699
0.0068318825
0.0048974603
0.003503695
0.0025014744
0.001782244
0.0012671296
0.00089886275
0.00063631461
0.00044937488
0.00031657983
0.00022245911
0.00015590027
0.00010894237
7.5893324e-05
5.2692802e-05
3.6449617e-05
2.5111292e-05
1.7221379e-05
1.1750108e-05
7.9700407e-06
32.374168
24.521938
18.551356
14.01423
10.570635
7.96052
5.9849871
4.4920297
3.3655746
2.5170727
1.8790474
1.4001453
1.0413385
0.77301185
0.57272923
0.42352255
0.31258201
0.23025498
0.16928172
0.12421277
0.090965667
0.066488188
0.048502974
0.035314312
0.025662187
0.018612272
0.013473189
0.009734399
0.0070196909
0.0050524133
0.003629554
0.0026024461
0.0018624457
0.0013303231
0.00094843508
0.00067508098
0.00047925433
0.00033958644
0.0002401202
0.00016941362
0.00011924947
8.3730554e-05
5.8633123e-05
4.0938549e-05
2.8491279e-05
1.9756678e-05
1.3644303e-05
9.3796619e-06
6.4121223e-06
21.713809
16.487849
12.504326
9.4694344
7.1600547
5.4051092
4.0734179
3.064461
2.3012719
1.7249718
1.2905683
0.96372325
0.71826715
0.53428644
0.39665315
0.29389499
0.21732789
0.16039088
0.11813679
0.086842717
0.063712863
0.046651983
0.034093153
0.02486704
0.018102877
0.013153618
0.0095394932
0.0069055272
0.0049896423
0.0035987604
0.0025909412
0.001862059
0.0013358898
0.00095674626
0.0006840202
0.00048837099
0.00034791976
0.00024742881
0.00017565099
0.00012446564
8.802552e-05
6.212552e-05
4.3747931e-05
3.0731305e-05
2.152816e-05
1.5034196e-05
1.0461838e-05
7.250506e-06
4.9999166e-06
3.4289861e-06
14.124056
10.748931
8.1704875
6.2015148
4.6997069
3.5557447
2.6856226
2.0248189
1.5238093
1.1446127
0.85813149
0.64210112
0.4795094
0.35737761
0.26582069
0.19732326
0.14618224
0.10807828
0.079746563
0.058724498
0.043158466
0.031656228
0.023174344
0.016932498
0.012348424
0.0089885992
0.00653096
0.0047367715
0.0034294575
0.0024787017
0.0017885395
0.0012884534
0.00092673892
0.0006655691
0.00047729703
0.00034183328
0.00024439871
0.00017447918
0.00012438397
8.8542313e-05
6.2933518e-05
4.4659386e-05
3.1635896e-05
2.2366821e-05
1.5778437e-05
1.1101914e-05
7.788115e-06
5.4443802e-06
3.7895772e-06
2.6241706e-06
8.9455607
6.8218146
5.1961468
3.952154
3.0012906
2.2754306
1.7221274
1.3010171
0.98105061
0.7383623
0.55462601
0.41578618
0.31107751
0.23226758
0.17307139
0.12869938
0.095508553
0.070733476
0.052279224
0.038562145
0.028387668
0.020856687
0.015293984
0.011193614
0.0081773239
0.0059629617
0.0043405402
0.0031541297
0.0022882015
0.0016573536
0.0011985925
0.00086555528
0.00062419639
0.00044957873
0.00032354343
0.0002323944
0.00016675241
0.00011952242
8.5578809e-05
6.1211432e-05
4.3735357e-05
3.1213723e-05
2.2249564e-05
1.5837406e-05
1.1254857e-05
7.9823256e-06
5.6476964e-06
3.9843042e-06
2.7999533e-06
1.9590808e-06
5.5379136
4.2309406
3.2287351
2.4604028
1.8719917
1.4219388
1.0781984
0.81606485
0.61649797
0.46483335
0.3497869
0.26268567
0.19687262
0.14724592
0.10990213
0.081860166
0.060847716
0.045136217
0.033413494
0.024685594
0.018201278
0.013394019
0.0098375605
0.0072119171
0.0052774342
0.0038550361
0.0028112226
0.002046697
0.0014877726
0.0010798929
0.00078275355
0.00056664693
0.00040972425
0.00029595069
0.00021362075
0.00015398924
0.00011091069
7.982472e-05
5.7413549e-05
4.126899e-05
2.9646876e-05
2.1284595e-05
1.5270651e-05
1.0946473e-05
7.8388545e-06
5.6054394e-06
4.0013716e-06
2.8497801e-06
2.0232025e-06
1.4306081e-06
3.3631736
2.573679
1.9673551
1.5017581
1.1445809
0.87091002
0.66151311
0.5015414
0.37953261
0.28664317
0.21605549
0.16251956
0.12199778
0.091389722
0.06831851
0.050965322
0.037941054
0.028186949
0.020897755
0.015462363
0.011418038
0.008415196
0.0061903476
0.0045453555
0.0033315792
0.0024377697
0.0017808598
0.00129897
0.00094611222
0.00068818587
0.00049996348
0.0003628236
0.0002630498
0.00019054074
0.00013796919
9.9809886e-05
7.2164665e-05
5.2157304e-05
3.7687329e-05
2.7227548e-05
1.9668802e-05
1.4207269e-05
1.0260806e-05
7.4091802e-06
5.3473791e-06
3.8569871e-06
2.77869e-06
1.9983936e-06
1.4339835e-06
1.0250786e-06
2.0104187
1.54073
1.1795359
0.90177463
0.68837068
0.52460311
0.39909656
0.30305803
0.2296905
0.17374185
0.13115656
0.098806289
0.074280931
0.055726482
0.041719065
0.031167134
0.023235541
0.017286614
0.012834512
0.0095098893
0.0070326031
0.0051906612
0.0038240212
0.0028121449
0.0020644658
0.0015130983
0.0011072796
0.00080913949
0.00059049463
0.00043041706
0.00031340444
0.00022799868
0.00016575247
0.00012047412
8.7469624e-05
6.3495966e-05
4.6086424e-05
3.345121e-05
2.4284029e-05
1.7634923e-05
1.2811217e-05
9.31151e-06
6.7711447e-06
4.9255931e-06
3.5839394e-06
2.6076105e-06
1.8961487e-06
1.3779405e-06
9.9936043e-07
7.2278165e-07
1.1866311
0.91057639
0.69804837
0.53440774
0.40851529
0.31177006
0.2375209
0.18062165
0.13708974
0.10384376
0.078501007
0.059220702
0.044582498
0.033492019
0.025107416
0.018782275
0.014021208
0.010445353
0.0077655916
0.0057617812
0.0042666861
0.0031535627
0.0023265817
0.0017134632
0.0012598218
0.00092483505
0.00067793533
0.00049628859
0.00036287798
0.00026505288
0.00019342914
0.00014106164
0.0001028248
7.4944376e-05
5.4593728e-05
3.9770167e-05
2.8977838e-05
2.1123421e-05
1.54073e-05
1.1246706e-05
8.2175874e-06
6.0103813e-06
4.4004983e-06
3.2254543e-06
2.3659796e-06
1.7367686e-06
1.2752351e-06
9.3609674e-07
6.8643616e-07
5.021803e-07
0.69355346
0.53280988
0.40893967
0.31346032
0.23992052
0.1833375
0.13985611
0.1064913
0.080930785
0.061383542
0.046462926
0.03509629
0.026454807
0.019898968
0.014936101
0.011187355
0.0083619574
0.0062372055
0.0046428973
0.0034492506
0.0025575328
0.0018928105
0.0013983497
0.0010313016
0.00075938229
0.00055832768
0.00040994578
0.00030063069
0.00022023022
0.0001611876
0.00011789049
8.6181382e-05
6.2984557e-05
4.6036234e-05
3.3644726e-05
2.4595726e-05
1.7990964e-05
1.3170612e-05
9.6520622e-06
7.0828016e-06
5.204907e-06
3.8308012e-06
2.8245814e-06
2.0857915e-06
1.5430233e-06
1.1427009e-06
8.4721956e-07
6.2870481e-07
4.6624589e-07
3.4524073e-07
0.40244683
0.30947715
0.23777802
0.18246175
0.13981334
0.10696337
0.081691066
0.062275957
0.047384353
0.03598223
0.027268203
0.020621637
0.015562402
0.011719544
0.0088069256
0.006604211
0.0049420697
0.0036906353
0.0027505213
0.0020458464
0.0015188062
0.001125473
0.00083254736
0.00061484682
0.00045337537
0.00033383883
0.00024550801
0.00018034894
0.00013235944
9.706739e-05
7.1148125e-05
5.2134735e-05
3.819613e-05
2.7999726e-05
2.0528527e-05
1.5059762e-05
1.1058336e-05
8.130065e-06
5.9862378e-06
4.4157345e-06
3.26342e-06
2.4174602e-06
1.7945848e-06
1.3354392e-06
9.9628468e-07
7.4469558e-07
5.5737909e-07
4.1784041e-07
3.1356023e-07
2.3499421e-07
0.23239303
0.17885847
0.13754699
0.105651
0.081038185
0.062062288
0.047449038
0.036210883
0.02758181
0.020967494
0.01590692
0.012042698
0.0090980383
0.0068588623
0.0051598374
0.0038735049
0.002901789
0.002169381
0.0016185788
0.0012052705
0.0008958151
0.00066461573
0.00049224757
0.00036400247
0.00026877446
0.00019819573
0.00014597978
0.00010741369
7.8973026e-05
5.8028682e-05
4.2624093e-05
3.1307237e-05
2.3004899e-05
1.6904597e-05
1.2431923e-05
9.1517501e-06
6.74556e-06
4.9805963e-06
3.6844736e-06
2.7316109e-06
2.0307032e-06
1.5134887e-06
1.1314002e-06
8.4859227e-07
6.3825297e-07
4.81422e-07
3.6405107e-07
2.7586249e-07
2.0907028e-07
1.5875947e-07
0.1338303
0.10307115
0.079326902
0.060983804
0.046818946
0.035889276
0.027464995
0.020980379
0.015996458
0.012172443
0.0092437779
0.0070051921
0.0052975889
0.0039977669
0.0030104952
0.0022622721
0.0016964816
0.0012695998
0.00094824303
0.00070686258
0.00052595182
0.00039065388
0.00028968025
0.00021447606
0.0001585737
0.00011709588
8.6374983e-05
6.3657496e-05
4.6883872e-05
3.4515413e-05
2.5405502e-05
1.8703486e-05
1.3778623e-05
1.0152418e-05
7.488692e-06
5.5313681e-06
4.0928259e-06
3.034439e-06
2.2552133e-06
1.6804829e-06
1.2562556e-06
9.424676e-07
7.0926335e-07
5.3581816e-07
4.0634458e-07
3.0948801e-07
2.3632261e-07
1.8102686e-07
1.3892331e-07
1.0639952e-07
0.077013235
0.059339181
0.045698783
0.03515776
0.027013116
0.020724309
0.015873355
0.012136261
0.0092615585
0.0070539194
0.005361647
0.0040669357
0.0030784053
0.0023252397
0.0017526429
0.0013182844
0.00098952377
0.00074124789
0.00055417131
0.00041352113
0.00030800759
0.0002290212
0.00017001723
0.00012602785
9.3296487e-05
6.8985622e-05
5.0959998e-05
3.7615489e-05
2.7750682e-05
2.0467388e-05
1.5095944e-05
1.1138348e-05
8.2244858e-06
6.0771564e-06
4.4960773e-06
3.3322779e-06
2.4743951e-06
1.8420432e-06
1.3752612e-06
1.0302972e-06
7.7430632e-07
5.8460293e-07
4.4285369e-07
3.3733155e-07
2.5770664e-07
1.9812303e-07
1.5279501e-07
1.1805596e-07
9.1549204e-08
7.1141971e-08
0.096700002
0.074563084
0.057523557
0.044342762
0.034184117
0.026340837
0.020278039
0.015591394
0.011970527
0.0091756874
0.0070210332
0.0053623223
0.0040875069
0.003109492
0.0023606131
0.0017883524
0.0013519713
0.0010199272
0.00076783164
0.00057685919
0.00043251384
0.00032365553
0.00024174127
0.00018023609
0.00013415376
9.9697795e-05
7.3986338e-05
5.4836804e-05
4.0600022e-05
3.0033087e-05
2.2201856e-05
1.640618e-05
1.212197e-05
8.9580625e-06
6.6240154e-06
4.9026801e-06
3.6323296e-06
2.6951609e-06
2.0041514e-06
1.4937561e-06
1.1165586e-06
8.3717453e-07
6.3041978e-07
4.7657375e-07
3.6166779e-07
2.759378e-07
2.1184131e-07
1.6308418e-07
1.2633511e-07
9.8302419e-08
7.7129297e-08
6.0274003e-08
4.761974e-08
0.072419767
0.055740125
0.042983782
0.033172032
0.025586818
0.019734189
0.015213669
0.011718546
0.0090157415
0.0069265684
0.0053130617
0.0040683688
0.0031095283
0.00237207
0.0018058896
0.0013720329
0.0010402392
0.00078703515
0.00059421764
0.0004477098
0.0003366368
0.0002526161
0.00018920094
0.00014144291
0.00010555503
7.864331e-05
5.8504633e-05
4.3463823e-05
3.2251538e-05
2.3907969e-05
1.7708759e-05
1.311008e-05
9.7030762e-06
7.1819003e-06
5.3177025e-06
3.9403134e-06
2.9230403e-06
2.1712892e-06
1.6156247e-06
1.2053526e-06
9.0157782e-07
6.7634127e-07
5.0966823e-07
3.8531291e-07
2.9280544e-07
2.2392848e-07
1.7178163e-07
1.328927e-07
1.0328992e-07
8.0508572e-08
6.3253818e-08
4.9950151e-08
3.9858384e-08
3.1779044e-08
0.041909751
0.03225624
0.024873809
0.019198895
0.014815236
0.011430991
0.0088161577
0.0067940595
0.0052298933
0.004020371
0.003085771
0.0023644089
0.0018083793
0.0013804517
0.0010516971
0.00079960394
0.00060668016
0.00045934497
0.00034707011
0.00026169789
0.00019692666
0.00014789391
0.00011085838
8.2946206e-05
6.1954899e-05
4.6202277e-05
3.4404376e-05
2.5585789e-05
1.9006421e-05
1.4106043e-05
1.0462287e-05
7.7562655e-06
5.7491552e-06
4.2625845e-06
3.1619522e-06
2.3477333e-06
1.7452934e-06
1.2999059e-06
9.7011416e-07
7.2589154e-07
5.4461095e-07
4.1048311e-07
3.1034107e-07
2.3606475e-07
1.8038669e-07
1.3866992e-07
1.0719981e-07
8.3468618e-08
6.536653e-08
5.1557339e-08
4.09673e-08
3.2444969e-08
2.6252016e-08
2.0910068e-08
0.024377581
0.01875848
0.014463692
0.011164218
0.0086176742
0.0066512534
0.005131642
0.0039562688
0.003046888
0.0023434544
0.0017996963
0.0013797862
0.0010559507
0.00080658537
0.0006148934
0.00046781167
0.00035518087
0.000269109
0.00020347378
0.00015353219
0.00011561691
8.6894469e-05
6.5185066e-05
4.8811791e-05
3.6489783e-05
2.7235752e-05
2.029996e-05
1.5111433e-05
1.1237435e-05
8.3496012e-06
6.2006176e-06
4.6030284e-06
3.4170835e-06
2.5375429e-06
1.8856937e-06
1.4026896e-06
1.0450956e-06
7.8012165e-07
5.8377738e-07
4.3831075e-07
3.2990421e-07
2.4968288e-07
1.8945579e-07
1.4464256e-07
1.1102133e-07
8.6013592e-08
6.6978991e-08
5.2260461e-08
4.1223424e-08
3.2716499e-08
2.6419769e-08
2.1072044e-08
1.7098884e-08
1.4156953e-08
0.014264413
0.010972553
0.0084588244
0.006528861
0.0050405744
0.0038913843
0.0030032009
0.0023161934
0.0017845216
0.0013731752
0.0010550707
0.00080933715
0.00061973133
0.00047365441
0.00036130291
0.00027504402
0.00020895504
0.00015841874
0.00011985975
9.0500165e-05
6.8197697e-05
5.1291954e-05
3.8505789e-05
2.8855758e-05
2.1588317e-05
1.612686e-05
1.2030674e-05
8.9642744e-06
6.6729169e-06
4.9638464e-06
3.6902423e-06
2.7432304e-06
2.0394011e-06
1.5165845e-06
1.1288825e-06
8.4168533e-07
6.2821153e-07
4.7028703e-07
3.5261654e-07
2.6566679e-07
2.0073333e-07
1.5211491e-07
1.1623343e-07
8.9179349e-08
6.8894622e-08
5.3568565e-08
4.1678033e-08
3.309536e-08
2.6374231e-08
2.0883509e-08
1.7095076e-08
1.3936725e-08
1.1228032e-08
9.4791769e-09
0.008403181
0.0064607729
0.0049794021
0.0038428566
0.0029671722
0.0022911148
0.0017686123
0.0013644446
0.0010516244
0.00080954325
0.00062229086
0.00047758714
0.00036588802
0.00027978918
0.00021353864
0.00016264957
0.00012363953
9.3792527e-05
7.100618e-05
5.3648723e-05
4.0454098e-05
3.0445224e-05
2.2871594e-05
1.7151981e-05
1.2841847e-05
9.6010113e-06
7.1682803e-06
5.3459889e-06
3.9836209e-06
2.96628e-06
2.2076903e-06