/*--------------------------------*- C++ -*----------------------------------*\
| =========                 |                                                 |
| \\      /  F ield         | OpenFOAM: The Open Source CFD Toolbox           |
|  \\    /   O peration     | Version:  2312                                  |
|   \\  /    A nd           | Website:  www.openfoam.com                      |
|    \\/     M anipulation  |                                                 |
\*---------------------------------------------------------------------------*/
FoamFile
{
    version     2.0;
    format      ascii;
    arch        "LSB;label=32;scalar=64";
    class       volScalarField;
    location    "0.01";
    object      T;
}
// * * * * * * * * * * * * * * * * * * * * * * * * * * * * * * * * * * * * * //

dimensions      [0 0 0 1 0 0 0];

internalField   nonuniform List<scalar> 
3250
(
443.58981
442.67797
441.78626
440.91574
440.06619
439.23728
438.42863
437.6399
436.87079
436.12104
435.39042
434.67875
433.98593
433.31186
432.65651
432.01987
431.40199
430.80291
430.2227
429.66145
429.11922
428.59607
428.09203
427.6071
427.14123
426.69431
426.26616
425.85651
425.46503
425.09127
424.73451
424.39423
424.0696
423.75959
423.46303
423.17857
422.9046
422.63933
422.38081
422.12647
421.87361
421.61924
421.35984
421.09134
446.56823
445.64778
444.74829
443.87057
443.01435
442.17922
441.3648
440.57072
439.79668
439.04241
438.30768
437.5923
436.89616
436.21917
435.56128
434.92248
434.3028
433.70229
433.121
432.559
432.01634
431.49307
430.98918
430.50466
430.03942
429.59333
429.16619
428.75772
428.36771
427.99668
427.63991
427.30078
426.97738
426.6685
426.37287
426.08904
425.81537
425.54994
425.29075
425.03515
424.78038
424.52348
424.26091
423.98766
452.1942
451.26048
450.34852
449.45913
448.59202
447.74675
446.92293
446.12019
445.33821
444.57671
443.83545
443.11425
442.41297
441.73152
441.06984
440.42792
439.80577
439.20343
438.62092
438.05828
437.51552
436.99264
436.4896
436.00634
435.54273
435.09858
434.67362
434.26751
433.87973
433.50888
433.157
432.82053
432.4993
432.19222
431.8979
431.61476
431.34098
431.07448
430.81305
430.55389
430.29394
430.03
429.75822
429.47323
460.17006
459.22027
458.29324
457.38975
456.50947
455.65197
454.81685
454.00375
453.21232
452.4423
451.69343
450.96553
450.25844
449.57207
448.90635
448.26128
447.63686
447.03309
446.44995
445.8874
445.34537
444.8238
444.3226
443.84163
443.38069
442.93954
442.51781
442.11507
441.73066
441.36363
441.01444
440.68086
440.36202
440.05664
439.76318
439.47984
439.20456
438.93502
438.66857
438.40239
438.13287
437.85646
437.56893
437.26449
470.2238
469.25695
468.31398
467.39556
466.50139
465.63104
464.78412
463.96026
463.15912
462.38044
461.62395
460.88946
460.1768
459.48588
458.81666
458.16918
457.5435
456.93948
456.35691
455.79562
455.25544
454.73623
454.23785
453.76008
453.30267
452.86529
452.4475
452.04883
451.66876
451.30671
450.95923
450.62764
450.31036
450.00562
449.71154
449.426
449.14663
448.87075
448.59532
448.31717
448.0323
447.73653
447.42523
447.09212
482.1008
481.11745
480.15907
479.22626
478.31874
477.4361
476.57799
475.74404
474.93393
474.14737
473.38412
472.64393
471.92667
471.23222
470.56066
469.9123
469.28761
468.68537
468.10498
467.54614
467.00873
466.49262
465.99765
465.52358
465.07009
464.63673
464.22297
463.82814
463.45146
463.09162
462.7473
462.41726
462.10015
461.79407
461.49681
461.20592
460.91864
460.63186
460.34211
460.04553
459.73801
459.41453
459.06987
458.69726
495.55831
494.5602
493.58801
492.64233
491.72295
490.82955
489.96177
489.11928
488.30175
487.50888
486.74041
485.99607
485.27569
484.57916
483.90669
483.25957
482.64282
482.04443
481.46664
480.91018
480.37537
479.86224
479.37061
478.90019
478.45049
478.02095
477.61079
477.21905
476.84437
476.48528
476.14291
475.81299
475.49382
475.18345
474.87946
474.57899
474.27882
473.97535
473.66457
473.34205
473.00292
472.64201
472.25302
471.82864
510.36261
509.35174
508.36781
507.41143
506.48246
505.58057
504.70544
503.85669
503.03398
502.237
501.46543
500.71899
499.99739
499.30025
498.62689
497.97543
497.33971
496.73147
496.14847
495.58973
495.05449
494.54215
494.05212
493.5838
493.13647
492.70933
492.30142
491.91163
491.53857
491.18043
490.83531
490.50132
490.17647
489.85819
489.54347
489.22894
488.91085
488.58503
488.24685
487.89122
487.51261
487.10493
486.66221
486.1752
526.25077
525.22332
524.2258
523.25767
522.3184
521.40749
520.5245
519.66903
518.84068
518.03911
517.26398
516.51496
515.79172
515.09388
514.42097
513.77228
513.14721
512.54714
511.9717
511.42042
510.89272
510.38795
509.90541
509.44448
509.00414
508.5833
508.18075
507.79512
507.42475
507.06747
506.72083
506.3828
506.05096
505.72229
505.39328
505.06002
504.71817
504.36296
503.98913
503.59093
503.16205
502.69564
502.18397
501.61882
545.17295
544.08057
543.01873
541.98794
540.98819
540.01907
539.07981
538.1698
537.28854
536.43558
535.61051
534.81295
534.04251
533.29884
532.58158
531.89033
531.22468
530.58414
529.96827
529.37689
528.80972
528.26633
527.74614
527.24844
526.77237
526.31677
525.88064
525.46276
525.06169
524.67571
524.30284
523.94092
523.58778
523.24029
522.89525
522.54915
522.19805
521.83749
521.46254
521.06776
520.64716
520.19424
519.70188
519.16239
518.56756
517.90834
562.66759
561.57628
560.51645
559.48803
558.49053
557.52339
556.58635
555.67902
554.80097
553.9518
553.13107
552.3384
551.57339
550.83564
550.12474
549.44029
548.78182
548.14886
547.54091
546.95746
546.398
545.86193
545.34853
544.85695
544.38619
543.93506
543.50222
543.08615
542.68507
542.29694
541.91944
541.55016
541.1866
540.82508
540.46176
540.09258
539.71302
539.31802
538.902
538.45879
537.98168
537.46334
536.89587
536.27074
535.57887
534.81069
580.64531
579.55899
578.50447
577.48154
576.48983
575.5289
574.59839
573.69789
572.82701
571.98533
571.17244
570.38792
569.63135
568.9023
568.20032
567.52493
566.87565
566.25191
565.65312
565.07865
564.52779
563.99975
563.49364
563.0084
562.54286
562.09561
561.66507
561.24941
560.84655
560.4541
560.06938
559.68956
559.31157
558.93134
558.54449
558.14637
557.73182
557.29514
556.83003
556.32958
555.78629
555.19203
554.53804
553.81495
553.01281
552.12151
598.90897
597.83284
596.78875
595.77628
594.7951
593.84483
592.92508
592.03546
591.17557
590.345
589.54332
588.7701
588.02489
587.30721
586.61656
585.95242
585.31419
584.70126
584.11293
583.54842
583.00687
582.48733
581.98869
581.50971
581.04896
580.60481
580.17541
579.75862
579.35204
578.95292
578.55818
578.16443
577.76796
577.36434
576.94872
576.51584
576.05987
575.57442
575.05243
574.48625
573.86755
573.18737
572.43611
571.60353
570.67882
569.65134
617.28272
616.22179
615.19296
614.19563
613.22945
612.29407
611.3891
610.51418
609.66889
608.85281
608.06551
607.30653
606.57537
605.87152
605.19442
604.54347
603.91801
603.31731
602.74057
602.18688
601.65523
601.14447
600.65331
600.18028
599.72371
599.28172
598.85214
598.43254
598.02013
597.61179
597.20397
596.79281
596.37402
595.94268
595.49339
595.02025
594.5168
593.97591
593.38979
592.74998
592.04736
591.27213
590.41382
589.46135
588.40305
587.22777
635.60686
634.56581
633.55673
632.57884
631.63176
630.71516
629.82869
628.97194
628.14453
627.34602
626.57595
625.83383
625.11913
624.43129
623.76969
623.13366
622.52243
621.93518
621.37098
620.8288
620.30744
619.8056
619.32177
618.85426
618.40114
617.96025
617.52912
617.10498
616.68468
616.26466
615.84094
615.40911
614.96433
614.50113
614.01355
613.4951
612.93861
612.33624
611.67944
610.95898
610.1649
609.28657
608.3127
607.23132
606.02999
604.69704
653.73918
652.72231
651.73704
650.78243
649.85812
648.96378
648.09906
647.26358
646.45694
645.67868
644.92832
644.20535
643.5092
642.83924
642.19479
641.57509
640.9793
640.40647
639.85556
639.32537
638.81457
638.32164
637.84488
637.38235
636.93188
636.491
636.05693
635.62655
635.19632
634.76226
634.31994
633.86446
633.39043
632.89169
632.36178
631.79356
631.17919
630.5101
629.777
628.96986
628.07793
627.08976
625.99321
624.77553
623.42346
621.92487
671.5556
670.56695
669.60905
668.68107
667.78268
666.91358
666.07342
665.26184
664.4784
663.72267
662.99412
662.2922
661.61631
660.96575
660.33979
659.73757
659.15815
658.60048
658.06338
657.5455
657.04534
656.5612
656.09115
655.63302
655.18436
654.74242
654.30409
653.86588
653.42386
652.97364
652.51039
652.02882
651.52294
650.98524
650.40937
649.78757
649.11125
648.3711
647.55708
646.65838
645.66347
644.5601
643.33534
641.97562
640.46695
638.79674
688.95024
687.99378
687.06632
686.16776
685.29791
684.45651
683.64323
682.85769
682.09947
681.36809
680.66303
679.9837
679.32942
678.69946
678.093
677.5091
676.94674
676.40473
675.88176
675.37633
674.88677
674.41118
673.94742
673.49308
673.04543
672.60142
672.15761
671.71016
671.25474
670.78663
670.30072
669.79171
669.25366
668.67229
668.04679
667.36812
666.62658
665.81197
664.91348
663.91953
662.81782
661.59534
660.23837
658.7326
657.06331
655.21749
706.79215
705.83889
704.91562
704.02061
703.15359
702.31434
701.50257
700.71797
699.96016
699.22871
698.52312
697.84283
697.18721
696.55555
695.94705
695.36081
694.79582
694.25094
693.72488
693.21618
692.72321
692.2441
691.77676
691.31883
690.86766
690.42025
689.97326
689.52291
689.065
688.59489
688.10751
687.59774
687.06176
686.50355
685.86268
685.1831
684.44487
683.63566
682.74415
681.75871
680.667
679.45598
678.11187
676.62025
674.96606
673.13392
671.11041
723.06625
722.14941
721.26142
720.40067
719.56685
718.75973
717.97905
717.22448
716.49564
715.79208
715.11328
714.45866
713.82755
713.21918
712.6327
712.06713
711.52138
710.9942
710.48419
709.98975
709.50909
709.04018
708.58073
708.12817
707.6796
707.23175
706.78097
706.32318
705.85382
705.36788
704.85989
704.32398
703.75322
703.13324
702.47152
701.743
700.94485
700.06668
699.09686
698.02304
696.83221
695.51059
694.04371
692.41643
690.61303
688.61748
686.41596
738.70597
737.82774
736.97657
736.15138
735.35194
734.57805
733.82944
733.1058
732.40673
731.73179
731.08042
730.45202
729.84588
729.26118
728.697
728.1523
727.62589
727.11644
726.62241
726.14208
725.67351
725.2145
724.76257
724.31492
723.86841
723.41952
722.9643
722.49834
722.01674
721.51408
720.98433
720.42062
719.81386
719.1492
718.44773
717.66987
716.81189
715.86443
714.81582
713.65321
712.36294
710.93059
709.34102
707.57842
705.62643
703.46841
701.09018
753.6723
752.8346
752.02128
751.23245
750.46808
749.72803
749.01205
748.31984
747.65098
747.00502
746.38139
745.77944
745.19843
744.63751
744.09567
743.57182
743.06468
742.57281
742.09456
741.6281
741.17131
740.72185
740.27703
739.83385
739.38895
738.93852
738.47835
738.00369
737.5093
736.98933
736.43722
735.84543
735.20489
734.50623
733.75392
732.92363
732.00546
730.98887
729.86176
728.61081
727.22177
725.67959
723.9685
722.07209
719.97339
717.6552
715.10295
768.76792
767.94342
767.14451
766.36899
765.61674
764.88769
764.1817
763.49853
762.83787
762.19932
761.58238
760.98649
760.41096
759.85501
759.31772
758.79807
758.29486
757.80674
757.33217
756.8694
756.41646
755.9711
755.5308
755.09271
754.65361
754.20991
753.75756
753.29206
752.80837
752.3009
751.7634
751.18893
750.56963
749.89687
749.16255
748.36227
747.47747
746.49869
745.41345
744.20875
742.87064
741.38431
739.7341
737.90365
735.87596
733.63351
731.15858
728.43621
782.28608
781.50203
780.74209
780.00432
779.28854
778.5947
777.92264
777.27213
776.64285
776.0344
775.44627
774.87786
774.32847
773.79728
773.28332
772.7855
772.30257
771.83309
771.37544
770.92775
770.48793
770.0536
769.62207
769.19032
768.75495
768.31212
767.85757
767.38652
766.89364
766.37301
765.81806
765.22151
764.57528
763.87075
763.09986
762.2602
761.31545
760.27613
759.12324
757.8424
756.41897
754.83752
753.08183
751.13497
748.9794
746.59708
743.96979
741.08218
795.08616
794.34322
793.6221
792.92174
792.24206
791.58301
790.94446
790.32617
789.72783
789.14903
788.58925
788.04786
787.52413
787.01721
786.52609
786.04962
785.58648
785.13516
784.69395
784.26088
783.83374
783.41001
782.98686
782.5611
782.12913
781.68692
781.22997
780.75325
780.25116
779.71748
779.14533
778.52713
777.85453
777.11845
776.30879
775.40964
774.42793
773.33173
772.11308
770.75814
769.25176
767.57797
765.71999
763.66035
761.38099
758.86338
756.08884
753.04178
807.17207
806.47046
805.78768
805.12408
804.47982
803.85489
803.24918
802.66245
802.09439
801.54458
801.01248
800.49747
799.99877
799.51549
799.04659
798.59087
798.14694
797.71322
797.2879
796.86893
796.45398
796.04041
795.62525
795.20513
794.77629
794.33451
793.87504
793.39264
792.88143
792.33493
791.74596
791.10665
790.40837
789.64174
788.79684
787.86683
786.8226
785.66869
784.38616
782.95956
781.37309
779.61021
777.65363
775.48536
773.08687
770.43913
767.52307
764.32288
819.24205
818.55822
817.89465
817.24889
816.62105
816.01128
815.41957
814.84581
814.28978
813.75116
813.22951
812.7243
812.23488
811.76044
811.30006
810.85266
810.41699
809.99159
809.57483
809.16482
808.7594
808.35614
807.95228
807.54472
807.12993
806.70399
806.26248
805.80045
805.31242
804.79229
804.23328
803.62795
802.96813
802.2449
801.44844
800.56704
799.58227
798.50265
797.29596
795.95235
794.45698
792.79364
790.94532
788.89422
786.62189
784.10933
781.33707
778.28564
774.93897
829.90322
829.25751
828.63094
828.02101
827.42781
826.85142
826.29186
825.74902
825.22267
824.7125
824.21807
823.73882
823.27408
822.82303
822.38471
821.95801
821.54162
821.13405
820.73357
820.33823
819.94578
819.5537
819.15911
818.75877
818.34902
817.92577
817.48443
817.01985
816.52633
815.99753
815.42642
814.80528
814.12563
813.37827
812.55332
811.6396
810.61746
809.48811
808.22929
806.8272
805.26613
803.5294
801.59954
799.45829
797.08677
794.46551
791.57463
788.39425
784.90795
839.898
839.28967
838.69898
838.12366
837.56383
837.0196
836.491
835.97791
835.48012
834.99731
834.52902
834.07471
833.63367
833.20507
832.78792
832.38106
831.98314
831.59262
831.20772
830.82639
830.44633
830.0649
829.67913
829.28565
828.88067
828.45995
828.01871
827.55164
827.05281
826.51567
825.93294
825.29662
824.5979
823.82723
822.97466
822.03323
820.97086
819.79617
818.48808
817.03044
815.40694
813.60047
811.59315
809.36632
806.90067
804.17631
801.17293
797.87015
794.25078
849.25045
848.678
848.12183
847.57974
847.05192
846.53852
846.03958
845.55499
845.08454
844.62791
844.18466
843.75419
843.33582
842.92867
842.53173
842.14381
841.76352
841.38926
841.01919
840.65122
840.28295
839.91166
839.53427
839.1473
838.74684
838.32849
837.88732
837.41785
836.91396
836.36887
835.77506
835.12428
834.40742
833.61442
832.73349
831.74732
830.66292
829.4495
828.09528
826.5851
824.90249
823.03002
820.94943
818.64168
816.08706
813.26533
810.15569
806.73759
802.99114
857.98627
857.44806
856.92488
856.41453
855.91727
855.4333
854.96265
854.50525
854.06087
853.62921
853.2098
852.80206
852.40526
852.01853
851.64083
851.27092
850.90739
850.54859
850.19263
849.83734
849.48026
849.11859
848.74915
848.36836
847.97218
847.55608
847.11499
846.64325
846.13456
845.58193
844.97764
844.31318
843.57922
842.76562
841.86109
840.84682
839.72663
838.47448
837.07633
835.51649
833.77812
831.84343
829.69379
827.3098
824.67142
821.75807
818.54873
815.02273
811.15938
806.94348
866.13257
865.62692
865.13511
864.65495
864.18675
863.73074
863.28698
862.8554
862.43579
862.02783
861.63106
861.24489
860.86857
860.50121
860.14175
859.78893
859.44129
859.09714
858.75454
858.41126
858.06479
857.71222
857.35031
856.97537
856.58326
856.1693
855.72831
855.25445
854.74125
854.18154
853.56739
852.89005
852.1399
851.30659
850.38161
849.34093
848.18659
846.89763
845.45803
843.85145
842.06066
840.06752
837.85303
835.39746
832.68044
829.68112
826.37826
822.75098
818.77723
814.44351
873.71734
873.24253
872.78043
872.32885
871.88818
871.45865
871.04036
870.63322
870.23706
869.85153
869.47618
869.11041
868.75346
868.40442
868.06221
867.72554
867.39291
867.06261
866.73263
866.40071
866.06425
865.7203
865.36552
864.99612
864.60786
864.19597
863.75509
863.27927
862.76188
862.19557
861.57219
860.88281
860.11749
859.26479
858.30895
857.25283
856.06962
854.74653
853.2681
851.61773
849.77785
847.72997
845.45477
842.9322
840.14157
837.06176
833.67128
829.94908
825.87255
821.42716
880.76895
880.32324
879.88918
879.46458
879.04988
878.64534
878.25107
877.86701
877.49296
877.1286
876.77346
876.42693
876.08825
875.75648
875.43053
875.10908
874.79061
874.47335
874.15528
873.83407
873.50706
873.17123
872.82317
872.45902
872.07442
871.6645
871.22379
870.74619
870.22493
869.65247
869.02052
868.31995
867.5408
866.67214
865.69812
864.61582
863.4045
862.04945
860.53476
858.8435
856.95779
854.85882
852.52695
849.94183
847.0825
843.92754
840.45523
836.64423
832.47173
827.92239
887.31571
886.89739
886.48969
886.09047
885.70019
885.31917
884.9475
884.58514
884.2319
883.88745
883.55131
883.22288
882.90138
882.58586
882.27519
881.96806
881.66289
881.35791
881.05103
880.73988
880.42176
880.09359
879.75187
879.39268
879.01156
878.60354
878.16303
877.68383
877.159
876.58088
875.94099
875.23
874.43795
873.55614
872.56297
871.45698
870.2195
868.8347
867.28626
865.55694
863.62857
861.48204
859.09742
856.45408
853.53079
850.30587
846.75733
842.86359
838.60165
833.95574
893.3856
892.99296
892.60997
892.23453
891.86717
891.5082
891.15774
890.81574
890.48202
890.15624
889.83793
889.52648
889.22109
888.9208
888.62448
888.33077
888.03809
887.74461
887.44823
887.14654
886.83677
886.51579
886.18004
885.82552
885.4477
885.04151
884.60126
884.12063
883.59255
883.00922
882.362
881.64133
880.83645
879.9343
878.93018
877.80416
876.54267
875.1303
873.55055
871.78591
869.81794
867.62725
865.19366
862.49626
859.51357
856.22368
852.60434
848.63371
844.28865
839.55313
899.00597
898.63734
898.27742
897.92422
897.57828
897.23994
896.90932
896.58637
896.27091
895.96261
895.66099
895.36542
895.0751
894.78907
894.50617
894.22501
893.94402
893.66131
893.37477
893.08192
892.77998
892.46575
892.13561
891.7855
891.41081
891.00638
890.56643
890.08452
889.55349
888.9654
888.31148
887.58206
886.76625
885.85082
884.83051
883.68536
882.40163
880.96376
879.35502
877.55769
875.55304
873.32146
870.84251
868.09504
865.05733
861.70723
858.02229
853.9804
849.55826
844.73971
904.20334
903.85709
903.51865
903.18617
902.86022
902.54114
902.22903
901.92387
901.62546
901.33347
901.04742
900.76668
900.49043
900.21771
899.94732
899.6779
899.40781
899.13517
898.85781
898.57323
898.27861
897.97069
897.64583
897.29986
896.92812
896.52538
896.08578
895.60276
895.06906
894.47662
893.81656
893.07918
892.2538
891.32742
890.29057
889.12749
887.82321
886.36179
884.72629
882.89876
880.86024
878.59088
876.07002
873.27627
870.18771
866.78195
863.03636
858.92857
854.43515
849.53978
909.00324
908.67785
908.35933
908.04611
907.73876
907.4376
907.14275
906.85415
906.57162
906.29482
906.02327
905.75633
905.49319
905.23286
904.97414
904.71564
904.45571
904.19244
903.92364
903.64679
903.35899
903.05698
902.73704
902.39497
902.02603
901.62491
901.18568
900.70169
900.16558
899.56918
898.90349
898.15875
897.32467
896.38696
895.33595
894.15651
892.83331
891.35022
889.69008
887.83471
885.76497
883.46078
880.90128
878.06487
874.9294
871.47232
867.67077
863.50219
858.94298
853.9767
913.43006
913.12417
912.82406
912.52871
912.23865
911.95415
911.67531
911.4021
911.13433
910.87165
910.61358
910.35947
910.1085
909.85968
909.61181
909.36346
909.11297
908.85842
908.59758
908.32791
908.04648
907.74997
907.43463
907.09621
906.7299
906.33034
905.89151
905.40669
904.86842
904.26842
903.59755
902.84583
902.00325
901.0553
899.99177
898.79741
897.45687
895.95386
894.27106
892.3901
890.29164
887.95543
885.36037
882.4847
879.30608
875.80176
871.94872
867.72418
863.10438
858.07277
917.50687
917.21939
916.93632
916.65756
916.38352
916.11447
915.8505
915.59156
915.33746
915.08787
914.84229
914.60007
914.3604
914.12225
913.88443
913.64549
913.40377
913.1573
912.90386
912.64085
912.36534
912.07395
911.7629
911.42789
911.06406
910.66598
910.22756
909.74203
909.20182
908.59858
907.92302
907.16487
906.31225
905.35701
904.28216
903.07414
901.7177
900.19644
898.49285
896.58841
894.4636
892.09798
889.47029
886.55857
883.34033
879.79264
875.8923
871.61637
866.9409
861.84923
921.25561
920.98557
920.71847
920.45509
920.1959
919.94114
919.69092
919.44518
919.20374
918.96625
918.73223
918.50102
918.27178
918.04352
917.81499
917.58477
917.35115
917.11217
916.86557
916.60874
916.33871
916.05208
915.74502
915.41318
915.05168
914.655
914.21702
913.73088
913.18894
912.58277
911.90302
911.1393
910.27984
909.31555
908.23005
907.00952
905.63854
904.10056
902.37795
900.45201
898.30306
895.9105
893.25291
890.30817
887.05363
883.4662
879.52254
875.19951
870.47302
865.32627
925.47914
925.21902
924.95616
924.6991
924.44415
924.19177
923.94262
923.69714
923.45559
923.21806
922.98451
922.75475
922.52844
922.30508
922.08402
921.86443
921.64527
921.42533
921.20315
920.97701
920.74495
920.50468
920.25356
919.9886
919.70637
919.40301
919.07413
918.71479
918.31946
917.88191
917.39525
916.85177
916.24297
915.55942
914.79074
913.92554
912.95247
911.85718
910.6252
909.24094
907.6877
905.9477
904.00211
901.8311
899.41392
896.729
893.75408
890.46635
886.8426
882.85934
878.49328
873.72013
868.52297
928.82852
928.587
928.34414
928.099
927.85615
927.61513
927.37633
927.1403
926.90747
926.67808
926.45225
926.22992
926.01092
925.79489
925.58136
925.36965
925.15893
924.94817
924.73613
924.52135
924.30212
924.07642
923.84198
923.59612
923.33584
923.05769
922.75775
922.43161
922.07429
921.68021
921.24311
920.75601
920.21116
919.59997
918.91299
918.13976
917.26888
916.28827
915.1841
913.9417
912.54535
910.9782
909.22235
907.25884
905.06771
902.62806
899.9182
896.91575
893.59776
889.94089
885.92153
881.51624
876.70055
871.4574
931.6579
931.43219
931.2047
930.9748
930.74547
930.5174
930.29112
930.06718
929.84597
929.62777
929.41268
929.20066
928.99154
928.78497
928.58046
928.37733
928.17477
927.97171
927.76694
927.55896
927.34606
927.12622
926.89713
926.65612
926.40015
926.12574
925.82896
925.50536
925.14992
924.75701
924.32034
923.83287
923.2868
922.67347
921.98337
921.20599
920.32982
919.34249
918.23029
916.97843
915.57107
913.99128
912.22101
910.24119
908.03173
905.57164
902.83909
899.81157
896.46603
892.77904
888.72687
884.28593
879.43157
874.14659
934.24263
934.03142
933.81792
933.60162
933.38488
933.16879
932.95403
932.74117
932.53063
932.32268
932.11744
931.91488
931.71481
931.5169
931.32065
931.1254
930.9303
930.73431
930.53618
930.33444
930.12735
929.91287
929.6887
929.45213
929.2001
928.92914
928.63526
928.31399
927.96029
927.56849
927.13223
926.64446
926.09729
925.48204
924.78911
924.00796
923.12694
922.13358
921.01411
919.75367
918.33634
916.74506
914.9617
912.96707
910.74098
908.26231
905.50914
902.45887
899.08833
895.37401
891.29209
886.81885
881.92947
876.60657
936.59922
936.40115
936.20037
935.99633
935.79115
935.58606
935.38186
935.17915
934.97837
934.77979
934.58356
934.38963
934.19784
934.00784
933.81915
933.63108
933.44281
933.25327
933.06122
932.86518
932.66339
932.45382
932.23413
932.00162
931.75321
931.4854
931.19418
930.87506
930.52296
930.13217
929.69632
929.20829
928.66016
928.04318
927.3477
926.56311
925.67771
924.6789
923.55286
922.28467
920.85831
919.25663
917.46141
915.45336
913.21219
910.7167
907.94485
904.87396
901.48079
897.74174
893.63293
889.13053
884.20956
878.85245
938.74309
938.55687
938.36759
938.17464
937.98
937.78498
937.59042
937.39696
937.20507
937.01505
936.82702
936.64097
936.45671
936.27393
936.09211
935.9106
935.72854
935.54488
935.35837
935.16751
934.97055
934.76545
934.54985
934.32105
934.07594
933.81099
933.52221
933.20505
932.85442
932.46458
932.02911
931.54086
930.99187
930.37333
929.67555
928.88786
927.9985
926.99479
925.86283
924.58764
923.15312
921.54204
919.73611
917.71593
915.46114
912.95044
910.16171
907.07218
903.65857
899.89721
895.76418
891.23556
886.28621
880.8984
940.68861
940.51308
940.33418
940.15124
939.96618
939.7803
939.59451
939.40947
939.22567
939.04341
938.86284
938.68393
938.50653
938.3303
938.15473
937.97916
937.80275
937.62443
937.44294
937.2568
937.06423
936.86318
936.6513
936.42585
936.18374
935.92141
935.63483
935.31946
934.97017
934.58119
934.14608
933.65765
933.1079
932.48797
931.78811
930.99763
930.10471
929.09659
927.95931
926.67781
925.23594
923.6164
921.8008
919.7697
917.50263
914.97821
912.17427
909.06796
905.63593
901.85449
897.69972
893.14761
888.17292
882.75775
942.44925
942.28336
942.11381
941.93988
941.76347
941.58588
941.40803
941.23062
941.05414
940.87891
940.70508
940.53266
940.36146
940.19115
940.02124
939.85105
939.67974
939.50625
939.32932
939.14743
938.95883
938.76145
938.55293
938.33053
938.09112
937.83116
937.54658
937.23283
936.88476
936.49657
936.06179
935.57321
935.02278
934.40161
933.69989
932.90687
932.01078
930.9987
929.85664
928.56948
927.12101
925.49386
923.66959
921.62866
919.35055
916.81381
913.9962
910.87481
907.42624
903.6268
899.45257
894.87951
889.88233
884.44294
944.03764
943.8804
943.71925
943.55342
943.3848
943.21468
943.04399
942.87346
942.70358
942.53469
942.36695
942.20036
942.03475
941.86979
941.70498
941.53965
941.37294
941.20381
941.03097
940.85292
940.66789
940.47382
940.26833
940.04866
939.8117
939.55386
939.27109
938.95881
938.61183
938.22436
937.78989
937.30117
936.75013
936.12786
935.42449
934.6292
933.73027
932.71465
931.5683
930.27607
928.82168
927.18773
925.35568
923.30595
921.01796
918.47019
915.64033
912.50543
909.04206
905.22652
901.03494
896.44326
891.42624
885.96564
945.46558
945.3161
945.16246
945.00388
944.84224
944.67882
944.51457
944.35021
944.18626
944.02307
943.8608
943.69945
943.53886
943.37869
943.21846
943.05748
942.89491
942.72968
942.56052
942.38591
942.20409
942.01298
941.8102
941.59299
941.35822
941.10229
940.82114
940.51016
940.16417
939.77734
939.34314
938.85431
938.30274
937.67948
936.97464
936.17737
935.27587
934.25708
933.1069
931.81015
930.35049
928.71046
926.87147
924.8139
922.51708
919.95946
917.11869
913.97174
910.49515
906.66526
902.45828
897.85011
892.81571
887.33662
946.74413
946.60157
946.45463
946.30251
946.14711
945.98968
945.83117
945.67232
945.51367
945.35556
945.19817
945.04151
944.8854
944.72953
944.57338
944.4163
944.25741
944.09566
943.92978
943.75825
943.57929
943.39083
943.19046
942.97544
942.74262
942.48839
942.20868
941.89887
941.55376
941.1675
940.73355
940.24461
939.69257
939.06844
938.3623
937.56327
936.65948
935.63786
934.48428
933.18351
931.71917
930.07374
928.22859
926.16404
923.85939
921.29303
918.44254
915.28489
911.79657
907.95392
903.7333
899.11055
894.06098
888.56581
947.88364
947.74724
947.60623
947.45984
947.30996
947.15786
947.00445
946.8505
946.69654
946.54295
946.3899
946.2374
946.08529
945.93322
945.78071
945.62707
945.47146
945.31281
945.14984
944.98104
944.80461
944.61849
944.42027
944.20719
943.97609
943.72336
943.44493
943.13615
942.79181
942.40606
941.97232
941.4833
940.93083
940.30593
939.59863
938.79805
937.89222
936.86811
935.71153
934.4072
932.93871
931.28851
929.43792
927.36721
925.05563
922.48153
919.62247
916.45536
912.95666
909.10271
904.87006
900.23441
895.17158
889.66208
948.89381
948.76282
948.62704
948.4857
948.34071
948.19329
948.04439
947.89475
947.74494
947.59533
947.44612
947.29729
947.14869
946.99999
946.85068
946.7001
946.54738
946.39145
946.23105
946.06464
945.89045
945.70639
945.51005
945.29868
945.06909
944.81769
944.54037
944.2325
943.88884
943.50352
943.06997
942.58086
942.02802
941.40243
940.69412
939.89214
938.98455
937.95823
936.79901
935.49156
934.01943
932.36503
930.50966
928.43353
926.11587
923.53498
920.66839
917.49296
913.98513
910.12123
905.87799
901.23091
896.15632
890.63303
884.64837
949.78368
949.65743
949.52621
949.3893
949.24858
949.10528
948.96031
948.81444
948.66825
948.52214
948.37628
948.23068
948.08516
947.93941
947.79291
947.64499
947.4948
947.34126
947.1831
947.01879
946.84654
946.66428
946.46959
946.2597
946.03143
945.78118
945.50483
945.19774
944.85466
944.46972
944.03633
943.54713
942.99396
942.36776
941.65855
940.85536
939.94622
938.91798
937.75645
936.44627
934.97097
933.31291
931.45336
929.37251
927.04954
924.46273
921.58956
918.40687
914.89108
911.01845
906.76597
902.10872
897.02358
891.4889
885.48841
950.56173
950.43958
950.3123
950.17922
950.04223
949.9025
949.76094
949.61833
949.47529
949.3322
949.18926
949.04645
948.90362
948.76042
948.61636
948.47076
948.32275
948.17128
948.01506
947.85256
947.682
947.50129
947.30802
947.0994
946.87228
946.62301
946.34749
946.04107
945.69849
945.31387
944.8806
944.39132
943.83786
943.21113
942.50113
941.69692
940.78639
939.75649
938.59295
937.28041
935.80235
934.14113
932.27797
930.19303
927.86548
925.27354
922.3947
919.20573
915.68305
911.80281
907.54233
902.87609
897.78166
892.23741
886.22294
951.23588
951.11722
950.99331
950.86352
950.72973
950.59309
950.45444
950.31461
950.17426
950.03377
949.89333
949.75293
949.61239
949.47139
949.32942
949.18581
949.03968
948.88998
948.73541
948.57447
948.40535
948.22596
948.03389
947.82637
947.6002
947.35177
947.07695
946.77109
946.42893
946.04457
945.6114
945.12204
944.56831
943.94111
943.23044
942.42523
941.51362
940.48229
939.31703
938.00246
936.52205
934.85811
932.99186
930.90343
928.57195
925.97564
923.09194
919.89759
916.3689
912.48206
908.21483
903.54068
898.43821
892.8851
886.85813
880.342
951.81356
951.69779
951.5767
951.4497
951.31865
951.18463
951.04843
950.91094
950.77285
950.63456
950.49624
950.35787
950.21929
950.08015
949.93995
949.79801
949.65347
949.50526
949.3521
949.19245
949.02454
948.84626
948.65521
948.44859
948.22323
947.97549
947.70126
947.39586
947.05404
946.66988
946.23678
945.74734
945.19337
944.56577
943.85451
943.04856
942.13592
941.10337
939.93665
938.62037
937.13796
935.47173
933.60287
931.51149
929.17671
926.57668
923.68881
920.48992
916.95625
913.0639
908.79082
904.10997
899.00064
893.4392
887.40229
880.87158
952.30169
952.18823
952.06942
951.94477
951.81602
951.6842
951.55002
951.41444
951.27822
951.14176
951.0052
950.86854
950.73158
950.59399
950.45526
950.31471
950.17148
950.02451
949.8725
949.71393
949.54701
949.36964
949.17941
948.97354
948.74883
948.50166
948.22789
947.92286
947.5813
947.1973
946.76424