/*--------------------------------*- C++ -*----------------------------------*\
| =========                 |                                                 |
| \\      /  F ield         | OpenFOAM: The Open Source CFD Toolbox           |
|  \\    /   O peration     | Version:  2312                                  |
|   \\  /    A nd           | Website:  www.openfoam.com                      |
|    \\/     M anipulation  |                                                 |
\*---------------------------------------------------------------------------*/
FoamFile
{
    version     2.0;
    format      ascii;
    arch        "LSB;label=32;scalar=64";
    class       volScalarField;
    location    "0.09";
    object      alphat;
}
// * * * * * * * * * * * * * * * * * * * * * * * * * * * * * * * * * * * * * //

dimensions      [1 -1 -1 0 0 0 0];

internalField   nonuniform List<scalar> 
3250
(
0.019662425
0.01966863
0.019675995
0.019684661
0.019694767
0.019706446
0.019719832
0.019735055
0.019752243
0.019771526
0.019793029
0.019816881
0.019843209
0.019872139
0.0199038
0.019938322
0.019975832
0.020016463
0.020060346
0.020107614
0.0201584
0.02021284
0.020271071
0.020333229
0.020399453
0.020469881
0.020544653
0.02062391
0.020707792
0.02079644
0.020889995
0.020988597
0.021092387
0.021201504
0.021316088
0.021436275
0.021562204
0.021694008
0.021831822
0.021975778
0.022126006
0.022282633
0.022445787
0.02261559
0.022792146
0.022975574
0.023166002
0.023363546
0.023568321
0.019662402
0.019668624
0.019676005
0.019684688
0.019694811
0.019706508
0.019719911
0.019735152
0.019752358
0.019771659
0.019793181
0.019817051
0.019843396
0.019872345
0.019904024
0.019938563
0.019976092
0.02001674
0.020060641
0.020107926
0.02015873
0.020213188
0.020271436
0.020333611
0.020399851
0.020470296
0.020545085
0.020624359
0.020708257
0.020796921
0.020890492
0.02098911
0.021092916
0.021202048
0.021316647
0.02143685
0.021562793
0.021694612
0.021832441
0.021976411
0.022126652
0.022283293
0.022446459
0.022616272
0.022792841
0.022976285
0.023166728
0.023364283
0.023569067
0.019662361
0.019668617
0.019676032
0.01968475
0.019694908
0.019706641
0.019720081
0.019735359
0.019752603
0.019771941
0.019793501
0.019817409
0.019843792
0.019872779
0.019904496
0.019939073
0.019976639
0.020017325
0.020061262
0.020108585
0.020159425
0.020213919
0.020272203
0.020334414
0.02040069
0.020471171
0.020545995
0.020625303
0.020709235
0.020797933
0.020891537
0.020990188
0.021094026
0.021203191
0.021317821
0.021438055
0.021564029
0.021695879
0.021833737
0.021977736
0.022128006
0.022284675
0.022447868
0.022617705
0.022794301
0.022977774
0.023168243
0.023365822
0.023570627
0.019662304
0.01966861
0.019676077
0.019684848
0.01969506
0.019706848
0.019720344
0.019735678
0.019752979
0.019772375
0.019793992
0.019817957
0.019844399
0.019873443
0.019905217
0.019939852
0.019977475
0.020018218
0.020062212
0.020109591
0.020160488
0.020215037
0.020273376
0.020335642
0.020401972
0.020472506
0.020547383
0.020626743
0.020710728
0.020799477
0.020893132
0.020991833
0.02109572
0.021204934
0.021319612
0.021439893
0.021565914
0.021697809
0.021835712
0.021979755
0.022130069
0.022286779
0.022450012
0.022619889
0.022796525
0.022980039
0.023170547
0.023368163
0.023573001
0.019662232
0.019668605
0.019676142
0.019684984
0.019695268
0.01970713
0.019720701
0.019736111
0.019753489
0.019772961
0.019794656
0.019818699
0.019845217
0.019874339
0.019906191
0.019940903
0.019978603
0.020019422
0.020063493
0.020110947
0.020161919
0.020216543
0.020274956
0.020337295
0.020403698
0.020474304
0.020549252
0.020628683
0.020712737
0.020801555
0.020895278
0.020994046
0.021097999
0.021207278
0.021322021
0.021442365
0.021568448
0.021700404
0.021838367
0.02198247
0.02213284
0.022289607
0.022452895
0.022622825
0.022799515
0.022983082
0.023173642
0.023371307
0.023576192
0.019662153
0.019668606
0.019676224
0.01968515
0.019695521
0.01970747
0.01972113
0.019736629
0.019754097
0.019773661
0.019795446
0.019819581
0.019846192
0.019875405
0.019907349
0.019942151
0.019979943
0.020020853
0.020065013
0.020112557
0.020163618
0.02021833
0.020276831
0.020339257
0.020405746
0.020476436
0.020551469
0.020630983
0.020715119
0.020804019
0.020897822
0.020996669
0.021100701
0.021210056
0.021324875
0.021445294
0.02157145
0.021703478
0.021841513
0.021985684
0.022136123
0.022292957
0.02245631
0.022626303
0.022803056
0.022986685
0.023177306
0.023375029
0.02357997
0.019662071
0.019668613
0.019676323
0.019685344
0.019695811
0.019707858
0.019721618
0.019737218
0.019754787
0.019774453
0.019796341
0.019820579
0.019847292
0.019876609
0.019908655
0.019943561
0.019981454
0.020022466
0.020066728
0.020114372
0.020165533
0.020220344
0.020278943
0.020341466
0.020408052
0.020478838
0.020553965
0.020633573
0.020717802
0.020806792
0.020900685
0.020999621
0.021103741
0.021213183
0.021328086
0.021448589
0.021574827
0.021706937
0.02184505
0.0219893
0.022139815
0.022296723
0.022460149
0.022630214
0.022807038
0.022990736
0.023181425
0.023379213
0.023584217
0.019661982
0.01966863
0.01967645
0.019685582
0.019696164
0.019708328
0.019722206
0.019737926
0.019755616
0.019775403
0.019797413
0.019821773
0.019848608
0.019878047
0.019910216
0.019945243
0.019983258
0.020024391
0.020068773
0.020116536
0.020167816
0.020222745
0.020281461
0.0203441
0.0204108
0.020481699
0.020556939
0.020636657
0.020720996
0.020810095
0.020904095
0.021003136
0.021107359
0.021216904
0.021331908
0.02145251
0.021578846
0.021711052
0.021849259
0.021993602
0.022144207
0.022301204
0.022464717
0.022634867
0.022811774
0.022995554
0.023186323
0.023384188
0.023589268
0.019661888
0.01966866
0.019676608
0.019685872
0.019696588
0.019708889
0.019722905
0.019738765
0.019756596
0.019776525
0.019798678
0.01982318
0.019850159
0.019879741
0.019912053
0.019947222
0.019985379
0.020026653
0.020071176
0.020119079
0.020170497
0.020225564
0.020284416
0.02034719
0.020414024
0.020485057
0.020560427
0.020640276
0.020724742
0.020813968
0.020908093
0.021007257
0.021111602
0.021221266
0.021336388
0.021457106
0.021583557
0.021715874
0.021854192
0.021998642
0.022149353
0.022306454
0.022470068
0.022640318
0.022817322
0.023001198
0.02319206
0.023390016
0.023595184
0.019661794
0.01966871
0.019676806
0.019686222
0.019697093
0.019709552
0.019723728
0.019739749
0.019757743
0.019777837
0.019800154
0.019824822
0.019851966
0.019881713
0.01991419
0.019949524
0.019987845
0.020029282
0.020073967
0.020122031
0.02017361
0.020228836
0.020287845
0.020350776
0.020417764
0.02048895
0.020564472
0.02064447
0.020729084
0.020818456
0.020912725
0.021012032
0.021116517
0.021226319
0.021341578
0.021462429
0.021589011
0.021721458
0.021859902
0.022004477
0.022155311
0.022312531
0.022476262
0.022646626
0.022823743
0.023007729
0.023198698
0.023396759
0.023602029
0.019661704
0.019668785
0.019677051
0.019686641
0.01969769
0.01971033
0.019724689
0.019740896
0.019759076
0.019779357
0.019801863
0.01982672
0.019854053
0.019883989
0.019916654
0.019952177
0.019990685
0.020032308
0.020077179
0.020125428
0.020177189
0.020232597
0.020291786
0.020354895
0.020422061
0.020493421
0.020569116
0.020649285
0.020734069
0.020823608
0.020918041
0.021017511
0.021122156
0.021232116
0.02134753
0.021468534
0.021595266
0.02172786
0.02186645
0.022011167
0.02216214
0.022319497
0.022483362
0.022653857
0.022831102
0.023015214
0.023206306
0.023404486
0.023609873
0.019661627
0.019668896
0.019677355
0.019687143
0.019698393
0.019711238
0.019725805
0.019742222
0.019760614
0.019781108
0.019803827
0.019828899
0.019856446
0.019886596
0.019919475
0.019955211
0.019993931
0.020035767
0.020080847
0.020129305
0.020181274
0.020236887
0.020296281
0.020359592
0.020426958
0.020498517
0.020574408
0.020654771
0.020739746
0.020829474
0.020924094
0.021023748
0.021128574
0.021238713
0.021354303
0.02147548
0.021602383
0.021735144
0.021873898
0.022018776
0.022169907
0.022327419
0.022491435
0.022662079
0.022839469
0.023023723
0.023214953
0.023413269
0.023618788
0.019661571
0.019669051
0.019677728
0.019687739
0.019699218
0.019712294
0.019727095
0.019743748
0.019762379
0.019783113
0.019806073
0.019831385
0.019859174
0.019889565
0.019922685
0.019958661
0.019997621
0.020039694
0.020085011
0.020133704
0.020185906
0.020241751
0.020301375
0.020364913
0.020432504
0.020504286
0.020580398
0.020660979
0.02074617
0.02083611
0.020930941
0.021030801
0.021135832
0.021246172
0.021361959
0.021483331
0.021610425
0.021743374
0.021882313
0.022027372
0.022178681
0.022336367
0.022500554
0.022671364
0.022848918
0.023033331
0.023224718
0.023423185
0.023628852
0.019661547
0.019669265
0.019678187
0.019688448
0.019700182
0.019713517
0.019728581
0.019745499
0.019764397
0.019785399
0.019808629
0.019834211
0.01986227
0.019892931
0.01992632
0.019962564
0.020001791
0.020044131
0.020089712
0.020138668
0.020191131
0.020247235
0.020307116
0.020370909
0.020438752
0.020510783
0.020587142
0.020667967
0.020753398
0.020843576
0.020938641
0.021038733
0.021143992
0.021254556
0.021370565
0.021492155
0.021619462
0.021752622
0.021891767
0.022037029
0.022188536
0.022346416
0.022510794
0.022681791
0.022859527
0.023044118
0.023235679
0.023434316
0.023640149
0.019661569
0.019669553
0.019678748
0.019689289
0.019701308
0.019714932
0.019730288
0.019747502
0.019766697
0.019787998
0.019811528
0.01983741
0.01986577
0.019896731
0.019930419
0.019966962
0.020006487
0.020049122
0.020094998
0.020144246
0.020197
0.020253392
0.020313558
0.020377634
0.020445757
0.020518066
0.020594698
0.020675794
0.020761493
0.020851936
0.020947262
0.021047611
0.021153123
0.021263937
0.021380191
0.021502023
0.021629568
0.021762962
0.021902336
0.022047823
0.022199551
0.022357647
0.022522237
0.022693441
0.02287138
0.023056169
0.023247923
0.02344675
0.023652766
0.019661656
0.019669935
0.019679434
0.019690285
0.01970262
0.019716565
0.019732246
0.019749787
0.019769312
0.019790944
0.019814806
0.019841021
0.019869713
0.019901007
0.019935027
0.0199719
0.020011754
0.020054717
0.020100919
0.020150491
0.020203565
0.020260276
0.020320758
0.020385147
0.02045358
0.020526196
0.020603132
0.020684527
0.020770523
0.020861258
0.020956872
0.021057506
0.021163298
0.021274389
0.021390915
0.021513014
0.021640822
0.021774474
0.021914102
0.022059837
0.02221181
0.022370145
0.022534969
0.022706402
0.022884565
0.023069574
0.023261542
0.023460577
0.023666797
0.019661828
0.019670434
0.019680269
0.019691464
0.019704148
0.019718448
0.019734487
0.01975239
0.019772278
0.019794276
0.019818504
0.019845086
0.019874145
0.019905806
0.019940192
0.019977429
0.020017646
0.02006097
0.020107531
0.020157459
0.020210888
0.02026795
0.02032878
0.020393514
0.020462288
0.020535241
0.020612511
0.020694237
0.020780559
0.020871616
0.020967548
0.021068496
0.021174597
0.021285991
0.021402817
0.021525211
0.021653308
0.021787245
0.021927152
0.022073162
0.022225402
0.022384001
0.022549083
0.022720769
0.022899179
0.023084429
0.023276632
0.023475897
0.023682341
0.019662112
0.019671079
0.019681284
0.019692858
0.019705927
0.019720617
0.01973705
0.019755351
0.019775639
0.019798038
0.019822669
0.019849655
0.019879117
0.019911179
0.019945967
0.019983605
0.02002422
0.02006794
0.020114895
0.020165214
0.020219031
0.020276479
0.020337691
0.020402803
0.020471952
0.020545276
0.020622913
0.020705001
0.020791681
0.020883091
0.020979372
0.021080663
0.021187103
0.021298831
0.021415985
0.021538702
0.021667117
0.021801365
0.021941579
0.022087889
0.022240425
0.022399313
0.022564677
0.02273664
0.022915321
0.023100835
0.023293297
0.023492813
0.023699503
0.019662538
0.019671901
0.019682514
0.019694504
0.019707996
0.019723114
0.01973998
0.019758716
0.019779443
0.019802282
0.019827354
0.01985478
0.019884683
0.019917186
0.019952413
0.019990488
0.020031539
0.020075692
0.020123078
0.020173826
0.020228067
0.020285936
0.020347565
0.020413091
0.02048265
0.020556379
0.020634416
0.020716901
0.020803971
0.020895768
0.02099243
0.021094096
0.021200907
0.021313
0.021430513
0.021553582
0.021682345
0.021816934
0.021957482
0.022104121
0.022256979
0.022416182
0.022581856
0.022754121
0.022933098
0.023118901
0.023311645
0.023511437
0.023718395
0.019654468
0.019663141
0.019672942
0.019684002
0.019696448
0.019710402
0.019725988
0.019743327
0.019762538
0.019783744
0.019807062
0.019832615
0.019860523
0.019890907
0.01992389
0.019959595
0.019998148
0.020039673
0.020084299
0.020132154
0.020183368
0.020238072
0.0202964
0.020358484
0.020424461
0.020494466
0.020568636
0.02064711
0.020730026
0.020817523
0.02090974
0.021006817
0.021108892
0.021216106
0.021328596
0.0214465
0.021569954
0.021699095
0.021834055
0.021974968
0.022121965
0.022275173
0.02243472
0.02260073
0.022773325
0.022952623
0.023138742
0.023331793
0.023531885
0.023739134
0.019654825
0.019663968
0.019674249
0.019685799
0.019698741
0.0197132
0.019729296
0.019747149
0.019766879
0.019788604
0.019812445
0.019838521
0.019866952
0.019897859
0.019931363
0.019967589
0.02000666
0.020048701
0.02009384
0.020142205
0.020193925
0.020249132
0.020307957
0.020370536
0.020437002
0.020507491
0.020582141
0.020661089
0.020744473
0.020832432
0.020925106
0.021022633
0.021125153
0.021232805
0.021345726
0.021464054
0.021587926
0.021717477
0.02185284
0.021994149
0.022141534
0.022295123
0.022455043
0.022621418
0.022794371
0.022974019
0.023160479
0.023353863
0.023554281
0.023761848
0.019655423
0.019665076
0.019675879
0.019687961
0.019701445
0.019716452
0.019733102
0.019751513
0.019771805
0.019794095
0.019818502
0.019845145
0.019874143
0.019905616
0.019939686
0.019976476
0.020016108
0.020058708
0.020104402
0.020153319
0.020205587
0.020261338
0.020320703
0.020383816
0.020450812
0.020521825
0.020596994
0.020676455
0.020760346
0.020848806
0.020941974
0.021039989
0.02114299
0.021251115
0.021364503
0.02148329
0.021607614
0.021737608
0.021873408
0.022015145
0.02216295
0.022316951
0.022477275
0.022644046
0.022817385
0.022997411
0.023184241
0.023377986
0.023578756
0.023786667
0.019656324
0.019666529
0.0196779
0.01969056
0.019704631
0.019720232
0.019737481
0.019756497
0.019777397
0.019800298
0.019825317
0.019852572
0.019882183
0.019914268
0.019948948
0.019986346
0.020026584
0.020069788
0.020116082
0.020165594
0.020218454
0.020274792
0.02033474
0.02039843
0.020465997
0.020537577
0.020613305
0.020693319
0.020777758
0.020866758
0.020960459
0.021059001
0.02116252
0.021271157
0.021385048
0.021504331
0.021629142
0.021759615
0.021895886
0.022038085
0.022186344
0.022340789
0.022501549
0.022668746
0.022842502
0.023022936
0.023210164
0.023404299
0.02360545
0.023813733
0.019647841
0.019657596
0.019668404
0.01968039
0.019693675
0.01970838
0.019724623
0.01974252
0.019762188
0.019783744
0.019807302
0.019832981
0.019860897
0.019891167
0.019923912
0.01995925
0.019997303
0.020038193
0.020082046
0.020128985
0.020179139
0.020232636
0.020289606
0.02035018
0.020414491
0.020482674
0.020554862
0.020631193
0.020711803
0.02079683
0.020886411
0.020980687
0.021079794
0.021183872
0.021293058
0.021407491
0.021527307
0.021652643
0.021783632
0.021920409
0.022063105
0.022211851
0.022366775
0.022528003
0.022695659
0.022869863
0.023050736
0.023238393
0.023432947
0.023634508
0.023843193
0.019648939
0.019659333
0.019670792
0.019683441
0.019697401
0.019712789
0.019729723
0.019748317
0.019768687
0.019790947
0.019815213
0.019841601
0.019870226
0.019901205
0.019934657
0.019970701
0.020009457
0.020051048
0.020095598
0.02014323
0.020194073
0.020248253
0.020305901
0.020367147
0.020432125
0.020500967
0.020573809
0.020650786
0.020732035
0.020817693
0.020907899
0.02100279
0.021102504
0.021207181
0.021316958
0.021431972
0.02155236
0.021678258
0.0218098
0.021947121
0.022090351
0.02223962
0.022395057
0.022556787
0.022724935
0.022899621
0.023080964
0.02326908
0.023464083
0.023666083
0.023875202
0.019650563
0.019661642
0.019673802
0.019687164
0.019701848
0.01971797
0.019735645
0.019754986
0.019776108
0.019799124
0.019824148
0.019851295
0.019880679
0.019912418
0.019946627
0.019983427
0.020022936
0.020065277
0.020110572
0.020158945
0.020210524
0.020265436
0.020323809
0.020385775
0.020451465
0.020521014
0.020594554
0.020672223
0.020754156
0.02084049
0.020931363
0.021026912
0.021127277
0.021232595
0.021343003
0.021458638
0.021579639
0.021706139
0.021838273
0.021976175
0.022119975
0.022269804
0.02242579
0.022588058
0.022756732
0.022931932
0.023113778
0.023302386
0.023497868
0.023700337
0.019652836
0.019664649
0.019677558
0.019691684
0.019707144
0.019724051
0.019742518
0.019762658
0.019784584
0.019808407
0.019834241
0.019862198
0.019892393
0.019924941
0.019959959
0.019997565
0.020037878
0.020081018
0.020127109
0.020176273
0.020228638
0.020284329
0.020343477
0.02040621
0.020472661
0.020542963
0.020617249
0.020695655
0.020778317
0.020865372
0.020956957
0.02105321
0.021154268
0.021260269
0.021371351
0.02148765
0.021609303
0.021736445
0.021869211
0.022007733
0.022152142
0.022302569
0.02245914
0.022621981
0.022791217
0.022966966
0.023149349
0.023338479
0.023534471
0.023737436
0.019655903
0.019668499
0.019682209
0.019697149
0.019713436
0.019731179
0.019750491
0.019771482
0.019794263
0.019818946
0.019845641
0.01987446
0.019905518
0.019938928
0.019974806
0.02001327
0.020054437
0.020098428
0.020145365
0.020195371
0.020248571
0.020305092
0.020365063
0.020428612
0.020495872
0.020566975
0.020642054
0.020721245
0.020804683
0.020892505
0.020984847
0.021081848
0.021183643
0.021290372
0.02140217
0.021519176
0.021641524
0.021769349
0.021902787
0.022041968
0.022187026
0.022338088
0.022495282
0.022658733
0.022828565
0.023004899
0.023187851
0.023377538
0.023574071
0.023777564
0.019659937
0.019673365
0.019687925
0.019703731
0.019720894
0.019739525
0.019759733
0.019781627
0.019805316
0.01983091
0.019858518
0.019888253
0.019920225
0.019954549
0.019991339
0.020030712
0.020072785
0.020117678
0.020165512
0.02021641
0.020270496
0.020327897
0.02038874
0.020453155
0.020521273
0.020593226
0.020669146
0.020749169
0.02083343
0.020922066
0.021015211
0.021113005
0.021215583
0.021323083
0.021435642
0.021553396
0.021676481
0.021805032
0.021939182
0.022079064
0.022224808
0.022376544
0.022534399
0.022698498
0.022868964
0.023045916
0.023229474
0.02341975
0.023616857
0.02382091
0.019665139
0.019679447
0.019694906
0.019711626
0.019729716
0.019749286
0.01977044
0.019793288
0.019817936
0.019844492
0.019873066
0.019903766
0.019936705
0.019971994
0.020009748
0.020050082
0.020093112
0.020138958
0.02018774
0.02023958
0.020294603
0.020352933
0.020414699
0.020480029
0.020549054
0.020621904
0.020698714
0.020779617
0.020864749
0.020954244
0.021048239
0.021146871
0.021250277
0.021358593
0.021471956
0.021590502
0.021714367
0.021843685
0.021978589
0.022119211
0.022265683
0.022418132
0.022576686
0.02274147
0.022912605
0.023090213
0.02327441
0.02346531
0.023663024
0.02386767
0.019671745
0.019686978
0.019703381
0.019721062
0.019740128
0.019760683
0.019782833
0.019806684
0.01983234
0.019859909
0.019889498
0.019921215
0.019955171
0.019991476
0.020030244
0.020071588
0.020115626
0.020162476
0.020212256
0.020265089
0.020321097
0.020380407
0.020443145
0.020509439
0.020579419
0.020653216
0.020730963
0.020812793
0.020898842
0.020989243
0.021084134
0.021183651
0.021287929
0.021397106
0.021511317
0.021630698
0.021755385
0.021885512
0.022021211
0.022162615
0.022309854
0.022463055
0.022622347
0.022787852
0.022959694
0.023137993
0.023322864
0.023514423
0.023712778
0.023918048
0.019680028
0.019696227
0.019713616
0.019732301
0.019752386
0.019773972
0.019797164
0.019822064
0.019848776
0.019877405
0.019908057
0.01994084
0.01997586
0.02001323
0.020053061
0.020095466
0.02014056
0.020188461
0.020239289
0.020293163
0.020350206
0.020410544
0.020474301
0.020541607
0.02061259
0.020687381
0.020766112
0.020848917
0.020935929
0.021027283
0.021123115
0.021223561
0.021328756
0.021438837
0.02155394
0.0216742
0.021799751
0.021930728
0.022067264
0.022209489
0.022357533
0.022511526
0.022671593
0.022837858
0.023010443
0.023189468
0.023375048
0.023567298
0.023766328
0.023972255
0.019690303
0.019707503
0.019725914
0.019745641
0.019766784
0.019789443
0.019813718
0.01983971
0.019867521
0.019897254
0.019929014
0.019962906
0.019999038
0.020037518
0.020078458
0.020121969
0.020168167
0.020217167
0.020269088
0.02032405
0.020382175
0.020443587
0.020508411
0.020576775
0.020648807
0.020724638
0.020804399
0.020888223
0.020976244
0.021068595
0.021165413
0.021266831
0.021372987
0.021484016
0.021600053
0.021721232
0.02184769
0.021979558
0.02211697
0.022260056
0.022408946
0.022563767
0.022724647
0.022891708
0.023065071
0.023244857
0.023431181
0.023624156
0.023823892
0.024030508
0.019702933
0.01972116
0.019740623
0.019761423
0.019783656
0.019807421
0.019832815
0.019859936
0.019888885
0.019919761
0.019952669
0.019987712
0.020024997
0.02006463
0.020106721
0.020151382
0.020198726
0.020248868
0.020301927
0.020358021
0.020417271
0.020479802
0.020545736
0.020615203
0.020688328
0.020765243
0.020846077
0.020930964
0.021020037
0.021113428
0.021211274
0.021313708
0.021420866
0.021532884
0.021649895
0.021772036
0.021899439
0.022032238
0.022170565
0.02231455
0.022464323
0.02262001
0.022781738
0.022949631
0.023123808
0.023304389
0.023491489
0.023685222
0.023885696
0.02409303
0.019718332
0.019737601
0.019758135
0.01978003
0.019803379
0.019828276
0.019854817
0.019883098
0.019913215
0.019945268
0.019979358
0.020015588
0.02005406
0.020094883
0.020138163
0.020184012
0.020232542
0.020283866
0.020338102
0.020395368
0.020455784
0.020519473
0.020586559
0.020657169
0.020731428
0.020809467
0.020891417
0.020977407
0.021067572
0.021162044
0.021260958
0.021364447
0.021472648
0.021585694
0.021703719
0.021826859
0.021955246
0.022089014
0.022228293
0.022373214
0.022523905
0.022680494
0.022843106
0.023011863
0.023186887
0.023368295
0.023556203
0.023750724
0.023951966
0.024160048
0.01973697
0.019757284
0.019778896
0.019801896
0.019826374
0.019852421
0.019880128
0.019909589
0.019940898
0.019974152
0.020009451
0.020046894
0.020086585
0.020128628
0.020173129
0.020220198
0.020269946
0.020322486
0.020377934
0.020436407
0.020498025
0.020562909
0.020631183
0.020702971
0.020778402
0.020857603
0.020940704
0.021027835
0.02111913
0.02121472
0.021314739
0.021419321
0.0215286
0.021642711
0.021761787
0.021885962
0.022015369
0.02215014
0.022290406
0.022436297
0.02258794
0.022745464
0.022908992
0.023078646
0.023254548
0.023436814
0.02362556
0.023820898
0.024022936
0.024231792
0.019759377
0.019780722
0.019803405
0.019827506
0.019853114
0.019880314
0.019909195
0.019939846
0.01997236
0.020006831
0.020043355
0.020082032
0.020122961
0.020166246
0.020211991
0.020260306
0.020311298
0.020365081
0.020421769
0.020481478
0.020544327
0.020610437
0.020679929
0.020752929
0.020829563
0.020909958
0.020994242
0.021082548
0.021175005
0.021271746
0.021372903
0.021478611
0.021589002
0.021704211
0.02182437
0.021949613
0.022080072
0.022215878
0.022357163
0.022504055
0.022656682
0.022815171
0.022979644
0.023150225
0.023327033
0.023510186
0.023699797
0.023895978
0.024098838
0.024308493
0.019786154
0.019808484
0.019832218
0.0198574
0.019884123
0.019912465
0.019942512
0.019974351
0.020008069
0.02004376
0.020081516
0.020121434
0.020163612
0.020208152
0.020255156
0.020304732
0.020356986
0.020412031
0.020469979
0.020530946
0.020595048
0.020662406
0.020733142
0.020807378
0.02088524
0.020966855
0.021052351
0.021141857
0.021235505
0.021333424
0.021435749
0.02154261
0.021654142
0.021770477
0.021891748
0.022018087
0.022149627
0.022286497
0.022428829
0.02257675
0.022730388
0.022889868
0.023055314
0.023226847
0.023404587
0.02358865
0.023779151
0.023976199
0.024179903
0.02439038
0.019818062
0.019841187
0.019865955
0.019892169
0.019919977
0.019949433
0.019980624
0.02001363
0.020048539
0.020085438
0.020124417
0.020165572
0.020208997
0.020254792
0.020303059
0.020353901
0.020407425
0.020463741
0.020522959
0.020585196
0.020650565
0.020719187
0.020791182
0.020866672
0.02094578
0.021028635
0.021115361
0.021206089
0.021300948
0.021400069
0.021503582
0.02161162
0.021724315
0.0218418
0.021964206
0.022091665
0.022224309
0.022362266
0.022505668
0.022654642
0.022809313
0.022969808
0.023136249
0.023308757
0.023487451
0.023672446
0.023863856
0.024061791
0.024266359
0.024477675
0.019855661
0.019879718
0.019905398
0.019932454
0.019961308
0.019991826
0.020024119
0.020058256
0.020094322
0.020132402
0.020172582
0.020214953
0.020259609
0.020306647
0.020356165
0.020408266
0.020463054
0.020520638
0.020581127
0.020644635
0.020711275
0.020781166
0.020854426
0.020931178
0.021011543
0.021095647
0.021183617
0.021275579
0.021371663
0.021471998
0.021576716
0.021685947
0.021799822
0.021918473
0.022042031
0.022170628
0.022304393
0.022443456
0.022587946
0.02273799
0.022893714
0.023055241
0.023222695
0.023396195
0.023575859
0.023761802
0.023954138
0.024152976
0.024358422
0.024570592
0.019899705
0.019924593
0.019951114
0.019979124
0.020008916
0.020040296
0.020073633
0.020108843
0.020146014
0.020185227
0.020226565
0.020270116
0.020315971
0.020364222
0.020414966
0.020468304
0.020524338
0.020583174
0.02064492
0.020709688
0.020777591
0.020848744
0.020923266
0.021001276
0.021082897
0.021168252
0.021257466
0.021350667
0.021447981
0.021549538
0.021655467
0.021765898
0.021880962
0.022000789
0.022125509
0.022255254
0.022390152
0.022530332
0.022675922
0.022827048
0.022983835
0.023146408
0.023314886
0.023489389
0.023670036
0.02385694
0.024050213
0.024249964
0.024456299
0.024669332
0.019951085
0.01997663
0.020003858
0.020032718
0.020063357
0.020095687
0.02012997
0.020166041
0.020204243
0.020244523
0.020286957
0.020331631
0.020378632
0.020428049
0.020479977
0.020534513
0.020591757
0.020651814
0.020714789
0.020780793
0.020849936
0.020922332
0.020998099
0.021077354
0.021160218
0.021246813
0.021337264
0.021431695
0.021530234
0.021633009
0.021740146
0.021851777
0.021968029
0.022089033
0.022214918
0.022345814
0.022481848
0.022623149
0.022769843
0.022922056
0.023079913
0.023243535
0.023413043
0.023588556
0.023770191
0.02395806
0.024152275
0.024352944
0.024560173
0.024774073
0.020010729
0.020036746
0.020064474
0.020094045
0.020125378
0.020158542
0.020193658
0.020230659
0.020269805
0.020310924
0.020354369
0.020400088
0.020448164
0.02049868
0.02055173
0.020607406
0.020665807
0.020727036
0.020791196
0.020858394
0.020928739
0.021002345
0.021079325
0.021159796
0.021243878
0.021331691
0.021423357
0.021519001
0.021618748
0.021722725
0.021831059
0.021943877
0.022061308
0.02218348
0.022310522
0.022442562
0.022579727
0.022722144
0.022869939
0.023023236
0.023182159
0.023346829
0.023517366
0.023693887
0.023876508
0.024065342
0.024260498
0.024462084
0.024670204
0.02488497
0.020079547
0.020105833
0.020133941
0.020163921
0.020195767
0.020229625
0.020265423
0.020303233
0.02034318
0.020385196
0.02042957
0.020476088
0.020525149
0.020576671
0.020630762
0.020687499
0.020746985
0.020809317
0.020874599
0.020942933
0.021014428
0.021089192
0.021167339
0.021248983
0.021334242
0.021423235
0.021516083
0.021612908
0.021713834
0.021818986
0.021928491
0.022042474
0.022161062
0.022284383
0.022412564
0.022545732
0.022684013
0.022827532
0.022976415
0.023130784
0.023290762
0.02345647
0.023628025
0.023805545
0.023989143
0.024178932
0.02437502
0.024577514
0.024786517
0.025002139
0.020158468
0.020184782
0.020213035
0.020243256
0.020275464
0.020309711
0.020345996
0.020384466
0.020425058
0.020467846
0.020512976
0.020560346
0.020610307
0.02066257
0.020717614
0.020775303
0.02083578
0.020899127
0.020965448
0.021034842
0.021107413
0.021183268
0.021262517
0.021345275
0.021431655
0.021521775
0.021615755
0.021713714
0.021815776
0.021922064
0.022032701
0.022147813
0.022267526
0.022391965
0.022521255
0.022655524
0.022794894
0.022939491
0.023089438
0.023244858
0.023405871
0.023572596
0.02374515
0.02392365
0.024108208
0.024298935
0.024495939
0.024699324
0.024909193
0.025125655
0.020248411
0.02027448
0.02030262
0.020332846
0.020365174
0.02039963
0.020436241
0.020475059
0.020516097
0.020559496
0.020605226
0.020653322
0.020703975
0.020757039
0.020812926
0.020871294
0.020932659
0.020996906
0.021064166
0.021134523
0.021208078
0.021284936
0.021365207
0.021449
0.021536428
0.021627606
0.021722652
0.021821685
0.021924824
0.022032191
0.02214391
0.022260102
0.022380892
0.022506405
0.022636763
0.022772092
0.022912515
0.023058154
0.023209132
0.023365569
0.023527585
0.023695298
0.023868823
0.024048275
0.024233766
0.024425404
0.024623297
0.024827549
0.025038259
0.025255536
0.020350248
0.020375768
0.020403507
0.020433467
0.020465653
0.020500078
0.020536765
0.020575745
0.020617047
0.020660717
0.020706915
0.020755538
0.020806716
0.020860471
0.02091692
0.020976115
0.021038111
0.021103043
0.021171136
0.021242336
0.021316762
0.021394517
0.021475707
0.021560438
0.021648823
0.021740973
0.021837003
0.02193703
0.022041173
0.02214955
0.022262282
0.022379491
0.022501298
0.022627827
0.022759199
0.022895536
0.023036961
0.023183594
0.023335557
0.023492967
0.023655944
0.023824603
0.02399906
0.024179426
0.024365812
0.024558326
0.024757073
0.024962156
0.025173674
0.025391732
0.02046476
0.020489397
0.020516422
0.020545816
0.020577574
0.020611696
0.020648196
0.020687096
0.020728423
0.02077222
0.020818546
0.020867407
0.020918978
0.020973189
0.021030126
0.021089869
0.021152446
0.021218112
0.021286699
0.021358577
0.021433738
0.021512262
0.021594249
0.021679804
0.021769035
0.021862052
0.021958966
0.022059893
0.022164948
0.022274248
0.022387912
0.022506059
0.022628808
0.02275628
0.022888596
0.023025876
0.02316824
0.023315807
0.023468696
0.023627024
0.023790908
0.023960462
0.024135799
0.02431703
0.024504264
0.024697607
0.024897163
0.025103033
0.025315315
0.025534111
0.020571725
0.020592554
0.020615978
0.020641959
0.020670469
0.020701489
0.020735011
0.020771039
0.020809584
0.020850669
0.020894324
0.020940588
0.020989494
0.021041097
0.021095569
0.021152803
0.021212894
0.021275914
0.021342023
0.021411121
0.021483616
0.021559184
0.02163833
0.021720974
0.021807218
0.021897167
0.021990928
0.022088609
0.022190323
0.022296183
0.022406303
0.0225208
0.022639791
0.022763392
0.022891722
0.023024899
0.023163042
0.023306268
0.023454695
0.023608439
0.023767616
0.023932341
0.024102725
0.024278881
0.024460917
0.02464894
0.024843055
0.025043365
0.025249967
0.025462959
0.025682441
0.020715015
0.020734079
0.020755939
0.020780533
0.020807822
0.020837779
0.020870386
0.020905637
0.020943535