/*--------------------------------*- C++ -*----------------------------------*\
| =========                 |                                                 |
| \\      /  F ield         | OpenFOAM: The Open Source CFD Toolbox           |
|  \\    /   O peration     | Version:  2312                                  |
|   \\  /    A nd           | Website:  www.openfoam.com                      |
|    \\/     M anipulation  |                                                 |
\*---------------------------------------------------------------------------*/
FoamFile
{
    version     2.0;
    format      ascii;
    arch        "LSB;label=32;scalar=64";
    class       volScalarField;
    location    "0.09";
    object      CO2;
}
// * * * * * * * * * * * * * * * * * * * * * * * * * * * * * * * * * * * * * //

dimensions      [0 0 0 0 0 0 0];

internalField   nonuniform List<scalar> 
3250
(
0.037553183
0.037159349
0.036775257
0.036400356
0.036034122
0.035676061
0.035325703
0.034982601
0.03464633
0.034316486
0.033992681
0.033674545
0.033361723
0.033053875
0.032750672
0.032451798
0.032156947
0.031865823
0.03157814
0.03129362
0.031011992
0.030732992
0.030456364
0.030181857
0.029909226
0.029638235
0.029368649
0.029100243
0.028832795
0.028566091
0.028299922
0.028034087
0.027768389
0.027502641
0.027236663
0.026970283
0.026703339
0.026435677
0.026167153
0.025897635
0.025627001
0.02535514
0.025081956
0.024807366
0.024531272
0.0242536
0.023974348
0.023693483
0.02341099
0.03754354
0.037150134
0.036766446
0.036391923
0.036026046
0.03566832
0.035318277
0.034975473
0.034639484
0.034309906
0.033986353
0.033668455
0.033355859
0.033048225
0.032745225
0.032446543
0.032151875
0.031860925
0.031573407
0.031289044
0.031007565
0.030728707
0.030452214
0.030177836
0.029905328
0.029634454
0.02936498
0.02909668
0.028829334
0.028562727
0.02829665
0.028030903
0.027765289
0.027499622
0.027233722
0.026967416
0.026700543
0.026432949
0.02616449
0.025895034
0.02562446
0.025352656
0.025079525
0.024804982
0.024528939
0.024251329
0.023972132
0.02369132
0.023408869
0.037524219
0.037131668
0.036748783
0.036375015
0.036009848
0.035652791
0.035303379
0.03496117
0.034625743
0.034296696
0.033973646
0.033656224
0.033344079
0.033036873
0.032734278
0.032435982
0.03214168
0.031851079
0.031563892
0.031279844
0.030998666
0.030720094
0.030443873
0.030169755
0.029897495
0.029626858
0.02935761
0.029089526
0.028822386
0.028555976
0.028290088
0.028024521
0.02775908
0.027493578
0.027227837
0.026961683
0.026694956
0.026427502
0.026159178
0.025889851
0.025619401
0.025347717
0.0250747
0.024800265
0.02452433
0.024246833
0.023967742
0.023687032
0.023404676
0.037495244
0.037103974
0.036722291
0.036349653
0.035985548
0.035629493
0.035281024
0.034939706
0.03460512
0.034276869
0.033954571
0.033637862
0.033326393
0.033019828
0.032717842
0.032420124
0.032126371
0.031836292
0.031549602
0.031266028
0.0309853
0.030707158
0.030431347
0.030157619
0.029885733
0.029615451
0.029346543
0.029078784
0.028811955
0.028545843
0.02828024
0.028014945
0.027749765
0.027484514
0.027219012
0.026953089
0.026686582
0.026419341
0.026151221
0.025882091
0.025611829
0.025340327
0.025067485
0.024793218
0.024517447
0.024240114
0.023961182
0.023680625
0.023398415
0.037456655
0.037067086
0.036687001
0.036315865
0.035953174
0.035598449
0.035251236
0.034911103
0.034577636
0.034250443
0.033929146
0.033613386
0.033302817
0.032997104
0.032695928
0.03239898
0.032105958
0.031816575
0.031530548
0.031247604
0.030967477
0.030689907
0.030414643
0.030141436
0.029870048
0.029600241
0.029331787
0.029064463
0.028798049
0.028532334
0.028267111
0.02800218
0.02773735
0.027472433
0.027207252
0.026941637
0.026675427
0.026408469
0.026140623
0.025871756
0.025601748
0.025330489
0.025057883
0.024783842
0.024508293
0.024231177
0.023952456
0.023672103
0.023390089
0.037411259
0.037023689
0.03664548
0.036276108
0.035915077
0.035561915
0.035216177
0.034877435
0.034545283
0.034219333
0.033899214
0.033584569
0.033275057
0.032970347
0.032670124
0.03237408
0.032081919
0.031793354
0.031508106
0.031225904
0.030946484
0.030669589
0.030394968
0.030122375
0.029851572
0.029582326
0.029314407
0.029047594
0.028781669
0.028516422
0.028251648
0.027987147
0.027722728
0.027458206
0.027193404
0.026928153
0.026662292
0.02639567
0.026128147
0.025859591
0.025589882
0.025318912
0.025046584
0.024772813
0.024497525
0.024220664
0.02394219
0.023662077
0.023380295
0.037360478
0.036975138
0.036599025
0.036231623
0.035872445
0.03552103
0.035176939
0.034839751
0.034509069
0.034184509
0.033865706
0.033552307
0.033243976
0.032940389
0.03264123
0.032346198
0.032055
0.03176735
0.031482974
0.031201602
0.030922973
0.030646832
0.030372931
0.030101025
0.029830879
0.029562259
0.029294939
0.029028699
0.028763323
0.0284986
0.028234328
0.027970309
0.027706351
0.027442272
0.027177895
0.026913051
0.026647582
0.026381337
0.026114177
0.025845969
0.025576597
0.025305951
0.025033936
0.024760467
0.024485472
0.024208897
0.023930699
0.023650854
0.023369332
0.03730037
0.036917665
0.036544027
0.036178952
0.035821964
0.035472613
0.035130468
0.034795119
0.034466174
0.034143257
0.033826009
0.033514085
0.033207152
0.032904891
0.032606992
0.032313158
0.032023098
0.031736532
0.031453188
0.031172799
0.030895107
0.030619859
0.03034681
0.030075718
0.029806349
0.029538471
0.029271862
0.0290063
0.028741574
0.028477473
0.028213797
0.027950348
0.027686937
0.027423383
0.027159509
0.02689515
0.026630146
0.026364348
0.026097617
0.025829824
0.02556085
0.025290589
0.025018945
0.024745835
0.024471189
0.024194952
0.023917082
0.023637555
0.023356342
0.037230302
0.036850662
0.036479902
0.036117533
0.035763093
0.035416143
0.035076264
0.034743054
0.034416131
0.034095127
0.033779691
0.033469484
0.033164179
0.032863464
0.032567033
0.032274594
0.031985861
0.031700558
0.031418416
0.031139173
0.030862573
0.030588367
0.030316312
0.030046169
0.029777706
0.029510695
0.029244914
0.028980145
0.028716176
0.028452801
0.02818982
0.027927038
0.027664266
0.027401325
0.027138039
0.026874245
0.026609783
0.026344508
0.02607828
0.025810971
0.025542463
0.025272652
0.025001443
0.024728753
0.024454514
0.024178671
0.023901184
0.023622028
0.023341175
0.037149619
0.036773497
0.036406042
0.036046782
0.03569527
0.035351079
0.035013803
0.034683053
0.034358454
0.034039651
0.033726298
0.033418066
0.033114634
0.032815697
0.032520956
0.032230123
0.031942917
0.031659068
0.031378311
0.031100387
0.030825045
0.030552039
0.03028113
0.03001208
0.029744662
0.029478649
0.029213822
0.028949967
0.028686872
0.028424334
0.028162154
0.02790014
0.027638106
0.027375871
0.027113264
0.026850122
0.026586287
0.026321614
0.026055966
0.025789216
0.025521247
0.025251955
0.024981247
0.024709042
0.024435273
0.024159886
0.02388284
0.023604113
0.023323676
0.037057643
0.036685518
0.03632182
0.035966094
0.03561791
0.035276857
0.034942543
0.034614591
0.034292638
0.033976339
0.033665358
0.033359374
0.033058076
0.032761165
0.032468348
0.032179344
0.03189388
0.031611688
0.031332508
0.031056089
0.030782181
0.030510544
0.03024094
0.029973138
0.029706911
0.029442038
0.0291783
0.028915486
0.028653389
0.028391806
0.028130542
0.027869405
0.027608212
0.027346785
0.027084953
0.026822555
0.026559436
0.026295452
0.026030467
0.025764355
0.025497001
0.025228303
0.024958169
0.024686519
0.024413287
0.024138419
0.023861879
0.023583641
0.02330368
0.036953677
0.036586053
0.036226586
0.035874842
0.03553041
0.035192895
0.034861921
0.034537124
0.034218157
0.033904683
0.033596379
0.033292934
0.032994045
0.03269942
0.032408777
0.032121841
0.031838343
0.031558023
0.031280628
0.031005909
0.030733623
0.030463533
0.030195406
0.029929014
0.029664135
0.02940055
0.029138045
0.028876411
0.028615443
0.028354941
0.028094713
0.027834569
0.027574329
0.027313816
0.027052862
0.026791308
0.026529
0.026265796
0.026001561
0.025736173
0.025469517
0.025201493
0.024932008
0.024660987
0.024388363
0.024114086
0.023838118
0.023560435
0.023281013
0.036837006
0.036474411
0.036119675
0.035772384
0.035432147
0.035098591
0.034771355
0.034450091
0.034134466
0.033824157
0.033518852
0.033218251
0.032922062
0.032630002
0.032341796
0.032057177
0.031775885
0.031497667
0.031222273
0.030949462
0.030678996
0.030410642
0.030144174
0.029879366
0.029616001
0.029353864
0.029092743
0.028832433
0.028572734
0.028313447
0.028054384
0.027795357
0.027536187
0.027276702
0.027016736
0.02675613
0.026494735
0.026232408
0.025969019
0.025704445
0.025438574
0.025171307
0.024902555
0.024632241
0.024360303
0.02408669
0.023811365
0.023534307
0.023255491
0.036706897
0.036349886
0.036000401
0.035658056
0.035322482
0.034993326
0.034670245
0.03435291
0.034041003
0.033734216
0.033432249
0.033134815
0.032841632
0.032552428
0.032266938
0.031984902
0.031706069
0.031430192
0.031157029
0.030886346
0.03061791
0.030351494
0.030086875
0.029823836
0.02956216
0.029301638
0.029042063
0.028783233
0.02852495
0.028267021
0.028009258
0.027751478
0.027493506
0.02723517
0.026976307
0.026716762
0.026456386
0.026195041
0.025932596
0.025668933
0.025403941
0.025137521
0.024869588
0.024600066
0.024328894
0.024056024
0.023781419
0.02350506
0.023226923
0.036562607
0.036211755
0.035868067
0.035531182
0.035200758
0.034876463
0.034557975
0.034244985
0.03393719
0.033634299
0.033336027
0.033042098
0.032752243
0.032466202
0.03218372
0.031904546
0.031628438
0.031355156
0.031084468
0.030816144
0.03054996
0.030285693
0.030023127
0.029762049
0.029502249
0.029243521
0.028985662
0.028728475
0.028471765
0.028215343
0.027959026
0.027702632
0.02744599
0.027188931
0.026931295
0.026672928
0.026413687
0.026153433
0.02589204
0.025629389
0.025365374
0.025099898
0.024832876
0.024564236
0.024293917
0.024021873
0.02374807
0.023472489
0.023195108
0.036403381
0.036059288
0.035721963
0.035391074
0.035066306
0.034747353
0.034433916
0.034125703
0.033822433
0.033523829
0.033229624
0.032939555
0.032653367
0.032370812
0.032091644
0.031815625
0.031542522
0.031272103
0.031004145
0.030738424
0.030474725
0.030212831
0.029952532
0.02969362
0.029435891
0.029179144
0.028923181
0.028667809
0.028412839
0.028158084
0.027903364
0.027648503
0.027393332
0.027137685
0.026881406
0.026624345
0.026366358
0.026107312
0.025847082
0.025585553
0.02532262
0.025058188
0.024792176
0.024524512
0.024255138
0.02398401
0.023711096
0.023436376
0.023159833
0.036228461
0.035891747
0.035561369
0.035237031
0.034918447
0.034605336
0.034297423
0.03399444
0.033696123
0.033402216
0.033112467
0.032826629
0.032544461
0.032265728
0.031990197
0.031717641
0.031447835
0.03118056
0.030915599
0.030652739
0.030391769
0.030132482
0.029874674
0.029618144
0.029362693
0.029108125
0.028854248
0.028600874
0.028347817
0.028094896
0.027841935
0.027588762
0.027335211
0.02708112
0.026826336
0.026570712
0.026314108
0.026056394
0.025797447
0.025537154
0.025275414
0.025012134
0.024747235
0.024480648
0.024212317
0.023942199
0.023670265
0.023396496
0.023120878
0.036037087
0.035708389
0.035385562
0.035068349
0.034756493
0.034449741
0.034147845
0.03385056
0.033557643
0.033268857
0.032983969
0.032702748
0.03242497
0.032150411
0.031878852
0.031610079
0.031343878
0.03108004
0.030818357
0.030558625
0.030300642
0.030044209
0.029789129
0.029535206
0.029282249
0.029030068
0.028778477
0.028527292
0.028276332
0.028025423
0.027774391
0.027523069
0.027271294
0.02701891
0.026765767
0.02651172
0.026256634
0.026000382
0.025742843
0.025483908
0.025223478
0.024961464
0.024697788
0.024432385
0.0241652
0.023896192
0.023625335
0.023352612
0.02307801
0.035828504
0.035508475
0.03519382
0.034884319
0.034579752
0.034279894
0.033984523
0.03369342
0.033406365
0.033123141
0.032843534
0.032567331
0.032294325
0.032024306
0.03175707
0.031492415
0.031230138
0.030970043
0.030711931
0.030455609
0.030200882
0.029947561
0.029695454
0.029444376
0.029194141
0.028944565
0.028695468
0.028446673
0.028198005
0.027949292
0.027700367
0.027451067
0.027201235
0.026950717
0.026699367
0.026447046
0.02619362
0.025938967
0.025682969
0.025425521
0.025166525
0.024905896
0.02464356
0.024379452
0.024113522
0.023845732
0.023576055
0.023304478
0.02303099
0.035917717
0.035601978
0.035291273
0.034985421
0.034684237
0.034387533
0.034095116
0.033806794
0.033522372
0.033241655
0.032964448
0.032690556
0.032419788
0.03215195
0.031886851
0.031624301
0.031364111
0.031106093
0.030850059
0.030595824
0.030343203
0.030092013
0.029842072
0.029593198
0.029345212
0.029097935
0.028851193
0.028604811
0.028358616
0.028112441
0.027866119
0.027619489
0.027372392
0.027124675
0.02687619
0.026626795
0.026376354
0.026124739
0.025871829
0.025617512
0.025361685
0.025104255
0.024845138
0.024584264
0.024321571
0.024057011
0.023790549
0.023522161
0.023251836
0.022979565
0.035661922
0.035356766
0.03505606
0.034759654
0.034467402
0.034179148
0.033894735
0.033613997
0.033336768
0.033062878
0.032792156
0.032524428
0.032259522
0.031997263
0.031737477
0.031479988
0.031224624
0.030971208
0.030719566
0.030469525
0.03022091
0.029973549
0.029727268
0.029481895
0.029237259
0.02899319
0.028749519
0.02850608
0.028262706
0.028019236
0.027775509
0.027531369
0.027286663
0.027041244
0.026794968
0.026547696
0.026299299
0.026049652
0.025798638
0.025546149
0.025292085
0.025036357
0.024778885
0.024519602
0.024258449
0.023995381
0.023730365
0.023463381
0.02319442
0.022923475
0.035386002
0.035092158
0.034802133
0.034515825
0.034233127
0.033953921
0.033678082
0.033405475
0.033135962
0.032869401
0.032605643
0.032344539
0.032085935
0.031829676
0.031575607
0.031323568
0.0310734
0.030824944
0.030578037
0.030332518
0.030088224
0.029844994
0.029602664
0.029361071
0.029120054
0.02887945
0.028639099
0.028398841
0.028158518
0.027917973
0.027677054
0.02743561
0.027193493
0.026950561
0.026706676
0.026461706
0.026215523
0.025968009
0.02571905
0.025468542
0.025216391
0.02496251
0.024706823
0.024449266
0.024189785
0.023928337
0.023664892
0.023399433
0.023131954
0.02286245
0.035089284
0.034807471
0.034528812
0.034253259
0.033980745
0.03371119
0.033444502
0.033180581
0.032919317
0.032660595
0.032404291
0.032150279
0.031898428
0.031648603
0.031400665
0.031154474
0.030909886
0.030666756
0.030424936
0.030184278
0.029944632
0.029705846
0.029467768
0.029230245
0.028993125
0.028756254
0.02851948
0.028282651
0.028045617
0.027808228
0.027570338
0.027331802
0.02709248
0.026852235
0.026610933
0.026368448
0.026124659
0.025879449
0.025632712
0.025384348
0.025134265
0.024882383
0.024628628
0.02437294
0.024115268
0.023855574
0.023593831
0.023330024
0.023064152
0.02279621
0.035042704
0.034771153
0.034502067
0.034235455
0.033971311
0.033709612
0.033450313
0.033193361
0.032938686
0.032686209
0.032435842
0.032187489
0.031941048
0.031696409
0.031453458
0.031212077
0.030972141
0.030733525
0.030496098
0.030259729
0.030024281
0.029789616
0.029555597
0.029322081
0.029088927
0.028855991
0.028623131
0.028390201
0.028157058
0.02792356
0.027689566
0.027454935
0.02721953
0.026983217
0.026745864
0.026507345
0.026267539
0.026026328
0.025783604
0.025539263
0.025293211
0.025045361
0.024795635
0.024543965
0.024290295
0.024034578
0.023776779
0.023516874
0.023254854
0.022990718
0.022724469
0.03468839
0.034431007
0.034175346
0.033921455
0.033669373
0.033419115
0.03317068
0.032924046
0.032679179
0.032436031
0.032194542
0.031954643
0.031716256
0.031479295
0.031243667
0.031009273
0.030776009
0.030543765
0.030312427
0.030081878
0.029851997
0.029622659
0.029393738
0.029165104
0.028936626
0.028708171
0.028479606
0.028250795
0.028021605
0.0277919
0.027561546
0.027330413
0.027098369
0.026865286
0.026631041
0.026395512
0.026158584
0.025920147
0.025680096
0.025438333
0.025194768
0.024949321
0.024701917
0.024452493
0.024200997
0.023947386
0.023691629
0.023433706
0.023173611
0.022911351
0.022646935
0.034310815
0.034068316
0.033826764
0.033586258
0.033346878
0.033108685
0.032871713
0.032635979
0.032401481
0.032168203
0.031936116
0.031705175
0.03147533
0.031246517
0.031018665
0.030791696
0.030565525
0.030340059
0.030115203
0.029890853
0.029666904
0.029443244
0.02921976
0.028996335
0.028772849
0.028549179
0.028325203
0.028100795
0.02787583
0.027650181
0.027423724
0.027196334
0.026967889
0.026738267
0.026507351
0.026275027
0.026041186
0.025805723
0.025568539
0.025329543
0.02508865
0.024845782
0.024600873
0.024353863
0.024104703
0.023853356
0.023599794
0.023344003
0.02308598
0.022825737
0.033909555
0.033682622
0.033455844
0.033229367
0.033003318
0.032777797
0.03255288
0.032328619
0.032105047
0.031882178
0.031660013
0.031438536
0.03121772
0.030997526
0.030777907
0.030558804
0.030340151
0.030121876
0.029903897
0.02968613
0.029468483
0.02925086
0.029033159
0.028815277
0.028597104
0.028378531
0.028159445
0.02793973
0.027719271
0.02749795
0.027275652
0.027052259
0.026827657
0.026601733
0.026374376
0.026145479
0.025914939
0.025682659
0.025448545
0.025212512
0.024974479
0.024734376
0.024492141
0.024247718
0.024001064
0.023752146
0.023500941
0.023247437
0.022991635
0.022733547
0.033484272
0.033273552
0.033062182
0.032850354
0.032638242
0.032425986
0.032213701
0.032001475
0.031789375
0.031577447
0.031365719
0.031154206
0.030942905
0.030731802
0.030520871
0.030310075
0.030099369
0.029888697
0.029677998
0.029467201
0.029256231
0.029045006
0.028833439
0.028621438
0.028408908
0.028195749
0.02798186
0.027767135
0.027551469
0.027334754
0.027116883
0.026897747
0.02667724
0.026455258
0.026231696
0.026006455
0.025779439
0.025550556
0.025319721
0.025086852
0.024851877
0.02461473
0.024375354
0.024133699
0.023889727
0.023643409
0.023394727
0.023143673
0.022890251
0.022634474
0.033034724
0.032840822
0.032645457
0.032448869
0.032251274
0.032052852
0.031853757
0.031654111
0.031454016
0.031253548
0.031052765
0.030851708
0.030650402
0.030448855
0.030247065
0.030045016
0.029842683
0.029640029
0.029437011
0.029233573
0.029029658
0.028825197
0.028620118
0.028414342
0.028207787
0.028000364
0.027791983
0.02758255
0.027371969
0.027160144
0.026946974
0.026732361
0.026516208
0.026298417
0.026078892
0.025857542
0.025634278
0.025409014
0.025181672
0.024952178
0.024720463
0.02448647
0.024250145
0.024011445
0.023770337
0.023526797
0.023280811
0.023032376
0.0227815
0.022528198
0.032560778
0.03238425
0.032205447
0.032024651
0.031842119
0.031658073
0.031472699
0.031286158
0.031098581
0.030910076
0.030720731
0.030530612
0.03033977
0.030148239
0.029956036
0.02976317
0.029569633
0.029375408
0.02918047
0.028984781
0.028788297
0.028590967
0.028392732
0.028193526
0.02799328
0.027791918
0.027589361
0.027385526
0.027180328
0.026973679
0.02676549
0.026555672
0.026344135
0.02613079
0.025915551
0.025698332
0.025479053
0.025257636
0.025034008
0.024808102
0.024579858
0.024349221
0.024116146
0.023880594
0.023642539
0.02340196
0.023158849
0.022913208
0.022665049
0.022414393
0.03206242
0.031903767
0.031742032
0.031577536
0.031410577
0.03124141
0.031070261
0.03089732
0.030722751
0.030546693
0.030369259
0.030190545
0.030010624
0.029829553
0.029647376
0.029464118
0.029279793
0.029094405
0.028907942
0.028720387
0.028531711
0.028341877
0.028150841
0.027958551
0.02776495
0.027569975
0.027373559
0.027175631
0.026976114
0.026774933
0.026572008
0.026367259
0.026160605
0.025951966
0.025741265
0.025528423
0.025313368
0.02509603
0.024876342
0.024654245
0.024429685
0.024202613
0.023972992
0.023740788
0.023505979
0.023268551
0.023028502
0.022785836
0.022540572
0.022292736
0.031539766
0.031399427
0.03125521
0.031107473
0.030956547
0.030802726
0.030646266
0.030487389
0.030326289
0.030163134
0.029998063
0.029831198
0.029662636
0.029492458
0.029320729
0.029147494
0.028972789
0.028796633
0.028619036
0.028439995
0.028259496
0.02807752
0.027894035
0.027709005
0.027522384
0.027334123
0.027144165
0.026952452
0.026758918
0.026563498
0.026366122
0.026166719
0.025965218
0.025761549
0.025555641
0.025347425
0.025136837
0.024923814
0.024708297
0.024490234
0.024269577
0.024046285
0.023820326
0.023591674
0.023360311
0.023126229
0.022889431
0.022649928
0.022407742
0.022162907
0.030993077
0.030871421
0.030745108
0.030614528
0.030480047
0.030341988
0.030200639
0.030056251
0.029909047
0.029759219
0.029606935
0.029452339
0.029295553
0.029136679
0.028975803
0.028812991
0.028648298
0.028481761
0.028313407
0.02814325
0.027971293
0.027797529
0.027621943
0.027444512
0.027265202
0.027083978
0.026900795
0.026715605
0.026528355
0.026338989
0.026147447
0.025953669
0.025757593
0.025559158
0.025358302
0.025154965
0.024949089
0.024740621
0.024529509
0.024315708
0.024099178
0.023879885
0.023657802
0.023432909
0.023205197
0.022974662
0.022741311
0.022505163
0.022266244
0.022024593
0.030422763
0.030320082
0.030211989
0.030098902
0.029981216
0.029859283
0.029733418
0.0296039
0.029470976
0.029334865
0.029195758
0.029053822
0.0289092
0.028762018
0.028612378
0.02846037
0.028306064
0.028149516
0.02799077
0.027829856
0.027666792
0.027501587
0.027334239
0.027164739
0.026993067
0.026819199
0.026643102
0.026464741
0.026284072
0.026101051
0.025915628
0.025727754
0.025537375
0.02534444
0.025148895
0.02495069
0.024749775
0.024546104
0.024339634
0.024130327
0.02391815
0.023703077
0.023485087
0.023264167
0.023040313
0.022813529
0.022583827
0.02235123
0.022115771
0.021877495
0.029829398
0.029745901
0.029656266
0.029560937
0.029460332
0.029354829
0.029244766
0.029130448
0.029012144
0.028890097
0.028764518
0.028635597
0.028503497
0.028368363
0.028230319
0.028089469
0.027945904
0.027799696
0.027650905
0.027499577
0.027345745
0.027189432
0.027030651
0.026869405
0.026705687
0.026539486
0.026370782
0.026199549
0.026025755
0.025849367
0.025670346
0.025488651
0.02530424
0.025117069
0.024927095
0.024734276
0.02453857
0.024339939
0.02413835
0.023933771
0.023726176
0.023515547
0.02330187
0.023085139
0.022865355
0.022642529
0.02241668
0.022187835
0.021956033
0.021721328
0.029213727
0.029149534
0.029078514
0.029001129
0.028917819
0.028828982
0.028734979
0.028636135
0.028532739
0.028425054
0.028313312
0.028197721
0.028078464
0.027955702
0.027829579
0.027700216
0.02756772
0.027432179
0.027293669
0.027152251
0.027007972
0.026860869
0.026710969
0.026558287
0.026402831
0.026244599
0.026083583
0.02591977
0.025753139
0.025583667
0.025411324
0.025236081
0.025057905
0.02487676
0.024692614
0.024505433
0.024315184
0.024121837
0.023925367
0.02372575
0.023522968
0.023317009
0.023107866
0.022895542
0.022680043
0.022461386
0.022239597
0.022014708
0.021786764
0.021555826
0.028576677
0.028531812
0.028479473
0.028420137
0.028354259
0.028282255
0.028204502
0.028121343
0.028033086
0.027940009
0.027842363
0.027740371
0.027634235
0.027524132
0.027410221
0.02729264
0.027171511
0.027046937
0.026919009
0.0267878
0.026653375
0.026515781
0.026375059
0.026231236
0.026084332
0.025934357
0.025781316
0.025625205
0.025466015
0.025303732
0.025138338
0.024969813
0.024798132
0.024623273
0.024445208
0.024263914
0.024079368
0.023891547
0.023700432
0.023506011
0.023308271
0.023107208
0.022902823
0.022695124
0.022484126
0.022269851
0.022052331
0.021831604
0.021607722
0.021380752
0.02791936
0.027893751
0.027860068
0.027818794
0.027770402
0.027715319
0.027653935
0.027586607
0.027513656
0.027435375
0.027352029
0.027263856
0.027171073
0.02707387
0.026972422
0.026866881
0.026757382
0.026644043
0.026526967
0.026406243
0.026281946
0.026154137
0.026022868
0.02588818
0.025750102
0.025608659
0.025463863
0.025315722
0.025164239
0.025009409
0.024851224
0.024689674
0.024524745
0.024356421
0.024184686
0.024009524
0.023830921
0.023648863
0.02346334
0.023274345
0.023081876
0.022885934
0.022686529
0.022483674
0.022277393
0.022067713
0.021854672
0.021638316
0.0214187
0.021195901
0.027243024
0.027236561
0.027221408
0.027198117
0.027167179
0.027129021
0.027084048
0.027032623
0.026975079
0.026911718
0.026842818
0.026768628
0.026689377
0.026605269
0.026516489
0.026423203
0.026325559
0.026223687
0.026117702
0.026007704
0.025893781
0.025776007
0.025654443
0.025529141
0.025400144
0.025267485
0.025131187
0.02499127
0.024847745
0.024700618
0.024549892
0.024395564
0.02423763
0.024076084
0.023910918
0.023742126
0.023569702
0.02339364
0.023213938
0.023030597
0.022843623
0.022653025
0.02245882
0.022261027
0.022059677
0.021854804
0.021646453
0.021434675
0.021219532
0.021001107
0.026549489
0.026561565
0.026564732
0.026559307
0.026545707
0.026524388
0.026495791
0.026460263
0.026418154
0.02636977
0.026315396
0.026255293
0.026189698
0.026118825
0.02604287
0.025962009
0.025876401
0.025786186
0.025691492
0.025592429
0.025489094
0.025381572
0.025269936
0.025154248
0.025034561
0.024910916
0.02478335
0.02465189
0.024516557
0.024377368
0.024234333
0.02408746
0.023936753
0.023782216
0.023623851
0.023461657
0.023295638
0.023125797
0.02295214
0.022774676
0.022593417
0.022408381
0.022219591
0.022027075
0.021830868
0.021631014
0.021427561
0.021220568
0.021010102
0.020796254
0.025840221
0.025870657
0.025891857
0.025903716
0.025907221
0.025902632
0.025890304
0.025870581
0.025843864
0.025810438
0.025770606
0.025724629
0.025672751
0.025615197
0.025552168
0.025483851
0.025410412
0.025332002
0.025248756
0.025160795
0.025068225
0.02497114
0.024869624
0.024763746
0.024653569
0.024539146
0.024420519
0.024297727
0.0241708
0.024039762
0.023904635
0.023765433
0.023622172
0.023474862
0.023323513
0.023168135
0.023008738
0.022845334
0.022677936
0.022506562
0.022331231
0.022151969
0.021968805
0.021781775
0.021590921
0.021396291
0.021197942
0.020995938
0.020790353
0.020581284
0.02511729
0.025166078
0.025204333
0.025233172
0.025253529
0.02526515
0.025268844
0.025264817
0.025253387
0.025234818
0.025209472
0.02517759
0.025139429
0.025095214
0.025045156
0.024989445
0.024928256
0.024861748
0.024790063
0.024713329
0.02463166
0.024545159
0.024453917
0.024358012
0.024257516
0.024152489
0.024042983
0.023929045
0.023810712
0.02368802
0.023560995
0.023429663
0.023294046
0.023154163
0.023010033
0.022861673
0.022709101
0.022552338
0.022391404
0.022226324
0.022057126
0.021883841
0.021706506
0.021525165
0.021339865
0.021150662
0.020957617
0.020760802
0.020560296
0.020356204
0.024382455
0.024448431
0.024504351
0.024549684
0.024586229
0.024613784
0.024633245
0.02464442
0.024648017
0.024644191
0.024633222
0.024615323
0.024590811
0.024559892
0.024522785
0.024479685
0.024430773
0.024376211
0.024316148
0.024250718
0.024180042
0.02410423
0.024023377
0.023937572
0.023846891
0.023751404
0.023651169
0.023546241
0.023436665
0.023322484
0.023203733
0.023080446
0.022952652
0.022820378
0.02268365
0.022542495
0.022396937
0.022247004
0.022092725
0.021934131
0.021771257
0.021604142
0.021432831
0.021257372
0.02107782
0.020894237
0.020706691
0.020515259
0.020320025
0.020121103
0.023638216
0.023720692
0.023792811
0.023854835
0.02390766
0.023950573
0.023985173
0.02401126
0.024029625
0.024040055
0.024043203
0.024039168
0.024028185
0.024010444
0.023986202
0.023955656
0.023918985
0.023876359
0.023827927
0.023773828
0.023714189
0.023649123
0.023578733
0.023503113
0.023422344
0.023336502
0.023245654
0.02314986
0.023049173
0.022943642
0.02283331
0.022718218
0.022598401
0.022473895
0.022344734
0.022210949
0.022072574
0.021929644
0.021782193
0.021630262
0.021473891
0.021313127
0.021148021
0.020978626
0.020805007
0.020627228
0.020445366
0.020259502
0.020069726
0.01987616
0.022887189
0.022985395
0.023073114
0.023150705
0.023218636
0.023277128
0.023326949
0.023367403
0.023399931
0.023424322
0.023441333
0.023450668
0.023452974
0.023448288
0.023436762
0.023418646
0.02339412
0.023363359
0.02332651
0.023283716
0.023235106
0.023180797
0.023120896
0.0230555
0.022984698
0.022908569
0.022827186
0.022740614
0.022648914
0.022552139
0.02245034
0.022343564
0.022231853
0.022115249
0.021993792
0.021867522
0.021736479
0.021600704
0.021460238
0.021315129
0.021165424
0.021011175
0.02085244
0.02068928
0.020521762
0.020349961
0.020173956
0.019993835
0.019809693
0.01962166
0.022132141
0.022245196
0.022347711
0.02244003
0.022522535
0.022595558
0.022659498
0.022714527
0.022761306
0.022799116
0.022829398
0.022851782
0.022867164
0.022875031
0.022875958
0.022870166
0.022857616
0.022838594
0.022813219
0.022781646
0.022744003
0.022700409
0.022650974
0.022595797
0.02253497
0.022468578
0.022396696
0.022319397
0.022236744
0.022148797
0.022055612
0.021957241
0.021853734
0.021745137
0.021631498
0.021512861
0.021389274
0.021260783
0.021127437
0.020989288
0.020846391
0.020698804
0.02054659
0.020389817
0.020228557
0.020062891
0.019892903
0.019718686
0.019540341
0.019358006
0.021376012
0.021502946
0.021619348
0.021725537
0.021821855
0.021908629
0.021986183
0.022054805
0.022114858
0.022166587
0.022209447
0.022244631
0.022272657
0.022292785
0.022305772
0.022311869
0.022311084
0.022303685
0.022289597
0.022269106
0.022242312
0.022209337
0.022170291
0.022125277
0.022074387
0.022017709
0.021955323
0.021887303
0.021813718
0.021734632
0.021650106
0.021560195
0.021464956
0.021364441
0.0212587
0.021147787
0.021031752
0.020910649
0.020784533
0.02065346
0.020517491
0.020376691
0.020231128
0.020080874
0.01992601
0.019766619
0.019602791
0.019434624
0.019262225
0.019085738
0.020621906
0.020761697
0.020890996
0.021010127
0.021119398
0.021219109
0.021309551
0.021390999
0.021463726
0.02152795
0.021583808
0.021631866
0.021671462
0.02170363
0.021728294
0.02174603
0.02175658
0.02176038
0.021757407
0.021747827
0.021731702
0.021709192
0.021680406
0.021645445
0.021604403
0.021557369
0.021504425
0.021445647
0.021381108
0.021310874
0.021235011
0.021153579
0.021066636
0.020974241
0.020876449
0.020773317
0.020664901
0.020551261
0.020432455
0.020308547
0.020179602
0.02004569
0.019906883
0.019763261
0.019614907
0.01946191
0.019304366
0.019142377
0.018976053
0.018805547
0.019711212
0.019873239
0.020024697
0.020165824
0.020296896
0.020418187
0.020529962
0.020632478
0.020725985
0.02081072
0.020886904
0.020954752
0.021014543
0.021066461
0.02110983
0.021145799
0.021174908
0.021196367
0.021211064
0.021218722
0.021219696
0.021214091
0.021201835
0.021183126
0.021158055
0.021126719
0.021089207
0.021045602
0.020995981
0.02094042
0.020878987
0.020811749
0.020738771
0.020660115
0.020575841
0.02048601
0.020390683
0.02028992
0.020183784
0.020072341
0.019955656
0.019833801
0.019706849
0.019574879
0.019437974
0.019296221
0.019149716
0.018998556
0.018842849
0.018682709
0.018518296
0.018961129
0.019133378
0.01929533
0.019447171
0.019589135
0.019721454
0.019844359
0.019958074
0.020062818
0.020158802
0.020246231