/*--------------------------------*- C++ -*----------------------------------*\
| =========                 |                                                 |
| \\      /  F ield         | OpenFOAM: The Open Source CFD Toolbox           |
|  \\    /   O peration     | Version:  2312                                  |
|   \\  /    A nd           | Website:  www.openfoam.com                      |
|    \\/     M anipulation  |                                                 |
\*---------------------------------------------------------------------------*/
FoamFile
{
    version     2.0;
    format      ascii;
    arch        "LSB;label=32;scalar=64";
    class       volScalarField;
    location    "0.09";
    object      k;
}
// * * * * * * * * * * * * * * * * * * * * * * * * * * * * * * * * * * * * * //

dimensions      [0 2 -2 0 0 0 0];

internalField   nonuniform List<scalar> 
3250
(
20.43154
20.112267
19.800654
19.496545
19.199782
18.910208
18.627669
18.352011
18.083083
17.82074
17.564834
17.315225
17.071774
16.834344
16.602803
16.377022
16.156873
15.942233
15.73298
15.528995
15.330162
15.136367
14.947497
14.763441
14.58409
14.409338
14.239078
14.073205
13.911616
13.754206
13.600875
13.45152
13.306042
13.16434
13.026315
12.891869
12.760903
12.633321
12.509027
12.387926
12.269925
12.15493
12.042853
11.933602
11.827085
11.723219
11.621925
11.523124
11.426741
20.427219
20.108145
19.796721
19.492792
19.196199
18.906787
18.624401
18.348889
18.080102
17.817891
17.562112
17.312623
17.069287
16.831967
16.60053
16.374849
16.154795
15.940246
15.73108
15.527178
15.328425
15.134705
14.945907
14.76192
14.582636
14.407947
14.237747
14.071932
13.910398
13.753041
13.59976
13.450454
13.305022
13.163364
13.025382
12.890976
12.760049
12.632504
12.508246
12.387178
12.269209
12.154246
12.042197
11.932974
11.826484
11.722645
11.621377
11.522599
11.426238
20.418575
20.099899
19.788853
19.485282
19.189029
18.899941
18.617863
18.342645
18.074136
17.812191
17.556665
17.307418
17.064311
16.827211
16.595984
16.370502
16.150639
15.936272
15.72728
15.523545
15.32495
15.131382
14.942729
14.758881
14.579729
14.405167
14.235089
14.06939
13.907966
13.750716
13.597537
13.448328
13.302989
13.16142
13.023522
12.889197
12.758348
12.630878
12.506691
12.385692
12.267788
12.152887
12.040898
11.931731
11.825296
11.721511
11.620293
11.521562
11.425245
20.405617
20.087537
19.777057
19.474023
19.178282
18.889678
18.608062
18.333283
18.065192
17.803645
17.548499
17.299613
17.056852
16.82008
16.589167
16.363985
16.144409
15.930315
15.721583
15.518097
15.319741
15.126401
14.937965
14.754326
14.575373
14.401001
14.231105
14.06558
13.904323
13.747232
13.594205
13.445142
13.299943
13.158507
13.020737
12.886535
12.755803
12.628444
12.504364
12.383468
12.265662
12.150854
12.038955
11.929873
11.823521
11.719815
11.618673
11.520014
11.423765
20.38836
20.071073
19.761347
19.459028
19.163966
18.876009
18.595007
18.320813
18.053279
17.792262
17.537621
17.289217
17.046915
16.810581
16.580087
16.355304
16.136108
15.922378
15.713995
15.510841
15.312802
15.119765
14.93162
14.748258
14.56957
14.395452
14.225799
14.060506
13.899471
13.742592
13.589769
13.4409
13.295887
13.154629
13.01703
12.88299
12.752414
12.625205
12.501268
12.380508
12.262833
12.14815
12.03637
11.927403
11.821161
11.71756
11.616519
11.517956
11.421799
20.368055
20.051701
19.74286
19.441383
19.14712
18.859923
18.579644
18.306137
18.039258
17.778865
17.524819
17.276982
17.03522
16.799402
16.569399
16.345086
16.126339
15.913037
15.705063
15.5023
15.304635
15.111955
14.924152
14.741116
14.562741
14.388921
14.219553
14.054534
13.89376
13.737132
13.584547
13.435908
13.291113
13.150066
13.012667
12.878819
12.748427
12.621393
12.497624
12.377025
12.259504
12.144969
12.03333
11.924498
11.818385
11.714909
11.613987
11.515537
11.419488
20.345334
20.030024
19.722173
19.421636
19.128267
18.84192
18.56245
18.289712
18.023566
17.763871
17.51049
17.263287
17.022129
16.786888
16.557436
16.333649
16.115403
15.902581
15.695065
15.492739
15.295492
15.103212
14.915791
14.733121
14.555095
14.38161
14.212562
14.047848
13.887367
13.731019
13.578703
13.430319
13.28577
13.144957
13.007783
12.87415
12.743963
12.617127
12.493546
12.373127
12.255779
12.141409
12.029927
11.921247
11.81528
11.711942
11.611153
11.512831
11.416904
20.318429
20.004354
19.697675
19.398251
19.10594
18.820599
18.542085
18.270259
18.00498
17.746111
17.493517
17.247064
17.006623
16.772065
16.543265
16.320099
16.102448
15.890194
15.683219
15.481412
15.28466
15.092854
14.905886
14.723648
14.546037
14.372948
14.204279
14.039927
13.879793
13.723776
13.571778
13.423698
13.279439
13.138904
13.001996
12.868618
12.738675
12.612072
12.488715
12.36851
12.251366
12.137191
12.025897
11.917396
11.811601
11.708429
11.607797
11.509626
11.413844
20.28705
19.974414
19.669101
19.370974
19.079896
18.795727
18.518329
18.247564
17.983296
17.725391
17.473714
17.228137
16.988531
16.754769
16.526729
16.304289
16.087331
15.875739
15.669397
15.468194
15.27202
15.080766
14.894326
14.712594
14.535465
14.362838
14.194611
14.030683
13.870953
13.715324
13.563695
13.41597
13.272051
13.13184
12.995243
12.862162
12.732504
12.606173
12.483076
12.363121
12.246215
12.132269
12.021194
11.912903
11.807308
11.704328
11.603881
11.505886
11.410273
20.250896
19.939915
19.636174
19.339541
19.049883
18.767064
18.49095
18.221408
17.958304
17.701508
17.450889
17.206319
16.967674
16.73483
16.507666
16.286062
16.069903
15.859073
15.65346
15.452954
15.257446
15.066829
14.880997
14.699847
14.523275
14.351181
14.183463
14.020022
13.860759
13.705576
13.554375
13.407058
13.26353
13.123694
12.987454
12.854717
12.725386
12.59937
12.476573
12.356906
12.240276
12.126594
12.015771
11.907721
11.802358
11.6996
11.599365
11.501574
11.406156
20.209652
19.900558
19.598609
19.303678
19.015637
18.734357
18.459707
18.191559
17.929782
17.674251
17.424837
17.181418
16.943869
16.712071
16.485906
16.265256
16.050007
15.840047
15.635266
15.435555
15.240806
15.050915
14.865778
14.685292
14.509356
14.33787
14.170733
14.007849
13.849118
13.694445
13.543731
13.396881
13.253799
13.11439
12.97856
12.846214
12.717258
12.5916
12.469147
12.349808
12.233492
12.120111
12.009577
11.901803
11.796705
11.6942
11.594208
11.49665
11.401455
20.162993
19.856031
19.556106
19.263099
18.976886
18.697345
18.42435
18.157777
17.897502
17.6434
17.39535
17.15323
16.916922
16.686307
16.461271
16.2417
16.027482
15.818506
15.614666
15.415853
15.221964
15.032895
14.848544
14.66881
14.493593
14.322795
14.156317
13.994062
13.835934
13.681837
13.531675
13.385353
13.242777
13.103852
12.968485
12.836582
12.708051
12.582798
12.460734
12.341767
12.225808
12.112768
12.002561
11.8951
11.790301
11.688083
11.588367
11.491072
11.396129
20.110585
19.806014
19.50836
19.21751
18.933349
18.655759
18.384621
18.119816
17.861225
17.608728
17.362208
17.121547
16.886631
16.657346
16.433579
16.215219
16.002157
15.794288
15.591504
15.393701
15.200778
15.012632
14.829164
14.650275
14.475866
14.305841
14.140102
13.978556
13.821105
13.667656
13.518115
13.372387
13.230379
13.091998
12.957152
12.825747
12.697693
12.572897
12.45127
12.332722
12.217163
12.104507
11.994667
11.887558
11.783097
11.681202
11.581794
11.484796
11.390138
20.052083
19.750176
19.455052
19.166607
18.884733
18.609318
18.340252
18.077419
17.820706
17.569999
17.325186
17.086154
16.852791
16.624988
16.402637
16.185629
15.973859
15.767223
15.565619
15.368944
15.177099
14.989984
14.807502
14.629556
14.45605
14.286888
14.121976
13.96122
13.804526
13.651801
13.502953
13.357889
13.216516
13.078743
12.944478
12.813631
12.68611
12.561825
12.440686
12.322606
12.207496
12.095268
11.985839
11.879123
11.775039
11.673505
11.574444
11.477778
11.383438
19.987132
19.688177
19.395858
19.110079
18.83074
18.557738
18.290967
18.030321
17.775691
17.526971
17.284051
17.046825
16.815186
16.589029
16.368248
16.152741
15.942405
15.73714
15.536845
15.341422
15.150774
14.964804
14.783418
14.606519
14.434015
14.265813
14.101819
13.941941
13.786088
13.634168
13.48609
13.341763
13.201096
13.063999
12.930381
12.800153
12.673224
12.549507
12.428912
12.311352
12.19674
12.08499
11.976017
11.869739
11.766074
11.664942
11.566266
11.469968
11.375982
19.915372
19.619672
19.330446
19.047606
18.771063
18.500722
18.236485
17.978251
17.725921
17.479393
17.238563
17.003332
16.773596
16.549256
16.33021
16.116361
15.907608
15.703856
15.505008
15.310969
15.121644
14.93694
14.756764
14.581024
14.409628
14.242486
14.079507
13.9206
13.765677
13.614647
13.467421
13.32391
13.184024
13.047674
12.914772
12.785228
12.658956
12.535867
12.415873
12.298889
12.184828
12.073606
11.965139
11.859346
11.756145
11.655458
11.557207
11.461318
11.367724
19.836437
19.544309
19.258476
18.978864
18.705391
18.437972
18.176516
17.920934
17.67113
17.42701
17.188478
16.955438
16.727795
16.505452
16.288314
16.076287
15.869277
15.667189
15.469933
15.277416
15.089546
14.906235
14.727391
14.552925
14.382749
14.216774
14.054913
13.897076
13.743176
13.593127
13.446839
13.304226
13.165199
13.029673
12.897559
12.768771
12.643221
12.520824
12.401493
12.285143
12.17169
12.06105
11.95314
11.847881
11.745192
11.644995
11.547215
11.451776
11.358614
19.749956
19.46173
19.179607
18.903522
18.633406
18.369182
18.110769
17.858086
17.611046
17.369561
17.133544
16.902903
16.67755
16.457394
16.242346
16.032315
15.827213
15.626949
15.431437
15.240587
15.054313
14.872527
14.695143
14.522075
14.353237
14.188542
14.027905
13.871241
13.718465
13.56949
13.424232
13.282604
13.144521
13.009898
12.878649
12.750689
12.625933
12.504295
12.385691
12.270038
12.157252
12.047251
11.939954
11.835282
11.733154
11.633496
11.536232
11.441289
11.348601
19.655557
19.371578
19.093493
18.821249
18.554788
18.294044
18.038947
17.789423
17.545395
17.306783
17.073507
16.845482
16.622627
16.404858
16.192088
15.984236
15.781215
15.582942
15.389333
15.200304
15.015772
14.835653
14.659864
14.488322
14.320944
14.157647
13.99835
13.842968
13.691418
13.543618
13.399485
13.258934
13.121883
12.988248
12.857945
12.730891
12.607002
12.486195
12.368387
12.253496
12.14144
12.032139
11.925512
11.821481
11.719969
11.6209
11.524201
11.429799
11.337631
19.837942
19.55287
19.273496
18.999789
18.731711
18.469216
18.212249
17.96075
17.714657
17.4739
17.238409
17.00811
16.782928
16.562788
16.347611
16.13732
15.931836
15.731079
15.534972
15.343433
15.156385
14.973748
14.795443
14.621389
14.451509
14.285721
14.123948
13.966108
13.812121
13.661909
13.515389
13.372481
13.233104
13.097177
12.964619
12.835347
12.70928
12.586337
12.466436
12.349496
12.235436
12.124176
12.015637
11.909741
11.80641
11.705569
11.607144
11.511062
11.417251
11.32565
19.721368
19.441529
19.167128
18.898153
18.634578
18.37637
18.123488
17.875882
17.6335
17.396283
17.164169
16.937095
16.714992
16.497792
16.285425
16.077819
15.874901
15.676599
15.482838
15.293545
15.108645
14.928064
14.751726
14.579556
14.411478
14.247417
14.087296
13.931038
13.778568
13.629806
13.484676
13.3431
13.204998
13.070292
12.938903
12.810752
12.685758
12.563843
12.444927
12.32893
12.215774
12.105379
11.99767
11.892569
11.789999
11.689888
11.592163
11.496752
11.403585
11.312601
19.595383
19.321174
19.052127
18.788247
18.529523
18.275935
18.027455
17.784046
17.545666
17.312268
17.083799
16.860204
16.641425
16.4274
16.218066
16.01336
15.813216
15.617565
15.426341
15.239476
15.056898
14.87854
14.70433
14.534197
14.368069
14.205876
14.047543
13.892999
13.742169
13.594979
13.451354
13.311219
13.174498
13.041115
12.910994
12.784056
12.660226
12.539424
12.421575
12.306601
12.194424
12.084969
11.978159
11.873919
11.772176
11.672857
11.575891
11.481207
11.388739
11.298425
19.459631
19.191458
18.928156
18.669744
18.416227
18.167601
17.923851
17.684952
17.450875
17.221583
16.997034
16.777182
16.561979
16.351371
16.145305
15.943722
15.746564
15.553771
15.365281
15.181031
15.000957
14.824996
14.65308
14.485144
14.321121
14.160943
14.004541
13.851845
13.702786
13.557292
13.415292
13.276714
13.141485
13.009532
12.880779
12.755153
12.632579
12.512982
12.396287
12.282418
12.1713
12.06286
11.957023
11.853716
11.752866
11.654404
11.558259
11.464363
11.372651
11.283063
19.579999
19.313772
19.052052
18.794892
18.542328
18.294384
18.05107
17.812384
17.578317
17.348851
17.12396
16.903615
16.687779
16.476412
16.269472
16.066912
15.868683
15.674733
15.485009
15.299457
15.118018
14.940636
14.767252
14.597804
14.432231
14.270472
14.112462
13.958137
13.807431
13.660278
13.516611
13.376362
13.239461
13.105839
12.975425
12.848147
12.723935
12.602716
12.484417
12.368966
12.256289
12.146314
12.038968
11.93418
11.831879
11.731994
11.634456
11.539198
11.446153
11.355256
11.266453
19.416499
19.157492
18.902645
18.65203
18.405702
18.163703
17.926056
17.692778
17.463871
17.23933
17.019144
16.803292
16.59175
16.384489
16.181473
15.982667
15.788028
15.597514
15.411078
15.228672
15.050247
14.875751
14.705129
14.538328
14.375291
14.21596
14.060277
13.908182
13.759612
13.614507
13.472801
13.334432
13.199333
13.067437
12.938678
12.812987
12.690294
12.570532
12.453629
12.339515
12.22812
12.119375
12.013207
11.909549
11.80833
11.709483
11.612941
11.518637
11.426507
11.33649
11.248532
19.241852
18.990504
18.742953
18.49929
18.25959
18.023911
17.792294
17.56477
17.341356
17.122062
16.906888
16.695826
16.488864
16.28598
16.087153
15.892352
15.701547
15.514702
15.331779
15.152737
14.977532
14.806121
14.638454
14.474484
14.314159
14.157428
14.004235
13.854527
13.708245
13.565332
13.425728
13.289373
13.156205
13.02616
12.899174
12.775184
12.654121
12.535921
12.420515
12.307838
12.197819
12.090393
11.98549
11.883044
11.782988
11.685256
11.589783
11.496504
11.405358
11.316285
19.055807
18.812558
18.572726
18.336423
18.103743
17.874762
17.649539
17.428119
17.210537
16.996814
16.786965
16.580993
16.378899
16.180672
15.9863
15.795764
15.60904
15.426103
15.246922
15.071464
14.899693
14.731571
14.567056
14.406106
14.248676
14.094719
13.944185
13.797026
13.653188
13.512617
13.375259
13.241057
13.109953
12.981887
12.856798
12.734626
12.615308
12.498779
12.384977
12.273836
12.165291
12.059277
11.955729
11.854582
11.755772
11.659234
11.564907
11.472728
11.382636
11.294575
18.858161
18.623445
18.391752
18.163214
17.937945
17.71604
17.497574
17.282611
17.071198
16.863374
16.659164
16.458587
16.261653
16.068365
15.87872
15.692709
15.510319
15.331533
15.156328
14.984679
14.816558
14.651934
14.490772
14.333036
14.178686
14.027683
13.879981
13.735537
13.594302
13.456229
13.321265
13.189358
13.060455
12.9345
12.811436
12.691205
12.573748
12.459004
12.346913
12.237413
12.130442
12.025938
11.923838
11.824079
11.7266
11.63134
11.538238
11.447234
11.35827
11.271293
18.648766
18.423008
18.199865
17.979492
17.762021
17.547565
17.336219
17.128061
16.923157
16.721556
16.523302
16.328423
16.136944
15.948878
15.764233
15.583012
15.405211
15.23082
15.059828
14.892217
14.727966
14.567052
14.409448
14.255122
14.104044
13.956177
13.811484
13.669925
13.531457
13.396037
13.263619
13.134154
13.007593
12.883884
12.762975
12.644811
12.529335
12.416493
12.306226
12.198475
12.093182
11.990286
11.88973
11.791452
11.695394
11.601496
11.509702
11.419952
11.332192
11.246371
18.427535
18.211145
17.996953
17.785133
17.575838
17.369199
17.165329
16.964322
16.76626
16.571208
16.379222
16.190345
16.004613
15.822053
15.642683
15.466517
15.293559
15.123812
14.957271
14.793928
14.63377
14.476781
14.32294
14.172226
14.024611
13.880066
13.738561
13.60006
13.464526
13.331921
13.202203
13.075329
12.951254
12.82993
12.711308
12.595339
12.48197
12.371148
12.262819
12.156928
12.053418
11.952235
11.85332
11.756618
11.662072
11.569626
11.479224
11.390811
11.304333
11.219745
18.19445
17.987822
17.782964
17.580072
17.379319
17.180854
16.984807
16.791289
16.600396
16.412211
16.226802
16.044227
15.864534
15.687761
15.513938
15.34309
15.175232
15.010375
14.848524
14.68968
14.533837
14.380989
14.231121
14.084219
13.940262
13.799228
13.661091
13.525823
13.393392
13.263764
13.136904
13.012773
12.891329
12.772531
12.656334
12.542691
12.431554
12.322874
12.216601
12.112682
12.011066
11.911699
11.814528
11.719499
11.626559
11.535654
11.446732
11.359739
11.274625
11.191347
17.949576
17.753076
17.557916
17.364309
17.172447
16.982497
16.794606
16.608903
16.425499
16.244491
16.065961
15.889981
15.716611
15.545902
15.377896
15.212626
15.05012
14.890399
14.733476
14.57936
14.428057
14.279564
14.133878
13.99099
13.850886
13.713551
13.578965
13.447106
13.317948
13.191463
13.067619
12.946384
12.827721
12.711591
12.597956
12.486772
12.377996
12.271582
12.167484
12.065653
11.966041
11.868598
11.773274
11.680018
11.58878
11.499509
11.412155
11.32667
11.243003
11.161115
17.693063
17.50703
17.321903
17.137913
16.955269
16.774158
16.594741
16.417165
16.241554
16.06802
15.896661
15.72756
15.56079
15.396415
15.234488
15.075053
14.918148
14.763803
14.612042
14.462883
14.316338
14.172416
14.031119
13.892445
13.756389
13.622942
13.492089
13.363816
13.238102
13.114924
12.994256
12.876071
12.760337
12.647021
12.536087
12.427497
12.321211
12.217189
12.115387
12.015761
11.918266
11.822856
11.729484
11.638102
11.548664
11.461121
11.375428
11.291537
11.209402
11.128986
17.425161
17.249897
17.075105
16.901035
16.727912
16.555937
16.385291
16.216132
16.048602
15.882826
15.718914
15.556964
15.397061
15.23928
15.083685
14.930333
14.77927
14.630537
14.484167
14.340187
14.198619
14.059477
13.922773
13.788513
13.656697
13.527324
13.400386
13.275874
13.153774
13.034068
12.916736
12.801756
12.689101
12.578742
12.470649
12.364788
12.261124
12.159619
12.060236
11.962933
11.867669
11.774402
11.683088
11.593684
11.506144
11.420427
11.336486
11.254279
11.173762
11.094903
17.146222
16.981988
16.817797
16.653914
16.490581
16.328014
16.166407
16.005935
15.846751
15.688995
15.532791
15.378248
15.225463
15.074523
14.925503
14.778471
14.633482
14.490588
14.349831
14.211247
14.074865
13.940709
13.808798
13.679146
13.551759
13.426644
13.3038
13.183222
13.064904
12.948834
12.834996
12.723374
12.613946
12.506689
12.401576
12.29858
12.197668
12.098808
12.001966
11.907104
11.814186
11.723173
11.634025
11.546701
11.461161
11.377365
11.295271
11.214839
11.136028
11.058809
16.856714
16.70372
16.55035
16.396883
16.243572
16.090649
15.938321
15.786775
15.636178
15.486683
15.338424
15.191524
15.046092
14.902224
14.760007
14.619517
14.480823
14.343984
14.209051
14.07607
13.945077
13.816105
13.689181
13.564324
13.441551
13.320873
13.202297
13.085823
12.971452
12.859177
12.74899
12.640877
12.534824
12.430811
12.328817
12.228819
12.13079
12.034701
11.940521
11.84822
11.757762
11.669114
11.582239
11.4971
11.413661
11.331883
11.251731
11.173165
11.096149
11.020656
16.557223
16.415626
16.273247
16.130376
15.987279
15.844197
15.70135
15.558937
15.417138
15.276114
15.136014
14.99697
14.859102
14.722518
14.587313
14.453575
14.32138
14.190798
14.061889
13.934705
13.809294
13.685694
13.563941
13.444061
13.326079
13.21001
13.09587
12.983665
12.873401
12.765078
12.658693
12.554238
12.451703
12.351074
12.252336
12.155468
12.06045
11.967256
11.875861
11.786237
11.698354
11.612181
11.527686
11.444836
11.363598
11.283937
11.20582
11.129212
11.054079
10.980398
16.248459
16.118355
15.987082
15.854937
15.722195
15.589107
15.455904
15.322793
15.189966
15.057594
14.925836
14.794834
14.664718
14.535604
14.4076
14.280801
14.155293
14.031153
13.90845
13.787247
13.667596
13.549545
13.433137
13.318405
13.205379
13.094085
12.984542
12.876763
12.770761
12.66654
12.564104
12.46345
12.364573
12.267465
12.172114
12.078507
11.986624
11.896448
11.807957
11.721125
11.635929
11.552341
11.470332
11.389874
11.310937
11.23349
11.157502
11.082943
11.009783
10.938
15.931261
15.812681
15.692566
15.571219
15.448921
15.325932
15.202488
15.078807
14.955087
14.831511
14.708244
14.585438
14.463231
14.341751
14.22111
14.101414
13.982758
13.865226
13.748896
13.633837
13.52011
13.407771
13.296867
13.187442
13.07953
12.973164
12.868369
12.765165
12.66357
12.563595
12.465247
12.368531
12.273447
12.179991
12.088156
11.997933
11.909309
11.82227
11.736797
11.652871
11.570471
11.489575
11.410156
11.332191
11.255653
11.180516
11.106751
11.034332
10.963232
10.893432
15.606601
15.499503
15.390531
15.279992
15.16817
15.055329
14.94171
14.827539
14.713019
14.59834
14.483675
14.369184
14.255013
14.141295
14.028153
13.915699
13.804035
13.693255
13.583441
13.474671
13.367014
13.260531
13.155277
13.051302
12.948647
12.84735
12.747443
12.648952
12.5519
12.456305
12.362178
12.26953
12.178364
12.088684
12.000487
11.913768
11.82852
11.744731
11.662389
11.581478
11.501981
11.42388
11.347153
11.27178
11.197737
11.125003
11.053552
10.983361
10.914408
10.846676
15.275574
15.179843
15.081932
14.982145
14.880766
14.778064
14.674282
14.569649
14.464373
14.358649
14.252656
14.14656
14.040513
13.934654
13.829113
13.72401
13.619451
13.515538
13.412361
13.310003
13.20854
13.108039
13.008561
12.910162
12.812891
12.71679
12.621897
12.528245
12.43586
12.344767
12.254983
12.166521
12.079394
11.993606
11.909162
11.826059
11.744297
11.663867
11.584761
11.506969
11.430477
11.355271
11.281333
11.208647
11.137193
11.066952
10.997904
10.930029
10.863306
10.797725
14.939404
14.854847
14.767839
14.678679
14.587648
14.495014
14.401021
14.305899
14.20986
14.1131
14.015803
13.918138
13.820263
13.722322
13.624451
13.526772
13.429401
13.332444
13.235996
13.140147
13.044977
12.950561
12.856966
12.764251
12.672472
12.581676
12.491908
12.403204
12.315598
12.229116
12.143784
12.059619
11.976637
11.894848
11.814261
11.73488
11.656706
11.579736
11.503967
11.429391
11.356
11.283783
11.212727
11.142819
11.074042
11.006383
10.939823
10.874346
10.809936
10.746584
14.599432
14.525777
14.44944
14.370709
14.289863
14.207163
14.12285
14.037155
13.950289
13.862451
13.773824
13.684582
13.594884
13.504878
13.414704
13.32449
13.234355
13.144409
13.054753
12.965481
12.876679
12.788426
12.700795
12.613849
12.52765
12.442251
12.357699
12.274037
12.191303
12.109529
12.028744
11.948971
11.87023
11.792536
11.715902
11.640336
11.565843
11.492426
11.420085
11.348816
11.278616
11.209476
11.141388
11.074342
11.008327
10.943331
10.87934
10.816341
10.754322
10.693276
14.257109
14.194005
14.12803
14.05946
13.988564
13.915596
13.840793
13.764381
13.686569
13.607554
13.527521
13.446643
13.36508
13.282985
13.200496
13.117746
13.034857
12.951943
12.869109
12.786452
12.704062
12.622024
12.540412
12.459297
12.378743
12.298808
12.219545
12.140999
12.063214
11.986226
11.910068
11.834768
11.760349
11.686832
11.614234
11.542565
11.471837
11.402056
11.333224
11.265345
11.198415
11.132433
11.067393
11.003289
10.940113
10.877857
10.81651
10.756064
10.696507
10.637841
13.913981
13.861002
13.805004
13.746253
13.685004
13.6215
13.555972
13.488637
13.419701
13.349357
13.277788
13.205164
13.131647
13.057389
12.98253
12.907202
12.831531
12.755633
12.679615
12.603577
12.527613
12.451809
12.376245
12.300995
12.226127
12.151701
12.077775
12.004399
11.931619
11.859476
11.788007
11.717244
11.647214
11.577942
11.509447
11.441746
11.374853
11.308778
11.243528
11.179108
11.115522
11.052768
10.990847
10.929755
10.869489
10.810042
10.751409
10.693583
10.636558
10.580336
13.571676
13.528319
13.481845
13.432501
13.380526
13.326153
13.269599
13.211075
13.150778
13.088895
13.025605
12.961076
12.895465
12.828924
12.761591
12.693601
12.625079
12.556141
12.486896
12.417446
12.347886
12.278306
12.208788
12.139408
12.070237
12.00134
11.932776
11.864599
11.796859
11.729601
11.662863
11.596683
11.53109
11.466113
11.401775
11.338097
11.275095
11.212784
11.151175
11.090275
11.030091
10.970628
10.911887
10.853869
10.796574
10.739998
10.68414
10.628996
10.574563
10.520847
13.231877
13.197577
13.160105
13.11969
13.076554
13.030912
12.982972
12.93293
12.880976
12.827288
12.772039
12.71539
12.657496
12.598504
12.53855
12.477768
12.416281
12.354206
12.291653
12.228722
12.165511
12.102109
12.038602
11.975067
11.911577
11.848199
11.784996
11.722024
11.659335
11.596976
11.534991
11.473418
11.412292
11.351643
11.291498
11.231881
11.172812
11.114308
11.056384
10.999051
10.942319
10.886195
10.830684
10.775791
10.721518
10.667867
10.614837
10.562428
10.51064
10.459482
12.896307
12.87044
12.84139
12.809365
12.774571
12.737204
12.697457
12.655513
12.611549
12.565735
12.518233
12.4692
12.418783
12.367123
12.314353
12.260604
12.205997
12.150648
12.094663
12.038144
11.981188
11.923885
11.86632
11.808573
11.750716
11.69282
11.634948
11.577158
11.519505
11.462038
11.404804
11.347842
11.29119
11.234882
11.178947
11.123412
11.068299
11.013629
10.95942
10.905686
10.852439
10.799691
10.747449
10.69572
10.644511
10.593824
10.543664
10.494034
10.444935
10.39638
12.581519
12.566723
12.548604
12.527339
12.503114
12.476111
12.446509
12.414481
12.380195
12.343817
12.305503
12.265405
12.223672
12.180443
12.135852
12.090023
12.043087
11.995162
11.946359
11.89678
11.846527
11.795694
11.744373
11.692648
11.640597
11.588295
11.535811
11.48321
11.430553
11.377894
11.325286
11.272775
11.220404
11.168212
11.116236
11.064508
11.013055
10.961904
10.911078
10.860596
10.810477
10.760735
10.711383
10.662434
10.613896
10.565777
10.518086
10.470828
10.424008
10.377632
10.331716
12.252728
12.244848
12.23376
12.219606
12.202545
12.182739
12.160343
12.135512
12.1084
12.079154
12.047919
12.014835
11.980039
11.943662
11.905828
11.866655
11.826271
11.784787
11.742307
11.698931
11.654758
11.609881
11.564389
11.518364
11.471885
11.425025
11.377853
11.330435
11.28283
11.235096
11.187285
11.139444
11.091619
11.04385
10.996174
10.948626
10.901236
10.854032
10.80704
10.76028
10.713774
10.667538
10.621589
10.57594
10.530604
10.485591
10.440911
10.396573
10.352585
10.308954
10.265699
11.934075
11.932369
11.927585
11.919834
11.909272
11.89603
11.880245
11.862053
11.841587
11.818978
11.794358
11.767853
11.739588
11.709684
11.678255
11.645415
11.61128
11.575953
11.539533
11.502119
11.463803
11.424676
11.384823
11.344325
11.303257
11.261693
11.219701
11.177344
11.134683
11.091775
11.048671
11.005421
10.96207
10.91866
10.875229
10.831813
10.788443
10.74515
10.70196
10.658897
10.615983
10.573238
10.53068
10.488324
10.446185
10.404276
10.362609
10.321195
10.280044
10.239168
10.198585
11.627311
11.630943
11.631673
11.629641
11.62489
11.617559
11.607763
11.595618
11.581238
11.564739
11.546235
11.525839
11.503663
11.479815
11.454402
11.427528
11.399297
11.369806
11.339149
11.307417
11.274699
11.24108
11.206642
11.171461
11.135612
11.099165
11.062186
11.024739
10.986882
10.94867
10.910157
10.87139
10.832415
10.793274
10.754006
10.714649
10.675234
10.635792
10.596352
10.556939
10.517577
10.478286
10.439087
10.399997
10.361033
10.322209
10.28354
10.24504
10.206719
10.168591
10.130678
11.333955
11.342163
11.347682
11.350585
11.350939
11.348882
11.344433
11.337726
11.328851
11.317907
11.304993
11.290207
11.273646
11.255407
11.235586
11.214277
11.191573
11.167563
11.142335
11.115972
11.088558
11.060171
11.030888
11.000784
10.969927
10.938385
10.906223
10.873502
10.840277
10.806604
10.772533
10.738113
10.703387
10.6684
10.633188
10.59779
10.562239
10.526566
10.4908
10.454968
10.419093
10.3832
10.347309
10.311439
10.275608
10.239833
10.20413
10.168513
10.132997
10.097597
10.062335
11.055476
11.067508
11.077076
11.084223
11.089007
11.091498
11.091752
11.08989
11.085921
11.079964
11.072095
11.062397
11.050955
11.037853
11.023174
11.007001
10.989418
10.970504
10.950339
10.929001
10.906565
10.883102
10.858685
10.833383
10.807261
10.780383
10.752809
10.724598
10.695806
10.666482
10.636678
10.606439
10.575809
10.54483
10.513541
10.481977
10.450173
10.41816
10.385968
10.353623
10.321151
10.288576
10.255919
10.223202
10.190442
10.157659
10.124869
10.092089
10.059334
10.026621
9.9939751
10.793237
10.808377
10.821289
10.831993
10.840527
10.846935
10.851266
10.853581
10.853925
10.852399
10.849019
10.843877
10.837042
10.828585
10.818577
10.807092
10.7942
10.779972
10.764481
10.747794
10.729981
10.711107
10.691237
10.670434
10.648759
10.626272
10.60303
10.579086
10.554494
10.529302
10.503559
10.477307
10.45059
10.423448
10.395919
10.368038
10.339838
10.311351
10.282607
10.253631
10.224451
10.195091
10.165572
10.135916
10.106144
10.076274
10.046324
10.016313
9.9862561
9.956172
9.9260868
10.548497
10.566079
10.581675
10.595285
10.606926
10.616622
10.624406
10.630316
10.634393
10.636688
10.637242
10.636133
10.63339
10.629076
10.623258
10.615994
10.607346
10.597377
10.586146
10.573717
10.560149
10.545502
10.529833
10.5132
10.495658
10.477263
10.458066
10.438118
10.417467
10.396161
10.374243
10.351757
10.328742
10.305237
10.281278
10.2569
10.232134
10.207012
10.181563
10.155813
10.129789
10.103514
10.077012
10.050304
10.02341
9.9963517
9.9691465
9.9418131
9.9143694
9.8868341
9.8592345
10.322422
10.341844
10.35952
10.375431
10.389579
10.401969
10.412618
10.421547
10.428783
10.434359
10.438309
10.440677
10.441499
10.440835
10.438727
10.435209
10.430349
10.424194
10.416799
10.408215
10.398495
10.387692
10.375857
10.363042
10.349294
10.334665
10.319202
10.30295
10.285956
10.268261
10.249908
10.230937
10.211385
10.191288
10.170682
10.149598
10.128069
10.106123
10.083789
10.061093
10.038062
10.014718
9.9910843
9.9671833
9.9430356
9.9186613
9.8940798
9.8693101
9.8443705
9.8192807
9.7940686
10.116111
10.136841
10.156056
10.173725
10.18983
10.204366
10.217332
10.228737
10.238592
10.246917
10.253735
10.259073
10.262962
10.265438
10.266537
10.266297
10.264776
10.261983
10.257986
10.252823
10.24654
10.239182
10.230795
10.221424
10.211111
10.1999
10.187835
10.174957
10.161307
10.146924
10.131847
10.116112
10.099756
10.082812
10.065312
10.047287
10.028767
10.00978
9.9903532
9.9705124
9.950282
9.9296856
9.9087458
9.887484
9.8659212
9.8440776
9.8219728
9.799626
9.777056
9.7542829
9.731335
9.9306248
9.952209
9.9724963
9.9914422
10.009018
10.025205
10.03999
10.053369
10.065342
10.075916
10.085102
10.092918
10.099383
10.104521
10.108359
10.110928
10.11226
10.112382
10.111354
10.109179
10.105912
10.10159
10.09625
10.089932
10.082675
10.074515
10.065491
10.05564
10.044998
10.033602
10.021487
10.008685
9.9952295
9.981153
9.9664847
9.9512533
9.9354869
9.9192121
9.9024547
9.8852393
9.8675894
9.849528
9.8310768
9.8122571
9.7930894
9.7735939
9.75379
9.733697
9.713334
9.6927211