/*--------------------------------*- C++ -*----------------------------------*\
| =========                 |                                                 |
| \\      /  F ield         | OpenFOAM: The Open Source CFD Toolbox           |
|  \\    /   O peration     | Version:  2312                                  |
|   \\  /    A nd           | Website:  www.openfoam.com                      |
|    \\/     M anipulation  |                                                 |
\*---------------------------------------------------------------------------*/
FoamFile
{
    version     2.0;
    format      ascii;
    arch        "LSB;label=32;scalar=64";
    class       volScalarField;
    location    "0.09";
    object      Ma;
}
// * * * * * * * * * * * * * * * * * * * * * * * * * * * * * * * * * * * * * //

dimensions      [0 0 0 0 0 0 0];

internalField   nonuniform List<scalar> 
3250
(
0.0079582869
0.0078648496
0.0077729646
0.0076825132
0.0075933856
0.0075054805
0.0074187039
0.0073329688
0.0072481946
0.0071643066
0.0070812354
0.0069989168
0.0069172911
0.0068363031
0.0067559014
0.0066760387
0.0065966708
0.0065177572
0.0064392603
0.0063611455
0.0062833812
0.0062059382
0.00612879
0.0060519124
0.0059752837
0.0058988844
0.0058226972
0.0057467069
0.0056709004
0.0055952664
0.0055197959
0.0054444816
0.005369318
0.0052943016
0.0052194306
0.0051447049
0.0050701261
0.0049956976
0.0049214243
0.0048473126
0.0047733706
0.0046996079
0.0046260354
0.0045526653
0.0044795114
0.0044065888
0.004333914
0.0042615033
0.0041893749
0.0079564911
0.0078631353
0.0077713269
0.0076809473
0.0075918873
0.0075040457
0.007417329
0.0073316505
0.0072469297
0.0071630923
0.0070800691
0.006997796
0.0069162136
0.0068352667
0.0067549043
0.0066750789
0.0065957468
0.0065168673
0.0064384032
0.0063603199
0.0062825857
0.0062051717
0.0061280514
0.0060512007
0.005974598
0.0058982238
0.0058220609
0.0057460941
0.0056703104
0.0055946986
0.0055192496
0.0054439562
0.005368813
0.0052938165
0.0052189649
0.0051442581
0.0050696979
0.0049952875
0.0049210319
0.0048469377
0.0047730128
0.0046992669
0.0046257108
0.0045523571
0.004479219
0.0044063122
0.0043336527
0.004261257
0.0041891434
0.0079528962
0.0078597034
0.0077680477
0.0076778114
0.0075888861
0.0075011713
0.0074145741
0.0073290084
0.0072443943
0.0071606577
0.0070777301
0.0069955478
0.0069140516
0.0068331868
0.0067529025
0.0066731517
0.0065938907
0.0065150794
0.0064366804
0.0063586596
0.0062809854
0.0062036291
0.0061265642
0.006049767
0.0059732159
0.0058968915
0.0058207768
0.0057448567
0.0056691181
0.0055935502
0.0055181438
0.0054428919
0.005367789
0.0052928318
0.0052180185
0.0051433492
0.0050688256
0.004994451
0.0049202305
0.0048461705
0.0047722793
0.0046985664
0.0046250427
0.0045517208
0.0044786141
0.0044057381
0.0043331087
0.0042607426
0.004188658
0.007947506
0.0078545571
0.0077631299
0.0076731082
0.0075843845
0.0074968596
0.0074104413
0.0073250444
0.0072405899
0.0071570044
0.00707422
0.0069921735
0.0069108064
0.0068300643
0.006749897
0.0066702577
0.0065911034
0.0065123939
0.0064340925
0.0063561652
0.0062785808
0.0062013107
0.0061243289
0.0060476117
0.0059711377
0.0058948879
0.0058188451
0.0057429947
0.0056673238
0.0055918214
0.0055164787
0.0054412887
0.0053662461
0.0052913476
0.0052165916
0.0051419782
0.0050675091
0.004993188
0.0049190197
0.004845011
0.00477117
0.0046975062
0.0046240309
0.0045507563
0.0044776963
0.0044048661
0.0043322816
0.0042599596
0.0041879183
0.0079403258
0.0078477012
0.007756578
0.0076668417
0.0075783862
0.0074911137
0.0074049334
0.0073197612
0.007235519
0.0071521345
0.0070695406
0.0069876748
0.0069064794
0.0068259008
0.0067458891
0.0066663983
0.0065873857
0.0065088118
0.0064306402
0.0063528374
0.0062753724
0.0061982171
0.0061213458
0.006044735
0.0059683636
0.0058922129
0.005816266
0.0057405083
0.0056649272
0.0055895121
0.0055142541
0.0054391464
0.0053641839
0.0052893635
0.0052146836
0.0051401445
0.005065748
0.0049914978
0.004917399
0.0048434584
0.004769684
0.0046960856
0.0046226744
0.0045494628
0.0044764647
0.0044036951
0.0043311703
0.0042589069
0.0041869231
0.0079318733
0.0078396297
0.0077488637
0.0076594626
0.0075713223
0.0074843466
0.0073984461
0.0073135379
0.0072295454
0.0071463972
0.0070640271
0.0069823739
0.0069013804
0.0068209939
0.0067411653
0.0066618491
0.0065830032
0.0065045888
0.0064265698
0.0063489133
0.0062715888
0.0061945686
0.0061178271
0.0060413414
0.0059650907
0.0058890565
0.0058132223
0.0057375737
0.0056620983
0.0055867857
0.0055116272
0.0054366163
0.0053617481
0.0052870194
0.005212429
0.0051379773
0.0050636662
0.0049894994
0.0049154823
0.0048416215
0.0047679255
0.0046944041
0.0046210682
0.0045479306
0.0044750052
0.004402307
0.0043298522
0.0042576576
0.0041857415
0.007922416
0.0078305982
0.0077402314
0.0076512052
0.0075634174
0.0074767736
0.0073911859
0.0073065732
0.00722286
0.0071399762
0.0070578567
0.0069764413
0.0068956739
0.0068155025
0.0067358787
0.006656758
0.0065780988
0.0064998629
0.0064220149
0.0063445223
0.0062673551
0.006190486
0.00611389
0.0060375445
0.005961429
0.0058855254
0.0058098174
0.0057342911
0.0056589341
0.0055837364
0.0055086895
0.0054337872
0.0053590245
0.0052843988
0.0052099088
0.005135555
0.0050613396
0.0049872665
0.004913341
0.00483957
0.004765962
0.0046925267
0.0046192756
0.0045462211
0.0044733773
0.0044007593
0.0043283833
0.0042562662
0.0041844262
0.0079112145
0.0078199002
0.0077300056
0.0076414227
0.0075540519
0.0074678007
0.0073825833
0.0072983202
0.0072149375
0.0071323667
0.0070505439
0.0069694101
0.0068889104
0.0068089936
0.0067296125
0.0066507233
0.0065722852
0.0064942608
0.0064166154
0.0063393169
0.0062623361
0.0061856461
0.0061092225
0.0060330431
0.0059570878
0.0058813389
0.0058057806
0.005730399
0.0056551825
0.0055801209
0.0055052064
0.0054304327
0.0053557953
0.0052812916
0.0052069206
0.005132683
0.0050585812
0.0049846191
0.0049108023
0.0048371378
0.0047636342
0.0046903014
0.0046171507
0.004544195
0.0044714481
0.0043989253
0.0043266429
0.0042546178
0.0041828683
0.0078981491
0.0078074207
0.0077180755
0.0076300089
0.0075431235
0.0074573295
0.0073725434
0.0072886876
0.0072056901
0.0071234839
0.007042007
0.0069612014
0.0068810136
0.0068013938
0.0067222957
0.0066436764
0.0065654962
0.0064877184
0.0064103092
0.0063332372
0.0062564738
0.0061799928
0.0061037703
0.0060277847
0.0059520164
0.005876448
0.0058010643
0.0057258517
0.005650799
0.0055758964
0.0055011363
0.0054265127
0.0053520215
0.0052776603
0.0052034282
0.0051293263
0.0050553571
0.0049815247
0.0049078348
0.0048342947
0.0047609129
0.0046876997
0.0046146664
0.0045418259
0.0044691922
0.0043967806
0.0043246076
0.00425269
0.0041810463
0.0078830951
0.0077930399
0.0077043263
0.007616853
0.0075305258
0.0074452577
0.0073609676
0.0072775804
0.007195026
0.0071132395
0.0070321605
0.0069517328
0.0068719042
0.0067926263
0.006713854
0.0066355456
0.0065576625
0.0064801688
0.0064030317
0.0063262206
0.0062497078
0.0061734676
0.0060974769
0.0060217146
0.0059461617
0.0058708015
0.005795619
0.0057206013
0.0056457374
0.0055710181
0.005496436
0.0054219856
0.0053476629
0.0052734659
0.0051993941
0.0051254486
0.0050516322
0.0049779493
0.0049044058
0.004831009
0.0047577678
0.0046846925
0.0046117945
0.0045390869
0.0044665837
0.0043943004
0.0043222534
0.0042504599
0.0041789381
0.0078659235
0.0077766338
0.0076886386
0.0076018402
0.0075161482
0.0074314786
0.0073477532
0.0072648994
0.0071828497
0.0071015412
0.0070209156
0.0069409184
0.0068614991
0.0067826109
0.00670421
0.006626256
0.0065487116
0.0064715419
0.0063947151
0.0063182017
0.0062419746
0.0061660092
0.0060902829
0.0060147754
0.0059394684
0.0058643456
0.0057893928
0.0057145975
0.0056399492
0.0055654391
0.0054910602
0.0054168074
0.0053426771
0.0052686676
0.0051947786
0.0051210116
0.0050473698
0.0049738575
0.0049004811
0.004827248
0.0047541672
0.0046812492
0.0046085057
0.0045359497
0.0044635955
0.0043914585
0.0043195554
0.0042479033
0.0041765207
0.0078465012
0.0077580743
0.0076708888
0.0075848516
0.0074998759
0.0074158814
0.0073327932
0.0072505416
0.0071690616
0.0070882929
0.0070081793
0.0069286684
0.0068497116
0.0067712637
0.0066932826
0.0066157293
0.0065385677
0.0064617645
0.0063852886
0.0063091118
0.006233208
0.0061575534
0.0060821263
0.0060069071
0.0059318783
0.0058570243
0.0057823314
0.0057077878
0.0056333834
0.0055591101
0.0054849612
0.0054109321
0.0053370196
0.0052632223
0.0051895403
0.0051159755
0.0050425311
0.004969212
0.0048960247
0.0048229768
0.0047500776
0.0046773376
0.0046047688
0.0045323844
0.0044601987
0.0043882274
0.004316487
0.0042449949
0.0041737696
0.0078246909
0.0077372289
0.0076509494
0.0075657639
0.0074815901
0.0073983516
0.0073159771
0.0072344
0.0071535585
0.0070733948
0.0069938552
0.0069148896
0.0068364515
0.0067584975
0.0066809874
0.0066038837
0.0065271519
0.0064507599
0.0063746781
0.0062988793
0.0062233385
0.0061480329
0.0060729419
0.0059980466
0.0059233304
0.0058487785
0.0057743777
0.0057001169
0.0056259867
0.0055519795
0.0054780891
0.0054043114
0.0053306437
0.0052570849
0.0051836356
0.0051102979
0.0050370755
0.0049639736
0.0048909987
0.0048181589
0.0047454636
0.0046729238
0.0046005513
0.0045283596
0.0044563632
0.0043845779
0.0043130203
0.0042417079
0.0041706593
0.0078003518
0.0077139616
0.0076286888
0.0075444502
0.0074611682
0.0073787706
0.0072971901
0.0072163638
0.007136233
0.007056743
0.0069778428
0.0068994848
0.0068216247
0.0067442213
0.0066672362
0.006590634
0.0065143815
0.0064384482
0.0063628061
0.0062874291
0.0062122935
0.0061373776
0.0060626617
0.0059881281
0.005913761
0.0058395462
0.0057654717
0.0056915268
0.0056177029
0.0055439929
0.0054703914
0.0053968945
0.0053235002
0.0052502079
0.0051770185
0.0051039346
0.0050309601
0.0049581006
0.004885363
0.0048127557
0.0047402883
0.0046679718
0.0045958185
0.004523842
0.0044520569
0.0043804791
0.0043091255
0.0042380136
0.0041671622
0.0077733396
0.007688133
0.0076039724
0.00752078
0.0074384838
0.0073570161
0.007276314
0.0071963185
0.0071169744
0.0070382303
0.0069600382
0.0068823533
0.0068051337
0.0067283405
0.0066519376
0.0065758913
0.0065001705
0.0064247462
0.0063495918
0.006274683
0.0061999971
0.0061255138
0.0060512145
0.0059770825
0.005903103
0.0058292629
0.0057555507
0.0056819568
0.0056084732
0.0055350935
0.0054618128
0.005388628
0.0053155376
0.0052425413
0.0051696407
0.0050968388
0.0050241398
0.0049515497
0.0048790758
0.0048067266
0.0047345122
0.0046624438
0.004590534
0.0045187964
0.0044472459
0.0043758986
0.0043047714
0.0042338821
0.0041632494
0.0077435075
0.0076596008
0.007576662
0.0074946197
0.0074134073
0.0073329626
0.007253227
0.007174146
0.0070956682
0.0070177458
0.0069403339
0.0068633908
0.0067868774
0.0067107572
0.0066349965
0.0065595637
0.0064844295
0.0064095671
0.0063349514
0.0062605594
0.0061863704
0.006112365
0.006038526
0.0059648379
0.0058912869
0.0058178608
0.0057445493
0.0056713434
0.0055982361
0.0055252215
0.0054522957
0.0053794561
0.0053067016
0.0052340328
0.0051614516
0.0050889615
0.0050165672
0.004944275
0.0048720926
0.0048000289
0.0047280943
0.0046563002
0.0045846594
0.0045131858
0.0044418946
0.0043708019
0.0042999249
0.0042292814
0.0041588905
0.0077107066
0.0076282203
0.0075466172
0.0074658327
0.0073858063
0.0073064814
0.0072278043
0.0071497252
0.0070721968
0.0069951752
0.0069186191
0.0068424899
0.0067667514
0.0066913701
0.0066163145
0.0065415555
0.006467066
0.006392821
0.0063187974
0.0062449739
0.0061713311
0.0060978514
0.0060245189
0.0059513192
0.0058782397
0.0058052694
0.0057323989
0.0056596203
0.0055869272
0.0055143148
0.0054417797
0.0053693202
0.0052969358
0.0052246277
0.0051523982
0.0050802514
0.0050081927
0.0049362285
0.0048643671
0.0047926178
0.0047209911
0.004649499
0.0045781543
0.0045069714
0.0044359655
0.004365153
0.0042945513
0.0042241782
0.004154053
0.0076747866
0.0075938451
0.0075136955
0.0074342804
0.007355546
0.0072774413
0.0071999184
0.007122932
0.0070464397
0.0069704015
0.0068947799
0.0068195397
0.0067446482
0.0066700745
0.0065957901
0.0065217682
0.0064479841
0.0063744149
0.0063010395
0.0062278385
0.0061547942
0.0060818905
0.0060091128
0.0059364484
0.0058638859
0.0057914154
0.0057190285
0.0056467184
0.0055744797
0.0055023084
0.0054302021
0.0053581595
0.0052861811
0.0052142686
0.0051424251
0.0050706551
0.0049989644
0.0049273602
0.0048558509
0.0047844464
0.0047131575
0.0046419965
0.0045709767
0.0045001124
0.0044294194
0.004358914
0.004288614
0.0042185373
0.0041487034
0.0076355966
0.0075563279
0.0074777532
0.0073998228
0.0073224897
0.0072457093
0.0071694395
0.0070936402
0.0070182739
0.0069433048
0.0068686997
0.006794427
0.0067204574
0.0066467633
0.0065733189
0.0065001003
0.0064270851
0.0063542529
0.0062815846
0.0062090627
0.0061366715
0.0060643965
0.0059922248
0.005920145
0.0058481471
0.0057762226
0.0057043642
0.0056325661
0.0055608241
0.005489135
0.0054174973
0.0053459106
0.0052743761
0.0052028962
0.0051314747
0.0050601166
0.0049888284
0.0049176177
0.0048464935
0.0047754659
0.0047045463
0.0046337472
0.0045630824
0.0044925664
0.0044222152
0.0043520454
0.004282075
0.004212322
0.0041428062
0.0076710855
0.0075929862
0.0075155216
0.0074386463
0.0073623188
0.0072864996
0.0072111508
0.0071362363
0.0070617216
0.0069875742
0.0069137633
0.0068402596
0.0067670359
0.0066940662
0.0066213264
0.0065487939
0.0064764475
0.0064042677
0.0063322362
0.0062603365
0.0061885531
0.0061168722
0.0060452812
0.005973769
0.0059023255
0.0058309424
0.0057596124
0.0056883295
0.0056170893
0.0055458883
0.0054747247
0.0054035976
0.0053325078
0.0052614571
0.0051904488
0.0051194872
0.0050485782
0.0049777286
0.0049069468
0.0048362423
0.0047656255
0.0046951083
0.0046247037
0.0045544256
0.0044842891
0.0044143103
0.0043445061
0.0042748946
0.0042054942
0.0041363247
0.007622848
0.007546807
0.00747128
0.0073962312
0.0073216278
0.007247438
0.0071736308
0.0071001766
0.0070270469
0.0069542144
0.0068816534
0.0068093392
0.0067372487
0.0066653598
0.006593652
0.0065221059
0.0064507035
0.006379428
0.0063082639
0.0062371969
0.0061662139
0.0060953032
0.006024454
0.0059536571
0.0058829042
0.0058121883
0.0057415037
0.0056708458
0.0056002114
0.0055295981
0.0054590053
0.0053884331
0.0053178832
0.0052473583
0.0051768624
0.0051064007
0.0050359797
0.004965607
0.0048952914
0.0048250429
0.0047548726
0.0046847928
0.0046148168
0.004544959
0.0044752348
0.0044056605
0.0043362534
0.0042670318
0.0041980143
0.0041292208
0.0075707548
0.0074969137
0.0074234594
0.0073503662
0.0072776102
0.0072051675
0.0071330144
0.0070611281
0.0069894863
0.0069180674
0.0068468508
0.0067758167
0.0067049463
0.0066342218
0.0065636262
0.0064931439
0.0064227599
0.0063524605
0.0062822329
0.0062120653
0.0061419472
0.006071869
0.006001822
0.0059317988
0.0058617929
0.0057917992
0.0057218133
0.0056518321
0.0055818537
0.0055118771
0.0054419027
0.0053719318
0.0053019669
0.0052320118
0.0051620714
0.0050921516
0.0050222596
0.0049524037
0.0048825935
0.0048128394
0.0047431531
0.0046735473
0.0046040359
0.0045346336
0.0044653561
0.0043962202
0.0043272434
0.0042584442
0.0041898414
0.0041214552
0.0075146637
0.0074431649
0.0073719197
0.0073009126
0.0072301288
0.0071595526
0.0070891681
0.0070189594
0.0069489106
0.0068790061
0.0068092308
0.0067395698
0.006670009
0.0066005348
0.0065311344
0.0064617956
0.006392507
0.0063232578
0.0062540384
0.0061848396
0.0061156534
0.0060464724
0.0059772903
0.0059081016
0.0058389019
0.0057696876
0.005700456
0.0056312056
0.0055619357
0.005492647
0.0054233408
0.0053540196
0.0052846871
0.005215348
0.0051460081
0.0050766742
0.0050073542
0.0049380573
0.0048687935
0.004799574
0.0047304111
0.0046613179
0.0045923088
0.0045233989
0.0044546044
0.0043859424
0.0043174307
0.0042490881
0.0041809335
0.0041129874
0.0075235716
0.0074544391
0.0073854253
0.0073165257
0.0072477358
0.0071790498
0.0071104608
0.0070419607
0.0069735408
0.0069051919
0.0068369046
0.0067686693
0.0067004766
0.006632317
0.0065641815
0.0064960613
0.0064279482
0.0063598342
0.006291712
0.0062235748
0.0061554164
0.0060872314
0.0060190149
0.0059507629
0.005882472
0.0058141397
0.0057457643
0.005677345
0.0056088817
0.0055403753
0.0054718278
0.0054032418
0.0053346212
0.0052659706
0.0051972958
0.0051286035
0.0050599016
0.0049911987
0.0049225047
0.0048538305
0.0047851878
0.0047165894
0.0046480493
0.004579582
0.0045112034
0.0044429299
0.004374779
0.004306769
0.0042389189
0.0041712478
0.0041037761
0.0074563055
0.0073899552
0.007323567
0.007257149
0.0071907068
0.0071242445
0.0070577638
0.0069912646
0.0069247457
0.0068582048
0.0067916388
0.006725044
0.0066584163
0.0065917514
0.0065250448
0.006458292
0.0063914888
0.0063246309
0.0062577144
0.0061907357
0.0061236916
0.0060565795
0.005989397
0.0059221425
0.0058548149
0.0057874138
0.0057199393
0.0056523924
0.0055847748
0.0055170891
0.0054493384
0.0053815269
0.0053136597
0.0052457427
0.0051777826
0.0051097874
0.0050417655
0.0049737269
0.0049056819
0.0048376423
0.0047696205
0.00470163
0.0046336852
0.0045658013
0.0044979945
0.0044302818
0.0043626811
0.004295211
0.0042278909
0.0041607402
0.0040937787
0.0073845219
0.0073210962
0.0072574721
0.0071936694
0.0071297044
0.0070655907
0.0070013388
0.006936957
0.0068724517
0.0068078275
0.0067430878
0.006678235
0.0066132705
0.0065481951
0.0064830092
0.0064177127
0.0063523054
0.0062867869
0.0062211569
0.0061554151
0.0060895614
0.0060235959
0.0059575191
0.0058913318
0.0058250352
0.0057586311
0.0056921216
0.0056255096
0.0055587986
0.0054919927
0.0054250968
0.0053581163
0.0052910576
0.005223928
0.0051567353
0.0050894884
0.0050221971
0.0049548717
0.004887524
0.0048201661
0.0047528114
0.0046854739
0.0046181687
0.0045509115
0.004483719
0.0044166088
0.004349599
0.0042827087
0.0042159577
0.0041493654
0.0073081222
0.0072477593
0.0071870337
0.0071259771
0.0070646162
0.0070029741
0.0069410704
0.0068789217
0.006816542
0.0067539432
0.0066911352
0.0066281264
0.006564924
0.006501534
0.0064379618
0.0063742117
0.0063102878
0.0062461937
0.0061819327
0.0061175079
0.0060529224
0.0059881794
0.0059232819
0.0058582335
0.0057930377
0.0057276985
0.0056622203
0.0055966078
0.0055308664
0.0054650019
0.0053990206
0.0053329298
0.005266737
0.0052004507
0.0051340801
0.0050676351
0.0050011266
0.0049345659
0.0048679655
0.0048013385
0.0047346989
0.0046680616
0.0046014422
0.004534857
0.0044683232
0.0044018589
0.0043354827
0.0042692139
0.0042030725
0.0041370782
0.0072270244
0.0071698562
0.0071121586
0.0070539744
0.0069953407
0.0069362904
0.006876852
0.0068170504
0.0067569073
0.0066964416
0.0066356701
0.0065746073
0.0065132661
0.0064516579
0.006389793
0.0063276805
0.0062653286
0.0062027451
0.006139937
0.0060769109
0.0060136732
0.00595023
0.0058865873
0.0058227513
0.005758728
0.0056945237
0.0056301451
0.0055655987
0.005500892
0.0054360324
0.005371028
0.0053058874
0.0052406198
0.0051752349
0.0051097433
0.0050441559
0.0049784846
0.0049127418
0.004846941
0.0047810961
0.0047152219
0.0046493339
0.0045834484
0.0045175824
0.0044517536
0.0043859806
0.0043202824
0.0042546788
0.0041891898
0.0041238362
0.0071411654
0.0070873161
0.0070327689
0.0069775776
0.0069217897
0.0068654473
0.0068085879
0.0067512446
0.0066934467
0.0066352205
0.0065765891
0.0065175735
0.0064581922
0.0063984621
0.0063383984
0.006278015
0.0062173245
0.0061563387
0.0060950684
0.0060335238
0.0059717147
0.0059096502
0.0058473394
0.005784791
0.0057220136
0.0056590161
0.005595807
0.0055323954
0.0054687903
0.0054050011
0.0053410377
0.0052769101
0.0052126291
0.0051482058
0.005083652
0.0050189798
0.0049542022
0.0048893328
0.0048243858
0.0047593762
0.0046943194
0.0046292318
0.0045641304
0.0044990328
0.0044339572
0.0043689228
0.004303949
0.004239056
0.0041742643
0.0041095953
0.0070505034
0.0070000875
0.0069488048
0.0068967198
0.0068438897
0.006790366
0.0067361949
0.0066814173
0.0066260704
0.0065701873
0.0065137978
0.0064569289
0.0063996052
0.0063418487
0.0062836798
0.0062251169
0.0061661773
0.0061068767
0.0060472298
0.0059872505
0.0059269518
0.0058663461
0.0058054454
0.0057442612
0.0056828048
0.0056210873
0.0055591196
0.0054969129
0.0054344783
0.0053718269
0.0053089704
0.0052459206
0.0051826896
0.0051192899
0.0050557347
0.0049920373
0.004928212
0.0048642733
0.0048002364
0.0047361171
0.004671932
0.0046076979
0.0045434326
0.0044791544
0.0044148822
0.0043506355
0.0042864343
0.0042222993
0.0041582515
0.0040943126
0.0069550202
0.0069081408
0.0068602266
0.0068113525
0.0067615848
0.0067109841
0.0066596046
0.0066074955
0.006554701
0.0065012612
0.0064472124
0.0063925877
0.0063374172
0.0062817285
0.0062255468
0.0061688954
0.0061117957
0.0060542678
0.0059963301
0.0059380002
0.0058792944
0.0058202284
0.0057608171
0.0057010748
0.0056410155
0.0055806527
0.0055199997
0.0054590698
0.005397876
0.0053364316
0.0052747498
0.0052128441
0.0051507282
0.0050884161
0.0050259222
0.0049632613
0.0049004486
0.0048374999
0.0047744313
0.0047112595
0.0046480019
0.0045846763
0.0045213012
0.0044578954
0.0043944785
0.0043310705
0.0042676921
0.0042043643
0.0041411084
0.0040779469
0.0068547237
0.0068114707
0.0067670176
0.0067214485
0.0066748387
0.0066272571
0.0065787659
0.0065294217
0.0064792758
0.006428375
0.006376762
0.0063244755
0.0062715514
0.0062180225
0.0061639188
0.0061092684
0.0060540969
0.0059984284
0.0059422854
0.005885689
0.0058286588
0.0057712138
0.0057133718
0.00565515
0.005596565
0.0055376327
0.0054783689
0.0054187888
0.0053589078
0.0052987408
0.005238303
0.0051776095
0.0051166756
0.0050555168
0.0049941488
0.0049325877
0.0048708499
0.0048089523
0.0047469119
0.0046847466
0.0046224746
0.0045601144
0.0044976851
0.0044352066
0.0043726988
0.0043101825
0.0042476786
0.0041852089
0.004122795
0.0040604598
0.0067496503
0.0067100987
0.0066691856
0.0066270039
0.0065836369
0.0065391612
0.0064936465
0.0064471565
0.0063997492
0.0063514776
0.0063023904
0.0062525322
0.0062019441
0.0061506639
0.0060987267
0.0060461647
0.005993008
0.0059392848
0.0058850211
0.0058302417
0.0057749696
0.0057192269
0.0056630344
0.005606412
0.005549379
0.0054919539
0.0054341546
0.0053759986
0.0053175033
0.0052586857
0.0051995626
0.0051401509
0.0050804674
0.0050205291
0.0049603532
0.0048999569
0.004839358
0.0047785742
0.004717624
0.004656526
0.0045952991
0.0045339629
0.0044725373
0.0044110426
0.0043494996
0.0042879295
0.0042263539
0.0041647948
0.0041032746
0.0040418165
0.0066398675
0.0066040755
0.0065667665
0.0065280409
0.0064879894
0.0064466956
0.0064042361
0.006360681
0.0063160944
0.0062705356
0.0062240586
0.0061767135
0.0061285466
0.0060796005
0.0060299147
0.0059795261
0.0059284687
0.0058767745
0.0058244734
0.0057715935
0.0057181612
0.0056642016
0.0056097385
0.0055547947
0.0054993917
0.0054435507
0.005387292
0.0053306352
0.0052735996
0.0052162042
0.0051584676
0.0051004085
0.0050420451
0.0049833961
0.0049244798
0.004865315
0.0048059204
0.0047463152
0.0046865185
0.0046265501
0.0045664298
0.004506178
0.0044458154
0.0043853629
0.0043248419
0.0042642744
0.0042036824
0.0041430884
0.0040825152
0.0040219863
0.0065254758
0.0064934832
0.0064598256
0.0064246099
0.0063879331
0.0063498851
0.0063105484
0.006269999
0.0062283069
0.0061855364
0.0061417471
0.006096994
0.0060513281
0.0060047966
0.0059574434
0.0059093094
0.0058604327
0.005810849
0.0057605917
0.0057096921
0.0056581801
0.0056060835
0.0055534291
0.0055002423
0.0054465474
0.0053923677
0.0053377258
0.0052826435
0.0052271422
0.0051712427
0.0051149655
0.0050583307
0.0050013584
0.0049440684
0.0048864808
0.0048286153
0.0047704921
0.0047121312
0.0046535531
0.0045947783
0.0045358276
0.0044767222
0.0044174835
0.0043581331
0.0042986932
0.0042391861
0.0041796346
0.0041200616
0.0040604903
0.0040009446
0.0064066114
0.0063784377
0.0063484609
0.0063167922
0.0062835344
0.0062487822
0.0062126238
0.00617514
0.0061364058
0.0060964905
0.0060554583
0.0060133689
0.0059702775
0.0059262356
0.0058812912
0.005835489
0.0057888708
0.0057414757
0.0056933406
0.0056445001
0.0055949868
0.0055448317
0.0054940641
0.0054427121
0.0053908025
0.0053383608
0.005285412
0.0052319799
0.0051780878
0.0051237583
0.0050690137
0.0050138759
0.0049583663
0.0049025064
0.0048463173
0.0047898203
0.0047330366
0.0046759874
0.0046186941
0.0045611782
0.0045034615
0.0044455659
0.0043875135
0.0043293267
0.0042710283
0.0042126412
0.0041541886
0.004095694
0.0040371809
0.0039786738
0.0062834476
0.0062590909
0.0062328045
0.0062047021
0.0061748911
0.0061434703
0.0061105319
0.0060761613
0.0060404375
0.0060034342
0.0059652196
0.0059258573
0.0058854067
0.005843923
0.0058014578
0.0057580593
0.0057137729
0.0056686409
0.0056227031
0.0055759972
0.0055285588
0.0054804214
0.0054316171
0.0053821763
0.0053321282
0.0052815006
0.0052303206
0.0051786139
0.0051264057
0.0050737205
0.0050205823
0.0049670144
0.0049130399
0.0048586815
0.0048039619
0.0047489033
0.0046935283
0.0046378591
0.0045819181
0.0045257277
0.0044693106
0.0044126894
0.0043558871
0.0042989267
0.0042418316
0.0041846252
0.0041273313
0.0040699739
0.0040125769
0.0039551651
0.0061561973
0.006135632
0.0061130258
0.0060884894
0.0060621357
0.0060340653
0.0060043742
0.0059731509
0.0059404778
0.0059064321
0.0058710854
0.0058345049
0.0057967531
0.0057578886
0.0057179665
0.0056770379
0.0056351513
0.0055923519
0.0055486825
0.0055041834
0.0054588928
0.0054128468
0.0053660799
0.0053186249
0.005270513
0.0052217743
0.0051724377
0.005122531
0.0050720811
0.0050211142
0.0049696559
0.0049177311
0.0048653642
0.0048125794
0.0047594005
0.0047058511
0.0046519547
0.0045977346
0.0045432143
0.004488417
0.0044333661
0.0043780852
0.0043225978
0.0042669277
0.0042110988
0.0041551351
0.004099061
0.0040429007
0.0039866787
0.0039304201
0.0060251244
0.0060082891
0.0059893326
0.0059683413
0.0059454371
0.005920719
0.0058942868
0.0058662303
0.0058366351
0.0058055805
0.0057731411
0.0057393866
0.0057043825
0.0056681903
0.0056308675
0.0055924682
0.0055530434
0.005512641
0.0054713061
0.0054290817
0.0053860081
0.0053421239
0.0052974658
0.0052520685
0.0052059655
0.0051591887
0.0051117688
0.0050637355
0.0050151173
0.0049659421
0.0049162368
0.0048660279
0.0048153412
0.004764202
0.0047126354
0.0046606662
0.0046083188
0.0045556176
0.0045025869
0.0044492509
0.0043956337
0.0043417596
0.0042876529
0.004233338
0.0041788393
0.0041241813
0.0040693889
0.0040144867
0.0039594996
0.0039044531
0.0058905054
0.005877352
0.0058619842
0.0058444843
0.0058250031
0.005803621
0.0057804427
0.0057555573
0.0057290528
0.0057010099
0.0056715051
0.0056406102
0.0056083928
0.0055749165
0.0055402411
0.005504423
0.0054675152
0.0054295679
0.0053906284
0.0053507415
0.0053099498
0.0052682939
0.0052258124
0.0051825419
0.0051385177
0.0050937735
0.0050483418
0.0050022536
0.0049555392
0.0049082279
0.0048603479
0.0048119271
0.0047629926
0.0047135708
0.004663688
0.0046133699
0.0045626421
0.0045115298
0.0044600581
0.004408252
0.0043561365
0.0043037365
0.0042510769
0.0041981826
0.0041450786
0.00409179
0.004038342
0.0039847597
0.0039310683
0.0038772936
0.0057526738
0.0057431076
0.0057312535
0.0057172033
0.0057010942
0.0056830015
0.0056630548
0.0056413286
0.005617913
0.0055928884
0.0055663329
0.0055383193
0.0055089168
0.0054781902
0.0054462013
0.0054130079
0.005378665
0.0053432241
0.0053067344
0.0052692423
0.0052307924
0.0051914267
0.0051511855
0.0051101073
0.0050682288
0.0050255851
0.0049822103
0.004938137
0.0048933966
0.0048480198
0.0048020361
0.0047554746
0.0047083634
0.0046607301
0.004612602
0.0045640057
0.0045149677
0.0044655141
0.0044156708
0.0043654635
0.0043149178
0.0042640592
0.0042129134
0.0041615056
0.0041098615
0.0040580064
0.0040059661
0.0039537658
0.0039014314
0.0038489886
0.005612015
0.0056059128
0.0055974706
0.0055867877
0.0055739851
0.0055591467
0.0055423905
0.0055237833
0.0055034386
0.0054814247
0.00545782
0.0054326969
0.0054061259
0.0053781724
0.0053488992
0.0053183653
0.0052866268
0.0052537362
0.0052197439
0.0051846978
0.0051486436
0.0051116249
0.0050736833
0.0050348585
0.0049951886
0.0049547101
0.0049134581
0.0048714666
0.0048287681
0.0047853944
0.0047413762
0.0046967435
0.0046515254
0.0046057506
0.0045594471
0.0045126426
0.0044653641
0.0044176385
0.0043694925
0.0043209524
0.0042720445
0.0042227948
0.0041732293
0.004123374
0.0040732548
0.0040228975
0.0039723281
0.0039215723
0.0038706561
0.0038196057
0.0054689572
0.0054661742
0.0054610147
0.0054535964
0.0054440106
0.0054323555
0.0054187323
0.0054032153
0.0053859099
0.0053668721
0.0053462052
0.005323969
0.0053002344
0.0052750658
0.0052485274
0.0052206781
0.0051915748
0.0051612703
0.0051298156
0.0050972595
0.0050636488
0.0050290281
0.00499344
0.0049569251
0.0049195225
0.0048812698
0.004842203
0.0048023569
0.0047617653
0.0047204608
0.0046784749
0.0046358385
0.0045925816
0.0045487336
0.0045043233
0.004459379
0.0044139286
0.0043679995
0.004321619
0.0042748139
0.0042276111
0.004180037
0.0041321181
0.0040838807
0.0040353512
0.0039865556
0.0039375202
0.003888271
0.0038388342
0.0037892363
0.0053239666
0.0053243362
0.0053223232
0.0053180322
0.0053115548
0.0053029933
0.0052924262
0.0052799394
0.005265623
0.0052495399
0.0052317871
0.0052124085
0.0051915028
0.0051691191
0.005145324
0.005120174
0.0050937277
0.0050660365
0.0050371514
0.005007122
0.0049759957
0.0049438177
0.004910631
0.0048764771
0.0048413956
0.0048054247
0.0047686013
0.0047309608
0.0046925377
0.0046533651
0.0046134755
0.0045729003
0.0045316702
0.0044898152
0.0044473647
0.0044043476
0.0043607922
0.0043167266
0.0042721784
0.004227175
0.0041817435
0.0041359108
0.0040897037
0.0040431489
0.0039962729
0.0039491022
0.0039016631
0.003853982
0.0038060851
0.003757999
0.005177553
0.0051808896
0.0051818584
0.0051805541
0.0051770636
0.0051714754
0.0051638697
0.0051543362
0.0051429435
0.0051297654
0.0051148829
0.0050983477
0.0050802537
0.0050606308
0.005039577
0.0050171304
0.0049933538
0.0049682936
0.0049420017
0.0049145275
0.004885919
0.0048562214
0.004825478
0.0047937302
0.0047610181
0.0047273801
0.0046928535
0.0046574742
0.0046212771
0.0045842957
0.004546563
0.0045081107
0.0044689702
0.0044291717
0.0043887451
0.0043477197
0.0043061242
0.004263987
0.004221336
0.0041781991
0.0041346035
0.0040905764
0.004046145
0.004001336
0.0039561762
0.0039106921
0.0038649105
0.0038188575
0.0037725598
0.0037260438
0.0050302703
0.0050363709
0.0050401395
0.0050416603
0.0050410123
0.0050382753
0.0050335256
0.0050268408
0.0050182909
0.0050079525
0.0049958856
0.0049821532
0.0049668333
0.0049499641
0.0049316387
0.0049118783
0.0048907753
0.0048683544
0.00484467
0.0048197709
0.0047937057
0.0047665192
0.0047382538
0.0047089509