/*--------------------------------*- C++ -*----------------------------------*\
| =========                 |                                                 |
| \\      /  F ield         | OpenFOAM: The Open Source CFD Toolbox           |
|  \\    /   O peration     | Version:  2312                                  |
|   \\  /    A nd           | Website:  www.openfoam.com                      |
|    \\/     M anipulation  |                                                 |
\*---------------------------------------------------------------------------*/
FoamFile
{
    version     2.0;
    format      ascii;
    arch        "LSB;label=32;scalar=64";
    class       volScalarField;
    location    "0.09";
    object      N2;
}
// * * * * * * * * * * * * * * * * * * * * * * * * * * * * * * * * * * * * * //

dimensions      [0 0 0 0 0 0 0];

internalField   nonuniform List<scalar> 
3250
(
0.67911757
0.68009402
0.68104812
0.68198149
0.68289567
0.68379213
0.68467224
0.68553732
0.68638862
0.68722733
0.68805458
0.68887146
0.68967899
0.69047817
0.69126995
0.69205524
0.6928349
0.69360977
0.69438066
0.69514831
0.69591348
0.69667685
0.6974391
0.69820085
0.69896272
0.69972526
0.70048903
0.70125452
0.7020222
0.7027925
0.70356583
0.70434253
0.70512295
0.70590735
0.70669597
0.70748904
0.70828669
0.70908905
0.7098962
0.71070816
0.71152492
0.71234642
0.71317257
0.71400323
0.71483811
0.71567689
0.71651951
0.71736563
0.71821491
0.67913872
0.6801143
0.68106757
0.68200016
0.6829136
0.68380937
0.68468882
0.68555329
0.686404
0.68724215
0.68806887
0.68888524
0.6896923
0.69049102
0.69128237
0.69206724
0.6928465
0.693621
0.69439152
0.69515883
0.69592366
0.69668671
0.69744865
0.69821011
0.6989717
0.69973397
0.70049748
0.70126271
0.70203015
0.70280022
0.70357332
0.7043498
0.70513
0.70591419
0.70670262
0.70749549
0.70829296
0.70909513
0.7099021
0.71071388
0.71153047
0.7123518
0.71317778
0.71400825
0.71484296
0.71568164
0.71652414
0.71737013
0.71821926
0.6791811
0.68015493
0.68110656
0.6820376
0.68294959
0.68384397
0.68472212
0.68558535
0.6864349
0.68727194
0.68809761
0.68891298
0.68971909
0.69051691
0.69130739
0.69209144
0.69286993
0.69364367
0.69441348
0.6951801
0.69594428
0.6967067
0.69746804
0.69822892
0.69898995
0.6997517
0.70051469
0.70127943
0.70204639
0.702816
0.70358865
0.70436471
0.7051445
0.70592829
0.70671633
0.70750882
0.70830592
0.70910774
0.70991436
0.7107258
0.71154206
0.71236307
0.71318872
0.71401887
0.71485328
0.71569171
0.71653394
0.71737967
0.71822852
0.67924466
0.68021589
0.68116505
0.68209378
0.68300358
0.6838959
0.68477211
0.68563349
0.68648129
0.68731668
0.68814078
0.68895466
0.68975935
0.69055582
0.69134502
0.69212784
0.69290515
0.69367778
0.69444652
0.69521213
0.69597533
0.69673682
0.69749726
0.69825728
0.69901748
0.69977843
0.70054066
0.70130466
0.70207092
0.70283984
0.70361184
0.70438726
0.70516643
0.70594963
0.70673709
0.70752902
0.70832557
0.70912687
0.70993297
0.71074392
0.71155969
0.71238022
0.71320541
0.7140351
0.71486907
0.71570709
0.71654891
0.71739425
0.7182427
0.67932935
0.6802971
0.68124299
0.68216864
0.68307554
0.68396512
0.68483873
0.68569767
0.68654315
0.68737633
0.68819834
0.68901024
0.68981304
0.69060772
0.69139521
0.6921764
0.69295216
0.69372331
0.69449063
0.69525488
0.69601678
0.69677703
0.69753628
0.69829516
0.69905426
0.69981416
0.70057537
0.7013384
0.70210371
0.70287173
0.70364286
0.70441743
0.70519579
0.70597819
0.70676489
0.70755608
0.70835192
0.70915251
0.70995794
0.71076823
0.71158335
0.71240326
0.71322783
0.71405692
0.71489031
0.71572777
0.71656906
0.71741386
0.71826179
0.67942901
0.68039267
0.68133473
0.68225675
0.68316024
0.6840466
0.68491717
0.68577323
0.68661598
0.68744658
0.68826614
0.6890757
0.68987629
0.69066886
0.69145434
0.69223362
0.69300755
0.69377696
0.69454261
0.69530527
0.69606565
0.69682443
0.69758228
0.69833982
0.69909764
0.69985629
0.70061632
0.7013782
0.70214241
0.70290937
0.70367947
0.70445305
0.70523045
0.70601193
0.70679773
0.70758805
0.70838304
0.70918282
0.70998745
0.71079697
0.71161134
0.71243051
0.71325436
0.71408275
0.71491546
0.71575227
0.71659292
0.7174371
0.71828441
0.67954054
0.68049964
0.6814374
0.68235539
0.68325506
0.68413782
0.68500499
0.68585783
0.68669753
0.68752524
0.68834206
0.68914902
0.68994713
0.69073734
0.69152058
0.69229772
0.69306961
0.69383706
0.69460086
0.69536173
0.69612041
0.69687756
0.69763385
0.69838988
0.69914626
0.69990353
0.70066223
0.70142283
0.70218581
0.70295158
0.70372053
0.70449301
0.70526933
0.70604978
0.70683458
0.70762393
0.70841798
0.70921684
0.71002059
0.71082923
0.71164276
0.71246111
0.71328417
0.71411177
0.71494373
0.7157798
0.71661973
0.71746321
0.71830983
0.67967263
0.68062633
0.68155902
0.68247222
0.68336739
0.68424589
0.68510904
0.68595807
0.68679416
0.68761846
0.68843203
0.68923591
0.69003108
0.69081851
0.69159909
0.6923737
0.69314318
0.69390832
0.69466991
0.69542868
0.69618534
0.69694057
0.697695
0.69844926
0.69920394
0.69995957
0.70071669
0.70147578
0.7022373
0.70300166
0.70376925
0.70454042
0.70531548
0.7060947
0.70687832
0.70766652
0.70845946
0.70925724
0.71005993
0.71086755
0.71168009
0.71249747
0.71331958
0.71414626
0.71497732
0.71581253
0.7166516
0.71749425
0.71834005
0.6798267
0.68077412
0.6817009
0.68260853
0.68349845
0.684372
0.68523046
0.68607505
0.68690695
0.68772726
0.68853705
0.68933734
0.6901291
0.69091327
0.69169076
0.69246242
0.69322908
0.69399154
0.69475056
0.69550688
0.69626119
0.69701416
0.69776644
0.69851863
0.69927131
0.70002504
0.70078033
0.70153765
0.70229746
0.70306019
0.7038262
0.70459584
0.70536943
0.70614722
0.70692945
0.70771631
0.70850795
0.70930447
0.71010594
0.71091237
0.71172375
0.71254
0.71336101
0.71418662
0.71501664
0.71585082
0.7166889
0.71753058
0.71837543
0.68000423
0.68094443
0.68186442
0.68276565
0.68364953
0.68451737
0.68537044
0.68620994
0.687037
0.68785273
0.68865817
0.68945432
0.69024215
0.69102259
0.69179651
0.69256477
0.6933282
0.69408756
0.69484362
0.69559711
0.69634871
0.69709909
0.69784888
0.69859869
0.69934909
0.70010062
0.70085379
0.70160908
0.70236693
0.70312777
0.70389195
0.70465984
0.70543172
0.70620787
0.70698851
0.70777383
0.70856397
0.70935904
0.7101591
0.71096416
0.7117742
0.71258915
0.71340889
0.71423326
0.71506208
0.71589509
0.71673202
0.71757257
0.71841633
0.68020677
0.68113876
0.68205101
0.68294496
0.68382197
0.68468332
0.68553025
0.68636393
0.68718549
0.68799599
0.68879647
0.68958792
0.69037127
0.69114744
0.69191731
0.6926817
0.69344142
0.69419726
0.69494995
0.69570021
0.69644873
0.69719615
0.69794311
0.6986902
0.69943798
0.700187
0.70093776
0.70169073
0.70244635
0.70320503
0.70396714
0.70473301
0.70550296
0.70627723
0.70705605
0.70783961
0.70862805
0.70942146
0.71021991
0.7110234
0.71183192
0.71264538
0.71346368
0.71428664
0.71511408
0.71594575
0.71678138
0.71762064
0.71846314
0.68043593
0.68135866
0.68226218
0.68314791
0.68401715
0.68487117
0.68571117
0.68653829
0.68735363
0.68815824
0.68895312
0.68973924
0.69051753
0.69128888
0.69205415
0.69281417
0.69356972
0.69432157
0.69507044
0.69581706
0.69656208
0.69730616
0.69804991
0.69879393
0.69953876
0.70028494
0.70103297
0.70178331
0.7025364
0.70329264
0.7040524
0.704816
0.70558375
0.7063559
0.70713267
0.70791423
0.70870074
0.70949227
0.7102889
0.71109062
0.71189741
0.71270919
0.71352585
0.71434722
0.71517311
0.71600326
0.7168374
0.71767521
0.71851629
0.68069337
0.68160572
0.68249947
0.68337598
0.68423653
0.68508234
0.68591457
0.68673433
0.6875427
0.68834069
0.68912929
0.68990944
0.69068205
0.691448
0.69220811
0.69296321
0.69371408
0.69446144
0.69520604
0.69594856
0.69668966
0.69742999
0.69817014
0.6989107
0.69965221
0.7003952
0.70114017
0.70188756
0.70263781
0.7033913
0.70414842
0.70490947
0.70567475
0.70644451
0.70721897
0.70799829
0.70878262
0.70957205
0.71036663
0.71116636
0.71197121
0.71278111
0.71359592
0.7144155
0.71523963
0.71606807
0.71690054
0.71773672
0.71857619
0.68098078
0.68188159
0.68276447
0.68363073
0.6844816
0.68531826
0.68614184
0.68695341
0.687754
0.68854462
0.68932622
0.69009972
0.690866
0.69162591
0.69238029
0.6931299
0.69387553
0.69461791
0.69535773
0.69609568
0.6968324
0.69756853
0.69830467
0.69904137
0.69977918
0.70051861
0.70126015
0.70200424
0.70275132
0.70350175
0.70425591
0.70501411
0.70577664
0.70654373
0.7073156
0.70809243
0.70887433
0.7096614
0.71045369
0.71125119
0.71205388
0.71286166
0.71367442
0.71449199
0.71531417
0.7161407
0.7169713
0.71780565
0.71864333
0.68129993
0.68218797
0.68305883
0.68391375
0.68475391
0.68558044
0.68639443
0.68719692
0.68798891
0.68877136
0.6895452
0.69031132
0.69107058
0.69182381
0.69257181
0.69331535
0.69405517
0.694792
0.69552652
0.6962594
0.69699127
0.69772274
0.69845441
0.69918683
0.69992053
0.700656
0.70139374
0.70213417
0.70287772
0.70362475
0.70437563
0.70513066
0.70589012
0.70665425
0.70742325
0.7081973
0.7089765
0.70976095
0.71055069
0.71134572
0.71214599
0.71295143
0.7137619
0.71457724
0.71539724
0.71622164
0.71705016
0.71788248
0.71871816
0.68165262
0.68252661
0.68338423
0.68422667
0.68505503
0.68587041
0.68667385
0.68746634
0.68824884
0.68902228
0.68978756
0.69054554
0.69129706
0.69204291
0.69278387
0.6935207
0.69425412
0.69498483
0.69571349
0.69644076
0.69716727
0.6978936
0.69862034
0.69934802
0.70007717
0.70080828
0.70154181
0.70227819
0.70301783
0.70376111
0.70450836
0.70525988
0.70601595
0.7067768
0.70754263
0.70831359
0.70908981
0.70987136
0.71065828
0.71145057
0.71224817
0.71305101
0.71385895
0.71467182
0.71548941
0.71631145
0.71713767
0.71796773
0.71880121
0.68204066
0.68289928
0.68374241
0.68457117
0.68538661
0.68618976
0.68698162
0.68776313
0.68853523
0.68929879
0.69005467
0.69080372
0.69154672
0.69228447
0.69301771
0.69374716
0.69447354
0.69519751
0.69591974
0.69664085
0.69736145
0.69808213
0.69880343
0.69952591
0.70025005
0.70097635
0.70170525
0.70243717
0.70317252
0.70391166
0.7046549
0.70540256
0.7061549
0.70691213
0.70767446
0.70844203
0.70921496
0.70999331
0.71077713
0.71156639
0.71236106
0.71316104
0.71396618
0.71477633
0.71559125
0.7164107
0.71723437
0.71806194
0.71889298
0.68246593
0.68330779
0.68413512
0.68494895
0.68575029
0.6865401
0.68731932
0.68808885
0.68884957
0.68960233
0.69034794
0.69108722
0.69182092
0.6925498
0.69327458
0.69399596
0.69471462
0.69543123
0.6961464
0.69686076
0.6975749
0.69828937
0.69900474
0.6997215
0.70044015
0.70116117
0.701885
0.70261204
0.70334267
0.70407726
0.70481612
0.70555954
0.70630778
0.70706105
0.70781953
0.70858338
0.70935269
0.71012753
0.71090794
0.71169389
0.71248532
0.71328215
0.71408423
0.71489138
0.71570338
0.71651997
0.71734085
0.71816569
0.71899404
0.68293029
0.68375396
0.68456413
0.68536176
0.68614778
0.68692308
0.68768855
0.68844505
0.68919339
0.68993439
0.69066882
0.69139745
0.69212101
0.69284023
0.69355579
0.69426837
0.69497862
0.69568718
0.69639467
0.69710166
0.69780874
0.69851645
0.69922531
0.69993584
0.7006485
0.70136375
0.70208203
0.70280372
0.70352921
0.70425883
0.70499289
0.70573168
0.70647543
0.70722436
0.70797864
0.70873841
0.70950376
0.71027477
0.71105144
0.71183375
0.71262165
0.71341503
0.71421375
0.71501762
0.71582642
0.71663988
0.7174577
0.71827954
0.71910496
0.68261826
0.68343559
0.68423962
0.68503125
0.68581135
0.68658078
0.68734037
0.68809095
0.68883331
0.68956824
0.69029648
0.69101878
0.69173586
0.69244841
0.69315713
0.69386268
0.69456569
0.69526681
0.69596663
0.69666574
0.69736473
0.69806412
0.69876447
0.69946626
0.70017
0.70087614
0.70158511
0.70229735
0.70301322
0.70373309
0.70445729
0.70518613
0.70591986
0.70665872
0.70740292
0.70815262
0.70890794
0.70966898
0.7104358
0.71120839
0.71198674
0.71277078
0.7135604
0.71435545
0.71515574
0.71596104
0.71677108
0.71758556
0.71840413
0.71922634
0.68318878
0.68398374
0.68476663
0.68553828
0.68629948
0.68705102
0.68779366
0.68852816
0.68925526
0.68997569
0.69069014
0.69139932
0.6921039
0.69280455
0.69350191
0.69419661
0.69488927
0.69558048
0.69627083
0.69696088
0.69765117
0.69834224
0.6990346
0.69972873
0.70042509
0.70112415
0.70182631
0.70253198
0.70324153
0.70395531
0.70467363
0.70539678
0.70612502
0.70685857
0.70759762
0.70834233
0.70909282
0.70984917
0.71061142
0.71137958
0.71215362
0.71293345
0.71371898
0.71451003
0.71530642
0.71610791
0.71691423
0.71772507
0.71854008
0.7193588
0.68380567
0.68457661
0.68533681
0.68608701
0.68682791
0.68756022
0.68828464
0.68900184
0.68971252
0.69041733
0.69111693
0.69181197
0.69250308
0.69319089
0.69387599
0.69455899
0.69524046
0.69592098
0.6966011
0.69728135
0.69796225
0.69864432
0.69932803
0.70001386
0.70070226
0.70139365
0.70208843
0.702787
0.7034897
0.70419688
0.70490882
0.70562581
0.7063481
0.70707589
0.70780936
0.70854867
0.70929391
0.71004517
0.71080247
0.71156582
0.71233518
0.71311045
0.71389153
0.71467824
0.71547039
0.71626775
0.71707003
0.71787692
0.71868806
0.71950298
0.68447077
0.68521601
0.68595196
0.68667921
0.68739839
0.6881101
0.68881499
0.68951365
0.6902067
0.69089475
0.69157841
0.69225826
0.69293489
0.69360889
0.69428081
0.69495121
0.69562065
0.69628966
0.69695875
0.69762844
0.69829923
0.69897159
0.69964599
0.70032287
0.70100266
0.70168578
0.7023726
0.70306349
0.7037588
0.70445884
0.7051639
0.70587424
0.70659009
0.70731165
0.70803909
0.70877255
0.70951212
0.71025786
0.71100981
0.71176795
0.71253224
0.71330257
0.71407883
0.71486085
0.71564841
0.71644128
0.71723918
0.71804179
0.71884874
0.71965957
0.68445953
0.68518579
0.68590373
0.68661384
0.68731663
0.68801263
0.68870236
0.68938638
0.69006522
0.69073942
0.69140955
0.69207613
0.69273972
0.69340084
0.69406003
0.69471781
0.69537471
0.69603123
0.69668787
0.69734513
0.69800348
0.69866339
0.69932532
0.6999897
0.70065695
0.70132749
0.7020017
0.70267995
0.70336258
0.70404992
0.70474228
0.70543991
0.70614307
0.70685198
0.70756683
0.70828776
0.70901491
0.70974835
0.71048815
0.71123432
0.71198684
0.71274565
0.71351064
0.7142817
0.71505863
0.71584124
0.71662926
0.71742242
0.7182204
0.71902284
0.71982925
0.68525685
0.68595251
0.68664148
0.68732415
0.68800095
0.6886723
0.68933865
0.69000045
0.69065817
0.69131229
0.69196329
0.69261165
0.69325787
0.69390242
0.69454579
0.69518846
0.6958309
0.6964736
0.69711701
0.69776159
0.69840778
0.69905604
0.69970678
0.70036041
0.70101734
0.70167794
0.70234259
0.70301163
0.70368539
0.70436417
0.70504826
0.70573792
0.70643337
0.70713481
0.70784243
0.70855636
0.70927671
0.71000357
0.71073696
0.7114769
0.71222336
0.71297626
0.71373551
0.71450095
0.71527241
0.71604966
0.71683246
0.71762051
0.71841349
0.71921107
0.72001279
0.68610922
0.68677253
0.68743086
0.68808452
0.6887338
0.68937903
0.69002057
0.69065879
0.69129408
0.69192686
0.69255752
0.6931865
0.69381422
0.69444112
0.69506763
0.69569418
0.69632121
0.69694915
0.69757843
0.69820947
0.69884268
0.69947848
0.70011725
0.70075939
0.70140526
0.70205524
0.70270965
0.70336882
0.70403307
0.70470268
0.70537791
0.70605901
0.70674618
0.70743962
0.70813947
0.70884588
0.70955894
0.71027871
0.71100522
0.71173847
0.71247841
0.71322497
0.71397803
0.71473744
0.715503
0.7162745
0.71705166
0.7178342
0.7186218
0.71941413
0.68701808
0.68764733
0.6882734
0.68889645
0.68951668
0.69013433
0.69074964
0.69136292
0.69197447
0.69258463
0.69319374
0.69380215
0.69441025
0.6950184
0.69562699
0.69623641
0.69684704
0.69745928
0.69807351
0.69869013
0.6993095
0.69993201
0.70055802
0.70118789
0.70182197
0.70246059
0.70310406
0.7037527
0.70440679
0.70506658
0.70573234
0.70640427
0.70708259
0.70776745
0.708459
0.70915735
0.70986259
0.71057477
0.7112939
0.71201997
0.71275292
0.71349267
0.71423909
0.71499201
0.71575125
0.71651656
0.71728767
0.71806428
0.71884607
0.71963264
0.68798472
0.68857826
0.68917045
0.68976134
0.69035102
0.69093963
0.69152731
0.69211429
0.69270079
0.69328706
0.69387338
0.69446005
0.69504737
0.69563567
0.69622527
0.69681652
0.69740976
0.69800533
0.69860359
0.69920488
0.69980954
0.70041793
0.70103036
0.70164718
0.70226869
0.70289521
0.70352704
0.70416444
0.70480768
0.70545701
0.70611265
0.70677481
0.70744366
0.70811936
0.70880203
0.70949177
0.71018865
0.71089271
0.71160395
0.71232233
0.7130478
0.71378026
0.71451956
0.71526554
0.71601799
0.71677667
0.71754129
0.71831155
0.7190871
0.71986751
0.68901023
0.68956646
0.69012321
0.69068043
0.6912381
0.69179623
0.6923549
0.69291423
0.69347436
0.69403549
0.6945978
0.69516153
0.69572694
0.69629427
0.69686382
0.69743586
0.6980107
0.69858863
0.69916997
0.69975502
0.70034409
0.70093749
0.70153552
0.70213847
0.70274664
0.70336031
0.70397975
0.7046052
0.70523691
0.7058751
0.70651997
0.70717172
0.70783049
0.70849642
0.70916962
0.70985018
0.71053814
0.71123353
0.71193633
0.71264651
0.71336399
0.71408865
0.71482035
0.71555891
0.7163041
0.71705568
0.71781336
0.71857681
0.71934569
0.72011953
0.69009548
0.69061287
0.6911327
0.69165479
0.69217901
0.69270528
0.69323358
0.69376394
0.69429644
0.69483116
0.69536826
0.69590788
0.69645023
0.69699549
0.69754391
0.6980957
0.69865113
0.69921044
0.69977391
0.7003418
0.70091438
0.70149193
0.7020747
0.70266298
0.70325702
0.70385706
0.70446336
0.70507613
0.7056956
0.70632196
0.7069554
0.70759607
0.70824412
0.70889967
0.70956279
0.71023357
0.71091204
0.71159819
0.71229201
0.71299345
0.7137024
0.71441875
0.71514234
0.71587297
0.71661042
0.71735443
0.71810468
0.71886087
0.71962262
0.72038945
0.69124108
0.69171821
0.69219971
0.69268527
0.69317468
0.69366775
0.69416437
0.69466449
0.69516809
0.6956752
0.69618589
0.69670025
0.69721841
0.69774051
0.69826672
0.69879723
0.69933224
0.69987195
0.7004166
0.7009664
0.70152159
0.70208241
0.70264909
0.70322187
0.70380096
0.7043866
0.70497899
0.70557835
0.70618485
0.70679868
0.70742
0.70804893
0.70868561
0.70933013
0.70998257
0.71064296
0.71131133
0.71198767
0.71267194
0.71336407
0.71406396
0.71477146
0.71548641
0.71620861
0.7169378
0.71767373
0.71841608
0.71916452
0.71991867
0.72067805
0.69244736
0.69288291
0.69332475
0.69377249
0.69422579
0.69468439
0.69514809
0.69561673
0.69609023
0.69656855
0.69705168
0.69753965
0.69803252
0.69853038
0.69903334
0.69954154
0.70005513
0.70057427
0.70109915
0.70162994
0.70216685
0.70271006
0.70325979
0.70381623
0.70437957
0.70495001
0.70552774
0.70611292
0.70670573
0.70730632
0.70791481
0.70853133
0.70915597
0.70978882
0.71042992
0.71107931
0.71173698
0.71240292
0.71307705
0.71375931
0.71444956
0.71514767
0.71585344
0.71656666
0.71728708
0.71801442
0.71874836
0.71948855
0.72023461
0.72098605
0.69371431
0.69410709
0.69450808
0.6949168
0.6953328
0.69575574
0.69618533
0.69662134
0.6970636
0.69751199
0.69796645
0.69842693
0.69889344
0.69936601
0.6998447
0.70032959
0.70082078
0.70131839
0.70182256
0.70233343
0.70285115
0.70337589
0.70390782
0.70444709
0.70499387
0.70554832
0.70611061
0.70668087
0.70725924
0.70784586
0.70844082
0.70904424
0.70965617
0.71027669
0.71090581
0.71154356
0.71218991
0.71284483
0.71350823
0.71418002
0.71486007
0.71554821
0.71624425
0.71694795
0.71765906
0.71837728
0.71910229
0.71983372
0.72057119
0.7213142
0.69504157
0.69539053
0.69574961
0.69611823
0.69649586
0.69688205
0.69727644
0.69767873
0.69808867
0.69850607
0.6989308
0.69936276
0.69980189
0.70024816
0.70070158
0.70116218
0.70163002
0.70210516
0.70258771
0.70307775
0.70357542
0.70408082
0.7045941
0.70511537
0.70564479
0.70618246
0.70672853
0.70728311
0.70784631
0.70841823
0.70899897
0.70958858
0.71018712
0.71079463
0.71141113
0.71203659
0.71267099
0.71331427
0.71396633
0.71462706
0.71529632
0.71597392
0.71665965
0.71735328
0.71805452
0.71876308
0.71947862
0.72020077
0.72092913
0.7216632
0.69642838
0.69673266
0.69704892
0.6973765
0.69771479
0.69806327
0.69842148
0.69878905
0.69916568
0.69955111
0.69994513
0.70034758
0.70075836
0.70117737
0.70160458
0.70203996
0.70248352
0.70293529
0.70339532
0.70386367
0.70434041
0.70482563
0.70531943
0.7058219
0.70633315
0.70685327
0.70738235
0.70792049
0.70846778
0.70902429
0.70959007
0.71016518
0.71074965
0.71134349
0.71194669
0.71255922
0.71318103
0.71381204
0.71445215
0.71510121
0.71575908
0.71642554
0.71710039
0.71778337
0.71847419
0.71917253
0.71987805
0.72059038
0.7213091
0.7220337
0.69787356
0.69813247
0.69840518
0.69869095
0.69898908
0.699299
0.69962017
0.69995216
0.70029458
0.70064713
0.70100954
0.70138159
0.70176312
0.70215398
0.70255408
0.70296336
0.70338177
0.7038093
0.70424595
0.70469175
0.70514674
0.70561097
0.70608448
0.70656735
0.70705965
0.70756143
0.70807278
0.70859374
0.70912439
0.70966475
0.71021488
0.7107748
0.71134451
0.711924
0.71251324
0.71311219
0.71372077
0.71433888
0.7149664
0.71560319
0.71624905
0.71690379
0.71756717
0.71823891
0.71891873
0.71960629
0.72030124
0.72100319
0.72171172
0.72242632
0.69937547
0.6995885
0.69981713
0.70006048
0.70031782
0.70058849
0.70087189
0.70116754
0.70147499
0.70179387
0.70212387
0.7024647
0.70281615
0.70317803
0.70355021
0.70393255
0.70432499
0.70472747
0.70513994
0.7055624
0.70599483
0.70643727
0.70688972
0.70735222
0.70782481
0.70830751
0.70880038
0.70930344
0.70981672
0.71034024
0.71087401
0.71141804
0.71197231
0.71253678
0.71311141
0.71369612
0.71429082
0.7148954
0.71550972
0.7161336
0.71676686
0.71740926
0.71806057
0.7187205
0.71938874
0.72006494
0.72074875
0.72143976
0.72213756
0.72284161
0.70093204
0.70109882
0.70128309
0.7014836
0.70169968
0.70193056
0.70217563
0.70243433
0.70270616
0.70299071
0.70328759
0.70359649
0.70391715
0.70424932
0.70459281
0.70494748
0.7053132
0.70568986
0.7060774
0.70647575
0.70688489
0.70730479
0.70773543
0.70817683
0.70862898
0.70909188
0.70956555
0.71004999
0.71054521
0.71105119
0.71156792
0.71209539
0.71263355
0.71318234
0.71374169
0.71431152
0.71489171
0.71548212
0.7160826
0.71669297
0.71731301
0.71794248
0.71858112
0.71922864
0.71988471
0.72054898
0.72122107
0.72190058
0.72258708
0.72328002
0.70254162
0.7026608
0.70280089
0.70295828
0.70313285
0.70332361
0.70352995
0.70375124
0.70398696
0.70423663
0.70449984
0.70477622
0.70506545
0.70536727
0.70568144
0.70600777
0.70634608
0.70669624
0.70705815
0.70743171
0.70781686
0.70821352
0.70862167
0.70904127
0.70947228
0.7099147
0.71036849
0.71083363
0.71131011
0.71179788
0.71229691
0.71280715
0.71332854
0.713861
0.71440444
0.71495875
0.71552379
0.71609941
0.71668544
0.71728168
0.71788788
0.71850382
0.7191292
0.71976371
0.72040703
0.72105878
0.72171859
0.72238602
0.72306066
0.72374193
0.70419945
0.70427334
0.70436889
0.7044819
0.70461509
0.70476553
0.70493293
0.70511654
0.70531581
0.70553022
0.70575932
0.70600271
0.70626004
0.70653098
0.70681527
0.70711268
0.70742301
0.70774607
0.70808174
0.70842989
0.7087904
0.7091632
0.70954821
0.70994537
0.71035461
0.71077589
0.71120915
0.71165436
0.71211145
0.71258037
0.71306106
0.71355344
0.71405743
0.71457293
0.71509983
0.715638
0.71618727
0.71674749
0.71731845
0.71789995
0.71849173
0.71909352
0.71970504
0.72032597
0.72095594
0.7215946
0.72224154
0.72289634
0.72355854
0.72422759
0.70590136
0.7059306
0.70598227
0.70605308
0.70614475
0.70625366
0.70638219
0.70652801
0.70669067
0.7068696
0.70706433
0.70727441
0.70749946
0.70773912
0.70799311
0.70826114
0.70854299
0.70883845
0.70914735
0.70946954
0.70980488
0.71015325
0.71051454
0.71088867
0.71127555
0.7116751
0.71208724
0.7125119
0.71294901
0.71339847
0.71386021
0.71433413
0.71482012
0.71531806
0.71582782
0.71634923
0.71688215
0.71742636
0.71798167
0.71854783
0.71912459
0.71971166
0.72030874
0.72091549
0.72153155
0.72215654
0.72279004
0.72343163
0.72408084
0.7247371
0.70764354
0.70762879
0.70763686
0.70766611
0.70771685
0.70778631
0.70787608
0.70798289
0.70810899
0.7082524
0.70841265
0.70858925
0.70878182
0.70898994
0.70921331
0.70945163
0.70970462
0.70997208
0.71025379
0.71054957
0.71085926
0.71118271
0.7115198
0.71187039
0.71223438
0.71261167
0.71300215
0.71340572
0.71382228
0.71425173
0.71469396
0.71514885
0.71561626
0.71609607
0.71658811
0.71709221
0.71760818
0.71813582
0.71867489
0.71922515
0.71978631
0.72035809
0.72094016
0.72153217
0.72213375
0.72274451
0.72336401
0.72399183
0.72462749
0.72527042
0.70942125
0.70936311
0.70932861
0.7093171
0.70932721
0.70935787
0.70940935
0.70947918
0.70956907
0.70967571
0.70980157
0.70994469
0.71010473
0.7102812
0.7104738
0.71068218
0.71090608
0.71114524
0.71139944
0.71166847
0.71195214
0.71225029
0.71256274
0.71288937
0.71323002
0.71358458
0.71395292
0.71433492
0.71473044
0.71513937
0.71556157
0.71599691
0.71644523
0.71690637
0.71738015
0.7178664
0.71836489
0.7188754
0.7193977
0.7199315
0.72047652
0.72103245
0.72159896
0.72217568
0.72276223
0.7233582
0.72396317
0.72457667
0.72519824
0.72582729
0.71122883
0.71112866
0.71105299
0.71100096
0.71097157
0.71096424
0.71097782
0.71101137
0.71106535
0.71113726
0.71122929
0.71133762
0.71146533
0.71161014
0.71177198
0.71195035
0.71214502
0.71235572
0.71258221
0.71282427
0.71308166
0.71335421
0.71364172
0.71394403
0.71426099
0.71459244
0.71493824
0.71529823
0.71567229
0.71606025
0.71646197
0.71687729
0.71730604
0.71774803
0.71820307
0.71867096
0.71915147
0.71964435
0.72014935
0.72066618
0.72119455
0.72173411
0.72228453
0.72284544
0.72341643
0.7239971
0.72458699
0.72518566
0.72579261
0.72640725
0.71306006
0.7129195
0.71280407
0.71271295
0.71264526
0.71260023
0.71257704
0.71257513
0.71259361
0.71263158
0.71268986
0.71276552
0.71286159
0.71297334
0.71310478
0.71325311
0.71341859
0.71360081
0.71379954
0.71401451
0.71424548
0.71449225
0.7147546
0.71503237
0.71532535
0.7156334
0.71595634
0.716294
0.71664623
0.71701285
0.7173937
0.7177886
0.71819735
0.71861976
0.71905563
0.71950471
0.71996678
0.72044157
0.72092881
0.7214282
0.72193942
0.72246213
0.72299598
0.72354057
0.72409551
0.72466037
0.7252347
0.72581803
0.72640986
0.7270096
0.71490813
0.71472907
0.71457561
0.71444698
0.71434235
0.71426095
0.71420207
0.71416505
0.71414924
0.71415401
0.71417906
0.71422292
0.71428722
0.71436825
0.71446981
0.71458678
0.7147234
0.7148772
0.71504827
0.7152362
0.71544074
0.71566167
0.71589877
0.71615184
0.7164207
0.71670514
0.71700499
0.71732007
0.7176502
0.71799519
0.71835486
0.718729
0.71911742
0.71951989
0.71993619
0.72036609
0.72080931
0.7212656
0.72173465
0.72221617
0.72270981
0.72321522
0.72373205
0.72425988
0.72479831
0.7253469
0.7259052
0.72647272
0.72704896
0.72763333
0.71676567
0.71655024
0.71636073
0.71619638
0.71605645
0.71594019
0.71584693
0.71577604
0.71572691
0.71569898
0.71569199
0.71570477
0.71573795
0.71578947
0.71586009
0.71594924
0.71605605
0.7161809
0.71632473
0.71648579
0.71666401
0.71685916
0.71707103
0.7172994
0.71754406
0.71780482
0.71808146
0.71837381
0.71868166
0.71900481
0.71934306
0.7196962
0.72006401
0.72044625
0.72084269
0.72125307
0.72167712
0.72211455
0.72256506
0.72302833
0.72350401
0.72399174
0.72449114
0.7250018
0.72552331
0.72605521
0.72659705
0.72714833
0.72770856
0.72827711
0.71862481
0.7183753
0.71815193
0.71795391
0.71778053
0.71763113
0.71750506
0.71740174
0.7173206
0.71726113
0.71722288
0.7172053
0.71720814
0.71723056
0.71727206
0.71733289
0.71741149
0.71750995
0.71762483
0.71775909
0.71791123
0.71808081
0.71826761
0.71847139
0.71869193
0.71892902
0.71918245
0.71945201
0.7197375
0.72003871
0.72035542
0.72068739
0.7210344
0.72139621
0.72177256
0.72216318
0.72256779
0.72298609
0.72341776
0.72386247
0.72431986
0.72478957
0.72527121
0.72576435
0.72626858
0.72678343
0.72730843
0.7278431
0.72838693
0.72893929
0.7207843
0.72047683
0.72019598
0.71994117
0.71971171
0.71950697
0.71932634
0.71916923
0.71903511
0.71892344
0.71883376
0.7187656
0.71871852
0.7186921
0.71868607
0.71869951
0.71873285
0.71878436
0.71885576
0.71894408
0.71905308
0.71917768
0.71932205
0.71948407
0.71966351
0.71986012
0.72007369
0.72030401
0.72055087
0.72081404
0.7210933
0.72138843
0.72169918
0.72202531
0.72236657
0.72272269
0.72309339
0.72347837
0.72387734
0.72428995
0.72471587
0.72515474
0.72560617
0.72606976
0.7265451
0.72703174
0.72752924
0.7280371
0.72855484
0.72908194
0.72961777
0.72264868
0.72231297
0.72200353
0.72171986
0.72146138
0.72122753
0.72101777
0.72083158
0.72066847
0.72052797
0.72040963
0.72031303
0.72023776
0.72018344
0.72014972
0.7201362
0.72014255
0.72016836
0.7202131
0.72027665
0.72035871
0.72046004
0.72057812
0.72071531
0.7208708
0.72104381
0.72123415
0.72144159
0.72166592
0.72190692
0.72216436
0.72243798
0.72272756
0.72303283
0.72335352
0.72368937
0.72404009
0.72440536
0.72478488
0.72517831
0.72558529
0.72600546
0.72643842
0.72688378
0.7273411
0.72780995
0.72828985
0.72878032
0.72928088
0.72979099
0.73031003
0.72448485
0.72412391
0.72378872
0.72347889
0.72319394
0.72293339
0.72269677
0.72248362
0.72229352
0.72212603
0.72198077
0.72185735
0.7217554
0.72167457
0.72161452
0.72157493
0.72155548
0.72155589
0.72157548
0.72161489
0.72167244
0.72174858
0.72184311
0.72195751
0.72208759
0.72223746
0.72240494
0.72258986
0.72279199
0.72301111
0.72324696
0.72349929
0.72376785
0.72405239
0.72435262
0.72466827
0.72499904
0.72534462
0.72570468
0.72607888
0.72646687
0.72686827
0.72728268
0.72770969
0.72814887
0.72859978
0.72906193
0.72953486
0.73001806
0.730511
0.73101305
0.72628301
0.72589989
0.72554189
0.72520871
0.72489995
0.72461521
0.72435411
0.72411626
0.72390129
0.72370883
0.72353854
0.72339007
0.7232631
0.72315732
0.72307241
0.7230081
0.72296407
0.72294006
0.7229359
0.72295102
0.72298561
0.72303841
0.7231104
0.72320016
0.72330955
0.72343513
0.72357984
0.72374275
0.72392316
0.72412081
0.72433545
0.72456682
0.72481466
0.72507871
0.7253587
0.72565433
0.7259653
0.72629131
0.72663201
0.72698707
0.72735612
0.72773877
0.72813463
0.72854329
0.72896431
0.72939723
0.72984158
0.73029689
0.73076265
0.73123833
0.73172329
0.72803304
0.72763084
0.72725298
0.72689928
0.72656943
0.72626311
0.72598001
0.72571981
0.7254822
0.72526689
0.72507358
0.72490197
0.72475179
0.72462275
0.7245146
0.72442707
0.7243599
0.72431284
0.72428566
0.72427827
0.72428998
0.72432089
0.72437117
0.72443909
0.72452533
0.72463081
0.72475287
0.72489334
0.72505266
0.72522944
0.72542339
0.72563426
0.7258618
0.72610575
0.72636582
0.72664175
0.7269332
0.72723988
0.72756145
0.72789755
0.72824782
0.72861187
0.72898931
0.72937971
0.72978264
0.73019764
0.73062425
0.73106197
0.73151031
0.73196874
0.73243661
0.72972461
0.72930635
0.72891157
0.72854018
0.72819197
0.72786669
0.7275641
0.72728397
0.72702605
0.72679009
0.72657587
0.72638313
0.72621164
0.72606118
0.72593151
0.7258224
0.72573364
0.725665
0.72561627
0.72558725
0.72557789
0.72558752
0.72561632
0.72566417
0.72572966
0.72581339
0.72591599
0.72603549
0.72617292
0.7263296
0.72650349
0.72669445
0.72690224
0.7271266