/*--------------------------------*- C++ -*----------------------------------*\
| =========                 |                                                 |
| \\      /  F ield         | OpenFOAM: The Open Source CFD Toolbox           |
|  \\    /   O peration     | Version:  2312                                  |
|   \\  /    A nd           | Website:  www.openfoam.com                      |
|    \\/     M anipulation  |                                                 |
\*---------------------------------------------------------------------------*/
FoamFile
{
    version     2.0;
    format      ascii;
    arch        "LSB;label=32;scalar=64";
    class       volScalarField;
    location    "0.09";
    object      T;
}
// * * * * * * * * * * * * * * * * * * * * * * * * * * * * * * * * * * * * * //

dimensions      [0 0 0 1 0 0 0];

internalField   nonuniform List<scalar> 
3250
(
554.11619
552.00568
549.93748
547.90881
545.91706
543.95972
542.03439
540.13878
538.2707
536.42803
534.60875
532.81091
531.03261
529.27203
527.52742
525.79707
524.07933
522.37258
520.67527
518.98588
517.30295
515.62503
513.95072
512.27868
510.60758
508.93614
507.26311
505.58728
503.90749
502.22261
500.53156
498.83329
497.12681
495.41117
493.68548
491.94891
490.20066
488.44001
486.66632
484.87899
483.07749
481.26138
479.43028
477.58391
475.72204
473.8446
471.95148
470.04274
468.11851
554.06971
551.96091
549.89432
547.86719
545.87689
543.92093
541.99691
540.10255
538.23565
536.39411
534.57591
532.77909
531.00177
529.24214
527.49842
525.76893
524.052
522.34603
520.64948
518.96081
517.27856
515.6013
513.92763
512.25619
510.58567
508.91479
507.2423
505.56698
503.88769
502.20329
500.51269
498.81486
497.1088
495.39357
493.66828
491.93208
490.1842
488.42391
486.65056
484.86355
483.06238
481.24658
479.41578
477.56971
475.70813
473.83095
471.9381
470.02963
468.10565
553.97661
551.87121
549.80784
547.78376
545.79636
543.84314
541.92173
540.02985
538.16531
536.32602
534.50996
532.71518
530.93981
529.18204
527.4401
525.71231
523.997
522.29259
520.59753
518.91029
517.22941
515.55346
513.88104
512.21082
510.54146
508.87168
507.20026
505.52597
503.84767
502.16422
500.47453
498.77758
497.07238
495.35796
493.63346
491.89802
490.15088
488.3913
486.61864
484.8323
483.03177
481.21659
479.38641
477.54093
475.67993
473.80331
471.911
470.00306
468.0796
553.83696
551.73665
549.67811
547.65859
545.67551
543.7264
541.8089
539.92072
538.05972
536.22379
534.41093
532.61921
530.84675
529.09176
527.35248
525.62723
523.91435
522.21227
520.51943
518.83433
517.15549
515.4815
513.81097
512.14255
510.47493
508.80682
507.137
505.46425
503.78743
502.1054
500.41709
498.72146
497.01752
495.30434
493.58102
491.84673
490.10069
488.34218
486.57055
484.78522
482.98566
481.17143
479.34217
477.49758
475.63745
473.76167
471.87019
469.96305
468.04037
553.65085
551.55732
549.50519
547.49175
545.51444
543.57079
541.65847
539.77524
537.91893
536.08747
534.27887
532.49121
530.72263
528.97134
527.23559
525.51372
523.80409
522.1051
520.41522
518.73296
517.05685
515.38547
513.71744
512.05143
510.38611
508.72022
507.05253
505.38183
503.70698
502.02685
500.34037
498.6465
496.94426
495.23272
493.51098
491.77821
490.03365
488.27657
486.50633
484.72233
482.92407
481.1111
479.28306
477.43966
475.5807
473.70605
471.81566
469.9096
467.98797
553.43174
551.34618
549.30159
547.29529
545.32475
543.38753
541.48132
539.60388
537.75309
535.92689
534.1233
532.34042
530.57639
528.82946
527.09787
525.37998
523.67414
521.9788
520.29241
518.61348
516.94057
515.27227
513.60719
511.944
510.2814
508.61812
506.95293
505.28465
503.61212
501.93423
500.2499
498.5581
496.85787
495.14825
493.42837
491.69741
489.95459
488.19919
486.43057
484.64816
482.85143
481.03995
479.21335
477.37136
475.51376
473.64044
471.75136
469.84656
467.92617
553.18639
551.10975
549.07359
547.07528
545.11231
543.18228
541.2829
539.41195
537.56734
535.74702
533.94903
532.17149
530.41257
528.6705
526.94357
525.23012
523.52854
521.83727
520.15478
518.4796
516.81027
515.1454
513.48362
511.82359
510.16403
508.50367
506.8413
505.17572
503.50579
501.83039
500.14847
498.459
496.76101
495.05355
493.33576
491.60682
489.86594
488.11243
486.34564
484.565
482.76998
480.96017
479.1352
477.29478
475.43872
473.56689
471.67926
469.77589
467.85689
552.89566
550.82956
548.80338
546.81453
544.86053
542.939
541.0477
539.18444
537.34713
535.53377
533.74242
531.97121
530.21833
528.48202
526.7606
525.05242
523.35588
521.66943
519.99157
518.3208
516.65572
514.99492
513.33704
511.68077
510.02481
508.36792
506.70887
505.04649
503.37964
501.70721
500.02815
498.34143
496.64609
494.9412
493.22588
491.49933
489.76076
488.00949
486.24487
484.46632
482.67335
480.86551
479.04246
477.20391
475.34967
473.47962
471.59372
469.69203
467.77469
552.55629
550.50248
548.48794
546.51011
544.56656
542.65496
540.77308
538.91877
537.08999
535.28475
533.50114
531.7373
529.99146
528.26188
526.54689
524.84485
523.15419
521.47337
519.80089
518.1353
516.47516
514.81911
513.16579
511.5139
509.86214
508.20929
506.55412
504.89548
503.23222
501.56326
499.88753
498.20403
496.51179
494.80989
493.09747
491.3737
489.63784
487.88918
486.12709
484.351
482.5604
480.75488
478.93407
477.09771
475.24559
473.37761
471.49374
469.59403
467.67861
552.16489
550.12524
548.1241
546.15896
544.22745
542.32727
540.45624
538.61226
536.7933
534.99741
533.22271
531.46738
529.72965
528.00782
526.30024
524.60528
522.9214
521.24706
519.5808
517.92115
516.26673
514.61615
512.96809
511.32124
509.67433
508.02613
506.37545
504.72111
503.06201
501.39703
499.72516
498.04536
496.3567
494.65826
492.94917
491.22863
489.49588
487.75024
485.99107
484.21781
482.42997
480.62711
478.8089
476.97506
475.1254
473.25981
471.37827
469.48084
467.56766
551.7179
549.69439
547.70852
545.75786
543.84007
541.95292
540.09428
538.26207
536.45431
534.66909
532.90456
531.15893
529.43046
527.71747
526.01834
524.33147
522.65531
520.98838
519.32921
517.67636
516.02845
514.38413
512.74207
511.10098
509.4596
507.81673
506.17116
504.52174
502.86737
501.20696
499.53948
497.86393
496.17935
494.48486
492.77958
491.06272
489.33354
487.59135
485.83552
484.0655
482.28079
480.48099
478.66574
476.83478
474.98793
473.12508
471.24622
469.35139
467.44076
551.2116
549.20633
547.23774
545.30344
543.40117
541.52876
539.68411
537.86522
536.07013
534.29699
532.54396
530.80931
529.09131
527.38834
525.69877
524.02104
522.35365
520.69509
519.04395
517.3988
515.75827
514.12102
512.48575
510.85119
509.21608
507.57923
505.93946
504.29562
502.64661
500.99137
499.32887
497.65812
495.97818
494.28816
492.5872
490.87452
489.14938
487.41109
485.65905
483.8927
482.11156
480.31522
478.50333
476.67565
474.83198
472.97224
471.0964
469.20454
467.2968
550.64212
548.65732
546.70811
544.79218
542.90734
541.05147
539.22255
537.4186
535.63775
533.87817
532.13807
530.41575
528.70953
527.0178
525.33898
523.67154
522.01398
520.36485
518.72273
517.08623
515.45399
513.82471
512.19708
510.56985
508.9418
507.31173
505.67847
504.0409
502.39794
500.74851
499.09162
497.42627
495.75155
494.06656
492.37046
490.66248
488.94189
487.208
485.46023
483.69801
481.92088
480.12844
478.32034
476.49634
474.65626
472.80002
470.9276
469.03907
467.13459
550.0054
548.04343
546.11585
544.22041
542.35501
540.5176
538.70622
536.91897
535.15402
533.40957
531.68391
529.97535
528.28228
526.60312
524.9363
523.28035
521.63378
519.99518
518.36315
516.73631
515.11335
513.49296
511.87388
510.25485
508.63468
507.01219
505.38622
503.75567
502.11946
500.47654
498.82591
497.16661
495.49772
493.81836
492.12771
490.42499
488.70948
486.98053
485.23753
483.47994
481.7073
479.91922
478.11536
476.29549
474.45943
472.60711
470.73851
468.85371
466.95289
549.29725
547.36061
545.45701
543.58431
541.74048
539.92356
538.13166
536.36294
534.61562
532.88798
531.17835
529.4851
527.80663
526.14142
524.48795
522.84476
521.21041
519.58351
517.96269
516.3466
514.73395
513.12345
511.51386
509.90396
508.29256
506.67849
505.06063
503.43788
501.80918
500.1735
498.52985
496.87728
495.21489
493.5418
491.8572
490.16034
488.4505
486.72703
484.98934
483.23691
481.46928
479.68605
477.88692
476.07165
474.24007
472.39211
470.52777
468.64713
466.75039
548.51332
546.60463
544.7275
542.8799
541.05989
539.2656
537.49521
535.74696
534.01913
532.31008
530.61816
528.94182
527.2795
525.62972
523.99101
522.36193
520.7411
519.12714
517.51872
515.91452
514.31328
512.71373
511.11465
509.51485
507.91315
506.30841
504.69953
503.08543
501.46505
499.83738
498.20146
496.55634
494.90114
493.235
491.55711
489.86674
488.16318
486.44579
484.714
482.96728
481.20519
479.42736
477.63346
475.82329
473.99668
472.15356
470.29394
468.41793
466.5257
547.64911
545.77113
543.92309
542.10307
540.30925
538.53983
536.7931
535.06736
533.36099
531.67237
529.99996
528.34222
526.69769
525.06489
523.44243
521.8289
520.22295
518.62325
517.02849
515.4374
513.84872
512.26124
510.67375
509.08507
507.49407
505.89963
504.30064
502.69607
501.08486
499.46604
497.83864
496.20175
494.55448
492.896
491.22553
489.54232
487.84569
486.13501
484.40973
482.66932
480.91336
479.14147
477.35337
475.54882
473.7277
471.88993
470.03553
468.16462
466.27739
546.69999
544.85562
543.0394
541.24958
539.48441
537.74224
536.02142
534.32035
532.63748
530.97126
529.32022
527.6829
526.05785
524.44369
522.83905
521.24257
519.65295
518.0689
516.48913
514.91242
513.33755
511.76331
510.18854
508.61209
507.03284
505.44969
503.86159
502.26748
500.66636
499.05725
497.43922
495.81137
494.17282
492.52277
490.86044
489.18511
487.4961
485.79281
484.07468
482.34122
480.59199
478.82665
477.04492
475.24657
473.43149
471.59961
469.75096
467.88566
466.00393
545.6612
543.85346
542.07194
540.31503
538.58113
536.86868
535.17614
533.50199
531.84477
530.20302
528.57533
526.96029
525.35655
523.76275
522.17758
520.59975
519.02799
517.46104
515.89767
514.33669
512.77691
511.21717
509.65632
508.09324
506.52685
504.95608
503.37988
501.79723
500.20715
498.60869
497.00092
495.38297
493.75398
492.11316
490.45976
488.79306
487.11241
485.41721
483.70693
481.98107
480.23924
478.48109
476.70634
474.91479
473.10633
471.28091
469.43857
467.57943
465.70373
546.32172
544.52795
542.75992
541.01607
539.29492
537.59501
535.91487
534.25308
532.60822
530.97892
529.36379
527.76151
526.17074
524.59019
523.01857
521.45462
519.89711
518.3448
516.79649
515.25101
513.70718
512.16386
510.61992
509.07425
507.52577
505.97341
504.41614
502.85293
501.28279
499.70477
498.11792
496.52136
494.91422
493.29568
491.66494
490.02129
488.36402
486.69251
485.00616
483.30445
481.58692
479.85316
478.10286
476.33575
474.55164
472.75043
470.93208
469.09664
467.24424
465.37515
545.0437
543.29521
541.57015
539.86708
538.18466
536.52156
534.87644
533.24798
531.63488
530.03585
528.44961
526.8749
525.31047
523.75509
522.20756
520.66665
519.1312
517.60003
516.07199
514.54594
513.02075
511.49532
509.96857
508.43941
506.90681
505.36971
503.82713
502.27805
500.72153
499.15663
497.58243
495.99807
494.40271
492.79553
491.17579
489.54276
487.89577
486.2342
484.5575
482.86513
481.15668
479.43174
477.69
475.93122
474.15522
472.36191
470.55127
468.72336
466.87832
465.01643
543.65752
541.95793
540.27922
538.62016
536.97955
535.35619
533.74889
532.15646
530.57768
529.01139
527.45639
525.91151
524.37558
522.84746
521.32599
519.81005
518.29849
516.79022
515.28414
513.77914
512.27416
510.76814
509.26002
507.74877
506.23338
504.71285
503.18619
501.65246
500.11072
498.56006
496.9996
495.42849
493.84591
492.25109
490.64328
489.02179
487.38597
485.73523
484.069
482.3868
480.68821
478.97285
477.24043
475.49071
473.72354
471.93884
470.13659
468.31687
466.47984
464.62579
542.15802
540.51102
538.88215
537.27043
535.67481
534.09425
532.52769
530.97406
529.43228
527.90128
526.37997
524.86727
523.36211
521.8634
520.37008
518.88108
517.39534
515.91181
514.42945
512.94721
511.46407
509.97903
508.49106
506.99918
505.50242
503.9998
502.4904
500.97328
499.44753
497.91229
496.36671
494.80994
493.24122
491.65978
490.06491
488.45594
486.83223
485.19321
483.53835
481.86718
480.17928
478.47432
476.75201
475.01213
473.25455
471.47918
469.68604
467.87521
466.04687
464.20133
542.14697
540.54009
538.94936
537.37393
535.81297
534.26563
532.73101
531.2082
529.69627
528.19425
526.70119
525.21612
523.73804
522.26597
520.79893
519.33591
517.87593
516.41801
514.96113
513.50434
512.04664
510.58706
509.12463
507.65841
506.18743
504.71077
503.22749
501.73671
500.23752
498.72906
497.21047
495.68095
494.1397
492.58595
491.01898
489.4381
487.84265
486.23204
484.6057
482.96314
481.3039
479.62759
477.93389
476.22252
474.4933
472.74609
470.98083
469.19756
467.39637
465.57744
463.74111
540.34208
538.79847
537.26785
535.74953
534.24286
532.74718
531.26173
529.78578
528.31851
526.85911
525.40674
523.96052
522.51959
521.08305
519.65
518.21953
516.79073
515.36268
513.93447
512.50516
511.07384
509.6396
508.20152
506.75868
505.3102
503.85518
502.39273
500.922
499.44213
497.95228
496.45166
494.93946
493.41492
491.87732
490.32595
488.76016
487.17931
485.58283
483.97019
482.34091
480.69455
479.03075
477.34921
475.64966
473.93195
472.19596
470.44164
468.66904
466.87827
465.06951
463.24309
538.40421
536.92802
535.46143
534.00398
532.55521
531.11463
529.68168
528.25576
526.83622
525.42237
524.0135
522.60886
521.20767
519.80916
518.41251
517.01691
515.62152
514.2255
512.82801
511.42818
510.02517
508.61812
507.20616
505.78844
504.36411
502.93233
501.49226
500.04308
498.58397
497.11415
495.63282
494.13925
492.6327
491.11248
489.5779
488.02835
486.46322
484.88196
483.28407
481.66909
480.03662
478.3863
476.71786
475.03107
473.32578
471.60188
469.85937
468.09829
466.31877
464.52098
536.32833
534.92372
533.52515
532.13237
530.74516
529.36321
527.98614
526.61351
525.24482
523.87953
522.51706
521.15677
519.79801
518.44011
517.08235
515.724
514.36432
513.00256
511.63792
510.26964
508.89692
507.51897
506.13499
504.74417
503.34573
501.93886
500.52277
499.09669
497.65986
496.2115
494.75089
493.27731
491.79007
490.2885
488.77196
487.23985
485.69161
484.12671
482.54468
480.94508
479.32754
477.69173
476.03739
474.36432
472.67239
470.96152
469.23172
467.48305
465.71566
463.92982
534.10962
532.78075
531.45419
530.12995
528.80801
527.48825
526.1705
524.85446
523.53981
522.22615
520.91302
519.59994
518.28636
516.9717
515.65538
514.33674
513.01514
511.68991
510.36034
509.02573
507.68535
506.33849
504.98439
503.62233
502.25155
500.87132
499.48089
498.07953
496.66652
495.24115
493.80272
492.35056
490.884
489.40242
487.90521
486.39181
484.86168
483.31432
481.7493
480.1662
478.56469
476.94445
475.30525
473.64693
471.96935
470.27248
468.55634
466.82102
465.06669
463.29367
531.74348
530.49449
529.24396
527.99212
526.73917
525.48521
524.23024
522.97415
521.71677
520.45785
519.19708
517.9341
516.66849
515.39978
514.1275
512.85109
511.57
510.28364
508.9914
507.69264
506.38672
505.07299
503.75075
502.41934
501.07808
499.72626
498.36322
496.98825
495.60069
494.19987
492.78514
491.35586
489.91142
488.45121
486.97468
485.48129
483.97054
482.44197
480.89516
479.32975
477.7454
476.14185
474.51889
472.87636
471.21418
469.53233
467.83085
466.10986
464.36954
462.61026
529.22565
528.06065
526.89012
525.71454
524.53431
523.34976
522.16105
520.96828
519.77142
518.57039
517.36502
516.15508
514.94028
513.72027
512.49467
511.26305
510.02495
508.77986
507.52726
506.2666
504.9973
503.71879
502.43044
501.13165
499.82179
498.50024
497.16635
495.8195
494.45906
493.08441
491.69495
490.29008
488.86923
487.43184
485.97738
484.50536
483.01531
481.50681
479.97948
478.43296
476.86697
475.28127
473.67568
472.05006
470.40437
468.7386
467.05282
465.34717
463.62187
461.87731
526.55228
525.4753
524.3887
523.29318
522.18938
521.07781
519.95885
518.83276
517.69969
516.55971
515.4128
514.25886
513.09773
511.9292
510.75298
509.56875
508.37614
507.17476
505.96416
504.74388
503.51342
502.27226
501.01988
499.75571
498.47921
497.18979
495.8869
494.56993
493.23834
491.89153
490.52896
489.15007
487.75434
486.34125
484.91031
483.46107
481.99309
480.506
478.99943
477.47308
475.92669
474.36005
472.773
471.16546
469.53739
467.88881
466.21981
464.53058
462.82134
461.09251
523.72002
522.73497
521.73613
520.72441
519.70067
518.66563
517.61985
516.56378
515.49775
514.42197
513.33658
512.24161
511.13704
510.02277
508.89863
507.76442
506.61986
505.46465
504.29844
503.12086
501.93147
500.72986
499.51555
498.28806
497.0469
495.79155
494.52152
493.23626
491.93527
490.61802
489.284
487.93272
486.56368
485.17642
483.77049
482.34548
480.90099
479.43668
477.95222
476.44735
474.92184
473.37551
471.80825
470.21998
468.6107
466.98046
465.32939
463.65767
461.96558
460.25356
520.7261
519.83676
518.92937
518.00507
517.06493
516.10987
515.14066
514.1579
513.16211
512.15366
511.13282
510.09978
509.05463
507.99741
506.92807
505.8465
504.75255
503.646
502.52659
501.39404
500.24801
499.08814
497.91405
496.72532
495.52152
494.30221
493.06694
491.81525
490.54666
489.26072
487.95696
486.63494
485.29421
483.93436
482.55497
481.15568
479.73614
478.29603
476.83508
475.35305
473.84975
472.32503
470.77882
469.21106
467.62179
466.01109
464.37912
462.72607
461.05226
459.35817
517.56846
516.7784
515.96599
515.13257
514.27944
513.40771
512.51833
511.6121
510.68969
509.75162
508.79832
507.83012
506.84724
505.84984
504.83799
503.8117
502.7709
501.71549
500.64531
499.56014
498.45975
497.34386
496.21214
495.06427
493.89989
492.71861
491.52004
490.30379
489.06945
487.8166
486.54484
485.25378
483.94301
482.61217
481.2609
479.88887
478.49577
477.08133
475.64531
474.18751
472.70778
471.20602
469.68216
468.13621
466.56822
464.9783
463.36663
461.73346
460.07911
458.40409
514.24587
513.55839
512.84425
512.10499
511.3421
510.55689
509.75049
508.92388
508.07787
507.21316
506.33032
505.42981
504.51199
503.57714
502.62544
501.65701
500.6719
499.6701
498.65155
497.61612
496.56365
495.49396
494.40679
493.3019
492.17899
491.03774
489.87784
488.69894
487.50069
486.28275
485.04476
483.78638
482.50725
481.20707
479.88552
478.54231
477.17718
475.7899
474.38028
472.94816
471.49341
470.01598
468.51583
466.99301
465.44759
463.87973
462.28963
460.67757
459.04389
457.38916
510.75799
510.17613
509.56328
508.9212
508.25157
507.55587
506.83542
506.09136
505.32466
504.53616
503.72658
502.89652
502.04646
501.1768
500.28785
499.37983
498.45291
497.50715
496.54261
495.55924
494.55697
493.53569
492.49524
491.43544
490.35606
489.25686
488.13758
486.99795
485.83768
484.65647
483.45403
482.23007
480.9843
479.71644
478.42623
477.11344
475.77784
474.41926
473.03753
471.63254
470.20422
468.75252
467.27748
465.77914
464.25764
462.71316
461.14592
459.55624
457.9445
456.31129
507.10555
506.632
506.12313
505.58096
505.00733
504.4039
503.77216
503.11338
502.42871
501.71912
500.98547
500.22849
499.44879
498.64688
497.8232
496.97806
496.11173
495.22441
494.31619
493.38717
492.43733
491.46666
490.47507
489.46244
488.42864
487.3735
486.29681
485.19836
484.07794
482.9353
481.77021
480.58242
479.37172
478.13786
476.88065
475.59989
474.29541
472.96707
471.61476
470.23841
468.83797
467.41346
465.96492
464.49247
462.99626
461.4765
459.93346
458.36748
456.77896
455.16854
503.29031
502.9276
502.52491
502.08507
501.60986
501.10117
500.56061
499.98963
499.38949
498.76132
498.10609
497.42466
496.71777
495.98605
495.23002
494.45013
493.64674
492.82013
491.97051
491.09805
490.20283
489.2849
488.34426
487.38088
486.39468
485.38557
484.35341
483.29805
482.21934
481.1171
479.99114
478.8413
477.66738
476.46922
475.24666
473.99956
472.72779
471.43127
470.10992
468.76371
467.39265
465.99678
464.5762
463.13106
461.66153
460.16788
458.65039
457.10944
455.54547
453.95916
499.31339
499.06607
498.77087
498.43551
498.06073
497.64892
497.20173
496.72075
496.2074
495.6629
495.08837
494.48478
493.85297
493.19369
492.50757
491.79516
491.05692
490.29321
489.50436
488.69058
487.85208
486.98896
486.10132
485.18919
484.25257
483.29143
482.3057
481.29531
480.26015
479.20011
478.11507
477.00491
475.8695
474.70872
473.52248
472.31066
471.07321
469.81007
468.52123
467.2067
465.86652
464.50078
463.10962
461.69322
460.2518
458.78565
457.2951
455.78055
454.24248
452.68161
495.18291
495.04776
494.86251
494.63574
494.36269
494.04957
493.69756
493.30849
492.88386
492.42503
491.93322
491.4095
490.85483
490.27006
489.65593
489.01307
488.34203
487.64328
486.91722
486.16416
485.38436
484.57804
483.74535
482.8864
482.00127
481.08997
480.15253
479.18893
478.19913
477.18307
476.14069
475.07194
473.97673
472.855
471.70671
470.5318
469.33026
468.10209
466.84731
465.56598
464.25819
462.92408
461.56381
460.1776
458.76572
457.3285
455.86629
454.37953
452.86873
451.33466
490.9057
490.88332
490.80835
490.68712
490.51759
490.30699
490.05144
489.7558
489.4215
489.05
488.64262
488.20054
487.72482
487.21639
486.67609
486.10464
485.50269
484.87079
484.2094
483.51893
482.79972
482.05205
481.27616
480.47222
479.64038
478.78074
477.89337
476.97832
476.03561
475.06526
474.06725
473.04157
471.98823
470.90719
469.79847
468.66208
467.49803
466.30638
465.08721
463.8406
462.56671
461.26571
459.9378
458.58324
457.20235
455.79547
454.36302
452.90545
451.4233
449.91741
486.48883
486.58006
486.61567
486.60023
486.53457
486.4236
486.26566
486.06703
485.82427
485.54137
485.21981
484.86081
484.46553
484.035
483.57013
483.07174
482.54054
481.97716
481.38214
480.75597
480.09906
479.41176
478.69437
477.94716
477.17032
476.36403
475.52841
474.66359
473.76964
472.84664
471.89463
470.91366
469.90378
468.86503
467.79747
466.70114
465.57614
464.42255
463.2405
462.03013
460.79162
459.5252
458.23112
456.90967
455.5612
454.1861
452.7848
451.35782
449.90572
448.42938
481.9413
482.14562
482.29261
482.38272
482.42128
482.41007
482.35013
482.24569
482.09499
481.90412
481.66938
481.39456
481.08087
480.7295
480.34136
479.91739
479.45835
478.96494
478.43777
477.87739
477.28429
476.6589
476.00158
475.31264
474.59237
473.84099
473.0587
472.24567
471.40205
470.52795
469.6235
468.68879
467.72391
466.72898
465.70409
464.64934
463.56488
462.45084
461.30739
460.13473
458.93308
457.70269
456.44388
455.15696
453.84233
452.50042
451.1317
449.73669
448.31602
446.87061
477.27526
477.59121
477.84686
478.0443
478.187
478.27494
478.31299
478.30259
478.24452
478.14275
477.99487
477.80753
477.57615
477.30488
476.99439
476.64592
476.26017
475.83791
475.37981
474.8865
474.35851
473.79636
473.20045
472.57118
471.90887
471.21381
470.48627
469.72647
468.93461
468.11087
467.25541
466.3684
465.44998
464.50031
463.51953
462.50781
461.46533
460.39228
459.28886
458.15533
456.99194
455.799
454.57686
453.32588
452.04649
450.73914
449.40437
448.04272
446.65485
445.24173
472.5048
472.9302
473.2929
473.59521
473.83972
474.02841
474.1643
474.24719
474.28147
474.26835
474.20813
474.10509
473.95577
473.76782
473.53531
473.2632
472.95151
472.60129
472.21319
471.78792
471.3261
470.82826
470.29491
469.72647
469.12333
468.48583
467.81429
467.10898
466.37017
465.59809
464.79295
463.95497
463.08434
462.18127
461.24595
460.27861
459.27946
458.24874
457.18671
456.09366
454.9699
453.81577
452.63165
451.41795
450.17514
448.90372
447.60423
446.27728
444.92354
443.54404
467.64599
468.17788
468.64506
469.0498
469.39453
469.68147
469.9129
470.09047
470.21678
470.29148
470.31826
470.29879
470.23259
470.1244
469.96968
469.77689
469.53947
469.26191
468.94435
468.5878
468.19289
467.7602
467.29028
466.7836
466.2406
465.66167
465.04719
464.39747
463.71282
462.99354
462.23988
461.4521
460.63046
459.7752
458.88658
457.96485
457.01028
456.02315
455.00378
453.95248
452.86962
451.75557
450.61075
449.43563
448.23069
446.99648
445.73356
444.44259
443.12427
441.77967
462.71705
463.35171
463.92
464.42416
464.86651
465.24928
465.57457
465.8443
466.06049
466.22479
466.33644
466.40022
466.41646
466.38672
466.31167
466.19292
466.0318
465.82848
465.5814
465.29392
464.96637
464.59936
464.19346
463.7492
463.26706
462.74748
462.19087
461.59761
460.96804
460.30249
459.60129
458.86473
458.09311
457.28673
456.44587
455.57086
454.66199
453.71959
452.74402
451.73564
450.69484
449.62206
448.51774
447.38239
446.21652
445.02072
443.7956
442.54183
441.26014
439.95168
457.73828
458.47142
459.1367
459.73651
460.27313
460.74869
461.16521
461.52459
461.8286
462.07881
462.27645
462.42391
462.52003
462.56879
462.57086
462.52748
462.44027
462.30742
462.1339
461.91592
461.65583
461.35468
461.01309
460.6316
460.21076
459.75103
459.25286
458.71668
458.14286
457.53178
456.8838
456.19926
455.47851
454.72188
453.92971
453.10235
452.24014
451.34346
450.4127
449.44827
448.45059
447.42013
446.35739
445.2629
444.13721
442.98094
441.79473
440.57928
439.33537
438.06417
451.83748
452.73351
453.55917
454.31639
455.00734
455.63415
456.19881
456.70325
457.14926
457.53853
457.87262
458.15301
458.38131
458.55877
458.68414
458.76194
458.79312
458.77813
458.71699
458.61325
458.46263
458.27259
458.03712
457.75975
457.44107
457.08163
456.68195
456.24251
455.76374
455.24609
454.68994
454.09572
453.46378
452.79453
452.08832
451.34555
450.56659
449.75183
448.90169
448.01658
447.09696
446.1433
445.15609
444.13586
443.08318
441.99864
440.88289
439.73659
438.56047
437.35536
436.12245
446.74448
447.72684
448.63895
449.48248
450.25941
450.97166
451.62109
452.20948
452.73852
453.20978
453.62479
453.98498
454.2917
454.54611
454.74901
454.90237
455.00521
455.0614
455.07054
455.03448
454.95339
454.82703
454.65891
454.44618
454.18992
453.89166
453.55191
453.17115
452.74985
452.28847
451.78746
451.24724
450.66823
450.05085
449.39551
448.70261
447.97258
447.20585
446.40285
445.56405
444.68993
443.781
442.83778
441.86084
440.85077
439.8082
438.73379
437.62826
436.49235
435.32692
434.13321
441.68323
442.74493
443.7369
444.66058
445.51773
446.31008
447.03933
447.7071
448.31494
448.86433
449.35668
449.79333
450.17555
450.5045
450.78124
451.00703
451.18306
451.30789
451.38512
451.41625
451.40097
451.3405
451.23562
451.08433
450.89276
450.65508
450.37481
450.05236
449.68823
449.28293
448.83692
448.35067
447.82461
447.25921
446.65489
446.0121
445.33128
444.6129
443.85744
443.06537
442.23723
441.37353
440.47484
439.54176
438.5749
437.57493
436.54254
435.47845
434.38345
433.25842
432.10464
436.68311
437.81662
438.88135
439.87849
440.80958
441.67616
442.47973
443.22174
443.90361
444.52667
445.09223
445.60153
446.05574
446.45597
446.80329
447.09876
447.34346
447.53828
447.68138
447.77681
447.82616
447.82868
447.78548
447.69761
447.56362
447.38801
447.16706
446.90215
446.59453
446.24472
445.85325
445.42058
444.9472
444.43356
443.88014
443.28739
442.65579
441.98583
441.27801
440.53285
439.75089
438.9327
438.07885
437.18997
436.26671
435.30975
434.31981
433.29765
432.24406
431.15994
430.04664
431.7752
432.97263
434.10263
435.16615
436.16448
437.09895
437.97086
438.78151
439.53212
440.22391
440.85805
441.43565
441.9578
442.42553
442.83983
443.20168
443.51201
443.7717
443.98153
444.13945
444.24968
444.3137
444.33089
444.30215
444.22823
444.10844
443.9461
443.73919
443.48697
443.19169
442.85391
442.4741
442.05276
441.59035
441.08736
440.54426
439.96157
439.33979
438.67944
437.98107
437.24523
436.47252
435.66355
434.81896
433.93942
433.02564
432.07835
431.09833
430.0864
429.04349
427.97098
426.9922
428.24548
429.43304
430.55556
431.61411
432.60979
433.54371
434.41697
435.23063
435.98576
436.68339
437.3245
437.91007
438.44102
438.91828
439.34272
439.71517
440.03645
440.30732
440.52849
440.69772
440.8193
440.89471
440.92341
440.90584
440.84296
440.73442
440.58257
440.3866
440.14441
439.85911
439.53107
439.16077
438.74868
438.2953
437.80113
437.26669
436.69251
436.07911
435.42708
434.73699
434.00944
433.24507
432.44455
431.60855
430.73782
429.83309
428.89517
427.92489
426.9232
425.89151
422.36831
423.66937
424.9067
426.08074
427.19231
428.24231
429.23163
430.16118
431.03188
431.84461
432.60025
433.29967
433.94373
434.53323
435.069
435.55181
435.98242
436.36156
436.68993
436.96821
437.19703
437.37405
437.50357
437.58704
437.62394
437.61448
437.55979
437.45997
437.31393
437.12627
436.89207
436.61432
436.29365
435.93059
435.52562
435.07925
434.59203
434.06448
433.49717
432.89067
432.24558
431.56252
430.84214
430.08512
429.29217
428.46401
427.60143
426.70523
425.77627
424.8155
423.82436
417.93925
419.28018
420.5596
421.77769
422.93506
424.03238
425.07036
426.04972
426.9712
427.83553
428.64345
429.39568
430.09294
430.73595
431.32541
431.862
432.3464
432.77924
433.16117
433.49279
433.77471
434.00749
434.18873
434.32271
434.41086
434.45258
434.44795
434.39811
434.30289
434.16179
433.97898
433.74989
433.47704
433.16127
432.80308
432.40299
431.96153
431.47926
430.95675
430.39457
429.79335
429.15371
428.47632
427.76186
427.01105
426.22465
425.40342
424.54821
423.65985
422.73934
421.78813
413.74224
415.11548
416.42956
417.68444
418.88049
420.01821
421.09811
422.12074
423.08665
423.99644
424.85069
425.64999
426.39494
427.08613
427.72416
428.30961
428.84306
429.32508
429.75622
430.13704
430.46806
430.74982
430.9828
431.16465
431.2995
431.38885
431.43189
431.42872
431.38043
431.28691
431.14773
430.9669
430.73999
430.46934
430.15584
429.80003
429.40244
428.96364
428.4842
427.9647
427.40578
426.80806
426.17222
425.49895
424.78898
424.04307
423.262
422.4466
421.59775
420.71642
419.80411
409.81617
411.21466
412.5564
413.84112
415.06903
416.24042
417.35563
418.41505
419.41908
420.36815
421.26271
422.10323
422.89017
423.62401
424.30525
424.93438
425.51186
426.03821
426.51389
426.93938
427.31516
427.64169
427.91942
428.14879
428.32749
428.45948
428.54644
428.58724
428.58212
428.53214
428.43699
428.29659
428.11499
427.88708
427.61569
427.30167
426.94557
426.54794
426.10937
425.63043
425.11175
424.55398
423.95778
423.32386
422.65294
421.94579
421.2032
420.426
419.61507
418.77139
417.89647
406.20183
407.61916
408.98211
410.29024
411.54357
412.74224
413.88644
414.97638
416.01233
416.99459
417.92347
418.79932
419.62249
420.39335
421.11229
421.7797
422.39598
422.96154
423.47678
423.94212
424.35796
424.72471
425.04279
425.31257
425.53435
425.70567
425.8311
425.9121
425.947
425.93635
425.88106
425.78039
425.63723
425.45071
425.21827
424.94304
424.62553
424.26627
423.86584
423.42481
422.94381
422.42348
421.86449
421.26754
420.63337
419.96272
419.25641
418.51526
417.74015
416.93207
416.09253