/*--------------------------------*- C++ -*----------------------------------*\
| =========                 |                                                 |
| \\      /  F ield         | OpenFOAM: The Open Source CFD Toolbox           |
|  \\    /   O peration     | Version:  2312                                  |
|   \\  /    A nd           | Website:  www.openfoam.com                      |
|    \\/     M anipulation  |                                                 |
\*---------------------------------------------------------------------------*/
FoamFile
{
    version     2.0;
    format      ascii;
    arch        "LSB;label=32;scalar=64";
    class       volVectorField;
    location    "0.09";
    object      U;
}
// * * * * * * * * * * * * * * * * * * * * * * * * * * * * * * * * * * * * * //

dimensions      [0 1 -1 0 0 0 0];

internalField   nonuniform List<vector> 
3250
(
(3.8254737 0.006932707 0)
(3.7728845 0.0068218885 0)
(3.7213621 0.0067196579 0)
(3.6708306 0.0066253452 0)
(3.6212202 0.0065383085 0)
(3.5724661 0.006457977 0)
(3.5245085 0.0063838286 0)
(3.4772918 0.0063153869 0)
(3.4307647 0.0062522157 0)
(3.3848795 0.0061939156 0)
(3.3395919 0.0061401196 0)
(3.2948609 0.0060904901 0)
(3.2506484 0.0060447154 0)
(3.206919 0.0060025074 0)
(3.1636399 0.0059635987 0)
(3.1207806 0.0059277402 0)
(3.0783128 0.0058946995 0)
(3.0362104 0.0058642586 0)
(2.9944492 0.0058362128 0)
(2.9530068 0.0058103685 0)
(2.9118626 0.0057865426 0)
(2.8709977 0.0057645612 0)
(2.8303946 0.005744258 0)
(2.7900376 0.0057254743 0)
(2.7499123 0.0057080577 0)
(2.7100055 0.0056918609 0)
(2.6703058 0.0056767427 0)
(2.6308027 0.005662565 0)
(2.5914871 0.0056491954 0)
(2.5523512 0.0056365041 0)
(2.5133883 0.0056243663 0)
(2.4745929 0.0056126596 0)
(2.4359606 0.0056012662 0)
(2.3974882 0.0055900714 0)
(2.3591734 0.0055789655 0)
(2.3210152 0.0055678424 0)
(2.2830134 0.0055566032 0)
(2.2451688 0.0055451535 0)
(2.2074835 0.005533408 0)
(2.16996 0.0055212869 0)
(2.1326022 0.0055087186 0)
(2.0954145 0.0054956252 0)
(2.0584025 0.0054819176 0)
(2.0215721 0.0054676603 0)
(1.9849305 0.0054529403 0)
(1.9484855 0.0054371293 0)
(1.9122454 0.0054204907 0)
(1.8762188 0.0054028396 0)
(1.840415 0.0053838856 0)
(3.8243892 0.020894857 0)
(3.7718498 0.020574856 0)
(3.7203739 0.020280827 0)
(3.669886 0.020010661 0)
(3.6203164 0.019762385 0)
(3.5716007 0.019534206 0)
(3.5236791 0.019324482 0)
(3.4764963 0.019131705 0)
(3.4300011 0.018954488 0)
(3.3841461 0.018791556 0)
(3.338887 0.018641728 0)
(3.294183 0.018503914 0)
(3.249996 0.018377103 0)
(3.2062908 0.018260353 0)
(3.1630347 0.018152789 0)
(3.1201972 0.018053592 0)
(3.0777502 0.017961997 0)
(3.0356675 0.017877284 0)
(2.9939252 0.017798776 0)
(2.9525008 0.017725837 0)
(2.9113738 0.017657863 0)
(2.8705253 0.017594283 0)
(2.8299381 0.017534555 0)
(2.7895962 0.017478166 0)
(2.7494853 0.017424624 0)
(2.7095925 0.017373462 0)
(2.6699062 0.017324234 0)
(2.630416 0.017276513 0)
(2.5911128 0.017229892 0)
(2.5519889 0.017183981 0)
(2.5130376 0.017138407 0)
(2.4742534 0.017092815 0)
(2.4356319 0.017046864 0)
(2.39717 0.017000232 0)
(2.3588654 0.016952611 0)
(2.3207171 0.016903712 0)
(2.2827249 0.016853261 0)
(2.2448897 0.016801004 0)
(2.2072134 0.016746703 0)
(2.1696989 0.016690144 0)
(2.1323497 0.016631123 0)
(2.0951705 0.016569455 0)
(2.0581667 0.016504957 0)
(2.0213444 0.016437474 0)
(1.9847107 0.016367002 0)
(1.9482734 0.016293386 0)
(1.9120408 0.016216228 0)
(1.8760214 0.01613548 0)
(1.8402249 0.016050894 0)
(3.8222185 0.034833916 0)
(3.7697783 0.034306232 0)
(3.7183952 0.033821782 0)
(3.6679942 0.033377024 0)
(3.618506 0.032968666 0)
(3.5698667 0.032593703 0)
(3.5220169 0.032249383 0)
(3.4749018 0.031933173 0)
(3.4284703 0.031642746 0)
(3.3826754 0.031375952 0)
(3.3374731 0.031130808 0)
(3.2928228 0.030905472 0)
(3.2486866 0.030698239 0)
(3.2050297 0.03050752 0)
(3.1618193 0.030331834 0)
(3.1190252 0.030169796 0)
(3.0766196 0.03002011 0)
(3.0345763 0.029881558 0)
(2.9928715 0.029752995 0)
(2.951483 0.02963334 0)
(2.9103902 0.029521574 0)
(2.8695745 0.029416731 0)
(2.8290185 0.029317894 0)
(2.7887067 0.029224195 0)
(2.7486246 0.029134808 0)
(2.7087595 0.029048945 0)
(2.6690998 0.028965858 0)
(2.6296353 0.028884831 0)
(2.5903568 0.028805183 0)
(2.5512567 0.028726266 0)
(2.5123284 0.02864746 0)
(2.4735665 0.028568175 0)
(2.4349665 0.028487853 0)
(2.3965255 0.02840596 0)
(2.3582411 0.028321995 0)
(2.3201124 0.028235482 0)
(2.2821393 0.028145977 0)
(2.2443226 0.028053063 0)
(2.2066644 0.027956355 0)
(2.1691674 0.027855497 0)
(2.1318354 0.027750162 0)
(2.0946729 0.027640051 0)
(2.0576854 0.027524888 0)
(2.0208791 0.027404401 0)
(1.984261 0.027278438 0)
(1.947839 0.027146935 0)
(1.9116213 0.027009315 0)
(1.8756165 0.026865548 0)
(1.8398341 0.026715417 0)
(3.8189641 0.048734506 0)
(3.7666724 0.048001618 0)
(3.7154282 0.047329025 0)
(3.6651571 0.04671176 0)
(3.6157908 0.04614523 0)
(3.5672659 0.045625241 0)
(3.5195236 0.045147939 0)
(3.4725096 0.044709785 0)
(3.4261735 0.044307519 0)
(3.3804685 0.043938133 0)
(3.3353512 0.043598842 0)
(3.2907813 0.04328707 0)
(3.2467212 0.043000421 0)
(3.2031364 0.042736665 0)
(3.1599945 0.042493722 0)
(3.1172655 0.042269648 0)
(3.0749217 0.04206262 0)
(3.0329374 0.041870928 0)
(2.9912887 0.041692959 0)
(2.9499537 0.041527197 0)
(2.9089122 0.041372206 0)
(2.8681454 0.041226629 0)
(2.8276364 0.04108918 0)
(2.7873695 0.040958637 0)
(2.7473306 0.04083384 0)
(2.7075069 0.040713686 0)
(2.667887 0.040597124 0)
(2.6284608 0.040483153 0)
(2.5892193 0.04037082 0)
(2.5501548 0.040259218 0)
(2.5112609 0.040147483 0)
(2.4725323 0.040034795 0)
(2.4339645 0.039920373 0)
(2.3955546 0.039803479 0)
(2.3573005 0.039683414 0)
(2.3192011 0.039559522 0)
(2.2812565 0.039431185 0)
(2.2434676 0.039297828 0)
(2.2058363 0.039158916 0)
(2.1683656 0.039013955 0)
(2.1310592 0.038862493 0)
(2.0939217 0.038704119 0)
(2.0569586 0.038538455 0)
(2.0201762 0.038365156 0)
(1.9835814 0.038183956 0)
(1.9471822 0.037994618 0)
(1.9109867 0.037796684 0)
(1.8750037 0.037590006 0)
(1.8392427 0.037374382 0)
(3.8146302 0.062581353 0)
(3.7625359 0.06164672 0)
(3.7114762 0.06078915 0)
(3.661378 0.060002277 0)
(3.6121737 0.059280238 0)
(3.5638008 0.058617664 0)
(3.5162015 0.058009629 0)
(3.469322 0.057451601 0)
(3.4231127 0.056939406 0)
(3.3775274 0.056469188 0)
(3.332523 0.056037382 0)
(3.28806 0.05564068 0)
(3.2441011 0.055276012 0)
(3.2006122 0.054940514 0)
(3.1575614 0.054631517 0)
(3.1149189 0.054346524 0)
(3.0726574 0.054083193 0)
(3.0307514 0.053839326 0)
(2.9891775 0.053612853 0)
(2.9479138 0.053401822 0)
(2.9069404 0.053204391 0)
(2.8662388 0.053018812 0)
(2.8257921 0.052843435 0)
(2.785585 0.052676688 0)
(2.7456034 0.052517082 0)
(2.7058349 0.052363199 0)
(2.666268 0.052213689 0)
(2.6268927 0.052067269 0)
(2.5877004 0.051922717 0)
(2.5486834 0.051778869 0)
(2.5098353 0.051634619 0)
(2.4711508 0.051488916 0)
(2.4326259 0.051340763 0)
(2.3942575 0.051189216 0)
(2.3560436 0.051033383 0)
(2.3179833 0.050872425 0)
(2.2800765 0.050705554 0)
(2.2423245 0.050532036 0)
(2.2047291 0.050351189 0)
(2.1672934 0.050162383 0)
(2.130021 0.049965042 0)
(2.0929168 0.049758638 0)
(2.0559861 0.049542698 0)
(2.0192354 0.049316787 0)
(1.9826716 0.049080541 0)
(1.9463027 0.04883361 0)
(1.9101368 0.048575558 0)
(1.8741828 0.04830617 0)
(1.8384501 0.048025219 0)
(3.8095317 0.075569626 0)
(3.7576692 0.074449 0)
(3.7068262 0.073420887 0)
(3.6569309 0.072477641 0)
(3.6079169 0.071612226 0)
(3.5597226 0.070818202 0)
(3.5122912 0.07008965 0)
(3.4655698 0.069421127 0)
(3.4195095 0.068807616 0)
(3.3740647 0.068244484 0)
(3.3291932 0.06772744 0)
(3.2848557 0.067252506 0)
(3.2410159 0.066815983 0)
(3.1976397 0.066414428 0)
(3.1546959 0.066044622 0)
(3.1121551 0.065703558 0)
(3.0699903 0.065388413 0)
(3.0281765 0.065096536 0)
(2.9866904 0.064825433 0)
(2.9455105 0.06457275 0)
(2.9046172 0.064336262 0)
(2.8639922 0.064113865 0)
(2.8236188 0.063903565 0)
(2.783482 0.063703468 0)
(2.7435679 0.063511777 0)
(2.7038642 0.063326781 0)
(2.6643596 0.063146853 0)
(2.6250444 0.062970447 0)
(2.5859098 0.062796087 0)
(2.5469486 0.062622374 0)
(2.5081543 0.062447974 0)
(2.4695219 0.062271622 0)
(2.4310474 0.062092118 0)
(2.3927278 0.061908326 0)
(2.3545612 0.061719174 0)
(2.3165467 0.061523653 0)
(2.2786846 0.061320816 0)
(2.2409759 0.061109781 0)
(2.2034228 0.060889728 0)
(2.1660281 0.060659901 0)
(2.1287959 0.060419605 0)
(2.0917307 0.06016821 0)
(2.0548383 0.059905144 0)
(2.0181249 0.059629892 0)
(1.9815976 0.059342001 0)
(1.9452642 0.059041034 0)
(1.9091332 0.058726555 0)
(1.8732133 0.058398275 0)
(1.837514 0.05805596 0)
(3.8038272 0.087871122 0)
(3.7522236 0.086577643 0)
(3.7016227 0.085391029 0)
(3.6519542 0.084302448 0)
(3.6031527 0.083303784 0)
(3.5551581 0.082387598 0)
(3.5079144 0.081547056 0)
(3.4613698 0.080775869 0)
(3.415476 0.080068238 0)
(3.3701884 0.079418804 0)
(3.3254654 0.078822605 0)
(3.2812684 0.078275038 0)
(3.2375616 0.077771821 0)
(3.1943116 0.077308964 0)
(3.1514874 0.076882742 0)
(3.1090605 0.076489666 0)
(3.0670039 0.076126467 0)
(3.0252932 0.075790071 0)
(2.9839053 0.075477585 0)
(2.9428193 0.075186278 0)
(2.9020156 0.074913571 0)
(2.8614763 0.074657021 0)
(2.821185 0.074414315 0)
(2.7811269 0.074183254 0)
(2.7412883 0.073961752 0)
(2.7016571 0.073747826 0)
(2.6622223 0.073539587 0)
(2.6229742 0.073335239 0)
(2.5839044 0.073133074 0)
(2.5450055 0.072931464 0)
(2.5062716 0.072728866 0)
(2.4676975 0.072523811 0)
(2.4292794 0.072314909 0)
(2.3910145 0.072100842 0)
(2.3529009 0.071880371 0)
(2.3149379 0.071652324 0)
(2.2771258 0.071415607 0)
(2.2394657 0.071169197 0)
(2.2019599 0.070912144 0)
(2.1646113 0.070643573 0)
(2.1274241 0.070362678 0)
(2.0904028 0.070068731 0)
(2.0535532 0.069761068 0)
(2.0168816 0.069439097 0)
(1.9803953 0.069102286 0)
(1.944102 0.068750129 0)
(1.9080101 0.068382165 0)
(1.8721285 0.06799805 0)
(1.8364668 0.06759753 0)
(3.7970739 0.10043179 0)
(3.7457762 0.098965851 0)
(3.6954614 0.097621088 0)
(3.6460608 0.096387495 0)
(3.5975106 0.09525588 0)
(3.549752 0.094217817 0)
(3.5027303 0.09326556 0)
(3.4563946 0.092391978 0)
(3.4106978 0.091590492 0)
(3.3655961 0.090855021 0)
(3.3210488 0.090179931 0)
(3.277018 0.089559993 0)
(3.2334686 0.088990342 0)
(3.1903679 0.088466441 0)
(3.1476855 0.087984056 0)
(3.1053932 0.087539218 0)
(3.0634647 0.087128206 0)
(3.021876 0.086747522 0)
(2.9806045 0.086393871 0)
(2.9396295 0.086064144 0)
(2.8989319 0.085755402 0)
(2.8584941 0.085464863 0)
(2.8183001 0.08518989 0)
(2.7783351 0.084927979 0)
(2.738586 0.084676752 0)
(2.6990407 0.084433946 0)
(2.6596885 0.084197412 0)
(2.6205199 0.0839651 0)
(2.5815268 0.083735064 0)
(2.542702 0.08350545 0)
(2.5040395 0.083274498 0)
(2.4655345 0.083040536 0)
(2.4271833 0.082801978 0)
(2.3889831 0.082557327 0)
(2.3509324 0.082305167 0)
(2.3130304 0.082044167 0)
(2.2752776 0.08177308 0)
(2.2376752 0.081490742 0)
(2.2002255 0.081196072 0)
(2.1629316 0.080888072 0)
(2.1257977 0.080565827 0)
(2.0888285 0.080228504 0)
(2.0520297 0.079875352 0)
(2.0154079 0.079505693 0)
(1.9789701 0.079118922 0)
(1.9427243 0.07871447 0)
(1.906679 0.078291844 0)
(1.870843 0.077850648 0)
(1.8352259 0.0773906 0)
(3.7892009 0.11324244 0)
(3.7382588 0.11160547 0)
(3.6882767 0.11010385 0)
(3.6391878 0.10872644 0)
(3.5909301 0.10746298 0)
(3.5434461 0.10630406 0)
(3.4966827 0.10524104 0)
(3.4505902 0.10426596 0)
(3.4051228 0.10337147 0)
(3.3602376 0.10255076 0)
(3.3158949 0.10179755 0)
(3.2720577 0.10110596 0)
(3.2286917 0.10047057 0)
(3.1857649 0.099886288 0)
(3.1432475 0.099348368 0)
(3.1011121 0.098852365 0)
(3.059333 0.098394107 0)
(3.0178865 0.097969668 0)
(2.9767506 0.097575354 0)
(2.935905 0.097207674 0)
(2.8953311 0.09686333 0)
(2.8550117 0.096539197 0)
(2.814931 0.096232313 0)
(2.7750747 0.095939867 0)
(2.7354298 0.095659186 0)
(2.6959847 0.095387729 0)
(2.6567289 0.095123079 0)
(2.6176532 0.094862934 0)
(2.5787495 0.094605106 0)
(2.540011 0.094347512 0)
(2.5014318 0.094088174 0)
(2.4630075 0.093825213 0)
(2.4247343 0.09355685 0)
(2.3866097 0.0932814 0)
(2.3486323 0.092997273 0)
(2.3108015 0.092702976 0)
(2.2731179 0.092397107 0)
(2.2355828 0.092078359 0)
(2.1981987 0.091745518 0)
(2.1609687 0.091397464 0)
(2.123897 0.091033168 0)
(2.0869886 0.090651696 0)
(2.0502492 0.090252203 0)
(2.0136854 0.089833929 0)
(1.9773044 0.089396194 0)
(1.9411141 0.088938374 0)
(1.9051231 0.088459929 0)
(1.8693403 0.087960426 0)
(1.8337754 0.087439546 0)
(3.780135 0.12629193 0)
(3.7296011 0.12448652 0)
(3.6800011 0.12283043 0)
(3.6312702 0.12131137 0)
(3.5833483 0.11991806 0)
(3.5361799 0.11864014 0)
(3.4897133 0.11746809 0)
(3.4439005 0.11639312 0)
(3.3986967 0.11540713 0)
(3.3540604 0.1145026 0)
(3.309953 0.11367258 0)
(3.2663385 0.11291061 0)
(3.2231834 0.11221066 0)
(3.1804567 0.11156711 0)
(3.1381293 0.1109747 0)
(3.0961745 0.11042853 0)
(3.0545673 0.10992396 0)
(3.0132844 0.10945664 0)
(2.9723047 0.10902249 0)
(2.9316081 0.10861762 0)
(2.8911767 0.10823839 0)
(2.8509935 0.10788132 0)
(2.8110433 0.10754313 0)
(2.7713122 0.10722069 0)
(2.7317875 0.10691104 0)
(2.6924578 0.10661136 0)
(2.653313 0.10631896 0)
(2.6143442 0.10603128 0)
(2.5755435 0.1057459 0)
(2.5369045 0.10546051 0)
(2.4984214 0.10517289 0)
(2.4600899 0.10488097 0)
(2.4219067 0.10458278 0)
(2.3838693 0.10427643 0)
(2.3459764 0.10396016 0)
(2.3082277 0.10363232 0)
(2.2706238 0.10329135 0)
(2.2331663 0.10293579 0)
(2.1958577 0.1025643 0)
(2.1587013 0.10217564 0)
(2.1217015 0.10176866 0)
(2.0848631 0.10134232 0)
(2.0481922 0.10089569 0)
(2.0116953 0.10042793 0)
(1.9753797 0.099938271 0)
(1.9392534 0.099426043 0)
(1.9033251 0.098890663 0)
(1.8676037 0.098331651 0)
(1.8320989 0.09774866 0)
(3.7698005 0.13956698 0)
(3.7197304 0.13759702 0)
(3.6705644 0.13579001 0)
(3.6222403 0.13413258 0)
(3.5747003 0.13261244 0)
(3.5278907 0.13121831 0)
(3.4817617 0.12993981 0)
(3.4362669 0.12876735 0)
(3.3913631 0.1276921 0)
(3.3470101 0.12670584 0)
(3.3031705 0.12580099 0)
(3.2598095 0.12497047 0)
(3.2168946 0.12420768 0)
(3.1743957 0.12350649 0)
(3.1322848 0.12286114 0)
(3.0905356 0.12226623 0)
(3.0491241 0.12171669 0)
(3.0080279 0.12120777 0)
(2.967226 0.12073495 0)
(2.9266993 0.12029401 0)
(2.8864302 0.11988091 0)
(2.8464024 0.11949185 0)
(2.806601 0.11912323 0)
(2.7670126 0.1187716 0)
(2.7276248 0.11843371 0)
(2.6884268 0.11810646 0)
(2.6494086 0.11778689 0)
(2.6105617 0.11747218 0)
(2.5718787 0.11715968 0)
(2.533353 0.11684683 0)
(2.4949796 0.11653121 0)
(2.4567541 0.11621052 0)
(2.4186734 0.1158826 0)
(2.3807355 0.11554539 0)
(2.342939 0.11519693 0)
(2.305284 0.11483541 0)
(2.2677711 0.11445912 0)
(2.2304021 0.11406645 0)
(2.1931797 0.11365593 0)
(2.1561074 0.11322619 0)
(2.1191895 0.11277596 0)
(2.0824311 0.11230412 0)
(2.0458383 0.11180962 0)
(2.0094177 0.11129154 0)
(1.9731768 0.11074906 0)
(1.9371236 0.11018144 0)
(1.9012668 0.10958805 0)
(1.8656154 0.10896837 0)
(1.8301793 0.10832202 0)
(3.7581199 0.15305209 0)
(3.7085718 0.15092291 0)
(3.6598947 0.14896986 0)
(3.6120288 0.14717854 0)
(3.564919 0.1455357 0)
(3.5185138 0.14402917 0)
(3.4727654 0.14264775 0)
(3.4276291 0.1413811 0)
(3.3830636 0.14021964 0)
(3.3390302 0.13915452 0)
(3.2954928 0.1381775 0)
(3.2524178 0.13728093 0)
(3.209774 0.13645765 0)
(3.1675324 0.13570101 0)
(3.1256657 0.13500476 0)
(3.0841489 0.13436304 0)
(3.0429585 0.13377036 0)
(3.002073 0.13322151 0)
(2.9614721 0.13271163 0)
(2.9211374 0.13223609 0)
(2.8810518 0.13179051 0)
(2.8411996 0.13137075 0)
(2.8015664 0.13097287 0)
(2.7621393 0.13059315 0)
(2.7229064 0.13022801 0)
(2.6838572 0.12987409 0)
(2.6449823 0.12952816 0)
(2.6062733 0.12918716 0)
(2.5677232 0.12884816 0)
(2.5293259 0.12850839 0)
(2.4910764 0.12816522 0)
(2.4529708 0.12781613 0)
(2.4150063 0.12745876 0)
(2.3771808 0.12709086 0)
(2.3394934 0.1267103 0)
(2.3019443 0.1263151 0)
(2.2645345 0.12590339 0)
(2.2272657 0.12547342 0)
(2.1901408 0.12502358 0)
(2.1531635 0.12455238 0)
(2.1163383 0.12405845 0)
(2.0796705 0.12354053 0)
(2.043166 0.12299751 0)
(2.0068318 0.12242837 0)
(1.9706754 0.12183223 0)
(1.9347048 0.12120828 0)
(1.8989289 0.12055586 0)
(1.8633568 0.1198744 0)
(1.8279984 0.1191635 0)
(3.7450138 0.16672939 0)
(3.6960488 0.16444788 0)
(3.6479178 0.16235513 0)
(3.6005641 0.16043573 0)
(3.5539352 0.15867555 0)
(3.5079823 0.15706158 0)
(3.4626596 0.15558184 0)
(3.4179246 0.15422525 0)
(3.3737378 0.15298156 0)
(3.3300621 0.15184126 0)
(3.286863 0.15079552 0)
(3.2441085 0.14983611 0)
(3.2017685 0.14895536 0)
(3.159815 0.1481461 0)
(3.1182222 0.1474016 0)
(3.0769658 0.14671555 0)
(3.0360234 0.14608203 0)
(2.9953741 0.14549545 0)
(2.9549987 0.14495053 0)
(2.9148793 0.14444229 0)
(2.8749996 0.143966 0)
(2.8353444 0.14351718 0)
(2.7959001 0.14309159 0)
(2.7566541 0.14268518 0)
(2.717595 0.1422941 0)
(2.6787129 0.1419147 0)
(2.6399988 0.1415435 0)
(2.6014447 0.14117716 0)
(2.5630439 0.14081253 0)
(2.5247907 0.14044662 0)
(2.4866805 0.14007654 0)
(2.4487096 0.13969961 0)
(2.4108754 0.13931323 0)
(2.3731762 0.13891498 0)
(2.3356115 0.13850257 0)
(2.2981814 0.13807382 0)
(2.2608872 0.13762673 0)
(2.223731 0.13715941 0)
(2.1867157 0.13667009 0)
(2.1498452 0.13615716 0)
(2.1131241 0.13561915 0)
(2.0765579 0.1350547 0)
(2.0401527 0.13446259 0)
(2.0039156 0.13384173 0)
(1.967854 0.13319117 0)
(1.9319763 0.13251004 0)
(1.8962912 0.13179763 0)
(1.8608081 0.13105334 0)
(1.8255369 0.13027674 0)
(3.7304011 0.1805785 0)
(3.682083 0.17815329 0)
(3.634558 0.17592875 0)
(3.5877729 0.17388855 0)
(3.5416781 0.17201774 0)
(3.4962275 0.17030254 0)
(3.4513779 0.16873021 0)
(3.407089 0.16728901 0)
(3.3633232 0.16596804 0)
(3.3200454 0.16475719 0)
(3.2772228 0.16364703 0)
(3.2348247 0.16262882 0)
(3.1928228 0.16169435 0)
(3.1511902 0.16083598 0)
(3.1099024 0.16004652 0)
(3.068936 0.15931923 0)
(3.0282698 0.15864777 0)
(2.9878839 0.15802615 0)
(2.9477597 0.15744872 0)
(2.9078804 0.15691014 0)
(2.8682301 0.15640535 0)
(2.8287947 0.15592953 0)
(2.7895609 0.15547813 0)
(2.7505168 0.1550468 0)
(2.7116518 0.15463142 0)
(2.6729561 0.15422804 0)
(2.6344213 0.15383293 0)
(2.59604 0.15344251 0)
(2.5578059 0.15305339 0)
(2.5197135 0.15266232 0)
(2.4817587 0.15226624 0)
(2.4439382 0.15186221 0)
(2.4062495 0.15144748 0)
(2.3686915 0.15101943 0)
(2.3312636 0.15057557 0)
(2.2939664 0.1501136 0)
(2.2568013 0.14963132 0)
(2.2197707 0.14912671 0)
(2.1828778 0.14859789 0)
(2.1461265 0.1480431 0)
(2.1095217 0.14746076 0)
(2.0730689 0.14684942 0)
(2.0367746 0.14620776 0)
(2.0006457 0.14553461 0)
(1.96469 0.14482895 0)
(1.9289159 0.14408986 0)
(1.8933323 0.14331659 0)
(1.8579485 0.14250849 0)
(1.8227746 0.14166511 0)
(3.7141998 0.19457641 0)
(3.6665947 0.19201799 0)
(3.6197381 0.1896713 0)
(3.5735804 0.18751918 0)
(3.5280751 0.18554592 0)
(3.4831792 0.18373703 0)
(3.4388521 0.18207913 0)
(3.395056 0.18055982 0)
(3.3517556 0.17916761 0)
(3.3089177 0.17789181 0)
(3.2665115 0.17672249 0)
(3.2245079 0.17565036 0)
(3.1828801 0.17466676 0)
(3.1416027 0.17376356 0)
(3.1006525 0.17293315 0)
(3.0600074 0.17216836 0)
(3.0196471 0.17146247 0)
(2.9795529 0.17080909 0)
(2.9397072 0.17020223 0)
(2.9000939 0.16963619 0)
(2.8606981 0.16910558 0)
(2.8215063 0.16860527 0)
(2.782506 0.16813039 0)
(2.743686 0.16767631 0)
(2.7050361 0.16723863 0)
(2.6665472 0.16681313 0)
(2.6282115 0.16639581 0)
(2.590022 0.16598287 0)
(2.5519728 0.16557066 0)
(2.5140591 0.16515571 0)
(2.4762768 0.16473476 0)
(2.4386231 0.16430465 0)
(2.4010961 0.16386245 0)
(2.3636946 0.16340533 0)
(2.3264187 0.16293065 0)
(2.289269 0.16243593 0)
(2.2522474 0.16191884 0)
(2.2153563 0.16137719 0)
(2.1785992 0.16080898 0)
(2.1419803 0.16021234 0)
(2.1055045 0.15958556 0)
(2.0691777 0.1589271 0)
(2.0330064 0.15823554 0)
(1.9969978 0.15750965 0)
(1.9611597 0.15674832 0)
(1.9255006 0.1559506 0)
(1.8900296 0.15511567 0)
(1.854756 0.15424287 0)
(1.8196901 0.15333172 0)
(3.6963268 0.20869738 0)
(3.6495035 0.20601827 0)
(3.6033799 0.20356092 0)
(3.5579104 0.20130744 0)
(3.5130523 0.19924149 0)
(3.4687655 0.19734795 0)
(3.4250125 0.19561284 0)
(3.3817581 0.19402318 0)
(3.3389693 0.19256696 0)
(3.2966153 0.19123295 0)
(3.2546671 0.19001073 0)
(3.2130976 0.18889054 0)
(3.1718816 0.18786326 0)
(3.1309954 0.18692035 0)
(3.090417 0.18605377 0)
(3.0501258 0.18525596 0)
(3.0101028 0.18451982 0)
(2.9703302 0.18383862 0)
(2.9307915 0.183206 0)
(2.8914716 0.18261593 0)
(2.8523565 0.18206271 0)
(2.8134335 0.1815409 0)
(2.7746909 0.18104534 0)
(2.7361181 0.18057112 0)
(2.6977057 0.18011354 0)
(2.6594452 0.17966815 0)
(2.6213294 0.1792307 0)
(2.5833517 0.17879712 0)
(2.5455068 0.17836355 0)
(2.5077902 0.17792632 0)
(2.4701985 0.1774819 0)
(2.4327293 0.17702699 0)
(2.3953808 0.17655843 0)
(2.3581524 0.17607323 0)
(2.3210443 0.17556857 0)
(2.2840577 0.17504181 0)
(2.2471946 0.17449046 0)
(2.2104576 0.17391221 0)
(2.1738506 0.17330491 0)
(2.137378 0.17266658 0)
(2.1010449 0.1719954 0)
(2.0648573 0.17128972 0)
(2.0288219 0.17054806 0)
(1.9929461 0.1697691 0)
(1.9572379 0.16895165 0)
(1.9217059 0.16809473 0)
(1.8863592 0.16719746 0)
(1.8512075 0.16625917 0)
(1.8162609 0.16527933 0)
(3.676699 0.22291283 0)
(3.6307281 0.22012769 0)
(3.5854044 0.21757315 0)
(3.5406863 0.21523075 0)
(3.4965349 0.21308358 0)
(3.4529137 0.211116 0)
(3.4097882 0.20931351 0)
(3.3671261 0.20766265 0)
(3.3248971 0.20615091 0)
(3.2830726 0.2047666 0)
(3.2416259 0.20349886 0)
(3.2005318 0.20233749 0)
(3.1597671 0.20127298 0)
(3.1193096 0.20029636 0)
(3.0791389 0.19939923 0)
(3.0392359 0.19857368 0)
(2.9995827 0.19781223 0)
(2.9601629 0.19710781 0)
(2.9209612 0.19645375 0)
(2.8819634 0.19584371 0)
(2.8431566 0.19527167 0)
(2.8045288 0.1947319 0)
(2.7660692 0.19421896 0)
(2.7277681 0.19372766 0)
(2.6896168 0.19325306 0)
(2.6516074 0.19279044 0)
(2.6137332 0.19233531 0)
(2.5759883 0.19188336 0)
(2.5383681 0.19143053 0)
(2.5008684 0.19097289 0)
(2.4634864 0.19050676 0)
(2.42622 0.19002861 0)
(2.3890679 0.18953509 0)
(2.3520299 0.18902304 0)
(2.3151066 0.18848949 0)
(2.2782994 0.18793161 0)
(2.2416106 0.18734679 0)
(2.2050433 0.18673257 0)
(2.1686015 0.18608667 0)
(2.1322898 0.185407 0)
(2.0961136 0.18469163 0)
(2.0600792 0.18393882 0)
(2.0241934 0.183147 0)
(1.9884638 0.18231477 0)
(1.9528984 0.18144089 0)
(1.9175062 0.18052433 0)
(1.8822963 0.17956417 0)
(1.8472786 0.1785597 0)
(1.8124632 0.17751038 0)
(3.6552333 0.23719125 0)
(3.6101875 0.23431707 0)
(3.5657323 0.23168093 0)
(3.5218305 0.22926397 0)
(3.4784473 0.22704887 0)
(3.43555 0.22501956 0)
(3.3931073 0.22316112 0)
(3.3510901 0.22145966 0)
(3.3094707 0.21990226 0)
(3.2682231 0.21847685 0)
(3.227323 0.21717216 0)
(3.1867474 0.21597762 0)
(3.1464748 0.21488334 0)
(3.1064851 0.21388001 0)
(3.0667595 0.21295889 0)
(3.0272803 0.21211171 0)
(2.9880312 0.21133068 0)
(2.948997 0.21060843 0)
(2.9101635 0.20993797 0)
(2.8715179 0.20931266 0)
(2.8330481 0.2087262 0)
(2.7947432 0.2081726 0)
(2.7565934 0.20764613 0)
(2.7185896 0.20714136 0)
(2.6807239 0.20665309 0)
(2.6429893 0.20617636 0)
(2.6053797 0.20570644 0)
(2.5678899 0.20523881 0)
(2.5305157 0.20476917 0)
(2.4932537 0.20429342 0)
(2.4561013 0.20380764 0)
(2.4190571 0.20330813 0)
(2.3821203 0.20279136 0)
(2.345291 0.202254 0)
(2.3085701 0.2016929 0)
(2.2719595 0.2011051 0)
(2.2354619 0.20048783 0)
(2.1990805 0.1998385 0)
(2.1628197 0.19915471 0)
(2.1266844 0.19843426 0)
(2.0906803 0.1976751 0)
(2.0548138 0.19687541 0)
(2.0190919 0.19603354 0)
(1.9835224 0.19514802 0)
(1.9481137 0.19421756 0)
(1.9128747 0.19324105 0)
(1.8778147 0.19221758 0)
(1.8429438 0.19114638 0)
(1.8082722 0.19002691 0)
(3.6318477 0.25149827 0)
(3.5878012 0.24855441 0)
(3.5442846 0.24585445 0)
(3.5012657 0.24337938 0)
(3.458714 0.24111158 0)
(3.4166004 0.23903466 0)
(3.3748975 0.23713336 0)
(3.3335792 0.23539349 0)
(3.2926209 0.23380177 0)
(3.2519993 0.23234581 0)
(3.2116925 0.23101402 0)
(3.1716799 0.22979551 0)
(3.131942 0.22868006 0)
(3.0924607 0.22765807 0)
(3.0532189 0.22672047 0)
(3.0142007 0.22585872 0)
(2.9753911 0.22506473 0)
(2.9367765 0.22433083 0)
(2.8983441 0.22364976 0)
(2.8600819 0.22301462 0)
(2.8219793 0.22241884 0)
(2.7840263 0.22185616 0)
(2.7462139 0.22132063 0)
(2.7085343 0.22080655 0)
(2.6709801 0.22030849 0)
(2.6335453 0.21982127 0)
(2.5962243 0.21933993 0)
(2.5590128 0.21885974 0)
(2.5219071 0.21837619 0)
(2.4849044 0.21788499 0)
(2.4480028 0.21738202 0)
(2.4112012 0.21686339 0)
(2.3744994 0.21632542 0)
(2.3378979 0.21576459 0)
(2.3013981 0.2151776 0)
(2.2650023 0.21456135 0)
(2.2287134 0.21391292 0)
(2.1925351 0.21322959 0)
(2.156472 0.21250886 0)
(2.1205294 0.21174839 0)
(2.0847132 0.21094607 0)
(2.04903 0.21009996 0)
(2.0134872 0.20920835 0)
(1.9780927 0.20826969 0)
(1.942855 0.20728265 0)
(1.9077833 0.20624609 0)
(1.8728871 0.20515904 0)
(1.8381764 0.20402071 0)
(1.8036619 0.20283055 0)
(3.6499286 0.26905732 0)
(3.6064618 0.26579654 0)
(3.5634899 0.26280478 0)
(3.5209835 0.26006117 0)
(3.4789154 0.25754664 0)
(3.4372595 0.2552434 0)
(3.3959911 0.25313488 0)
(3.3550863 0.25120562 0)
(3.3145225 0.24944116 0)
(3.2742783 0.24782801 0)
(3.2343331 0.24635353 0)
(3.1946678 0.24500585 0)
(3.1552641 0.24377384 0)
(3.1161049 0.24264703 0)
(3.077174 0.24161554 0)
(3.0384562 0.24067006 0)
(2.9999374 0.23980178 0)
(2.9616044 0.23900235 0)
(2.9234448 0.23826387 0)
(2.8854472 0.23757882 0)
(2.8476011 0.23694006 0)
(2.809897 0.23634077 0)
(2.772326 0.23577448 0)
(2.7348803 0.23523498 0)
(2.6975527 0.23471636 0)
(2.6603371 0.23421298 0)
(2.623228 0.23371944 0)
(2.5862209 0.23323056 0)
(2.5493119 0.23274142 0)
(2.5124982 0.23224732 0)
(2.4757777 0.23174376 0)
(2.4391488 0.23122647 0)
(2.4026112 0.23069136 0)
(2.3661652 0.23013458 0)
(2.3298116 0.22955248 0)
(2.2935525 0.22894159 0)
(2.2573904 0.22829866 0)
(2.2213287 0.22762066 0)
(2.1853716 0.22690474 0)
(2.1495238 0.22614827 0)
(2.1137909 0.22534883 0)
(2.0781793 0.22450419 0)
(2.0426958 0.22361236 0)
(2.0073479 0.22267152 0)
(1.9721439 0.22168009 0)
(1.9370924 0.22063668 0)
(1.9022028 0.21954011 0)
(1.8674848 0.21838939 0)
(1.8329486 0.21718371 0)
(1.798605 0.21592248 0)
(3.6212398 0.28333197 0)
(3.5789975 0.28004564 0)
(3.5371763 0.27703042 0)
(3.4957525 0.27426577 0)
(3.454704 0.27173272 0)
(3.4140097 0.26941347 0)
(3.3736489 0.26729137 0)
(3.3336018 0.26535088 0)
(3.2938493 0.26357744 0)
(3.2543732 0.26195739 0)
(3.2151563 0.26047793 0)
(3.1761819 0.25912703 0)
(3.1374344 0.25789336 0)
(3.0988991 0.25676625 0)
(3.0605619 0.25573563 0)
(3.0224097 0.25479197 0)
(2.9844301 0.25392626 0)
(2.9466117 0.25312993 0)
(2.9089437 0.25239487 0)
(2.8714163 0.25171335 0)
(2.8340202 0.251078 0)
(2.7967471 0.25048182 0)
(2.7595896 0.2499181 0)
(2.7225406 0.24938044 0)
(2.6855943 0.24886273 0)
(2.6487453 0.24835911 0)
(2.6119892 0.247864 0)
(2.5753221 0.24737202 0)
(2.5387411 0.24687808 0)
(2.502244 0.24637727 0)
(2.4658292 0.24586494 0)
(2.4294962 0.24533662 0)
(2.393245 0.24478809 0)
(2.3570764 0.24421532 0)
(2.3209919 0.24361451 0)
(2.2849939 0.24298206 0)
(2.2490855 0.24231458 0)
(2.2132704 0.24160892 0)
(2.1775532 0.24086211 0)
(2.1419391 0.2400714 0)
(2.106434 0.23923429 0)
(2.0710444 0.23834847 0)
(2.0357776 0.23741184 0)
(2.0006414 0.23642254 0)
(1.9656441 0.23537892 0)
(1.9307948 0.23427956 0)
(1.8961029 0.23312325 0)
(1.8615784 0.23190897 0)
(1.8272316 0.23063591 0)
(1.7930735 0.22930342 0)
(3.5903178 0.297485 0)
(3.5493802 0.29420231 0)
(3.5087859 0.29119078 0)
(3.4685174 0.28843027 0)
(3.4285582 0.285902 0)
(3.3888917 0.28358835 0)
(3.3495018 0.28147278 0)
(3.3103728 0.27953977 0)
(3.2714894 0.27777476 0)
(3.2328368 0.27616406 0)
(3.1944008 0.2746948 0)
(3.156168 0.27335485 0)
(3.1181252 0.27213278 0)
(3.0802601 0.27101779 0)
(3.0425611 0.26999967 0)
(3.0050171 0.26906873 0)
(2.9676177 0.26821581 0)
(2.9303533 0.26743217 0)
(2.8932148 0.26670953 0)
(2.8561938 0.26603998 0)
(2.8192827 0.26541598 0)
(2.7824745 0.26483035 0)
(2.7457628 0.26427619 0)
(2.709142 0.26374692 0)
(2.6726072 0.26323626 0)
(2.6361541 0.26273817 0)
(2.5997791 0.26224687 0)
(2.5634793 0.26175684 0)
(2.5272527 0.26126279 0)
(2.4910978 0.26075967 0)
(2.4550137 0.26024263 0)
(2.4190006 0.25970709 0)
(2.3830591 0.25914864 0)
(2.3471906 0.25856313 0)
(2.3113972 0.2579466 0)
(2.2756817 0.25729533 0)
(2.2400478 0.2566058 0)
(2.2044997 0.25587474 0)
(2.1690422 0.25509907 0)
(2.133681 0.25427596 0)
(2.0984224 0.2534028 0)
(2.0632732 0.25247718 0)
(2.028241 0.25149697 0)
(1.9933339 0.25046023 0)
(1.9585604 0.24936527 0)
(1.92393 0.24821062 0)
(1.8894521 0.24699505 0)
(1.8551371 0.24571755 0)
(1.8209952 0.24437729 0)
(1.7870379 0.24297357 0)
(3.5570926 0.31146748 0)
(3.5175391 0.30822069 0)
(3.4782479 0.30524272 0)
(3.4392076 0.30251404 0)
(3.4004071 0.30001628 0)
(3.361835 0.29773215 0)
(3.3234798 0.29564534 0)
(3.28533 0.29374053 0)
(3.2473741 0.29200328 0)
(3.209601 0.29041996 0)
(3.1719997 0.28897775 0)
(3.1345598 0.28766452 0)
(3.097271 0.28646881 0)
(3.0601235 0.28537976 0)
(3.0231082 0.28438708 0)
(2.9862161 0.28348102 0)
(2.949439 0.28265229 0)
(2.912769 0.28189205 0)
(2.8761988 0.28119189 0)
(2.8397218 0.28054376 0)
(2.8033318 0.27993998 0)
(2.7670232 0.27937323 0)
(2.730791 0.27883645 0)
(2.6946308 0.27832294 0)
(2.6585388 0.27782622 0)
(2.6225118 0.27734012 0)
(2.5865472 0.27685871 0)
(2.5506432 0.2763763 0)
(2.5147984 0.27588747 0)
(2.4790122 0.27538699 0)
(2.4432847 0.2748699 0)
(2.4076165 0.27433144 0)
(2.372009 0.27376709 0)
(2.3364642 0.27317254 0)
(2.3009848 0.27254373 0)
(2.2655743 0.27187679 0)
(2.2302366 0.27116812 0)
(2.1949765 0.2704143 0)
(2.1597994 0.26961219 0)
(2.1247113 0.26875884 0)
(2.0897188 0.26785157 0)
(2.0548292 0.2668879 0)
(2.0200503 0.26586563 0)
(1.9853905 0.26478276 0)
(1.9508588 0.26363756 0)
(1.9164646 0.26242854 0)
(1.8822179 0.26115445 0)
(1.8481291 0.25981429 0)
(1.8142086 0.25840725 0)
(1.780468 0.25693262 0)
(3.5597741 0.32868823 0)
(3.5215003 0.32522814 0)
(3.4834092 0.32205236 0)
(3.4454961 0.31914055 0)
(3.4077561 0.31647399 0)
(3.3701837 0.31403492 0)
(3.3327725 0.31180652 0)
(3.2955157 0.30977291 0)
(3.2584063 0.30791909 0)
(3.2214367 0.30623087 0)
(3.1845994 0.30469482 0)
(3.1478871 0.30329825 0)
(3.1112922 0.30202915 0)
(3.0748074 0.30087609 0)
(3.0384258 0.29982827 0)
(3.0021405 0.29887539 0)
(2.9659449 0.29800766 0)
(2.9298329 0.29721577 0)
(2.8937986 0.29649081 0)
(2.8578367 0.29582428 0)
(2.8219421 0.29520806 0)
(2.7861103 0.29463438 0)
(2.7503371 0.29409578 0)