/*--------------------------------*- C++ -*----------------------------------*\
| =========                 |                                                 |
| \\      /  F ield         | OpenFOAM: The Open Source CFD Toolbox           |
|  \\    /   O peration     | Version:  2312                                  |
|   \\  /    A nd           | Website:  www.openfoam.com                      |
|    \\/     M anipulation  |                                                 |
\*---------------------------------------------------------------------------*/
FoamFile
{
    version     2.0;
    format      ascii;
    arch        "LSB;label=32;scalar=64";
    class       volScalarField;
    location    "0.02";
    object      alphat;
}
// * * * * * * * * * * * * * * * * * * * * * * * * * * * * * * * * * * * * * //

dimensions      [1 -1 -1 0 0 0 0];

internalField   nonuniform List<scalar> 
3251
(
0.011966589
0.011948504
0.011933784
0.011922288
0.011913869
0.011908404
0.01190579
0.011905947
0.011908818
0.011914364
0.011922568
0.011933431
0.011946968
0.01196321
0.011982203
0.012004002
0.012028673
0.012056293
0.012086944
0.012120718
0.012157713
0.012198014
0.012241755
0.012289057
0.012340029
0.012394796
0.012453491
0.01251625
0.012583217
0.012654543
0.012730381
0.012810897
0.01289626
0.012986648
0.013082248
0.013183253
0.013289867
0.013402303
0.013520786
0.013645548
0.013776834
0.013914902
0.014060022
0.014212483
0.014372586
0.014540638
0.014716961
0.014901893
0.015095787
0.015299013
0.015511959
0.015735096
0.015968937
0.016213828
0.016470162
0.016738387
0.017018977
0.017312396
0.01196691
0.011948807
0.011934068
0.011922559
0.011914128
0.011908651
0.011906024
0.011906167
0.011909024
0.011914556
0.011922745
0.011933592
0.011947112
0.011963338
0.011982314
0.012004095
0.012028749
0.01205635
0.012086982
0.012120737
0.012157712
0.012197994
0.012241715
0.012288997
0.012339949
0.012394695
0.012453369
0.012516108
0.012583055
0.01265436
0.012730178
0.012810674
0.012896017
0.012986385
0.013081965
0.013182951
0.013289546
0.013401964
0.013520429
0.013645173
0.013776443
0.013914495
0.014059598
0.014212045
0.014372135
0.014540175
0.014716487
0.014901411
0.0150953
0.015298525
0.015511478
0.015734619
0.015968423
0.016213266
0.016469561
0.016737759
0.017018341
0.017311763
0.011967697
0.011949587
0.011934835
0.011923319
0.011914882
0.011909396
0.011906761
0.011906896
0.011909742
0.011915262
0.01192344
0.011934273
0.01194778
0.011963992
0.011982952
0.012004717
0.012029353
0.012056937
0.012087551
0.012121287
0.012158243
0.012198505
0.012242205
0.012289466
0.012340396
0.01239512
0.012453772
0.012516488
0.012583411
0.012654693
0.012730488
0.012810959
0.012896278
0.012986622
0.013082178
0.013183139
0.01328971
0.013402104
0.013520544
0.013645265
0.013776511
0.013914539
0.014059619
0.014212044
0.014372111
0.01454013
0.014716423
0.014901328
0.015095201
0.015298413
0.015511359
0.015734484
0.015968242
0.016213029
0.016469272
0.016737428
0.017017987
0.01731138
0.011968958
0.011950847
0.011936092
0.011924574
0.011916135
0.011910647
0.011908008
0.011908137
0.011910977
0.011916489
0.011924657
0.011935481
0.011948976
0.011965175
0.011984122
0.012005872
0.012030493
0.01205806
0.012088656
0.012122374
0.01215931
0.012199551
0.01224323
0.012290469
0.012341376
0.012396077
0.012454704
0.012517395
0.012584293
0.012655547
0.012731315
0.01281176
0.012897051
0.012987366
0.013082893
0.013183825
0.013290366
0.01340273
0.01352114
0.01364583
0.013777045
0.013915043
0.014060093
0.014212486
0.014372523
0.014540512
0.014716776
0.014901653
0.015095499
0.015298686
0.015511609
0.015734702
0.015968404
0.016213127
0.016469306
0.016737404
0.017017918
0.017311238
0.011970691
0.011952586
0.011937836
0.011926323
0.011917888
0.011912402
0.011909763
0.011909891
0.011912728
0.011918236
0.011926398
0.011937213
0.0119507
0.011966888
0.011985822
0.01200756
0.012032166
0.012059717
0.012090296
0.012123995
0.012160911
0.012201133
0.012244789
0.012292005
0.012342888
0.012397564
0.012456164
0.012518828
0.012585697
0.012656923
0.012732661
0.012813074
0.012898333
0.012988616
0.013084109
0.013185006
0.013291513
0.013403841
0.013522215
0.013646868
0.013778045
0.013916005
0.014061017
0.014213371
0.01437337
0.01454132
0.014717545
0.014902384
0.015096191
0.015299341
0.015512227
0.015735273
0.015968909
0.016213558
0.016469659
0.016737684
0.017018134
0.011972766
0.011954677
0.011939937
0.011928435
0.011920008
0.011914529
0.011911895
0.011912026
0.011914863
0.01192037
0.011928529
0.01193934
0.011952819
0.011969
0.011987924
0.01200965
0.012034244
0.012061781
0.012092344
0.012126026
0.012162924
0.012203125
0.012246761
0.012293954
0.012344813
0.012399463
0.012458037
0.012520673
0.012587513
0.012658708
0.012734414
0.012814795
0.01290002
0.012990268
0.013085725
0.013186585
0.013293053
0.013405343
0.013523676
0.013648288
0.013779424
0.013917341
0.014062309
0.01421462
0.014374574
0.014542479
0.014718658
0.014903451
0.015097213
0.015300316
0.015513153
0.015736141
0.015969706
0.016214273
0.016470289
0.016738231
0.017018611
0.011975115
0.011957046
0.011942324
0.011930836
0.011922423
0.011916954
0.011914328
0.011914464
0.011917305
0.011922814
0.011930972
0.01194178
0.011955256
0.01197143
0.011990347
0.012012063
0.012036646
0.01206417
0.012094719
0.012128385
0.012165265
0.012205447
0.012249061
0.012296232
0.012347067
0.012401692
0.01246024
0.012522847
0.012589657
0.012660821
0.012736494
0.012816841
0.01290203
0.012992241
0.01308766
0.013188481
0.013294909
0.013407156
0.013525447
0.013650015
0.013781105
0.013918976
0.014063897
0.014216159
0.014376064
0.014543919
0.014720047
0.014904789
0.015098498
0.015301546
0.015514326
0.015737249
0.015970736
0.016215218
0.016471141
0.016738994
0.017019275
0.01197792
0.01195988
0.011945182
0.011933715
0.011925319
0.011919865
0.011917251
0.011917397
0.011920245
0.011925757
0.011933918
0.011944726
0.011958199
0.011974368
0.011993279
0.012014987
0.012039558
0.01206707
0.012097605
0.012131254
0.012168116
0.012208279
0.012251871
0.012299018
0.012349827
0.012404425
0.012462943
0.012525519
0.012592296
0.012663425
0.012739062
0.01281937
0.01290452
0.01299469
0.013090066
0.013190842
0.013297223
0.013409423
0.013527664
0.013652181
0.013783219
0.013921036
0.014065902
0.014218108
0.014377954
0.01454575
0.014721818
0.014906498
0.015100144
0.015303127
0.015515837
0.015738682
0.01597208
0.016216463
0.016472281
0.016740023
0.017020161
0.011981215
0.011963212
0.011948546
0.011937105
0.011928732
0.011923299
0.011920701
0.01192086
0.011923718
0.011929238
0.011937403
0.011948214
0.011961686
0.011977853
0.011996758
0.012018458
0.01204302
0.01207052
0.01210104
0.012134673
0.012171516
0.012211658
0.012255227
0.012302348
0.01235313
0.012407698
0.012466184
0.012528726
0.012595468
0.012666558
0.012742155
0.012822421
0.012907526
0.012997649
0.013092976
0.013193702
0.013300031
0.013412176
0.013530361
0.01365482
0.013785798
0.013923554
0.014068356
0.014220496
0.014380276
0.014548003
0.014724001
0.014908608
0.015102179
0.015305084
0.015517712
0.015740466
0.015973763
0.016218034
0.016473732
0.016741337
0.011985036
0.011967079
0.011952452
0.011941045
0.011932701
0.011927293
0.011924717
0.011924893
0.011927765
0.011933296
0.011941469
0.011952284
0.011965758
0.011981923
0.012000825
0.012022519
0.012047072
0.012074559
0.012105066
0.012138682
0.012175506
0.012215626
0.01225917
0.012306265
0.012357017
0.012411553
0.012470004
0.012532509
0.012599211
0.01267026
0.012745812
0.01282603
0.012911086
0.013001157
0.01309643
0.0131971
0.013303369
0.013415453
0.013533575
0.013657968
0.013788878
0.013926563
0.014071292
0.014223358
0.01438306
0.014550708
0.014726625
0.014911148
0.015104632
0.015307448
0.015519979
0.015742629
0.015975812
0.016219958
0.01647552
0.016742962
0.011989422
0.01197152
0.01195694
0.011945574
0.011937266
0.011931888
0.011929338
0.011929537
0.011932427
0.011937973
0.011946156
0.011956978
0.011970457
0.011986623
0.012005523
0.012027211
0.012051756
0.012079232
0.012109725
0.012143324
0.012180128
0.012220225
0.012263744
0.012310809
0.01236153
0.012416031
0.012474445
0.01253691
0.012603568
0.012674571
0.012750073
0.01283024
0.012915241
0.013005255
0.013100467
0.013201073
0.013307277
0.013419292
0.013537342
0.013661661
0.013792494
0.013930099
0.014074747
0.014226728
0.014386343
0.0145539
0.014729724
0.014914151
0.015107536
0.015310248
0.01552267
0.015745202
0.015978256
0.016222263
0.016477673
0.011994412
0.011976575
0.011962051
0.011950734
0.011942469
0.011937128
0.01193461
0.011934836
0.011937749
0.011943312
0.01195151
0.011962342
0.011975828
0.011991997
0.012010896
0.012032581
0.012057118
0.012084584
0.012115063
0.012148645
0.012185428
0.012225502
0.012268993
0.012316028
0.012366715
0.012421179
0.012479552
0.012541973
0.012608584
0.012679536
0.012754985
0.012835094
0.012920034
0.013009984
0.013105129
0.013205665
0.013311796
0.013423734
0.013541704
0.01366594
0.013796687
0.013934203
0.014078758
0.014230643
0.014390159
0.014557615
0.014733333
0.014917652
0.015110924
0.015313517
0.015525815
0.015748215
0.015981127
0.016224979
0.016480214
0.012000051
0.011982288
0.011967829
0.011956569
0.011948354
0.011943057
0.011940577
0.011940836
0.011943776
0.011949362
0.011957577
0.011968423
0.011981918
0.011998093
0.012016994
0.012038676
0.012063208
0.012090664
0.012121128
0.012154693
0.012191455
0.012231504
0.012274966
0.012321969
0.012372619
0.012427043
0.012485373
0.012547746
0.012614305
0.012685202
0.012760591
0.012840638
0.012925512
0.013015391
0.013110462
0.01321092
0.013316969
0.013428822
0.013546703
0.013670846
0.013801497
0.013938914
0.014083365
0.014235143
0.014394548
0.014561889
0.014737489
0.014921685
0.01511483
0.015317291
0.015529451
0.015751704
0.015984459
0.016228138
0.012006382
0.011988704
0.011974321
0.011963127
0.01195497
0.011949724
0.011947289
0.011947585
0.011950558
0.011956171
0.011964408
0.011975271
0.011988779
0.012004962
0.012023866
0.012045547
0.012070074
0.012097521
0.012127972
0.012161519
0.01219826
0.012238283
0.012281714
0.012328683
0.012379294
0.012433675
0.012491957
0.012554278
0.012620782
0.012691618
0.012766943
0.012846921
0.012931721
0.013021523
0.013116512
0.013216885
0.013322843
0.013434602
0.013552385
0.013676425
0.013806969
0.013944275
0.014088611
0.014240269
0.014399551
0.014566764
0.014742231
0.014926289
0.015119292
0.015321605
0.015533611
0.015755704
0.015988287
0.016231764
0.012013454
0.011995873
0.011981575
0.011970457
0.011962367
0.01195718
0.011954795
0.011955136
0.011958146
0.011963791
0.011972055
0.011982939
0.011996462
0.012012656
0.012031566
0.012053249
0.012077771
0.01210521
0.012135648
0.012169178
0.012205896
0.012245892
0.012289291
0.012336223
0.012386793
0.012441127
0.012499358
0.012561623
0.012628066
0.012698837
0.012774091
0.012853993
0.012938714
0.013028431
0.01312333
0.013223608
0.013329468
0.013441122
0.013558796
0.013682723
0.013813149
0.013950331
0.01409454
0.014246065
0.014405209
0.01457228
0.014747599
0.014931505
0.015124349
0.015326499
0.015538336
0.015760254
0.015992649
0.012021316
0.012003844
0.011989644
0.011978611
0.011970597
0.011965476
0.01196315
0.011963542
0.011966596
0.011972278
0.011980573
0.011991482
0.012005024
0.012021232
0.01204015
0.012061836
0.012086356
0.012113788
0.012144213
0.012177725
0.01221442
0.012254388
0.012297753
0.012344646
0.012395171
0.012449456
0.012507632
0.012569836
0.012636213
0.012706912
0.01278209
0.01286191
0.012946543
0.013036167
0.013130969
0.013231143
0.013336893
0.013448434
0.013565988
0.01368979
0.013820085
0.013957132
0.014101199
0.014252578
0.01441157
0.014578482
0.014753639
0.014937375
0.015130044
0.015332013
0.015543664
0.015765393
0.015997574
0.012030021
0.012012671
0.01199858
0.011987644
0.011979715
0.01197467
0.011972411
0.011972861
0.011975965
0.01198169
0.011990021
0.012000959
0.012014524
0.012030749
0.012049678
0.012071369
0.012095889
0.012123313
0.012153727
0.01218722
0.012223891
0.01226383
0.012307159
0.012354011
0.012404489
0.01245872
0.012516837
0.012578976
0.012645282
0.012715903
0.012790998
0.012870728
0.012955266
0.013044788
0.013139482
0.013239543
0.013345174
0.013456589
0.013574012
0.013697677
0.013827829
0.013964726
0.014108638
0.014259855
0.014418679
0.014585418
0.014760394
0.014943943
0.015136419
0.015338188
0.015549637
0.015771161
0.012039625
0.01202241
0.012008441
0.011997613
0.01198978
0.011984821
0.011982636
0.011983152
0.011986313
0.011992087
0.012000459
0.012011432
0.012025024
0.012041269
0.012060212
0.01208191
0.012106431
0.01213385
0.012164252
0.012197727
0.012234374
0.012274282
0.012317573
0.012364381
0.012414808
0.012468983
0.012527035
0.012589104
0.012655332
0.01272587
0.012800874
0.012880508
0.012964941
0.013054353
0.01314893
0.013248867
0.013354367
0.013465645
0.013582924
0.013706439
0.013836434
0.013973167
0.014116908
0.014267948
0.014426587
0.014593135
0.014767913
0.014951257
0.015143519
0.01534507
0.015556298
0.015777585
0.012050186
0.012033121
0.012019287
0.012008579
0.012000854
0.011995989
0.011993889
0.011994478
0.011997704
0.012003534
0.012011953
0.012022964
0.012036588
0.012052857
0.012071817
0.012093525
0.012118049
0.012145464
0.012175854
0.012209311
0.012245933
0.012285809
0.01232906
0.012375821
0.012426195
0.012480308
0.012538292
0.012600285
0.01266643
0.012736877
0.012811783
0.012891311
0.012975632
0.013064924
0.013159373
0.013259175
0.013364533
0.013475661
0.013592783
0.013716133
0.013845956
0.01398251
0.014126065
0.01427691
0.014435348
0.014601686
0.014776246
0.014959365
0.015151393
0.015352704
0.015563691
0.01578471
0.012061764
0.012044864
0.01203118
0.012020606
0.012012999
0.012008241
0.012006234
0.012006906
0.012010204
0.012016096
0.012024569
0.012035625
0.012049285
0.012065582
0.012084562
0.012106283
0.012130811
0.012158223
0.012188603
0.012222042
0.012258638
0.01229848
0.01234169
0.012388401
0.012438717
0.012492765
0.012550676
0.012612587
0.012678642
0.012748991
0.012823791
0.012903205
0.012987403
0.013076565
0.013170875
0.01327053
0.013375734
0.013486699
0.01360365
0.01372682
0.013856456
0.013992814
0.014136165
0.014286797
0.014445015
0.014611124
0.014785446
0.014968319
0.015160091
0.015361137
0.015571858
0.015792583
0.012074424
0.012057705
0.012044186
0.012033759
0.012026285
0.012021643
0.012019741
0.012020505
0.012023883
0.012029845
0.012038378
0.012049484
0.012063186
0.012079515
0.012098519
0.012120256
0.012144791
0.012172202
0.012202572
0.012235993
0.012272561
0.012312369
0.012355535
0.012402193
0.012452448
0.012506426
0.012564257
0.012626081
0.012692039
0.012762283
0.012836968
0.012916259
0.013000324
0.013089344
0.013183504
0.013283
0.013388035
0.013498823
0.013615588
0.013738563
0.013867995
0.01400414
0.014147268
0.014297669
0.014455646
0.014621505
0.014795569
0.014978173
0.015169665
0.015370417
0.015580838
0.012088234
0.012071711
0.012058373
0.012048109
0.01204078
0.012036268
0.012034481
0.012035346
0.012038815
0.012044854
0.012053454
0.012064617
0.012078366
0.012094732
0.012113764
0.012135519
0.012160064
0.012187475
0.012217836
0.012251239
0.01228778
0.012327551
0.01237067
0.012417273
0.012467463
0.012521366
0.012579113
0.012640842
0.012706696
0.012776826
0.012851388
0.012930545
0.013014467
0.013103334
0.013197331
0.013296654
0.013401507
0.013512102
0.013628665
0.013751428
0.013880638
0.014016551
0.014159438
0.014309587
0.014467302
0.014632889
0.014806672
0.014988985
0.015180171
0.015380589
0.015590645
0.012103264
0.012086952
0.012073814
0.012063728
0.012056558
0.012052189
0.012050528
0.012051506
0.012055074
0.0120612
0.012069874
0.012081101
0.012094902
0.012111311
0.012130375
0.012152152
0.012176709
0.012204122
0.012234475
0.01226786
0.012304373
0.012344107
0.012387177
0.01243372
0.01248384
0.012537663
0.01259532
0.012656948
0.01272269
0.012792698
0.012867126
0.012946139
0.013029907
0.013118608
0.013212429
0.013311565
0.01341622
0.013526607
0.013642951
0.013765484
0.013894453
0.014030115
0.014172739
0.014322614
0.014480045
0.014645338
0.014818816
0.015000813
0.015191665
0.012119591
0.012103503
0.012090582
0.012080691
0.012073696
0.012069483
0.012067962
0.012069064
0.01207274
0.012078962
0.012087719
0.012099017
0.012112877
0.012129334
0.012148434
0.012170237
0.012194808
0.012222226
0.012252572
0.012285939
0.012322423
0.012362117
0.012405136
0.012451617
0.012501663
0.012555401
0.01261296
0.01267448
0.012740102
0.012809978
0.012884263
0.01296312
0.013046721
0.013135244
0.013228875
0.013327809
0.01343225
0.013542412
0.013658518
0.013780802
0.013909511
0.0140449
0.014187239
0.014336818
0.01449394
0.014658914
0.014832062
0.015013716
0.012137288
0.012121441
0.012108756
0.012099077
0.012092272
0.01208823
0.012086862
0.0120881
0.012091896
0.012098224
0.012107073
0.012118449
0.012132375
0.012148885
0.012168027
0.012189859
0.012214449
0.012241872
0.012272213
0.012305562
0.012342017
0.01238167
0.012424635
0.01247105
0.012521017
0.012574664
0.01263212
0.012693523
0.012759017
0.012828751
0.012902881
0.012981572
0.013064993
0.013153323
0.013246749
0.013345465
0.013449675
0.013559593
0.013675443
0.013797458
0.013925884
0.014060979
0.01420301
0.014352268
0.014509056
0.014673684
0.014846474
0.01502774
0.012175222
0.012156406
0.012140844
0.012128415
0.012118967
0.01211237
0.012108514
0.012107313
0.012108699
0.012112628
0.012119071
0.012128021
0.012139484
0.012153483
0.012170053
0.012189242
0.012211108
0.012235719
0.012263151
0.012293488
0.01232682
0.012363245
0.012402855
0.012445762
0.012492108
0.012541992
0.012595541
0.012652887
0.012714166
0.012779521
0.012849103
0.012923068
0.013001579
0.013084807
0.01317293
0.013266134
0.013364615
0.013468576
0.013578232
0.013693805
0.013815529
0.013943651
0.014078426
0.014220125
0.014369036
0.014525463
0.014689717
0.014862121
0.015042971
0.012195507
0.012177044
0.012161793
0.012149643
0.012140446
0.012134075
0.012130422
0.012129402
0.01213095
0.012135023
0.012141594
0.012150654
0.012162213
0.012176293
0.01219293
0.012212171
0.012234076
0.012258712
0.012286155
0.012316489
0.012349805
0.012386199
0.012425765
0.012468612
0.012514884
0.01256468
0.012618126
0.012675353
0.012736499
0.012801707
0.012871126
0.012944913
0.013023231
0.013106251
0.013194151
0.013287117
0.013385345
0.013489038
0.01359841
0.013713685
0.013835096
0.013962888
0.01409732
0.01423866
0.014387196
0.014543233
0.014707082
0.014879068
0.015059473
0.01221739
0.012199292
0.012184375
0.012172525
0.0121636
0.012157474
0.012154041
0.012153219
0.012154944
0.012159173
0.012165883
0.012175065
0.012186729
0.012200898
0.012217609
0.012236909
0.012258858
0.012283523
0.01231098
0.012341313
0.012374612
0.012410975
0.012450495
0.01249328
0.012539473
0.012589176
0.012642512
0.012699614
0.012760618
0.012825667
0.012894912
0.012968508
0.01304662
0.013129416
0.013217076
0.013309786
0.013407742
0.013511146
0.013620214
0.013735167
0.01385624
0.013983679
0.01411774
0.014258693
0.014406825
0.014562441
0.014725852
0.014897384
0.015077312
0.012240944
0.012223236
0.012208677
0.012197151
0.012188519
0.012182657
0.012179463
0.012178855
0.012180772
0.012185173
0.012192034
0.012201349
0.012213128
0.012227396
0.012244188
0.012263554
0.012285552
0.01231025
0.012337724
0.012368058
0.012401342
0.012437673
0.012477145
0.012519864
0.012565976
0.012615579
0.012668799
0.012725766
0.012786619
0.012851499
0.012920558
0.01299395
0.013071839
0.013154396
0.013241799
0.013334234
0.013431897
0.013534991
0.013643731
0.013758338
0.013879049
0.014006107
0.014139769
0.014280305
0.014428001
0.014583164
0.014746103
0.014917142
0.015096557
0.012266252
0.012248963
0.012234788
0.012223611
0.012215295
0.012209719
0.012206782
0.012206406
0.012208531
0.012213118
0.012220143
0.012229604
0.012241509
0.012255884
0.012272767
0.012292205
0.012314258
0.012338994
0.012366489
0.012396826
0.012430095
0.012466394
0.012505817
0.012548467
0.012594492
0.01264399
0.012697086
0.012753911
0.012814602
0.012879302
0.012948161
0.013021335
0.013098986
0.013181286
0.013268413
0.013360554
0.013457903
0.013560664
0.013669051
0.013783288
0.013903608
0.014030257
0.01416349
0.014303578
0.014450806
0.01460548
0.01476791
0.01493842
0.015117283
0.012293401
0.012276562
0.012262799
0.012251997
0.01224402
0.012238752
0.012236093
0.012235967
0.012238318
0.012243106
0.012250311
0.012259929
0.012271972
0.012286465
0.012303447
0.012322965
0.012345079
0.012369858
0.012397377
0.01242772
0.012460976
0.012497242
0.012536614
0.012579192
0.012625126
0.012674512
0.012727477
0.012784151
0.01284467
0.012909178
0.012977823
0.013050763
0.01312816
0.013210186
0.013297017
0.013388842
0.013485854
0.013588259
0.013696269
0.013810107
0.013930008
0.014056217
0.014188991
0.014328597
0.014475321
0.014629471
0.014791354
0.014961293
0.015139564
0.01232248
0.012306124
0.012292802
0.012282402
0.01227479
0.012269852
0.012267493
0.012267637
0.012270231
0.012275237
0.012282636
0.012292425
0.012304618
0.012319241
0.01233633
0.012355937
0.01237812
0.012402947
0.012430494
0.012460845
0.012494089
0.012530323
0.012569641
0.012612144
0.012657982
0.012707251
0.012760077
0.012816589
0.012876926
0.012941228
0.013009647
0.013082337
0.013159463
0.013241194
0.01332771
0.013419196
0.013515849
0.01361787
0.013725476
0.013838887
0.01395834
0.014084077
0.014216357
0.014355447
0.014501631
0.014655217
0.014816514
0.014985841
0.015163475
0.012353581
0.012337741
0.012324891
0.012314921
0.0123077
0.012303117
0.012301079
0.012301514
0.01230437
0.012309611
0.01231722
0.012327196
0.012339552
0.012354314
0.012371523
0.012391227
0.012413485
0.012438366
0.012465947
0.012496308
0.012529542
0.012565742
0.012605006
0.012647431
0.012693167
0.012742313
0.012794991
0.012851333
0.012911474
0.012975559
0.013043735
0.013116159
0.013192995
0.013274413
0.013360591
0.013451716
0.013547982
0.013649595
0.013756767
0.013869722
0.013988694
0.014113927
0.014245677
0.014384214
0.01452982
0.014682802
0.014843469
0.015012141
0.015189094
0.012386794
0.012371504
0.012359159
0.012349648
0.012342845
0.012338642
0.012336949
0.012337697
0.012340835
0.012346329
0.012354165
0.012364342
0.012376874
0.01239179
0.012409128
0.012428938
0.01245128
0.012476222
0.01250384
0.012534216
0.01256744
0.012603608
0.012642815
0.012685158
0.012730789
0.012779803
0.012832326
0.012888486
0.012948421
0.013012274
0.013080192
0.013152333
0.01322886
0.013309943
0.01339576
0.013486499
0.013582354
0.013683529
0.013790238
0.013902705
0.014021162
0.014145855
0.01427704
0.014414985
0.014559972
0.014712308
0.014872302
0.015040272
0.015216497
0.01242221
0.012407506
0.012395698
0.012386677
0.012380321
0.012376524
0.012375201
0.012376283
0.012379724
0.012385491
0.012393571
0.012403965
0.012416689
0.01243177
0.012449249
0.012469176
0.01249161
0.012516619
0.01254428
0.012574674
0.012607891
0.012644026
0.012683175
0.012725433
0.012770953
0.012819829
0.012872187
0.012928156
0.012987872
0.013051477
0.013119122
0.013190961
0.013267158
0.013347884
0.013433317
0.013523644
0.013619059
0.013719768
0.013825983
0.013937928
0.014055836
0.014179952
0.014310533
0.014447845
0.014592171
0.014743817
0.014903091
0.015070312
0.015245759
0.012459918
0.012445836
0.012434599
0.0124261
0.012420219
0.012416857
0.012415928
0.012417369
0.012421134
0.012427195
0.012435538
0.012446166
0.012459096
0.012474357
0.012491989
0.012512043
0.012534577
0.012559662
0.01258737
0.012617786
0.012650998
0.0126871
0.012726191
0.01276836
0.012813763
0.012862495
0.012914679
0.012970444
0.013029928
0.013093272
0.013160625
0.013232144
0.013307991
0.013388337
0.013473361
0.013563248
0.013658196
0.013758406
0.013864094
0.013975482
0.014092805
0.014216305
0.014346241
0.014482878
0.014626499
0.014777408
0.014935915
0.015102336
0.015276954
0.012500004
0.012486582
0.012475951
0.012468006
0.012462632
0.012459731
0.012459224
0.012461048
0.01246516
0.012471535
0.01248016
0.01249104
0.012504193
0.012519648
0.012537446
0.012557638
0.012580283
0.012605449
0.012633212
0.012663654
0.012696863
0.012732934
0.012771963
0.01281404
0.012859322
0.012907901
0.012959902
0.013015453
0.013074691
0.013137757
0.013204802
0.01327598
0.013351455
0.013431397
0.013515985
0.013605406
0.013699854
0.013799535
0.013904661
0.014015457
0.014132155
0.014255
0.014384248
0.014520166
0.014663035
0.014813159
0.014970848
0.015136418
0.015310154
0.012542553
0.012529828
0.012519839
0.012512481
0.012507644
0.012505235
0.012505175
0.012507408
0.012511891
0.012518601
0.012527529
0.01253868
0.012552072
0.012567736
0.012585714
0.012606056
0.012628821
0.012654078
0.012681902
0.012712374
0.012745583
0.012781622
0.012820589
0.012862571
0.012907725
0.012956145
0.013007952
0.013063277
0.013122255
0.013185028
0.013251746
0.013322562
0.013397642
0.013477156
0.013561281
0.013650205
0.013744124
0.013843241
0.01394777
0.014057935
0.014173968
0.014296116
0.014424632
0.014559785
0.014701854
0.014851143
0.015007962
0.015172627
0.015345424
0.012587641
0.012575652
0.012566341
0.012559604
0.012555337
0.012553448
0.012553864
0.012556531
0.01256141
0.012568479
0.01257773
0.012589171
0.01260282
0.012618709
0.01263688
0.012657384
0.012680281
0.012705637
0.012733529
0.012764036
0.012797247
0.012833256
0.012872159
0.012914043
0.012959064
0.013007316
0.01305892
0.013114007
0.01317271
0.013235173
0.013301544
0.013371979
0.01344664
0.013525699
0.013609333
0.013697731
0.013791087
0.013889605
0.0139935
0.014102994
0.014218322
0.014339728
0.014467467
0.014601807
0.014743026
0.014891428
0.015047323
0.015211026
0.015382827
0.01263534
0.012624126
0.012615528
0.012609447
0.012605781
0.012604443
0.012605365
0.012608493
0.012613792
0.012621242
0.012630839
0.012642589
0.012656514
0.012672645
0.012691024
0.012711703
0.012734742
0.012760207
0.012788173
0.012818721
0.012851937
0.012887917
0.012926755
0.012968536
0.013013419
0.013061495
0.013112886
0.013167722
0.013226136
0.013288272
0.013354277
0.013424307
0.013498525
0.013577103
0.013660217
0.013748057
0.013840816
0.0139387
0.014041922
0.014150705
0.014265285
0.014385904
0.014512818
0.014646295
0.014786613
0.014934073
0.015088988
0.015251673
0.015422417
0.012685711
0.01267531
0.012667462
0.012662072
0.01265904
0.012658284
0.012659739
0.012663355
0.0126691
0.012676956
0.01268692
0.012699
0.012713219
0.012729609
0.012748212
0.01276908
0.012792272
0.012817855
0.012845903
0.012876497
0.012909723
0.012945673
0.012984446
0.013026121
0.01307086
0.013118752
0.01316992
0.013224492
0.013282602
0.013344392
0.013410011
0.013479614
0.013553365
0.013631433
0.013713998
0.013801247
0.013893375
0.013990586
0.014093096
0.014201127
0.014314913
0.014434699
0.01456074
0.014693302
0.014832666
0.01497913
0.015133007
0.015294613
0.015464239
0.012738803
0.012729254
0.012722193
0.012717527
0.012715162
0.012715019
0.012717036
0.012721168
0.012727385
0.012735671
0.012746025
0.012758457
0.012772989
0.012789655
0.012808497
0.012829568
0.012852925
0.012878636
0.012906774
0.012937419
0.012970657
0.01300658
0.013045286
0.013086853
0.013131442
0.013179142
0.013230075
0.01328437
0.01334216
0.013403588
0.0134688
0.013537953
0.01361121
0.013688741
0.013770726
0.013857351
0.013948812
0.014045313
0.01414707
0.014254305
0.014367253
0.014486158
0.014611275
0.014742871
0.014881226
0.015026636
0.015179417
0.015339882
0.015508328
0.012794652
0.012785992
0.012779754
0.012775846
0.01277418
0.01277468
0.012777289
0.012781965
0.01278868
0.012797421
0.012808187
0.012820991
0.012835857
0.012852817
0.012871914
0.012893201
0.012916736
0.012942585
0.012970821
0.013001523
0.013034777
0.013070674
0.013109312
0.013150767
0.0131952
0.0132427
0.013293389
0.013347393
0.013404848
0.013465893
0.013530678
0.013599358
0.013672095
0.013749061
0.013830434
0.013916401
0.014007159
0.014102912
0.014203874
0.01431027
0.014422332
0.014540307
0.01466445
0.014795026
0.014932316
0.015076615
0.015228239
0.015387503
0.015554703
0.012853275
0.01284554
0.012840159
0.012837043
0.012836107
0.012837281
0.012840511
0.012845758
0.012852997
0.012862216
0.012873418
0.012886616
0.012901834
0.012919106
0.012938476
0.012959993
0.012983717
0.013009714
0.013038056
0.013068822
0.013102096
0.013137969
0.013176537
0.013217877
0.013262148
0.01330944
0.013359873
0.013413574
0.013470677
0.013531323
0.013595659
0.013663842
0.013736033
0.013812404
0.013893134
0.013978409
0.014068427
0.014163392
0.014263517
0.014369029
0.01448016
0.014597156
0.014720272
0.014849774
0.014985944
0.015129072
0.015279479
0.015437477
0.015603368
0.012914666
0.012907891
0.012903401
0.012901108
0.012900933
0.01290281
0.012906689
0.012912533
0.012920321
0.012930044
0.012941705
0.012955318
0.012970908
0.01298851
0.013008166
0.013029929
0.013053855
0.01308001
0.013108467
0.013139301
0.013172599
0.013208448
0.013246946
0.013288168
0.013332272
0.013379347
0.013429514
0.013482898
0.013539633
0.013599861
0.013663727
0.013731389
0.013803008
0.013878756
0.01395881
0.01404336
0.014132601
0.014226737
0.014325985
0.014430568
0.01454072
0.014656687
0.014778724
0.014907099
0.01504209
0.01518399
0.015333118
0.015489789
0.015654304
0.012978794
0.012973011
0.012969442
0.012968002
0.012968617
0.012971225
0.01297578
0.012982248
0.01299061
0.01300086
0.013013001
0.01302705
0.013043031
0.01306098
0.01308094
0.013102961
0.013127102
0.013153425
0.013182004
0.013212914
0.013246238
0.013282066
0.013320492
0.013361592
0.013405523
0.013452374
0.013502263
0.013555317
0.013611669
0.01367146
0.013734836
0.013801953
0.013872974
0.013948069
0.014027417
0.014111207
0.014199634
0.014292904
0.014391231
0.014494841
0.014603967
0.014718856
0.014839762
0.014966954
0.015100711
0.015241325
0.015389113
0.015544393
0.015707468
0.013045594
0.013040831
0.013038212
0.013037653
0.013039085
0.013042451
0.013047707
0.013054823
0.013063783
0.013074581
0.013087224
0.013101728
0.01311812
0.013136433
0.013156711
0.013179005
0.013203371
0.013229873
0.013258581
0.013289571
0.013322926
0.013358733
0.013397087
0.013438062
0.013481815
0.013528432
0.013578033
0.013630744
0.013686698
0.013746033
0.013808899
0.013875448
0.013945845
0.014020259
0.01409887
0.014181866
0.014269444
0.014361808
0.014459174
0.014561767
0.014669821
0.014783583
0.014903308
0.015029264
0.015161731
0.015301001
0.01544739
0.015601218
0.015762787
0.013114962
0.013111246
0.013109601
0.013109948
0.013112222
0.013116368
0.013122349
0.013130136
0.013139715
0.013151083
0.013164247
0.013179226
0.013196044
0.013214738
0.013235349
0.013257927
0.013282529
0.013309219