/*--------------------------------*- C++ -*----------------------------------*\
| =========                 |                                                 |
| \\      /  F ield         | OpenFOAM: The Open Source CFD Toolbox           |
|  \\    /   O peration     | Version:  2312                                  |
|   \\  /    A nd           | Website:  www.openfoam.com                      |
|    \\/     M anipulation  |                                                 |
\*---------------------------------------------------------------------------*/
FoamFile
{
    version     2.0;
    format      ascii;
    arch        "LSB;label=32;scalar=64";
    class       volScalarField;
    location    "0.02";
    object      k;
}
// * * * * * * * * * * * * * * * * * * * * * * * * * * * * * * * * * * * * * //

dimensions      [0 2 -2 0 0 0 0];

internalField   nonuniform List<scalar> 
3251
(
8.9766479
8.8767426
8.7843156
8.6991124
8.6208641
8.5492989
8.4841444
8.4251293
8.3719853
8.3244483
8.2822598
8.2451673
8.2129253
8.1852955
8.162047
8.1429563
8.1278072
8.1163908
8.1085045
8.1039525
8.1025442
8.1040834
8.1084043
8.1153347
8.124693
8.1363083
8.1500118
8.1656363
8.1830153
8.2019833
8.2223746
8.2440239
8.2667659
8.2904351
8.3148664
8.3398952
8.3653583
8.3910938
8.4169428
8.44275
8.4683646
8.4936421
8.5184454
8.5426461
8.5661267
8.5887812
8.6105174
8.631258
8.6509419
8.6695259
8.6869849
8.7032874
8.7184189
8.7324586
8.7454927
8.7576145
8.7689325
8.7795832
8.9761987
8.87629
8.783858
8.6986514
8.6203992
8.5488294
8.4836695
8.4246483
8.3714975
8.3239533
8.281757
8.2446563
8.2124058
8.1847671
8.1615095
8.1424095
8.1272511
8.1158252
8.1079296
8.1033682
8.1019508
8.1034811
8.1077931
8.1147151
8.1240653
8.1356729
8.1493692
8.1649869
8.1823597
8.201322
8.2217083
8.2433532
8.2660915
8.2897577
8.3141868
8.3392142
8.3646765
8.3904121
8.4162621
8.4420709
8.467688
8.4929688
8.5177761
8.5419816
8.5654674
8.5881278
8.6098701
8.630617
8.650307
8.6688967
8.6863596
8.702669
8.7178247
8.7318929
8.7449525
8.7570954
8.7684285
8.7790924
8.9753423
8.875442
8.7830155
8.6978143
8.6195662
8.5479989
8.4828399
8.4238181
8.3706653
8.3231178
8.2809171
8.2438109
8.2115539
8.183908
8.1606425
8.1415339
8.1263664
8.114931
8.1070256
8.1024542
8.1010267
8.1025468
8.1068488
8.113761
8.1231017
8.1347001
8.1483876
8.163997
8.1813622
8.2003176
8.2206977
8.2423373
8.2650711
8.2887339
8.3131604
8.3381864
8.3636484
8.3893848
8.4152367
8.4410487
8.4666702
8.4919566
8.5167707
8.5409841
8.564479
8.5871493
8.6089025
8.6296609
8.6493631
8.6679651
8.6854394
8.7017659
8.7169518
8.7310542
8.7441473
8.7563203
8.7676776
8.7783684
8.9740806
8.8741997
8.7817891
8.6966021
8.6183659
8.5468079
8.4816558
8.4226387
8.3694884
8.3219414
8.2797394
8.2426303
8.2103688
8.1827171
8.1594445
8.1403278
8.1251513
8.1137062
8.1057905
8.1012083
8.0997697
8.1012786
8.1055691
8.11247
8.1217996
8.1333872
8.1470644
8.1626642
8.1800203
8.1989674
8.2193401
8.2409734
8.2637019
8.2873606
8.3117843
8.3368088
8.3622708
8.3880087
8.4138637
8.4396803
8.465308
8.4906023
8.5154258
8.5396504
8.563158
8.5858425
8.6076113
8.6283866
8.6481069
8.6667279
8.6842221
8.7005745
8.7157967
8.7299397
8.7430742
8.7552864
8.7666789
8.7774144
8.9724135
8.8725632
8.7801789
8.6950149
8.6167985
8.5452569
8.4801178
8.4211107
8.3679675
8.3204248
8.2782246
8.2411151
8.2088512
8.1811951
8.1579165
8.1387923
8.123607
8.112152
8.1042254
8.0996316
8.0981809
8.0996774
8.1039552
8.1108434
8.1201604
8.1317357
8.1454011
8.1609895
8.1783352
8.1972727
8.2176369
8.2392628
8.2619853
8.2856393
8.31006
8.335083
8.3605453
8.3862854
8.4121444
8.4379671
8.4636029
8.4889073
8.5137432
8.5379821
8.561506
8.5842089
8.6059981
8.6267957
8.6465401
8.6651869
8.6827092
8.6990956
8.7143605
8.728551
8.7417347
8.753995
8.7654328
8.9704597
8.8706491
8.7782992
8.6931656
8.6149753
8.5434557
8.4783349
8.4193422
8.3662101
8.3186752
8.2764799
8.2393725
8.2071082
8.1794494
8.1561661
8.1370355
8.1218421
8.1103776
8.1024404
8.0978351
8.096372
8.0978558
8.1021204
8.1089953
8.118299
8.1298613
8.1435141
8.1590906
8.176425
8.1953523
8.2157073
8.2373254
8.2600414
8.2836906
8.3081081
8.3331299
8.3585928
8.3843356
8.4101995
8.4360293
8.4616745
8.4869907
8.5118407
8.5360961
8.559639
8.5823633
8.6041761
8.6249997
8.6447724
8.66345
8.681006
8.6974318
8.7127434
8.7269852
8.7402227
8.7525363
8.7640236
8.9682774
8.8685138
8.776205
8.6911075
8.6129484
8.5414556
8.476357
8.4173823
8.3642644
8.3167401
8.274552
8.2374486
8.2051856
8.1775256
8.1542386
8.1351023
8.1199013
8.1084278
8.1004801
8.0958632
8.0943877
8.0958585
8.1001094
8.1069705
8.1162604
8.1278092
8.1414488
8.1570127
8.1743354
8.1932518
8.2135973
8.2352071
8.2579164
8.2815605
8.3059749
8.3309954
8.3564592
8.3822051
8.4080745
8.4339122
8.4595678
8.4848971
8.5097627
8.5340365
8.5576003
8.5803482
8.6021874
8.62304
8.6428444
8.6615565
8.6791506
8.6956198
8.7109812
8.7252776
8.7385726
8.7509437
8.7624914
8.9656952
8.8659896
8.7737319
8.6886791
8.6105591
8.5390996
8.4740292
8.4150777
8.3619783
8.3144682
8.2722903
8.2351934
8.2029335
8.1752735
8.1519837
8.1328421
8.1176337
8.1061507
8.098192
8.0935626
8.0920736
8.0935301
8.097766
8.1046118
8.1138864
8.1254199
8.1390448
8.1545946
8.171904
8.1908084
8.2111431
8.2327436
8.2554454
8.2790839
8.3034947
8.328514
8.3539791
8.3797288
8.4056046
8.4314517
8.4571197
8.4824642
8.5073482
8.5316435
8.555232
8.5780077
8.5998779
8.6207646
8.6406065
8.6593597
8.6769989
8.6935187
8.708937
8.7232956
8.7366563
8.7490954
8.7607215
8.9626838
8.863048
8.770852
8.6858534
8.6077806
8.5363619
8.4713261
8.4124033
8.3593272
8.3118353
8.2696708
8.2325831
8.2003283
8.1726697
8.1493782
8.1302317
8.1150159
8.1035232
8.0955528
8.0909101
8.0894064
8.0908473
8.0950666
8.1018956
8.1111532
8.1226699
8.1362782
8.1518123
8.1691069
8.1879977
8.2083203
8.2299105
8.2526038
8.2762361
8.3006431
8.3256612
8.3511279
8.3768821
8.4027656
8.4286236
8.4543059
8.4796681
8.5045735
8.5288937
8.5525109
8.5753188
8.5972249
8.6181514
8.6380369
8.6568378
8.6745294
8.6911075
8.7065905
8.7210192
8.7344544
8.7469739
8.959212
8.8596588
8.7675359
8.6826017
8.6045852
8.5332152
8.4682208
8.4093328
8.3562851
8.3088157
8.2666682
8.2295925
8.197345
8.1696895
8.1463971
8.1272465
8.1120234
8.1005207
8.092538
8.087881
8.0863615
8.0877854
8.0919866
8.098797
8.1080357
8.1195337
8.1331238
8.1486404
8.1659186
8.1847942
8.2051034
8.226682
8.2493661
8.2729915
8.2973943
8.3224112
8.3478798
8.3736393
8.3995317
8.4254022
8.4511009
8.4764836
8.5014134
8.5257622
8.5494121
8.5722571
8.5942046
8.6151767
8.6351123
8.653968
8.6717197
8.688364
8.7039196
8.7184269
8.7319457
8.7445586
8.9552473
8.8557903
8.7637527
8.6788938
8.6009433
8.5296306
8.4646851
8.4058384
8.3528246
8.3053824
8.2632558
8.2261951
8.1939573
8.1663066
8.1430147
8.1238605
8.1086302
8.0971173
8.0891216
8.0844494
8.0829127
8.0843182
8.0884996
8.0952896
8.1045077
8.1159851
8.129555
8.1450522
8.1623122
8.1811711
8.2014653
8.2230311
8.2457049
8.2693227
8.293721
8.3187367
8.3442076
8.3699733
8.3958758
8.4217606
8.447478
8.4728838
8.4978414
8.5222227
8.5459099
8.568797
8.5907913
8.6118154
8.631808
8.6507259
8.6685456
8.6852643
8.7009012
8.7154959
8.7291081
8.9507551
8.8514088
8.7594698
8.6746979
8.5968239
8.5255776
8.4606892
8.4018907
8.3489168
8.3015068
8.2594053
8.222363
8.1901376
8.1624937
8.1392035
8.1200464
8.1048092
8.0932858
8.0852765
8.0805881
8.0790329
8.0804184
8.0845782
8.091346
8.1005414
8.1119962
8.1255439
8.1410197
8.1582595
8.1770999
8.1973776
8.2189294
8.2415917
8.2652012
8.2895946
8.314609
8.3400826
8.3658553
8.3917693
8.4176703
8.4434087
8.4688407
8.4938296
8.5182475
8.5419767
8.5649113
8.5869586
8.6080412
8.628098
8.647086
8.664982
8.6817837
8.6975105
8.712202
8.7259202
8.9456989
8.8464789
8.7546526
8.6699805
8.5921942
8.5210243
8.4562017
8.3974589
8.3445315
8.2971592
8.2550873
8.2180671
8.1858569
8.1582219
8.1349348
8.1157757
8.1005319
8.0889977
8.0809741
8.0762684
8.0746935
8.0760573
8.0801937
8.0869372
8.0961079
8.1075378
8.1210611
8.1365134
8.1537311
8.1725511
8.1928107
8.2143469
8.2369967
8.260597
8.284985
8.3099982
8.3354749
8.3612555
8.3871823
8.4131015
8.4388635
8.4643247
8.4893487
8.5138076
8.5375839
8.5605716
8.5826783
8.6038265
8.6239552
8.6430215
8.6610022
8.6778956
8.6937215
8.708521
8.9400404
8.8409636
8.749265
8.6647063
8.5870198
8.515937
8.4511896
8.3925108
8.3396368
8.2923081
8.2502707
8.2132766
8.1810847
8.1534609
8.1301786
8.1110184
8.0957683
8.0842232
8.0761847
8.0714606
8.0698645
8.071205
8.075316
8.0820331
8.0911768
8.1025796
8.1160762
8.1315027
8.1486961
8.1674938
8.1877334
8.2092524
8.2318884
8.2554788
8.2798609
8.3048727
8.330353
8.3561424
8.3820836
8.4080229
8.4338112
8.459305
8.484368
8.5088726
8.5327013
8.5557482
8.577921
8.5991422
8.6193508
8.638504
8.6565784
8.6735722
8.6895068
8.7044296
8.9337392
8.8348234
8.743269
8.6588382
8.5812646
8.5102804
8.4456183
8.3870122
8.3341992
8.2869206
8.2449231
8.2079594
8.1757893
8.1481793
8.1249034
8.1057432
8.0904872
8.0789311
8.070877
8.0661334
8.0645146
8.06583
8.0699137
8.0766021
8.0857164
8.0970896
8.1105572
8.1259555
8.1431223
8.1618955
8.1821132
8.2036135
8.2262344
8.2498137
8.2741894
8.2991998
8.3246841
8.3504832
8.3764403
8.402402
8.4282194
8.4537493
8.4788555
8.5034107
8.5272973
8.5504098
8.5726558
8.5939579
8.614255
8.6335039
8.6516811
8.6687844
8.6848379
8.9267529
8.8280175
8.7366246
8.6523374
8.5748906
8.5040176
8.4394516
8.3809278
8.328184
8.2809623
8.2390104
8.2020819
8.1699372
8.1423438
8.1190765
8.0999175
8.0846561
8.0730888
8.0650185
8.0602543
8.0586113
8.0598998
8.0639539
8.0706114
8.0796937
8.0910349
8.1044707
8.1198384
8.1369761
8.1557225
8.1759163
8.1973961
8.2200004
8.2435677
8.2679363
8.2929452
8.3184339
8.3442438
8.3702184
8.3962047
8.4220542
8.4476237
8.4727776
8.4973885
8.5213391
8.5445239
8.5668506
8.5882417
8.6086362
8.6279904
8.6462799
8.6635017
8.6796877
8.919037
8.8205025
8.7292899
8.6451632
8.5678583
8.4971096
8.4326516
8.3742203
8.3215545
8.2743973
8.2324973
8.1956091
8.1634939
8.1359201
8.1126635
8.093507
8.078241
8.0666625
8.0585753
8.0537895
8.0521207
8.0533803
8.0574026
8.0640266
8.0730745
8.0843808
8.0977822
8.1131165
8.1302226
8.1489398
8.1691074
8.1905648
8.2131511
8.2367052
8.2610661
8.2860732
8.3115667
8.3373884
8.3633822
8.3893955
8.4152801
8.4408932
8.4660993
8.4907713
8.5147921
8.5380562
8.5604715
8.5819604
8.6024618
8.6219312
8.6403427
8.6576931
8.910545
8.8122335
8.7212212
8.6372729
8.5601261
8.4895161
8.4251787
8.3668509
8.3142726
8.267188
8.2253467
8.1885043
8.1564231
8.1288724
8.1056289
8.0864765
8.0712065
8.0596169
8.0515123
8.0467037
8.0450075
8.0462363
8.0502244
8.0568125
8.0658231
8.0770918
8.0904558
8.1057538
8.1228256
8.141511
8.1616501
8.1830831
8.2056496
8.2291892
8.2535417
8.2785469
8.3040456
8.32988
8.3558947
8.3819375
8.4078603
8.433521
8.4587842
8.483523
8.5076205
8.5309714
8.5534835
8.5750793
8.5956975
8.6152926
8.6338368
8.6513314
8.9012281
8.8031631
8.7123726
8.6286222
8.5516507
8.4811949
8.4169916
8.3587792
8.3062986
8.2592954
8.2175202
8.1807296
8.1486872
8.1211633
8.0979357
8.0787892
8.0635161
8.0519155
8.043793
8.0389605
8.0372353
8.0384311
8.0423827
8.0489321
8.0579026
8.0691306
8.0824542
8.0977131
8.1147475
8.1333984
8.1535066
8.1749129
8.1974578
8.2209817
8.2453248
8.2703278
8.295832
8.3216803
8.3477176
8.3737923
8.3997568
8.4254693
8.4507946
8.4756061
8.4997871
8.5232324
8.5458499
8.5675623
8.5883078
8.60804
8.6267278
8.6443834
8.8910354
8.7932422
8.7026965
8.6191647
8.5423871
8.4721019
8.4080474
8.3499631
8.2975914
8.250679
8.2089778
8.1722457
8.1402474
8.1127544
8.0895455
8.070407
8.0551319
8.0435206
8.0353798
8.0305222
8.0287663
8.0299272
8.0338397
8.0403476
8.049275
8.0604591
8.0737392
8.0889556
8.1059496
8.1245631
8.1446377
8.166015
8.1885364
8.212043
8.2363758
8.2613763
8.2868863
8.3127494
8.3388112
8.3649204
8.39093
8.4166985
8.4420911
8.4669815
8.4912531
8.5148009
8.5375327
8.5593715
8.5802558
8.6001378
8.6189826
8.636814
8.8799143
8.7824194
8.6921431
8.6088521
8.5322884
8.4621916
8.3983015
8.3403591
8.2881081
8.2412968
8.1996782
8.1630117
8.1310632
8.1036056
8.0804189
8.0612905
8.0460148
8.0343932
8.0262336
8.0213499
8.0195618
8.0206856
8.0245564
8.03102
8.0399011
8.0510381
8.0642711
8.0794417
8.0963922
8.1149651
8.1350032
8.156349
8.1788448
8.2023325
8.226654
8.2516515
8.2771675
8.3030464
8.3291344
8.3552808
8.381339
8.407168
8.4326333
8.457609
8.4819786
8.5056371
8.5284925
8.550468
8.5715028
8.5915494
8.6105679
8.86781
8.7706415
8.680661
8.5976346
8.5213059
8.4514166
8.3877077
8.3299219
8.2778046
8.2311053
8.1895787
8.1529856
8.1210933
8.0936759
8.0705151
8.0513994
8.0361246
8.0244933
8.0163146
8.0114038
8.0095818
8.0106663
8.0144928
8.020909
8.0297406
8.040827
8.0540095
8.0691308
8.0860342
8.1045633
8.1245619
8.1458736
8.1683415
8.1918085
8.2161175
8.2411113
8.2666336
8.2925293
8.3186452
8.3448313
8.3709418
8.3968358
8.4223795
8.447447
8.4719222
8.4957
8.5186884
8.5408108
8.5620088
8.5822397
8.6014607
8.8546659
8.7578532
8.6681968
8.5854603
8.5093896
8.4397279
8.3762184
8.3186051
8.2666352
8.2200598
8.1786354
8.142124
8.1102947
8.0829231
8.0597922
8.040692
8.0254198
8.0137796
8.0055818
8.000643
7.9987855
7.9998284
8.003608
8.0099737
8.0187523
8.0297846
8.042913
8.0579812
8.0748338
8.0933156
8.1132716
8.1345462
8.1569838
8.1804282
8.2047233
8.2297129
8.2552414
8.2811546
8.3073003
8.3335289
8.3596951
8.3856589
8.4112867
8.4364528
8.4610414
8.4849474
8.5080784
8.5303581
8.5517326
8.8404241
8.7439979
8.6546954
8.5722759
8.4964874
8.4270753
8.3637843
8.3063606
8.254553
8.2081144
8.1668029
8.1303825
8.0986236
8.0713037
8.0482073
8.0291259
8.0138584
8.0022102
7.9939933
7.9890257
7.9871311
7.9881304
7.9918602
7.9981723
8.0068945
8.0178689
8.0309392
8.0459505
8.0627485
8.0811794
8.1010892
8.1223237
8.1447283
8.168148
8.1924277
8.2174121
8.2429469
8.2688785
8.2950555
8.3213292
8.347555
8.3735932
8.3993109
8.4245827
8.4492927
8.4733359
8.4966195
8.5190681
8.8250238
8.7290178
8.6401002
8.5580264
8.4825462
8.4134068
8.3503551
8.2931392
8.2415099
8.1952219
8.1540352
8.1177156
8.0860354
8.0587737
8.0357167
8.0166578
8.0013974
7.9897425
7.9815067
7.9765096
7.9745763
7.9755298
7.9792071
7.9854623
7.9941245
8.0050371
8.0180453
8.0329956
8.0497351
8.0681111
8.0879712
8.1091623
8.131531
8.1549237
8.1791862
8.2041646
8.2297053
8.2556559
8.2818659
8.3081873
8.3344763
8.3605938
8.3864073
8.4117918
8.4366316
8.4608214
8.4842681
8.5069045
8.9111957
8.8083936
8.7128513
8.6243529
8.5426556
8.4675112
8.3986695
8.3358792
8.2788907
8.2274567
8.1813342
8.1402851
8.104077
8.0724843
8.045288
8.022276
8.0032437
7.987993
7.976333
7.9680787
7.9630516
7.9610783
7.9619839
7.9656059
7.9718009
7.9803994
7.9912463
8.0041883
8.0190733
8.03575
8.0540671
8.0738735
8.0950176
8.1173475
8.1407105
8.164954
8.1899251
8.2154714
8.2414416
8.2676859
8.2940576
8.3204134
8.346615
8.3725303
8.3980347
8.4230128
8.4473589
8.4709788
8.4938146
8.8927188
8.790475
8.6954369
8.6073938
8.5261056
8.4513268
8.3828092
8.320304
8.2635638
8.2123437
8.1664026
8.1255047
8.0894198
8.0579243
8.0308011
8.0078404
7.9888392
7.9736015
7.9619381
7.9536661
7.9486086
7.9465941
7.9474496
7.9510137
7.9571452
7.9656762
7.9764533
7.9893247
8.00414
8.0207494
8.0390033
8.058752
8.0798455
8.102133
8.1254637
8.149686
8.1746483
8.2001996
8.2261896
8.2524698
8.2788941
8.3053203
8.3316106
8.3576338
8.3832656
8.4083906
8.4329032
8.4567087
8.479755
8.8728488
8.7712044
8.6767121
8.5891624
8.5083181
8.4339362
8.365771
8.3035762
8.2471067
8.1961201
8.1503776
8.1096458
8.0736967
8.0423089
8.0152674
7.9923647
7.9733997
7.9581786
7.9465142
7.9382254
7.9331374
7.9310805
7.9318841
7.9353874
7.9414522
7.9499119
7.960615
7.9734114
7.9881524
8.0046899
8.0228761
8.0425627
8.0636014
8.0858432
8.1091384
8.133337
8.158289
8.1838445
8.2098545
8.2361715
8.2626507
8.2891506
8.3155345
8.3416715
8.367438
8.3927189
8.4174086
8.4414126
8.4646817
8.8515134
8.7505158
8.6566131
8.5695973
8.4892338
8.4152822
8.3474994
8.2856419
8.2294671
8.1787351
8.1332097
8.0926599
8.0568602
8.0255914
7.9986411
7.9758037
7.9568808
7.9416804
7.9300176
7.9217135
7.9165951
7.914495
7.9152448
7.9186847
7.9246794
7.933064
7.9436887
7.9564055
7.9710675
7.9875284
8.005642
8.0252621
8.0462418
8.0684338
8.0916902
8.1158626
8.1408023
8.1663608
8.1923906
8.2187454
8.2452815
8.2718584
8.2983404
8.3245971
8.3505057
8.3759515
8.4008289
8.4250442
8.4485493
8.8286416
8.728342
8.6350758
8.5486367
8.468793
8.3953071
8.3279388
8.2664473
8.2105927
8.1601378
8.1148493
8.0744986
8.0388629
8.0077256
7.9808766
7.958113
7.9392384
7.9240634
7.9124054
7.9040876
7.8989393
7.8967953
7.8974897
7.9008638
7.9067851
7.9150907
7.9256328
7.9382654
7.9528434
7.9692226
7.9872588
8.0068074
8.0277236
8.0498618
8.0730758
8.0972188
8.1221439
8.1477041
8.1737532
8.2001464
8.2267411
8.2533981
8.2799824
8.3063648
8.3324227
8.3580421
8.383118
8.407557
8.4313115
8.8041637
8.704616
8.6120357
8.5262187
8.4469362
8.3739536
8.3070337
8.2459385
8.1904314
8.1402778
8.0952473
8.0551141
8.0196583
7.9886657
7.9619293
7.9392483
7.9204292
7.905285
7.8936354
7.8853061
7.8801288
7.8779405
7.8785781
7.8818839
7.8877288
7.8959516
7.9064067
7.9189502
7.9334393
7.9497317
7.9676852
7.9871573
8.0080052
8.0300851
8.0532527
8.077363
8.1022709
8.127831
8.1538986
8.1803305
8.2069853
8.2337251
8.2604158
8.2869292
8.3131436
8.3389453
8.36423
8.3889049
8.4129222
8.7780102
8.6792712
8.587429
8.5022819
8.4236043
8.3511647
8.2847291
8.2240627
8.1689318
8.1191052
8.0743553
8.0344595
7.9992005
7.9683673
7.9417554
7.9191671
7.9004114
7.8853039
7.873667
7.8653289
7.8601239
7.8578913
7.8584709
7.8617062
7.8674716
7.8756078
7.8859715
7.8984212
7.9128162
7.9290164
7.9468819
7.9662722
7.9870466
8.0090635
8.0321804
8.0562545
8.0811421
8.1066999
8.1327849
8.1592553
8.1859713
8.2127961
8.239597
8.2662465
8.292624
8.3186165
8.34412
8.3690425
8.3933358
8.7501127
8.652242
8.5611928
8.476766
8.3987393
8.3268846
8.2609713
8.200768
8.1460441
8.0965718
8.0521266
8.0124892
7.9774453
7.9467871
7.920313
7.8978282
7.8791446
7.8640806
7.8524613
7.8441177
7.8388866
7.83661
7.8371308
7.8402938
7.8459767
7.8540227
7.8642908
7.8766418
7.8909374
7.9070401
7.9248119
7.9441149
7.9648105
7.9867592
8.0098209
8.0338544
8.0587185
8.0842715
8.1103722
8.1368805
8.1636582
8.1905699
8.2174841
8.2442747
8.2708215
8.2970126
8.3227446
8.347926
8.3725082
8.7204045
8.6234645
8.5332658
8.4496122
8.3722849
8.3010594
8.2357086
8.1760044
8.1217201
8.072631
8.0285163
7.9891598
7.9543508
7.9238844
7.8975623
7.8751929
7.8565909
7.841578
7.8299819
7.8216366
7.8163818
7.8140621
7.8145235
7.8176125
7.8232104
7.8311626
7.8413307
7.8535782
7.8677693
7.8837687
7.9014412
7.9206512
7.9412623
7.9631375
7.9861388
8.0101274
8.034964
8.0605091
8.0866234
8.1131685
8.140008
8.1670079
8.1940382
8.2209738
8.2476958
8.2740929
8.3000624
8.3255134
8.3503968
8.6888216
8.5928774
8.5035895
8.4207645
8.3441875
8.2736376
8.2088914
8.1497246
8.0959142
8.0472391
8.0034821
7.9644306
7.9298773
7.8996209
7.8734663
7.8512251
7.8327154
7.8177619
7.8061955
7.7978531
7.7925773
7.7902158
7.7906179
7.7936317
7.7991421
7.8069971
7.8170613
7.8292005
7.8432817
7.8591722
7.8767395
7.8958503
7.9163711
7.938167
7.9611025
7.9850413
8.0098462
8.0353798
8.0615049
8.0880852
8.1149859
8.1420748
8.1692232
8.1963074
8.2232096
8.2498193
8.2760347
8.3017654
8.3269617
8.6553033
8.5604229
8.4721086
8.3901703
8.3143966
8.244571
8.1804737
8.1218845
8.0685841
8.0203555
7.9769852
7.9382643
7.9039891
7.8739621
7.8479916
7.8258927
7.8074869
7.7926021
7.7810725
7.7727383
7.7674452
7.7650438
7.7653869
7.7683245
7.7737454
7.7815003
7.7914565
7.8034827
7.8174487
7.8332247
7.8506807
7.8696863
7.8901105
7.9118211
7.9346851
7.9585686
7.983337
8.008855
8.0349877
8.0616008
8.0885615
8.1157393
8.1430072
8.1702427
8.1973294
8.2241577
8.2506265
8.2766461
8.3021662
8.6197939
8.5260477
8.4387725
8.3577811
8.2828664
8.2138158
8.1504138
8.0924443
8.0396921
7.9919441
7.948991
7.9106277
7.8766546
7.8468777
7.8211092
7.7991677
7.7808784
7.7660727
7.7545881
7.7462682
7.7409619
7.7385231
7.7388082
7.7416694
7.7469992
7.7546511
7.7644955
7.7764043
7.7902499
7.8059056
7.8232443
7.8421383
7.8624594
7.8840783
7.9068647
7.9306871
7.9554136
7.9809113
8.0070477
8.0336907
8.0607093
8.0879752
8.115363
8.1427518
8.1700264
8.1970782
8.223807
8.2501238
8.2759777
8.5822435
8.4897047
8.4035362
8.3235543
8.2495563
8.1813337
8.1186754
8.0613696
8.0092053
7.9619739
7.9194701
7.8814932
7.8478473
7.8183426
7.7927953
7.7710277
7.7528687
7.7381533
7.7267228
7.7184241
7.7131097
7.7106368
7.7108655
7.7136503
7.7188877
7.7264344
7.7361637
7.7479505
7.7616708
7.7772005
7.7944156
7.8131916
7.833403
7.8549236
7.8776257
7.9013809
7.9260596
7.9515318
7.9776672
8.0043362
8.0314101
8.0587624
8.0862697
8.1138126
8.1412774
8.1685566
8.195551
8.2221722
8.2483687
8.5426097
8.4513536
8.3663619
8.2874543
8.2144326
8.1470928
8.0852285
8.0286322
7.9770975
7.9304203
7.8883996
7.8508391
7.8175472
7.7883383
7.7630326
7.7414564
7.7234426
7.70883
7.6974636
7.689194
7.6838773
7.6813743
7.6815489
7.6842582
7.6894025
7.6968419
7.706453
7.718114
7.7317039
7.747102
7.7641875
7.7828388
7.8029338
7.8243491
7.8469601
7.8706412
7.8952658
7.9207064
7.9468356
7.9735261
8.0006516
8.0280877
8.055713
8.0834099
8.111066
8.1385753
8.1658395
8.192771
8.2193179
8.5008594
8.4109633
8.3272202
8.2494537
8.1774699
8.1110697
8.0500513
7.994212
7.9433502
7.8972662
7.855764
7.8186515
7.7857417
7.7568534
7.731811
7.710445
7.6925925
7.6780962
7.666805
7.6585734
7.6532612
7.6507329
7.6508564
7.6534915
7.6585428
7.6658734
7.6753637
7.6868951
7.70035
7.7156111
7.7325609
7.751081
7.7710526
7.7923555
7.8148681
7.838468
7.8630315
7.8884341
7.914551
7.9412575
7.96843
7.9959463
8.023687
8.0515364
8.0793839
8.1071247
8.1346616
8.1619078
8.1888111
8.4569703
8.3685133
8.2860925
8.2095352
8.1386525
8.0732502
8.0131312
7.958098
7.9079537
7.8625037
7.8215566
7.784925
7.7524269
7.7238853
7.6991292
7.6779935
7.6603195
7.6459541
7.6347503
7.6265665
7.6212665
7.6187186
7.6187949
7.6213581
7.6263168
7.6335379
7.6429051
7.6543036
7.6676193
7.6827382
7.6995463
7.7179287
7.7377699
7.7589529
7.7813597
7.8048708
7.8293658
7.8547231
7.8808209
7.9075373
7.9347512
7.9623429
7.9901953
8.0181947
8.0462321
8.0742043
8.1020152
8.1295791
8.1568433
8.4109335
8.3239958
8.2429721
8.1676936
8.0979765
8.0336316
7.9744669
7.9202901
7.8709094
7.8261352
7.7857811
7.7496648
7.717609
7.6894415
7.6649959
7.6441117
7.6266345
7.6124158
7.6013126
7.5931876
7.5879085
7.5853477
7.5853814
7.5878757
7.5927432
7.5998545
7.6090972
7.62036
7.6335325
7.6485043
7.6651649
7.6834032
7.703107
7.7241627
7.7464559
7.7698703
7.7942888
7.8195931
7.8456643
7.8723834
7.8996322
7.9272936
7.9552527
7.983398
8.0116223
8.0398242
8.0679089
8.0957915
8.1234193
8.3627552
8.2774178
8.1978668
8.1239376
8.0554514
7.9922243
7.9340698
7.8808007
7.8322306
7.7881752
7.7484532
7.7128876
7.6813059
7.653541
7.6294312
7.6088209
7.5915601
7.5775048
7.5665165
7.5584622
7.5532137
7.5506476
7.5506443
7.5530736
7.557852
7.5648542
7.5739715
7.5850964
7.5981222
7.6129425
7.6294503
7.6475381
7.6670975
7.6880185
7.7101901
7.7334996
7.7578333
7.7830761
7.8091125
7.8358265
7.8631027
7.8908267
7.9188862
7.947172
7.9755789
8.0040072
8.0323635
8.060564
8.0885559
8.3124597
8.2288038
8.1508013
8.078292
8.0111025
7.9490543
7.8919664
7.839657
7.7919453
7.7486524
7.7096025
7.6746238
7.643549
7.6162161
7.5924685
7.5721554
7.5551315
7.5412576
7.5303995
7.5224288
7.5172217
7.5146589
7.5146252
7.5169943
7.5216867
7.5285811
7.5375727
7.5485582
7.5614346
7.5760993
7.5924493
7.6103807
7.6297889
7.6505677
7.6726097
7.6958059
7.720046
7.7452186
7.7712112
7.7979113
7.8252064
7.852985
7.8811374
7.9095569
7.9381403
7.9667898
7.9954137
8.0239293
8.0522839
8.260092
8.1781981
8.1018194
8.0308005
7.9649733
7.904165
7.8482001
7.7969026
7.7500975
7.7076113
7.669274
7.634919
7.6043846
7.577514
7.5541558
7.5341641
7.5173987
7.5037249
7.4930135
7.4851404
7.4799864
7.4774365
7.4773799
7.4796948
7.4843049
7.4910938
7.4999606
7.5108058
7.5235307
7.5380364
7.554224
7.5719934
7.591244
7.6118733
7.6337777
7.6568521
7.6809897
7.7060826
7.7320221
7.7586987
7.7860033
7.8138273
7.8420639
7.8706087
7.8993611
7.9282249
7.9571103
7.985936
8.0146493
8.2057209
8.1256679
8.0509872
7.981528
7.9171279
7.8576197
7.8028339
7.7526004
7.7067498
7.6651147
7.6275305
7.5938365
7.5638765
7.537499
7.514558
7.4949127
7.4784279
7.464974
7.4544265
7.446666
7.4415777
7.4390514
7.4389805
7.4412479
7.4457808
7.4524673
7.4612108
7.471916
7.4844879
7.4988321
7.5148533
7.5324557
7.5515425
7.5720153
7.5937744
7.6167183
7.6407443
7.665748
7.6916244
7.7182675
7.7455713
7.7734306
7.8017413
7.8304018
7.8593138
7.8883833
7.917522
7.9466507
7.9757172
8.1494418
8.0713064
7.9983957
7.9305637
7.8676538
7.8095048
7.7559531
7.7068346
7.6619859
7.6212455
7.5844549
7.551459
7.5221074
7.496254
7.4737584
7.454485
7.4383038
7.4250902
7.4147247
7.4070925
7.4020837
7.3995925
7.3995169
7.4017445
7.4062062
7.4127946
7.4214174
7.4319835
7.4444021
7.4585828
7.4744345
7.4918656
7.5107831
7.5310928
7.5526989
7.5755041
7.5994093
7.6243141
7.6501171
7.6767159
7.7040081
7.7318916
7.7602653
7.7890306
7.8180914
7.847356
7.8767382
7.9061606
7.9355741
8.091381
8.0152362
7.9441641
7.878024
7.816665
7.759932
7.7076674
7.6597134
7.6159127
7.57611
7.5401525
7.5078913
7.4791817
7.4538834
7.4318614
7.4129856
7.3971313
7.384179
7.3740141
7.3665268
7.361612
7.3591684
7.3590987
7.3612953
7.3656927
7.3721883
7.3806941
7.3911231
7.403389
7.4174053
7.4330853
7.4503414
7.4690849
7.4892255
7.5106717
7.5333299
7.5571054
7.5819015
7.6076207
7.6341642
7.6614333
7.6893291
7.717754
7.7466119
7.7758095
7.8052574
7.8348718
7.8645783
8.0316987
7.9576126
7.8884436
7.8240561
7.7643051
7.7090417
7.6581147
7.6113723
7.5686637
7.5298396
7.4947535
7.4632626
7.4352278
7.410515
7.3889945
7.3705419
7.3550379
7.342368
7.3324228
7.3250976
7.320292
7.3179094
7.317857
7.3200323
7.3243735
7.3307828
7.3391763
7.3494715
7.3615863
7.3754384
7.3909455
7.408024
7.4265894
7.4465558
7.4678356
7.4903395
7.5139766
7.5386545
7.5642794
7.5907565
7.6179906
7.6458865
7.6743496
7.7032872
7.7326087
7.7622277
7.7920659
7.9705934
7.898628
7.8314207
7.7688412
7.7107507
7.6570064
7.6074634
7.5619766
7.5204012
7.4825944
7.4484159
7.4177289
7.3904006
7.3663024
7.3453106
7.3273064
7.3121756
7.2998094
7.2901034
7.2829578
7.278277
7.2759694
7.2759468
7.2781115
7.2824056
7.2887359
7.2970231
7.3071889
7.3191555
7.3328449
7.3481789
7.3650783
7.3834629
7.4032508
7.4243586
7.4467014
7.4701923
7.4947428
7.5202633
7.5466628
7.57385
7.6017332
7.6302214
7.659225
7.6886568
7.718435
7.9083062
7.8385154
7.7733212
7.7125986
7.656215
7.6040338
7.5559168
7.511725
7.4713202
7.4345659
7.4013283
7.3714766
7.3448841
7.3214282
7.3009909
7.2834591
7.2687242
7.2566824
7.2472347
7.2402863
7.2357465
7.2335285
7.2335484
7.2357145
7.2399715
7.2462315
7.2544195
7.2644615
7.276284
7.2898134
7.3049757
7.3216959
7.3398979
7.3595043
7.3804358
7.4026116
7.4259491
7.4503639
7.4757703
7.5020816
7.5292099
7.5570676
7.5855673
7.6146229
7.6441519
7.6740865
7.8451254
7.7775536
7.7144149
7.6555899
7.6009521
7.5503713
7.5037157
7.4608529
7.4216512
7.3859804
7.3537131
7.3247247
7.2988946
7.2761063
7.2562475
7.2392107
7.2248928
7.2131955
7.2040249
7.1972911
7.1929085
7.1907949
7.190871
7.1930507
7.1972817
7.203481
7.2115782
7.2215034
7.2331874
7.246561
7.2615542
7.2780965
7.2961159
7.3155391
7.3362913
7.3582956
7.3814737
7.4057453
7.4310289
7.4572416
7.4842998
7.5121193
7.5406165
7.5697091
7.5993178
7.6293799
7.7813915
7.7160711
7.6550195
7.5981228
7.5452606
7.4963092
7.4511432
7.4096366
7.3716642
7.3371025
7.3058301
7.2777288
7.2526842
7.2305855
7.2113264
7.194805
7.1809238
7.1695897
7.1607138
7.1542116
7.1500021
7.148008
7.148154
7.1503604
7.1545771
7.1607265
7.1687422
7.178559
7.1901116
7.203335
7.2181636
7.2345309
7.2523692
7.2716093
7.2921806
7.3140105
7.3370246
7.3611471
7.3863002
7.4124052
7.4393823
7.4671514
7.4956324
7.5247463
7.5544175
7.5845853
7.7175027
7.6544523
7.5955065
7.5405569
7.4894892
7.442186
7.3985284
7.358397
7.3216728
7.2882388
7.25798
7.2307843
7.2065434
7.1851525
7.166511
7.1505226
7.1370952
7.126141
7.1175763
7.1113215
7.1073004
7.1054404
7.1056704
7.1079167
7.1121316
7.1182426
7.1261876
7.1359054
7.1473351
7.1604158
7.1750858
7.1912829
7.2089434
7.2280025
7.2483933
7.2700476
7.2928951
7.3168639
7.3418805
7.36787
7.3947565
7.4224638
7.4509154
7.4800358
7.5097524
7.540007
7.653921
7.5931426
7.536306
7.4833081
7.4340407
7.3883928
7.3462517
7.3075044
7.2720383
7.2397427
7.2105087
7.1842307
7.160806
7.1401359
7.1221254
7.1066838
7.0937242
7.0831642
7.0749251
7.0689319
7.0651134
7.0634015
7.0637291
7.0660289
7.0702549
7.0763399
7.0842258
7.0938555
7.1051723
7.1181191
7.1326385
7.1486721
7.1661604
7.1850424
7.2052554
7.2267351
7.2494153
7.2732282
7.298104
7.323972
7.3507601
7.3783957
7.4068061
7.435919
7.4656651
7.4959884
7.5911788
7.5326553
7.4779134
7.4268554
7.3793792
7.3353795
7.29475
7.2573839
7.223175
7.1920186
7.1638121
7.1384558
7.1158529
7.0959104
7.078539
7.0636531
7.0511715
7.0410165
7.0331143
7.027395
7.0237917
7.0222408
7.0226791
7.0250453
7.0292956
7.0353673
7.0432067
7.0527604
7.0639757
7.0767995
7.091178
7.107057
7.1243806
7.1430919
7.1631321
7.1844407
7.2069555
7.2306124
7.2553458
7.2810886
7.3077726
7.3353287
7.3636877
7.392781
7.422542
7.4529168
7.5298871
7.4735791
7.4208969
7.371748
7.3260357
7.2836609
7.244523
7.2085215
7.1755561
7.1455282
7.1183412
7.0939012
7.0721171
7.0529016
7.0361705
7.0218438
7.009845
7.0001016
6.9925444
6.987108
6.9837302
6.9823515
6.9829122
6.9853575
6.9896448
6.9957164
7.0035224
7.0130132
7.0241398
7.0368528
7.0511022
7.0668375
7.0840065
7.102556
7.1224309
7.1435746
7.1659286
7.1894325
7.2140244
7.239641
7.2662177
7.293689
7.3219894
7.3510532
7.3808171
7.41123
7.4707441
7.4165873
7.3659063
7.3186134
7.2746174
7.2338248
7.1961409
7.1614708
7.1297203
7.1007966
7.0746088
7.0510684
7.0300901
7.0115916
6.9954942
6.9817228
6.9702056
6.9608749
6.9536661
6.9485181
6.9453728
6.944175
6.9448683
6.9474039
6.9517404
6.9578249
6.9656109
6.9750526
6.9861044
6.9987205
7.0128545
7.0284591
7.0454859
7.0638851
7.0836053
7.1045931
7.1267938
7.1501507
7.1746052
7.2000977
7.226567
7.2539513
7.2821884
7.3112162
7.3409754
7.4145481
7.3624497
7.3136842
7.2681687
7.2258172