/*--------------------------------*- C++ -*----------------------------------*\
| =========                 |                                                 |
| \\      /  F ield         | OpenFOAM: The Open Source CFD Toolbox           |
|  \\    /   O peration     | Version:  2312                                  |
|   \\  /    A nd           | Website:  www.openfoam.com                      |
|    \\/     M anipulation  |                                                 |
\*---------------------------------------------------------------------------*/
FoamFile
{
    version     2.0;
    format      ascii;
    arch        "LSB;label=32;scalar=64";
    class       volScalarField;
    location    "0.02";
    object      nut;
}
// * * * * * * * * * * * * * * * * * * * * * * * * * * * * * * * * * * * * * //

dimensions      [0 2 -1 0 0 0 0];

internalField   nonuniform List<scalar> 
3251
(
0.027813527
0.027758857
0.027709134
0.027664043
0.027623292
0.027586623
0.027553818
0.027524694
0.027499102
0.027476923
0.027458066
0.027442462
0.027430057
0.027420816
0.027414709
0.027411712
0.027411806
0.027414968
0.027421173
0.027430388
0.027442574
0.027457644
0.027475592
0.027496364
0.027519852
0.027545967
0.027574608
0.027605666
0.02763902
0.027674544
0.027712103
0.027751557
0.02779276
0.027835566
0.027879825
0.027925388
0.02797211
0.02801985
0.028068473
0.028117854
0.028167882
0.028218456
0.028269497
0.028320959
0.02837281
0.028425029
0.028477623
0.028530626
0.028584105
0.02863816
0.028692924
0.028748576
0.028805357
0.028863487
0.028923219
0.028984869
0.029048786
0.029115344
0.027812777
0.027758079
0.027708327
0.027663212
0.027622437
0.027585745
0.027552916
0.027523768
0.027498152
0.027475949
0.027457069
0.027441441
0.027429013
0.027419749
0.02741362
0.027410602
0.027410675
0.027413816
0.027420001
0.027429197
0.027441364
0.027456418
0.027474349
0.027495106
0.02751858
0.027544682
0.027573311
0.027604358
0.027637703
0.027673219
0.027710772
0.027750221
0.027791421
0.027834225
0.027878484
0.027924049
0.027970775
0.02801852
0.02806715
0.02811654
0.028166578
0.028217165
0.028268219
0.028319697
0.028371566
0.028423805
0.028476419
0.028529445
0.028582949
0.028637032
0.028691826
0.028747511
0.028804313
0.028862459
0.028922214
0.028983889
0.029047837
0.029114439
0.027811432
0.027756704
0.027706918
0.027661773
0.027620968
0.027584244
0.027551384
0.027522205
0.027496557
0.027474323
0.027455411
0.027439752
0.027427294
0.027418
0.027411841
0.027408794
0.027408839
0.027411953
0.027418111
0.027427282
0.027439425
0.027454456
0.027472365
0.0274931
0.027516555
0.027542639
0.027571252
0.027602284
0.027635616
0.027671121
0.027708664
0.027748105
0.0277893
0.0278321
0.027876358
0.027921923
0.027968651
0.028016401
0.028065038
0.028114438
0.028164488
0.028215089
0.02826616
0.028317658
0.028369547
0.02842181
0.028474451
0.028527506
0.028581041
0.028635157
0.028689988
0.028745711
0.028802542
0.028860717
0.028920502
0.028982212
0.029046199
0.029112844
0.027809497
0.027754735
0.027704911
0.027659729
0.027618886
0.027582124
0.027549225
0.027520006
0.027494319
0.027472046
0.027453095
0.027437397
0.0274249
0.027415568
0.027409372
0.027406289
0.027406299
0.027409379
0.027415504
0.027424643
0.027436755
0.027451757
0.027469638
0.027490347
0.027513778
0.027539839
0.02756843
0.027599443
0.027632758
0.027668247
0.027705777
0.027745208
0.027786394
0.027829189
0.027873442
0.027919007
0.027965737
0.028013492
0.028062137
0.028111547
0.02816161
0.028212227
0.028263318
0.028314837
0.028366752
0.028419043
0.028471715
0.028524804
0.028578377
0.028632533
0.028687407
0.028743173
0.028800044
0.028858257
0.028918083
0.028979837
0.029043869
0.029110549
0.027806972
0.027752171
0.027702304
0.027657079
0.027616192
0.027579385
0.02754644
0.027517174
0.027491439
0.027469118
0.02745012
0.027434375
0.027421833
0.027412455
0.027406215
0.027403088
0.027403056
0.027406095
0.02741218
0.02742128
0.027433356
0.027448322
0.02746617
0.027486847
0.027510248
0.027536281
0.027564846
0.027595835
0.027629129
0.027664599
0.027702113
0.027741529
0.027782705
0.027825491
0.02786974
0.027915302
0.027962034
0.028009793
0.028058445
0.028107867
0.028157944
0.02820858
0.028259692
0.028311237
0.028363181
0.028415504
0.028468213
0.028521342
0.028574958
0.02862916
0.028684083
0.0287399
0.028796819
0.02885508
0.028914956
0.028976762
0.02904085
0.027804034
0.027749193
0.027699282
0.02765401
0.027613075
0.027576219
0.027543223
0.027513906
0.027488119
0.027465746
0.027446696
0.0274309
0.027418306
0.027408879
0.02740259
0.027399415
0.027399336
0.02740233
0.027408371
0.027417429
0.027429465
0.027444393
0.027462203
0.027482845
0.027506212
0.027532214
0.027560751
0.027591714
0.027624983
0.027660432
0.027697927
0.027737328
0.02777849
0.027821267
0.027865509
0.027911068
0.0279578
0.028005563
0.028054223
0.028103656
0.028153749
0.028204403
0.028255539
0.02830711
0.028359085
0.028411443
0.02846419
0.028517362
0.028571024
0.028625276
0.028680251
0.028736122
0.028793095
0.028851409
0.028911341
0.028973204
0.029037364
0.027800768
0.027745886
0.027695929
0.027650609
0.027609623
0.027572714
0.027539663
0.027510291
0.027484449
0.02746202
0.027442914
0.027427063
0.027414415
0.027404934
0.027398592
0.027395367
0.027395238
0.027398183
0.027404178
0.02741319
0.027425182
0.027440069
0.027457839
0.027478444
0.027501775
0.027527744
0.02755625
0.027587183
0.027620426
0.027655852
0.027693327
0.02773271
0.027773858
0.027816623
0.027860858
0.027906413
0.027953145
0.028000911
0.028049578
0.028099023
0.028149131
0.028199805
0.028250965
0.028302564
0.028354571
0.028406966
0.028459754
0.02851297
0.028566681
0.028620985
0.028676016
0.028731944
0.028788974
0.028847347
0.028907337
0.028969263
0.02903349
0.027796917
0.027741989
0.027691982
0.027646607
0.027605563
0.027568594
0.027535482
0.027506047
0.027480141
0.027457648
0.027438479
0.027422564
0.027409855
0.027400313
0.027393911
0.027390627
0.027390441
0.027393331
0.027399272
0.027408232
0.027420175
0.027435014
0.027452738
0.027473299
0.02749659
0.02752252
0.02755099
0.02758189
0.027615103
0.027650502
0.027687952
0.027727315
0.027768446
0.027811198
0.027855424
0.027900974
0.027947704
0.027995474
0.028044149
0.028093606
0.028143731
0.028194427
0.028245613
0.028297244
0.028349287
0.028401723
0.028454557
0.028507824
0.028561589
0.028615952
0.028671046
0.028727038
0.028784135
0.028842574
0.028902632
0.028964626
0.029028917
0.027792437
0.02773746
0.027687396
0.02764196
0.027600852
0.027563815
0.027530633
0.027501127
0.027475149
0.027452584
0.027433343
0.027417357
0.027404577
0.027394965
0.027388495
0.027385145
0.027384894
0.027387722
0.027393602
0.027402504
0.02741439
0.027429175
0.027446847
0.027467359
0.027490603
0.027516489
0.027544918
0.027575781
0.027608959
0.027644327
0.02768175
0.027721089
0.0277622
0.027804937
0.027849151
0.027894695
0.027941423
0.027989196
0.028037879
0.02808735
0.028137494
0.028188214
0.028239429
0.028291095
0.028343179
0.02839566
0.028448545
0.028501868
0.028555695
0.028610125
0.028665288
0.028721354
0.028778525
0.02883704
0.028897176
0.028959246
0.027787284
0.027732253
0.027682127
0.027636623
0.027595442
0.02755833
0.02752507
0.027495484
0.027469425
0.027446779
0.027427457
0.02741139
0.027398531
0.027388841
0.027382295
0.02737887
0.027378547
0.027381303
0.027387115
0.027395951
0.027407773
0.027422498
0.027440111
0.027460568
0.027483759
0.027509596
0.027537978
0.027568798
0.027601937
0.027637269
0.027674661
0.027713973
0.027755062
0.02779778
0.027841981
0.027887517
0.027934243
0.027982019
0.028030711
0.028080195
0.02813036
0.028181106
0.028232354
0.028284058
0.028336187
0.028388719
0.028441661
0.028495048
0.028548943
0.028603446
0.028658688
0.028714836
0.028772092
0.028830693
0.028890916
0.028953078
0.027781411
0.02772632
0.027676126
0.027630547
0.027589286
0.027552089
0.027518742
0.027489067
0.027462918
0.027440182
0.027420769
0.027404612
0.027391664
0.027381887
0.027375256
0.027371747
0.027371343
0.02737402
0.027379756
0.027388518
0.027400269
0.027414926
0.027432473
0.027452867
0.027475999
0.02750178
0.027530111
0.027560883
0.027593978
0.027629269
0.027666625
0.027705907
0.027746969
0.027789667
0.027833853
0.02787938
0.027926102
0.02797388
0.028022581
0.028072081
0.028122268
0.028173043
0.028224327
0.028276074
0.028328252
0.028380841
0.028433846
0.028487302
0.028541274
0.028595859
0.028651188
0.028707427
0.028764778
0.028823476
0.028883799
0.027774767
0.027719611
0.027669343
0.027623681
0.027582331
0.027545041
0.027511598
0.027481823
0.027455574
0.027432737
0.027413224
0.027396968
0.027383921
0.027374047
0.02736732
0.027363719
0.027363224
0.027365814
0.027371465
0.027380144
0.027391816
0.027406398
0.027423871
0.027444196
0.027467262
0.027492981
0.027521254
0.027551971
0.027585017
0.027620264
0.02765758
0.027696826
0.027737859
0.027780534
0.027824702
0.027870218
0.027916935
0.027964716
0.028013426
0.028062943
0.028113154
0.028163961
0.028215283
0.028267077
0.028319309
0.02837196
0.028425035
0.028478568
0.028532625
0.028587301
0.028642727
0.028699068
0.028756523
0.028815331
0.02887577
0.027767299
0.027712073
0.027661723
0.027615971
0.027574524
0.027537131
0.027503581
0.027473697
0.027447338
0.027424389
0.027404764
0.027388398
0.027375242
0.027365262
0.02735843
0.027354726
0.027354131
0.027356624
0.02736218
0.027370769
0.027382353
0.027396851
0.027414243
0.027434491
0.027457484
0.027483134
0.027511342
0.027541999
0.027574989
0.027610186
0.027647457
0.027686665
0.027727665
0.027770313
0.027814461
0.027859964
0.027906676
0.027954458
0.028003178
0.028052713
0.028102949
0.028153791
0.028205156
0.028257001
0.028309293
0.028362012
0.028415163
0.028468781
0.02852293
0.028577707
0.02863324
0.028689694
0.028747267
0.028806196
0.027758953
0.02770365
0.027653211
0.02760736
0.027565806
0.027528301
0.027494634
0.027464631
0.027438149
0.027415078
0.027395331
0.027378844
0.027365568
0.027355469
0.027348522
0.027344705
0.027344
0.027346386
0.027351838
0.027360327
0.027371814
0.027386219
0.027403522
0.027423685
0.027446597
0.02747217
0.027500307
0.027530898
0.027563826
0.027598967
0.027636189
0.027675352
0.027716316
0.027758934
0.02780306
0.027848547
0.027895252
0.027943036
0.027991767
0.02804132
0.028091584
0.028142463
0.028193874
0.028245775
0.028298132
0.028350925
0.02840416
0.028457871
0.028512122
0.028567009
0.028622661
0.028679239
0.028736942
0.028796011
0.02774967
0.027694284
0.027643749
0.02759779
0.02755612
0.027518492
0.027484697
0.027454562
0.027427948
0.027404742
0.027384861
0.027368241
0.027354833
0.027344605
0.027337531
0.02733359
0.027332765
0.027335033
0.027340372
0.02734875
0.027360131
0.027374435
0.027391639
0.027411708
0.027434531
0.027460021
0.027488078
0.027518595
0.027551456
0.027586535
0.027623702
0.027662817
0.02770374
0.027746324
0.027790424
0.027835895
0.027882592
0.027930376
0.027979117
0.02802869
0.028078984
0.028129903
0.028181365
0.028233325
0.028285753
0.028338628
0.028391955
0.028445767
0.02850013
0.028555138
0.028610919
0.028667635
0.028725481
0.027739388
0.027683913
0.027633274
0.027587198
0.027545402
0.02750764
0.027473705
0.027443428
0.027416668
0.027393316
0.027373289
0.027356523
0.027342972
0.027332603
0.02732539
0.027321314
0.027320356
0.027322496
0.02732771
0.027335969
0.027347233
0.027361426
0.027378522
0.027398489
0.027421214
0.027446611
0.027474582
0.027505018
0.027537804
0.027572816
0.027609921
0.027648983
0.027689859
0.027732407
0.027776478
0.027821929
0.027868616
0.027916401
0.027965152
0.028014746
0.028065073
0.028116034
0.028167551
0.028219577
0.028272081
0.028325044
0.02837847
0.028432393
0.028486877
0.028542017
0.028597941
0.028654809
0.028712816
0.027728044
0.027672473
0.027621721
0.02757552
0.027533586
0.027495679
0.027461594
0.027431161
0.027404243
0.027380732
0.027360546
0.027343622
0.027329915
0.027319392
0.027312028
0.027307805
0.027306703
0.027308704
0.027313782
0.027321909
0.027333047
0.027347118
0.027364097
0.027383951
0.02740657
0.027431866
0.027459742
0.027490089
0.027522794
0.02755773
0.027594768
0.027633771
0.027674597
0.027717103
0.027761143
0.027806571
0.027853247
0.027901031
0.027949793
0.027999409
0.02804977
0.028100777
0.028152352
0.028204448
0.028257036
0.028310094
0.028363628
0.028417671
0.028472286
0.02852757
0.02858365
0.028640686
0.027715571
0.027659897
0.027609024
0.027562686
0.027520605
0.027482541
0.027448292
0.027417691
0.027390602
0.027366919
0.027346561
0.027329465
0.027315589
0.027304899
0.027297372
0.027292989
0.027291732
0.02729358
0.027298512
0.027306496
0.027317496
0.027331435
0.027348286
0.027368018
0.027390521
0.027415707
0.027443478
0.027473729
0.027506344
0.027541198
0.027578163
0.0276171
0.027657871
0.027700331
0.027744335
0.027789739
0.027836401
0.027884183
0.027932955
0.027982595
0.028032991
0.028084048
0.028135686
0.028187858
0.028240535
0.028293696
0.028347346
0.028401518
0.028456277
0.028511717
0.028567966
0.028625193
0.027701897
0.027646113
0.027595111
0.027548627
0.027506388
0.027468155
0.02743373
0.027402947
0.027375673
0.027351804
0.027331259
0.027313979
0.02729992
0.02728905
0.027281346
0.02727679
0.027275364
0.027277049
0.027281821
0.027289651
0.027300502
0.027314297
0.027331009
0.027350609
0.027372985
0.027398051
0.02742571
0.027455855
0.027488372
0.027523137
0.027560021
0.027598887
0.027639596
0.027682005
0.02772597
0.027771346
0.027817992
0.027865772
0.027914554
0.027964218
0.028014653
0.028065762
0.028117466
0.02816972
0.028222492
0.028275764
0.028329539
0.028383851
0.028438763
0.028494371
0.028550805
0.028608233
0.02768695
0.027631048
0.027579908
0.027533269
0.027490859
0.027452445
0.02741783
0.027386852
0.02735938
0.027335311
0.027314566
0.027297086
0.02728283
0.027271766
0.027263872
0.02725913
0.027257522
0.02725903
0.02726363
0.027271293
0.027281982
0.027295623
0.027312184
0.027331641
0.02735388
0.027378816
0.027406352
0.027436383
0.027468793
0.027503461
0.027540256
0.027579045
0.027619686
0.027662039
0.02770596
0.027751305
0.027797933
0.027845708
0.027894501
0.027944189
0.027994664
0.028045829
0.028097604
0.028149945
0.02820282
0.02825621
0.02831012
0.028364581
0.028419658
0.028475447
0.028532077
0.028589717
0.027670654
0.027614626
0.027563339
0.027516533
0.027473941
0.027435334
0.027400516
0.02736933
0.027341645
0.027317361
0.027296401
0.027278707
0.027264239
0.027252967
0.027244869
0.027239926
0.027238123
0.02723944
0.027243855
0.027251338
0.027261854
0.027275328
0.027291727
0.027311029
0.02733312
0.027357916
0.027385319
0.027415225
0.02744752
0.027482082
0.027518781
0.027557484
0.027598052
0.027640343
0.027684215
0.027729525
0.027776133
0.027823902
0.027872704
0.027922418
0.027972934
0.028024158
0.028076009
0.028128441
0.028181426
0.028234943
0.028288997
0.028343618
0.028398871
0.028454853
0.028511695
0.027652929
0.027596766
0.027545324
0.027498342
0.027455556
0.027416742
0.027381708
0.027350298
0.027322386
0.027297872
0.027276682
0.02725876
0.027244066
0.02723257
0.027224253
0.027219096
0.027217083
0.027218196
0.027222412
0.027229703
0.027240032
0.027253327
0.027269551
0.027288686
0.027310618
0.027335262
0.027362522
0.027392293
0.027424463
0.027458909
0.027495504
0.027534115
0.027574602
0.027616826
0.027660644
0.027705914
0.027752498
0.027800259
0.02784907
0.027898809
0.027949369
0.028000655
0.028052586
0.028105116
0.028158218
0.02821187
0.028266076
0.028320868
0.028376309
0.028432498
0.028489575
0.027633694
0.027577387
0.027525781
0.027478611
0.02743562
0.027396586
0.027361322
0.027329674
0.027301519
0.027276761
0.027255326
0.02723716
0.027222224
0.027210491
0.027201939
0.027196553
0.027194316
0.027195211
0.027199215
0.0272063
0.027216429
0.027229531
0.027245568
0.027264524
0.027286284
0.027310765
0.02733787
0.027367496
0.027399531
0.027433852
0.027470334
0.027508843
0.027549243
0.027591392
0.027635151
0.027680378
0.027726934
0.027774685
0.027823503
0.027873269
0.027923874
0.027975223
0.028027238
0.028079872
0.028133097
0.028186893
0.028241263
0.028296237
0.028351877
0.027612865
0.027556402
0.027504623
0.027457256
0.027414047
0.02737478
0.027339272
0.027307372
0.02727896
0.027253942
0.027232246
0.027213821
0.027198628
0.027186642
0.027177841
0.027172211
0.027169736
0.027170398
0.027174175
0.027181039
0.027190955
0.027203852
0.027219689
0.027238452
0.027260029
0.027284334
0.027311273
0.027340743
0.027372631
0.027406818
0.027443177
0.027481576
0.02752188
0.027563949
0.027607642
0.02765282
0.027699345
0.027747083
0.027795907
0.027845698
0.027896349
0.027947765
0.027999869
0.028052611
0.028105967
0.028159916
0.028214459
0.028269628
0.027590354
0.027533725
0.027481763
0.027434188
0.02739075
0.027351238
0.027315471
0.027283305
0.027254621
0.027229327
0.027207356
0.027188655
0.02717319
0.027160935
0.02715187
0.027145981
0.027143252
0.027143667
0.027147203
0.027153833
0.027163521
0.027176199
0.027191822
0.02721038
0.02723176
0.027255877
0.027282637
0.027311939
0.02734367
0.027377712
0.027413938
0.027452219
0.027492418
0.027534398
0.02757802
0.027623144
0.027669632
0.027717354
0.027766182
0.027815998
0.027866696
0.027918181
0.027970377
0.028023233
0.028076727
0.028130837
0.028185565
0.028240947
0.02762773
0.027566047
0.027509262
0.027457111
0.027409317
0.027365639
0.027325868
0.02728983
0.027257382
0.027228411
0.027202827
0.027180564
0.027161573
0.02714582
0.027133281
0.027123936
0.027117773
0.027114776
0.027114928
0.027118209
0.02712459
0.027134037
0.027146481
0.027161876
0.027180216
0.027201385
0.027225302
0.027251871
0.027280993
0.027312555
0.02734644
0.027382524
0.027420676
0.027460762
0.027502645
0.027546188
0.027591251
0.027637699
0.0276854
0.027734229
0.02778407
0.027834815
0.027886371
0.027938662
0.027991637
0.028045275
0.028099554
0.028154477
0.028210082
0.027601655
0.027539864
0.02748292
0.027430572
0.02738255
0.02733862
0.027298578
0.027262255
0.027229512
0.027200239
0.02717435
0.02715178
0.027132484
0.027116428
0.027103589
0.02709395
0.027087497
0.027084217
0.027084093
0.027087103
0.027093221
0.027102411
0.027114608
0.027129761
0.027147869
0.027168815
0.027192517
0.027218882
0.02724781
0.027279192
0.027312909
0.027348838
0.027386851
0.027426815
0.027468593
0.027512048
0.027557044
0.027603446
0.027651122
0.02769995
0.027749813
0.027800605
0.027852234
0.027904622
0.027957722
0.02801151
0.028065966
0.028121093
0.028176931
0.027573625
0.027511713
0.027454604
0.027402051
0.027353793
0.0273096
0.027269276
0.027232655
0.027199603
0.027170014
0.027143804
0.027120914
0.027101297
0.027084923
0.027071769
0.027061821
0.027055064
0.027051485
0.027051069
0.027053795
0.027059634
0.027068554
0.027080489
0.027095387
0.027113247
0.027133956
0.02715743
0.027183579
0.027212301
0.027243488
0.027277025
0.027312789
0.027350652
0.027390483
0.027432146
0.027475505
0.027520427
0.027566775
0.027614423
0.027663245
0.027713128
0.027763966
0.027815668
0.027868157
0.027921384
0.027975328
0.028029968
0.028085309
0.028141389
0.027543532
0.027481496
0.027424217
0.027371452
0.02732295
0.027278484
0.027237866
0.027200935
0.027167561
0.027137642
0.027111099
0.027087872
0.027067921
0.027051214
0.027037732
0.027027459
0.027020383
0.027016492
0.027015769
0.027018195
0.027023742
0.027032377
0.027044036
0.027058663
0.027076263
0.02709672
0.027119953
0.02714587
0.027174373
0.027205354
0.027238698
0.027274284
0.027311985
0.027351672
0.02739321
0.027436465
0.027481303
0.027527592
0.027575204
0.027624017
0.027673916
0.027724799
0.027776574
0.027829166
0.027882523
0.027936628
0.02799146
0.028047022
0.028103354
0.027511271
0.02744911
0.027391658
0.027338677
0.027289922
0.027245176
0.027204253
0.027167
0.027133293
0.027103031
0.027076141
0.027052565
0.027032265
0.027015211
0.027001386
0.026990775
0.026983367
0.026979149
0.026978106
0.026980218
0.026985458
0.026993793
0.027005162
0.027019505
0.027036829
0.027057021
0.027079997
0.02710567
0.027133939
0.0271647
0.027197838
0.027233233
0.02727076
0.027310291
0.027351693
0.027394834
0.02743958
0.027485802
0.027533372
0.027582169
0.027632082
0.027683007
0.027734854
0.027787549
0.02784104
0.02789531
0.027950339
0.02800613
0.028062724
0.027476739
0.027414456
0.027356828
0.027303627
0.027254614
0.027209578
0.027168342
0.027130757
0.027096705
0.027066089
0.02703884
0.027014902
0.02699424
0.026976827
0.026962646
0.026951684
0.026943929
0.02693937
0.026937993
0.026939778
0.026944698
0.026952719
0.026963784
0.026977827
0.026994863
0.027014774
0.02703748
0.027062893
0.027090915
0.027121442
0.02715436
0.027189551
0.027226891
0.027266254
0.027307509
0.027350524
0.027395169
0.027441314
0.027488835
0.027537611
0.027587532
0.027638496
0.027690414
0.027743212
0.027796838
0.027851277
0.027906508
0.027962536
0.028019399
0.027439831
0.027377429
0.027319627
0.027266203
0.027216926
0.027171595
0.027130038
0.027092113
0.027057705
0.027026726
0.026999106
0.026974796
0.02695376
0.026935976
0.026921427
0.0269101
0.026901987
0.026897075
0.026895351
0.026896795
0.026901381
0.026909075
0.026919821
0.026933552
0.026950284
0.0269699
0.026992322
0.027017461
0.027045222
0.027075499
0.027108183
0.027143156
0.027180297
0.027219479
0.027260574
0.027303453
0.027347985
0.027394044
0.027441507
0.027490255
0.027540178
0.027591176
0.027643163
0.027696063
0.027749824
0.027804433
0.027859871
0.027916141
0.027973282
0.027400445
0.027337929
0.027279954
0.027226306
0.027176763
0.027131131
0.027089247
0.027050975
0.027016204
0.026984852
0.026956852
0.026932159
0.026910741
0.026892575
0.026877646
0.026865945
0.026857461
0.026852185
0.026850102
0.026851193
0.026855432
0.026862786
0.026873201
0.026886605
0.026903019
0.026922327
0.02694445
0.0269693
0.026996784
0.027026799
0.027059234
0.027093975
0.027130902
0.027169889
0.027210812
0.027253541
0.027297949
0.027343912
0.027391307
0.027440018
0.027489936
0.027540964
0.027593014
0.027646014
0.027699909
0.027754691
0.027810338
0.027866855
0.02792428
0.027358479
0.027295855
0.02723771
0.027183839
0.027134029
0.027088095
0.02704588
0.027007254
0.026972115
0.026940383
0.026911996
0.026886913
0.026865103
0.026846546
0.02683123
0.026819144
0.02681028
0.026804628
0.026802175
0.026802902
0.026806783
0.026813785
0.026823855
0.02683692
0.026853003
0.026871988
0.026893797
0.026918345
0.026945538
0.026975274
0.027007446
0.02704194
0.027078637
0.027117416
0.027158152
0.027200719
0.027244991
0.027290845
0.027338162
0.027386826
0.027436732
0.027487781
0.027539889
0.027592985
0.027647014
0.027701967
0.027757824
0.027814592
0.027872306
0.027313832
0.027251109
0.0271928
0.02713871
0.027088634
0.027042397
0.026999849
0.026960868
0.026925356
0.026893239
0.02686446
0.026838981
0.026816773
0.026797818
0.026782106
0.026769628
0.026760376
0.02675434
0.026751508
0.02675186
0.026755372
0.026762011
0.026771725
0.026784438
0.026800177
0.026818825
0.026840307
0.026864538
0.026891424
0.026920867
0.026952761
0.026986992
0.027023446
0.027062001
0.027102535
0.027144925
0.027189047
0.02723478
0.027282007
0.027330614
0.027380496
0.02743156
0.027483719
0.027536906
0.027591064
0.027646186
0.027702254
0.027759274
0.027817281
0.027266407
0.027203596
0.027145132
0.027090828
0.02704049
0.026993952
0.026951072
0.026911735
0.026875849
0.026843346
0.026814172
0.026788293
0.026765683
0.026746327
0.026730214
0.026717338
0.026707691
0.026701264
0.026698044
0.026698014
0.026701148
0.026707413
0.02671676
0.02672911
0.026744492
0.026762792
0.026783933
0.026807832
0.026834398
0.026863532
0.026895131
0.026929085
0.026965279
0.027003595
0.027043912
0.02708611
0.027130068
0.027175666
0.027222788
0.027271326
0.027321175
0.027372241
0.027424444
0.027477713
0.027531997
0.027587284
0.027643561
0.027700832
0.027759135
0.027216111
0.027153225
0.027094617
0.027040108
0.026989516
0.026942682
0.026899474
0.026859784
0.026823526
0.026790637
0.026761069
0.026734789
0.026711776
0.026692016
0.0266755
0.026662222
0.026652176
0.026645353
0.026641741
0.026641321
0.026644069
0.026649952
0.026658923
0.026670899
0.026685914
0.026703852
0.026724639
0.026748192
0.026774423
0.026803235
0.026834524
0.026868184
0.026904102
0.026942162
0.026982246
0.027024237
0.027068014
0.027113461
0.027160466
0.02720892
0.027258722
0.027309781
0.027362016
0.02741536
0.027469761
0.027525207
0.027581689
0.02763921
0.027697807
0.027162859
0.027099916
0.027041177
0.026986475
0.026935638
0.026888517
0.026844988
0.02680495
0.026768326
0.026735055
0.026705096
0.026678419
0.026655004
0.026634841
0.026617922
0.026604242
0.026593795
0.026586574
0.026582565
0.026581751
0.026584107
0.026589601
0.026598188
0.026609781
0.026624418
0.026641984
0.026662405
0.0266856
0.026711481
0.026739954
0.026770919
0.026804269
0.026839894
0.026877682
0.026917517
0.026959282
0.027002862
0.027048143
0.027095013
0.027143368
0.02719311
0.027244147
0.027296402
0.02734981
0.027404319
0.027459917
0.027516596
0.027574363
0.027633253
0.027106574
0.027043592
0.026984739
0.02692986
0.026878792
0.026831396
0.026787557
0.026747182
0.026710199
0.026676555
0.026646212
0.026619143
0.026595332
0.026574771
0.026557452
0.026543372
0.026532526
0.026524906
0.026520499
0.026519289
0.026521249
0.02652635
0.026534546
0.026545749
0.026559999
0.026577182
0.026597225
0.02662005
0.026645569
0.026673689
0.026704313
0.026737337
0.026772654
0.026810152
0.026849719
0.026891242
0.026934607
0.026979703
0.027026422
0.027074662
0.027124326
0.027175327
0.027227588
0.027281046
0.027335651
0.02739139
0.027448259
0.027506264
0.027565441
0.027047189
0.026984191
0.026925246
0.026870208
0.026818925
0.02677127
0.026727136
0.026686438
0.02664911
0.026615105
0.026584388
0.026556938
0.02653274
0.026511788
0.026494076
0.026479602
0.026468361
0.026460345
0.026455543
0.026453936
0.0264555
0.026460204
0.026468005
0.026478812
0.026492669
0.02650946
0.026529116
0.026551557
0.026576701
0.026604455
0.026634724
0.026667406
0.026702396
0.026739587
0.026778869
0.02682013
0.026863262
0.026908154
0.026954704
0.02700281
0.027052379
0.027103326
0.027155577
0.02720907
0.027263758
0.027319625
0.027376672
0.027434906
0.027494361
0.026984652
0.026921665
0.026862651
0.026807477
0.026756002
0.026708108
0.026663698
0.026622694
0.026585038
0.026550688
0.026519613
0.026491796
0.026467224
0.026445893
0.026427799
0.02641294
0.026401312
0.026392907
0.026387713
0.026385713
0.026386882
0.026391189
0.026398593
0.026409
0.026422458
0.026438851
0.02645811
0.026480159
0.026504915
0.026532289
0.026562188
0.026594512
0.02662916
0.026666026
0.026705004
0.026745985
0.026788863
0.026833533
0.026879892
0.026927844
0.026977299
0.027028173
0.027080395
0.027133906
0.027188659
0.027244639
0.02730185
0.0273603
0.027420024
0.026918927
0.02685598
0.026796926
0.026741642
0.026690001
0.026641893
0.026597231
0.026555945
0.026517983
0.026483308
0.026451895
0.026423729
0.026398801
0.026377108
0.026358646
0.026343416
0.026331412
0.026322627
0.02631705
0.026314663
0.026315441
0.026319354
0.026326361
0.026336368
0.026349422
0.026365411
0.026384267
0.026405914
0.026430272
0.026457255
0.026486769
0.026518721
0.026553009
0.026589532
0.026628187
0.026668868
0.026711473
0.026755899
0.026802047
0.026849824
0.026899142
0.026949922
0.027002095
0.027055604
0.027110404
0.027166478
0.027223836
0.027282486
0.027342464
0.026849999
0.026787125
0.026728064
0.026672702
0.026620924
0.026572632
0.026527746
0.026486205
0.026447964
0.02641299
0.026381264
0.026352773
0.026327511
0.026305475
0.026286666
0.026271081
0.026258716
0.026249566
0.026243617
0.026240853
0.026241248
0.026244771
0.026251385
0.026260992
0.026273642
0.026289225
0.026307671
0.02632891
0.026352861
0.02637944
0.026408557
0.026440121
0.026474034
0.026510197
0.02654851
0.026588871
0.026631181
0.026675341
0.026721256
0.026768835
0.026817994
0.026868658
0.026920759
0.026974242
0.027029067
0.027085215
0.0271427
0.027201531
0.027261746
0.026777876
0.026715113
0.02665608
0.026600676
0.026548797
0.026500354
0.026455278
0.026413515
0.026375027
0.026339786
0.026307776
0.026278989
0.026253419
0.026231067
0.026211933
0.026196015
0.02618331
0.026173811
0.026167507
0.026164378
0.0261644
0.026167543
0.026173769
0.026182981
0.026195229
0.026210403
0.026228437
0.026249261
0.026272797
0.026298963
0.026327672
0.026358835
0.026392356
0.026428142
0.026466094
0.026506116
0.02654811
0.026591981
0.026637639
0.026684997
0.026733973
0.026784494
0.026836498
0.026889933
0.026944759
0.027000956
0.027058545
0.027117536
0.027177965
0.026702595
0.026639984
0.02658102
0.026525614
0.026473673
0.02642512
0.026379893
0.026337946
0.026299248
0.026263776
0.026231517
0.026202466
0.026176621
0.026153983
0.026134552
0.026118327
0.026105306
0.026095481
0.02608884
0.026085364
0.026085028
0.026087802
0.026093649
0.026102472
0.026114322
0.02612909
0.026146711
0.026167117
0.026190232
0.026215977
0.026244267
0.026275015
0.026308132
0.026343523
0.026381096
0.026420758
0.026462415
0.026505975
0.026551353
0.026598463
0.02664723
0.026697584
0.026749464
0.026802822
0.026857622
0.026913844
0.02697151
0.027030635
0.027091256
0.026624229
0.026561813
0.026502963
0.0264476
0.026395642
0.026347022
0.026301687
0.026259601
0.026220734
0.026185072
0.026152605
0.02612333
0.026097247
0.026074357
0.026054662
0.026038162
0.026024853
0.026014728
0.026007773
0.02600397
0.026003294
0.026005715
0.026011195
0.026019641
0.026031099
0.026045464
0.026062675
0.026082661
0.026105352
0.026130669
0.026158532
0.026188855
0.026221552
0.026256534
0.026293711
0.026332993
0.026374291
0.026417518
0.02646259
0.026509428
0.026557959
0.026608117
0.026659845
0.026713098
0.026767843
0.026824061
0.026881776
0.026941006
0.02700179
0.026542885
0.026480714
0.026422026
0.026366754
0.026314828
0.026266191
0.026220798
0.026178619
0.026139633
0.026103828
0.026071198
0.026041742
0.026015462
0.025992361
0.02597244
0.0259557
0.025942136
0.02593174
0.025924499
0.025920395
0.025919401
0.025921487
0.025926617
0.025934697
0.025945774
0.025959745
0.025976548
0.025996117
0.026018382
0.026043268
0.026070696
0.026100585
0.026132851
0.026167409
0.026204173
0.026243056
0.026283975
0.026326845
0.026371587
0.026418127
0.026466394
0.026516328
0.026567875
0.026620993
0.026675652
0.026731835
0.026789568
0.026848872
0.026909788
0.026458721
0.026396845
0.02633837
0.026283243
0.026231402
0.026182801
0.026137405
0.026095187
0.026056134
0.026020236
0.025987493
0.025957905
0.025931476
0.025908208
0.025888104
0.025871163
0.025857381
0.025846749
0.025839254
0.025834876