/*--------------------------------*- C++ -*----------------------------------*\
| =========                 |                                                 |
| \\      /  F ield         | OpenFOAM: The Open Source CFD Toolbox           |
|  \\    /   O peration     | Version:  2312                                  |
|   \\  /    A nd           | Website:  www.openfoam.com                      |
|    \\/     M anipulation  |                                                 |
\*---------------------------------------------------------------------------*/
FoamFile
{
    version     2.0;
    format      ascii;
    arch        "LSB;label=32;scalar=64";
    class       volScalarField;
    location    "0.02";
    object      omega;
}
// * * * * * * * * * * * * * * * * * * * * * * * * * * * * * * * * * * * * * //

dimensions      [0 0 -1 0 0 0 0];

internalField   nonuniform List<scalar> 
3251
(
322.74396
319.78055
317.01878
314.45557
312.08677
309.90741
307.91175
306.09348
304.44577
302.96144
301.63303
300.4529
299.41335
298.50664
297.72511
297.06121
296.50754
296.05691
295.70232
295.43704
295.25453
295.14853
295.11299
295.14211
295.23026
295.37203
295.5622
295.79567
296.06749
296.37284
296.70699
297.06528
297.44314
297.83605
298.23955
298.64922
299.06068
299.46962
299.87178
300.26295
300.63903
300.99599
301.32993
301.63689
301.91323
302.15558
302.36082
302.52607
302.64869
302.72636
302.75704
302.73803
302.66658
302.54344
302.36927
302.14435
301.86915
301.5449
322.73652
319.7732
317.01149
314.44835
312.0796
309.90026
307.9046
306.0863
304.43855
302.95416
301.62568
300.44546
299.4058
298.49898
297.71733
297.05329
296.49949
296.04872
295.694
295.42857
295.24592
295.13978
295.1041
295.13308
295.2211
295.36275
295.5528
295.78616
296.05788
296.36313
296.69719
297.05541
297.4332
297.82606
298.22951
298.63914
299.05058
299.45951
299.86166
300.25284
300.62893
300.9859
301.31987
301.62687
301.90323
302.14561
302.35087
302.51611
302.63871
302.71632
302.74683
302.72774
302.65693
302.53461
302.36111
302.13665
301.86167
301.5374
322.72133
319.7585
316.9972
314.43445
312.06605
309.88701
307.89161
306.07352
304.42594
302.94169
301.6133
300.43314
299.39351
298.48669
297.70501
297.04094
296.48707
296.03622
295.6814
295.41587
295.2331
295.12684
295.09105
295.1199
295.2078
295.34933
295.53927
295.77252
296.04414
296.34931
296.68329
297.04145
297.41919
297.81201
298.21545
298.62507
299.03653
299.44548
299.84768
300.23893
300.61509
300.97217
301.30625
301.61337
301.88987
302.13239
302.33779
302.50317
302.6259
302.7036
302.73416
302.71528
302.64522
302.52382
302.35115
302.12739
301.85284
301.52906
322.69842
319.73643
316.9759
314.41386
312.04611
309.86765
307.87275
306.05511
304.40792
302.92398
301.59585
300.4159
299.37643
298.46972
297.68812
297.02408
296.47022
296.01934
295.66447
295.39887
295.21602
295.10966
295.07375
295.10249
295.19028
295.3317
295.52152
295.75467
296.0262
296.33129
296.66521
297.02331
297.40102
297.79383
298.19727
298.60692
299.01843
299.42746
299.82976
300.22113
300.59745
300.9547
301.28897
301.59631
301.87305
302.11582
302.32149
302.48715
302.61015
302.68813
302.71897
302.70055
302.63136
302.51098
302.33934
302.11649
301.84267
301.52005
322.66777
319.707
316.9476
314.3866
312.01979
309.84218
307.84806
306.03109
304.38448
302.90105
301.57335
300.39376
299.35458
298.4481
297.66666
297.00274
296.44895
295.9981
295.64323
295.37759
295.19469
295.08825
295.05225
295.08089
295.16857
295.30988
295.4996
295.73265
296.00409
296.30911
296.64296
297.00103
297.37872
297.77154
298.17501
298.58473
298.99633
299.40548
299.80793
300.19948
300.57602
300.93352
301.26808
301.57573
301.85281
302.09595
302.30201
302.46809
302.59153
302.66997
302.7013
302.68357
302.61539
302.49616
302.32571
302.10398
301.83113
322.63158
319.67233
316.91432
314.35461
311.98898
309.81244
307.81928
306.00317
304.35731
302.87454
301.5474
300.36829
299.32951
298.42335
297.64217
296.97843
296.42478
295.97402
295.61918
295.35355
295.17062
295.06413
295.02806
295.05661
295.1442
295.28541
295.47504
295.708
295.97937
296.28432
296.61813
296.97617
297.35387
297.74671
298.15024
298.56005
298.97177
299.38108
299.78373
300.17551
300.55232
300.91013
301.24503
301.55307
301.83058
302.07417
302.28072
302.44732
302.57132
302.65036
302.68235
302.66547
302.59836
302.48038
302.31122
302.09072
301.81884
322.59099
319.63347
316.87708
314.31885
311.95458
309.77929
307.78724
305.97213
304.32716
302.84517
301.5187
300.34017
299.30187
298.3961
297.61524
296.95175
296.39828
295.94764
295.59289
295.32729
295.14435
295.03783
295.00171
295.03019
295.11769
295.25882
295.44836
295.68124
295.95254
296.25743
296.59121
296.94924
297.32695
297.71984
298.12344
298.53336
298.94523
299.35473
299.75761
300.14966
300.52678
300.88495
301.22025
301.52874
301.80673
302.05085
302.25797
302.42517
302.54983
302.62958
302.66236
302.64642
302.58046
302.46378
302.29601
302.07685
301.80634
322.54279
319.58738
316.83294
314.27651
311.91391
309.74012
307.74944
305.93556
304.29168
302.81064
301.48502
300.3072
299.2695
298.36424
297.58379
296.92063
296.3674
295.91695
295.56231
295.29677
295.11386
295.00733
294.97116
294.99958
295.08701
295.22805
295.41751
295.65031
295.92154
296.22639
296.56014
296.91817
297.29591
297.68886
298.09257
298.50263
298.91468
299.32441
299.72757
300.11995
300.49746
300.85605
301.19184
301.50086
301.77944
302.0242
302.23201
302.39996
302.52541
302.60603
302.63978
302.62496
302.56032
302.44512
302.27892
302.0614
301.79292
322.48642
319.53351
316.78139
314.22712
311.86649
309.6945
307.70546
305.89304
304.25048
302.77059
301.44598
300.26903
299.23207
298.32744
297.54749
296.88474
296.33183
295.88161
295.52714
295.26171
295.07884
294.97232
294.93612
294.96449
295.05185
295.19281
295.38219
295.61492
295.88609
296.19089
296.52462
296.88266
297.26044
297.65348
298.05731
298.46755
298.87983
299.28984
299.69334
300.08611
300.46407
300.82318
301.15954
301.4692
301.74847
301.994
302.20262
302.37146
302.49787
302.57952
302.61442
302.6009
302.53776
302.42421
302.2598
302.04425
322.42129
319.4713
316.7219
314.17014
311.81182
309.64196
307.65483
305.84415
304.20313
302.72461
301.40119
300.22528
299.18922
298.28533
297.506
296.84375
296.29123
295.84131
295.48705
295.22176
295.03898
294.93248
294.89627
294.9246
295.01189
295.15278
295.34208
295.57474
295.84585
296.15061
296.48433
296.84239
297.22024
297.61338
298.01738
298.42783
298.84038
299.25072
299.65461
300.04785
300.42634
300.78605
301.12308
301.43348
301.71357
301.95998
302.16957
302.33944
302.46696
302.54983
302.58606
302.57404
302.51258
302.40088
302.23845
302.02518
322.34674
319.40013
316.65388
314.10503
311.7494
309.58199
307.59709
305.78842
304.1492
302.67228
301.35026
300.17557
299.14054
298.23754
297.45895
296.79729
296.24525
295.79569
295.4417
295.17659
294.99392
294.88747
294.85127
294.87957
294.9668
295.10763
295.29685
295.52944
295.80049
296.10523
296.43895
296.79704
297.17497
297.56825
297.97244
298.38314
298.796
299.20673
299.61108
300.00485
300.38395
300.74436
301.08216
301.39342
301.67445
301.92189
302.13259
302.30365
302.43247
302.51673
302.55449
302.54415
302.48456
302.37491
302.21468
322.26211
319.31937
316.57672
314.03121
311.67866
309.51406
307.53173
305.72537
304.08822
302.61314
301.29274
300.11946
299.08565
298.18367
297.40593
296.74498
296.1935
295.74438
295.39072
295.12584
294.94331
294.83694
294.80076
294.82904
294.91623
295.05699
295.24614
295.47866
295.74967
296.05438
296.3881
296.74625
297.12429
297.51772
297.92213
298.33312
298.74635
299.15753
299.5624
299.95679
300.33659
300.69779
301.03648
301.34872
301.63083
301.87943
302.0914
302.26383
302.39412
302.47998
302.51945
302.511
302.45348
302.34607
302.18831
322.16669
319.22834
316.48978
313.94806
311.59901
309.43762
307.45821
305.65449
304.0197
302.54673
301.22818
300.05651
299.02409
298.12329
297.34655
296.68642
296.1356
295.68699
295.33371
295.06911
294.88676
294.7805
294.74437
294.77264
294.85979
295.00048
295.18957
295.42203
295.69299
295.99769
296.33144
296.68965
297.06781
297.46143
297.8661
298.27742
298.69107
299.10275
299.50823
299.90331
300.28391
300.646
300.9857
301.29906
301.58238
301.83231
302.04572
302.2197
302.35166
302.43929
302.48069
302.47432
302.41907
302.31416
322.05971
319.1263
316.39237
313.85494
311.50983
309.35207
307.37596
305.57523
303.94312
302.47253
301.15608
299.98625
298.95542
298.05597
297.28037
296.62117
296.07111
295.6231
295.27027
295.006
294.82388
294.71775
294.68168
294.70996
294.79708
294.93773
295.12675
295.35916
295.63008
295.93476
296.26854
296.62684
297.00514
297.39898
297.80394
298.21565
298.62978
299.04203
299.44818
299.84405
300.22555
300.58865
300.92948
301.24409
301.52879
301.78021
301.99523
302.17096
302.30478
302.39441
302.43793
302.43383
302.38105
302.27901
321.94038
319.01252
316.28377
313.75114
311.41048
309.25679
307.28439
305.48702
303.85792
302.39002
301.07595
299.90819
298.87915
297.98124
297.20692
296.54879
295.9996
295.55227
295.19997
294.93609
294.75424
294.64828
294.6123
294.6406
294.7277
294.8683
295.05727
295.28962
295.56051
295.86519
296.19901
296.55741
296.93588
297.32997
297.73527
298.14741
298.56206
298.97496
299.38187
299.77862
300.16112
300.52536
300.86745
301.18346
301.46969
301.72279
301.93962
302.11728
302.25319
302.34503
302.39089
302.38924
302.33916
321.80785
318.88618
316.16321
313.63596
311.30026
309.15112
307.18287
305.38925
303.76354
302.29864
300.98723
299.8218
298.79478
297.89859
297.12573
296.46881
295.9206
295.47405
295.12236
294.85893
294.67739
294.57163
294.53576
294.56411
294.6512
294.79176
294.98068
295.21298
295.48384
295.78853
296.12241
296.48093
296.85959
297.25396
297.65963
298.07225
298.48751
298.90113
299.30888
299.70661
300.09023
300.45573
300.79923
301.11679
301.40473
301.65969
301.87852
302.05835
302.19656
302.29084
302.33924
302.34024
302.29315
321.66124
318.74645
316.0299
313.50862
311.17843
309.03436
307.07073
305.2813
303.65935
302.19781
300.88937
299.72654
298.70177
297.80751
297.03629
296.38073
295.83362
295.38797
295.03696
294.77404
294.59287
294.48735
294.45162
294.48003
294.56712
294.70765
294.89652
295.12878
295.39961
295.70432
296.03827
296.39693
296.77581
297.17049
297.57659
297.98975
298.40567
298.82008
299.22877
299.62759
300.01245
300.37935
300.72441
301.04369
301.33352
301.59053
301.81159
301.9938
302.13456
302.23153
302.28269
302.28651
321.49961
318.59242
315.883
313.36833
311.04425
308.90579
306.94728
305.16249
303.54472
302.08691
300.78176
299.62183
298.59957
297.70747
296.93806
296.28402
295.73816
295.2935
294.94327
294.68093
294.50018
294.39494
294.35938
294.38787
294.47498
294.61549
294.80431
295.03653
295.30735
295.61208
295.94612
296.30493
296.68406
297.0791
297.48566
297.89941
298.31607
298.73136
299.14109
299.54111
299.92733
300.29577
300.64255
300.96374
301.25565
301.51492
301.73843
301.92327
302.06684
302.16675
302.22091
302.22789
321.32197
318.42318
315.7216
313.21424
310.8969
308.76464
306.81179
305.03213
303.41897
301.96529
300.66379
299.50706
298.48759
297.59788
296.8305
296.17815
295.63367
295.19013
294.84077
294.57909
294.39881
294.2939
294.25854
294.28713
294.37427
294.51476
294.70355
294.93574
295.20655
295.51131
295.84544
296.20444
296.58385
296.97927
297.38635
297.80076
298.21822
298.63448
299.04535
299.44668
299.83441
300.20454
300.5532
300.87648
301.17068
301.43244
301.65863
301.84637
301.99302
302.09616
302.15358
302.16418
321.1273
318.23774
315.5448
313.04546
310.73555
308.61011
306.66349
304.88948
303.28141
301.83227
300.53481
299.38161
298.36521
297.47814
296.71301
296.06253
295.5196
295.07729
294.72891
294.46797
294.28823
294.18369
294.14856
294.17728
294.26447
294.40495
294.59371
294.82587
295.09668
295.40148
295.73572
296.09492
296.47463
296.87048
297.27813
297.69326
298.1116
298.52893
298.94104
299.34382
299.73319
300.10518
300.4559
300.78146
301.07816
301.34264
301.57176
301.76266
301.9127
302.01942
302.08045
302.09512
320.91451
318.03507
315.3516
312.86107
310.55931
308.44136
306.50158
304.73377
303.13129
301.68715
300.39412
299.24482
298.2318
297.34765
296.58498
295.93658
295.39535
294.95442
294.60712
294.34701
294.16788
294.06376
294.0289
294.05776
294.14501
294.2855
294.47424
294.70638
294.97718
295.28204
295.61641
295.97582
296.35587
296.75219
297.16046
297.57637
297.99568
298.41416
298.82764
299.232
299.62316
299.99717
300.35014
300.6782
300.97762
301.24505
301.47738
301.67172
301.82548
301.93617
302.00126
320.68249
317.8141
315.141
312.66011
310.36727
308.25751
306.32522
304.56421
302.96786
301.52919
300.24102
299.09598
298.08669
297.20573
296.44579
295.79967
295.26032
294.82091
294.47481
294.21562
294.03716
293.93352
293.89896
293.928
294.01534
294.15584
294.34456
294.57668
294.84749
295.15241
295.48692
295.84658
296.227
296.62383
297.03277
297.44954
297.8699
298.28964
298.7046
299.11066
299.50378
299.87998
300.23541
300.56617
300.86855
301.1392
301.37499
301.57306
301.73088
301.84614
301.91608
320.43005
317.57372
314.91193
312.44157
310.15846
308.05765
306.13354
304.37996
302.7903
301.35762
300.07476
298.9344
297.92917
297.05172
296.29477
295.65115
295.11387
294.67613
294.33136
294.07318
293.89548
293.79237
293.75816
293.78741
293.87484
294.01537
294.20408
294.43618
294.70701
295.012
295.34667
295.70659
296.0874
296.48479
296.89446
297.31216
297.73365
298.15476
298.57133
298.97925
299.37448
299.75307
300.11115
300.44485
300.75044
301.02457
301.26409
301.46617
301.62845
320.15599
317.31276
314.6633
312.2044
309.93189
307.84084
305.92564
304.18015
302.59779
301.17164
299.89457
298.75931
297.75853
296.88491
296.13122
295.49034
294.95533
294.51944
294.17612
293.91907
293.7422
293.63968
293.60587
293.63535
293.72289
293.86347
294.05217
294.28427
294.55512
294.86019
295.19502
295.55523
295.93648
296.33447
296.74492
297.16362
297.58635
298.00893
298.42723
298.83716
299.23468
299.61584
299.9768
300.31367
300.62273
300.90061
301.14416
301.35056
319.85903
317.03004
314.39395
311.9475
309.68652
307.60607
305.70057
303.96388
302.38945
300.97041
299.69966
298.56996
297.57402
296.70458
295.95445
295.31657
294.78403
294.35015
294.00843
293.75262
293.57668
293.47481
293.44143
293.47118
293.55887
293.69949
293.88821
294.1203
294.39117
294.69633
295.03135
295.39187
295.77358
296.17221
296.58352
297.00329
297.42734
297.85152
298.27169
298.68378
299.08376
299.46771
299.83176
300.17206
300.48487
300.76679
301.01466
301.2259
322.54535
319.53779
316.72428
314.10271
311.66977
309.42129
307.35235
305.45736
303.73022
302.16442
300.75309
299.48919
298.36553
297.37485
296.50996
295.76371
295.12909
294.59926
294.16758
293.82762
293.57316
293.39823
293.29709
293.2642
293.29425
293.38209
293.52278
293.71151
293.94361
294.21451
294.51977
294.85498
295.21584
295.59804
295.99736
296.40958
296.83051
297.25599
297.68186
298.10404
298.51846
298.9211
299.30804
299.67542
300.01942
300.33625
300.62253
300.87502
301.09145
322.18063
319.19094
316.39421
313.78835
311.37003
309.13509
307.0786
305.195
303.47822
301.92175
300.51879
299.26232
298.1452
297.16024
296.30029
295.55825
294.92718
294.40029
293.97101
293.63296
293.37998
293.20617
293.10583
293.07348
293.10387
293.19189
293.33266
293.52141
293.75351
294.02445
294.32981
294.66524
295.02645
295.40918
295.80924
296.22244
296.6446
297.0716
297.4993
297.92363
298.34054
298.74603
299.13618
299.50715
299.85511
300.17628
300.46724
300.72475
300.94672
321.78753
318.81709
316.03851
313.44962
311.0471
308.82679
306.78376
304.91248
303.20688
301.66051
300.26659
299.01816
297.90813
296.92936
296.07475
295.33728
294.71007
294.18638
293.75971
293.42373
293.17238
292.99979
292.90033
292.86858
292.89934
292.98757
293.12843
293.31721
293.54932
293.8203
294.12577
294.46142
294.823
295.20631
295.60715
296.02138
296.44486
296.87348
297.30314
297.72977
298.14934
298.55788
298.95146
299.32627
299.67849
300.00431
300.30033
300.56328
300.79118
321.3645
318.41483
315.6558
313.08522
310.69976
308.49523
306.46672
304.60872
302.9152
301.37972
299.99558
298.75583
297.65346
296.68138
295.83255
295.10002
294.47698
293.95676
293.53292
293.19921
292.94962
292.77836
292.67986
292.64878
292.67995
292.76842
292.90938
293.09819
293.33032
293.60134
293.90693
294.24282
294.60479
294.98869
295.39037
295.8057
296.23058
296.66092
297.09266
297.52174
297.94415
298.35594
298.7532
299.13211
299.48888
299.8197
300.12114
300.38998
300.62423
320.90999
317.98269
315.24473
312.69387
310.32676
308.13922
306.12636
304.28267
302.60215
301.07842
299.7048
298.47442
297.3803
296.41543
295.57285
294.84566
294.22712
293.71066
293.28988
292.95863
292.71096
292.54115
292.44371
292.41335
292.44498
292.53371
292.6748
292.86365
293.09579
293.36686
293.67256
294.0087
294.37109
294.75562
295.15817
295.57466
296.00102
296.4332
296.86714
297.29882
297.72426
298.13951
298.54068
298.92398
299.28561
299.62177
299.92903
300.20416
300.44522
320.42244
317.5192
314.80388
312.27421
309.92684
307.75757
305.76153
303.93322
302.2667
300.75559
299.39329
298.17299
297.08775
296.13066
295.2948
294.57337
293.9597
293.44728
293.02982
292.70123
292.45564
292.28741
292.19112
292.16155
292.1937
292.28272
292.42395
292.61285
292.84501
293.11612
293.42195
293.75834
294.12117
294.50635
294.90982
295.32754
295.75546
296.18957
296.62584
297.06028
297.48893
297.90785
298.31319
298.70114
299.06796
299.40981
299.72328
300.00516
300.25348
319.9003
317.02287
314.33186
311.82494
309.49874
307.34908
305.37109
303.5593
301.90779
300.41024
299.0601
297.85062
296.77494
295.82619
294.99757
294.28234
293.6739
293.16585
292.75197
292.42626
292.18292
292.0164
291.92136
291.89266
291.92537
292.01472
292.1561
292.34506
292.57724
292.84839
293.15435
293.491
293.85428
294.24015
294.64458
295.06358
295.49314
295.92928
296.36802
296.80537
297.23741
297.66023
298.06998
298.46287
298.8352
299.1831
299.50318
299.79224
300.04831
319.34199
316.49222
313.82725
311.3447
309.0412
306.91255
304.95389
303.1598
301.52438
300.04137
298.70426
297.50638
296.44094
295.50116
294.68031
293.97173
293.36893
292.86558
292.45555
292.13293
291.89203
291.72737
291.63369
291.60594
291.63926
291.72897
291.87053
292.05955
292.29175
292.56295
292.86904
293.20596
293.5697
293.95627
294.3617
294.78204
295.21333
295.6516
296.09293
296.53335
296.96897
297.39591
297.81032
298.20844
298.58659
298.94091
299.26802
299.5647
299.82897
318.74595
315.92579
313.28866
310.83219
308.55295
306.44677
304.5088
302.73364
301.11543
299.64797
298.32481
297.13935
296.08488
295.1547
294.34217
293.64073
293.04397
292.54567
292.13979
291.82052
291.58224
291.41958
291.32738
291.30066
291.33466
291.42476
291.56652
291.75561
291.98784
292.25908
292.56529
292.90248
293.26669
293.65399
294.06046
294.4822
294.91528
295.35579
295.79982
296.24347
296.68286
297.11412
297.53345
297.93709
298.3214
298.68251
299.01704
299.32179
299.59475
318.11068
315.32212
312.71474
310.2861
308.03278
305.9506
304.03471
302.27976
300.67993
299.22908
297.92082
296.74863
295.70588
294.78597
293.98234
293.28854
292.69826
292.20537
291.80395
291.48826
291.25281
291.09232
291.00171
290.97612
291.01084
291.10138
291.24336
291.43254
291.66479
291.93607
292.2424
292.57986
292.94455
293.3326
293.74014
294.16332
294.59827
295.04111
295.48798
295.935
296.37833
296.81414
297.23863
297.64809
298.03887
298.40714
298.7495
299.06277
299.34491
317.43469
314.67983
312.10417
309.7052
307.47951
305.42289
303.53055
301.79714
300.2169
298.78375
297.49138
296.33334
295.3031
294.39415
293.60003
292.91439
292.33104
291.84394
291.44729
291.13545
290.90305
290.74489
290.656
290.63162
290.66715
290.75817
290.90039
291.08966
291.32194
291.59325
291.8997
292.23742
292.60259
292.9914
293.40005
293.82472
294.26159
294.70686
295.15668
295.60722
296.05468
296.49524
296.92515
297.34071
297.73828
298.11408
298.46468
298.78691
299.07871
316.71659
313.99761
311.45569
309.0883
306.89199
304.86258
302.99528
301.28479
299.7254
298.31109
297.03563
295.89265
294.87573
293.97846
293.19447
292.51755
291.94158
291.46068
291.06912
290.76142
290.53228
290.37663
290.2896
290.26654
290.30294
290.39448
290.53697
290.72635
290.95865
291.22999
291.53654
291.87452
292.24018
292.62976
293.03952
293.46572
293.90459
294.35236
294.80524
295.25945
295.7112
296.15672
296.59229
297.01423
297.41891
297.8026
298.16184
298.49348
298.79541
315.95509
313.27421
310.76814
308.4343
306.2692
304.26868
302.42798
300.74182
299.20456
297.81026
296.55277
295.4258
294.42304
293.53817
292.76497
292.09732
291.52923
291.05493
290.66882
290.36553
290.13988
289.98693
289.90191
289.88026
289.91761
290.00972
290.15251
290.34201
290.57433
290.84569
291.15234
291.49057
291.8567
292.24706
292.65797
293.08573
293.52665
293.977
294.43304
294.89104
295.34725
295.79793
296.23939
296.66797
297.08008
297.47201
297.84029
298.18176
298.49431
315.149
312.50855
310.04049
307.7422
305.61019
303.64029
301.82777
300.16741
298.65361
297.28052
296.04207
294.93208
293.94433
293.07264
292.31089
291.65309
291.09338
290.6261
290.2458
289.94722
289.72531
289.57524
289.49238
289.47227
289.51064
289.60338
289.7465
289.93612
290.16847
290.43984
290.74657
291.08504
291.45164
291.84278
292.25483
292.68419
293.1272
293.5802
294.0395
294.50141
294.96223
295.41826
295.86583
296.30132
296.72115
297.12166
297.49936
297.8511
298.17473
314.29733
311.69966
309.27183
307.01116
304.91415
302.97665
301.19393
299.56085
298.07187
296.72122
295.50291
294.41088
293.43904
292.5813
291.83169
291.18432
290.6335
290.1737
289.79957
289.50601
289.2881
289.14112
289.06056
289.04211
289.08159
289.17501
289.31849
289.50825
289.74063
290.012
290.3188
290.65749
291.02454
291.41645
291.82966
292.26063
292.70576
293.16147
293.62411
294.09005
294.55561
295.01716
295.47106
295.9137
296.34154
296.75095
297.13844
297.50085
297.83602
313.39927
310.8468
308.46146
306.24051
304.18045
302.27713
300.52588
298.92159
297.4588
296.13183
294.93479
293.86174
292.90669
292.0637
291.32691
290.6906
290.1492
289.69731
289.32974
289.04152
288.82785
288.68417
288.6061
288.58942
288.63011
288.72427
288.86814
289.05807
289.29047
289.56183
289.86868
290.20757
290.57506
290.96772
291.38209
291.81467
292.26197
292.72042
293.18648
293.65653
294.12697
294.5942
295.05461
295.50463
295.94074
296.35938
296.757
297.13048
297.47761
312.45426
309.94943
307.60886
305.42977
303.40863
301.54132
299.8232
298.24923
296.81403
295.51199
294.33736
293.2843
292.34695
291.51951
290.79626
290.17163
289.64017
289.19666
288.83604
288.55348
288.34434
288.20418
288.12875
288.11398
288.15597
288.25094
288.39525
288.58535
288.81777
289.08911
289.39599
289.73506
290.10298
290.49637
290.91188
291.34608
291.79554
292.25679
292.72631
293.20056
293.67599
294.14903
294.61612
295.07373
295.51837
295.9465
296.35459
296.73951
297.09902
311.46203
309.00732
306.71383
304.57873
302.59849
300.76902
299.08572
297.5436
296.13738
294.86155
293.71046
292.67841
291.75967
290.94859
290.2396
289.62725
289.10629
288.67162
288.31835
288.04179
287.83744
287.70102
287.62842
287.6157
287.65909
287.75494
287.89973
288.09003
288.32248
288.59379
288.90068
289.23991
289.60821
290.00231
290.41894
290.85475
291.30639
291.77044
292.24347
292.72198
293.20249
293.68146
294.15539
294.62077
295.07414
295.51204
295.93089
296.32758
296.69985
310.42267
308.02055
305.77644
303.68747
301.75012
299.96031
298.31349
296.80476
295.4289
294.18053
293.05413
292.04411
291.1449
290.35098
289.65695
289.05753
288.54761
288.12225
287.77673
287.50651
287.30724
287.17479
287.1052
287.09468
287.13957
287.23638
287.38169
287.57222
287.80471
288.07597
288.38285
288.7222
289.09086
289.48565
289.90336
290.34077
290.79457
291.26143
291.73798
292.22081
292.70645
293.19146
293.67235
294.14566
294.60796
295.05584
295.48572
295.89449
296.27986
309.33667
306.9896
304.79716
302.75644
300.86393
299.11558
297.5069
296.03305
294.68894
293.46928
292.36868
291.38169
290.50291
289.72696
289.04861
288.46273
287.96439
287.54882
287.21145
286.9479
286.75401
286.62577
286.55939
286.5512
286.59771
286.69555
286.84145
287.03222
287.26476
287.53597
287.84282
288.18226
288.55124
288.94667
289.36544
289.80441
290.26035
290.73002
291.2101
291.69726
292.18809
292.6792
293.16714
293.64851
294.1199
294.57795
295.01908
295.44019
295.83898
308.20502
305.91541
303.77687
301.78648
299.94073
298.2356
296.66667
295.22918
293.91815
292.72841
291.65471
290.69175
289.83427
289.07708
288.4151
287.84338
287.35716
286.95184
286.62302
286.3665
286.17827
286.05448
285.99149
285.9858
286.03406
286.13302
286.27955
286.47061
286.7032
286.97436
287.28116
287.62066
287.98991
288.38594
288.80573
289.24621
289.70426
290.1767
290.66031
291.15179
291.64784
292.14509
292.64016
293.12968
293.61027
294.07863
294.53121
294.96488
295.37735
307.02924
304.79942
302.71697
300.77892
298.98177
297.32156
295.79393
294.39423
293.11757
291.95892
290.91317
289.97519
289.13987
288.4022
287.75726
287.20031
286.72673
286.33212
286.01226
285.76311
285.58082
285.46173
285.40234
285.3993
285.44942
285.5496
285.69683
285.88821
286.12087
286.39197
286.6987
287.03823
287.40772
287.8043
288.22505
288.66699
289.1271
289.60227
290.08937
290.58517
291.08642
291.58983
292.09206
292.58979
293.07968
293.55844
294.0226
294.469
294.89545
305.8115
303.64372
301.61942
299.73562
297.98884
296.37516
294.89031
293.52974
292.28867
291.16223
290.14543
289.23333
288.42098
287.70355
287.07631
286.53469
286.07427
285.69082
285.3803
285.13885
284.96279
284.84864
284.79305
284.79284
284.84495
284.94644
285.09445
285.28619
285.51894
285.78998
286.09662
286.43615
286.80584
287.20292
287.62457
288.06791
288.53001
289.00786
289.49839
289.99846
290.50489
291.01444
291.52384
292.0298
292.52903
293.01827
293.4941
293.9534
304.5547
302.45107
300.48685
298.65908
296.9643
295.39866
293.95796
292.63776
291.43343
290.34021
289.3533
288.46792
287.6793
286.98279
286.37386
285.84811
285.40133
285.02946
284.72866
284.49524
284.3257
284.21672
284.16514
284.16791
284.22215
284.32506
284.47392
284.66608
284.89895
285.16994
285.47647
285.81597
286.18581
286.58333
287.00582
287.4505
287.91452
288.39497
288.88886
289.39314
289.90468
290.42033
290.93686
291.45104
291.95963
292.4594
292.94712
303.26258
301.225
299.32264
297.55251
295.91121
294.39495
292.99964
291.72094
290.55436
289.4953
288.53913
287.68122
286.91702
286.24206
285.65199
285.14262
284.70992
284.35003
284.0593
283.83422
283.67147
283.56791
283.52053
283.52646
283.58297
283.6874
283.83719
284.02983
284.26285
284.5338
284.84023
285.17967
285.54962
285.94753
286.37079
286.81672
287.28258
287.76554
288.26271
288.77109
289.28767
289.80933
290.33293
290.85529
291.37322
291.88359
301.93981
299.96996
298.13099
296.41992
294.83339
293.36769
292.01883
290.7826
289.65466
288.63056
287.70585
286.87609
286.1369
285.48403
284.91331
284.42077
284.00255
283.65502
283.37468
283.15823
283.00253
282.90461
282.86163
282.87089
282.9298
283.03588
283.18669
283.37987
283.61309
283.88402
284.19035
284.52972
284.89974
285.29798
285.72194
286.16905
286.63665
287.12202
287.62234
288.13472
288.65621
289.18378
289.71434
290.2448
290.77206
291.29346
300.59211
298.6914
296.91709
295.26623
293.73552
292.32134
291.0198
289.82683
288.73823
287.74974
286.85709
286.05601
285.34234
284.71201
284.16106
283.68572
283.28234
282.94747
282.67781
282.47026
282.32185
282.22978
282.19139
282.20415
282.26561
282.37345
282.52538
282.71918
282.95265
283.2236
283.52983
283.86911
284.23918
284.6377
285.0623
285.51049
285.97973
286.46738
286.97074
287.48698
288.01323
288.54655
289.08392
289.6223
290.15868
290.6905
299.22644
297.3959
295.6872
294.0974
292.62328
291.26129
290.00769
288.85854
287.80981
286.8574
285.99723
285.22524
284.53745
283.93
283.39915
282.9413
282.55304
282.23109
281.97237
281.77394
281.63303
281.54701
281.51339
281.5298
281.59396
281.70368
281.85684
282.05134
282.28513
282.55613
282.86229
283.20148
283.57157
283.97033
284.39549
284.84468
285.31545
285.80527
286.31151
286.83145
287.36229
287.90116
288.44513
288.99121
289.53644
290.0783
297.85107
296.09134
294.44879
292.92053
291.50341
290.194
288.98867
287.88365
286.87505
285.95898
285.13153
284.38885
283.72716
283.1428
282.63224
282.1921
281.81915
281.51032
281.26272
281.07359
280.94036
280.86056
280.83187
280.85208
280.91908
281.03082
281.18531
281.3806
281.61478
281.8859
282.19201
282.53113
282.90122
283.30019
283.72585
284.17596
284.64815
285.14
285.64897
286.17242
286.70764
287.25184
287.80215
288.35565
288.90943
289.461
296.47581
294.78701
293.2107
291.74403
290.38393
289.1271
287.97004
286.90913
285.94067
285.06093
284.26621
283.55286
282.91731
282.3561
281.8659
281.44354
281.086
280.7904
280.55403
280.37434
280.24891
280.17547
280.15185
280.17601
280.24597
280.35984
280.51578
280.71197
280.94662
281.21792
281.52404
281.86311
282.23321
282.63236
283.05848
283.50942
283.98293
284.47667
284.98819
285.51496
286.05434
286.6036
287.15996
287.72056
288.28254
288.84343
295.11219
293.49386
291.98331
290.57776
289.27424
288.06956
286.96036
285.94319
285.01453
284.17083
283.40859
282.72435
282.11476
281.57656
281.10663
280.702
280.35984
280.07748
279.85238
279.68219
279.56465
279.49765
279.47921
279.50742
279.58047
279.69659
279.85409
280.05129
280.28651
280.55806
280.86425
281.20331
281.57344
281.97276
282.39929
282.851
283.32573
283.82122
284.33513
284.86501
285.40829
285.96234
286.52443
287.09177
287.66154
288.23129
293.77364
292.22463
290.77874
289.43325
288.18531
287.03184
285.96964
284.99542
284.10583
283.29753
282.5672
281.91158
281.32753
280.81199
280.36205
279.97492
279.64797
279.37873
279.16484
279.00411
278.89447
278.83396
278.82076
278.85311
278.92934
279.04783
279.207
279.40531
279.6412
279.91311
280.21944
280.55855
280.92874
281.32823
281.75516
282.20757
282.68342
283.18054
283.69666
284.22943
284.77636
285.33489
285.90237
286.47605
287.05319
287.63138
292.4758
290.99416
289.61107
288.3239
287.12989
286.02611
285.0095
284.07695
283.22527
282.45132
281.75196
281.12415
280.56493
280.07144
279.64096
279.27092
278.95885
278.70246
278.49959
278.34819
278.24637
278.19233
278.18438
278.22091
278.30038
278.42132
278.58227
278.78179
279.01846
279.29082
279.59739
279.93662
280.30692
280.70661
281.13392
281.587
282.06388
282.5625
283.08067
283.61611
284.16642
284.72911
285.3016
285.88123
286.46531
291.23681
289.81966
288.49665
287.26524
286.12278
285.06648
284.09343