/*--------------------------------*- C++ -*----------------------------------*\
| =========                 |                                                 |
| \\      /  F ield         | OpenFOAM: The Open Source CFD Toolbox           |
|  \\    /   O peration     | Version:  2312                                  |
|   \\  /    A nd           | Website:  www.openfoam.com                      |
|    \\/     M anipulation  |                                                 |
\*---------------------------------------------------------------------------*/
FoamFile
{
    version     2.0;
    format      ascii;
    arch        "LSB;label=32;scalar=64";
    class       volScalarField;
    location    "0.02";
    object      Qdot;
}
// * * * * * * * * * * * * * * * * * * * * * * * * * * * * * * * * * * * * * //

dimensions      [1 -1 -3 0 0 0 0];

internalField   nonuniform List<scalar> 
3251
(
1963812.8
1414687.8
1009484.3
714407.14
501960.63
350552.06
243604.36
168643.56
116446.6
80297.31
55369.425
38234.256
26479.905
18423.957
12901.135
9109.0702
6497.8795
4692.0869
3435.9759
2555.6739
1933.0354
1487.7572
1165.1907
928.06559
750.8848
616.13648
511.73567
429.29659
362.96497
308.62751
263.37522
225.1374
192.43081
164.18616
139.62712
118.1847
99.436045
83.060001
68.804666
56.463691
45.859205
36.82997
29.223699
22.892737
17.692356
13.480972
10.121631
7.4841464
5.4473705
3.9011712
2.7478837
1.9032703
1.2961938
0.86767633
0.570721
0.36878033
0.23406145
0.14590232
1965857.8
1416388.3
1010807
715466.36
502805.8
351219.15
244125.97
169048.5
116759.32
80538.001
55554.371
38376.361
26589.25
18508.327
12966.491
9159.945
6537.7048
4723.4542
3460.8397
2575.5096
1948.9586
1500.6144
1175.6271
936.57594
757.85086
621.85517
516.43984
433.17043
366.15554
311.2533
265.53256
226.90531
193.87459
165.36018
140.5769
118.94854
100.04625
83.543851
69.185207
56.760339
46.088261
37.005045
29.356082
22.991713
17.76549
13.534361
10.160132
7.5115756
5.4666828
3.91462
2.7571661
1.9095767
1.3003121
0.87028727
0.5723463
0.36977848
0.23466775
0.1462679
1969027.1
1419148.6
1013090
717349.03
504342.2
352457.59
245113.72
169829.79
117373.55
81018.929
55930.092
38669.743
26818.578
18688.02
13107.798
9271.5736
6626.355
4794.2629
3517.7384
2621.5064
1986.3584
1531.1882
1200.7414
957.29061
774.99327
636.07595
528.25481
442.99218
374.31715
318.02627
271.14026
231.53324
197.67814
168.47049
143.10532
120.9901
101.68227
84.843985
70.209054
57.558736
46.704355
37.475201
29.710689
23.25591
17.959835
13.675454
10.26119
7.5829738
5.516433
3.9488128
2.7803546
1.9250471
1.310397
0.87672556
0.57638244
0.37226779
0.23618066
0.14717198
1973341.8
1422965.4
1016330.2
720057.76
506573.84
354271.3
246571.18
170990.65
118292.11
81742.53
56498.681
39116.185
27169.398
18964.306
13326.122
9444.8458
6764.5703
4905.1271
3607.1794
2694.0823
2045.578
1579.7595
1240.7625
990.39536
802.46201
658.91922
547.27665
458.83793
387.50959
328.99294
280.23416
239.04853
203.86202
173.53231
147.2235
124.31735
104.3497
86.964236
71.87876
58.860527
47.708501
38.241029
30.287836
23.685472
18.275434
13.904237
10.42477
7.6982965
5.5965787
4.0037118
2.8174165
1.9496629
1.326433
0.8869773
0.58282023
0.37624283
0.23859649
0.14861022
1978779.3
1427823.9
1020512.3
723584.44
509496.96
356659.01
248498.55
172532.11
119516.52
82710.559
57261.935
39717.419
27643.316
19338.633
13622.742
9680.8747
6953.3069
5056.8597
3729.848
2793.8107
2127.094
1646.7216
1296.0128
1036.1526
840.46917
690.55503
573.64048
480.81402
405.81564
344.21698
292.86254
249.48717
212.45259
180.56455
152.9446
128.93918
108.05429
89.908103
74.196272
60.666622
49.100955
39.3024
31.087197
24.279998
18.711882
14.220345
10.65056
7.8572952
5.7069288
4.0791753
2.8682519
1.9833586
1.3483725
0.90100826
0.59163677
0.38168959
0.24190831
1984940.5
1433374.2
1025333
727674.77
512902.67
359451.44
250760.22
174346.55
120961.92
83856.414
58167.736
40432.699
28208.447
19785.993
13977.97
9964.0853
7180.1737
5239.5401
3877.7484
2914.2035
2225.6064
1727.7186
1362.8921
1091.5726
886.52196
728.89879
605.59973
507.45579
428.00728
362.67008
308.16633
262.13389
222.85689
189.07825
159.86799
134.52966
112.53303
93.46523
76.994962
62.846404
50.780461
40.581739
32.050069
24.995636
19.236862
14.600287
10.92173
8.0480855
5.8392171
4.1695421
2.9290469
2.0236071
1.3745657
0.91775958
0.60216483
0.38819544
0.24586857
1991664.3
1439469.3
1030661.6
732214.62
516694.69
362569.12
253291.5
176381.89
122586.76
85147.142
59190.041
41241.475
28848.578
20293.567
14381.64
10286.38
7438.6844
5447.9414
4046.641
3051.799
2338.2711
1820.399
1439.4461
1155.0231
939.25222
772.80047
642.18602
537.94729
453.39732
383.7744
325.66087
276.58369
234.73807
198.79484
167.7648
140.90216
117.63501
97.514721
80.178948
65.324644
52.688669
42.034333
33.142624
25.807131
19.831774
15.030562
11.228622
8.2638644
5.9887264
4.2715947
2.9976458
2.0689876
1.4040868
0.93663698
0.6140296
0.39552764
0.25032546
1999465.5
1446580.4
1036910.3
737558.32
521171.5
366259.32
256294.66
178801.93
124522.72
86688.065
60412.833
42210.625
29616.971
20903.84
14867.722
10675.011
7750.7901
5699.8204
4250.9544
3218.3736
2474.7395
1932.7033
1532.2286
1231.9283
1003.1578
825.9942
686.5007
574.86321
484.12048
409.29608
346.80306
294.03379
249.07539
210.51092
177.279
148.57362
123.77195
102.38169
84.002587
68.298371
54.976591
43.774635
34.45059
26.777909
20.54295
15.544568
11.594983
8.5212814
6.1669639
4.3931715
3.0793095
2.122976
1.439193
0.95908094
0.62813505
0.40424254
0.25561353
2008415
1454777.2
1044143.6
743765.21
526386.19
370568.48
259809.56
181640.46
126798.13
88502.765
61855.629
43356.239
30526.858
21627.674
15445.131
11137.295
8122.4986
6000.1139
4494.7483
3417.268
2637.7628
2066.8975
1643.1061
1323.8243
1079.5016
889.51686
739.39307
618.89724
520.74141
439.69286
371.96222
314.78055
266.10524
224.4138
188.55791
157.65901
131.03282
108.13438
88.517731
71.806589
57.673262
45.824026
35.989536
27.919175
21.378358
16.147901
12.024698
8.8229978
6.37573
4.5354748
3.1748316
2.1860889
1.4802147
0.9852999
0.64461121
0.41441967
2018586.7
1464132.7
1052430.6
750898.95
532396.05
375546.98
263879.76
184934.61
129444.33
90617.459
63540.237
44696.379
31593.155
22477.366
16123.991
11681.564
8560.6651
6354.4638
4782.6674
3652.307
2830.4903
2225.5744
1774.2118
1432.4647
1169.7231
964.54716
801.82596
670.83333
563.89596
475.4782
401.55083
339.15346
286.08915
240.70964
201.76284
168.2835
139.51392
114.8462
93.779792
75.890709
60.809307
48.204907
37.775663
29.242516
22.346184
16.846278
12.521707
9.1716976
6.6168297
4.699704
3.2849998
2.2588369
1.527478
1.0154991
0.6635863
0.42613981
2030055.3
1474722.7
1061843.6
759027.05
539262.3
381249.12
268552.54
188724.98
132495.78
93061.172
65490.938
46251.259
32832.628
23466.788
16915.762
12317.275
9073.0889
6769.2997
5120.0108
3927.8562
3056.5171
2411.6922
1927.9772
1559.845
1275.4565
1052.4206
874.88722
731.55441
614.29771
517.226
436.02798
367.51753
309.31539
259.62443
217.06959
180.5827
149.31893
122.59565
99.847642
80.594421
64.416802
50.94057
39.825695
30.759797
23.454752
17.645465
13.089958
9.5700514
6.8920474
4.8870373
3.4105831
2.3417164
1.5812986
1.0498763
0.68518262
2042894.9
1486624.1
1072458.2
768220.53
547049.98
387733.08
273879
193055.78
135990.29
95865.942
67734.685
48043.431
34264.071
24611.55
17833.381
13055.132
9668.6174
7251.9264
5512.8043
4248.8823
3319.9327
2628.6139
2107.1636
1708.2277
1398.5515
1154.6445
959.80114
802.05085
672.74412
565.57504
475.90234
400.27523
336.10018
281.40474
234.6688
194.70275
160.55882
131.46621
106.78341
85.963482
68.529078
54.05502
42.156722
32.483044
24.712422
18.551208
13.733353
10.020674
7.2031158
5.0986096
3.5523174
2.4351995
1.6419757
1.0886178
0.70951384
2057178.2
1499914.6
1084351.8
778553.53
555827.79
395060.96
279914.15
197974.98
139969.19
99067.012
70301.302
50097.976
35908.475
25929.159
18891.404
13907.212
10357.25
7810.6115
5967.8741
4621.0132
3625.3698
2880.1463
2314.8925
1880.1665
1541.0909
1272.9121
1057.9389
883.42807
740.12186
621.23254
521.73451
437.8679
366.78837
306.31787
254.76591
210.80006
173.35154
141.5459
114.6521
92.04537
73.180415
57.572723
44.785995
34.424278
26.127469
19.569132
14.455669
10.526074
7.5516796
5.3354874
3.7108878
2.5397232
1.709785
1.13189
2072974.4
1514671.2
1097603.2
790102.72
565667.72
403298.54
286716.86
203534.38
144477.44
102702.98
73223.646
52442.673
37789.194
27439.161
20106.136
14887.074
11150.237
8454.669
6492.9156
5050.5946
3978.0502
3170.5766
2554.6749
2078.5281
1705.4076
1409.1148
1170.8271
976.9123
817.41057
684.97643
574.13811
480.77605
401.75328
334.65141
277.58044
229.0406
187.82128
152.92665
123.52101
98.88877
78.405618
61.518252
47.730654
36.595299
27.707915
20.704625
15.260479
11.08859
7.9392512
5.5986382
3.8869084
2.655676
1.78497
1.1798325
2090347.9
1530968.8
1112291.3
802946.49
576644.56
412515.06
294349.73
209789.56
149563.65
106815.9
76537.726
55108.122
39932.072
29163.271
21495.743
16009.863
12060.165
9194.5319
7096.5539
5544.7387
4383.8235
3504.7022
2830.4333
2306.5089
1894.0964
1565.3498
1300.1529
1083.8537
905.68422
757.65547
633.77919
529.51829
441.39535
366.71175
303.34458
249.59853
204.09725
165.70324
133.45882
106.54285
84.239425
65.915832
51.007361
39.007415
29.461331
21.962685
16.151039
11.710315
8.3671582
5.8888938
4.0808977
2.7833824
1.8677304
2109355.4
1548878
1128493.5
817163.8
588835.05
422782.61
302878.73
216799.69
155280.04
111451.24
80282.735
58127.81
42365.517
31125.448
23080.331
17292.38
13101.022
10041.805
7788.3871
6111.3592
4849.1936
3887.851
3146.5165
2567.6444
2110.0195
1743.9234
1447.7648
1205.725
1006.109
840.18663
701.37322
584.64828
486.13918
402.82141
332.30075
272.65406
222.31187
179.97178
144.53439
115.05624
90.715724
70.788727
54.631847
41.6711
31.394582
23.347741
17.130162
12.393007
8.8364804
6.2069081
4.2932503
2.9230832
1.9582122
2130043.8
1568462.8
1146283.9
832832.64
602316.75
434175.27
312372.62
224627.1
161682.14
116657.74
84500.962
61538.071
45120.498
33351.906
24881.966
18753.108
14288.219
11009.287
8579.0038
6759.1836
5381.3273
4325.8852
3507.6997
2865.8075
2356.3027
1947.3451
1615.666
1344.1154
1119.9368
933.5485
777.67899
646.74912
536.42857
443.31461
364.69789
298.39037
242.59821
195.82761
156.81503
124.47579
97.86655
76.158477
58.618336
44.595568
33.513519
24.863434
18.200064
13.137983
9.3479776
6.5531065
4.5242031
3.0749076
2152445.7
1589777.4
1165730.3
850027.9
617166.37
446767.91
322901.94
233336.61
168828.28
122487.05
89237.538
65377.916
48230.424
35871.044
26924.624
20412.17
15638.562
12110.947
9479.9623
7497.7343
5988.0353
4825.1827
3919.1667
3205.1903
2636.3178
2178.3113
1805.9991
1500.7155
1248.4915
1038.7696
863.48834
716.4245
592.71888
488.53096
400.78614
326.98926
265.08648
213.36255
170.36441
134.8448
105.7208
82.043939
62.978836
47.78826
35.822612
26.512353
19.362181
13.945992
9.9020054
6.9276289
4.7737965
3.2388304
2176575.8
1612862
1186891.4
868818.74
633457.59
460634.38
334537.71
242994.43
176778.76
128993.11
94539.961
69688.663
51730.872
38713.221
29234.021
22291.204
17170.147
13361.836
10503.717
8337.2645
6677.7163
5392.5879
4386.4654
3590.2645
2953.6476
2439.6738
2021.0182
1677.2937
1393.1489
1156.9106
959.61077
794.28569
655.46632
538.80658
440.80964
358.62535
289.89948
232.66132
185.23975
146.20102
114.30268
88.460126
67.722291
51.254232
38.324513
28.295734
20.616962
14.817081
10.498421
7.3302633
5.0418293
3.4146282
2202426.2
1637737.8
1209812.2
889265.09
651258.22
475845.18
347349.46
253666.63
185594.65
136231.13
100457.32
74513.335
55659.099
41910.382
31837.304
24413.107
18902.153
14777.916
11663.473
9288.6345
7459.2509
6035.3202
4915.4292
4025.7136
3312.027
2734.3896
2263.0461
1875.659
1555.305
1289.0375
1066.8517
880.93373
725.11333
594.46226
484.99714
393.45867
317.14676
253.79705
201.48843
158.574
123.62976
95.416811
72.853573
54.995435
41.019554
30.213108
21.96363
15.750433
11.136483
7.7603691
5.3278077
3.6019421
2229960.6
1664400.9
1234519.3
911413.34
670626.43
492464.34
361402.66
265417.01
195336.03
144256.25
107039.17
79895.73
60053.293
45495.435
34762.552
26801.621
20854.496
16375.773
12972.945
10363.11
8341.8317
6760.8299
5512.0547
4516.3293
3715.2556
3065.4468
2534.4118
2097.6092
1736.3327
1436.187
1185.9835
976.93561
802.06944
655.78833
533.55001
431.62533
346.91745
276.82582
219.14385
171.9821
133.71078
102.9169
78.372316
59.00989
43.905169
32.261907
23.399916
16.744197
11.81474
8.2167799
5.6309023
2259110.9
1692816.1
1261015
935291.02
691606.17
510545.42
376755.33
278304.3
206059.67
153121.53
114333.9
85879.096
64951.479
49501.356
38038.024
29480.718
23047.321
18172.189
14446.002
11572.064
9334.712
7576.5876
6182.3251
5066.8634
4167.0735
3435.7613
2837.3652
2344.8604
1937.5245
1599.3185
1317.7069
1082.7939
886.68719
723.02561
586.6274
473.22607
379.27156
301.78009
238.22057
186.42885
144.543
110.95454
84.271588
63.290766
46.975253
34.437026
24.921767
17.795304
12.530929
8.6976268
5.9497018
2289772.7
1722911.6
1289270.8
960900.44
714221.33
530126.49
393453.77
292378.45
217815.88
162875.4
122386.57
92504.333
70390.021
53959.941
41691.131
32473.734
25500.277
20183.542
16096.167
12926.557
10446.857
8489.7936
6931.9681
5681.827
4670.996
3848.0405
3173.9648
2618.9554
2160.018
1779.2551
1462.6041
1198.909
979.2324
796.34233
644.32853
518.31277
414.22978
328.6611
258.70869
201.89888
156.10928
119.51307
90.536429
67.825359
50.219471
36.730351
26.523029
18.899259
13.28189
2321797.1
1754580.6
1319220.3
988210.96
738468.8
551223.96
411527.19
307676.1
230644.68
173558.34
131236.15
99807.624
76401.637
58900.143
45747.039
35802.21
28231.554
22425.001
17935.942
14436.779
11686.481
9506.9935
7766.1389
6365.2293
5230.0985
4304.6078
3545.9354
2921.149
2404.7038
1976.6095
1621.08
1325.5335
1079.8488
875.80685
706.67183
566.87268
451.7617
357.43018
280.56753
218.35337
168.37482
128.56272
97.142267
72.594009
53.622515
39.130263
28.195103
20.049877
2354943.7
1787685.1
1350750.3
1017149.4
764309.95
573825.19
430981.2
324214.87
244570.85
185198.66
140911.9
107817.44
83012.868
64345.945
50226.887
39484.399
31256.631
24909.485
19975.948
16111.335
13060.453
10633.59
8689.0188
7120.2492
5846.7493
4807.1859
3954.4939
3252.268
2672.1141
2191.6969
1793.2937
1462.7188
1188.5168
961.35637
773.57132
618.81084
491.77287
387.99932
303.7188
235.72517
181.28375
138.05821
104.05328
77.568991
57.163368
41.621138
29.92659
21.238741
3113450.7
2388624.8
1821934.3
1383673.8
1047587.7
791660.92
597879.85
451790.2
341986.7
259598.14
197807.51
151429.11
116550.82
90240.945
70313.712
55145.562
43533.402
34586.726
27646.37
22223.848
17956.355
14573.568
11873.244
9703.325
7948.837
6522.2879
5356.6383
4400.1418
3612.547
2962.2936
2424.433
1979.0802
1610.2546
1305.0076
1052.7622
844.81073
673.93094
534.09077
420.22102
328.03938
253.91374
194.7556
147.93636
111.22077
82.713423
60.814575
44.182871
31.702984
22.455674
3143064.1
2422562.2
1856992.1
1417731.4
1079333.2
820382.04
623290.14
473888.61
360950.06
275702.43
211372.94
162783.93
126009.05
98090.052
76809.032
60509.036
47954.93
38226.921
30639.933
24683.065
19974.434
16227.676
13227.162
10809.735
8851.2491
7256.6505
5952.6701
4882.4286
4001.442
3274.6535
2674.2219
2177.8632
1767.6033
1428.8337
1149.5927
920.01619
731.91538
578.4505
453.87811
353.35417
272.78015
208.68192
158.11378
118.58162
87.980273
64.541613
46.790479
33.506375
23.688078
3171703.8
2456274.6
1892431.2
1452578.6
1112116.1
850266.43
649900.22
497161.14
381021.23
292824.01
225853.11
174947.53
136172.54
106547.02
83823.053
66311.273
52744.716
42174.009
33887.562
27351.295
22163.42
18020.689
14693.293
12006.234
9825.5241
8047.9528
6593.4979
5399.6925
4417.4277
3607.8152
2939.8355
2388.5644
1933.8312
1559.1975
1251.1759
998.62896
792.30573
624.48091
488.67406
379.42943
292.14262
222.92319
168.48492
126.05704
93.311543
68.302391
49.413841
35.315516
24.921172
3198495.5
2489110
1927710.3
1487770.9
1145577.4
881027.92
677484.9
521432.55
402065.01
310859.31
241169.01
187859.72
146995.34
115576.58
91328.44
72530.814
57885.644
46414.093
37377.769
30218.881
24515.07
19945.494
16265.447
13287.409
10866.922
8892.0464
7275.5015
5948.7887
4857.7886
3959.4502
3219.2929
2609.5128
2107.5414
1694.9427
1356.5639
1079.8801
854.48495
671.69228
524.22461
405.96714
311.77277
237.30656
178.92053
133.55165
98.637741
72.046948
52.017526
37.105649
26.137878
3222516.6
2520283.7
1962164.9
1522751.7
1179256.1
912289.34
705738.62
546457.24
423885.28
329652.32
257196.82
201422.24
158399.31
125116.34
99275.111
79127.17
63344.723
50920.071
41088.112
33267.099
27013.666
21988.829
17932.396
14643.735
11967.357
9782.0745
7992.8794
6524.8251
5318.4177
4326.1287
3509.7472
2838.3616
2286.814
1834.5108
1464.5027
1162.7698
917.66329
719.46699
560.05175
432.60126
331.39338
251.62447
189.26702
140.95313
103.87776
75.717436
54.560808
38.848492
27.318815
3242728.9
2548878.2
1995000.4
1556841.8
1212579.1
943572.1
734265.21
571909.69
446215.99
348986.47
273760.62
215492.3
170268.46
135071.93
107586.05
86037.282
69070.122
55649.172
44983.159
36466.505
29634.671
24130.206
19677.014
16060.896
13114.871
10708.066
8737.339
7120.9283
5793.6419
4703.1915
3807.3935
3072.0229
2469.1598
1975.9104
1573.4117
1246.0538
980.87009
767.05482
595.58121
458.89665
350.67817
265.63485
199.34682
148.13269
108.93927
79.248468
56.997948
40.512461
28.442448
3257957.6
2573838.5
2025286.9
1589234.2
1244854.3
974288.57
762570.21
597376.75
468713.88
368577.76
290626.12
229876.92
182444.01
145312.64
116153.61
93172.376
74988.529
60540.767
49012.708
39775.482
32343.567
26340.992
21475.562
17519.232
14293.211
11656.617
9497.8595
7728.0713
6276.0994
5084.6645
4107.4106
3306.6294
2651.4975
2116.7038
1681.3766
1328.2413
1042.9541
813.5746
630.14482
484.35152
369.25406
279.06321
208.96007
154.94645
113.71982
82.567942
59.278799
42.063099
29.485395
3266893.4
2593974.9
2051961.8
1618993.3
1275268.1
1003738.8
790056.67
622353.11
490953.78
388070.15
307496.28
244328.99
194720.73
155668.3
124836.77
100415.65
81003.23
65514.79
53110.495
43139.22
35095.053
28583.791
23297.217
18993.389
15481.576
12610.714
10260.574
8334.998
6756.6954
5463.2365
4403.9539
3537.5377
2830.1617
2254.0178
1786.1626
1407.6072
1102.5947
858.02416
662.98889
508.40437
386.70678
291.60694
217.88805
161.23793
118.10872
85.598398
61.349771
43.463761
30.422892
3268110.2
2607975.9
2073839
1645062.1
1302890.4
1031113.2
816026.52
646241.49
512428.04
407034.56
324010.06
258545.83
206845.65
165927.97
133460.01
107621.3
86993.297
70471.094
57193.71
46489.356
37832.797
30812.281
25103.982
20452.287
16654.623
13549.764
11008.819
8928.2834
7224.6661
5830.3233
4690.2166
3759.383
3000.9525
2384.5873
1885.2497
1482.2219
1158.3265
899.30005
693.28987
530.44615
402.59018
302.94242
225.89832
166.84193
121.98976
88.258963
63.1552
44.67656
31.229442
3260093.9
2614432.9
2089630
1666279.5
1326688.7
1055503.9
839689.18
668359.35
532551.67
424972.7
339745.3
272171.44
218519.73
175841.32
141814.4
114615.45
92814.376
75290.138
61163.604
49744.526
40489.939
32971.68
26851.112
21859.499
17782.809
14449.905
11723.403
9492.5656
7667.7786
6176.2371
4958.5718
3966.1989
3159.2329
2504.8343
1975.8972
1550.0026
1208.5793
936.22845
720.17793
549.83813
416.43956
312.73477
232.75192
171.58961
125.24485
90.467922
64.639121
45.663573
31.879627
3241287.7
2611879.1
2097977.7
1681409.5
1345552.6
1075925.4
860179.15
687953.48
550674.4
441327.14
354227.08
284803.35
229403.55
185123.35
149661.57
121199.43
98301.484
79835.357
64907.505
52812.076
42990.547
34999.978
28488.151
23174.137
18833.134
15284.623
12383.125
10010.978
8072.6871
6490.4784
5200.8092
4151.6066
3300.081
2610.9875
2055.2375
1608.7854
1251.7335
967.60746
742.7688
565.93551
427.78905
320.65054
238.21246
175.31502
127.75864
92.145862
65.747425
46.388307
32.349087
3210150.4
2598843.1
2097504.1
1689183.5
1358331.2
1091347
876583.73
704223.75
566100.97
455498.43
366942.16
296004.9
239127.67
193463.08
156741.01
127155.98
103274.17
83957.486
68302.438
55591.097
45252.146
36830.044
29960.694
24352.3
19770.34
16025.737
12965.576
10465.799
8425.4551
6762.1538
5408.4681
4309.0779
3418.4948
2699.2426
2120.3987
1656.4196
1286.1917
992.26036
760.20327
578.11649
436.19273
326.37287
242.05689
177.86263
129.42371
93.219313
66.430337
46.817364
32.615631
3165232.3
2573918
2086873.3
1688356.6
1363883
1100736.8
887981.65
716356.65
578120.02
466869.97
377360.25
305323.22
247307.89
200536.49
162780.93
132258.32
107544.14
87500.948
71220.449
57976.832
47189.373
38392.642
31212.85
25349.094
20558.548
16644.726
13448.209
10839.306
8712.2374
6980.5149
5573.2594
4432.265
3509.6479
2765.9571
2168.6536
1690.8797
1310.4619
1009.0978
771.69285
585.81544
441.24851
329.61859
244.0876
179.0958
130.14645
93.624732
66.645112
46.922248
32.660428
3105264.1
2535843.8
2064867
1677776.2
1361138
1103116.8
893491.77
723567.96
586041.25
474840.07
384961.53
312312.88
253565.27
206023.43
167512.59
136282.19
110925.34
90312.197
73535.511
59866.39
48718.66
39620.259
32190.368
26121.161
21163.3
17114.364
13809.64
11114.808
8920.0918
7135.5938
5687.5597
4515.3803
3569.18
2807.8724
2197.5865
1710.3901
1323.2505
1017.1856
776.56912
588.55849
442.62361
330.15613
244.14496
178.90551
129.85305
93.312584
66.358785
46.681195
32.469222
3029255.7
2483600.6
2030471
1656461.3
1349168.7
1097627.4
892330.03
725152.99
589239.29
478860.06
389269.55
316563.95
257550.14
209627.96
170687.34
139020.13
113245.79
92249.599
75131.683
61165.433
49763.708
40451.553
32844.228
26629.569
21553.871
17410.556
14031.103
11277.79
9037.8701
7218.893
5744.9427
4553.6029
3593.5053
2822.3445
2205.2661
1713.5532
1323.556
1015.8133
774.33311
585.99889
440.07952
327.82315
242.1196
177.21877
128.49528
92.251246
65.550783
46.080909
32.033465
2936600.3
2416506.1
1982965.5
1623685.9
1327266.8
1083595.6
883870.97
720540.94
587201.5
478475.88
389887.11
317732.83
258968.27
211100.48
172095.29
140297.07
114360.62
93194.14
75911.91
61795.372
50261.329
40836.073
33134.435
26842.84
21705.669
17514.239
14097.935
11317.066
9057.1132
7224.0733
5740.7031
4543.4757
3580.1107
2807.5676
2190.4098
1699.47
1310.7566
1004.5571
764.70054
577.94901
433.49458
322.54223
237.96319
174.00605
126.05545
90.430373
64.215174
45.118048
31.351298
2827173.4
2334309.8
1922013.9
1579061
1295018.3
1060603.3
867708.54
709348.98
579575.42
473369.49
386532.06
315572.96
257607.07
210259.89
171583.88
139985.82
114164.83
93059.971
75806.638
61700.368
50167.095
40738.795
33033.635
26739.817
21602.494
17413.14
14000.942
11225.837
8972.86
7147.5686
5672.3209
4483.2523
3527.8137
2762.7625
2152.5226
1667.8402
1284.6825
983.33144
747.63792
564.40562
422.88143
314.33283
231.69668
169.28681
122.55021
87.86338
62.362304
43.8003
30.428251
2701416.7
2237273.5
1847738.7
1522605.2
1252368.1
1028546.9
843709.81
691430.04
566211.03
463395.7
379069.22
309962.15
253358.77
207013.13
169074.22
138020.67
112604.53
91803.576
74781.269
60853.34
49460.157
40143.951
32530.138
26312.03
21238.378
17103.201
13737.499
11002.52
8784.2722
6989.0532
5539.8073
4373.1516
3436.947
2688.3115
2091.9922
1619.0302
1245.6631
952.42167
723.38506
545.56515
408.39736
303.31825
223.41478
163.13248
118.03242
84.588705
60.019614
42.146908
29.277581
2560396.7
2126227.8
1760775.7
1454796.5
1199668.5
987680.58
812054.51
666908.29
547192.05
448609.64
367534.07
300922.93
246237.73
201369.7
164573.22
134407.3
109685.05
89430.355
72841.439
59260.169
48146.558
39057.621
31629.927
25565.241
20618.76
16589.462
13312.195
10651.231
8494.9849
6751.6929
5345.8828
4215.4811
3309.4439
2585.8141
2010.1263
1554.0961
1194.5414
912.49262
692.45997
521.82628
390.34537
289.72591
213.28602
155.66627
112.59097
80.669575
57.231451
40.188526
27.920164
2405824.5
2002593.7
1662296
1376593.4
1137700
938637.09
773253.94
636196.28
522851.38
429280.28
352144.57
288632.59
236388.87
193448.71
158179.29
129227.49
105474.65
85997.53
70035.268
56961.403
46260.5
37508.652
30357.306
24519.887
19760.778
15886.239
12736.939
10181.828
8113.1143
6442.1299
5095.9485
4014.6029
3148.8016
2458.0529
1909.1213
1474.7573
1132.6513
864.56992
655.64373
493.77802
369.16514
273.88051
201.54755
147.05944
106.34807
76.192138
54.057774
37.966333
26.383885
2240030.2
1868361.2
1553988.7
1289421.8
1067660.3
882418.64
728144.01
599989.53
493766.7
405886.94
333298.17
273420.67
224085.44
183476.83
150080.51
122637.35
100102.92
81612.661
66451.984
54031.001
43863.207
35547.638
28753.996
23210.281
18692.564
15016.522
12030.442
9609.4749
7650.8905
6070.1782
4797.8363
3776.73
2959.9183
2308.8639
1791.9601
1383.3161
1061.7562
809.993
613.94517
462.17341
345.41351
256.18987
188.49503
137.52407
99.454195
71.261958
50.571769
35.530426
24.702505
2065885.9
1726020.7
1438000
1195121.2
991118.1
820356.69
677850.41
559236.46
460734.68
379097.09
311552.86
255752.74
209715.24
171776.52
140544.66
114858.87
93753.632
76427.598
62216.835
50572.056
41039.342
33243.934
26876.651
21682.561
17451.567
14010.592
11217.096
8953.7326
7123.9299
5648.243
4461.3485
3509.5652
2748.8105
2142.9171
1662.2436
1282.5298
983.95188
750.34261
568.54698
427.8899
319.7358
237.12419
174.46782
127.30268
92.080867
65.99905
46.856471
32.937535
22.914045
1886678.1
1578448
1316830.9
1095853.5
909931.99
754041.2
623726.94
515084.9
424724.84
349726.76
287593.33
236201.57
193756.11
158745.44
129901.79
106165.33
86652.487
70628.298
57482.635
46709.808
37891.26
30680.94
24793.014
19991.565
16082.021
12903.994
10325.345
8237.2676
6550.2107
5190.5149
4097.6285
3221.8107
2522.2356
1965.4277
1523.971
1175.4445
901.54231
687.34863
520.73796
391.87995
292.82999
217.19053
159.83091
116.65549
84.411799
60.531779
43.000551
30.247882
1705938.6
1428751.2
1193198.8
993980.13
826142.11
685225.04
567272.01
468809.71
386817.04
318686.96
262185.17
215408.28
176743.14
144828.69
118521.03
96861.961
79051.102
64421.566
52418.844
42582.694
34531.695
27950.161
22577.105
18196.961
14631.842
11735.057
9385.7255
7484.2997
5948.856
4712.0199
3718.4231
2922.6012
2287.2566
1781.8247
1381.2897
1065.2079
816.9002
622.78686
471.83731
355.116
265.40712
196.90442
144.95482
105.84638
76.633123
54.990094
39.093369
1527246.5
1280091.5
1069877.4
891919.04
741843.43
615712.88
510031.76
421728.77
348129.22
286921.71
236122.2
194037.72
159231
130487.4
106784.4
87264.123
71208.97
58020.216
47199.422
38332.437
31075.721
25144.711
20304.002
16359.06
13149.296
10542.256
8428.7772
6718.9674
5338.8573
4227.629
3335.3187
2620.9164
2050.795
1597.4126
1238.2404
954.8786
732.32548
558.3749
423.11857
318.53528
238.15157
176.76159
130.19559
95.128818
68.923573
49.498696
1354021.6
1135496.9
949529.25
791996.19
659054.89
547246.57
453500.32
375116.76
309743.29
255344.87
210172.82
172733.15
141756.03
116166.97
95060.356
77675.532
63375.536
51628.395
41990.859
34094.345
27632.913
22353.01
18044.794
14534.803
11679.817
9361.6958
7483.0756
5963.7881
4737.8789
3751.1344
2959.0312
2325.0396
1819.2193
1417.0602
1098.5236
847.25211
649.91657
495.67746
375.74046
282.98971
211.68505
157.21221
115.8766
84.733101
61.445418
44.168809
1189330.4
997687.62
834550.82
696308.04
579598.49
481399.52
399028.3
330126.41
272637.75
224782.83
185031.51
152075.56
124802.11
102268.73
83680.432
68368.991
55774.42
45428.732
36941.757
29988.892
24300.587
19653.378
15862.278
12774.352
10263.317
8225.0066
6573.5829
5238.3782
4161.2677
3294.4871
2598.8227
2042.113
1598.0086
1244.9479
965.31087
744.72051
571.46661
436.03018
330.6913
249.20562
186.53758
138.64027
102.27398
74.856384
54.339037
39.103937
1035725.9
868933.4
726945.08
606609.66
505001.37
419491.76
347749.43
287725.59
237634.16
195929.14
161280.8
132551.8
108774.26
89128.093
72921.233
59571.66
48591.438
39572.627
32175.007
26115.45
21158.796
17110.061
13807.82
11118.615
8932.2479
7157.8306
5720.477
4558.5483
3621.3583
2867.2667
2262.0984
1777.8333
1391.523
1084.3956
841.1164
649.17716
498.39323
380.48816
288.7515
217.75658
163.12792
121.34943
89.606383
65.655051
47.715263
34.38049
895136.46
750955.1
628235.58
524239.5
436430.6
362533.62
300532.41
248656.35
205362.47
169315.49
139366.93
114534.47
93981.996
77000.984
62993.376
51456.121
41967.401
34174.498
27783.203
22548.655
18267.465
14770.986
11919.601
9597.8896
7710.5574
6179.0192
4938.5371
3935.8366
3127.1199
2476.4149
1954.2064
1536.3015
1202.8925
937.78051
727.73646
561.97237
431.70608
329.80222
250.47628
189.05079
141.75442
105.55644
78.030286
57.24128
41.653924
30.054453
768815.45
644880.76
539428.31
450086.66
374665.22
311202.12
257961
213418.34
176247.38
145300.46
119590.8
98274.529
80633.492
66059.145
54037.84
44137.528
35995.93
29310.111
23827.394
19337.486
15665.72
12667.278
10222.279
8231.6305
6613.5307
5300.5318
4237.0816
3377.4734
2684.1388
2126.2291
1678.4381
1320.0281
1034.0231
806.54329
626.2553
483.91845
372.01103
284.42222
216.19817
163.33296
122.59634
91.391956
67.64048
49.683478
36.204096
26.160776
657350.96
551255.66
461021.58
384600.34
320105.15
265849.19
220341.62
182275.74
150514.54
124075.16
102112.94
83905.848
68839.571
56393.706
46129.077
37676.338
30725.825
25018.637
20338.844
16506.762
13373.163
10814.337
8727.8912
7029.1985
5648.4113
4527.9466
3620.3852
2886.7187
2294.8898
1818.5795
1436.2013
1130.0677
885.70234
691.26999
537.10769
415.33718
319.54582
244.52359
186.04653
140.69844
105.72398
78.90783
58.475178
43.009779
31.386443
22.714573
560730.79
470100.75
393057.91
327835.7
272811.39
226536.83
187733.89
155283.62
128213.29
105682.69
86970.216
71459.313
58625.667
48025.258
39283.488
32085.398
26166.983
21307.557
17323.099
14060.501
11392.625
9214.0901
7437.6874
5991.3499
4815.604
3861.4261
3088.4508
2463.4768
1959.2223
1553.2916
1227.3174
966.2516
757.77819
591.82889
460.18317
356.13855
274.23898
210.05104
159.97972
121.11674
91.115662
68.089201
50.524598
37.214041
27.197277
19.71355
478450.91
401007.99
335207.6
279526.65
232569.25
193091.63
159997.48
132328.1
109250.87
90047.157
74100.221
60883.407
49949.062
40918.249
33471.389
27339.866
22298.581
18159.409
14765.515
11986.432
9713.8405
7857.9699
6344.5394
5112.1732
4110.2258
3296.9546
2637.9922
2105.0728
1674.9716
1328.624
1050.395
827.47526
649.38066
507.5401
394.95482
305.91782
235.78258
180.77266
137.82495
104.4606
78.678862
58.869684
43.741802
32.263555
23.614049
409654.12
343259.23
286871.17
239174.23