/*--------------------------------*- C++ -*----------------------------------*\
| =========                 |                                                 |
| \\      /  F ield         | OpenFOAM: The Open Source CFD Toolbox           |
|  \\    /   O peration     | Version:  2312                                  |
|   \\  /    A nd           | Website:  www.openfoam.com                      |
|    \\/     M anipulation  |                                                 |
\*---------------------------------------------------------------------------*/
FoamFile
{
    version     2.0;
    format      ascii;
    arch        "LSB;label=32;scalar=64";
    class       volScalarField;
    location    "0.08";
    object      CO2;
}
// * * * * * * * * * * * * * * * * * * * * * * * * * * * * * * * * * * * * * //

dimensions      [0 0 0 0 0 0 0];

internalField   nonuniform List<scalar> 
3272
(
0.012538043
0.012737447
0.012931347
0.013119684
0.013302383
0.013479374
0.013650591
0.013815976
0.013975474
0.014129035
0.014276614
0.014418169
0.014553663
0.014683058
0.014806323
0.014923427
0.015034342
0.01513904
0.015237499
0.015329697
0.015415617
0.015495248
0.015567241
0.015633004
0.015692823
0.015747004
0.015794769
0.015836103
0.015870987
0.015899388
0.015921031
0.015936472
0.01594562
0.015948333
0.015944677
0.01593459
0.015918061
0.015895158
0.015865911
0.015830354
0.015788531
0.01574049
0.015686287
0.015625985
0.015559655
0.015487375
0.015409232
0.015325319
0.015235737
0.015140597
0.015040013
0.014934107
0.014823003
0.01262721
0.012826677
0.013020576
0.013208847
0.013391418
0.013568221
0.013739193
0.013904278
0.014063425
0.014216585
0.014363718
0.014504785
0.014639749
0.014768578
0.014891241
0.01500771
0.01511796
0.015221964
0.015319698
0.01541114
0.015496271
0.015575079
0.015646252
0.015711185
0.015770347
0.015823675
0.015870587
0.015911077
0.015945151
0.015972356
0.01599318
0.016007787
0.016016033
0.016017829
0.016013262
0.016002227
0.015984757
0.015960907
0.015930707
0.015894192
0.015851406
0.015802396
0.015747219
0.015685938
0.015618625
0.015545358
0.015466224
0.015381317
0.015290741
0.015194606
0.015093032
0.014986142
0.014874045
0.012795717
0.012995205
0.013188996
0.013377035
0.013559258
0.0137356
0.013906006
0.014070425
0.014228811
0.014381124
0.014527327
0.014667386
0.014801271
0.014928955
0.015050413
0.01516562
0.015274555
0.015377196
0.01547352
0.015563503
0.015647101
0.015724228
0.015793857
0.01585723
0.015915058
0.015966758
0.016012022
0.016050841
0.016083214
0.0161087
0.016127839
0.016140788
0.016147311
0.016147376
0.016141087
0.016128275
0.016109045
0.016083425
0.016051447
0.016013146
0.015968565
0.015917754
0.015860768
0.015797672
0.015728536
0.01565344
0.01557247
0.015485722
0.0153933
0.015295314
0.015191885
0.015083136
0.014969175
0.013035131
0.013234465
0.013427919
0.01361545
0.013797001
0.013972518
0.014141953
0.014305266
0.014462418
0.014613379
0.014758119
0.014896613
0.01502884
0.015154778
0.01527441
0.015387719
0.015494692
0.015595315
0.015689579
0.015777481
0.015859047
0.015932946
0.016000746
0.016061961
0.016117747
0.016167113
0.01621001
0.016246421
0.016276328
0.016299411
0.016316207
0.016326753
0.016330828
0.016328474
0.016319691
0.016304402
0.016282691
0.016254583
0.016220108
0.016179303
0.016132211
0.016078881
0.016019368
0.015953738
0.015882061
0.015804417
0.015720893
0.015631584
0.015536594
0.015436036
0.015330028
0.015218695
0.015102145
0.013338178
0.013537052
0.013729821
0.013916455
0.014096909
0.014271142
0.014439118
0.014600808
0.014756185
0.01490523
0.015047924
0.015184253
0.015314204
0.015437767
0.015554933
0.015665694
0.015770045
0.01586798
0.015959489
0.016044547
0.016123066
0.016193955
0.016258583
0.016317461
0.016370306
0.016416675
0.01645656
0.016489935
0.016516458
0.016536583
0.016550476
0.016557944
0.01655893
0.016553523
0.016541591
0.016523194
0.01649837
0.016467144
0.016429546
0.016385614
0.016335389
0.01627892
0.016216265
0.016147486
0.016072655
0.01599185
0.01590516
0.015812679
0.015714511
0.015610769
0.015501572
0.015387046
0.015267299
0.013698466
0.013896448
0.014088066
0.014273306
0.014452139
0.014624538
0.014790482
0.014949958
0.015102953
0.01524946
0.015389474
0.015522995
0.015650019
0.01577055
0.015884588
0.015992137
0.016093201
0.016187791
0.01627593
0.016357683
0.01643169
0.016499254
0.016560487
0.016616213
0.01666545
0.016708205
0.016744503
0.016773842
0.016796762
0.01681337
0.016823659
0.016827455
0.01682481
0.016815708
0.016800086
0.016778017
0.016749523
0.016714627
0.01667336
0.016625759
0.016571864
0.016511724
0.016445397
0.016372943
0.016294434
0.016209949
0.016119575
0.016023406
0.015921546
0.015814108
0.015701212
0.015582983
0.01545953
0.014110277
0.014306816
0.014496705
0.014679951
0.014856542
0.015026471
0.015189734
0.015346335
0.015496278
0.015639572
0.015776229
0.015906259
0.016029676
0.016146494
0.016256725
0.016360381
0.016457472
0.016548005
0.016631977
0.016709359
0.016779032
0.016842412
0.016900153
0.01695164
0.016996629
0.017035114
0.017067084
0.017092163
0.017110901
0.017123435
0.017129504
0.017129099
0.017122303
0.017108956
0.017089156
0.017062918
0.017030263
0.016991215
0.016945804
0.016894064
0.016836037
0.01677177
0.016701318
0.016624743
0.016542115
0.016453511
0.016359017
0.016258729
0.016152748
0.016041188
0.015924167
0.015801812
0.015674231
0.014568412
0.014762842
0.014950321
0.015130877
0.01530452
0.015471264
0.015631127
0.01578413
0.015930299
0.016069659
0.016202239
0.016328068
0.016447172
0.016559579
0.016665316
0.016764404
0.016856864
0.016942712
0.017021958
0.017093547
0.017158666
0.017217926
0.01727111
0.017317795
0.017357984
0.017391678
0.01741851
0.017438957
0.017453189
0.01746101
0.017462369
0.017457341
0.017445815
0.017427819
0.01740339
0.017372545
0.017335301
0.017291682
0.017241715
0.017185434
0.017122879
0.017054095
0.016979137
0.016898064
0.016810944
0.016717855
0.016618881
0.016514116
0.016403661
0.016287628
0.016166135
0.016039306
0.015907248
0.015068064
0.015259618
0.015443911
0.015620996
0.015790908
0.015953685
0.016109368
0.016258
0.016399626
0.016534295
0.016662051
0.016782942
0.016897011
0.017004301
0.017104852
0.0171987
0.017285878
0.017366411
0.017439218
0.017505544
0.017565787
0.017620131
0.017667967
0.017709313
0.017744181
0.017772183
0.017793827
0.017809258
0.017818333
0.017820971
0.017817232
0.017807055
0.017790418
0.017767369
0.01773792
0.017702085
0.01765988
0.017611327
0.017556452
0.017495287
0.017427869
0.017354242
0.017274457
0.017188573
0.017096656
0.016998781
0.01689503
0.016785497
0.016670281
0.016549494
0.016423251
0.016291671
0.016154819
0.015604727
0.015792547
0.015972797
0.016145558
0.016310892
0.016468864
0.016619539
0.016762984
0.016899269
0.01702846
0.017150625
0.017265828
0.017374133
0.017475597
0.017570275
0.017658216
0.017739466
0.017812918
0.017879867
0.017940552
0.017995485
0.018043896
0.018085841
0.018121335
0.018149971
0.018172283
0.018188405
0.018198232
0.018201661
0.018198743
0.018189451
0.018173731
0.018151639
0.018123182
0.018088369
0.018047212
0.017999727
0.017945933
0.017885852
0.017819515
0.017746955
0.017668214
0.01758334
0.017492389
0.017395425
0.01729252
0.017183755
0.017069221
0.016949018
0.016823255
0.016692052
0.016174127
0.016357279
0.016532561
0.016700086
0.016859946
0.017012232
0.017157036
0.017294452
0.017424572
0.017547486
0.017663283
0.017772048
0.017873859
0.017968794
0.01805692
0.018138303
0.018211822
0.018278819
0.018339444
0.018394386
0.018442808
0.018484702
0.018520271
0.018549011
0.018571465
0.018587773
0.01859784
0.018601566
0.018598998
0.018590125
0.018574879
0.018553319
0.01852545
0.018491276
0.018450805
0.018404046
0.018351011
0.018291717
0.018226183
0.018154436
0.018076506
0.017992432
0.017902258
0.017806036
0.017703829
0.017595704
0.017481741
0.017362027
0.017236658
0.01710574
0.016969368
0.016772172
0.016949661
0.017119
0.017280335
0.017433787
0.017579479
0.017717529
0.017848058
0.017971182
0.018087016
0.018195671
0.018297251
0.018391854
0.01847957
0.018560486
0.018633479
0.018699927
0.018760003
0.018814352
0.018862238
0.018903715
0.018938307
0.018966777
0.018988857
0.019004846
0.019014636
0.019018157
0.019015459
0.019006529
0.018991309
0.018969852
0.01894216
0.018908237
0.018868084
0.018821707
0.01876911
0.018710303
0.018645297
0.01857411
0.018496763
0.018413283
0.018323704
0.018228066
0.018126419
0.018018819
0.017905333
0.017786034
0.017661007
0.017530347
0.017394155
0.017252521
0.017394924
0.017565711
0.017728096
0.017882257
0.01802835
0.018166525
0.018296931
0.018419714
0.018535015
0.018642974
0.018743726
0.018837394
0.018924093
0.019003929
0.019075791
0.019141081
0.019200098
0.019253212
0.019299911
0.019340235
0.019373721
0.019401228
0.019422318
0.019437441
0.019446418
0.019449219
0.019445901
0.019436428
0.019420774
0.019398979
0.019371046
0.019336976
0.019296766
0.019250417
0.019197929
0.019139304
0.019074545
0.019003662
0.018926665
0.018843572
0.018754405
0.018659193
0.018557972
0.018450786
0.018337689
0.018218741
0.018094013
0.017963587
0.017827553
0.01768601
0.017539045
0.018038571
0.018201592
0.018355993
0.018501989
0.018639766
0.018769506
0.018891386
0.019005575
0.019112239
0.019211542
0.019303656
0.019388718
0.01946685
0.019536965
0.019600479
0.019657904
0.019709202
0.019754014
0.019792625
0.019824367
0.019850392
0.01986995
0.019883653
0.019891272
0.019892824
0.019888385
0.01987787
0.01986131
0.019838726
0.019810121
0.019775493
0.019734839
0.019688154
0.019635434
0.019576674
0.019511871
0.019441025
0.019364138
0.019281216
0.019192271
0.01909732
0.018996387
0.018889503
0.018776707
0.018658046
0.018533577
0.018403367
0.018267492
0.01812604
0.017979106
0.017826776
0.018699427
0.018853608
0.018998996
0.019135839
0.019264357
0.01938476
0.019497252
0.019602029
0.019699267
0.019789144
0.019871925
0.019947738
0.020015483
0.02007659
0.020131793
0.020180725
0.020223287
0.020259025
0.020288922
0.020312457
0.020330085
0.020341818
0.020347546
0.02034731
0.020341238
0.020329172
0.020311221
0.020287383
0.020257659
0.02022205
0.02018055
0.02013315
0.020079843
0.020020618
0.019955465
0.019884375
0.019807343
0.019724365
0.019635441
0.019540577
0.019439783
0.019333078
0.019220487
0.019102043
0.018977789
0.018847775
0.018712063
0.018570726
0.018423846
0.018271516
0.018113819
0.019373925
0.019518203
0.019653562
0.019780287
0.019898628
0.020008822
0.020111101
0.020205696
0.020292774
0.02037239
0.020445232
0.020510083
0.020568139
0.02062047
0.020666252
0.020705874
0.02073858
0.0207657
0.020786434
0.020801428
0.020810554
0.020813825
0.020811296
0.020802995
0.020788898
0.020769055
0.020743482
0.020712181
0.020675152
0.020632388
0.020583879
0.020529614
0.020469576
0.02040375
0.020332121
0.020254674
0.020171395
0.020082274
0.019987306
0.019886489
0.019779828
0.019667333
0.019549025
0.019424929
0.019295083
0.019159531
0.019018331
0.018871548
0.018719261
0.018561559
0.018398523
0.020058627
0.020191961
0.020316307
0.020431983
0.020539271
0.020638425
0.020729692
0.02081343
0.02088984
0.020957885
0.021019366
0.021074249
0.021122791
0.021165082
0.021200478
0.021230221
0.021253503
0.021270973
0.021282755
0.021288715
0.021288929
0.021283566
0.021272487
0.021255822
0.021233582
0.021205782
0.021172431
0.021133527
0.021089067
0.021039039
0.020983427
0.020922213
0.020855375
0.020782891
0.020704739
0.020620896
0.020531343
0.020436062
0.020335041
0.02022827
0.020115746
0.019997476
0.019873469
0.019743747
0.019608339
0.019467285
0.019320636
0.019168453
0.019010808
0.018847785
0.018679463
0.020750228
0.020871616
0.020984006
0.02108775
0.021183173
0.02127052
0.021349904
0.021422148
0.02148604
0.021542926
0.021593752
0.021638138
0.021675486
0.02170691
0.021732483
0.02175169
0.021765263
0.021773101
0.021775291
0.021771947
0.021763068
0.021748717
0.021728942
0.021703779
0.021673248
0.021637358
0.021596114
0.02154951
0.021497535
0.021440172
0.021377399
0.021309191
0.021235519
0.021156353
0.021071665
0.020981423
0.020885601
0.020784172
0.020677118
0.02056442
0.020446069
0.020322062
0.020192403
0.020057106
0.019916193
0.019769698
0.019617665
0.01946015
0.01929722
0.019128953
0.01895542
0.02144557
0.021554058
0.021653604
0.021744576
0.021827424
0.021902439
0.021968608
0.022027929
0.022080222
0.022126213
0.022164991
0.022197579
0.02222436
0.022244673
0.022259394
0.022268364
0.022271698
0.022269539
0.02226199
0.022249056
0.022230855
0.022207427
0.022178809
0.02214503
0.022106104
0.022062037
0.022012828
0.021958465
0.02189893
0.0218342
0.021764245
0.021689032
0.021608525
0.021522687
0.021431479
0.021334865
0.021232807
0.021125272
0.021012232
0.020893661
0.020769542
0.020639864
0.020504622
0.020363825
0.020217486
0.020065632
0.019908302
0.019745545
0.019577423
0.019404012
0.022141658
0.022236343
0.022322236
0.022399557
0.02246916
0.022530049
0.022583325
0.022630602
0.022670269
0.022703512
0.022730868
0.022751607
0.022766652
0.022775982
0.022779681
0.022777907
0.022770814
0.022758414
0.022740878
0.022718256
0.022690616
0.022658002
0.022620448
0.022577976
0.022530595
0.022478306
0.0224211
0.022358958
0.022291855
0.02221976
0.022142635
0.02206044
0.021973129
0.021880657
0.021782977
0.021680043
0.02157181
0.021458235
0.021339281
0.021214915
0.02108511
0.020949847
0.020809115
0.020662911
0.020511245
0.020354135
0.020191613
0.020023721
0.019850516
0.01967206
0.02283569
0.022915668
0.022987366
0.023049825
0.023104637
0.023152614
0.023192691
0.023226193
0.023253538
0.023274084
0.023288795
0.023297737
0.023300983
0.023298785
0.023291285
0.023278549
0.023260771
0.023238026
0.023210411
0.023177996
0.023140836
0.023098974
0.023052437
0.02300124
0.022945386
0.022884869
0.022819671
0.022749767
0.022675123
0.022595698
0.022511448
0.022422322
0.022328267
0.022229228
0.022125149
0.022015974
0.021901649
0.021782123
0.02165735
0.021527287
0.021391898
0.021251157
0.021105043
0.020953547
0.020796669
0.020634421
0.020466828
0.020293925
0.020115763
0.019932394
0.023525161
0.023589123
0.023644996
0.023693397
0.023733743
0.023767145
0.023793967
0.023813774
0.02382757
0.023835434
0.023837488
0.023834089
0.023825327
0.023811391
0.023792469
0.023768674
0.023740133
0.023706942
0.023669184
0.023626925
0.023580214
0.023529086
0.023473561
0.023413649
0.023349343
0.023280628
0.02320748
0.023129864
0.023047737
0.02296105
0.022869748
0.022773772
0.022673059
0.022567544
0.022457161
0.022341847
0.022221536
0.022096169
0.02196569
0.021830046
0.021689194
0.021543098
0.021391728
0.021235068
0.021073109
0.020905856
0.020733326
0.020555549
0.020372568
0.02018443
0.024206074
0.024254656
0.024294902
0.024327876
0.024353803
0.024372413
0.02438478
0.024390927
0.02439112
0.024385803
0.024374974
0.024359003
0.024338054
0.024312293
0.02428188
0.02424694
0.024207588
0.024163914
0.024115996
0.024063891
0.024007641
0.023947273
0.023882798
0.023814218
0.023741517
0.023664673
0.023583649
0.023498402
0.023408881
0.023315026
0.023216772
0.023114051
0.023006789
0.022894912
0.022778345
0.022657012
0.022530841
0.02239976
0.022263705
0.022122614
0.021976434
0.021825119
0.021668634
0.02150695
0.021340053
0.02116794
0.02099062
0.020808116
0.020620468
0.024877806
0.024910122
0.02493478
0.024951787
0.02496226
0.024966135
0.024963918
0.02495592
0.024942328
0.024923532
0.024899707
0.024871094
0.024837879
0.02480023
0.024758292
0.024712188
0.024662024
0.024607885
0.024549836
0.024487928
0.024422194
0.024352651
0.024279302
0.024202138
0.024121134
0.024036258
0.023947464
0.023854698
0.023757898
0.023656995
0.023551914
0.023442575
0.023328896
0.023210792
0.023088176
0.022960964
0.022829073
0.022692422
0.022550935
0.022404544
0.022253184
0.022096802
0.021935351
0.021768797
0.021597115
0.021420296
0.021238341
0.021051266
0.020859101
0.025538644
0.025553798
0.025561932
0.025563057
0.0255579
0.025546577
0.025529559
0.025507174
0.025479681
0.025447366
0.025410453
0.025369155
0.025323656
0.025274116
0.025220672
0.025163439
0.025102513
0.025037969
0.024969865
0.024898239
0.024823116
0.024744502
0.02466239
0.024576759
0.024487576
0.024394797
0.024298365
0.024198216
0.024094278
0.02398647
0.023874707
0.023758899
0.023638953
0.023514772
0.023386261
0.023253324
0.023115869
0.022973804
0.022827045
0.022675512
0.022519132
0.022357841
0.022191585
0.022020322
0.021844017
0.021662654
0.021476227
0.021284745
0.02108823
0.026185717
0.026183799
0.026175138
0.026159968
0.026138893
0.026112216
0.026080301
0.026043468
0.026001995
0.02595614
0.02590613
0.025852165
0.025794419
0.025733042
0.025668162
0.025599884
0.025528292
0.025453451
0.025375407
0.025294189
0.025209808
0.02512226
0.025031528
0.024937579
0.024840369
0.024739841
0.024635929
0.024528558
0.024417643
0.024303094
0.024184814
0.024062702
0.023936654
0.023806564
0.023672325
0.023533832
0.02339098
0.02324367
0.023091806
0.022935299
0.022774066
0.022608036
0.022437144
0.022261339
0.02208058
0.021894842
0.02170411
0.021508389
0.021307696
0.026817773
0.026798346
0.026772623
0.026741013
0.026703965
0.026661839
0.026614977
0.026563687
0.02650824
0.026448884
0.026385832
0.026319274
0.026249372
0.026176266
0.026100069
0.026020875
0.025938756
0.025853765
0.025765936
0.025675284
0.025581811
0.025485499
0.025386319
0.025284227
0.025179166
0.025071069
0.024959857
0.024845444
0.024727734
0.024606625
0.024482009
0.024353774
0.024221805
0.024085986
0.023946198
0.023802327
0.023654257
0.023501879
0.023345086
0.023183781
0.023017872
0.022847277
0.022671923
0.02249175
0.02230671
0.022116769
0.021921906
0.021722119
0.027433087
0.027395996
0.02735315
0.027304999
0.027251954
0.027194377
0.027132595
0.027066901
0.026997558
0.026924796
0.026848816
0.026769795
0.02668788
0.026603197
0.026515847
0.026425909
0.026333442
0.026238486
0.02614106
0.026041168
0.025938798
0.025833919
0.02572649
0.025616454
0.025503742
0.025388275
0.025269963
0.025148706
0.025024398
0.024896925
0.024766168
0.024632004
0.024494307
0.024352949
0.024207803
0.02405874
0.023905639
0.023748377
0.02358684
0.023420919
0.023250514
0.023075533
0.022895896
0.022711534
0.022522389
0.022328421
0.022129601
0.021925921
0.028030392
0.027975556
0.027915572
0.027850887
0.027781892
0.027708935
0.027632329
0.027552352
0.027469249
0.027383235
0.027294496
0.027203191
0.027109453
0.027013392
0.026915093
0.026814622
0.026712021
0.026607317
0.026500514
0.026391603
0.026280557
0.026167334
0.026051877
0.025934118
0.025813975
0.025691356
0.025566158
0.025438272
0.025307577
0.02517395
0.025037259
0.02489737
0.024754147
0.02460745
0.024457141
0.024303083
0.024145142
0.023983188
0.023817094
0.023646744
0.023472028
0.023292845
0.023109107
0.022920734
0.022727664
0.022529846
0.022327246
0.022119849
0.028608556
0.028535995
0.028458935
0.028377806
0.028292979
0.028204786
0.028113519
0.028019438
0.027922769
0.02782371
0.027722429
0.027619066
0.027513738
0.027406536
0.027297531
0.02718677
0.027074283
0.026960077
0.026844145
0.026726461
0.026606985
0.02648566
0.026362417
0.026237173
0.026109835
0.025980297
0.025848445
0.025714155
0.025577297
0.025437735
0.025295327
0.025149926
0.025001386
0.024849557
0.024694289
0.024535436
0.024372853
0.0242064
0.024035942
0.023861353
0.023682513
0.023499313
0.023311656
0.023119455
0.022922639
0.022721149
0.022514945
0.022304006
0.029166634
0.029076457
0.02898246
0.028885052
0.028784582
0.028681358
0.028575652
0.028467703
0.028357717
0.028245868
0.028132307
0.028017154
0.027900506
0.027782438
0.027663001
0.027542226
0.027420125
0.027296691
0.0271719
0.027045712
0.026918071
0.026788906
0.026658135
0.026525661
0.026391377
0.026255166
0.0261169
0.025976444
0.025833656
0.025688388
0.025540485
0.025389793
0.025236151
0.025079401
0.024919382
0.024755937
0.024588913
0.024418159
0.024243531
0.024064893
0.023882118
0.023695087
0.023503695
0.023307848
0.023107465
0.022902482
0.022692849
0.022478544
0.029703853
0.029596249
0.029485529
0.029372078
0.029256216
0.029138229
0.029018363
0.028896833
0.028773822
0.028649483
0.028523944
0.028397305
0.028269643
0.028141013
0.028011447
0.02788096
0.027749544
0.027617177
0.027483819
0.027349413
0.027213889
0.027077162
0.026939135
0.026799697
0.026658729
0.026516101
0.026371671
0.026225294
0.026076816
0.025926075
0.025772908
0.025617148
0.025458625
0.025297168
0.025132609
0.024964779
0.024793515
0.024618659
0.024440056
0.024257561
0.024071039
0.023880363
0.023685419
0.023486106
0.023282335
0.023074034
0.022861148
0.022643648
0.030219608
0.03009484
0.029967682
0.029838485
0.029707543
0.029575112
0.029441414
0.029306636
0.029170936
0.029034446
0.028897267
0.028759479
0.028621138
0.028482278
0.028342912
0.028203036
0.028062625
0.027921639
0.027780021
0.027637699
0.027494588
0.027350588
0.027205588
0.027059463
0.026912082
0.026763299
0.026612964
0.026460917
0.026306992
0.026151018
0.02599282
0.02583222
0.025669037
0.025503091
0.025334203
0.025162195
0.024986895
0.024808134
0.024625751
0.024439591
0.024249509
0.024055373
0.023857059
0.023654458
0.023447475
0.023236031
0.023020063
0.022799538
0.030713446
0.030571848
0.030428598
0.030284012
0.030138354
0.02999185
0.029844691
0.029697039
0.029549024
0.029400753
0.029252303
0.029103732
0.028955072
0.028806337
0.028657521
0.028508598
0.028359528
0.028210251
0.028060696
0.027910773
0.027760382
0.027609408
0.027457726
0.027305198
0.027151679
0.026997012
0.026841033
0.026683571
0.026524449
0.026363483
0.026200489
0.026035277
0.025867658
0.02569744
0.025524435
0.025348457
0.025169323
0.024986855
0.024800884
0.024611248
0.024417793
0.024220378
0.024018873
0.023813162
0.023603141
0.023388725
0.023169844
0.02294646
0.031185064
0.031027031
0.030868093
0.030708528
0.030548565
0.030388399
0.030228191
0.030068074
0.02990815
0.029748498
0.029589173
0.029430206
0.029271609
0.029113374
0.028955473
0.028797862
0.028640482
0.028483256
0.028326095
0.028168895
0.028011538
0.027853897
0.027695831
0.02753719
0.027377814
0.027217536
0.027056178
0.026893558
0.026729488
0.026563774
0.026396219
0.026226625
0.026054792
0.025880519
0.025703608
0.025523864
0.025341096
0.025155118
0.024965751
0.024772825
0.02457618
0.024375666
0.024171146
0.023962497
0.023749609
0.023532389
0.02331076
0.02308468
0.031634298
0.031460279
0.031286107
0.031112016
0.030938201
0.030764823
0.030592012
0.030419868
0.030248467
0.030077861
0.029908076
0.029739123
0.029570987
0.02940364
0.029237034
0.029071106
0.028905776
0.028740951
0.028576524
0.028412376
0.028248375
0.028084377
0.027920229
0.027755767
0.027590818
0.027425202
0.027258732
0.027091212
0.026922444
0.026752223
0.026580343
0.026406595
0.026230769
0.026052656
0.025872048
0.025688742
0.025502538
0.025313241
0.025120666
0.024924634
0.024724978
0.024521542
0.02431418
0.024102763
0.023887175
0.023667314
0.023443098
0.02321448
0.032061109
0.031871603
0.031682692
0.031494569
0.031307391
0.031121282
0.03093634
0.030752635
0.030570212
0.030389095
0.030209286
0.030030769
0.029853508
0.029677451
0.029502529
0.029328661
0.029155749
0.028983681
0.028812334
0.028641573
0.02847125
0.028301209
0.028131282
0.027961292
0.027791054
0.027620376
0.027449058
0.027276895
0.027103678
0.026929191
0.026753219
0.026575542
0.026395942
0.026214201
0.026030103
0.025843434
0.025653988
0.025461562
0.025265963
0.025067005
0.024864514
0.024658326
0.024448292
0.024234273
0.024016146
0.023793805
0.023567158
0.023336156
0.033084824
0.032877662
0.032671157
0.032465564
0.032261117
0.032058004
0.031856377
0.031656352
0.031458021
0.031261445
0.031066663
0.030873691
0.030682524
0.030493139
0.030305492
0.030119527
0.029935169
0.029752329
0.029570906
0.029390782
0.029211831
0.029033912
0.028856874
0.028680555
0.028504784
0.028329381
0.028154156
0.027978911
0.027803444
0.027627543
0.027450992
0.027273571
0.027095056
0.026915221
0.026733839
0.02655068
0.02636552
0.026178132
0.025988298
0.0257958
0.02560043
0.025401987
0.025200278
0.024995123
0.024786352
0.024573808
0.024357347
0.024136842
0.023912175
0.023683249
0.023450011
0.033515038
0.033291047
0.033068576
0.032847847
0.032629038
0.032412291
0.032197714
0.031985386
0.031775361
0.031567667
0.031362309
0.031159274
0.030958528
0.030760023
0.03056369
0.030369449
0.030177205
0.029986847
0.029798255
0.029611295
0.029425821
0.029241678
0.029058698
0.028876708
0.02869552
0.028514942
0.028334772
0.028154802
0.027974815
0.027794591
0.027613903
0.027432521
0.027250213
0.027066741
0.026881871
0.026695365
0.026506989
0.02631651
0.026123701
0.025928337
0.025730203
0.025529091
0.025324802
0.025117149
0.024905956
0.024691062
0.024472316
0.024249585
0.024022744
0.023791686
0.023556356
0.033921442
0.03368127
0.033443476
0.033208234
0.032975672
0.032745883
0.032518934
0.032294865
0.032073691
0.031855406
0.031639984
0.031427381
0.031217537
0.031010375
0.030805803
0.030603719
0.030404005
0.030206531
0.030011158
0.029817734
0.029626098
0.029436076
0.02924749
0.029060149
0.028873854
0.028688399
0.028503571
0.028319151
0.028134911
0.02795062
0.027766042
0.027580938
0.027395064
0.027208178
0.027020033
0.026830386
0.026638993
0.026445616
0.026250018
0.026051969
0.025851246
0.025647635
0.025440931
0.025230941
0.025017483
0.024800391
0.024579512
0.024354704
0.024125835
0.023892785
0.023655501
0.0343043
0.034048634
0.033796188
0.033547084
0.0333014
0.033059183
0.032820457
0.032585221
0.032353455
0.032125118
0.031900152
0.031678483
0.031460023
0.031244669
0.031032308
0.030822813
0.030616045
0.030411856
0.030210088
0.030010571
0.029813128
0.029617573
0.029423709
0.029231334
0.029040237
0.028850199
0.028660996
0.028472396
0.028284164
0.028096057
0.027907831
0.027719236
0.027530022
0.027339936
0.027148725
0.026956137
0.026761922
0.026565832
0.026367626
0.026167067
0.025963925
0.02575798
0.02554902
0.025336848
0.025121276
0.024902135
0.024679267
0.024452528
0.024221773
0.023986863
0.023747759
0.034663973
0.034393528
0.034127125
0.033864832
0.033606675
0.033352659
0.033102762
0.032856945
0.03261515
0.032377303
0.032143315
0.031913083
0.031686492
0.031463413
0.03124371
0.031027234
0.030813826
0.030603319
0.030395537
0.030190294
0.029987397
0.029786645
0.029587829
0.029390732
0.029195132
0.029000798
0.028807495
0.028614982
0.028423012
0.028231335
0.028039696
0.027847837
0.0276555
0.027462424
0.027268349
0.027073014
0.026876164
0.026677544
0.026476905
0.026274005
0.026068607
0.025860486
0.025649425
0.025435219
0.02521768
0.02499663
0.024771912
0.024543383
0.024310884
0.02407424
0.023833443
0.035000903
0.034716419
0.034436772
0.034161977
0.033892011
0.033626832
0.033366377
0.033110568
0.032859312
0.0326125
0.032370014
0.032131721
0.031897479
0.031667138
0.031440537
0.031217505
0.030997866
0.030781433
0.030568013
0.030357404
0.030149399
0.029943782
0.029740331
0.029538818
0.029339007
0.029140659
0.028943526
0.028747358
0.028551899
0.028356889
0.028162065
0.027967162
0.027771913
0.027576051
0.027379306
0.027181414
0.02698211
0.026781135
0.026578232
0.026373153
0.026165658
0.025955513
0.025742498
0.025526403
0.025307033
0.02508421
0.024857773
0.02462759
0.03531561
0.035017841
0.034725676
0.034439076
0.03415797
0.03388227
0.033611873
0.033346663
0.033086511
0.032831277
0.032580811
0.032334955
0.032093542
0.031856395
0.031623334
0.031394166
0.031168697
0.030946723
0.030728033
0.030512412
0.030299637
0.030089479
0.029881704
0.029676072
0.029472336
0.029270245
0.029069544
0.028869972
0.028671264
0.028473152
0.028275365
0.028077631
0.027879675
0.027681222
0.027481997
0.027281728
0.027080146
0.026876983
0.026671978
0.026464878
0.026255436
0.026043415
0.025828588
0.025610741
0.025389674
0.025165204
0.024937169
0.035608676
0.035298387
0.034994437
0.034696733
0.034405158
0.034119579
0.033839854
0.03356583
0.033297344
0.033034225
0.032776295
0.032523367
0.032275252
0.032031749
0.031792657
0.031557765
0.03132686
0.031099721
0.030876121
0.030655832
0.030438616
0.030224233
0.030012436
0.029802973
0.029595588
0.02939002
0.029186004
0.02898327
0.028781546
0.028580556
0.028380021
0.02817966
0.027979193
0.027778339
0.027576815
0.027374345
0.027170651
0.026965462
0.026758513
0.026549542
0.026338298
0.026124541
0.025908037
0.02568857
0.025465933
0.025239936
0.025010411
0.035880738
0.035558699
0.035243698
0.034935591
0.034634215
0.034339395
0.034050951
0.033768695
0.033492429
0.033221955
0.032957065
0.032697549
0.032443192
0.032193774
0.031949072
0.031708857
0.031472899
0.031240961
0.031012802
0.03078818
0.030566843
0.03034854
0.030133012
0.029919999
0.029709232
0.029500443
0.029293357
0.029087697
0.028883181
0.028679527
0.028476448
0.028273659
0.028070871
0.027867796
0.027664149
0.027459644
0.027254
0.027046941
0.026838195
0.026627497
0.026414592
0.026199232
0.025981182
0.02576022
0.025536134
0.025308726
0.025077829
0.03613248
0.035799458
0.035474137
0.035156323
0.034845807
0.034542378
0.034245816
0.033955898
0.033672399
0.033395088
0.033123734
0.032858101
0.032597953
0.032343048
0.032093145
0.031847998
0.031607359
0.031370978
0.0311386
0.030909967
0.03068482
0.030462892
0.030243917
0.030027622
0.029813732
0.029601968
0.029392048
0.029183686
0.028976594
0.028770483
0.028565059
0.02836003
0.028155102
0.027949982
0.027744377
0.027537998
0.027330559
0.027121778
0.026911378
0.026699091
0.026484656
0.026267823
0.026048351
0.025826013
0.025600594
0.02537189
0.025139732
0.036364623
0.03602138
0.035686461
0.035359625
0.035040623
0.034729204
0.034425112
0.034128094
0.033837894
0.033554254
0.033276918
0.033005628
0.032740125
0.032480151
0.032225443
0.031975742
0.031730784
0.031490303
0.031254033
0.031021704
0.030793043
0.030567777
0.030345625
0.030126309
0.029909543
0.029695041
0.029482513
0.029271666
0.029062205
0.028853834
0.028646255
0.028439167
0.028232273
0.028025274
0.027817871
0.027609772
0.027400684
0.027190322
0.026978405
0.02676466
0.026548822
0.026330637
0.026109861
0.025886262
0.025659621
0.02542973
0.025196419
0.036577918
0.036225204
0.035881398
0.035546214
0.035219364
0.03490056
0.034589515
0.034285943
0.033989561
0.033700085
0.033417236
0.033140733
0.0328703
0.032605658
0.032346531
0.032092641
0.03184371
0.031599462
0.031359615
0.03112389
0.030892004
0.030663671
0.030438605
0.030216516
0.029997112
0.029780099
0.02956518
0.029352055
0.029140423
0.028929981
0.028720427
0.028511454
0.02830276
0.02809404
0.027884992
0.027675318
0.027464722
0.027252914
0.027039609
0.026824531
0.026607411
0.02638799
0.026166021
0.02594127
0.025713514
0.025482539
0.025248176
0.036773137