/*--------------------------------*- C++ -*----------------------------------*\
| =========                 |                                                 |
| \\      /  F ield         | OpenFOAM: The Open Source CFD Toolbox           |
|  \\    /   O peration     | Version:  2312                                  |
|   \\  /    A nd           | Website:  www.openfoam.com                      |
|    \\/     M anipulation  |                                                 |
\*---------------------------------------------------------------------------*/
FoamFile
{
    version     2.0;
    format      ascii;
    arch        "LSB;label=32;scalar=64";
    class       volScalarField;
    location    "0.08";
    object      H2O;
}
// * * * * * * * * * * * * * * * * * * * * * * * * * * * * * * * * * * * * * //

dimensions      [0 0 0 0 0 0 0];

internalField   nonuniform List<scalar> 
3272
(
0.010264786
0.010428036
0.01058678
0.01074097
0.010890544
0.011035445
0.011175619
0.011311018
0.011441598
0.011567317
0.011688138
0.011804029
0.011914956
0.012020891
0.012121807
0.012217679
0.012308483
0.012394199
0.012474806
0.012550288
0.01262063
0.012685823
0.012744763
0.012798603
0.012847576
0.012891934
0.012931039
0.012964878
0.012993437
0.013016689
0.013034408
0.013047049
0.013054539
0.01305676
0.013053767
0.013045508
0.013031976
0.013013226
0.012989282
0.012960172
0.012925932
0.012886601
0.012842225
0.012792857
0.012738553
0.012679378
0.012615402
0.012546704
0.012473364
0.012395474
0.012313126
0.012226422
0.012135462
0.010337786
0.010501088
0.010659831
0.010813967
0.010963436
0.011108183
0.011248157
0.01138331
0.011513602
0.011638993
0.01175945
0.01187494
0.011985434
0.012090905
0.012191328
0.012286681
0.012376941
0.012462088
0.012542102
0.012616965
0.012686661
0.01275118
0.012809449
0.012862609
0.012911045
0.012954704
0.01299311
0.013026259
0.013054155
0.013076428
0.013093476
0.013105434
0.013112185
0.013113656
0.013109917
0.013100882
0.01308658
0.013067054
0.01304233
0.013012436
0.012977406
0.012937282
0.012892109
0.01284194
0.012786831
0.012726848
0.012662061
0.012592549
0.012518395
0.01243969
0.012356532
0.012269023
0.01217725
0.010475741
0.01063906
0.010797715
0.010951661
0.011100845
0.011245215
0.011384725
0.011519333
0.011649003
0.0117737
0.011893395
0.01200806
0.012117671
0.012222205
0.012321641
0.01241596
0.012505144
0.012589175
0.012668035
0.012741703
0.012810144
0.012873287
0.012930292
0.012982175
0.013029518
0.013071844
0.013108902
0.013140682
0.013167186
0.013188051
0.01320372
0.013214321
0.013219662
0.013219715
0.013214566
0.013204077
0.013188333
0.013167359
0.013141178
0.013109822
0.013073324
0.013031725
0.012985071
0.012933415
0.012876814
0.012815333
0.012749044
0.012678025
0.012602359
0.012522139
0.012437463
0.012348431
0.012255132
0.010671747
0.01083494
0.010993319
0.011146849
0.011295483
0.011439177
0.011577893
0.011711595
0.011840255
0.011963845
0.012082342
0.012195726
0.012303979
0.012407083
0.012505025
0.01259779
0.012685368
0.012767747
0.01284492
0.012916885
0.012983662
0.013044163
0.01309967
0.013149786
0.013195458
0.013235873
0.013270992
0.013300802
0.013325286
0.013344184
0.013357935
0.013366569
0.013369905
0.013367978
0.013360788
0.01334827
0.013330496
0.013307484
0.01327926
0.013245853
0.013207299
0.013163638
0.013114916
0.013061185
0.013002504
0.012938938
0.012870557
0.012797441
0.012719673
0.012637347
0.012550559
0.012459412
0.012363993
0.010919849
0.011082665
0.011240484
0.01139328
0.011541016
0.011683659
0.011821179
0.011953553
0.012080759
0.012202781
0.012319603
0.012431214
0.012537604
0.012638764
0.012734687
0.012825366
0.012910797
0.012990975
0.013065893
0.013135529
0.013199813
0.013257849
0.013310759
0.013358962
0.013402225
0.013440188
0.013472841
0.013500165
0.013521879
0.013538355
0.013549729
0.013555843
0.013556651
0.013552223
0.013542455
0.013527394
0.01350707
0.013481506
0.013450725
0.013414758
0.013373639
0.013327409
0.013276113
0.013219805
0.013158541
0.013092387
0.013021414
0.012945701
0.012865332
0.012780399
0.012691001
0.01259724
0.012499204
0.011214814
0.0113769
0.011533776
0.01168543
0.011831839
0.01197298
0.012108838
0.012239399
0.012364655
0.012484599
0.012599227
0.012708539
0.012812533
0.012911211
0.013004573
0.013092622
0.013175362
0.013252802
0.013324961
0.013391891
0.01345248
0.013507794
0.013557925
0.013603548
0.013643858
0.01367886
0.013708577
0.013732597
0.013751361
0.013764958
0.013773381
0.013776489
0.013774324
0.013766873
0.013754083
0.013736015
0.013712687
0.013684118
0.013650333
0.013611362
0.013567239
0.013518004
0.013463702
0.013404384
0.01334011
0.013270943
0.013196954
0.013118222
0.01303483
0.012946871
0.012854444
0.012757651
0.012656581
0.01155196
0.011712864
0.011868325
0.012018347
0.01216292
0.012302039
0.012435702
0.012563909
0.012686667
0.01280398
0.01291586
0.013022314
0.013123355
0.013218993
0.013309238
0.0133941
0.013473587
0.013547706
0.013616453
0.013679805
0.013736846
0.013788735
0.013836007
0.013878159
0.013914991
0.013946498
0.013972671
0.013993204
0.014008544
0.014018806
0.014023774
0.014023443
0.014017879
0.014006952
0.013990741
0.013969261
0.013942527
0.013910559
0.013873381
0.013831022
0.013783516
0.013730901
0.013673222
0.013610531
0.013542884
0.013470344
0.013392983
0.013310878
0.013224113
0.01313278
0.013036976
0.012936805
0.012832355
0.011927031
0.012086209
0.012239696
0.012387516
0.012529676
0.012666188
0.012797066
0.012922329
0.013041996
0.013156089
0.013264631
0.013367645
0.013465155
0.013557182
0.013643747
0.01372487
0.013800566
0.013870849
0.013935728
0.013994336
0.014047649
0.014096165
0.014139706
0.014177926
0.014210829
0.014238414
0.014260381
0.014277121
0.014288772
0.014295176
0.014296288
0.014292172
0.014282735
0.014268002
0.014248003
0.01422275
0.014192259
0.014156548
0.01411564
0.014069564
0.01401835
0.013962038
0.01390067
0.013834296
0.013762972
0.013686761
0.013605732
0.013519961
0.013429533
0.013334538
0.013235073
0.013131239
0.013023124
0.012336091
0.012492915
0.012643794
0.012788772
0.012927878
0.013061142
0.013188598
0.013310281
0.01342623
0.013536482
0.013641075
0.013740047
0.013833434
0.013921272
0.014003592
0.014080425
0.014151796
0.014217728
0.014277334
0.014331635
0.014380955
0.014425447
0.01446461
0.014498459
0.014527005
0.01454993
0.01456765
0.014580283
0.014587713
0.014589872
0.014586811
0.01457848
0.014564859
0.014545989
0.01452188
0.014492541
0.014457988
0.014418239
0.014373313
0.014323238
0.014268043
0.014207765
0.014142446
0.014072134
0.013996882
0.013916752
0.013831813
0.013742138
0.013647813
0.013548925
0.013445571
0.013337847
0.013225809
0.012775452
0.012929219
0.013076788
0.013218226
0.013353584
0.013482914
0.01360627
0.013723708
0.013835283
0.01394105
0.014041066
0.014135382
0.01422405
0.014307118
0.014384629
0.014456626
0.014523145
0.014583279
0.01463809
0.014687772
0.014732745
0.014772379
0.014806719
0.014835777
0.014859222
0.014877488
0.014890687
0.014898732
0.01490154
0.014899151
0.014891544
0.014878674
0.014860587
0.014837289
0.014808789
0.014775094
0.014736219
0.014692177
0.01464299
0.01458868
0.014529276
0.014464811
0.014395326
0.014320865
0.014241481
0.014157234
0.014068189
0.013974421
0.013876012
0.013773051
0.013665636
0.013241615
0.01339156
0.013535062
0.013672214
0.01380309
0.013927765
0.014046315
0.014158816
0.014265344
0.014365973
0.014460775
0.014549819
0.014633172
0.014710893
0.014783042
0.014849669
0.014909858
0.014964708
0.015014342
0.015059322
0.015098964
0.015133263
0.015162383
0.015185912
0.015204295
0.015217646
0.015225888
0.015228939
0.015226836
0.015219572
0.01520709
0.015189439
0.015166623
0.015138645
0.015105512
0.01506723
0.015023811
0.014975268
0.014921616
0.014862877
0.014799076
0.014730245
0.014656421
0.014577645
0.014493969
0.014405448
0.014312148
0.014214138
0.0141115
0.014004319
0.013892672
0.01373123
0.013876539
0.014015175
0.014147258
0.014272888
0.014392165
0.014505185
0.014612048
0.014712849
0.014807681
0.014896636
0.014979798
0.015057249
0.015129062
0.015195306
0.015255065
0.015309466
0.015358649
0.015403144
0.015442348
0.015476305
0.015504625
0.015527933
0.015546011
0.0155591
0.015567115
0.015569998
0.015567789
0.015560478
0.015548018
0.015530451
0.01550778
0.015480007
0.015447135
0.015409166
0.015366105
0.01531796
0.015264741
0.015206461
0.015143137
0.015074793
0.015001455
0.014923158
0.01483994
0.014751849
0.014658938
0.014561269
0.014458911
0.014351941
0.014240442
0.014124487
0.014241071
0.014380893
0.014513836
0.014640047
0.014759652
0.014872774
0.014979537
0.015080058
0.015174454
0.015262839
0.015345323
0.015422009
0.015492989
0.015558349
0.015617182
0.015670635
0.015718951
0.015762435
0.015800668
0.01583368
0.015861095
0.015883615
0.015900881
0.015913262
0.015920612
0.015922904
0.015920188
0.015912433
0.015899617
0.015881774
0.015858905
0.015831012
0.015798093
0.015760147
0.015717176
0.01566918
0.015616163
0.015558131
0.015495094
0.015427067
0.015354066
0.015276117
0.015193248
0.015105497
0.015012905
0.014915523
0.01481341
0.014706631
0.014595261
0.014479381
0.014359062
0.014768019
0.014901483
0.01502789
0.015147415
0.015260213
0.01536643
0.015466211
0.015559697
0.015647022
0.015728321
0.015803733
0.015873373
0.015937339
0.015994741
0.01604674
0.016093753
0.016135751
0.016172438
0.016204048
0.016230035
0.016251342
0.016267353
0.016278572
0.01628481
0.01628608
0.016282446
0.016273838
0.01626028
0.016241791
0.016218372
0.016190022
0.016156739
0.016118518
0.016075357
0.016027251
0.015974197
0.015916196
0.015853249
0.015785362
0.015712543
0.015634808
0.015552175
0.01546467
0.015372325
0.015275178
0.015173277
0.015066675
0.014955435
0.01483963
0.014719336
0.014594625
0.015309056
0.015435283
0.015554311
0.015666343
0.015771559
0.015870133
0.015962229
0.016048009
0.016127617
0.016201198
0.01626897
0.016331038
0.0163865
0.016436528
0.016481722
0.016521782
0.016556627
0.016585886
0.016610362
0.01662963
0.016644062
0.016653668
0.016658357
0.016658164
0.016653193
0.016643314
0.016628618
0.016609102
0.016584768
0.016555615
0.016521638
0.016482833
0.016439191
0.016390704
0.016337363
0.016279163
0.016216098
0.016148164
0.016075363
0.015997698
0.015915179
0.015827821
0.015735644
0.015638675
0.015536949
0.015430508
0.015319402
0.01520369
0.015083441
0.014958729
0.014829624
0.015861262
0.015979381
0.016090199
0.016193947
0.016290831
0.016381047
0.016464781
0.016542226
0.016613515
0.016678697
0.016738332
0.016791425
0.016838954
0.016881797
0.016919279
0.016951717
0.016978493
0.017000696
0.017017671
0.017029946
0.017037418
0.017040096
0.017038025
0.017031229
0.017019688
0.017003443
0.016982506
0.016956881
0.016926565
0.016891554
0.016851841
0.016807414
0.016758262
0.016704371
0.016645729
0.016582323
0.016514143
0.016441181
0.016363432
0.016280894
0.016193571
0.016101473
0.016004615
0.015903019
0.015796715
0.01568574
0.01557014
0.01544997
0.015325295
0.015196185
0.015062709
0.016421822
0.016530981
0.016632782
0.016727485
0.01681532
0.016896497
0.016971217
0.017039772
0.017102328
0.017158036
0.01720837
0.017253302
0.017293043
0.017327667
0.017356645
0.017380995
0.017400056
0.017414359
0.017424005
0.017428884
0.017429059
0.017424668
0.017415598
0.017401955
0.017383747
0.017360988
0.017333683
0.017301833
0.017265434
0.017224476
0.017178947
0.017128831
0.017074112
0.01701477
0.016950788
0.016882146
0.01680883
0.016730825
0.016648119
0.016560706
0.016468585
0.016371757
0.016270234
0.016164032
0.016053175
0.015937695
0.015817635
0.015693044
0.015563981
0.015430516
0.015292712
0.01698803
0.017087409
0.017179421
0.017264356
0.017342478
0.017413988
0.017478979
0.017538124
0.017590432
0.017637004
0.017678615
0.017714953
0.01774553
0.017771256
0.017792193
0.017807917
0.01781903
0.017825447
0.017827239
0.017824501
0.017817233
0.017805483
0.017789294
0.017768693
0.017743697
0.017714315
0.017680549
0.017642394
0.017599843
0.01755288
0.017501489
0.017445647
0.017385332
0.01732052
0.017251186
0.017177306
0.017098857
0.017015819
0.016928174
0.01683591
0.016739017
0.016637493
0.016531343
0.016420576
0.016305212
0.016185278
0.01606081
0.015931854
0.015798464
0.015660706
0.015518636
0.0175573
0.017646118
0.017727615
0.017802093
0.01786992
0.017931334
0.017985506
0.018034072
0.018076884
0.018114536
0.018146283
0.018172963
0.018194888
0.018211518
0.01822357
0.018230914
0.018233643
0.018231876
0.018225696
0.018215107
0.018200206
0.018181025
0.018157596
0.018129941
0.018098073
0.018061996
0.018021709
0.017977202
0.017928462
0.017875468
0.017818196
0.017756619
0.017690709
0.017620434
0.017545764
0.017466666
0.017383112
0.017295074
0.017202529
0.017105457
0.017003842
0.016897675
0.016786954
0.016671684
0.016551878
0.016427557
0.016298752
0.016165504
0.016027864
0.015885894
0.018127181
0.018204698
0.018275019
0.01833832
0.018395304
0.018445153
0.01848877
0.018527475
0.01855995
0.018587166
0.018609562
0.01862654
0.018638857
0.018646496
0.018649524
0.018648072
0.018642265
0.018632113
0.018617757
0.018599237
0.018576608
0.018549907
0.018519162
0.01848439
0.0184456
0.018402792
0.018355957
0.018305082
0.018250146
0.018191122
0.018127981
0.018060688
0.017989208
0.017913502
0.017833532
0.017749261
0.017660651
0.017567668
0.017470282
0.017368464
0.017262194
0.017151456
0.017036239
0.016916544
0.016792376
0.016663752
0.016530696
0.016393244
0.016251443
0.016105343
0.018695379
0.018760856
0.018819555
0.018870689
0.018915563
0.018954841
0.018987652
0.01901508
0.019037467
0.019054288
0.019066332
0.019073652
0.01907631
0.01907451
0.01906837
0.019057944
0.019043389
0.019024767
0.019002159
0.018975621
0.018945199
0.018910927
0.018872828
0.018830913
0.018785186
0.018735641
0.018682264
0.018625034
0.018563923
0.018498899
0.018429924
0.018356958
0.018279956
0.018198874
0.018113665
0.018024284
0.017930687
0.017832833
0.017730682
0.0176242
0.017513359
0.017398135
0.017278513
0.017154485
0.01702605
0.016893219
0.016756012
0.016614458
0.016468598
0.016318476
0.019259842
0.019312207
0.01935795
0.019397575
0.019430606
0.019457953
0.019479912
0.019496127
0.019507422
0.01951386
0.019515541
0.019512759
0.019505586
0.019494176
0.019478685
0.019459204
0.019435838
0.019408665
0.019377753
0.019343155
0.019304914
0.019263056
0.019217598
0.019168548
0.019115902
0.019059646
0.01899976
0.018936216
0.01886898
0.01879801
0.018723262
0.018644687
0.018562234
0.01847585
0.018385481
0.018291074
0.018192576
0.01808994
0.017983117
0.017872067
0.017756753
0.017637145
0.01751322
0.017384963
0.017252369
0.01711544
0.016974192
0.016828647
0.016678842
0.016524815
0.0198173
0.019857073
0.019890022
0.019917018
0.019938244
0.01995348
0.019963605
0.019968637
0.019968795
0.019964443
0.019955577
0.019942502
0.019925351
0.019904261
0.019879361
0.019850757
0.019818539
0.019782784
0.019743554
0.019700896
0.019654845
0.019605421
0.019552637
0.019496491
0.019436971
0.019374059
0.019307726
0.019237935
0.019164645
0.019087807
0.019007367
0.01892327
0.018835456
0.018743864
0.018648431
0.018549097
0.018445801
0.018338487
0.018227099
0.018111589
0.017991913
0.017868033
0.01773992
0.017607551
0.017470914
0.017330006
0.017184836
0.017035422
0.016881796
0.020367241
0.020393698
0.020413885
0.020427808
0.020436383
0.020439555
0.020437741
0.020431192
0.020420065
0.020404677
0.020385172
0.020361746
0.020334553
0.02030373
0.020269396
0.020231651
0.020190582
0.020146259
0.020098735
0.020048051
0.019994235
0.019937301
0.019877251
0.019814077
0.019747761
0.019678273
0.019605578
0.019529632
0.019450382
0.019367774
0.019281745
0.01919223
0.019099162
0.019002471
0.018902087
0.018797939
0.018689961
0.018578086
0.018462253
0.018342403
0.018218486
0.018090457
0.017958279
0.017821922
0.017681368
0.017536608
0.017387643
0.017234486
0.017077163
0.020908263
0.020920669
0.020927329
0.02092825
0.020924028
0.020914758
0.020900826
0.020882499
0.020859991
0.020833535
0.020803314
0.020769504
0.020732255
0.020691696
0.020647942
0.020601086
0.020551207
0.020498365
0.020442609
0.02038397
0.020322467
0.020258106
0.020190882
0.020120777
0.020047764
0.019971806
0.019892858
0.019810867
0.019725774
0.019637512
0.019546013
0.019451202
0.019353003
0.019251337
0.019146126
0.019037292
0.018924759
0.018808452
0.018688301
0.018564242
0.018436215
0.018304168
0.018168056
0.018027844
0.017883505
0.017735025
0.017582398
0.017425633
0.017264749
0.021438016
0.021436446
0.021429355
0.021416936
0.021399682
0.021377841
0.021351713
0.021321558
0.021287604
0.021250064
0.021209121
0.02116494
0.021117664
0.021067415
0.021014299
0.0209584
0.020899788
0.020838517
0.020774623
0.02070813
0.020639048
0.020567374
0.020493092
0.020416177
0.020336591
0.02025429
0.020169219
0.020081315
0.01999051
0.019896729
0.019799894
0.019699923
0.019596728
0.019490225
0.019380325
0.019266941
0.01914999
0.019029388
0.018905058
0.018776927
0.018644928
0.018509
0.018369093
0.018225162
0.018077177
0.017925114
0.017768964
0.017608729
0.017444423
0.021955475
0.02193957
0.021918511
0.021892632
0.021862301
0.021827813
0.021789448
0.021747457
0.021702063
0.021653469
0.021601849
0.021547358
0.02149013
0.021430278
0.021367897
0.021303061
0.021235831
0.02116625
0.021094345
0.02102013
0.020943604
0.020864754
0.020783557
0.020699975
0.020613962
0.020525464
0.020434416
0.020340747
0.020244378
0.020145227
0.020043205
0.01993822
0.019830179
0.019718985
0.019604542
0.019486756
0.019365532
0.019240781
0.019112417
0.018980358
0.018844529
0.018704864
0.018561304
0.018413798
0.018262308
0.018106804
0.017947272
0.017783707
0.022459227
0.022428861
0.022393783
0.022354362
0.022310935
0.022263797
0.022213217
0.022159434
0.022102663
0.022043093
0.02198089
0.021916196
0.021849133
0.021779804
0.021708291
0.02163466
0.021558958
0.021481218
0.021401456
0.021319676
0.021235866
0.021150002
0.021062051
0.020971966
0.02087969
0.020785158
0.020688297
0.020589025
0.020487255
0.020382894
0.020275844
0.020166005
0.020053274
0.019937545
0.019818715
0.019696679
0.019571336
0.019442587
0.019310338
0.0191745
0.019034991
0.018891736
0.018744669
0.018593733
0.018438882
0.018280082
0.01811731
0.017950559
0.022948235
0.022903341
0.022854233
0.022801276
0.02274479
0.022685062
0.022622345
0.022556869
0.022488833
0.022418414
0.022345764
0.022271013
0.022194271
0.022115627
0.02203515
0.021952895
0.021868897
0.021783176
0.021695738
0.021606574
0.021515661
0.021422966
0.021328443
0.021232034
0.021133674
0.021033287
0.020930789
0.020826089
0.020719091
0.020609691
0.020497784
0.020383258
0.020266002
0.020145903
0.020022846
0.019896721
0.019767416
0.019634825
0.019498846
0.019359382
0.019216343
0.019069648
0.018919222
0.018765004
0.018606939
0.018444987
0.01827912
0.018109326
0.023421574
0.023362168
0.02329908
0.02323266
0.023163213
0.02309101
0.023016291
0.022939267
0.022860126
0.022779027
0.022696109
0.022611487
0.022525255
0.02243749
0.022348249
0.02225757
0.022165477
0.022071978
0.021977065
0.021880719
0.021782905
0.021683577
0.021582679
0.021480143
0.021375892
0.021269841
0.021161894
0.021051952
0.020939908
0.02082565
0.020709062
0.020590024
0.020468415
0.020344113
0.020216997
0.020086946
0.01995384
0.019817567
0.019678014
0.01953508
0.019388665
0.019238681
0.019085047
0.018927694
0.018766563
0.018601605
0.018432787
0.018260094
0.023878467
0.023804639
0.023727685
0.023647938
0.023565684
0.023481175
0.023394635
0.023306258
0.023216213
0.023124644
0.023031672
0.022937397
0.022841899
0.022745238
0.022647455
0.022548578
0.022448615
0.022347561
0.022245396
0.022142087
0.022037588
0.021931842
0.021824781
0.021716326
0.021606389
0.021494874
0.021381676
0.021266686
0.021149787
0.021030857
0.020909771
0.0207864
0.020660615
0.020532285
0.020401279
0.020267468
0.020130727
0.019990932
0.019847965
0.019701716
0.01955208
0.019398959
0.019242268
0.01908193
0.018917878
0.01875006
0.018578436
0.018402986
0.024318284
0.024230188
0.024139544
0.024046662
0.023951807
0.023855211
0.023757078
0.023657583
0.023556875
0.02345508
0.023352302
0.023248624
0.023144108
0.0230388
0.022932726
0.022825897
0.022718308
0.02260994
0.022500761
0.022390724
0.022279772
0.022167835
0.022054833
0.021940676
0.021825267
0.021708498
0.021590255
0.021470418
0.02134886
0.02122545
0.021100053
0.020972534
0.020842752
0.020710569
0.020575846
0.020438445
0.020298233
0.020155079
0.020008859
0.019859452
0.019706748
0.019550643
0.019391044
0.019227868
0.019061043
0.018890509
0.018716221
0.018538155
0.024740527
0.02463838
0.024534277
0.024428505
0.024321304
0.024212884
0.024103426
0.023993085
0.023881989
0.023770245
0.023657938
0.023545133
0.023431874
0.02331819
0.023204093
0.023089577
0.022974624
0.0228592
0.022743259
0.022626741
0.022509578
0.022391686
0.022272975
0.022153345
0.022032685
0.021910878
0.021787799
0.02166332
0.021537303
0.021409609
0.021280093
0.021148611
0.021015015
0.020879156
0.020740889
0.020600068
0.020456551
0.020310201
0.020160886
0.020008478
0.01985286
0.019693922
0.019531564
0.019365697
0.019196242
0.019023135
0.018846323
0.018665781
0.025144828
0.025028903
0.024911625
0.024793254
0.024674006
0.024554064
0.024433586
0.024312704
0.024191526
0.024070138
0.023948604
0.023826969
0.023705263
0.023583495
0.02346166
0.023339739
0.023217696
0.023095485
0.022973045
0.022850304
0.02272718
0.022603579
0.022479398
0.022354526
0.022228841
0.022102216
0.021974518
0.021845605
0.021715333
0.021583552
0.02145011
0.021314853
0.021177624
0.021038268
0.020896631
0.020752559
0.020605903
0.020456519
0.020304266
0.020149012
0.019990632
0.019829011
0.01966404
0.019495626
0.019323684
0.019148144
0.018968947
0.018786065
0.025530938
0.025401557
0.025271436
0.025140801
0.025009841
0.024878715
0.024747554
0.024616467
0.024485539
0.024354834
0.024224396
0.024094251
0.023964409
0.023834863
0.023705591
0.023576556
0.023447711
0.023318991
0.023190325
0.023061626
0.0229328
0.02280374
0.022674333
0.022544455
0.022413976
0.022282757
0.022150655
0.02201752
0.021883197
0.021747528
0.021610352
0.021471507
0.021330829
0.021188153
0.021043318
0.020896163
0.020746533
0.020594274
0.02043924
0.020281294
0.020120302
0.019956143
0.019788705
0.019617886
0.019443596
0.01926576
0.019084314
0.018899224
0.025898722
0.025756254
0.02561366
0.025471134
0.025328833
0.02518689
0.025045411
0.024904478
0.024764154
0.02462448
0.024485479
0.024347158
0.024209507
0.024072502
0.023936103
0.023800259
0.023664904
0.023529964
0.023395349
0.023260963
0.023126696
0.022992432
0.022858046
0.022723402
0.02258836
0.022452772
0.022316484
0.022179337
0.022041168
0.02190181
0.021761093
0.021618847
0.0214749
0.02132908
0.021181219
0.021031147
0.020878703
0.020723728
0.020566068
0.020405579
0.020242122
0.020075571
0.019905806
0.01973272
0.01955622
0.019376222
0.019192658
0.019005491
0.026248148
0.026093001
0.025938342
0.025784327
0.025631086
0.02547872
0.02532731
0.025176912
0.025027564
0.024879285
0.024732077
0.024585926
0.024440804
0.024296668
0.024153461
0.024011117
0.023869555
0.023728684
0.023588404
0.023448604
0.023309162
0.023169951
0.023030833
0.022891663
0.022752291
0.022612559
0.022472302
0.022331354
0.022189543
0.022046692
0.021902625
0.021757163
0.021610126
0.021461336
0.021310616
0.021157792
0.021002694
0.020845157
0.020685022
0.020522137
0.020356359
0.020187555
0.020015601
0.019840386
0.019661808
0.019479779
0.019294225
0.019105106
0.027086254
0.026916653
0.026747589
0.026579272
0.026411893
0.026245606
0.026080535
0.025916777
0.025754405
0.02559347
0.025434004
0.02527602
0.025119513
0.024964464
0.02481084
0.024658592
0.02450766
0.02435797
0.02420944
0.024061975
0.023915469
0.023769808
0.023624869
0.023480518
0.023336616
0.023193015
0.02304956
0.022906089
0.022762435
0.022618426
0.022473886
0.022328633
0.022182484
0.022035255
0.021886759
0.021736809
0.021585219
0.021431807
0.021276391
0.021118794
0.020958847
0.020796383
0.020631246
0.020463288
0.020292368
0.02011836
0.019941146
0.01976062
0.019576687
0.019389268
0.019198318
0.027438467
0.027255087
0.027072952
0.026892244
0.026713107
0.026535658
0.026359985
0.026186155
0.026014209
0.025844171
0.025676046
0.025509823
0.025345475
0.02518296
0.025022224
0.024863201
0.024705812
0.024549968
0.02439557
0.024242507
0.024090661
0.023939904
0.023790101
0.023641107
0.02349277
0.023344932
0.023197429
0.023050089
0.022902735
0.022755187
0.022607259
0.022458764
0.022309509
0.022159303
0.022007951
0.021855261
0.021701039
0.021545096
0.021387244
0.021227301
0.021065091
0.020900442
0.020733193
0.020563189
0.020390287
0.020214355
0.02003527
0.019852922
0.019667209
0.019478044
0.019285381
0.027771186
0.027574559
0.027379879
0.027187289
0.026996892
0.026808766
0.026622965
0.026439522
0.026258448
0.026079741
0.025903377
0.025729321
0.025557523
0.025387921
0.02522044
0.025054996
0.024891491
0.024729822
0.024569871
0.024411517
0.024254626
0.024099057
0.023944663
0.023791288
0.02363877
0.02348694
0.023335623
0.02318464
0.023033804
0.022882927
0.022731814
0.022580271
0.022428098
0.022275096
0.022121063
0.021965801
0.02180911
0.021650793
0.021490659
0.021328518
0.021164188
0.020997493
0.020828267
0.020656349
0.020481594
0.020303862
0.02012303
0.019938982
0.019751609
0.019560813
0.019366551
0.028084629
0.027875317
0.027668642
0.027464703
0.027263563
0.027065262
0.026869819
0.026677234
0.026487489
0.026300551
0.026116374
0.025934895
0.025756044
0.025579736
0.025405878
0.025234366
0.025065087
0.024897919
0.024732733
0.024569391
0.024407746
0.024247646
0.024088932
0.023931436
0.023774986
0.023619404
0.023464505
0.0233101
0.023155996
0.023001995
0.022847896
0.022693495
0.022538587
0.022382965
0.022226422
0.022068752
0.02190975
0.021749213
0.021586944
0.021422748
0.021256437
0.021087831
0.020916758
0.020743054
0.020566568
0.020387159
0.020204699
0.02001907
0.019830153
0.019637834
0.019442081
0.02837909
0.028157679
0.027939577
0.02772484
0.02751349
0.027305528
0.02710094
0.026899692
0.026701737
0.026507014
0.02631545
0.026126961
0.025941452
0.02575882
0.025578951
0.025401723
0.025227008
0.025054668
0.024884559
0.024716528
0.024550418
0.024386064
0.024223295
0.024061934
0.023901797
0.023742698
0.023584443
0.023426834
0.02326967
0.023112746
0.022955852
0.022798779
0.022641315
0.022483245
0.022324357
0.022164439
0.022003279
0.021840671
0.02167641
0.021510297
0.02134214
0.021171752
0.020998958
0.02082359
0.020645493
0.020464521
0.020280547
0.020093452
0.019903107
0.019709369
0.01951223
0.028654932
0.028422027
0.028193082
0.02796811
0.027747092
0.027529992
0.027316759
0.027107331
0.02690163
0.026699567
0.026501046
0.026305957
0.026114186
0.025925608
0.025740091
0.025557497
0.02537768
0.025200489
0.025025763
0.02485334
0.024683048
0.024514711
0.024348148
0.024183171
0.024019587
0.023857201
0.02369581
0.023535209
0.023375188
0.023215535
0.023056035
0.02289647
0.022736621
0.02257627
0.022415197
0.022253185
0.022090016
0.021925479
0.021759365
0.021591469
0.021421594
0.02124955
0.021075156
0.020898242
0.020718646
0.020536222
0.02035084
0.020162392
0.028912579
0.028668799
0.028429606
0.028194969
0.02796483
0.027739117
0.027517745
0.02730062
0.027087635
0.026878678
0.026673624
0.026472344
0.0262747
0.026080551
0.025889745
0.025702128
0.025517538
0.02533581
0.025156771
0.024980244
0.024806046
0.024633992
0.024463888
0.024295539
0.024128742
0.023963292
0.02379898
0.023635592
0.023472911
0.023310719
0.023148793
0.02298691
0.022824845
0.022662373
0.022499269
0.022335311
0.022170277
0.022003949
0.021836114
0.021666563
0.021495095
0.021321515
0.021145638
0.020967288
0.020786303
0.020602531
0.020415841
0.02915251
0.028898479
0.028649638
0.02840591
0.0281672
0.027933399
0.027704391
0.02748005
0.027260243
0.02704483
0.026833664
0.026626595
0.026423465
0.026224111
0.026028369
0.025836065
0.025647025
0.025461068
0.025278009
0.02509766
0.024919828
0.024744314
0.024570917
0.024399432
0.024229647
0.024061351
0.023894325
0.023728349
0.023563199
0.02339865
0.023234473
0.02307044
0.02290632
0.022741882
0.022576896
0.022411135
0.022244373
0.022076387
0.021906959
0.021735876
0.021562933
0.021387932
0.021210682
0.021031006
0.020848735
0.020663713
0.020475803
0.029375244
0.029111594
0.028853705
0.028601461
0.028354727
0.028113361
0.027877215
0.027646133
0.027419957
0.027198522
0.026981659
0.026769196
0.026560956
0.02635676
0.026156424
0.025959762
0.025766586
0.0255767
0.025389909
0.025206012
0.025024806
0.024846083
0.024669632
0.02449524
0.024322687
0.024151753
0.023982214
0.023813841
0.023646406
0.023479676
0.023313418
0.023147396
0.022981375
0.02281512
0.022648395
0.022480969
0.02231261
0.022143093
0.021972194
0.021799698
0.021625394
0.021449081
0.021270566
0.021089665
0.020906208
0.020720032
0.020530998
0.029581344
0.029308702
0.029042364
0.028782172
0.028527956
0.028279541
0.028036748
0.027799395
0.027567297
0.027340265
0.02711811
0.026900639
0.026687657
0.026478969
0.026274375
0.026073676
0.025876667
0.025683144
0.025492898
0.025305718
0.025121392
0.024939702
0.024760429
0.02458335
0.02440824
0.024234871
0.024063011
0.023892427
0.023722883
0.023554141
0.023385963
0.023218107
0.023050334
0.022882404
0.022714077
0.022545117
0.022375288
0.022204361
0.022032109
0.021858311
0.021682755
0.021505236
0.021325556
0.021143529
0.020958981
0.020771743
0.020581678
0.029771397
0.029490387
0.029216192
0.028948614
0.02868745
0.028432494
0.028183537
0.027940371
0.027702786
0.027470573
0.027243521
0.027021418
0.026804053
0.026591214
0.026382687
0.026178259
0.025977714
0.025780834
0.025587402
0.025397196
0.025209994
0.02502557
0.024843697
0.024664144
0.02448668
0.024311069
0.024137074
0.023964455
0.023792972
0.02362238
0.023452437
0.023282896
0.023113514
0.022944045
0.022774247
0.022603877
0.022432699
0.022260478
0.022086983
0.021911992
0.021735287
0.021556661
0.021375913
0.021192855
0.021007306
0.020819096
0.020628087
0.02994602
0.029657256
0.029375785
0.029101373
0.028833784
0.028572782
0.028318132
0.0280696
0.027826954
0.027589963
0.027358397
0.027132027
0.026910626
0.026693966
0.02648182
0.026273963
0.026070166
0.025870201
0.025673841
0.025480855
0.025291012
0.025104078
0.024919818
0.024737996
0.024558372
0.024380705
0.024204753
0.024030269
0.023857008
0.023684721
0.023513161
0.023342077
0.023171221
0.023000343
0.022829198
0.02265754
0.022485127
0.022311721
0.02213709
0.021961008
0.021783253
0.021603615
0.021421891
0.02123789
0.021051428
0.02086233
0.020670459
0.030105844
0.029809927
0.029521748
0.029241041