/*--------------------------------*- C++ -*----------------------------------*\
| =========                 |                                                 |
| \\      /  F ield         | OpenFOAM: The Open Source CFD Toolbox           |
|  \\    /   O peration     | Version:  2312                                  |
|   \\  /    A nd           | Website:  www.openfoam.com                      |
|    \\/     M anipulation  |                                                 |
\*---------------------------------------------------------------------------*/
FoamFile
{
    version     2.0;
    format      ascii;
    arch        "LSB;label=32;scalar=64";
    class       volScalarField;
    location    "0.08";
    object      N2;
}
// * * * * * * * * * * * * * * * * * * * * * * * * * * * * * * * * * * * * * //

dimensions      [0 0 0 0 0 0 0];

internalField   nonuniform List<scalar> 
3272
(
0.74003698
0.73965182
0.73928377
0.73893289
0.73859932
0.7382832
0.73798463
0.7377037
0.73744049
0.73719505
0.73696743
0.73675767
0.73656579
0.73639178
0.73623566
0.73609741
0.73597699
0.73587437
0.7357895
0.73572232
0.73567275
0.73564071
0.73562636
0.73562903
0.7356487
0.73568569
0.73573957
0.73581018
0.73589728
0.7360006
0.73611829
0.73625275
0.7364042
0.73657113
0.73675035
0.73694647
0.73715798
0.7373837
0.7376233
0.73787639
0.7381426
0.73842153
0.73871276
0.73901585
0.73933035
0.73965581
0.73999174
0.74033764
0.74069303
0.74105738
0.74143018
0.74181089
0.74219905
0.73980834
0.73942335
0.73905563
0.73870525
0.73837234
0.73805703
0.73775941
0.73747957
0.73721757
0.73697347
0.73674731
0.73653911
0.73634889
0.73617665
0.73602238
0.73588606
0.73576766
0.73566714
0.73558443
0.73551949
0.73547222
0.73544254
0.73543056
0.73543565
0.73545787
0.73549742
0.73555394
0.73562728
0.73571732
0.73582212
0.73594272
0.73608034
0.73623459
0.73640428
0.73658626
0.73678552
0.73699989
0.73722851
0.73747101
0.73772703
0.73799618
0.73827806
0.73857225
0.73887831
0.73919579
0.73952422
0.73986313
0.74021202
0.74057038
0.7409377
0.74131345
0.7416971
0.74208816
0.73937657
0.73899219
0.73862541
0.73827626
0.73794488
0.73763137
0.73733581
0.73705827
0.73679881
0.73655747
0.73633427
0.73612923
0.73594234
0.73577361
0.73562301
0.73549051
0.73537606
0.73527962
0.73520112
0.73514049
0.73509765
0.73507254
0.7350651
0.7350748
0.73510188
0.73514627
0.73520769
0.73528596
0.73538095
0.73549056
0.73561619
0.73575946
0.73591884
0.73609351
0.73628078
0.73648583
0.73670558
0.73693959
0.73718753
0.737449
0.73772362
0.73801099
0.73831068
0.73862225
0.73894525
0.7392792
0.73962363
0.73997803
0.7403419
0.74071472
0.74109596
0.74148506
0.74188155
0.73876347
0.73838047
0.73801548
0.73766855
0.73733979
0.73702926
0.73673704
0.73646317
0.73620769
0.73597062
0.73575197
0.73555173
0.73536989
0.73520642
0.73506129
0.73493444
0.73482584
0.73473539
0.73466304
0.7346087
0.73457224
0.7345539
0.73455297
0.73456933
0.73460336
0.73465468
0.73472308
0.73480833
0.73491021
0.73502682
0.73516005
0.73531114
0.73547817
0.73565805
0.73585438
0.7360671
0.73629442
0.73653604
0.73679159
0.7370607
0.73734298
0.73763801
0.73794538
0.73826464
0.73859533
0.73893698
0.7392891
0.73965118
0.74002271
0.74040317
0.74079202
0.74118871
0.74159274
0.73798796
0.73760736
0.73724531
0.73690183
0.73657698
0.73627082
0.73598339
0.73571471
0.73546479
0.73523362
0.73502119
0.73482746
0.73465241
0.73449598
0.73435813
0.73423878
0.73413786
0.73405529
0.73399098
0.73394484
0.73391678
0.73390681
0.73391433
0.73393948
0.73398233
0.73404255
0.73411994
0.73421425
0.73432381
0.73444964
0.73459317
0.73475337
0.73492927
0.73511808
0.73532484
0.73554695
0.73578372
0.73603481
0.73629986
0.73657849
0.7368703
0.73717488
0.7374918
0.73782062
0.73816086
0.73851205
0.73887369
0.73924529
0.73962631
0.74001624
0.74041451
0.74082058
0.74123393
0.73706673
0.73668985
0.73633213
0.73599356
0.73567415
0.73537395
0.73509293
0.73483111
0.73458844
0.7343649
0.73416044
0.73397501
0.73380854
0.73366096
0.7335322
0.73342216
0.73333076
0.73325788
0.73320342
0.73316725
0.73314956
0.73314966
0.7331674
0.73320319
0.73325662
0.73332754
0.73341585
0.73351957
0.7336398
0.73377715
0.73393232
0.73410347
0.73428798
0.73448956
0.73470777
0.73494098
0.73518886
0.73545108
0.73572726
0.73601702
0.73631998
0.73663571
0.73696377
0.73730372
0.73765509
0.73801739
0.73839013
0.73877279
0.73916485
0.73956577
0.73997499
0.74039195
0.74081614
0.73601476
0.7356432
0.73529146
0.73495948
0.73464725
0.73435474
0.73408193
0.73382876
0.73359517
0.73338109
0.73318643
0.73301113
0.73285507
0.73271816
0.73260031
0.73250139
0.7324213
0.7323599
0.73231709
0.73229274
0.73228679
0.73229868
0.73232865
0.73237658
0.73244217
0.73252523
0.73262553
0.73274114
0.73287361
0.7330247
0.73319266
0.73337402
0.73357134
0.73378679
0.73401753
0.73426327
0.73452368
0.73479842
0.73508713
0.73538943
0.7357049
0.73603314
0.7363737
0.73672613
0.73708996
0.7374647
0.73784984
0.73824486
0.73864924
0.73906243
0.73948387
0.73991299
0.74034926
0.73484575
0.73448134
0.73413745
0.73381396
0.73351081
0.73322794
0.73296525
0.73272266
0.73250005
0.73229733
0.73211438
0.73195106
0.73180727
0.73168287
0.73157773
0.73149171
0.73142468
0.73137649
0.73134701
0.73133621
0.73134351
0.73136899
0.73141271
0.73147431
0.73155362
0.73165042
0.73176293
0.73189227
0.73203992
0.73220479
0.73238597
0.7325804
0.73279334
0.73302248
0.73326696
0.73352644
0.7338006
0.73408908
0.73439151
0.7347075
0.73503666
0.73537856
0.73573275
0.73609879
0.73647618
0.73686445
0.73726307
0.73767154
0.7380893
0.73851582
0.73895053
0.73939284
0.73984223
0.7335724
0.73321722
0.73288325
0.73257033
0.73227833
0.73200714
0.73175661
0.73152661
0.73131698
0.73112758
0.73095825
0.73080882
0.73067916
0.73056908
0.73047844
0.73040706
0.73035479
0.73032147
0.73030713
0.73031109
0.73033334
0.73037408
0.73043291
0.73050964
0.73060408
0.73071444
0.73084184
0.73098743
0.73115069
0.73133055
0.73152415
0.73173577
0.73196417
0.73220819
0.73246752
0.73274182
0.73303078
0.73333401
0.73365117
0.73398186
0.73432567
0.73468218
0.73505094
0.7354315
0.73582338
0.73622607
0.73663907
0.73706184
0.73749386
0.73793455
0.73838335
0.73883967
0.73930312
0.73220666
0.73186297
0.73154118
0.73124104
0.73096239
0.73070503
0.73046878
0.73025345
0.73005884
0.72988474
0.72973097
0.72959733
0.72948363
0.72938967
0.72931526
0.72926022
0.72922435
0.72920774
0.72920962
0.7292299
0.72926887
0.72932606
0.72940137
0.72949457
0.72960384
0.72973033
0.72987499
0.73003764
0.73021709
0.73041042
0.73062171
0.73085024
0.73109459
0.73135447
0.73162959
0.73191963
0.73222426
0.73254311
0.73287583
0.73322202
0.73358128
0.73395318
0.73433728
0.73473311
0.73514019
0.73555803
0.7359861
0.73642389
0.73687083
0.73732636
0.73778986
0.73075989
0.73043012
0.73012288
0.72983786
0.72957483
0.72933354
0.72911375
0.7289152
0.72873765
0.72858085
0.72844457
0.72832858
0.72823264
0.72815654
0.72810004
0.72806295
0.72804533
0.7280464
0.72806599
0.72810444
0.72816123
0.72823605
0.72832914
0.72843839
0.72856499
0.72870982
0.7288728
0.72905272
0.7292466
0.72945845
0.72968784
0.72993321
0.73019431
0.73047085
0.73076253
0.73106905
0.73139007
0.73172525
0.7320742
0.73243655
0.73281189
0.73319979
0.73359982
0.73401151
0.73443437
0.73486791
0.7353116
0.73576492
0.73622731
0.7366982
0.73717701
0.729243
0.72892968
0.72863946
0.72837197
0.7281269
0.72790394
0.72770278
0.72752313
0.72736467
0.72722714
0.72711024
0.72701371
0.72693727
0.72688069
0.7268437
0.72682638
0.7268279
0.72684808
0.72688725
0.72694494
0.72702098
0.7271138
0.72722463
0.72735234
0.72749848
0.7276627
0.72784396
0.72803921
0.72825259
0.72848352
0.72873057
0.72899349
0.72927201
0.72956586
0.72987474
0.73019834
0.73053633
0.73088836
0.73125408
0.73163309
0.732025
0.73242938
0.73284579
0.73327377
0.73371283
0.73416248
0.7346222
0.73509144
0.73556965
0.73605625
0.73655068
0.72766647
0.72737221
0.72710154
0.72685402
0.72662925
0.72642688
0.72624653
0.72608784
0.72595048
0.72583411
0.72573841
0.72566307
0.72560779
0.72557231
0.72555661
0.72555989
0.72558196
0.72562304
0.72568272
0.72576074
0.72585553
0.72596885
0.7260985
0.72624691
0.72641323
0.7265967
0.72679413
0.72701003
0.72724321
0.72749259
0.72775793
0.72803898
0.72833548
0.72864716
0.72897372
0.72931486
0.72967026
0.73003957
0.73042244
0.73081849
0.73122732
0.73164851
0.73208162
0.73252619
0.73298175
0.73344778
0.73392378
0.7344092
0.73490348
0.73540603
0.73591631
0.72604045
0.72576789
0.7255193
0.72529416
0.72509202
0.72491245
0.72475502
0.72461933
0.72450498
0.72441159
0.72433882
0.7242863
0.72425373
0.72424105
0.72424744
0.72427281
0.72431713
0.72437985
0.72446122
0.72455883
0.72467597
0.72480878
0.72496069
0.72512961
0.72531617
0.72551663
0.72573606
0.72597224
0.72622463
0.726493
0.72677713
0.72707678
0.72739168
0.72772158
0.72806618
0.7284252
0.72879831
0.72918519
0.72958548
0.72999882
0.73042479
0.730863
0.73131301
0.73177436
0.73224657
0.73272915
0.73322158
0.73372331
0.73423379
0.73475243
0.73527866
0.72437474
0.72412649
0.72390247
0.72370209
0.72352484
0.72337021
0.72323773
0.72312694
0.72303742
0.72296874
0.7229205
0.72289233
0.72288406
0.72289495
0.72292499
0.72297402
0.72304158
0.72312629
0.7232296
0.72334964
0.72348761
0.72364432
0.72381816
0.72400631
0.72421137
0.72443535
0.72467537
0.72493149
0.72520355
0.72549133
0.72579462
0.72611318
0.72644679
0.72679518
0.72715807
0.72753518
0.72792621
0.72833083
0.72874869
0.72917944
0.72962268
0.73007801
0.730545
0.7310232
0.73151214
0.73201131
0.73252021
0.73303829
0.73356499
0.73409973
0.73464193
0.72267877
0.72245739
0.72226036
0.72208703
0.72193681
0.72180916
0.72170355
0.72161947
0.72155645
0.72151408
0.72149185
0.7214895
0.72150627
0.72154243
0.72159723
0.7216709
0.72176082
0.7218703
0.72199557
0.72213947
0.72230135
0.72248031
0.72267317
0.72288407
0.72311233
0.72335692
0.7236175
0.7238939
0.72418592
0.72449339
0.72481608
0.72515379
0.72550629
0.72587332
0.72625464
0.72664996
0.72705898
0.72748141
0.72791689
0.72836508
0.72882561
0.72929806
0.72978202
0.73027704
0.73078266
0.73129838
0.7318237
0.73235807
0.73290093
0.7334517
0.7340098
0.72096162
0.72076955
0.72060182
0.7204577
0.72033655
0.72023778
0.7201608
0.72010506
0.72007004
0.72005557
0.72006058
0.72008491
0.7201284
0.72019095
0.72027068
0.72036941
0.72048434
0.72061661
0.72076789
0.7209355
0.72112105
0.72131951
0.72153726
0.72177098
0.72202081
0.72228654
0.72256794
0.72286483
0.72317702
0.72350433
0.72384657
0.72420353
0.72457499
0.72496073
0.7253605
0.72577403
0.72620104
0.72664124
0.7270943
0.72755987
0.72803759
0.72852708
0.7290279
0.72953964
0.73006182
0.73059396
0.73113555
0.73168607
0.73224494
0.73281159
0.73338544
0.71923195
0.71907151
0.71893523
0.71882233
0.71873212
0.71866396
0.71861727
0.71859136
0.71858591
0.71860001
0.71863351
0.71868625
0.71875657
0.71884518
0.7189529
0.71907572
0.71921727
0.71937558
0.71955181
0.71974129
0.71994972
0.72017397
0.72041427
0.72067031
0.72094198
0.7212291
0.72153149
0.721849
0.72218145
0.72252866
0.72289047
0.72326668
0.7236571
0.72406149
0.72447965
0.72491131
0.72535621
0.72581407
0.72628456
0.72676737
0.72726214
0.72776848
0.72828599
0.72881424
0.72935278
0.72990114
0.7304588
0.73102524
0.7315999
0.7321822
0.73277158
0.71749798
0.71737132
0.71726848
0.71718864
0.71713104
0.71709499
0.71708015
0.71708537
0.71711016
0.7171547
0.71721722
0.71729781
0.71739787
0.71751333
0.71764734
0.71779826
0.71796675
0.71814864
0.71834865
0.7185651
0.71879732
0.71904506
0.71930825
0.71958672
0.71988033
0.72018894
0.72051238
0.72085053
0.72120322
0.7215703
0.72195161
0.72234698
0.72275623
0.72317916
0.72361555
0.72406518
0.72452778
0.7250031
0.72549082
0.72599064
0.72650222
0.72702517
0.72755912
0.72810363
0.72865827
0.72922256
0.72979601
0.73037809
0.73096824
0.73156588
0.71576749
0.71567655
0.71560893
0.71556381
0.71554031
0.71553796
0.71555552
0.71559328
0.71564948
0.71572385
0.71581792
0.71592763
0.71605542
0.71620065
0.71636338
0.71653939
0.71673301
0.71694313
0.71716866
0.71740966
0.71766587
0.71793713
0.71822328
0.7185242
0.71883975
0.71916981
0.71951426
0.71987295
0.72024577
0.72063259
0.72103325
0.72144761
0.7218755
0.72231675
0.72277115
0.7232385
0.72371855
0.72421106
0.72471574
0.72523228
0.72576037
0.72629963
0.7268497
0.72741015
0.72798056
0.72856046
0.72914936
0.72974673
0.73035203
0.73096467
0.71404771
0.71399424
0.71396335
0.71395451
0.7139662
0.7139985
0.71404981
0.71411973
0.71420951
0.71431516
0.71443874
0.71457997
0.71473866
0.71491045
0.71510005
0.71530559
0.71552628
0.71576223
0.71601312
0.71627878
0.71655906
0.71685381
0.71716288
0.71748616
0.71782355
0.71817494
0.71854023
0.7189193
0.71931206
0.71971838
0.72013816
0.72057125
0.72101752
0.7214768
0.72194892
0.72243368
0.72293086
0.72344024
0.72396153
0.72449445
0.72503869
0.72559391
0.72615973
0.72673575
0.72732156
0.72791668
0.72852065
0.72913295
0.72975301
0.73038027
0.71234532
0.712331
0.71233811
0.7123664
0.71241439
0.7124815
0.71256851
0.71267186
0.71279337
0.71293239
0.71308903
0.71325841
0.71344625
0.71364907
0.713867
0.71409988
0.71434736
0.7146093
0.7148855
0.7151758
0.71548007
0.71579818
0.71613003
0.71647551
0.71683453
0.71720703
0.71759291
0.7179921
0.71840452
0.71883006
0.71926864
0.71972015
0.72018445
0.72066142
0.7211509
0.72165271
0.72216665
0.7226925
0.72323002
0.72377893
0.72433892
0.72490968
0.72549085
0.72608203
0.72668281
0.72729275
0.72791137
0.72853816
0.72917257
0.72981404
0.71066677
0.71069229
0.7107384
0.71080444
0.7108907
0.71099356
0.7111143
0.71125349
0.71141008
0.71157905
0.71176733
0.71196951
0.71218689
0.71241882
0.71266504
0.71292535
0.71319951
0.71348736
0.71378875
0.71410353
0.7144316
0.71477286
0.71512723
0.71549464
0.71587502
0.71626832
0.71667448
0.71709345
0.71752517
0.71796957
0.71842658
0.71889611
0.71937807
0.71987232
0.72037875
0.72089719
0.72142747
0.72196937
0.72252268
0.72308713
0.72366244
0.7242483
0.72484436
0.72545025
0.72606556
0.72668985
0.72732267
0.7279635
0.72861178
0.70901695
0.70908317
0.70917037
0.70927456
0.70939754
0.70953955
0.70969482
0.70986816
0.71005825
0.71026214
0.7104813
0.71071456
0.71096183
0.71122277
0.71149715
0.71178476
0.71208542
0.71239898
0.71272531
0.7130643
0.71341589
0.71377999
0.71415655
0.71454553
0.7149469
0.71536062
0.71578667
0.71622502
0.71667563
0.71713847
0.71761348
0.7181006
0.71859976
0.71911085
0.71963377
0.72016838
0.72071453
0.72127202
0.72184065
0.72242017
0.72301032
0.7236108
0.72422128
0.7248414
0.72547075
0.72610892
0.72675545
0.72740983
0.72807151
0.70740245
0.70750882
0.7076361
0.70778213
0.7079413
0.70812008
0.70831331
0.70852171
0.70874494
0.70898194
0.70923269
0.70949671
0.70977373
0.71006349
0.71036579
0.71068044
0.7110073
0.71134624
0.71169717
0.71206002
0.71243473
0.71282127
0.71321961
0.71362975
0.71405167
0.71448537
0.71493085
0.71538812
0.71585716
0.71633795
0.71683048
0.71733471
0.71785058
0.71837802
0.71891694
0.71946723
0.72002874
0.72060132
0.72118477
0.72177886
0.72238335
0.72299795
0.72362235
0.72425618
0.72489908
0.72555063
0.72621037
0.7268778
0.72755239
0.70582564
0.70597436
0.70614186
0.70632742
0.70652716
0.70674243
0.70697189
0.70721521
0.70747196
0.70774161
0.70802384
0.70831833
0.70862482
0.70894308
0.70927295
0.70961426
0.70996691
0.71033082
0.71070591
0.71109216
0.71148954
0.71189805
0.71231769
0.71274849
0.71319046
0.71364363
0.71410804
0.71458371
0.71507065
0.71556889
0.71607842
0.71659923
0.71713129
0.71767455
0.71822895
0.71879439
0.71937075
0.71995789
0.72055563
0.72116377
0.72178208
0.72241027
0.72304806
0.7236951
0.72435102
0.72501542
0.72568786
0.72636784
0.72705485
0.70429021
0.70448347
0.7046926
0.70491718
0.70515573
0.70540803
0.70567338
0.70595134
0.70624148
0.7065434
0.70685678
0.70718135
0.70751689
0.70786321
0.70822018
0.70858768
0.70896563
0.70935399
0.70975273
0.71016186
0.71058137
0.7110113
0.7114517
0.7119026
0.71236407
0.71283617
0.71331894
0.71381245
0.71431675
0.71483187
0.71535785
0.71589468
0.71644238
0.71700091
0.71757023
0.71815027
0.71874093
0.71934209
0.71995359
0.72057523
0.72120681
0.72184807
0.72249871
0.72315842
0.72382683
0.72450356
0.72518816
0.72588015
0.70280269
0.70303874
0.7032891
0.70355313
0.70382997
0.7041191
0.70441998
0.70473218
0.70505532
0.70538905
0.70573311
0.70608726
0.70645132
0.70682516
0.70720867
0.70760178
0.70800445
0.70841669
0.70883848
0.70926988
0.70971093
0.71016169
0.71062223
0.71109265
0.71157302
0.71206344
0.71256398
0.71307475
0.71359581
0.71412723
0.71466906
0.71522135
0.7157841
0.71635733
0.71694101
0.71753508
0.71813948
0.71875409
0.71937878
0.72001338
0.72065768
0.72131145
0.72197441
0.72264624
0.72332661
0.72401512
0.72471135
0.72541481
0.7013643
0.70164281
0.70193405
0.70223733
0.70255199
0.70287751
0.70321343
0.70355935
0.70391493
0.70427991
0.70465404
0.70503715
0.70542911
0.70582982
0.70623923
0.70665731
0.70708405
0.7075195
0.7079637
0.70841672
0.70887865
0.70934958
0.70982963
0.71031892
0.71081755
0.71132565
0.71184335
0.71237075
0.71290795
0.71345506
0.71401214
0.71457927
0.7151565
0.71574383
0.71634128
0.71694881
0.71756637
0.71819387
0.71883119
0.71947817
0.72013464
0.72080037
0.72147509
0.72215851
0.72285028
0.72355004
0.72425736
0.72497176
0.6999773
0.70029783
0.70062945
0.70097149
0.7013234
0.70168472
0.70205504
0.70243402
0.70282138
0.7032169
0.70362041
0.70403178
0.70445092
0.70487779
0.70531237
0.70575469
0.70620479
0.70666274
0.70712863
0.70760256
0.70808468
0.7085751
0.70907397
0.70958145
0.71009768
0.71062281
0.711157
0.71170038
0.71225309
0.71281525
0.71338697
0.71396834
0.71455942
0.71516026
0.71577088
0.71639128
0.71702142
0.71766123
0.71831061
0.71896942
0.7196375
0.72031463
0.72100057
0.72169502
0.72239767
0.72310814
0.72382601
0.72455084
0.69864353
0.69900549
0.69937682
0.69975695
0.7001454
0.70054178
0.70094573
0.701357
0.70177535
0.70220064
0.70263273
0.70307156
0.70351709
0.70396932
0.7044283
0.70489408
0.70536676
0.70584644
0.70633327
0.70682738
0.70732895
0.70783813
0.70835511
0.70888008
0.70941321
0.70995469
0.71050469
0.7110634
0.71163097
0.71220754
0.71279326
0.71338824
0.71399256
0.7146063
0.7152295
0.71586217
0.71650431
0.71715585
0.71781672
0.7184868
0.71916593
0.71985391
0.72055051
0.72125546
0.72196844
0.72268909
0.72341701
0.72415174
0.69736442
0.69776701
0.69817725
0.69859464
0.69901878
0.69944935
0.69988607
0.70032875
0.70077722
0.70123139
0.70169119
0.70215661
0.70262767
0.70310443
0.70358696
0.70407537
0.70456982
0.70507044
0.70557741
0.70609092
0.70661117
0.70713836
0.70767272
0.70821445
0.70876377
0.7093209
0.70988604
0.7104594
0.71104116
0.7116315
0.71223058
0.71283853
0.71345548
0.71408151
0.71471669
0.71536105
0.71601459
0.71667729
0.71734909
0.71802986
0.71871949
0.71941777
0.7201245
0.72083941
0.7215622
0.72229251
0.72302994
0.72377407
0.69614095
0.69658324
0.69703144
0.69748512
0.69794398
0.69840777
0.6988763
0.69934942
0.69982705
0.70030915
0.70079573
0.70128681
0.70178249
0.70228286
0.70278806
0.70329825
0.70381361
0.70433433
0.70486063
0.70539273
0.70593088
0.70647532
0.70702629
0.70758405
0.70814884
0.70872091
0.70930049
0.70988782
0.71048311
0.71108657
0.71169837
0.71231867
0.71294762
0.71358533
0.71423189
0.71488734
0.71555172
0.71622501
0.71690716
0.71759809
0.71829766
0.71900571
0.71972203
0.72044637
0.72117844
0.72191789
0.72266434
0.72341735
0.69497372
0.69545464
0.69593971
0.69642861
0.69692112
0.69741708
0.69791635
0.69841887
0.69892463
0.69943366
0.69994601
0.70046179
0.70098113
0.70150418
0.70203113
0.70256219
0.70309758
0.70363754
0.70418233
0.70473222
0.70528747
0.70584836
0.70641519
0.70698823
0.70756776
0.70815406
0.70874739
0.70934801
0.70995616
0.71057207
0.71119595
0.71182798
0.71246832
0.71311711
0.71377445
0.71444043
0.71511507
0.71579838
0.71649033
0.71719086
0.71789984
0.71861712
0.71934251
0.72007577
0.72081661
0.7215647
0.72231966
0.72308106
0.69386296
0.69438131
0.69490207
0.69542503
0.69595004
0.69647701
0.6970059
0.69753673
0.69806954
0.69860443
0.69914152
0.69968098
0.70022298
0.70076775
0.70131551
0.70186652
0.70242104
0.70297937
0.7035418
0.70410862
0.70468016
0.70525673
0.70583865
0.70642622
0.70701976
0.70761957
0.70822595
0.70883919
0.70945954
0.71008726
0.71072258
0.71136572
0.71201684
0.71267611
0.71334366
0.71401957
0.71470391
0.71539669
0.71609791
0.7168075
0.71752536
0.71825136
0.71898531
0.71972697
0.72047608
0.72123232
0.7219953
0.72276461
0.69280856
0.69336307
0.69391825
0.69447401
0.69503028
0.69558707
0.69614441
0.69670238
0.69726112
0.69782077
0.69838153
0.69894362
0.69950728
0.70007277
0.70064037
0.70121039
0.70178315
0.70235896
0.70293816
0.7035211
0.70410811
0.70469957
0.7052958
0.70589715
0.70650397
0.7071166
0.70773534
0.70836051
0.7089924
0.70963129
0.71027744
0.71093106
0.71159237
0.71226154
0.71293872
0.71362401
0.71431749
0.71501921
0.71572915
0.71644728
0.71717351
0.71790772
0.71864972
0.7193993
0.7201562
0.7209201
0.72169063
0.72246738
0.69181013
0.69239943
0.6929877
0.69357494
0.6941612
0.69474655
0.6953311
0.69591503
0.69649853
0.69708182
0.69766516
0.69824881
0.69883309
0.6994183
0.70000478
0.70059287
0.70118294
0.70177534
0.70237046
0.70296867
0.70357036
0.7041759
0.70478569
0.70540009
0.70601947
0.7066442
0.70727462
0.70791106
0.70855385
0.70920328
0.70985963
0.71052315
0.71119406
0.71187255
0.7125588
0.71325292
0.71395501
0.71466512
0.71538327
0.71610943
0.71684353
0.71758545
0.71833503
0.71909205
0.71985627
0.72062736
0.72140498
0.72218871
0.68898263
0.6896135
0.69024165
0.69086704
0.69148968
0.69210964
0.69272701
0.69334192
0.69395453
0.69456505
0.69517372
0.6957808
0.69638658
0.69699138
0.69759553
0.69819938
0.69880331
0.69940768
0.7000129
0.70061936
0.70122748
0.70183765
0.70245031
0.70306586
0.70368472
0.7043073
0.70493401
0.70556524
0.70620139
0.70684281
0.70748988
0.70814293
0.70880229
0.70946824
0.71014106
0.71082099
0.71150825
0.71220302
0.71290544
0.71361561
0.71433361
0.71505947
0.71579316
0.71653464
0.71728379
0.71804048
0.71880448
0.71957556
0.7203534
0.72113766
0.72192793
0.68798749
0.68865578
0.6893194
0.68997839
0.6906329
0.69128311
0.6919292
0.6925714
0.69320996
0.69384516
0.69447733
0.6951068
0.69573391
0.69635906
0.69698262
0.69760501
0.69822665
0.69884795
0.69946935
0.7000913
0.70071424
0.70133863
0.70196491
0.70259353
0.70322494
0.70385957
0.70449787
0.70514025
0.70578713
0.70643891
0.70709596
0.70775865
0.70842733
0.70910229
0.70978385
0.71047225
0.71116773
0.71187049
0.71258068
0.71329843
0.71402382
0.71475689
0.71549765
0.71624603
0.71700196
0.71776529
0.71853583
0.71931334
0.7200975
0.72088796
0.72168435
0.68705069
0.6877547
0.68845213
0.68914314
0.689828
0.69050697
0.69118034
0.69184844
0.69251161
0.69317022
0.69382464
0.69447529
0.69512259
0.69576697
0.69640887
0.69704876
0.69768709
0.69832435
0.69896101
0.69959755
0.70023446
0.70087222
0.70151131
0.70215222
0.70279542
0.70344138
0.70409056
0.70474341
0.70540037
0.70606186
0.70672827
0.7074
0.70807741
0.70876082
0.70945055
0.71014689
0.71085006
0.71156029
0.71227776
0.71300259
0.71373489
0.7144747
0.71522205
0.71597689
0.71673915
0.71750869
0.71828534
0.71906885
0.71985892
0.72065517
0.72145726
0.6861711
0.6869091
0.68763865
0.68836006
0.68907369
0.68977992
0.69047913
0.69117175
0.69185818
0.69253889
0.69321433
0.69388497
0.69455129
0.69521379
0.69587297
0.69652932
0.69718338
0.69783564
0.69848664
0.69913689
0.69978691
0.70043722
0.70108834
0.70174077
0.70239503
0.7030516
0.70371098
0.70437363
0.70504002
0.70571059
0.70638576
0.70706594
0.70775151
0.70844282
0.70914019
0.70984393
0.71055429
0.7112715
0.71199575
0.71272719
0.71346594
0.71421204
0.71496554
0.7157264
0.71649455
0.71726989
0.71805223
0.71884134
0.71963691
0.72043856
0.72124595
0.68534742
0.68611762
0.6868776
0.68762776
0.68836859
0.68910056
0.68982416
0.69053988
0.69124825
0.69194977
0.69264499
0.69333443
0.69401864
0.69469816
0.69537356
0.69604538
0.69671418
0.69738051
0.69804495
0.69870804
0.69937034
0.7000324
0.70069477
0.70135798
0.70202258
0.70268907
0.70335797
0.70402978
0.70470498
0.70538403
0.70606738
0.70675544
0.70744862
0.70814729
0.70885179
0.70956242
0.71027948
0.71100319
0.71173376
0.71247135
0.71321609
0.71396805
0.71472727
0.71549373
0.71626737
0.71704809
0.71783573
0.71863006
0.71943074
0.72023738
0.7210497
0.68457816
0.68537878
0.68616745
0.68694472
0.68771117
0.68846737
0.6892139
0.68995135
0.69068032
0.69140139
0.69211516
0.69282223
0.6935232
0.69421868
0.69490926
0.69559554
0.69627813
0.69695763
0.69763463
0.69830971
0.69898348
0.69965651
0.70032938
0.70100265
0.70167688
0.70235262
0.70303041
0.70371075
0.70439415
0.7050811
0.70577205
0.70646745
0.70716772
0.70787323
0.70858435
0.70930141
0.71002468
0.71075443
0.71149087
0.71223418
0.71298449
0.71374189
0.71450641
0.71527806
0.71605679
0.71684251
0.71763505
0.71843422
0.68386171
0.68469095
0.6855066
0.68630933
0.68709982
0.68787875
0.68864678
0.68940459
0.69015284
0.6908922
0.69162332
0.69234688
0.69306351
0.69377388
0.69447864
0.69517842
0.69587388
0.69656564
0.69725435
0.69794061
0.69862506
0.6993083
0.69999094
0.70067357
0.70135677
0.70204111
0.70272714
0.70341541
0.70410643
0.70480072
0.70549874
0.70620095
0.70690779
0.70761965
0.70833692
0.70905992
0.70978896
0.71052431
0.7112662
0.7120148
0.71277027
0.71353269
0.71430214
0.7150786
0.71586204
0.71665237
0.71744944
0.68319634
0.6840524
0.68489332
0.68571988
0.68653287
0.68733304
0.68812116
0.68889798
0.68966423
0.69042065
0.69116795
0.69190687
0.69263809
0.69336233
0.69408028
0.69479262
0.69550004
0.6962032
0.69690278
0.69759943
0.6982938
0.69898652
0.69967823
0.70036954
0.70106105
0.70175336
0.70244705
0.70314266
0.70384075
0.70454182
0.70524638
0.7059549
0.70666783
0.70738557
0.70810852
0.70883702
0.7095714
0.71031193
0.71105884
0.71181234
0.71257258
0.71333965
0.71411364
0.71489454
0.71568233
0.71647691
0.71727814
0.68258023
0.68346134
0.68432585
0.68517463
0.68600858
0.68682855
0.68763538
0.68842988
0.68921287
0.68998515
0.69074749
0.69150067
0.69224543
0.69298254
0.69371273
0.69443672
0.69515523
0.69586896
0.69657862
0.69728488
0.69798843
0.69868993
0.69939002
0.70008936
0.70078857
0.70148825
0.70218901
0.70289141
0.70359602
0.70430337
0.70501397
0.70572831
0.70644685
0.70717002
0.70789822
0.7086318
0.70937109
0.71011639
0.71086795
0.71162596
0.71239059
0.71316195
0.71394012
0.71472511
0.7155169
0.7163154
0.71712046
0.6820115
0.68291591
0.68380234
0.68467178
0.68552521
0.68636355
0.68718772
0.68799863
0.68879714
0.68958411
0.69036037
0.69112675
0.69188405
0.69263306
0.69337457
0.69410932
0.69483807
0.69556157
0.69628053
0.69699567
0.6977077
0.69841729
0.69912513
0.69983187
0.70053817
0.70124465
0.70195192
0.70266058
0.7033712
0.70408433
0.70480049
0.70552019
0.7062439
0.70697206
0.70770508
0.70844333
0.70918716
0.70993685
0.71069266
0.71145482
0.71222349
0.71299879
0.71378081
0.71456955
0.71536502
0.71616711
0.71697569
0.68148821
0.68241422
0.68332096
0.68420952
0.68508096
0.68593629
0.6867765
0.68760256
0.6884154
0.68921593
0.69000504
0.6907836
0.69155246
0.69231244
0.69306437
0.69380904
0.69454723
0.69527971
0.69600724
0.69673055
0.69745037
0.69816741
0.69888236
0.69959592
0.70030873
0.70102145
0.70173471
0.70244911
0.70316525
0.70388369
0.70460496
0.70532958
0.70605803
0.70679077
0.70752822
0.70827075
0.70901872
0.70977244
0.71053217
0.71129813
0.7120705
0.71284941
0.71363494
0.71442713
0.71522596
0.71603135
0.71684315
0.68100839
0.68195433
0.68287981
0.683786
0.68467404
0.68554503
0.68640001
0.68724001
0.68806603
0.68887903
0.68967996
0.69046971
0.69124918
0.69201924
0.69278074
0.69353451
0.69428136
0.69502209
0.69575747
0.69648827
0.69721524
0.6979391
0.69866058
0.69938037
0.70009915
0.70081759
0.70153633
0.70225599
0.70297718
0.70370047
0.70442641
0.70515553
0.70588832
0.70662525
0.70736674
0.70811319
0.70886496
0.70962235
0.71038565
0.71115509
0.71193084
0.71271305
0.7135018
0.71429713
0.71509903
0.71590743
0.71672218
0.68057006
0.68153432
0.68247702
0.6833994
0.68430269
0.68518803
0.68605655
0.68690934
0.68774744
0.68857186
0.68938359
0.69018359
0.69097278
0.69175206
0.69252232
0.69328441
0.69403917
0.69478743
0.69552999
0.69626763
0.69700112
0.69773122
0.69845865
0.69918413
0.69990836
0.70063201
0.70135575
0.70208021
0.702806
0.70353372
0.70426392
0.70499714
0.70573389
0.70647463
0.70721981
0.70796983
0.70872505
0.70948579
0.71025235
0.71102494
0.71180377
0.71258898
0.71338066
0.71417886
0.71498356
0.71579469
0.71661213
0.6748725
0.67599019
0.67707722
0.67813534
0.67916614
0.68017121
0.68115227
0.68211072
0.68304791
0.68396512
0.68486357
0.68574446
0.68660891
0.68745803
0.68829287
0.68911446
0.68992379
0.69072183
0.69150951
0.69228774
0.69305741
0.69381938
0.6945745
0.69532358
0.69606745
0.69680688
0.69754264
0.69827548
0.69900613
0.69973531
0.70046371
0.70119199
0.70192081
0.70265078
0.70338252
0.70411659
0.70485353
0.70559387
0.70633808
0.7070866
0.70783986
0.70859821
0.709362
0.7101315
0.71090697
0.71168859
0.71247652
0.71327086
0.71407164
0.71487888
0.7156925
0.71651237
0.67441728
0.67555642
0.67666345
0.67774022
0.67878848
0.67980992
0.68080628
0.68177908
0.68272973
0.6836596
0.68456997
0.68546209
0.68633713
0.68719626
0.68804055
0.68887109
0.6896889
0.69049496
0.69129026
0.69207572
0.69285225
0.69362075
0.69438208
0.69513708
0.69588658
0.69663139
0.69737228
0.69811002
0.69884536
0.69957901
0.7003117
0.70104409
0.70177685
0.70251061
0.70324598
0.70398354
0.70472386
0.70546744
0.70621477
0.70696632
0.7077225
0.70848369
0.70925022
0.71002239
0.71080045
0.7115846
0.71237498
0.71317172
0.71397485
0.71478437
0.71560023
0.7164223
0.67400646
0.67516507
0.67629023
0.67738391
0.67844799
0.67948426
0.68049448
0.68148026
0.68244311
0.68338443
0.68430557
0.68520784
0.68609246
0.68696061
0.68781345
0.68865207
0.68947752
0.69029083
0.69109299
0.69188497
0.6926677
0.69344208
0.69420901
0.69496935
0.69572393
0.69647358
0.69721909
0.69796124
0.6987008
0.69943849
0.70017504
0.70091113
0.70164743
0.7023846
0.70312324
0.70386395
0.70460729
0.70535379
0.70610394
0.70685821
0.70761703
0.70838076
0.70914976
0.70992433
0.71070471
0.71149113
0.71228372
0.71308261
0.71388785
0.71469943
0.71551731
0.71634136
0.67363782
0.67481398
0.67595548
0.6770644
0.67814272
0.67919233
0.68021502
0.68121249
0.6821863
0.68313792
0.68406875
0.68498014
0.68587335
0.68674963
0.68761013
0.688456
0.68928831
0.69010812
0.69091645
0.69171428
0.69250256
0.69328222