/*--------------------------------*- C++ -*----------------------------------*\
| =========                 |                                                 |
| \\      /  F ield         | OpenFOAM: The Open Source CFD Toolbox           |
|  \\    /   O peration     | Version:  2312                                  |
|   \\  /    A nd           | Website:  www.openfoam.com                      |
|    \\/     M anipulation  |                                                 |
\*---------------------------------------------------------------------------*/
FoamFile
{
    version     2.0;
    format      ascii;
    arch        "LSB;label=32;scalar=64";
    class       volScalarField;
    location    "0.08";
    object      nut;
}
// * * * * * * * * * * * * * * * * * * * * * * * * * * * * * * * * * * * * * //

dimensions      [0 2 -1 0 0 0 0];

internalField   nonuniform List<scalar> 
3272
(
0.02776563
0.027865542
0.027966386
0.028068131
0.028170776
0.028274328
0.0283788
0.028484208
0.028590572
0.028697915
0.028806266
0.028915656
0.029026122
0.029137702
0.02925044
0.029364385
0.029479587
0.029596101
0.029713986
0.029833303
0.029954117
0.030076496
0.030200508
0.030326222
0.03045372
0.030583109
0.030714399
0.030847713
0.030983135
0.031120749
0.031260642
0.031402903
0.031547619
0.031694878
0.031844774
0.031997398
0.032152837
0.032311182
0.032472523
0.032636952
0.032804558
0.032975432
0.033149662
0.033327336
0.03350854
0.033693359
0.033881878
0.034074178
0.034270339
0.034470441
0.034674562
0.034882781
0.035095179
0.027761015
0.027861394
0.027962688
0.028064869
0.028167937
0.028271898
0.028376765
0.028482552
0.028589278
0.028696966
0.028805644
0.028915343
0.029026098
0.029137949
0.029250939
0.029365118
0.029480535
0.029597246
0.02971531
0.029834789
0.029955748
0.030078255
0.03020238
0.030328192
0.030455791
0.030585227
0.030716576
0.030849935
0.03098539
0.031123027
0.031262932
0.031405194
0.031549902
0.031697146
0.031847017
0.031999609
0.03215501
0.032313309
0.0324746
0.032638973
0.032806518
0.032977327
0.033151487
0.033329088
0.033510215
0.033694956
0.033883392
0.034075605
0.034271675
0.034471677
0.034675684
0.034883773
0.035096053
0.027753402
0.02785459
0.027956671
0.028059614
0.028163415
0.028268077
0.028373612
0.028480031
0.028587352
0.028695598
0.028804794
0.028914973
0.029026169
0.029138421
0.029251776
0.029366279
0.029481984
0.029598947
0.029717228
0.029836889
0.029957998
0.030080623
0.030204834
0.030330728
0.030458346
0.030587776
0.03071911
0.030852432
0.030987828
0.031125385
0.031265194
0.031407343
0.031551922
0.031699024
0.031848742
0.032001168
0.032156392
0.032314507
0.032475606
0.03263978
0.032807122
0.032977723
0.033151672
0.033329059
0.033509972
0.033694495
0.033882714
0.034074711
0.034270564
0.03447035
0.034674144
0.034882023
0.035094104
0.027746007
0.027848292
0.027951434
0.028055393
0.028160163
0.028265744
0.028372144
0.028479374
0.028587449
0.028696392
0.028806228
0.028916988
0.029028708
0.029141429
0.029255195
0.029370057
0.029486068
0.029603286
0.029721773
0.029841592
0.029962817
0.030085512
0.030209779
0.030335638
0.030463203
0.030592556
0.030723781
0.030856965
0.030992195
0.031129562
0.031269158
0.031411073
0.031555399
0.031702231
0.031851666
0.032003794
0.032158709
0.032316505
0.032477277
0.032641118
0.032808122
0.032978381
0.033151986
0.033329029
0.033509596
0.033693777
0.033881654
0.034073313
0.034268832
0.03446829
0.034671761
0.034879327
0.035091105
0.027741937
0.027845522
0.027949902
0.028055035
0.028160909
0.028267524
0.028374882
0.028482995
0.028591878
0.028701552
0.028812044
0.028923385
0.029035613
0.02914877
0.029262903
0.029378063
0.029494307
0.029611695
0.029730295
0.029850161
0.029971419
0.030094056
0.030218195
0.030343913
0.030471293
0.030600423
0.030731389
0.03086428
0.030999189
0.031136207
0.031275429
0.031416947
0.031560858
0.031707259
0.031856246
0.032007914
0.032162358
0.032319676
0.032479963
0.032643315
0.032809827
0.032979594
0.033152707
0.033329259
0.033509341
0.03369304
0.033880443
0.034071634
0.034266694
0.034465703
0.034668736
0.034875876
0.035087245
0.027744269
0.027849253
0.027954947
0.028061304
0.028168309
0.028275961
0.028384261
0.028493221
0.028602856
0.028713189
0.028824248
0.028936067
0.029048685
0.029162148
0.029276506
0.029391814
0.029508134
0.029625515
0.029744086
0.029863826
0.029984862
0.030107261
0.030231106
0.030356483
0.030483479
0.030612185
0.03074269
0.030875088
0.031009474
0.031145942
0.031284589
0.031425513
0.031568814
0.03171459
0.031862938
0.032013957
0.032167746
0.032324404
0.032484028
0.032646718
0.032812568
0.032981677
0.033154137
0.033330044
0.033509488
0.033692559
0.033879346
0.034069933
0.034264404
0.034462838
0.034665312
0.034871911
0.035082758
0.027755867
0.02786224
0.027969209
0.028076726
0.028184776
0.028293355
0.02840247
0.02851213
0.028622355
0.028733169
0.028844605
0.028956699
0.029069496
0.029183045
0.0292974
0.029412614
0.029528803
0.029645943
0.029764166
0.029883535
0.030004132
0.030126037
0.030249338
0.030374124
0.030500488
0.030628523
0.030758323
0.030889985
0.031023609
0.031159292
0.031297134
0.031437238
0.031579706
0.031724638
0.031872134
0.032022298
0.032175229
0.032331029
0.0324898
0.03265164
0.032816649
0.032984925
0.033156564
0.033331661
0.033510311
0.033692604
0.033878629
0.034068474
0.034262221
0.034459953
0.034661747
0.034867686
0.035077899
0.027779256
0.027886889
0.027994978
0.028103475
0.028212368
0.028321656
0.028431347
0.028541456
0.028652005
0.028763026
0.028874552
0.028986631
0.029099305
0.02921264
0.029326715
0.029441529
0.029557206
0.029673804
0.029791406
0.029910091
0.030029944
0.030151054
0.030273513
0.030397416
0.030522858
0.030649937
0.030778753
0.030909408
0.031042003
0.031176641
0.031313424
0.03145246
0.031593853
0.031737706
0.031884124
0.03203321
0.03218507
0.032339807
0.032497523
0.032658321
0.032822302
0.032989566
0.033160211
0.033334334
0.03351203
0.033693392
0.03387851
0.034067474
0.034260366
0.03445727
0.034658264
0.034863431
0.0350729
0.027816541
0.027925186
0.028034122
0.028143307
0.028252732
0.028362402
0.02847233
0.028582538
0.028693054
0.028803918
0.02891516
0.029026868
0.029139068
0.029251799
0.029365163
0.029479221
0.029594052
0.029709738
0.029826361
0.029944008
0.030062772
0.030182748
0.030304032
0.030426725
0.030550927
0.030676741
0.030804271
0.030933624
0.031064904
0.031198218
0.031333675
0.031471383
0.031611448
0.031753979
0.031899082
0.032046865
0.032197434
0.032350897
0.032507356
0.032666918
0.032829684
0.032995757
0.033165236
0.03333822
0.033514805
0.033695086
0.033879155
0.034067102
0.034259012
0.034454968
0.034655054
0.034859355
0.035068028
0.027869361
0.027978654
0.028088054
0.028197527
0.028307071
0.028416701
0.028526435
0.028636311
0.028746341
0.028856641
0.028967177
0.029078032
0.029189287
0.029301003
0.029413259
0.029526134
0.029639712
0.02975408
0.029869329
0.029985554
0.030102853
0.030221328
0.030341081
0.030462216
0.030584841
0.030709064
0.030834993
0.030962737
0.031092406
0.031224112
0.031357967
0.031494081
0.031632563
0.031773525
0.031917078
0.03206333
0.032212392
0.03236437
0.032519374
0.032677507
0.032838875
0.033003582
0.033171729
0.033343415
0.033518738
0.033697794
0.033880677
0.034067476
0.034258281
0.034453179
0.034652265
0.027938871
0.02804834
0.028157718
0.028266985
0.028376145
0.028485234
0.028594249
0.028703332
0.028812388
0.028921547
0.029030865
0.029140408
0.029250253
0.029360476
0.029471164
0.029582404
0.029694287
0.029806907
0.029920365
0.030034762
0.030150204
0.030266797
0.030384649
0.030503871
0.030624574
0.030746873
0.030870879
0.030996705
0.031124468
0.031254282
0.031386259
0.031520515
0.031657162
0.031796314
0.031938084
0.032082585
0.032229927
0.032380221
0.032533574
0.032690096
0.032849891
0.033013065
0.033179721
0.033349958
0.033523876
0.033701572
0.033883138
0.034068668
0.034258251
0.034451981
0.034649997
0.028025742
0.028134821
0.028243603
0.028352093
0.028460272
0.028568309
0.028676049
0.028783668
0.028891198
0.028998712
0.029106281
0.029213986
0.02932191
0.029430143
0.029538777
0.02964791
0.029757639
0.02986807
0.029979309
0.030091466
0.030204651
0.030318976
0.030434556
0.030551508
0.030669947
0.030789991
0.030911758
0.031035364
0.03116093
0.031288572
0.031418405
0.031550548
0.031685116
0.031822227
0.031961994
0.032104532
0.032249954
0.032398371
0.032549894
0.032704631
0.03286269
0.033024176
0.033189193
0.033357842
0.033530223
0.033706432
0.033886566
0.034070715
0.034258969
0.034451426
0.034648228
0.028130181
0.028238231
0.02834575
0.028452894
0.028559479
0.028665697
0.028771572
0.028877178
0.028982588
0.029087882
0.029193145
0.029298467
0.029403945
0.029509676
0.029615762
0.029722309
0.029829425
0.029937224
0.030045818
0.030155323
0.030265856
0.030377535
0.030490481
0.030604814
0.030720655
0.030838125
0.030957348
0.031078445
0.031201535
0.031326738
0.031454175
0.031583964
0.031716226
0.031851077
0.031988634
0.032129013
0.032272329
0.032418693
0.032568217
0.032721012
0.032877184
0.03303684
0.033200084
0.033367019
0.033537743
0.033712354
0.033890948
0.034073616
0.034260448
0.03445154
0.034647037
0.028251947
0.028358341
0.028463923
0.028568878
0.028673222
0.028777034
0.028880386
0.028983361
0.029086047
0.029188535
0.029290924
0.029393317
0.029495819
0.029598538
0.029701585
0.029805076
0.029909129
0.030013861
0.030119395
0.030225851
0.030333353
0.030442022
0.030551985
0.030663367
0.030776294
0.030890891
0.031007284
0.031125595
0.031245949
0.031368467
0.031493273
0.031620487
0.03175023
0.031882622
0.03201778
0.032155821
0.032296861
0.032441013
0.032588388
0.032739097
0.032893249
0.033050949
0.033212302
0.03337741
0.033546372
0.033719287
0.033896248
0.034077347
0.034262676
0.034452326
0.034646447
0.028390547
0.02849436
0.028597302
0.028699434
0.028800828
0.028901569
0.02900175
0.029101468
0.029200824
0.029299924
0.02939888
0.029497805
0.029596814
0.029696025
0.02979556
0.029895542
0.029996097
0.03009735
0.030199428
0.030302459
0.030406571
0.03051189
0.030618545
0.030726667
0.030836387
0.030947832
0.031061129
0.031176405
0.031293785
0.031413394
0.031535355
0.031659793
0.031786829
0.031916582
0.032049172
0.032184716
0.03232333
0.032465128
0.032610222
0.032758721
0.032910735
0.03306637
0.033225729
0.033388914
0.033556025
0.033727158
0.033902408
0.034081866
0.034265621
0.034453767
0.034646452
0.028544866
0.028645426
0.028744969
0.028843569
0.028941321
0.029038327
0.029134696
0.029230541
0.029325978
0.029421126
0.029516108
0.029611047
0.029706069
0.029801303
0.029896878
0.029992925
0.030089576
0.030186964
0.030285219
0.030384477
0.030484867
0.030586522
0.030689574
0.030794158
0.030900404
0.031008444
0.031118408
0.031230423
0.031344617
0.031461117
0.031580047
0.031701531
0.031825692
0.03195265
0.032082525
0.032215434
0.032351493
0.032490816
0.032633514
0.032779698
0.032929476
0.033082952
0.033240231
0.033401414
0.033566598
0.033735881
0.033909355
0.034087111
0.034269238
0.034455828
0.034647029
0.028713759
0.028810309
0.02890572
0.029000085
0.029093519
0.029186144
0.029278085
0.029369468
0.029460424
0.029551084
0.029641581
0.02973205
0.029822626
0.029913446
0.030004647
0.030096366
0.030188742
0.030281912
0.030376012
0.030471181
0.030567552
0.030665262
0.030764448
0.030865242
0.03096778
0.031072194
0.031178615
0.031287174
0.031397999
0.031511216
0.031626952
0.031745331
0.031866475
0.031990505
0.03211754
0.032247698
0.032381094
0.032517842
0.032658051
0.032801833
0.032949293
0.033100536
0.033255666
0.033414782
0.033577981
0.033745358
0.033917006
0.034093014
0.034273469
0.034458464
0.034648147
0.02889579
0.028987591
0.02907816
0.029167615
0.02925609
0.029343722
0.029430652
0.029517021
0.029602973
0.029688648
0.029774191
0.029859746
0.029945457
0.030031467
0.030117921
0.03020496
0.030292728
0.030381366
0.030471016
0.030561818
0.030653911
0.030747432
0.030842519
0.030939308
0.031037935
0.031138533
0.031241235
0.031346172
0.031453472
0.031563262
0.031675669
0.031790817
0.031908827
0.03202982
0.032153915
0.032281229
0.032411875
0.032545966
0.032683613
0.032824924
0.032970004
0.033118957
0.033271884
0.033428885
0.033590054
0.033755486
0.033925272
0.034099498
0.034278251
0.034461622
0.034649766
0.029089362
0.029175708
0.029260769
0.029344681
0.029427595
0.029509669
0.029591053
0.029671902
0.029752372
0.029832614
0.029912782
0.029993027
0.0300735
0.03015435
0.030235727
0.030317778
0.030400648
0.030484484
0.030569431
0.030655629
0.030743221
0.030832344
0.030923139
0.031015742
0.03111029
0.031206916
0.031305754
0.031406933
0.031510583
0.03161683
0.0317258
0.031837617
0.031952401
0.032070273
0.03219135
0.032315747
0.032443577
0.032574953
0.032709982
0.032848772
0.032991427
0.033138049
0.033288737
0.033443589
0.0336027
0.03376616
0.033934059
0.034106483
0.034283517
0.034465248
0.029292771
0.029373009
0.029451944
0.029529732
0.029606542
0.029682543
0.0297579
0.02983278
0.029907346
0.02998176
0.030056183
0.030130772
0.030205685
0.030281074
0.030357093
0.030433892
0.030511624
0.030590431
0.030670462
0.030751861
0.030834768
0.030919325
0.031005672
0.031093944
0.031184279
0.03127681
0.031371668
0.031468985
0.031568888
0.031671504
0.031776957
0.031885368
0.03199686
0.032111549
0.032229551
0.032350982
0.032475952
0.032604571
0.032736946
0.032873184
0.033013385
0.03315765
0.033306078
0.033458764
0.033615799
0.033777274
0.033943277
0.034113892
0.034289208
0.034469357
0.029504258
0.029577794
0.029650048
0.029721195
0.029791415
0.029860892
0.029929802
0.029998321
0.030066621
0.03013487
0.030203234
0.030271877
0.030340958
0.030410635
0.030481067
0.030552402
0.030624794
0.03069839
0.030773338
0.030849781
0.030927863
0.031007723
0.031089501
0.031173334
0.031259355
0.031347699
0.031438497
0.031531876
0.031627965
0.031726888
0.031828768
0.031933725
0.03204188
0.032153347
0.032268241
0.032386676
0.032508759
0.0326346
0.032764303
0.032897972
0.033035707
0.033177607
0.033323767
0.03347428
0.033629238
0.033788727
0.033952834
0.034121642
0.034295239
0.034473775
0.029722053
0.029788363
0.02985345
0.029917504
0.029980718
0.030043286
0.030105394
0.030167224
0.030228954
0.030290759
0.030352807
0.030415266
0.030478301
0.030542069
0.030606729
0.030672434
0.030739335
0.030807582
0.03087732
0.030948695
0.031021848
0.031096918
0.031174044
0.031253361
0.031335002
0.0314191
0.031505783
0.031595178
0.031687412
0.031782607
0.031880884
0.031982362
0.032087158
0.032195386
0.032307158
0.032422586
0.032541775
0.032664833
0.032791862
0.032922963
0.033058234
0.033197772
0.03334167
0.033490019
0.033642907
0.03380042
0.033962641
0.034129651
0.034301537
0.034478457
0.029944415
0.030003049
0.030060557
0.030117139
0.030173001
0.030228341
0.030283357
0.030338234
0.030393152
0.030448292
0.030503826
0.030559922
0.030616746
0.030674456
0.030733212
0.030793166
0.03085447
0.030917272
0.030981717
0.031047949
0.031116107
0.03118633
0.031258754
0.031333513
0.031410738
0.031490558
0.031573102
0.031658494
0.031746857
0.031838313
0.03193298
0.032030975
0.032132412
0.032237403
0.032346059
0.032458486
0.032574792
0.032695078
0.032819445
0.032947993
0.033080816
0.033218009
0.033359663
0.033505866
0.033656704
0.033812261
0.033972616
0.034137849
0.034308042
0.030169663
0.03022025
0.030269841
0.030318646
0.03036688
0.030414745
0.030462441
0.030510163
0.03055809
0.030606404
0.03065528
0.030704885
0.030755385
0.030806939
0.030859705
0.030913834
0.030969477
0.03102678
0.031085886
0.031146937
0.031210071
0.031275423
0.031343127
0.031413316
0.031486117
0.031561658
0.031640065
0.031721458
0.03180596
0.031893688
0.03198476
0.032079288
0.032177384
0.032279159
0.03238472
0.032494172
0.032607618
0.032725158
0.032846891
0.032972912
0.033103316
0.033238193
0.033377631
0.033521718
0.033670536
0.033824165
0.033982685
0.034146177
0.034314767
0.030396204
0.03043845
0.030479865
0.03052066
0.030561057
0.030601266
0.030641484
0.030681908
0.030722722
0.030764105
0.030806232
0.03084927
0.030893383
0.03093873
0.030985464
0.031033736
0.031083694
0.031135482
0.03118924
0.031245107
0.031303219
0.031363708
0.031426705
0.03149234
0.031560737
0.031632022
0.031706317
0.03178374
0.031864411
0.031948444
0.032035953
0.03212705
0.032221842
0.032320438
0.032422942
0.032529456
0.032640081
0.032754915
0.032874052
0.032997587
0.033125609
0.033258209
0.033395471
0.033537479
0.033684314
0.033836054
0.033992775
0.034154559
0.034321549
0.030622553
0.030656242
0.030689291
0.030721916
0.030754338
0.030786769
0.030819411
0.030852457
0.030886091
0.030920491
0.03095583
0.030992274
0.031029982
0.031069112
0.031109814
0.031152236
0.031196523
0.031242815
0.03129125
0.031341962
0.031395085
0.031450747
0.031509077
0.031570199
0.031634238
0.031701312
0.031771543
0.031845045
0.031921934
0.032002323
0.032086321
0.032174037
0.032265578
0.032361047
0.032460545
0.032564174
0.032672029
0.032784206
0.032900798
0.033021895
0.033147586
0.033277956
0.033413088
0.033553064
0.033697962
0.033847856
0.034002819
0.03416293
0.034328341
0.030847343
0.030872334
0.030896899
0.030921257
0.03094563
0.030970228
0.030995252
0.031020893
0.031047333
0.031074749
0.031103307
0.031133172
0.031164501
0.031197445
0.031232153
0.031268768
0.031307431
0.031348279
0.031391445
0.03143706
0.031485254
0.031536152
0.031589878
0.031646553
0.031706298
0.031769229
0.031835463
0.031905111
0.031978287
0.032055098
0.032135652
0.032220055
0.032308408
0.032400815
0.032497372
0.032598177
0.032703325
0.032812906
0.032927013
0.033045731
0.033169147
0.033297343
0.033430401
0.033568398
0.033711409
0.033859508
0.034012762
0.034171244
0.031069336
0.031085559
0.031101589
0.031117649
0.031133958
0.031150723
0.031168141
0.031186402
0.031205682
0.031226155
0.031247984
0.031271328
0.031296339
0.031323165
0.03135195
0.031382834
0.031415951
0.031451434
0.031489414
0.031530016
0.031573365
0.031619584
0.031668791
0.031721105
0.031776642
0.031835515
0.031897835
0.031963713
0.032033257
0.032106572
0.032183763
0.032264931
0.032350176
0.032439596
0.032533286
0.032631341
0.032733852
0.032840908
0.032952596
0.033069002
0.033190207
0.033316292
0.033447335
0.033583412
0.033724596
0.033870956
0.034022563
0.034179527
0.031287431
0.031294879
0.031302387
0.031310176
0.03131846
0.031327443
0.031337318
0.031348268
0.031360466
0.03137408
0.031389268
0.031406183
0.031424974
0.031445782
0.031468747
0.031494002
0.031521678
0.031551903
0.031584802
0.031620496
0.031659107
0.031700751
0.031745545
0.031793601
0.031845031
0.031899946
0.031958453
0.032020659
0.032086667
0.03215658
0.032230498
0.032308521
0.032390745
0.032477265
0.032568172
0.032663558
0.032763512
0.032868119
0.032977463
0.033091628
0.033210693
0.033334735
0.03346383
0.033598051
0.033737468
0.03388215
0.034032166
0.034187641
0.031500661
0.031499388
0.031498443
0.03149804
0.031498389
0.031499689
0.031502125
0.031505875
0.031511107
0.031517982
0.031526652
0.031537264
0.031549961
0.031564879
0.031582152
0.031601907
0.03162427
0.031649364
0.031677309
0.031708222
0.031742218
0.03177941
0.03181991
0.031863826
0.031911267
0.031962338
0.032017143
0.032075785
0.032138364
0.03220498
0.032275728
0.032350705
0.032430004
0.032513717
0.032601932
0.032694738
0.03279222
0.032894461
0.033001542
0.033113544
0.033230543
0.033352614
0.033479831
0.033612263
0.03374998
0.033893046
0.034041529
0.034195558
0.031708194
0.031698309
0.031689028
0.03168056
0.031673108
0.031666863
0.031662004
0.031658702
0.031657118
0.031657405
0.031659709
0.031664172
0.031670928
0.031680108
0.031691839
0.031706244
0.031723443
0.031743553
0.031766688
0.031792961
0.031822482
0.031855359
0.031891699
0.031931607
0.031975186
0.032022538
0.032073764
0.032128962
0.032188228
0.032251658
0.032319346
0.032391384
0.032467862
0.032548868
0.032634488
0.032724807
0.032819908
0.032919871
0.033024775
0.033134695
0.033249708
0.033369884
0.033495295
0.033626009
0.033762092
0.033903606
0.034050618
0.034203254
0.031909325
0.031890983
0.03187353
0.031857165
0.031842085
0.03182847
0.031816494
0.031806319
0.031798097
0.031791974
0.031788091
0.03178658
0.03178757
0.031791185
0.031797545
0.031806768
0.031818968
0.031834255
0.031852739
0.031874528
0.031899725
0.031928436
0.031960762
0.031996803
0.032036659
0.032080427
0.032128204
0.032180084
0.03223616
0.032296526
0.032361269
0.03243048
0.032504246
0.03258265
0.032665777
0.032753709
0.032846524
0.0329443
0.033047113
0.033155038
0.033268145
0.033386505
0.033510186
0.033639254
0.033773772
0.033913802
0.034059405
0.034210707
0.032103472
0.032076873
0.032051448
0.032027391
0.032004887
0.03198411
0.031965222
0.031948378
0.031933721
0.031921391
0.031911519
0.03190423
0.031899647
0.031897887
0.031899063
0.031903287
0.031910665
0.031921305
0.031935309
0.031952779
0.031973817
0.031998519
0.032026984
0.032059309
0.032095587
0.032135912
0.032180377
0.032229073
0.032282089
0.032339514
0.032401434
0.032467936
0.032539101
0.032615014
0.032695753
0.032781398
0.032872025
0.03296771
0.033068524
0.033174539
0.033285825
0.03340245
0.033524477
0.033651972
0.033784997
0.033923608
0.034067867
0.034217897
0.032290171
0.032255547
0.032222385
0.03219087
0.032161176
0.032133467
0.032107898
0.032084611
0.032063744
0.032045426
0.032029781
0.032016927
0.032006979
0.032000046
0.031996237
0.031995655
0.031998403
0.03200458
0.032014283
0.032027611
0.032044658
0.032065518
0.032090284
0.032119048
0.032151899
0.032188928
0.032230224
0.032275873
0.032325962
0.032380576
0.032439797
0.032503709
0.032572391
0.032645924
0.032724383
0.032807846
0.032896385
0.032990073
0.03308898
0.033193176
0.033302726
0.033417695
0.033538147
0.033664144
0.033795746
0.033933008
0.034075988
0.034224806
0.032469061
0.032426675
0.032386038
0.032347324
0.032310696
0.032276309
0.032244306
0.032214822
0.032187984
0.032163913
0.032142725
0.032124531
0.032109437
0.032097547
0.032088961
0.032083777
0.032082091
0.032083997
0.032089587
0.032098954
0.032112187
0.032129375
0.032150607
0.03217597
0.032205551
0.032239435
0.032277707
0.03232045
0.032367748
0.032419681
0.032476331
0.032537775
0.032604092
0.032675358
0.032751647
0.032833032
0.032919584
0.033011374
0.033108467
0.033210932
0.033318831
0.033432227
0.033551183
0.033675756
0.033806006
0.033941986
0.034083753
0.034231424
0.032639878
0.032590018
0.03254219
0.032496557
0.032453271
0.032412475
0.032374303
0.032338879
0.032306322
0.032276745
0.032250255
0.032226954
0.032206942
0.032190316
0.032177168
0.032167592
0.032161676
0.032159509
0.032161178
0.032166769
0.032176368
0.032190059
0.032207927
0.032230053
0.032256521
0.032287412
0.032322808
0.032362788
0.032407432
0.032456818
0.032511023
0.032570123
0.032634194
0.032703307
0.032777535
0.032856949
0.032941616
0.033031603
0.033126977
0.0332278
0.033334134
0.033446039
0.033563575
0.033686799
0.033815768
0.033950535
0.034091153
0.034237738
0.032802446
0.032745421
0.032690705
0.032638448
0.032588792
0.03254187
0.032497803
0.032456709
0.032418695
0.032383866
0.03235232
0.032324154
0.032299458
0.032278322
0.032260834
0.032247079
0.03223714
0.032231101
0.032229043
0.032231047
0.032237194
0.032247565
0.032262237
0.032281291
0.032304806
0.032332858
0.032365526
0.032402886
0.032445014
0.032491986
0.032543875
0.032600755
0.032662697
0.032729772
0.032802049
0.032879597
0.032962479
0.033050762
0.033144508
0.033243779
0.033348632
0.033459127
0.033575321
0.033697269
0.033825027
0.033958647
0.034098181
0.034243744
0.033162109
0.033091508
0.033022963
0.032956671
0.032892804
0.032831514
0.03277294
0.032717214
0.032664456
0.032614779
0.032568289
0.032525086
0.032485264
0.032448916
0.032416128
0.032386986
0.032361571
0.032339965
0.032322247
0.032308494
0.032298785
0.032293195
0.032291802
0.03229468
0.032301906
0.032313555
0.032329702
0.032350422
0.032375789
0.032405877
0.032440759
0.032480509
0.032525199
0.0325749
0.032629682
0.032689614
0.032754764
0.032825199
0.032900984
0.032982183
0.033068857
0.033161068
0.033258873
0.033362331
0.033471496
0.033586423
0.033707167
0.033833781
0.03396632
0.034104834
0.034249437
0.033329189
0.033251214
0.033175603
0.03310253
0.033032152
0.032964611
0.032900036
0.032838545
0.032780248
0.032725249
0.032673642
0.03262552
0.03258097
0.032540073
0.032502911
0.03246956
0.032440098
0.032414597
0.032393132
0.032375774
0.032362597
0.032353671
0.032349069
0.032348861
0.032353119
0.032361914
0.032375317
0.0323934
0.032416234
0.032443889
0.032476436
0.032513944
0.032556483
0.032604121
0.032656926
0.032714964
0.032778301
0.032847001
0.032921128
0.033000741
0.033085901
0.033176667
0.033273094
0.033375238
0.033483151
0.033596886
0.033716496
0.033842034
0.033973554
0.034111111
0.034254815
0.033486867
0.033401886
0.033319565
0.033240058
0.033163509
0.033090046
0.033019788
0.032952841
0.032889305
0.032829273
0.032772831
0.032720063
0.032671046
0.032625856
0.032584565
0.032547245
0.032513964
0.032484791
0.032459794
0.03243904
0.032422595
0.032410527
0.032402902
0.032399788
0.032401252
0.032407361
0.032418183
0.032433786
0.032454236
0.032479603
0.032509953
0.032545353
0.03258587
0.032631569
0.032682517
0.032738776
0.032800409
0.03286748
0.032940048
0.033018173
0.033101912
0.033191322
0.033286455
0.033387366
0.033494105
0.03360672
0.033725264
0.033849788
0.033980352
0.034117012
0.034259881
0.033635214
0.033543604
0.033454935
0.033369346
0.033286966
0.033207913
0.033132292
0.033060199
0.032991723
0.032926949
0.032865952
0.032808808
0.032755587
0.032706356
0.032661181
0.032620127
0.032583256
0.032550631
0.032522315
0.032498369
0.032478854
0.032463835
0.032453372
0.032447529
0.03244637
0.032449958
0.032458358
0.032471633
0.032489848
0.032513069
0.032541359
0.032574782
0.032613403
0.032657285
0.032706491
0.032761083
0.032821121
0.032886665
0.032957774
0.033034505
0.033116913
0.033205052
0.033298975
0.033398732
0.033504371
0.033615939
0.033733481
0.033857052
0.033986718
0.034122544
0.034264638
0.03377436
0.033676499
0.033581846
0.033490527
0.033402659
0.033318346
0.033237681
0.03316075
0.033087633
0.033018403
0.032953129
0.032891877
0.03283471
0.032781688
0.03273287
0.032688314
0.032648078
0.032612218
0.032580791
0.032553854
0.032531464
0.03251368
0.03250056
0.032492163
0.032488549
0.032489777
0.032495909
0.032507007
0.032523131
0.032544344
0.032570707
0.032602282
0.032639131
0.032681314
0.032728892
0.032781925
0.032840472
0.032904589
0.032974335
0.033049763
0.033130929
0.033217882
0.033310675
0.033409355
0.033513968
0.033624556
0.033741162
0.033863834
0.033992662
0.034127734
0.034269111
0.033904481
0.033800745
0.033700472
0.033603776
0.033510758
0.033421511
0.033336118
0.033254654
0.033177189
0.033103787
0.033034509
0.032969413
0.032908554
0.032851986
0.032799762
0.032751933
0.03270855
0.032669667
0.032635333
0.032605602
0.032580527
0.032560162
0.03254456
0.032533778
0.032527872
0.032526898
0.032530915
0.03253998
0.032554153
0.032573493
0.032598059
0.03262791
0.032663106
0.032703705
0.032749766
0.032801346
0.032858502
0.032921291
0.032989766
0.033063981
0.033143989
0.033229838
0.033321579
0.033419256
0.033522914
0.033632591
0.033748323
0.033870149
0.034025792
0.033916555
0.033811023
0.033709295
0.033611462
0.033517605
0.033427794
0.033342097
0.033260572
0.033183275
0.033110261
0.033041579
0.032977276
0.032917402
0.032862001
0.032811121
0.032764807
0.032723105
0.032686064
0.032653731
0.032626155
0.032603386
0.032585474
0.032572471
0.032564432
0.032561408
0.032563456
0.032570631
0.032582989
0.032600586
0.032623481
0.032651728
0.032685387
0.032724513
0.032769163
0.032819393
0.032875257
0.03293681
0.033004105
0.033077193
0.033156125
0.033240949
0.033331712
0.033428459
0.033531232
0.033640065
0.033754993
0.03413854
0.03402417
0.033913733
0.033807315
0.033704996
0.033606843
0.033512919
0.033423279
0.033337976
0.033257057
0.033180567
0.033108549
0.033041045
0.032978097
0.032919744
0.032866028
0.03281699
0.032772672
0.032733116
0.032698366
0.032668467
0.032643466
0.032623409
0.032608346
0.032598326
0.032593401
0.032593622
0.032599043
0.032609717
0.032625698
0.032647041
0.032673802
0.032706035
0.032743796
0.032787138
0.032836115
0.032890782
0.03295119
0.033017391
0.033089434
0.03316737
0.033251244
0.033341103
0.033436989
0.033538942
0.033646999
0.033761215
0.034243
0.034123857
0.034008861
0.033898087
0.0337916
0.03368946
0.033591718
0.033498421
0.033409613
0.033325334
0.033245621
0.033170511
0.03310004
0.033034243
0.032973156
0.032916813
0.032865252
0.03281851
0.032776625
0.032739638
0.032707589
0.032680522
0.03265848
0.03264151
0.032629658
0.032622973
0.032621504
0.032625302
0.032634418
0.032648904
0.032668814
0.0326942
0.032725115
0.032761612
0.032803745
0.032851565
0.032905125
0.032964475
0.033029665
0.033100743
0.033177758
0.033260755
0.033349779
0.03344487
0.033546069
0.033653408
0.033766966
0.034339464
0.0342159
0.034096683
0.033981875
0.033871532
0.033765703
0.03366443
0.033567752
0.033475704
0.033388318
0.033305627
0.033227661
0.033154449
0.033086021
0.033022408
0.03296364
0.032909749
0.03286077
0.032816736
0.032777683
0.03274365
0.032714677
0.032690804
0.032672074
0.032658532
0.032650224
0.032647196
0.032649497
0.032657177
0.032670285
0.032688873
0.032712991
0.032742691
0.032778024
0.032819042
0.032865796
0.032918336
0.03297671
0.033040969
0.033111159
0.033187326
0.033269515
0.03335777
0.03345213
0.033552634
0.033659314
0.03377226
0.034428242
0.034300597
0.034177484
0.034058957
0.033945059
0.033835829
0.033731302
0.033631508
0.033536475
0.033446229
0.033360796
0.033280199
0.033204464
0.033133614
0.033067676
0.033006676
0.032950642
0.032899604
0.032853592
0.03281264
0.032776783
0.032746056
0.032720499
0.032700151
0.032685055
0.032675255
0.032670794
0.032671719
0.032678079
0.03268992
0.032707293
0.032730246
0.032758829
0.032793093
0.032833087
0.032878861
0.032930464
0.032987943
0.033051346
0.03312072
0.033196109
0.033277556
0.033365105
0.033458794
0.033558661
0.033664738
0.033777119
0.034509651
0.034378253
0.034251562
0.034129618
0.034012455
0.033900103
0.033792588
0.033689933
0.033592161
0.03349929
0.03341134
0.03332833
0.03325028
0.033177209
0.033109139
0.033046092
0.032988093
0.032935168
0.032887343
0.03284465
0.03280712
0.032774787
0.032747686
0.032725856
0.032709336
0.032698168
0.032692394
0.032692059
0.032697209
0.03270789
0.03272415
0.032746036
0.032773597
0.032806882
0.032845938
0.032890815
0.03294156
0.032998219
0.03306084
0.033129466
0.033204143
0.033284912
0.033371815
0.033464891
0.033564176
0.0336697