/*--------------------------------*- C++ -*----------------------------------*\
| =========                 |                                                 |
| \\      /  F ield         | OpenFOAM: The Open Source CFD Toolbox           |
|  \\    /   O peration     | Version:  2312                                  |
|   \\  /    A nd           | Website:  www.openfoam.com                      |
|    \\/     M anipulation  |                                                 |
\*---------------------------------------------------------------------------*/
FoamFile
{
    version     2.0;
    format      ascii;
    arch        "LSB;label=32;scalar=64";
    class       volScalarField;
    location    "0.08";
    object      O2;
}
// * * * * * * * * * * * * * * * * * * * * * * * * * * * * * * * * * * * * * //

dimensions      [0 0 0 0 0 0 0];

internalField   nonuniform List<scalar> 
3272
(
0.20279986
0.2023947
0.20200265
0.20162384
0.20125841
0.20090651
0.20056825
0.20024377
0.19993315
0.1996365
0.19935388
0.19908538
0.19883105
0.19859094
0.19836511
0.19815359
0.19795642
0.19777362
0.19760521
0.1974512
0.19731159
0.19718638
0.19707757
0.19698291
0.19690198
0.19683444
0.19678128
0.19674247
0.19671799
0.19670777
0.19671168
0.19672963
0.19676181
0.19680798
0.19686708
0.19694059
0.19702806
0.19712906
0.19724343
0.19737101
0.19751162
0.19766509
0.19783118
0.1980097
0.1982004
0.19840303
0.19861731
0.19884298
0.19907973
0.19932725
0.19958521
0.1998533
0.20013116
0.20260219
0.202197
0.20180507
0.20142651
0.20106147
0.20071008
0.20037248
0.20004876
0.19973903
0.19944336
0.19916183
0.1988945
0.19864144
0.19840269
0.19817829
0.19796827
0.19777267
0.1975915
0.19742479
0.19727255
0.19713478
0.19701147
0.19690455
0.19681182
0.19673261
0.19666707
0.19661594
0.19657918
0.19655674
0.19654871
0.19655468
0.19657478
0.1966091
0.19665742
0.19671866
0.19679448
0.19688418
0.19698741
0.19710403
0.19723387
0.19737676
0.19753251
0.1977009
0.19788172
0.19807473
0.19827967
0.19849628
0.19872427
0.19896335
0.19921318
0.19947346
0.19974383
0.20002399
0.20222867
0.20182365
0.20143216
0.20105432
0.20069025
0.20034009
0.20000393
0.19968188
0.19937401
0.1990804
0.19880112
0.19853621
0.19828571
0.19804968
0.19782813
0.19762109
0.19742858
0.19725062
0.19708721
0.19693838
0.19680416
0.19668465
0.19658134
0.19649225
0.19641643
0.1963547
0.19630742
0.19627456
0.19625607
0.19625196
0.19626188
0.19628607
0.19632442
0.19637674
0.19644206
0.19652219
0.19661604
0.19672345
0.19684427
0.19697833
0.19712545
0.19728544
0.1974581
0.19764319
0.19784049
0.19804973
0.19827064
0.19850294
0.19874633
0.19900049
0.19926508
0.19953977
0.19982425
0.20169804
0.20129366
0.20090321
0.20052679
0.20016449
0.19981643
0.19948269
0.19916335
0.19885847
0.19856812
0.19829232
0.19803113
0.19778456
0.19755264
0.19733538
0.19713279
0.19694488
0.19677164
0.19661307
0.19646914
0.19633978
0.19622699
0.19612827
0.19604431
0.19597353
0.19591726
0.1958755
0.19584822
0.19583536
0.19583683
0.19585242
0.19588243
0.19592662
0.195984
0.19605565
0.19614165
0.19624137
0.19635465
0.19648136
0.19662133
0.19677438
0.19694031
0.19711892
0.19730998
0.19751325
0.19772848
0.19795539
0.19819369
0.19844308
0.19870324
0.19897384
0.19925454
0.19954502
0.20102648
0.2006235
0.20023494
0.19986086
0.19950134
0.19915646
0.19882629
0.19851087
0.19821025
0.19792445
0.19765349
0.1973974
0.19715617
0.19692981
0.19671831
0.19652167
0.19633987
0.1961729
0.19602073
0.19588339
0.19576096
0.19565504
0.19556346
0.19548551
0.19542164
0.19537237
0.19533768
0.19531751
0.19531186
0.19532037
0.19534325
0.19538045
0.19543177
0.19549624
0.19557557
0.19566889
0.19577594
0.19589657
0.19603064
0.19617799
0.19633842
0.19651175
0.19669777
0.19689624
0.19710694
0.19732959
0.19756393
0.19780967
0.19806649
0.19833409
0.19861212
0.19890024
0.19919815
0.20022825
0.19982769
0.19944211
0.19907154
0.19871601
0.19837559
0.1980503
0.19774016
0.19744517
0.19716535
0.19690068
0.19665116
0.19641675
0.19619745
0.19599322
0.19580403
0.19562986
0.19547064
0.19532631
0.19519675
0.19508398
0.19498589
0.1949023
0.19483211
0.19477663
0.19473582
0.19470959
0.19469808
0.19470085
0.19471791
0.19474949
0.1947953
0.19485445
0.1949281
0.1950162
0.19511816
0.19523385
0.19536312
0.19550584
0.19566183
0.19583091
0.19601289
0.19620755
0.19641468
0.19663402
0.19686533
0.19710832
0.1973627
0.19762817
0.19790441
0.19819107
0.19848781
0.19879432
0.1993161
0.19891924
0.19853798
0.19817228
0.19782218
0.19748766
0.19716873
0.19686536
0.19657753
0.19630522
0.19604837
0.19580695
0.1955809
0.19537019
0.19517476
0.19499455
0.19482953
0.19467964
0.19454485
0.19442517
0.1943222
0.19423372
0.19415885
0.19409844
0.19405277
0.19402178
0.19400542
0.19400365
0.19401614
0.19404322
0.19408475
0.19413969
0.1942087
0.19429265
0.19439055
0.1945023
0.19462776
0.1947668
0.19491927
0.195085
0.19526381
0.19545551
0.19565988
0.19587671
0.19610575
0.19634673
0.19659939
0.19686344
0.19713856
0.19742443
0.19772071
0.19802706
0.19834317
0.19830167
0.19791002
0.19753462
0.19717539
0.19683229
0.19650529
0.19619434
0.19589937
0.19562033
0.19535713
0.19510971
0.19487799
0.19466188
0.19446132
0.19427622
0.19410652
0.19395213
0.19381299
0.19368905
0.19358184
0.19348945
0.19341101
0.19334687
0.19329752
0.19326292
0.19324299
0.19323773
0.19324679
0.19327036
0.19330839
0.19336071
0.19342626
0.1935068
0.19360158
0.1937103
0.19383284
0.19396906
0.19411884
0.19428201
0.19445842
0.19464788
0.19485021
0.19506519
0.19529259
0.19553219
0.19578372
0.1960469
0.19632144
0.19660704
0.19690338
0.1972101
0.19752688
0.19785339
0.19719571
0.19681101
0.19644322
0.1960922
0.19575787
0.19544014
0.19513891
0.19485407
0.19458551
0.19433312
0.19409679
0.1938764
0.19367184
0.193483
0.19330978
0.19315207
0.19300977
0.1928828
0.19277275
0.19267759
0.19259674
0.19253001
0.19247815
0.19244108
0.19241872
0.1924111
0.19241783
0.19243902
0.19247474
0.19252478
0.1925882
0.19266636
0.19275894
0.1928655
0.19298594
0.19312014
0.19326798
0.19342932
0.19360401
0.19379189
0.19399278
0.1942065
0.19443282
0.19467154
0.19492242
0.19518519
0.19545959
0.19574532
0.19604208
0.19634953
0.19666735
0.19699521
0.19733287
0.19600833
0.19563251
0.19527424
0.19493334
0.19460966
0.19430306
0.19401339
0.19374048
0.19348418
0.19324434
0.19302079
0.19281339
0.19262198
0.19244643
0.1922866
0.19214235
0.19201357
0.19190189
0.19180519
0.19172311
0.19165497
0.19160178
0.1915634
0.19153974
0.19153087
0.19153633
0.19155623
0.19159066
0.19163941
0.19170154
0.19177831
0.19186957
0.19197482
0.19209397
0.19222692
0.19237354
0.19253372
0.19270733
0.19289422
0.19309423
0.19330719
0.19353292
0.19377121
0.19402184
0.19428457
0.19455916
0.19484533
0.19514279
0.19545123
0.19577033
0.19609974
0.19474913
0.19438426
0.19403757
0.19370881
0.19339777
0.19310425
0.19282803
0.19256891
0.19232668
0.19210114
0.19189208
0.19169932
0.19152266
0.19136194
0.19121698
0.19108763
0.19097554
0.19087852
0.19079631
0.190728
0.19067465
0.19063618
0.19061238
0.19060333
0.19060861
0.19062828
0.19066245
0.19071089
0.19077267
0.19084897
0.19093979
0.19104456
0.1911632
0.19129562
0.19144173
0.1916014
0.19177454
0.191961
0.19216065
0.19237333
0.19259889
0.19283713
0.19308786
0.19335087
0.19362592
0.19391277
0.19421114
0.19452076
0.1948413
0.19517247
0.19551396
0.19342729
0.19307558
0.19274263
0.19242812
0.19213177
0.19185332
0.19159249
0.19134904
0.19112269
0.1909132
0.19072032
0.19054382
0.19038348
0.19023908
0.19011044
0.18999919
0.1899031
0.18982185
0.18975461
0.1897023
0.18966479
0.18964231
0.18963412
0.18964027
0.18966077
0.1896957
0.18974483
0.18980719
0.18988402
0.18997525
0.19008035
0.19019927
0.19033191
0.19047818
0.19063799
0.19081124
0.19099782
0.19119761
0.19141047
0.19163625
0.19187481
0.19212596
0.19238951
0.19266526
0.19295297
0.1932524
0.1935633
0.19388537
0.19421832
0.19456184
0.19491563
0.19205169
0.19171542
0.19139843
0.19110031
0.19082074
0.19055937
0.19031589
0.19008997
0.18988131
0.18968959
0.18951454
0.18935588
0.18921335
0.18908671
0.18897759
0.1888837
0.18880455
0.18873966
0.18868966
0.18865441
0.18863412
0.18862806
0.18863622
0.18865865
0.18869538
0.1887462
0.1888101
0.18888847
0.18898098
0.18908726
0.18920724
0.18934083
0.18948797
0.18964856
0.18982253
0.19000977
0.19021018
0.19042366
0.19065007
0.19088929
0.19114115
0.19140549
0.19168213
0.19197087
0.19227148
0.19258373
0.19290737
0.1932421
0.19358765
0.19394369
0.19430995
0.19063086
0.19031238
0.1900136
0.18973405
0.18947334
0.18923105
0.18900682
0.18880027
0.18861104
0.18843878
0.18828314
0.18814381
0.18802052
0.18791484
0.18782445
0.18774859
0.1876873
0.18764095
0.18760919
0.18759226
0.18758949
0.18760081
0.18762634
0.18766581
0.18771937
0.18778579
0.18786671
0.18796143
0.18806975
0.1881916
0.18832691
0.18847562
0.18863765
0.18881293
0.18900139
0.18920294
0.18941749
0.18964493
0.18988515
0.19013801
0.19040339
0.19068112
0.19097102
0.19127291
0.19158657
0.19191177
0.19224827
0.19259578
0.19295403
0.19332269
0.1937015
0.18917311
0.18887475
0.18859642
0.18833759
0.18809778
0.18787653
0.1876734
0.18748798
0.18731988
0.18716871
0.18703397
0.18691536
0.18681444
0.18672889
0.18665765
0.1866012
0.18655956
0.18653297
0.18652042
0.18652213
0.18653778
0.18656761
0.18661128
0.18666791
0.18673807
0.1868226
0.18692047
0.18703172
0.18715629
0.1872941
0.18744512
0.18760928
0.18778651
0.18797677
0.18817997
0.18839605
0.18862493
0.18886651
0.18912069
0.18938735
0.18966637
0.18995758
0.19026084
0.19057595
0.19090272
0.19124093
0.19159032
0.19195065
0.19232161
0.19270292
0.19309429
0.18768644
0.1874105
0.18715483
0.18691879
0.18670186
0.18650352
0.18632327
0.18616064
0.18601523
0.18588685
0.18577433
0.18567937
0.18560002
0.18553477
0.18548463
0.18544908
0.18542844
0.18542178
0.18542911
0.18545036
0.18548551
0.18553428
0.18559564
0.18567078
0.18575953
0.18586151
0.18597661
0.18610475
0.1862459
0.18639999
0.18656698
0.18674683
0.18693948
0.18714489
0.187363
0.18759375
0.18783708
0.18809289
0.18836111
0.18864162
0.18893431
0.18923905
0.18955567
0.18988401
0.19022388
0.19057506
0.19093732
0.19131041
0.19169405
0.19208793
0.1924918
0.18617854
0.18592728
0.18569638
0.18548514
0.18529296
0.18511931
0.18496363
0.18482525
0.18470372
0.1846005
0.18451264
0.18444015
0.18438261
0.18433985
0.18431225
0.18429855
0.18429908
0.18431325
0.18434137
0.18438283
0.18443801
0.18450515
0.18458637
0.18468048
0.1847875
0.18490737
0.18503998
0.18518529
0.18534325
0.18551383
0.18569698
0.18589267
0.18610086
0.18632153
0.18655463
0.18680011
0.18705791
0.18732798
0.18761023
0.18790458
0.18821092
0.18852913
0.18885906
0.18920056
0.18955344
0.18991751
0.19029254
0.19067828
0.19107448
0.19148082
0.19189706
0.18465682
0.18443238
0.18422826
0.1840437
0.18387803
0.18373069
0.18360134
0.18348859
0.1833941
0.18331564
0.18325178
0.18320304
0.18316979
0.18315062
0.18314566
0.18315447
0.18317707
0.18321302
0.18326254
0.18332405
0.18339928
0.18348719
0.18358778
0.18370091
0.18382651
0.18396452
0.18411487
0.18427753
0.18445246
0.18463964
0.18483904
0.18505064
0.18527442
0.18551037
0.18575845
0.18601864
0.18629089
0.18657516
0.18687138
0.18717948
0.18749937
0.18783094
0.18817406
0.18852858
0.18889434
0.18927115
0.18965879
0.19005703
0.1904656
0.19088423
0.19131267
0.18312832
0.18293273
0.18275728
0.18260117
0.18246353
0.18234371
0.1822431
0.18215844
0.18208985
0.18203633
0.18199866
0.1819754
0.18196639
0.18197139
0.18199007
0.18202216
0.1820677
0.18212522
0.18219599
0.18227951
0.18237539
0.18248351
0.18260379
0.18273615
0.1828805
0.18303681
0.18320502
0.18338512
0.18357708
0.1837809
0.18399655
0.18422405
0.18446339
0.18471457
0.18497757
0.18525238
0.18553897
0.18583733
0.18614739
0.1864691
0.18680238
0.18714715
0.18750328
0.18787064
0.18824909
0.18863843
0.18903847
0.18944899
0.18986972
0.1903004
0.18159972
0.18143488
0.1812898
0.18116392
0.18105572
0.18096652
0.18089433
0.18083691
0.18079606
0.18076998
0.18075835
0.18076102
0.18077736
0.18080723
0.18085051
0.18090571
0.18097391
0.18105476
0.18114767
0.1812526
0.18136938
0.18149787
0.181638
0.18178969
0.18195289
0.18212756
0.18231367
0.18251121
0.18272018
0.18294059
0.18317244
0.18341576
0.18367055
0.18393683
0.18421461
0.1845039
0.18480468
0.18511694
0.18544065
0.18577577
0.18612224
0.18647999
0.18684891
0.18722888
0.18761977
0.1880214
0.18843359
0.18885613
0.18928877
0.18973126
0.18007726
0.179945
0.17983153
0.17973811
0.17966193
0.17960186
0.17955895
0.17953116
0.17951827
0.17951999
0.17953556
0.1795648
0.17960753
0.17966209
0.17972968
0.17980964
0.17990146
0.18000506
0.18012021
0.18024674
0.18038454
0.1805335
0.18069353
0.18086459
0.18104662
0.18123962
0.18144356
0.18165847
0.18188436
0.18212125
0.18236916
0.18262814
0.18289822
0.18317943
0.1834718
0.18377535
0.1840901
0.18441604
0.18475317
0.18510145
0.18546086
0.18583132
0.18621276
0.18660507
0.18700812
0.18742176
0.18784582
0.18828008
0.18872433
0.18917832
0.17856657
0.1784693
0.1783902
0.17832831
0.17828401
0.17825553
0.17824256
0.17824468
0.17826096
0.1782911
0.17833495
0.17839054
0.17845944
0.17854034
0.178633
0.17873721
0.17885268
0.17897923
0.17911668
0.17926489
0.17942374
0.17959314
0.17977304
0.17996339
0.18016418
0.18037539
0.18059705
0.18082917
0.1810718
0.18132499
0.18158877
0.1818632
0.18214834
0.18244425
0.18275096
0.18306852
0.18339696
0.18373631
0.18408657
0.18444774
0.18481979
0.18520267
0.18559632
0.18600066
0.18641556
0.18684089
0.18727649
0.18772216
0.18817768
0.18864285
0.1770754
0.1770124
0.17696768
0.17693949
0.1769276
0.17693131
0.17694944
0.17698213
0.17702867
0.17708692
0.17715896
0.17724262
0.17733807
0.17744485
0.17756267
0.17769128
0.17783044
0.17797997
0.17813972
0.17830955
0.17848938
0.17867913
0.17887877
0.17908827
0.17930763
0.17953688
0.17977604
0.18002516
0.18028431
0.18055354
0.18083293
0.18112255
0.18142248
0.18173279
0.18205355
0.18238482
0.18272666
0.1830791
0.18344218
0.1838159
0.18420026
0.18459523
0.18500076
0.18541678
0.18584319
0.18627987
0.18672666
0.18718339
0.18764983
0.17560613
0.17557893
0.17556916
0.17557559
0.17559714
0.17563397
0.17568362
0.17574708
0.17582367
0.17591196
0.17601212
0.17612345
0.17624566
0.1763784
0.17652139
0.17667438
0.17683718
0.17700961
0.17719153
0.17738285
0.17758349
0.1777934
0.17801257
0.17824099
0.17847869
0.17872571
0.17898211
0.17924795
0.17952331
0.17980829
0.18010298
0.18040747
0.18072186
0.18104625
0.18138073
0.18172537
0.18208026
0.18244545
0.18282099
0.18320692
0.18360323
0.18400993
0.18442698
0.18485433
0.18529188
0.18573953
0.18619715
0.18666456
0.18714158
0.1741632
0.17417295
0.17419918
0.1742412
0.1742963
0.17436621
0.17444873
0.17454358
0.17465029
0.17476813
0.17489675
0.17503572
0.17518468
0.17534332
0.17551138
0.17568863
0.1758749
0.17607004
0.17627393
0.1764865
0.1767077
0.1769375
0.17717591
0.17742296
0.17767869
0.17794317
0.17821647
0.17849869
0.17878994
0.17909032
0.17939995
0.17971895
0.18004744
0.18038554
0.18073336
0.18109101
0.18145857
0.18183613
0.18222377
0.18262151
0.1830294
0.18344745
0.18387563
0.18431392
0.18476223
0.18522048
0.18568853
0.18616624
0.18665344
0.17275151
0.17279874
0.1728614
0.17293893
0.17302929
0.17313244
0.17324744
0.17337373
0.17351079
0.17365806
0.17381514
0.17398163
0.1741572
0.17434156
0.17453448
0.17473576
0.17494525
0.17516281
0.17538837
0.17562188
0.17586331
0.17611266
0.17636997
0.17663528
0.17690867
0.17719023
0.17748005
0.17777827
0.17808501
0.17840039
0.17872457
0.17905769
0.17939989
0.1797513
0.18011207
0.18048231
0.18086215
0.18125168
0.181651
0.18206017
0.18247924
0.18290823
0.18334715
0.18379597
0.18425464
0.18472308
0.18520118
0.1856888
0.18618577
0.17137398
0.17145998
0.17155989
0.17167298
0.17179816
0.17193483
0.1720823
0.17223996
0.17240731
0.17258386
0.17276921
0.17296299
0.17316492
0.17337472
0.17359219
0.17381716
0.17404951
0.17428914
0.17453599
0.17479005
0.17505131
0.1753198
0.17559559
0.17587875
0.17616937
0.17646758
0.17677351
0.17708729
0.17740909
0.17773905
0.17807735
0.17842416
0.17877963
0.17914393
0.17951722
0.17989964
0.18029133
0.18069241
0.181103
0.18152317
0.181953
0.18239252
0.18284176
0.18330071
0.18376934
0.18424756
0.1847353
0.18523241
0.17003507
0.17015954
0.17029667
0.1704456
0.17060548
0.17077563
0.1709554
0.17114424
0.17134165
0.1715472
0.17176051
0.17198126
0.17220917
0.17244402
0.17268564
0.17293389
0.17318867
0.17344992
0.17371761
0.17399176
0.17427238
0.17455955
0.17485335
0.17515389
0.17546128
0.17577568
0.17609723
0.17642612
0.17676251
0.1771066
0.17745856
0.17781859
0.17818689
0.17856363
0.17894899
0.17934315
0.17974626
0.18015846
0.18057988
0.18101062
0.18145078
0.18190041
0.18235956
0.18282822
0.18330637
0.18379397
0.18429093
0.18479713
0.16873699
0.16889995
0.16907422
0.16925892
0.1694533
0.16965668
0.16986847
0.17008816
0.17031527
0.17054942
0.17079027
0.17103753
0.17129097
0.1715504
0.17181568
0.1720867
0.1723634
0.17264576
0.17293378
0.17322749
0.17352697
0.1738323
0.1741436
0.174461
0.17478465
0.17511473
0.17545142
0.17579491
0.1761454
0.17650312
0.17686827
0.17724106
0.1776217
0.17801042
0.17840739
0.17881283
0.1792269
0.17964977
0.18008158
0.18052246
0.18097252
0.18143183
0.18190045
0.18237839
0.18286566
0.18336221
0.18386798
0.18438285
0.16748207
0.16768337
0.16789452
0.16811472
0.16834325
0.16857948
0.16882287
0.16907294
0.16932928
0.16959153
0.16985939
0.17013263
0.17041104
0.17069448
0.17098284
0.17127607
0.17157412
0.17187702
0.17218479
0.17249751
0.17281528
0.17313821
0.17346645
0.17380016
0.17413953
0.17448475
0.17483604
0.17519362
0.17555771
0.17592854
0.17630637
0.17669142
0.17708394
0.17748415
0.17789227
0.17830851
0.17873309
0.17916617
0.17960793
0.1800585
0.18051802
0.18098657
0.18146423
0.18195103
0.18244699
0.18295208
0.18346624
0.18398938
0.16627224
0.16651153
0.16675918
0.16701443
0.16727662
0.16754519
0.16781962
0.16809951
0.16838447
0.16867421
0.16896846
0.16926705
0.1695698
0.16987662
0.17018744
0.17050224
0.17082102
0.17114383
0.17147073
0.17180185
0.17213729
0.17247723
0.17282182
0.17317127
0.17352579
0.17388559
0.17425093
0.17462205
0.1749992
0.17538264
0.17577263
0.17616944
0.17657333
0.17698454
0.17740332
0.17782991
0.17826452
0.17870735
0.1791586
0.17961842
0.18008696
0.18056432
0.18105059
0.18154583
0.18205005
0.18256326
0.1830854
0.18361639
0.16510905
0.16538581
0.16566941
0.16595912
0.16625436
0.16655461
0.16685943
0.16716844
0.16748134
0.16779787
0.16811783
0.16844106
0.16876745
0.16909696
0.16942954
0.16976522
0.17010405
0.1704461
0.17079148
0.17114034
0.17149283
0.17184914
0.17220947
0.17257405
0.17294312
0.17331694
0.17369575
0.17407985
0.17446952
0.17486502
0.17526666
0.17567471
0.17608946
0.17651119
0.17694015
0.1773766
0.17782078
0.17827291
0.1787332
0.17920182
0.17967893
0.18016467
0.18065912
0.18116237
0.18167445
0.18219536
0.18272507
0.18326351
0.16399366
0.16430725
0.16462609
0.16494955
0.16527709
0.16560827
0.1659427
0.16628008
0.16662014
0.16696269
0.16730756
0.16765467
0.16800396
0.16835539
0.168709
0.16906484
0.16942299
0.16978358
0.17014674
0.17051266
0.17088153
0.17125357
0.171629
0.17200809
0.17239111
0.17277833
0.17317005
0.17356657
0.17396819
0.17437522
0.17478797
0.17520675
0.17563186
0.17606359
0.17650224
0.17694808
0.17740136
0.17786233
0.17833121
0.17880818
0.17929344
0.17978712
0.18028934
0.18080018
0.18131969
0.1818479
0.18238478
0.18293027
0.16292693
0.16327654
0.1636298
0.16398616
0.16434515
0.1647064
0.1650696
0.16543448
0.16580085
0.16616857
0.16653754
0.16690771
0.16727907
0.16765164
0.16802549
0.16840071
0.16877744
0.16915583
0.16953606
0.16991835
0.17030291
0.17069
0.17107989
0.17147285
0.1718692
0.17226922
0.17267326
0.17308161
0.17349463
0.17391264
0.17433597
0.17476495
0.17519992
0.17564117
0.17608903
0.17654378
0.17700569
0.17747504
0.17795206
0.17843696
0.17892992
0.17943112
0.17994068
0.18045871
0.18098526
0.18152036
0.18206402
0.18261617
0.16190936
0.16229406
0.1626808
0.16306911
0.16345862
0.16384901
0.16424003
0.16463149
0.16502326
0.16541526
0.16580744
0.16619979
0.16659237
0.16698524
0.16737852
0.16777234
0.16816686
0.1685623
0.16895886
0.16935679
0.16975635
0.17015781
0.17056149
0.17096769
0.17137673
0.17178895
0.1722047
0.17262433
0.17304818
0.17347662
0.17391
0.17434867
0.17479298
0.17524326
0.17569984
0.17616303
0.17663313
0.17711041
0.17759512
0.17808751
0.17858776
0.17909607
0.17961256
0.18013736
0.18067055
0.18121216
0.18176221
0.18232064
0.16094117
0.16135992
0.1617791
0.16219834
0.16261733
0.16303584
0.16345368
0.16387074
0.16428695
0.16470228
0.16511673
0.16553037
0.16594329
0.1663556
0.16676746
0.16717906
0.16759059
0.1680023
0.16841444
0.16882728
0.16924112
0.16965628
0.17007308
0.17049186
0.17091297
0.17133678
0.17176365
0.17219397
0.1726281
0.17306643
0.17350933
0.17395717
0.17441032
0.17486914
0.17533397
0.17580514
0.17628296
0.17676773
0.17725972
0.17775917
0.17826629
0.17878129
0.17930432
0.17983551
0.18037495
0.18092268
0.18147874
0.18204308
0.1600223
0.16047396
0.16092447
0.16137352
0.1618209
0.16226645
0.16271007
0.1631517
0.16359133
0.164029
0.16446478
0.16489877
0.16533112
0.16576199
0.16619158
0.16662012
0.16704785
0.16747505
0.167902
0.16832902
0.16875644
0.16918459
0.16961384
0.17004455
0.17047711
0.17091189
0.1713493
0.17178974
0.17223359
0.17268127
0.17313317
0.17358968
0.17405118
0.17451806
0.17499067
0.17546937
0.17595447
0.1764463
0.17694513
0.17745123
0.17796482
0.17848612
0.1790153
0.17955248
0.18009779
0.18065128
0.18121298
0.18178287
0.15768899
0.15817868
0.15866663
0.15915246
0.15963582
0.16011644
0.16059413
0.16106875
0.16154022
0.16200851
0.16247364
0.16293566
0.16339466
0.16385078
0.16430417
0.16475502
0.16520355
0.16565
0.16609464
0.16653776
0.16697966
0.16742067
0.16786113
0.16830141
0.16874187
0.16918291
0.16962491
0.17006828
0.17051344
0.17096081
0.17141079
0.17186382
0.17232032
0.1727807
0.17324538
0.17371475
0.17418922
0.17466916
0.17515493
0.17564689
0.17614535
0.17665061
0.17716295
0.17768263
0.17820984
0.17874478
0.17928759
0.1798384
0.18039729
0.18096428
0.18153937
0.15676613
0.15729148
0.15781325
0.15833113
0.15884489
0.15935437
0.15985947
0.16036013
0.16085636
0.1613482
0.16183572
0.16231906
0.16279837
0.16327383
0.16374565
0.16421407
0.16467936
0.1651418
0.1656017
0.16605939
0.1665152
0.16696951
0.16742268
0.16787511
0.1683272
0.16877936
0.16923201
0.16968559
0.17014053
0.17059727
0.17105625
0.17151792
0.17198272
0.17245108
0.17292343
0.1734002
0.1738818
0.17436862
0.17486104
0.17535942
0.1758641
0.1763754
0.1768936
0.17741896
0.17795172
0.17849205
0.17904014
0.17959609
0.18016002
0.18073197
0.18131193
0.15589533
0.15645488
0.15700904
0.15755758
0.15810041
0.15863744
0.15916868
0.15969416
0.16021395
0.16072817
0.16123699
0.16174057
0.16223913
0.16273292
0.1632222
0.16370726
0.1641884
0.16466596
0.16514028
0.16561172
0.16608067
0.16654752
0.16701267
0.16747655
0.16793959
0.16840222
0.1688649
0.16932808
0.16979221
0.17025776
0.1707252
0.17119498
0.17166757
0.17214342
0.17262298
0.17310668
0.17359496
0.17408823
0.17458687
0.17509127
0.17560178
0.17611872
0.1766424
0.17717309
0.17771102
0.1782564
0.1788094
0.17937016
0.1799388
0.18051537
0.18109988
0.15507585
0.15566809
0.15625315
0.15683093
0.15740143
0.15796468
0.15852077
0.1590698
0.15961195
0.16014739
0.16067636
0.1611991
0.16171588
0.16222699
0.16273276
0.16323351
0.16372961
0.16422141
0.16470932
0.16519372
0.16567502
0.16615367
0.16663009
0.16710473
0.16757806
0.16805052
0.16852261
0.16899479
0.16946754
0.16994136
0.17041672
0.1708941
0.17137398
0.17185684
0.17234314
0.17283333
0.17332786
0.17382715
0.17433161
0.17484164
0.17535758
0.1758798
0.17640859
0.17694424
0.17748701
0.17803709
0.17859468
0.17915991
0.17973292
0.18031381
0.18090255
0.15430677
0.15493013
0.15554458
0.15615013
0.15674689
0.15733499
0.1579146
0.15848593
0.1590492
0.1596047
0.16015269
0.1606935
0.16122745
0.16175488
0.16227617
0.1627917
0.16330185
0.16380705
0.16430771
0.16480428
0.16529718
0.1657869
0.16627388
0.16675861
0.16724157
0.16772325
0.16820414
0.16868474
0.16916556
0.1696471
0.17012987
0.17061435
0.17110105
0.17159045
0.17208304
0.17257929
0.17307964
0.17358456
0.17409444
0.1746097
0.17513072
0.17565785
0.1761914
0.17673168
0.17727894
0.1778334
0.17839525
0.17896463
0.1795417
0.18012661
0.18071929
0.15358702
0.15423988
0.15488216
0.155514
0.15613558
0.15674715
0.15734896
0.15794131
0.1585245
0.15909887
0.15966477
0.16022256
0.16077264
0.1613154
0.16185126
0.16238064
0.16290398
0.16342173
0.16393434
0.16444229
0.16494605
0.16544612
0.16594297
0.16643713
0.16692909
0.16741937
0.16790848
0.16839695
0.1688853
0.16937404
0.16986371
0.17035481
0.17084785
0.17134336
0.1718418
0.17234368
0.17284947
0.17335961
0.17387454
0.17439467
0.17492041
0.17545209
0.17599007
0.17653465
0.17708608
0.17764461
0.17821042
0.17878364
0.15291535
0.15359609
0.15426463
0.15492124
0.15556621
0.15619986
0.15682256
0.15743466
0.15803655
0.15862863
0.15921131
0.15978503
0.16035022
0.16090732
0.16145681
0.16199915
0.16253481
0.16306428
0.16358805
0.16410663
0.16462052
0.16513023
0.1656363
0.16613924
0.16663959
0.16713788
0.16763465
0.16813043
0.16862578
0.16912123
0.16961731
0.17011456
0.17061351
0.17111467
0.17161856
0.17212567
0.17263649
0.17315148
0.1736711
0.17419575
0.17472585
0.17526177
0.17580385
0.17635241
0.17690772
0.17747001
0.1780395
0.1522904
0.15299736
0.1536906
0.15437048
0.15503739
0.15569176
0.15633402
0.15696461
0.157584
0.15819264
0.15879101
0.1593796
0.15995889
0.16052939
0.16109158
0.161646
0.16219313
0.16273352
0.16326768
0.16379615
0.16431946
0.16483816
0.16535278
0.16586389
0.16637203
0.16687775
0.16738163
0.16788421
0.16838605
0.16888771
0.16938974
0.16989269
0.17039711
0.17090352
0.17141245
0.17192441
0.17243989
0.17295937
0.17348331
0.17401215
0.17454629
0.17508612
0.175632
0.17618423
0.17674312
0.17730891
0.17788181
0.15171071
0.15244225
0.15315861
0.15386025
0.15454768
0.1552214
0.15588192
0.15652977
0.15716547
0.15778954
0.15840253
0.15900496
0.15959738
0.16018032
0.16075433
0.16131996
0.16187776
0.16242828
0.16297209
0.16350973
0.16404178
0.16456879
0.16509135
0.16561002
0.16612537
0.16663798
0.16714843
0.1676573
0.16816515
0.16867255
0.16918009
0.16968831
0.17019778
0.17070904
0.17122262
0.17173906
0.17225884
0.17278247
0.17331041
0.1738431
0.17438097
0.17492441
0.17547378
0.17602942
0.17659161
0.17716062
0.17773665
0.15117472
0.1519292
0.15266711
0.15338904
0.15409558
0.15478731
0.15546482
0.15612871
0.15677956
0.15741797
0.15804451
0.15865978
0.15926437
0.15985884
0.1604438
0.16101982
0.16158749
0.16214739
0.16270011
0.16324623
0.16378635
0.16432106
0.16485094
0.16537659
0.1658986
0.16641757
0.16693409
0.16744875
0.16796214
0.16847485
0.16898746
0.16950054
0.17001466
0.17053039
0.17104826
0.17156881
0.17209256
0.17262
0.17315161
0.17368786
0.17422916
0.17477592
0.1753285
0.17588726
0.17645248
0.17702445
0.17760338
0.1506808
0.1514566
0.15221454
0.1529553
0.15367956
0.15438799
0.15508124
0.15575998
0.15642486
0.15707652
0.1577156
0.15834274
0.15895856
0.15956368
0.16015874
0.16074435
0.16132111
0.16188966
0.1624506
0.16300454
0.1635521
0.16409388
0.16463051
0.16516259
0.16569073
0.16621555
0.16673765
0.16725764
0.16777612
0.1682937
0.16881097
0.16932851
0.16984691
0.17036674
0.17088854
0.17141287
0.17194026
0.1724712
0.17300619
0.17354569
0.17409013
0.17463993
0.17519547
0.17575708
0.17632509
0.17689977
0.17748134
0.15022728
0.15102281
0.15179927
0.15255744
0.15329807
0.15402191
0.15472969
0.15542212
0.15609993
0.1567638
0.15741443
0.15805249
0.15867865
0.15929358
0.15989792
0.16049234
0.16107747
0.16165396
0.16222244
0.16278356
0.16333794
0.16388623
0.16442904
0.16496702
0.16550078
0.16603095
0.16655817
0.16708304
0.16760619
0.16812823
0.16864977
0.16917139
0.16969371
0.17021728
0.17074269
0.17127048
0.17180119
0.17233534
0.17287341
0.17341588
0.1739632
0.17451578
0.17507401
0.17563824
0.17620879
0.17678594
0.17736993
0.14981243
0.15062614
0.15141967
0.15219386
0.15294955
0.15368755
0.15440867
0.15511369
0.15580336
0.15647844
0.15713966
0.15778773
0.15842337
0.15904727
0.15966012
0.1602626
0.16085539
0.16143914
0.16201453
0.16258221
0.16314284
0.16369706
0.16424553
0.16478889
0.16532778
0.16586285
0.16639474
0.16692407
0.16745148
0.16797759
0.16850302
0.16902837
0.16955425
0.17008125
0.17060994
0.17114089
0.17167463
0.17221169
0.17275257
0.17329775
0.17384769
0.17440281
0.17496349
0.17553009
0.17610295
0.17668236
0.17726854
0.14492795
0.14588014
0.14680581
0.14770606
0.14858195
0.14943453
0.15026493
0.15107409
0.15186295
0.15263243
0.1533834
0.15411672
0.15483323
0.15553375
0.15621906
0.15688994
0.15754716
0.15819144
0.15882353
0.15944414
0.16005398
0.16065374
0.16124411
0.16182579
0.16239945
0.16296576
0.16352539
0.164079
0.16462726
0.16517082
0.16571035
0.16624648
0.16677986
0.16731114
0.16784095
0.16836992
0.16889866
0.16942778
0.16995789
0.17048956
0.17102336
0.17155986
0.17209956
0.172643
0.17319064
0.17374295
0.17430036
0.17486327
0.17543204
0.17600699
0.17658844
0.17717661
0.14449144
0.1454651
0.14641077
0.14732966
0.14822297
0.14909185
0.14993747
0.15076089
0.15156312
0.15234515
0.15310793
0.15385235
0.15457933
0.1552897
0.15598432
0.15666399
0.1573295
0.15798164
0.15862116
0.15924881
0.15986532
0.16047141
0.16106779
0.16165517
0.16223425
0.16280571
0.16337023
0.16392851
0.16448121
0.165029
0.16557255
0.16611253
0.16664958
0.16718436
0.16771752
0.16824969
0.16878149
0.16931354
0.16984646
0.17038083
0.17091722
0.1714562
0.1719983
0.17254404
0.1730939
0.17364836
0.17420785
0.17477276
0.17534348
0.17592032
0.17650361
0.17709357
0.14409702
0.1450902
0.14605405
0.14698988
0.14789899
0.14878265
0.14964208
0.15047843
0.15129279
0.15208619
0.15285965
0.15361413
0.15435057
0.15506986
0.15577289
0.1564605
0.15713352
0.15779275
0.15843899
0.15907299
0.15969552
0.16030733
0.16090913
0.16150165
0.16208561
0.16266172
0.16323066
0.16379314
0.16434984
0.16490144
0.16544863
0.16599206
0.16653242
0.16707036
0.16760653
0.16814157
0.16867613
0.16921083
0.16974627
0.17028307
0.17082179
0.171363
0.17190725
0.17245506
0.17300693
0.17356332
0.17412467
0.17469139
0.17526385
0.1758424
0.17642734
0.17701891
0.14374265
0.14475349
0.14573375
0.14668487
0.14760825
0.14850523
0.14937712
0.15022512
0.15105039
0.15185404
0.15263711
0.15340064
0.15414559
0.1548729
0.15558349
0.15627824
0.156958
0.1576236
0.15827586
0.15891558
0.15954352
0.16016044
0.16076711
0.16136425