/*--------------------------------*- C++ -*----------------------------------*\
| =========                 |                                                 |
| \\      /  F ield         | OpenFOAM: The Open Source CFD Toolbox           |
|  \\    /   O peration     | Version:  2312                                  |
|   \\  /    A nd           | Website:  www.openfoam.com                      |
|    \\/     M anipulation  |                                                 |
\*---------------------------------------------------------------------------*/
FoamFile
{
    version     2.0;
    format      ascii;
    arch        "LSB;label=32;scalar=64";
    class       volScalarField;
    location    "0.08";
    object      omega;
}
// * * * * * * * * * * * * * * * * * * * * * * * * * * * * * * * * * * * * * //

dimensions      [0 0 -1 0 0 0 0];

internalField   nonuniform List<scalar> 
3272
(
340.24062
339.80243
339.32715
338.81373
338.26118
337.66873
337.03576
336.36184
335.64668
334.89012
334.09213
333.25277
332.3722
331.45068
330.4885
329.48605
328.44375
327.36207
326.2415
325.08259
323.8859
322.65201
321.3815
320.07495
318.73299
317.35626
315.9454
314.50103
313.0238
311.51435
309.97334
308.40141
306.79922
305.16742
303.5067
301.81774
300.10121
298.35782
296.58826
294.79328
292.97361
291.13003
289.26332
287.3743
285.46378
283.53264
281.58175
279.61204
277.62443
275.61991
273.59945
271.56407
269.51477
341.52679
341.07834
340.59165
340.06574
339.4997
338.89285
338.24464
337.55474
336.82291
336.04909
335.23331
334.3757
333.47648
332.53597
331.55453
330.53259
329.47062
328.36913
327.22867
326.04982
324.83317
323.57933
322.28892
320.96255
319.60088
318.20456
316.77425
315.3106
313.81427
312.28591
310.72618
309.13576
307.51529
305.86546
304.18694
302.48041
300.74657
298.98611
297.19974
295.3882
293.55223
291.6926
289.8101
287.90554
285.97975
284.03359
282.06794
280.08372
278.08188
276.06339
274.02926
271.98052
269.91806
343.9425
343.47251
342.96211
342.41048
341.81691
341.18086
340.50197
339.78003
339.01498
338.20688
337.3559
336.4623
335.52643
334.54871
333.52961
332.46964
331.36939
330.22945
329.05045
327.83302
326.57784
325.28557
323.95689
322.59246
321.19299
319.75917
318.29169
316.79124
315.2585
313.69416
312.0989
310.4734
308.81833
307.1344
305.42227
303.68266
301.91625
300.12374
298.30585
296.46332
294.5969
292.70735
290.79546
288.86203
286.9079
284.93393
282.94099
280.93001
278.90191
276.85769
274.79833
272.72486
270.63815
347.35949
346.85572
346.30862
345.71762
345.08227
344.40225
343.67744
342.90786
342.09365
341.23507
340.33248
339.38631
338.39709
337.36537
336.29177
335.17697
334.02164
332.8265
331.59228
330.31973
329.0096
327.66263
326.27956
324.86114
323.40813
321.92127
320.40131
318.84897
317.26496
315.65001
314.00482
312.3301
310.62654
308.89485
307.13574
305.34988
303.538
301.70079
299.83898
297.9533
296.0445
294.11334
292.16061
290.1871
288.19365
286.1811
284.15034
282.10226
280.0378
277.95794
275.86365
273.75595
271.6357
351.65953
351.10863
350.51096
349.8663
349.17447
348.4355
347.64954
346.81689
345.93794
345.0132
344.04325
343.02876
341.97043
340.86902
339.72532
338.54016
337.31436
336.04877
334.74426
333.40167
332.02187
330.60567
329.15391
327.66742
326.14702
324.59352
323.0077
321.39033
319.74217
318.06397
316.35646
314.62038
312.85643
311.06533
309.2478
307.40454
305.53625
303.64364
301.72743
299.78836
297.82717
295.8446
293.84145
291.81849
289.77655
287.71646
285.6391
283.54535
281.43615
279.31243
277.17519
275.02542
272.86395
356.7354
356.12302
355.46017
354.74699
353.9837
353.17066
352.30837
351.39745
350.43859
349.43257
348.38025
347.28251
346.14031
344.9546
343.72636
342.45659
341.14628
339.79644
338.40804
336.98208
335.51949
334.0212
332.48815
330.92125
329.32137
327.68938
326.02611
324.33239
322.609
320.85673
319.07632
317.26854
315.4341
313.57375
311.68819
309.77812
307.84425
305.88729
303.90796
301.90697
299.88506
297.84297
295.78145
293.7013
291.60331
289.48831
287.35713
285.21068
283.04984
280.87556
278.68881
276.49055
274.28161
362.48848
361.7995
361.05628
360.25939
359.40948
358.5073
357.55372
356.54972
355.4963
354.39456
353.24563
352.05066
350.81082
349.52731
348.2013
346.83396
345.42647
343.97997
342.49557
340.97437
339.41744
337.8258
336.20046
334.54241
332.8526
331.13194
329.38131
327.60157
325.79355
323.95804
322.09583
320.20766
318.29431
316.35648
314.39487
312.41021
310.40318
308.37449
306.32485
304.25494
302.1655
300.05724
297.93091
295.78726
293.62709
291.45117
289.26036
287.0555
284.83748
282.60723
280.36568
278.11379
275.85237
368.82679
368.0456
367.20655
366.31067
365.35908
364.35294
363.29354
362.18219
361.02027
359.80917
358.55031
357.24512
355.895
354.50136
353.06559
351.58904
350.07303
348.51886
346.92777
345.30097
343.63962
341.94486
340.21776
338.45939
336.67074
334.85278
333.00642
331.13255
329.23203
327.30566
325.35424
323.37853
321.3793
319.35723
317.31305
315.24744
313.1611
311.05471
308.92895
306.7845
304.62205
302.44231
300.246
298.03384
295.80659
293.56503
291.30995
289.04219
286.7626
284.47209
282.17157
279.86201
277.54417
375.66373
374.77457
373.82425
372.81432
371.74634
370.62195
369.44281
368.21063
366.92712
365.59399
364.21294
362.78565
361.31379
359.79895
358.24272
356.64663
355.01214
353.3407
351.63365
349.8923
348.11792
346.31173
344.47487
342.60845
340.71351
338.79106
336.84204
334.86736
332.86789
330.84444
328.79781
326.72878
324.63806
322.52636
320.39437
318.24278
316.07225
313.88344
311.677
309.45358
307.21386
304.95851
302.6882
300.40364
298.10555
295.79467
293.47176
291.13764
288.79311
286.43906
284.07637
281.70597
279.32855
382.91721
381.90451
380.82787
379.68933
378.49094
377.23475
375.92285
374.55731
373.14017
371.67344
370.15911
368.5991
366.99529
365.34949
363.66345
361.93885
360.17732
358.38037
356.54948
354.68605
352.79144
350.8669
348.91366
346.93285
344.92555
342.89278
340.83553
338.75468
336.65112
334.52567
332.37912
330.2122
328.02563
325.82011
323.59629
321.35484
319.09639
316.82157
314.53099
312.22528
309.90508
307.571
305.22371
302.86386
300.49213
298.10923
295.71589
293.31286
290.90094
288.48093
286.05364
390.5092
389.358
388.14068
386.8598
385.51786
384.11736
382.66076
381.15047
379.58887
377.97825
376.32084
374.61879
372.87419
371.08902
369.26518
367.40451
365.5087
363.5794
361.61818
359.62651
357.6058
355.55736
353.48244
351.3822
349.25776
347.11014
344.9403
342.74917
340.5376
338.30641
336.05635
333.78815
331.50249
329.20005
326.88145
324.54732
322.19824
319.83482
317.45764
315.06727
312.66431
310.24934
307.82297
305.38581
302.93852
300.48174
298.01618
295.54253
293.06156
290.574
288.08048
398.36564
397.06186
395.69052
394.25467
392.75723
391.20111
389.58914
387.92405
386.20851
384.44505
382.63615
380.78415
378.8913
376.95974
374.99151
372.98853
370.95261
368.88548
366.78877
364.66402
362.51265
360.33601
358.13537
355.91191
353.66674
351.40088
349.1153
346.8109
344.48851
342.14891
339.79284
337.42099
335.03401
332.63254
330.21716
327.78846
325.34698
322.89328
320.4279
317.95135
315.46419
312.96696
310.46022
307.94453
305.42049
302.88872
300.34985
297.80457
295.25357
292.69755
290.13709
406.41648
404.94728
403.40985
401.8077
400.14419
398.42256
396.64597
394.81746
392.93993
391.01615
389.04877
387.04032
384.99318
382.90963
380.79177
378.64163
376.4611
374.25197
372.0159
369.75447
367.46912
365.1612
362.83197
360.48263
358.11427
355.7279
353.32447
350.90485
348.46982
346.02014
343.55651
341.07958
338.58996
336.08823
333.57495
331.05063
328.51579
325.97091
323.41649
320.85301
318.28095
315.70081
313.11309
310.51831
307.91701
305.30976
302.69716
300.07983
297.45842
294.8336
292.20589
414.59594
412.94989
411.23582
409.45759
407.61893
405.72343
403.77452
401.77548
399.72941
397.63929
395.50792
393.33796
391.1319
388.89209
386.62073
384.31991
381.99156
379.63751
377.25944
374.85893
372.43741
369.99625
367.53667
365.05985
362.56687
360.05872
357.53631
355.00044
352.45189
349.89135
347.31947
344.73686
342.14408
339.54167
336.93011
334.30988
331.68142
329.04518
326.40159
323.75106
321.09404
318.43096
315.76226
313.08842
310.40993
307.72729
305.04105
302.35179
299.66011
296.96663
294.27182
422.84274
421.01011
419.11046
417.148
415.12678
413.05064
410.92327
408.74813
406.52851
404.26752
401.96809
399.63296
397.26472
394.86575
392.43832
389.98455
387.5064
385.00569
382.48411
379.94321
377.38444
374.8091
372.21841
369.61349
366.99543
364.36513
361.72346
359.07119
356.40903
353.73764
351.0576
348.36947
345.67374
342.9709
340.26138
337.54558
334.8239
332.09671
329.36439
326.6273
323.88581
321.1403
318.39116
315.6388
312.88366
310.12619
307.36689
304.60627
301.84489
299.08333
296.32201
431.10047
429.07329
426.98088
424.82774
422.61818
420.35628
418.04589
415.69064
413.29394
410.85901
408.38885
405.88627
403.35388
400.79413
398.2093
395.6015
392.9727
390.32469
387.65914
384.97759
382.28143
379.57193
376.85028
374.11756
371.37475
368.62275
365.86235
363.09428
360.31918
357.53764
354.75021
351.95736
349.15953
346.35714
343.55055
340.7401
337.92613
335.10895
332.28887
329.46618
326.6412
323.81424
320.98564
318.15575
315.32494
312.49361
309.66221
306.8312
304.00108
301.17239
298.34548
439.3178
437.0899
434.7993
432.45076
430.04877
427.59758
425.10118
422.5633
419.98746
417.3769
414.73467
412.06362
409.36639
406.64543
403.90299
401.14118
398.36191
395.56697
392.75798
389.93642
387.10363
384.26086
381.40922
378.54973
375.6833
372.81076
369.93286
367.05025
364.16351
361.27318
358.3797
355.48351
352.58498
349.68443
346.78218
343.8785
340.97366
338.0679
335.16145
332.25457
329.34749
326.44046
323.53377
320.62769
317.72255
314.81869
311.9165
309.01638
306.1188
303.22423
300.33298
447.44862
445.01564
442.5232
439.9762
437.3793
434.73686
432.05294
429.33134
426.57562
423.78904
420.97467
418.13537
415.27374
412.39221
409.493
406.57817
403.64959
400.70899
397.75793
394.79783
391.83
388.85558
385.87563
382.89109
379.90281
376.91156
373.91799
370.92269
367.92619
364.92892
361.93128
358.93362
355.93624
352.9394
349.94334
346.94826
343.95436
340.96181
337.97079
334.98147
331.99403
329.00865
326.02556
323.04496
320.06714
317.09236
314.12096
311.1533
308.18979
305.23085
302.27676
455.45212
452.81148
450.1152
447.36831
444.57555
441.74135
438.86979
435.9647
433.02963
430.06787
427.08244
424.07616
421.05159
418.01112
414.95691
411.89095
408.81505
405.73086
402.63989
399.54347
396.44283
393.33904
390.23309
387.12585
384.01808
380.91046
377.80359
374.69796
371.59402
368.49215
365.39265
362.29582
359.20186
356.11097
353.02332
349.93903
346.85823
343.78102
340.70752
337.63782
334.57204
331.51031
328.45277
325.39959
322.35096
319.30712
316.26834
313.23492
310.20722
307.18563
463.29279
460.44355
457.54302
454.59631
451.60816
448.58301
445.52497
442.43783
439.32512
436.19008
433.03568
429.86466
426.67955
423.48263
420.276
417.06157
413.84108
410.61609
407.38801
404.1581
400.92749
397.69721
394.46812
391.24102
388.0166
384.79544
381.57805
378.36487
375.15625
371.95248
368.75381
365.56044
362.37251
359.19013
356.0134
352.84238
349.67712
346.51765
343.36402
340.21625
337.07441
333.93854
330.80874
327.68511
324.56778
321.45693
318.35277
315.25556
312.16557
309.08293
470.94025
467.88301
464.77929
461.63416
458.45237
455.23833
451.99611
448.72946
445.44181
442.13634
438.81596
435.48331
432.14082
428.7907
425.43496
422.0754
418.71367
415.35124
411.98942
408.62939
405.27219
401.91873
398.56982
395.22615
391.88832
388.55683
385.2321
381.91448
378.60425
375.30162
372.00676
368.71977
365.44074
362.1697
358.90667
355.65163
352.40457
349.16546
345.93425
342.71093
339.49547
336.28788
333.08817
329.89639
326.71262
323.53697
320.36961
317.21072
314.06052
310.91905
478.36907
475.10582
471.80123
468.46034
465.08782
461.68803
458.26494
454.82223
451.36324
447.89103
444.40841
440.91794
437.42195
433.92251
430.42154
426.92075
423.42167
419.92567
416.43396
412.94763
409.46761
405.99472
402.52967
399.07307
395.6254
392.1871
388.7585
385.33985
381.93136
378.53315
375.1453
371.76786
368.40082
365.04414
361.69777
358.36163
355.03561
351.71963
348.41357
345.11736
341.8309
338.55412
335.287
332.02951
328.78168
325.54357
322.31527
319.09695
315.88876
312.69069
485.55847
482.09244
478.59049
475.05754
471.4982
467.91669
464.31692
460.70242
457.0764
453.44183
449.80141
446.15755
442.51246
438.86812
435.22632
431.58866
427.95656
424.33127
420.71391
417.10544
413.50672
409.91845
406.34125
402.77561
399.22197
395.68063
392.15185
388.6358
385.13259
381.64227
378.16485
374.70028
371.24849
367.80937
364.38278
360.96856
357.56657
354.17663
350.79857
347.43224
344.07749
340.73419
337.40224
334.08158
330.77216
327.47399
324.18714
320.91168
317.64776
492.49202
488.82751
485.13268
481.41231
477.67089
473.91252
470.14093
466.35958
462.5715
458.77953
454.98623
451.1939
447.40461
443.62022
439.84239
436.07259
432.31214
428.56217
424.82368
421.09754
417.38449
413.68513
409.99998
406.32945
402.67386
399.03345
395.40836
391.79869
388.20448
384.62568
381.06222
377.51399
373.98083
370.46255
366.95896
363.46983
359.99493
356.53403
353.0869
349.65331
346.23306
342.82596
339.43185
336.05061
332.68214
329.3264
325.98339
322.65313
319.3355
499.15728
495.29948
491.41709
487.51469
483.59664
479.66688
475.72898
471.78622
467.84154
463.89759
459.9568
456.02131
452.09308
448.17382
444.26506
440.36815
436.48428
432.61448
428.75963
424.92048
421.09766
417.29169
413.50297
409.73183
405.97848
402.24307
398.52568
394.82631
391.14489
387.48133
383.83547
380.20712
376.59604
373.00199
369.4247
365.86386
362.31919
358.79039
355.27717
351.77923
348.29632
344.82819
341.37462
337.93543
334.51049
331.09969
327.70298
324.32032
320.9515
505.54538
501.50025
497.43627
493.35787
489.26919
485.17402
481.07577
476.97752
472.88208
468.79193
464.70935
460.63633
456.57468
452.52597
448.49162
444.47283
440.47068
436.48606
432.51976
428.5724
424.64452
420.73653
416.84874
412.98136
409.13454
405.30832
401.50269
397.71758
393.95285
390.20831
386.48373
382.77885
379.09337
375.42696
371.77929
368.15
364.53872
360.94511
357.3688
353.80945
350.26673
346.74036
343.23005
339.73558
336.25674
332.79341
329.34547
325.91286
322.49532
511.65068
507.42475
503.1857
498.93778
494.68493
490.43074
486.17845
481.93096
477.6909
473.4606
469.24215
465.03743
460.84808
456.67554
452.52108
448.38578
444.27059
440.1763
436.10355
432.05289
428.02473
424.01938
420.03706
416.07789
412.14191
408.2291
404.33935
400.47251
396.62837
392.80665
389.00706
385.22927
381.4729
377.73756
374.02285
370.32835
366.65364
362.9983
359.36192
355.74409
352.14444
348.56261
344.99828
341.45116
337.92102
334.40766
330.91095
327.4308
517.47031
513.07059
508.66341
504.25283
499.84259
495.43607
491.03631
486.64604
482.2677
477.90346
473.55526
469.22481
464.91359
460.62292
456.35392
452.10756
447.88465
443.68586
439.51174
435.36271
431.23908
427.14106
423.06878
419.02227
415.00148
411.00629
407.03654
403.09198
399.17232
395.27722
391.40633
387.55922
383.73546
379.93461
376.15619
372.39972
368.66473
364.95073
361.25727
357.58388
353.93012
350.29561
346.67995
343.08282
339.50393
335.94303
332.39993
328.8743
523.00389
518.43771
513.86965
509.30355
504.74292
500.19094
495.65046
491.12401
486.61386
482.12201
477.65023
473.20007
468.77288
464.36983
459.99191
455.63995
451.31466
447.01657
442.74613
438.50366
434.28936
430.10335
425.94566
421.81624
417.71495
413.6416
409.59592
405.57761
401.58631
397.6216
393.68306
389.7702
385.88253
382.01954
378.1807
374.36547
370.57331
366.8037
363.0561
359.33002
355.62498
351.94051
348.27619
344.63164
341.00652
337.40055
333.81345
330.24482
528.25317
523.5281
518.80659
514.09225
509.38837
504.69792
500.02354
495.36759
490.73214
486.11904
481.52988
476.96606
472.4288
467.91911
463.43786
458.98576
454.56338
450.17117
445.80944
441.47841
437.1782
432.90884
428.67024
424.46229
420.28476
416.13738
412.01982
407.93169
403.87255
399.84195
395.83937
391.86427
387.91611
383.99431
380.09828
376.22743
372.38117
368.55892
364.7601
360.98417
357.23058
353.49884
349.78847
346.09905
342.43019
338.78156
335.15286
331.5436
533.22166
528.34541
523.478
518.62279
513.78285
508.96095
504.15953
499.38075
494.62651
489.89849
485.19813
480.52667
475.88518
471.27455
466.69551
462.14865
457.63443
453.15318
448.70511
444.29036
439.90893
435.56075
431.24569
426.96351
422.71393
418.4966
414.31111
410.157
406.03378
401.94092
397.87784
393.84395
389.83864
385.86128
381.91122
377.98784
374.09048
370.21851
366.37132
362.54829
358.74886
354.97247
351.21861
347.48681
343.77665
340.08773
336.41973
332.77212
537.91441
532.89474
527.88898
522.90027
517.93147
512.98512
508.06346
503.16848
498.30191
493.46524
488.65977
483.8866
479.14665
474.44068
469.7693
465.13298
460.53206
455.96677
451.43724
446.94347
442.48541
438.0629
433.6757
429.32351
425.00598
420.72267
416.47311
412.25679
408.07314
403.92156
399.80144
395.71211
391.65292
387.62317
383.62218
379.64927
375.70373
371.78488
367.89208
364.02466
360.18201
356.36353
352.56867
348.79692
345.04781
341.32092
337.61587
333.93212
542.33766
537.18231
532.04574
526.93086
521.8403
516.77641
511.74125
506.7366
501.76404
496.82489
491.92031
487.05125
482.21849
477.42267
472.66428
467.94367
463.26108
458.61665
454.01038
449.44222
444.912
440.41949
435.96438
431.54628
427.16478
422.81936
418.50951
414.23463
409.99409
405.78726
401.61345
397.47194
393.36204
389.28299
385.23407
381.21453
377.22365
373.26069
369.32496
365.41576
361.53244
357.67436
353.84092
350.03158
346.24582
342.4832
338.74329
335.02552
546.49869
541.21531
535.95536
530.72152
525.51622
520.34159
515.19951
510.0916
505.01926
499.98367
494.98582
490.02654
485.10649
480.22616
475.38595
470.5861
465.82674
461.1079
456.42951
451.79142
447.19339
442.6351
438.11617
433.63615
429.19453
424.79077
420.42426
416.09436
411.80039
407.54164
403.31738
399.12686
394.96931
390.84395
386.74999
382.68666
378.65318
374.64879
370.67273
366.72428
362.80275
358.90746
355.03779
351.19314
347.37296
343.57676
339.8041
336.05437
550.40552
545.00166
539.62563
534.27989
528.96669
523.68796
518.44541
513.24047
508.0744
502.94823
497.86281
492.81882
487.81682
482.85718
477.94018
473.06597
468.23457
463.44592
458.69988
453.99619
449.33455
444.71456
440.13577
435.59767
431.09968
426.64119
422.22154
417.84004
413.49595
409.18852
404.91696
400.68047
396.47823
392.30944
388.17325
384.06884
379.99541
375.95215
371.93828
367.95302
363.99566
360.06549
356.16184
352.28408
348.43162
344.60395
340.80057
337.02084
554.06681
548.54983
543.06482
537.61408
532.19964
526.82327
521.48648
516.19058
510.93665
505.72557
500.55808
495.43474
490.35596
485.32202
480.3331
475.38923
470.49036
465.63635
460.82695
456.06184
451.34064
446.66288
442.02805
437.43556
432.8848
428.37507
423.90568
419.47588
415.08487
410.73186
406.41601
402.13648
397.89241
393.68295
389.50722
385.36437
381.25353
377.17389
373.12461
369.1049
365.11399
361.15116
357.21571
353.30696
349.4243
345.56716
341.73501
337.9272
557.49165
551.86871
546.28163
540.73255
535.22332
529.75555
524.33059
518.94957
513.61343
508.32294
503.07869
497.88113
492.73055
487.62715
482.57098
477.562
472.60007
467.68495
462.81633
457.99382
453.21695
448.4852
443.79799
439.15468
434.55459
429.99699
425.48111
421.00615
416.5713
412.17569
407.81845
403.4987
399.21554
394.96807
390.75539
386.5766
382.43081
378.31715
374.23478
370.18287
366.16062
362.16727
358.2021
354.26441
350.35354
346.46886
342.60983
338.77573
578.06997
572.24346
566.44899
560.68954
554.96745
549.28495
543.64397
538.0462
532.49305
526.98573
521.52522
516.11234
510.74771
505.4318
500.16497
494.94739
489.77916
484.66024
479.5905
474.56972
469.59759
464.67371
459.79764
454.96884
450.18672
445.45065
440.75992
436.11382
431.51155
426.9523
422.43523
417.95947
413.52412
409.12827
404.77099
400.45136
396.16843
391.92127
387.70895
383.53054
379.38516
375.27191
371.18995
367.13846
363.11664
359.12376
355.15908
351.2219
347.31155
343.42742
339.56879
581.35072
575.42007
569.5256
563.66994
557.85535
552.08384
546.35716
540.67683
535.04409
529.46001
523.92543
518.44102
513.00731
507.62465
502.29328
497.01328
491.78466
486.60729
481.48097
476.40538
471.38015
466.40482
461.47887
456.6017
451.77267
446.99109
442.25622
437.56726
432.92339
428.32375
423.76746
419.2536
414.78125
410.34944
405.95721
401.60361
397.28766
393.00839
388.76483
384.55605
380.38111
376.2391
372.12916
368.05043
364.0021
359.98342
355.99363
352.03199
348.09775
344.19024
340.30871
584.40287
578.37524
572.38762
566.44242
560.54173
554.68739
548.88097
543.12382
537.41705
531.76156
526.15807
520.60716
515.1092
509.66447
504.27308
498.93505
493.65029
488.41858
483.23964
478.1131
473.03851
468.01535
463.04303
458.1209
453.24827
448.42439
443.64847
438.91968
434.23714
429.59996
425.00721
420.45794
415.95117
411.48593
407.06122
402.67604
398.32938
394.02025
389.74766
385.51063
381.30821
377.13947
373.0035
368.89945
364.82648
360.78383
356.77072
352.78638
348.82998
344.9007
340.99783
587.23684
581.1191
575.04495
569.01658
563.03593
557.10467
551.22421
545.39574
539.62022
533.89844
528.23101
522.61835
517.06077
511.55842
506.11135
500.71946
495.38259
490.10046
484.87271
479.69889
474.5785
469.51095
464.49561
459.53176
454.61868
449.75555
444.94155
440.17579
435.45738
430.78536
426.15877
421.57664
417.03795
412.54169
408.08683
403.67234
399.29719
394.96035
390.66082
386.39757
382.16965
377.97609
373.81597
369.68841
365.59257
361.52768
357.49296
353.48764
349.51072
345.56119
341.63844
589.86303
583.66176
577.5074
571.40196
565.34722
559.34467
553.3956
547.50104
541.66184
535.87865
530.15196
524.48212
518.8693
513.31359
507.81494
502.37317
496.98805
491.65922
486.38625
481.16865
476.00585
470.8972
465.84201
460.83953
455.88898
450.98951
446.14023
441.34025
436.5886
431.88432
427.2264
422.61383
418.04558
413.52058
409.0378
404.59616
400.19462
395.83212
391.50762
387.2201
382.96854
378.75199
374.56949
370.42015
366.30313
362.21763
358.16294
354.13828
350.14242
346.17393
342.23272
592.29173
586.01319
579.78465
573.60794
567.48468
561.41623
555.40372
549.44805
543.54997
537.71001
531.92855
526.20583
520.54197
514.93693
509.3906
503.90273
498.473
493.10101
487.78626
482.52819
477.32618
472.17954
467.08753
462.04935
457.06416
452.1311
447.24923
442.4176
437.63524
432.90114
428.21426
423.57356
418.97797
414.42641
409.91782
405.45109
401.02515
396.63892
392.29134
387.98137
383.70797
379.47016
375.26696
371.09748
366.96085
362.8563
358.78313
354.74074
594.53302
588.18318
581.8862
575.64374
569.45726
563.328
557.25695
551.24493
545.29252
539.40018
533.5682
527.79672
522.08576
516.43522
510.84491
505.31451
499.84365
494.43185
489.07856
483.78317
478.545
473.36332
468.23734
463.16623
458.1491
453.18505
448.27311
443.41231
438.60162
433.84001
429.12641
424.45976
419.83896
415.2629
410.73049
406.24061
401.79216
397.38405
393.01518
388.68449
384.39093
380.1335
375.91121
371.72313
367.5684
363.44621
359.35591
596.59676
590.1813
583.82131
577.51832
571.27365
565.08842
558.9635
552.89958
546.89718
540.95664
535.07815
529.26178
523.50748
517.81507
512.18428
506.61475
501.10603
495.65759
490.26883
484.93909
479.66764
474.45372
469.29648
464.19506
459.14854
454.15597
449.21636
444.32869
439.49193
434.705
429.96681
425.27627
420.63226
416.03366
411.47932
406.96814
402.49897
398.0707
393.68223
389.33247
385.02036
380.74486
376.50498
372.29978
368.12835
363.98987
359.88343
598.49254
592.01683
585.59899
579.24041
572.94231
566.70568
560.53129
554.41973
548.37142
542.38661
536.46542
530.60784
524.81374
519.08288
513.41493
507.80947
502.26598
496.7839
491.36257
486.00129
480.69929
475.45576
470.26982
465.14057
460.06706
455.0483
450.08328
445.17095
440.31025
435.50007
430.7393
426.02683
421.36151
416.74219
412.16772
407.63697
403.14877
398.70199
394.29552
389.92824
385.59908
381.30699
377.05096
372.83001
368.64323
364.48974
360.36851
600.22966
593.69878
587.22795
580.81847
574.47142
568.18771
561.96801
555.81281
549.72245
543.6971
537.7368
531.84147
526.01092
520.24485
514.54286
508.90448
503.32916
497.81627
492.36512
486.97495
481.64497
476.37431
471.16209
466.00735
460.90911
455.86637
450.87808
445.94316
441.06052
436.22904
431.4476
426.71503
422.03018
417.39189
412.79899
408.2503
403.74467
399.28094
394.85797
390.47464
386.12986
381.82257
377.55172
373.31634
369.11548
364.94825
360.81351
601.81708
595.23583
588.71661
582.26062
575.86888
569.54216
563.28107
557.08601
550.95724
544.89485
538.89883
532.96903
527.10518
521.30694
515.57387
509.90543
504.30103
498.75999
493.28159
487.86504
482.50949
477.21407
471.97783
466.79981
461.67899
456.61434
451.60478
446.64923
441.74655
436.89562
432.09528
427.34435
422.64167
417.98604
413.37629
408.81122
404.28966
399.81044
395.3724
390.97441
386.61536
382.29416
378.00978
373.76121
369.54749
365.36768
361.22063
603.26347
596.63637
590.07307
583.57473
577.14227
570.77639
564.4776
558.24624
552.08248
545.98638
539.95782
533.99661
528.10245
522.27491
516.51352
510.8177
505.18681
499.62015
494.11693
488.67635
483.29752
477.97954
472.72143
467.5222
462.38081
457.2962
452.26728
447.29293
442.372
437.50335
432.68579
427.91815
423.19922
418.5278
413.9027
409.32271
404.78664
400.2933
395.84153
391.43018
387.05812
382.72426
378.42754
374.16695
369.94151
365.75026
361.59202
604.57716
597.90842
591.30511
584.76831
578.29889
571.89745
565.56444
559.30013
553.10462
546.97789
540.9198
534.93009
529.00839
523.15426
517.36717
511.64649
505.99156
500.40162
494.87588
489.41348
484.01352
478.67505
473.39708
468.1786
463.01853
457.91581
452.8693
447.87788
442.94039
438.05565
433.22246
428.43963
423.70595
419.02019
414.38115
409.78761
405.23836
400.73221
396.26797
391.84448
387.46061
383.11525
378.80734
374.53583
370.29973
366.0981
361.92971
640.25336
633.23506
626.27488
619.37526
612.53833
605.76618
599.0597
592.42017
585.84858
579.34572
572.91212
566.54816
560.25403
554.02979
547.87537
541.79056
535.77506
529.82846
523.95028
518.13993
512.39677
506.72008
501.1091
495.56298
490.08084
484.66176
479.30475
474.00882
468.77292
463.59596
458.47684
453.41443
448.40757
443.45509
438.55578
433.70846
428.91189
424.16486
419.46613
414.81448
410.20868
405.6475
401.12975
396.65423
392.21976
387.8252
383.46944
379.15138
374.86999
370.62426
366.41323
362.23567
641.51869
634.45831
627.45786
620.51966
613.6458
606.83806
600.09754
593.42536
586.82244
580.28944
573.82686
567.43501
561.11402
554.8639
548.68452
542.57564
536.53691
530.56787
524.66801
518.83671
513.07329
507.377
501.74704
496.18256
490.68264
485.24633
479.87263
474.56051
469.30891
464.11673
458.98284
453.90609
448.88531
443.91932
439.0069
434.14683
429.33788
424.57882
419.8684
415.20538
410.58853
406.01661
401.4884
397.00271
392.55834
388.15415
383.789
379.46181
375.17151
370.9171
366.6976
362.51179
642.65406
635.55598
628.51943
621.54665
614.63963
607.80001
601.02896
594.3275
587.69645
581.13642
574.64785
568.23098
561.8859
555.61256
549.4108
543.28032
537.22074
531.23158
525.31227
519.46217
513.68058
507.96671
502.31974
496.73878
491.22291
485.77114
480.38246
475.05582
469.79014
464.58429
459.43715
454.34755
449.31429
444.33617
439.41198
434.54047
429.72042
424.95056
420.22965
415.55644
410.92967
406.34811
401.81053
397.31571
392.86246
388.44962
384.07606
379.74066
375.44237
371.18018
366.95308
362.75986
643.66767
636.53597
629.46721
622.46357
615.52696
608.65893
601.86063
595.13303
588.47688
581.89274
575.38097
568.94177
562.57518
556.28113
550.05938
543.90963
537.83145
531.82433
525.88766
520.02079
514.22297
508.49341
502.83126
497.23559
491.70548
486.23991
480.83786
475.49826
470.22001
465.00198
459.84301
454.74192
449.69752
444.70858
439.77388
434.89218
430.06221
425.28272
420.55244
415.87013
411.23451
406.64434
402.09838
397.59541
393.13424
388.71368
384.3326
379.98988
375.68446
371.41531
367.18144
362.98162
644.56731
637.40579
630.30847
623.27747
616.31461
609.42138
602.59892
595.84813
589.16971
582.56417
576.03181
569.5728
563.18713
556.87469
550.63522
544.46837
538.37368
532.35062
526.39856
520.5168
514.70459
508.9611
503.28547
497.67676
492.13401
486.6562
481.24229
475.89119
470.60178
465.37293
460.20346
455.09219
450.0379
445.03936
440.09534
435.20458
430.36581
425.57777
420.83918
416.14879
411.50531
406.90751
402.35412
397.84392
393.37571
388.9483
384.56055
380.21134
375.89959
371.62426
367.38438
363.1787
645.36038
638.1726
631.05013
623.99502
617.00904
610.09362
603.24987
596.47865
589.7806
583.1562
576.6057
570.12922
563.72675
557.3981
551.14301
544.96109
538.85185
532.81474
526.84911
520.95423
515.12934
509.37358
503.68607
498.06586
492.51198
487.02338
481.59901
476.23777
470.93854
465.70015
460.52143
455.40118
450.33818
445.33118
440.37894
435.48019
430.63367
425.83809
421.09218
416.39467
411.74427
407.13973
402.57979
398.06322
393.58881
389.15536
384.76173
380.40679
376.08946
371.8087
367.56352
363.35268
646.05393
638.8432
631.69875
624.62257
617.61638
610.68157
603.81922
597.03013
590.31493
583.67403
577.10768
570.61594
564.19876
557.85595
551.58721
545.39211
539.27016
533.22077
527.24327
521.33692
515.50094
509.73445
504.03656
498.4063
492.84268
487.34465
481.91114
476.54104
471.23321
465.98649
460.79968
455.67158
450.60096
445.58656
440.62714
435.72141
430.86811
426.06594
421.31363
416.60989
411.95344
407.34301
402.77735
398.2552
393.77537
389.33664
384.93787
380.57792
376.25571
371.9702
367.72038
363.50504
646.65462
639.42402
632.26054
625.16613
618.14246
611.19087
604.3124
597.50785
590.7778
584.12263
577.54254
571.03759
564.60768
558.25261
551.97204
545.76553
539.63257
533.57255
527.58478
521.66851
515.82292
510.04715
504.34026
498.7013
493.12925
487.62306
482.18163
476.80386
471.48859
466.23465
461.04084
455.90595
450.82872
445.80792
440.84228
435.93051
431.07134
426.26347
421.50561
416.79648
412.13479
407.51926
402.94864
398.42167
393.93714
389.49384
385.09062
380.72633
376.3999
372.11027
367.85645
363.6372
647.16874
639.92115
632.74141
625.6314
618.59276
611.62682
604.73457
597.91679
591.17403
584.50665
577.91482
571.39856
564.95777
558.5922
552.30151
546.08525
539.94287
533.87375
527.87719
521.95243
516.09862
510.3149
504.60033
498.95392
493.37466
487.86148
482.41328
477.02895
471.70731
466.4472
461.2474
456.10669
451.02383
445.99755
441.02658