/*--------------------------------*- C++ -*----------------------------------*\
| =========                 |                                                 |
| \\      /  F ield         | OpenFOAM: The Open Source CFD Toolbox           |
|  \\    /   O peration     | Version:  2312                                  |
|   \\  /    A nd           | Website:  www.openfoam.com                      |
|    \\/     M anipulation  |                                                 |
\*---------------------------------------------------------------------------*/
FoamFile
{
    version     2.0;
    format      ascii;
    arch        "LSB;label=32;scalar=64";
    class       surfaceScalarField;
    location    "0.08";
    object      phi;
}
// * * * * * * * * * * * * * * * * * * * * * * * * * * * * * * * * * * * * * //

dimensions      [1 0 -1 0 0 0 0];

oriented        oriented;

internalField   nonuniform List<scalar> 
6418
(
3.3741925e-07
-1.0696066e-07
3.3677885e-07
-1.0985026e-07
3.3612524e-07
-1.1269521e-07
3.3544947e-07
-1.1549521e-07
3.3474549e-07
-1.1824888e-07
3.3400871e-07
-1.2095513e-07
3.3323513e-07
-1.2361302e-07
3.3242119e-07
-1.262217e-07
3.3156359e-07
-1.2878047e-07
3.3065936e-07
-1.3128868e-07
3.2970579e-07
-1.3374576e-07
3.2870044e-07
-1.3615115e-07
3.2764112e-07
-1.3850432e-07
3.2652587e-07
-1.4080475e-07
3.25353e-07
-1.4305193e-07
3.24121e-07
-1.4524535e-07
3.2282861e-07
-1.4738448e-07
3.2147477e-07
-1.4946881e-07
3.2005863e-07
-1.514978e-07
3.1857957e-07
-1.5347088e-07
3.1703727e-07
-1.5538752e-07
3.1543186e-07
-1.572472e-07
3.1376301e-07
-1.5905177e-07
3.120302e-07
-1.6079832e-07
3.1023279e-07
-1.6248564e-07
3.0837197e-07
-1.6411298e-07
3.0644853e-07
-1.6568071e-07
3.0446318e-07
-1.6718826e-07
3.0241673e-07
-1.6863512e-07
3.0030999e-07
-1.700206e-07
2.9814427e-07
-1.7134379e-07
2.9592062e-07
-1.7260481e-07
2.9364033e-07
-1.7380351e-07
2.9130461e-07
-1.7493901e-07
2.8891542e-07
-1.7600894e-07
2.8647395e-07
-1.7701604e-07
2.8398226e-07
-1.7795918e-07
2.8144197e-07
-1.7883764e-07
2.7885484e-07
-1.7965112e-07
2.7622277e-07
-1.8039935e-07
2.7354769e-07
-1.8108211e-07
2.7083163e-07
-1.8169924e-07
2.6807663e-07
-1.8225062e-07
2.6528479e-07
-1.8273618e-07
2.6245827e-07
-1.8315593e-07
2.5959924e-07
-1.835099e-07
2.5670989e-07
-1.837982e-07
2.5379238e-07
-1.8402097e-07
2.5084873e-07
-1.8417842e-07
2.4788059e-07
-1.8427077e-07
2.44889e-07
-1.8429821e-07
2.4187561e-07
-1.8426121e-07
-1.841611e-07
3.3019125e-07
-1.0356671e-07
3.2959588e-07
-1.0641603e-07
3.2898352e-07
-1.0921748e-07
3.2834708e-07
-1.1197041e-07
3.2768083e-07
-1.1467408e-07
3.2698023e-07
-1.1732777e-07
3.262413e-07
-1.1993086e-07
3.2546051e-07
-1.2248279e-07
3.2463465e-07
-1.2498309e-07
3.2376089e-07
-1.2743134e-07
3.2283667e-07
-1.2982715e-07
3.2185972e-07
-1.3217017e-07
3.2082804e-07
-1.3446006e-07
3.1973984e-07
-1.3669648e-07
3.1859358e-07
-1.3887911e-07
3.1738792e-07
-1.410076e-07
3.1612174e-07
-1.4308161e-07
3.1479413e-07
-1.4510077e-07
3.1340436e-07
-1.4706472e-07
3.1195194e-07
-1.4897308e-07
3.1043665e-07
-1.5082553e-07
3.0885877e-07
-1.526219e-07
3.0721773e-07
-1.5436353e-07
3.0551338e-07
-1.5604779e-07
3.0374516e-07
-1.5767337e-07
3.0191443e-07
-1.5924034e-07
3.0002186e-07
-1.6074891e-07
2.980682e-07
-1.6219864e-07
2.9605429e-07
-1.6358906e-07
2.9398127e-07
-1.6491945e-07
2.9185008e-07
-1.6618929e-07
2.896619e-07
-1.6739887e-07
2.8741807e-07
-1.685477e-07
2.8511994e-07
-1.6963499e-07
2.8276934e-07
-1.7065887e-07
2.8036744e-07
-1.7162228e-07
2.7791627e-07
-1.7252362e-07
2.7541751e-07
-1.7336235e-07
2.7287293e-07
-1.7413824e-07
2.7028437e-07
-1.7485112e-07
2.6765377e-07
-1.7550082e-07
2.649831e-07
-1.7608721e-07
2.6227441e-07
-1.7661024e-07
2.5952977e-07
-1.7706988e-07
2.567513e-07
-1.7746616e-07
2.5394117e-07
-1.7779915e-07
2.5110155e-07
-1.7806897e-07
2.4823461e-07
-1.7827582e-07
2.453425e-07
-1.7841992e-07
2.4242706e-07
-1.7850156e-07
2.3948886e-07
-1.785211e-07
2.3652606e-07
-1.784789e-07
-1.7837551e-07
3.2466996e-07
-1.00362e-07
3.2413214e-07
-1.0316646e-07
3.2357229e-07
-1.0592008e-07
3.2298407e-07
-1.0862235e-07
3.2236214e-07
-1.112728e-07
3.2170225e-07
-1.1387102e-07
3.2100068e-07
-1.1641664e-07
3.2025409e-07
-1.1890937e-07
3.1945953e-07
-1.2134896e-07
3.1861438e-07
-1.2373521e-07
3.1771635e-07
-1.2606794e-07
3.167634e-07
-1.2834697e-07
3.1575378e-07
-1.3057215e-07
3.1468594e-07
-1.3274334e-07
3.1355856e-07
-1.3486035e-07
3.1237055e-07
-1.3692304e-07
3.1112099e-07
-1.389312e-07
3.0980918e-07
-1.4088464e-07
3.084346e-07
-1.4278315e-07
3.0699688e-07
-1.4462645e-07
3.0549568e-07
-1.4641425e-07
3.0393223e-07
-1.4814781e-07
3.023052e-07
-1.4982623e-07
3.0061474e-07
-1.5144814e-07
2.9886081e-07
-1.5301218e-07
2.9704477e-07
-1.5451911e-07
2.9516732e-07
-1.559689e-07
2.9322927e-07
-1.5736119e-07
2.9123162e-07
-1.5869559e-07
2.8917541e-07
-1.599714e-07
2.8706173e-07
-1.6118843e-07
2.8489187e-07
-1.6234715e-07
2.8266734e-07
-1.6344685e-07
2.8038885e-07
-1.6448599e-07
2.7805899e-07
-1.6546473e-07
2.7567876e-07
-1.66385e-07
2.732501e-07
-1.6724503e-07
2.7077471e-07
-1.6804455e-07
2.6825438e-07
-1.6878338e-07
2.6569096e-07
-1.6946141e-07
2.6308637e-07
-1.700785e-07
2.6044257e-07
-1.7063461e-07
2.5776158e-07
-1.7112969e-07
2.5504549e-07
-1.7156376e-07
2.5229638e-07
-1.7193687e-07
2.4951642e-07
-1.7224913e-07
2.4670774e-07
-1.7250069e-07
2.4387251e-07
-1.7269173e-07
2.4101283e-07
-1.7282251e-07
2.3813054e-07
-1.7289331e-07
2.3522621e-07
-1.7290446e-07
2.3229791e-07
-1.7285634e-07
-1.7274937e-07
3.2057723e-07
-9.7367259e-08
3.2010228e-07
-1.0012167e-07
3.1959916e-07
-1.028225e-07
3.1906188e-07
-1.0546948e-07
3.1848552e-07
-1.0806241e-07
3.1786623e-07
-1.1060115e-07
3.1720063e-07
-1.1308559e-07
3.164857e-07
-1.1551567e-07
3.1571882e-07
-1.1789137e-07
3.1489767e-07
-1.2021269e-07
3.1402028e-07
-1.2247964e-07
3.1308493e-07
-1.2469224e-07
3.1209014e-07
-1.2685052e-07
3.1103467e-07
-1.2895448e-07
3.0991748e-07
-1.3100414e-07
3.0873774e-07
-1.3299947e-07
3.074948e-07
-1.3494044e-07
3.0618817e-07
-1.3682699e-07
3.0481753e-07
-1.3865901e-07
3.0338281e-07
-1.4043648e-07
3.018844e-07
-1.4215944e-07
3.0032302e-07
-1.438294e-07
2.9869695e-07
-1.4544421e-07
2.97007e-07
-1.4700317e-07
2.9525381e-07
-1.4850568e-07
2.9343863e-07
-1.4995257e-07
2.9156223e-07
-1.5134366e-07
2.8962552e-07
-1.5267867e-07
2.8762953e-07
-1.5395716e-07
2.8557542e-07
-1.5517861e-07
2.8346446e-07
-1.5634336e-07
2.8129792e-07
-1.5745142e-07
2.7907703e-07
-1.5850196e-07
2.7680323e-07
-1.5949337e-07
2.7447866e-07
-1.6042799e-07
2.7210471e-07
-1.6130529e-07
2.6968308e-07
-1.6212436e-07
2.6721551e-07
-1.6288503e-07
2.6470383e-07
-1.6358718e-07
2.6214988e-07
-1.6423071e-07
2.595556e-07
-1.6481555e-07
2.5692295e-07
-1.6534167e-07
2.5425395e-07
-1.6580908e-07
2.5155066e-07
-1.6621781e-07
2.4881519e-07
-1.6656796e-07
2.4604966e-07
-1.6685963e-07
2.4325622e-07
-1.67093e-07
2.4043702e-07
-1.6726828e-07
2.3759417e-07
-1.673857e-07
2.347295e-07
-1.6744556e-07
2.3184359e-07
-1.674482e-07
2.289344e-07
-1.6739396e-07
-1.6728326e-07
3.1766351e-07
-9.459303e-08
3.17252e-07
-9.7291396e-08
3.1680516e-07
-9.9933733e-08
3.1631738e-07
-1.0252005e-07
3.157842e-07
-1.0505041e-07
3.1520221e-07
-1.0752494e-07
3.1456842e-07
-1.0994377e-07
3.1388025e-07
-1.1230709e-07
3.1313543e-07
-1.1461509e-07
3.1233205e-07
-1.1686796e-07
3.1146847e-07
-1.190659e-07
3.1054333e-07
-1.2120913e-07
3.0955551e-07
-1.2329782e-07
3.0850408e-07
-1.2533216e-07
3.0738832e-07
-1.2731229e-07
3.062077e-07
-1.2923835e-07
3.0496186e-07
-1.3111045e-07
3.0365061e-07
-1.3292867e-07
3.0227391e-07
-1.3469302e-07
3.0083169e-07
-1.3640339e-07
2.9932538e-07
-1.3806123e-07
2.9775437e-07
-1.3966628e-07
2.9611852e-07
-1.4121681e-07
2.9441771e-07
-1.4271224e-07
2.9265388e-07
-1.4415315e-07
2.9082794e-07
-1.4553982e-07
2.889408e-07
-1.4687215e-07
2.8699343e-07
-1.4814979e-07
2.8498704e-07
-1.493723e-07
2.8292292e-07
-1.5053974e-07
2.808025e-07
-1.5165256e-07
2.7862707e-07
-1.5271015e-07
2.7639739e-07
-1.5371123e-07
2.7411609e-07
-1.5465612e-07
2.7178454e-07
-1.5554662e-07
2.6940439e-07
-1.5638128e-07
2.6697733e-07
-1.5715975e-07
2.6450514e-07
-1.5788193e-07
2.6198964e-07
-1.5854773e-07
2.5943272e-07
-1.591571e-07
2.568363e-07
-1.5971e-07
2.5420236e-07
-1.6020642e-07
2.5153291e-07
-1.6064641e-07
2.4883002e-07
-1.6103002e-07
2.4609578e-07
-1.6135736e-07
2.4333232e-07
-1.6162857e-07
2.4054179e-07
-1.6184382e-07
2.3772634e-07
-1.6200333e-07
2.3488806e-07
-1.6210735e-07
2.3202881e-07
-1.6215616e-07
2.2914919e-07
-1.621501e-07
2.2624708e-07
-1.6208954e-07
-1.6197486e-07
3.1570602e-07
-9.2040815e-08
3.1535453e-07
-9.4676541e-08
3.149599e-07
-9.7254128e-08
3.1451691e-07
-9.9773872e-08
3.1402161e-07
-1.0223612e-07
3.1347109e-07
-1.0464125e-07
3.1286282e-07
-1.0698965e-07
3.1219468e-07
-1.0928171e-07
3.1146483e-07
-1.1151784e-07
3.1067177e-07
-1.1369844e-07
3.0981428e-07
-1.1582387e-07
3.0889137e-07
-1.1789453e-07
3.0790228e-07
-1.1991074e-07
3.0684644e-07
-1.2187283e-07
3.0572347e-07
-1.2378111e-07
3.0453315e-07
-1.2563582e-07
3.032754e-07
-1.2743721e-07
3.0195032e-07
-1.2918547e-07
3.0055823e-07
-1.3088083e-07
2.9909986e-07
-1.3252354e-07
2.9757618e-07
-1.3411514e-07
2.959864e-07
-1.3565395e-07
2.9433031e-07
-1.3713929e-07
2.9260944e-07
-1.3857105e-07
2.9082535e-07
-1.3995008e-07
2.8897899e-07
-1.4127634e-07
2.8707137e-07
-1.4254974e-07
2.8510374e-07
-1.4376985e-07
2.8307722e-07
-1.4493657e-07
2.8099342e-07
-1.4605044e-07
2.7885392e-07
-1.4711154e-07
2.7665934e-07
-1.4811825e-07
2.7441146e-07
-1.4907033e-07
2.721128e-07
-1.4996994e-07
2.6976468e-07
-1.5081627e-07
2.6736867e-07
-1.5160861e-07
2.6492654e-07
-1.5234685e-07
2.6244009e-07
-1.5303091e-07
2.5991117e-07
-1.5366074e-07
2.5734169e-07
-1.542363e-07
2.5473358e-07
-1.547576e-07
2.5208882e-07
-1.5522465e-07
2.4940943e-07
-1.556375e-07
2.4669747e-07
-1.5599623e-07
2.4395504e-07
-1.5630097e-07
2.4118427e-07
-1.5655186e-07
2.383873e-07
-1.5674908e-07
2.3556629e-07
-1.5689286e-07
2.3272333e-07
-1.5698343e-07
2.2986026e-07
-1.5702109e-07
2.2697771e-07
-1.5700618e-07
2.2407355e-07
-1.569391e-07
-1.5682024e-07
3.1450803e-07
-8.970509e-08
3.1421005e-07
-9.2271204e-08
3.1386073e-07
-9.4777464e-08
3.1345534e-07
-9.7224459e-08
3.1299048e-07
-9.9612817e-08
3.1246375e-07
-1.0194316e-07
3.1187316e-07
-1.0421611e-07
3.1121706e-07
-1.0643229e-07
3.1049408e-07
-1.0859229e-07
3.0970317e-07
-1.106967e-07
3.0884353e-07
-1.1274607e-07
3.0791457e-07
-1.1474092e-07
3.0691593e-07
-1.1668174e-07
3.0584741e-07
-1.18569e-07
3.0470896e-07
-1.204031e-07
3.0350071e-07
-1.2218444e-07
3.0222291e-07
-1.2391335e-07
3.0087597e-07
-1.2559018e-07
2.9946039e-07
-1.2721521e-07
2.9797777e-07
-1.2878963e-07
2.9642796e-07
-1.303135e-07
2.9481083e-07
-1.3178511e-07
2.931269e-07
-1.3320462e-07
2.913783e-07
-1.345727e-07
2.8956616e-07
-1.3588959e-07
2.8769162e-07
-1.371553e-07
2.8575582e-07
-1.383696e-07
2.8376004e-07
-1.3953223e-07
2.8170596e-07
-1.4064365e-07
2.7959495e-07
-1.4170418e-07
2.7742822e-07
-1.4271319e-07
2.752072e-07
-1.4366913e-07
2.7293399e-07
-1.4457412e-07
2.7061071e-07
-1.4542838e-07
2.6823862e-07
-1.4623078e-07
2.6581945e-07
-1.4698125e-07
2.6335499e-07
-1.4767971e-07
2.6084709e-07
-1.4832611e-07
2.5829761e-07
-1.4892042e-07
2.5570847e-07
-1.4946262e-07
2.5308162e-07
-1.4995273e-07
2.5041904e-07
-1.5039079e-07
2.4772276e-07
-1.5077686e-07
2.4499483e-07
-1.5111103e-07
2.4223735e-07
-1.5139344e-07
2.3945246e-07
-1.5162423e-07
2.366423e-07
-1.5180359e-07
2.33809e-07
-1.5193172e-07
2.3095467e-07
-1.5200886e-07
2.280811e-07
-1.5203529e-07
2.251889e-07
-1.5201135e-07
2.2227607e-07
-1.5193781e-07
-1.5181458e-07
3.1389692e-07
-8.7574992e-08
3.1364357e-07
-9.0064387e-08
3.1333062e-07
-9.2492653e-08
3.1295385e-07
-9.4860673e-08
3.1251046e-07
-9.7169342e-08
3.1199861e-07
-9.9419527e-08
3.1141683e-07
-1.0161208e-07
3.10764e-07
-1.0374782e-07
3.1003923e-07
-1.0582753e-07
3.0924195e-07
-1.0785197e-07
3.0837177e-07
-1.0982183e-07
3.0742854e-07
-1.117378e-07
3.0641227e-07
-1.1360047e-07
3.0532314e-07
-1.1541043e-07
3.0416147e-07
-1.1716821e-07
3.0292768e-07
-1.188743e-07
3.0162234e-07
-1.2052912e-07
3.0024611e-07
-1.2213308e-07
2.9880068e-07
-1.236875e-07
2.972868e-07
-1.2519247e-07
2.9570372e-07
-1.266469e-07
2.9405225e-07
-1.2805071e-07
2.9233441e-07
-1.2940448e-07
2.9055164e-07
-1.3070866e-07
2.8870519e-07
-1.3196332e-07
2.867962e-07
-1.3316834e-07
2.8482609e-07
-1.3432349e-07
2.827965e-07
-1.3542919e-07
2.80709e-07
-1.3648587e-07
2.7856501e-07
-1.3749314e-07
2.7636537e-07
-1.384499e-07
2.7411289e-07
-1.3935664e-07
2.7180916e-07
-1.4021507e-07
2.6945574e-07
-1.41024e-07
2.6705436e-07
-1.4178307e-07
2.6460681e-07
-1.4249226e-07
2.6211489e-07
-1.4315153e-07
2.5958047e-07
-1.4376084e-07
2.5700543e-07
-1.4432019e-07
2.543917e-07
-1.4482958e-07
2.5174124e-07
-1.4528902e-07
2.4905602e-07
-1.4569858e-07
2.4633808e-07
-1.4605832e-07
2.4358946e-07
-1.4636834e-07
2.4081228e-07
-1.4662878e-07
2.3800866e-07
-1.4683979e-07
2.3518075e-07
-1.4700154e-07
2.3233069e-07
-1.4711422e-07
2.2946053e-07
-1.4717804e-07
2.2657198e-07
-1.4719323e-07
2.2366551e-07
-1.4716035e-07
2.2073863e-07
-1.470805e-07
-1.4695515e-07
3.1372197e-07
-8.5635682e-08
3.135027e-07
-8.8041336e-08
3.1321573e-07
-9.038507e-08
3.128574e-07
-9.2668049e-08
3.1242554e-07
-9.4891427e-08
3.1191887e-07
-9.7056301e-08
3.113365e-07
-9.9163733e-08
3.106778e-07
-1.0121473e-07
3.0994242e-07
-1.0321026e-07
3.0913021e-07
-1.0515121e-07
3.0824126e-07
-1.0703842e-07
3.0727582e-07
-1.0887269e-07
3.0623429e-07
-1.1065474e-07
3.0511721e-07
-1.1238525e-07
3.0392522e-07
-1.1406483e-07
3.026591e-07
-1.1569405e-07
3.0131968e-07
-1.172734e-07
2.9990888e-07
-1.1880433e-07
2.9842761e-07
-1.2028704e-07
2.9687554e-07
-1.2172067e-07
2.9525325e-07
-1.2310526e-07
2.9356282e-07
-1.2444128e-07
2.91806e-07
-1.2572934e-07
2.8998414e-07
-1.2696958e-07
2.880985e-07
-1.2816194e-07
2.8615053e-07
-1.2930626e-07
2.8414191e-07
-1.3040296e-07
2.8207437e-07
-1.3145251e-07
2.7994944e-07
-1.324547e-07
2.7776781e-07
-1.3340841e-07
2.7553196e-07
-1.3431405e-07
2.7324431e-07
-1.3517321e-07
2.7090617e-07
-1.359851e-07
2.6851916e-07
-1.3674929e-07
2.6608508e-07
-1.3746571e-07
2.6360579e-07
-1.3813433e-07
2.6108313e-07
-1.3875511e-07
2.5851898e-07
-1.3932804e-07
2.5591525e-07
-1.3985311e-07
2.5327385e-07
-1.4033033e-07
2.5059676e-07
-1.4075974e-07
2.4788594e-07
-1.4114139e-07
2.4514343e-07
-1.4147536e-07
2.4237128e-07
-1.4176176e-07
2.3957159e-07
-1.4200071e-07
2.3674649e-07
-1.4219236e-07
2.3389815e-07
-1.4233689e-07
2.3102871e-07
-1.4243447e-07
2.2814024e-07
-1.4248534e-07
2.2523401e-07
-1.4248952e-07
2.2230902e-07
-1.424485e-07
2.1936235e-07
3.1385233e-07
-8.3869482e-08
3.1365547e-07
-8.6184658e-08
3.1338319e-07
-8.8437638e-08
3.1303243e-07
-9.0629857e-08
3.1260164e-07
-9.2762707e-08
3.1209014e-07
-9.4837498e-08
3.1149759e-07
-9.6855483e-08
3.108239e-07
-9.8817842e-08
3.1006919e-07
-1.0072568e-07
3.0923381e-07
-1.0258003e-07
3.0831826e-07
-1.0438185e-07
3.0732318e-07
-1.0613202e-07
3.0624937e-07
-1.0783136e-07
3.050977e-07
-1.0948062e-07
3.0386917e-07
-1.1108049e-07
3.0256482e-07
-1.1263158e-07
3.0118678e-07
-1.1413542e-07
2.9973615e-07
-1.1559234e-07
2.9821286e-07
-1.1700164e-07
2.9661756e-07
-1.1836347e-07
2.9495231e-07
-1.1967827e-07
2.9321913e-07
-1.2094679e-07
2.9141953e-07
-1.2216925e-07
2.8955487e-07
-1.2334562e-07
2.8762669e-07
-1.2447579e-07
2.8563673e-07
-1.2556022e-07
2.8358683e-07
-1.2659941e-07
2.8147859e-07
-1.2759324e-07
2.7931271e-07
-1.285406e-07
2.7709155e-07
-1.2944183e-07
2.748176e-07
-1.302986e-07
2.7249251e-07
-1.311102e-07
2.7011773e-07
-1.3187618e-07
2.6769509e-07
-1.325965e-07
2.6522642e-07
-1.3327112e-07
2.6271359e-07
-1.3390001e-07
2.6015847e-07
-1.3448314e-07
2.5756296e-07
-1.3502051e-07
2.5492895e-07
-1.355121e-07
2.5225839e-07
-1.3595794e-07
2.4955321e-07
-1.3635806e-07
2.4681541e-07
-1.3671252e-07
2.4404699e-07
-1.370214e-07
2.4125e-07
-1.372848e-07
2.3842653e-07
-1.3750285e-07
2.3557874e-07
-1.376757e-07
2.3270878e-07
-1.3780354e-07
2.2981882e-07
-1.3788658e-07
2.2691072e-07
-1.3792506e-07
2.2398506e-07
-1.3792001e-07
-1.3787299e-07
3.1417509e-07
-8.2256826e-08
3.1398836e-07
-8.447525e-08
3.1371904e-07
-8.6631741e-08
3.133647e-07
-8.8727979e-08
3.1292442e-07
-9.0765575e-08
3.1239811e-07
-9.2746028e-08
3.1178597e-07
-9.4670759e-08
3.1108844e-07
-9.6541091e-08
3.1030612e-07
-9.8358258e-08
3.094398e-07
-1.001234e-07
3.084904e-07
-1.0183756e-07
3.0745896e-07
-1.035017e-07
3.0634661e-07
-1.051167e-07
3.0515457e-07
-1.0668338e-07
3.0388414e-07
-1.0820246e-07
3.0253762e-07
-1.0967555e-07
3.0111636e-07
-1.1110308e-07
2.9962047e-07
-1.1248447e-07
2.9805075e-07
-1.1382002e-07
2.9640929e-07
-1.1511016e-07
2.9469836e-07
-1.1635575e-07
2.9291957e-07
-1.1755704e-07
2.9107441e-07
-1.1871411e-07
2.8916459e-07
-1.1982686e-07
2.8719193e-07
-1.2089581e-07
2.8515836e-07
-1.2192148e-07
2.8306553e-07
-1.2290379e-07
2.8091413e-07
-1.2384161e-07
2.7870654e-07
-1.2473534e-07
2.764453e-07
-1.2558661e-07
2.7413215e-07
-1.2639481e-07
2.7176855e-07
-1.2715944e-07
2.6935636e-07
-1.278805e-07
2.6689741e-07
-1.2855796e-07
2.6439358e-07
-1.2919178e-07
2.6184673e-07
-1.2978194e-07
2.5925876e-07
-1.303284e-07
2.5663155e-07
-1.3083115e-07
2.5396703e-07
-1.312902e-07
2.512671e-07
-1.3170555e-07
2.4853371e-07
-1.3207725e-07
2.4576882e-07
-1.3240534e-07
2.4297444e-07
-1.326899e-07
2.4015259e-07
-1.3293104e-07
2.3730535e-07
-1.3312888e-07
2.3443484e-07
-1.3328357e-07
2.3154318e-07
-1.333953e-07
2.2863234e-07
-1.334643e-07
2.2570351e-07
-1.3349084e-07
2.2275503e-07
-1.3347542e-07
-1.3341833e-07
3.1459352e-07
-8.0777079e-08
3.1440445e-07
-8.2893087e-08
3.1412634e-07
-8.4947976e-08
3.1375738e-07
-8.6943645e-08
3.1329728e-07
-8.888189e-08
3.127465e-07
-9.0764375e-08
3.1210581e-07
-9.2592659e-08
3.1137612e-07
-9.4368182e-08
3.1055849e-07
-9.6092281e-08
3.0965416e-07
-9.7766179e-08
3.0866443e-07
-9.9390982e-08
3.0759069e-07
-1.0096769e-07
3.0643442e-07
-1.0249725e-07
3.0519713e-07
-1.0398048e-07
3.0388135e-07
-1.0541909e-07
3.0248863e-07
-1.0681361e-07
3.0101928e-07
-1.0816351e-07
2.9947436e-07
-1.0946925e-07
2.9785602e-07
-1.1073137e-07
2.961666e-07
-1.1195063e-07
2.9440782e-07
-1.1312739e-07
2.9258149e-07
-1.1426186e-07
2.9068924e-07
-1.1535405e-07
2.8873324e-07
-1.1640436e-07
2.8671543e-07
-1.1741338e-07
2.8463751e-07
-1.1838106e-07
2.8250016e-07
-1.1930629e-07
2.8030584e-07
-1.2018953e-07
2.780571e-07
-1.2103237e-07
2.757557e-07
-1.2183414e-07
2.7340313e-07
-1.2259444e-07
2.7100127e-07
-1.2331326e-07
2.6855201e-07
-1.2399056e-07
2.6605722e-07
-1.2462631e-07
2.6351876e-07
-1.2522048e-07
2.6093854e-07
-1.2577302e-07
2.5831843e-07
-1.2628391e-07
2.5566032e-07
-1.2675312e-07
2.5296611e-07
-1.2718066e-07
2.5023771e-07
-1.2756654e-07
2.4747704e-07
-1.2791077e-07
2.4468605e-07
-1.2821342e-07
2.4186672e-07
-1.2847454e-07
2.3902104e-07
-1.2869424e-07
2.3615107e-07
-1.2887263e-07
2.3325887e-07
-1.2900986e-07
2.3034651e-07
-1.2910611e-07
2.2741589e-07
-1.2916157e-07
2.2446803e-07
-1.291765e-07
2.2150112e-07
-1.2915116e-07
-1.2908573e-07
3.1502543e-07
-7.9409223e-08
3.1482175e-07
-8.1417891e-08
3.1452339e-07
-8.3366802e-08
3.1412918e-07
-8.525804e-08
3.1363941e-07
-8.7093557e-08
3.1305512e-07
-8.8875146e-08
3.1237755e-07
-9.0604475e-08
3.116081e-07
-9.2283071e-08
3.1074826e-07
-9.3912345e-08
3.0979967e-07
-9.549359e-08
3.0876398e-07
-9.7027929e-08
3.0764292e-07
-9.8516377e-08
3.0643823e-07
-9.9959895e-08
3.0515266e-07
-1.0136025e-07
3.0378798e-07
-1.0271809e-07
3.0234466e-07
-1.0403291e-07
3.0082411e-07
-1.0530535e-07
2.9922862e-07
-1.0653607e-07
2.9756057e-07
-1.0772579e-07
2.9582163e-07
-1.0887468e-07
2.9401394e-07
-1.0998333e-07
2.9213909e-07
-1.1105179e-07
2.9019963e-07
-1.1208047e-07
2.8819752e-07
-1.1306971e-07
2.8613451e-07
-1.1401965e-07
2.8401133e-07
-1.1492929e-07
2.8183063e-07
-1.1579921e-07
2.7959485e-07
-1.1663079e-07
2.7730565e-07
-1.1742326e-07
2.7496463e-07
-1.1817637e-07
2.7257371e-07
-1.188901e-07
2.7013478e-07
-1.195644e-07
2.6764975e-07
-1.2019925e-07
2.6512051e-07
-1.2079458e-07
2.6254893e-07
-1.2135035e-07
2.5993688e-07
-1.2186652e-07
2.5728626e-07
-1.2234305e-07
2.5459893e-07
-1.2277991e-07
2.5187677e-07
-1.2317709e-07
2.4912167e-07
-1.2353458e-07
2.4633554e-07
-1.2385241e-07
2.4352029e-07
-1.2413062e-07
2.4067787e-07
-1.2436926e-07
2.3781025e-07
-1.2456842e-07
2.3491944e-07
-1.2472821e-07
2.3200747e-07
-1.2484876e-07
2.2907636e-07
-1.2493022e-07
2.2612797e-07
-1.249728e-07
2.2316332e-07
-1.249767e-07
2.2018081e-07
-1.2494213e-07
-1.2486924e-07
3.1540166e-07
-7.8132447e-08
3.151716e-07
-8.0029681e-08
3.1484213e-07
-8.1869058e-08
3.1441269e-07
-8.3652805e-08
3.1388416e-07
-8.5382995e-08
3.1325806e-07
-8.7061518e-08
3.1253613e-07
-8.8690116e-08
3.1172017e-07
-9.0270363e-08
3.1081209e-07
-9.1803723e-08
3.098139e-07
-9.3291558e-08
3.0872757e-07
-9.4734937e-08
3.0755507e-07
-9.6134851e-08
3.0629932e-07
-9.7493144e-08
3.0496232e-07
-9.8810589e-08
3.0354473e-07
-1.0008676e-07
3.0204837e-07
-1.0132245e-07
3.004757e-07
-1.0251842e-07
2.9882906e-07
-1.0367527e-07
2.971103e-07
-1.0479339e-07
2.9532155e-07
-1.0587295e-07
2.9346441e-07
-1.0691453e-07
2.9154164e-07
-1.0791844e-07
2.8955569e-07
-1.0888542e-07
2.8750803e-07
-1.0981439e-07
2.8539938e-07
-1.1070534e-07
2.8323298e-07
-1.1155917e-07
2.8101109e-07
-1.1237678e-07
2.7873506e-07
-1.1315721e-07
2.7640663e-07
-1.1390039e-07
2.7402774e-07
-1.1460631e-07
2.7160034e-07
-1.1527492e-07
2.6912633e-07
-1.1590616e-07
2.6660762e-07
-1.1649997e-07
2.640461e-07
-1.1705628e-07
2.6144363e-07
-1.1757504e-07
2.5880207e-07
-1.1805619e-07
2.5612329e-07
-1.1849967e-07
2.5340915e-07
-1.1890544e-07
2.5066149e-07
-1.1927348e-07
2.4788218e-07
-1.1960377e-07
2.4507309e-07
-1.1989633e-07
2.4223611e-07
-1.2015117e-07
2.3937315e-07
-1.2036835e-07
2.3648614e-07
-1.2054794e-07
2.3357706e-07
-1.2069002e-07
2.3064789e-07
-1.2079473e-07
2.2770062e-07
-1.2086219e-07
2.2473706e-07
-1.2089257e-07
2.2175827e-07
-1.2088609e-07
2.187628e-07
-1.2084294e-07
-1.2076324e-07
3.1566473e-07
-7.6926615e-08
3.1539726e-07
-7.8709226e-08
3.1502664e-07
-8.0436387e-08
3.1455286e-07
-8.2110433e-08
3.1397733e-07
-8.3733514e-08
3.1330207e-07
-8.5307582e-08
3.1252923e-07
-8.6834431e-08
3.1166101e-07
-8.8315628e-08
3.1069961e-07
-8.9752636e-08
3.0964747e-07
-9.1146989e-08
3.0850677e-07
-9.2499507e-08
3.0728049e-07
-9.3811932e-08
3.0597088e-07
-9.5085268e-08
3.0457885e-07
-9.6319228e-08
3.0310656e-07
-9.7514699e-08
3.0155681e-07
-9.8672665e-08
2.9993174e-07
-9.9793357e-08
2.9823354e-07
-1.0087743e-07
2.9646408e-07
-1.0192506e-07
2.9462555e-07
-1.029367e-07
2.9272044e-07
-1.0391318e-07
2.9075132e-07
-1.0485464e-07
2.8871911e-07
-1.057599e-07
2.8662617e-07
-1.0662936e-07
2.8447472e-07
-1.0746472e-07
2.8226793e-07
-1.0826551e-07
2.8000635e-07
-1.0903114e-07
2.7769189e-07
-1.0976175e-07
2.7532652e-07
-1.1045726e-07
2.7291219e-07
-1.1111759e-07
2.7045085e-07
-1.1174265e-07
2.6794439e-07
-1.1233239e-07
2.6539472e-07
-1.1288669e-07
2.628037e-07
-1.134055e-07
2.6017318e-07
-1.1388871e-07
2.5750501e-07
-1.1433626e-07
2.5480102e-07
-1.1474807e-07
2.5206304e-07
-1.1512409e-07
2.4929289e-07
-1.1546429e-07
2.4649239e-07
-1.1576862e-07
2.4366339e-07
-1.1603709e-07
2.4080773e-07
-1.162697e-07
2.3792729e-07
-1.1646649e-07
2.3502397e-07
-1.1662751e-07
2.3209969e-07
-1.1675284e-07
2.291564e-07
-1.1684258e-07
2.2619603e-07
-1.1689684e-07
2.2322037e-07
-1.1691578e-07
2.2023047e-07
-1.1689957e-07
2.1722504e-07
-1.1684843e-07
-1.1676249e-07
3.1576751e-07
-7.577266e-08
3.1545259e-07
-7.7438399e-08
3.1503175e-07
-7.9051569e-08
3.1450553e-07
-8.0614573e-08
3.1387582e-07
-8.2129585e-08
3.1314504e-07
-8.3598589e-08
3.1231576e-07
-8.5023439e-08
3.1139055e-07
-8.6405634e-08
3.103718e-07
-8.7746482e-08
3.0926238e-07
-8.9047963e-08
3.0806526e-07
-9.0310943e-08
3.067827e-07
-9.1536381e-08
3.0541606e-07
-9.2724606e-08
3.0396784e-07
-9.3876484e-08
3.0244092e-07
-9.4992947e-08
3.0083758e-07
-9.6074504e-08
2.9916027e-07
-9.7121387e-08
2.9741063e-07
-9.8134042e-08
2.9559149e-07
-9.9113072e-08
2.9370506e-07
-1.0005896e-07
2.9175363e-07
-1.0097217e-07
2.8973818e-07
-1.0185123e-07
2.8766182e-07
-1.0269698e-07
2.8552727e-07
-1.0351079e-07
2.8333629e-07
-1.0429201e-07
2.8109035e-07
-1.0504039e-07
2.7879137e-07
-1.0575589e-07
2.7644118e-07
-1.0643847e-07
2.7404171e-07
-1.0708803e-07
2.715949e-07
-1.0770447e-07
2.6910267e-07
-1.0828769e-07
2.6656691e-07
-1.0883756e-07
2.6398948e-07
-1.0935398e-07
2.6137223e-07
-1.0983685e-07
2.5871698e-07
-1.1028605e-07
2.5602555e-07
-1.1070149e-07
2.5329973e-07
-1.1108309e-07
2.5054131e-07
-1.1143076e-07
2.4775208e-07
-1.1174444e-07
2.4493384e-07
-1.120241e-07
2.4208836e-07
-1.1226971e-07
2.3921748e-07
-1.1248126e-07
2.3632301e-07
-1.1265877e-07
2.3340681e-07
-1.1280228e-07
2.3047078e-07
-1.1291183e-07
2.275168e-07
-1.1298751e-07
2.2454677e-07
-1.1302941e-07
2.2156242e-07
-1.1303765e-07
2.1856477e-07
-1.1301238e-07
2.1555266e-07
-1.1295379e-07
-1.1286214e-07
3.1567218e-07
-7.4652868e-08
3.1530086e-07
-7.6200443e-08
3.1482187e-07
-7.7698763e-08
3.1423623e-07
-7.9150253e-08
3.1354624e-07
-8.0557057e-08
3.1275465e-07
-8.1921124e-08
3.1186443e-07
-8.3244438e-08
3.108783e-07
-8.4528224e-08
3.0979973e-07
-8.5774499e-08
3.0863144e-07
-8.6984482e-08
3.0737541e-07
-8.8158251e-08
3.0603377e-07
-8.9297283e-08
3.0460962e-07
-9.0402396e-08
3.0310556e-07
-9.147403e-08
3.0152427e-07
-9.2513175e-08
2.9986782e-07
-9.3519855e-08
2.9813866e-07
-9.4494656e-08
2.9633928e-07
-9.5438191e-08
2.9447257e-07
-9.63513e-08
2.9253984e-07
-9.7232743e-08
2.905426e-07
-9.8083342e-08
2.8848429e-07
-9.8902943e-08
2.8636758e-07
-9.9692823e-08
2.8419391e-07
-1.0045192e-07
2.8196513e-07
-1.0118049e-07
2.7968315e-07
-1.0187844e-07
2.7734986e-07
-1.0254567e-07
2.7496712e-07
-1.0318209e-07
2.7253686e-07
-1.0378754e-07
2.7006096e-07
-1.043619e-07
2.6754132e-07
-1.0490502e-07
2.6497978e-07
-1.0541676e-07
2.6237818e-07
-1.0589698e-07
2.5973833e-07
-1.0634555e-07
2.57062e-07
-1.0676233e-07
2.5435098e-07
-1.071472e-07
2.5160703e-07
-1.0750006e-07
2.488319e-07
-1.0782081e-07
2.4602732e-07
-1.0810937e-07
2.4319505e-07
-1.0836568e-07
2.4033683e-07
-1.0858968e-07
2.3745443e-07
-1.0878136e-07
2.3454964e-07
-1.0894072e-07
2.3162428e-07
-1.0906778e-07
2.2868019e-07
-1.0916256e-07
2.2571922e-07
-1.0922512e-07
2.227432e-07
-1.0925553e-07
2.1975385e-07
-1.0925387e-07
2.1675211e-07
-1.0922019e-07
2.1373682e-07
-1.0915471e-07
-1.0905784e-07
3.1534908e-07
-7.3551097e-08
3.1491366e-07
-7.4980164e-08
3.1436979e-07
-7.6363665e-08
3.1371893e-07
-7.7704033e-08
3.1296377e-07
-7.9003329e-08
3.1210727e-07
-8.0263316e-08
3.1115281e-07
-8.1486323e-08
3.101039e-07
-8.2673652e-08
3.0896338e-07
-8.3826555e-08
3.077332e-07
-8.494562e-08
3.0641653e-07
-8.6032086e-08
3.0501613e-07
-8.7086834e-08
3.03535e-07
-8.8110812e-08
3.0197577e-07
-8.9104289e-08
3.0034063e-07
-9.0067974e-08
2.9863236e-07
-9.1001949e-08
2.9685394e-07
-9.1907724e-08
2.9500722e-07
-9.278426e-08
2.9309347e-07
-9.3631977e-08
2.9111604e-07
-9.4451202e-08
2.8907725e-07
-9.5242965e-08
2.8697977e-07
-9.6005964e-08
2.8482484e-07
-9.6740751e-08
2.8261475e-07
-9.7447196e-08
2.8035144e-07
-9.8125255e-08
2.7803679e-07
-9.8774836e-08
2.7567268e-07
-9.9395806e-08
2.7326098e-07
-9.9988008e-08
2.7080356e-07
-1.0055127e-07
2.6830229e-07
-1.0108542e-07
2.65759e-07
-1.0159027e-07
2.631755e-07
-1.0206566e-07
2.6055358e-07
-1.0251141e-07
2.5789499e-07
-1.0292735e-07
2.5520149e-07
-1.0331334e-07
2.524748e-07
-1.0366922e-07
2.4971664e-07
-1.0399486e-07
2.469287e-07
-1.0429014e-07
2.441127e-07
-1.0455497e-07
2.4127031e-07
-1.0478925e-07
2.3840325e-07
-1.0499292e-07
2.3551323e-07
-1.0516594e-07
2.3260201e-07
-1.0530829e-07
2.2967134e-07
-1.0541997e-07
2.2672302e-07
-1.0550099e-07
2.2375889e-07
-1.055514e-07
2.2078074e-07
-1.0557125e-07
2.1779027e-07
-1.055606e-07
2.1478839e-07
-1.0551947e-07
2.1177336e-07
-1.0544813e-07
3.1477585e-07
-7.2452915e-08
3.1426993e-07
-7.3764059e-08
3.1365567e-07
-7.5033606e-08
3.1293495e-07
-7.6264029e-08
3.1211066e-07
-7.7457145e-08
3.1118675e-07
-7.8615292e-08
3.1016651e-07
-7.9740068e-08
3.0905247e-07
-8.0831989e-08
3.0784754e-07
-8.1892959e-08
3.06555e-07
-8.2923588e-08
3.0517813e-07
-8.3925082e-08
3.0371981e-07
-8.4898007e-08
3.0218241e-07
-8.5843069e-08
3.0056875e-07
-8.6760513e-08
2.9888204e-07
-8.7651862e-08
2.9712474e-07
-8.8516163e-08
2.9529788e-07
-8.9353726e-08
2.9340485e-07
-9.0165219e-08
2.9144809e-07
-9.0951593e-08
2.8943045e-07
-9.1711788e-08
2.8735305e-07
-9.2446035e-08
2.8521846e-07
-9.3154212e-08
2.8302865e-07
-9.3836345e-08
2.8078564e-07
-9.4492342e-08
2.7849138e-07
-9.5122092e-08
2.7614774e-07
-9.5725453e-08
2.7375659e-07
-9.6302247e-08
2.7131977e-07
-9.6852278e-08
2.688391e-07
-9.7375333e-08
2.6631639e-07
-9.7871198e-08
2.6375343e-07
-9.833966e-08
2.6115196e-07
-9.8780511e-08
2.5851374e-07
-9.9193547e-08
2.5584046e-07
-9.9578575e-08
2.5313383e-07
-9.9935408e-08
2.5039552e-07
-1.0026388e-07
2.476272e-07
-1.0056382e-07
2.4483051e-07
-1.0083509e-07
2.420071e-07
-1.0107758e-07
2.3915861e-07
-1.0129117e-07
2.3628671e-07
-1.0147578e-07
2.3339305e-07
-1.0163135e-07
2.3047934e-07
-1.0175783e-07
2.2754728e-07
-1.0185522e-07
2.2459864e-07
-1.019235e-07
2.216352e-07
-1.0196272e-07
2.1865875e-07
-1.0197296e-07
2.1567091e-07
-1.0195432e-07
2.1267251e-07
-1.0190739e-07
-1.0183359e-07
3.139365e-07
-7.1345671e-08
3.1335503e-07
-7.2540408e-08
3.1266623e-07
-7.3697685e-08
3.1187232e-07
-7.4820138e-08
3.1097698e-07
-7.5909722e-08
3.0998357e-07
-7.6967966e-08
3.0889484e-07
-7.7996067e-08
3.0771426e-07
-7.8995135e-08
3.0644532e-07
-7.9966937e-08
3.0509139e-07
-8.0911936e-08
3.0365509e-07
-8.1830942e-08
3.0213933e-07
-8.2724366e-08
3.0054765e-07
-8.3593927e-08
2.9888272e-07
-8.4438739e-08
2.9714571e-07
-8.5259049e-08
2.953401e-07
-8.6055554e-08
2.9346849e-07
-8.6829278e-08
2.9153389e-07
-8.7579322e-08
2.8953743e-07
-8.8305887e-08
2.8748168e-07
-8.9008934e-08
2.8536872e-07
-8.9688366e-08
2.8320069e-07
-9.0344057e-08
2.8097959e-07
-9.0975913e-08
2.7870741e-07
-9.1583782e-08
2.7638605e-07
-9.2167492e-08
2.7401736e-07
-9.2726844e-08
2.7160315e-07
-9.3261613e-08
2.6914523e-07
-9.3771559e-08
2.6664536e-07
-9.425643e-08
2.6410529e-07
-9.4715974e-08
2.6152675e-07
-9.5149944e-08
2.5891144e-07
-9.5558095e-08
2.5626104e-07
-9.5940193e-08
2.535772e-07
-9.6296013e-08
2.5086156e-07