/*--------------------------------*- C++ -*----------------------------------*\
| =========                 |                                                 |
| \\      /  F ield         | OpenFOAM: The Open Source CFD Toolbox           |
|  \\    /   O peration     | Version:  2312                                  |
|   \\  /    A nd           | Website:  www.openfoam.com                      |
|    \\/     M anipulation  |                                                 |
\*---------------------------------------------------------------------------*/
FoamFile
{
    version     2.0;
    format      ascii;
    arch        "LSB;label=32;scalar=64";
    class       volScalarField;
    location    "0.08";
    object      Qdot;
}
// * * * * * * * * * * * * * * * * * * * * * * * * * * * * * * * * * * * * * //

dimensions      [1 -1 -3 0 0 0 0];

internalField   nonuniform List<scalar> 
3272
(
123.60935
139.08235
155.67201
173.33851
192.02835
211.67112
232.1793
253.44859
275.35857
297.77373
320.54482
343.51045
366.4991
389.33114
411.8213
433.78106
455.02136
475.35522
494.60052
512.58277
529.13792
544.11515
557.13365
568.33982
577.68094
585.10941
590.44448
593.64574
594.69511
593.59743
590.42686
585.17243
577.85902
568.62233
557.74252
545.0448
530.73173
515.00585
498.0239
479.94982
460.9523
441.20225
420.87041
400.12514
379.13015
358.04263
337.01144
316.17563
295.66318
275.59007
256.05957
237.16213
218.97741
131.65454
148.03763
165.58387
184.24842
203.97199
224.67746
246.26987
268.63682
291.64926
315.1626
339.01826
363.04537
387.06292
410.88197
434.30813
457.14424
479.19303
500.2599
520.15565
538.69926
555.72075
571.06508
584.34724
595.71842
605.15541
612.55124
617.75398
620.72453
621.44679
619.95351
616.28845
610.44367
602.47744
592.52226
580.87477
567.32566
552.1342
535.49298
517.56686
498.52772
478.55193
457.81777
436.50303
414.78261
392.82633
370.79691
348.84819
327.12353
305.75461
284.86034
264.5462
244.90402
226.01686
148.17136
166.39069
185.86284
206.53188
228.32615
251.15461
274.90703
299.45449
324.65048
350.33229
376.3227
402.43212
428.46087
454.20179
479.44293
503.97049
527.57167
550.03763
571.16615
590.76384
608.64669
624.63576
638.38345
650.02627
659.58199
666.8562
671.7414
674.20344
674.23303
671.88628
667.20197
660.15116
650.85974
639.4655
626.26354
611.01156
594.06515
575.60074
555.79899
534.84711
512.93633
490.25917
467.00693
443.36715
419.52133
395.6428
371.89487
348.42922
325.38461
302.88585
281.04315
259.95205
239.69844
174.90869
196.02999
218.53444
242.34751
267.37704
293.50932
320.60941
348.52214
377.07348
406.07236
435.3128
464.57649
493.63549
522.25522
550.19766
577.22458
603.10093
627.59815
650.49777
671.59569
690.70966
707.36823
721.78101
733.72268
743.30534
750.2596
754.52759
756.0857
754.93844
751.17188
744.80064
735.80687
724.37251
710.83775
695.06261
677.18434
657.50217
636.20934
613.5091
589.61121
564.72889
539.0758
512.86318
486.29722
459.57654
432.88998
406.41462
380.31415
354.7375
329.8179
305.67218
282.40082
260.09346
215.0622
240.40539
267.29979
295.64186
325.3081
356.15063
387.99797
420.65652
453.91255
487.53458
521.27619
554.87907
588.07645
620.59657
652.16644
682.51559
711.37979
738.5046
763.64807
786.58081
807.07681
824.68025
839.59481
851.79737
861.10826
867.36587
870.5297
870.59151
867.61674
861.66045
852.70001
840.86856
826.34688
809.51481
790.08092
768.4479
744.86295
719.55307
692.75376
664.70594
635.65274
605.83624
575.49446
544.85836
514.14921
483.57622
453.33445
423.60312
394.5442
366.3015
339.00004
312.74619
287.6339
273.66977
304.93365
337.94733
372.56374
408.61319
445.8984
484.19591
523.25844
562.81756
602.58697
642.26612
681.54403
720.10346
757.62514
793.79216
828.29432
860.83277
891.12495
918.91122
943.96655
965.67151
984.23199
999.52453
1011.6062
1020.1401
1025.0685
1026.3693
1024.0967
1018.3177
1009.0602
996.34567
980.43162
961.73323
940.04865
915.60335
888.78317
859.84454
829.05609
796.69454
763.04089
728.37665
692.98022
657.12349
621.06865
585.0653
549.34788
514.13354
479.62033
445.98584
413.38629
381.95601
351.80782
323.03998
358.27772
397.68177
439.0485
482.167
526.80132
572.6847
619.52198
666.99304
714.7566
762.45461
809.71677
856.16555
901.42103
945.10604
986.85109
1026.2992
1063.1104
1096.9656
1127.5686
1154.6439
1177.5847
1196.693
1211.9868
1223.1542
1230.0544
1232.6537
1230.9611
1225.1103
1215.1544
1201.0259
1182.9878
1161.6124
1136.8033
1108.4918
1077.279
1043.4589
1007.3425
969.25188
929.51614
888.46644
846.43203
803.7361
760.69201
717.59987
674.74331
632.38687
590.77367
550.12359
510.63195
472.4687
435.77806
400.67912
367.27401
479.92662
530.37104
582.97275
637.42945
693.41237
750.55946
808.47928
866.75577
924.9536
982.62384
1039.3098
1094.5531
1147.8995
1198.905
1247.1414
1292.2013
1333.7036
1371.2972
1404.6648
1433.1021
1456.8714
1475.9893
1490.2076
1499.2972
1503.2144
1501.965
1495.6925
1484.4786
1468.2861
1447.3575
1421.9955
1392.8778
1359.4767
1322.4217
1282.147
1239.0211
1193.425
1145.7487
1096.3858
1045.7288
994.16492
942.07109
889.81005
837.72654
786.14394
735.36141
685.65155
637.25853
590.39689
545.25083
501.97411
460.69097
421.50668
654.53056
719.76681
787.27796
856.63407
927.37978
999.02602
1071.0557
1142.9306
1214.0979
1283.998
1352.0716
1417.7669
1480.5463
1539.8936
1595.32
1646.3694
1692.6243
1733.7098
1768.7593
1798.1205
1821.7287
1839.4413
1850.9076
1856.0818
1854.9745
1847.7551
1834.5249
1815.2774
1790.227
1759.7562
1724.6486
1684.4305
1639.6597
1590.9166
1538.6396
1483.2834
1425.3139
1365.2021
1303.4194
1240.4318
1176.6945
1112.6477
1048.7111
985.28089
922.72529
861.38213
801.55627
743.51782
687.5011
633.70405
582.28817
533.37942
487.10057
904.73791
989.52977
1076.539
1165.1625
1254.7777
1344.7317
1434.3493
1522.9421
1609.8174
1694.287
1775.676
1853.3315
1926.6294
1994.9828
2057.8476
2114.7285
2165.1844
2208.1528
2244.0931
2272.859
2294.4407
2308.3498
2314.5395
2313.0354
2304.0544
2287.7199
2264.0571
2233.271
2195.8537
2152.7692
2103.4815
2048.545
1988.7264
1924.5466
1856.5492
1785.2927
1711.3436
1635.2694
1557.6327
1478.9847
1399.8595
1320.7691
1242.1981
1164.5995
1088.391
1013.9521
941.62165
871.69603
804.42862
740.02922
678.66113
1262.362
1372.5995
1484.668
1597.738
1710.9739
1823.5201
1934.5112
2043.0836
2148.3865
2249.5922
2345.9059
2436.5748
2520.8958
2598.2234
2667.9754
2729.639
2781.9233
2825.4353
2859.9618
2885.602
2901.7602
2908.4066
2905.5693
2893.5662
2872.5373
2842.5283
2803.7872
2756.9288
2703.1635
2641.8411
2573.5553
2499.2836
2419.655
2335.3243
2246.9637
2155.2556
2060.8847
1964.5305
1866.8602
1768.522
1670.1389
1572.3027
1475.5688
1380.4522
1287.4229
1196.9035
1109.2668
1024.8342
943.87541
866.60946
793.21979
1771.4516
1914.1573
2057.7521
2201.1228
2343.1753
2482.8161
2618.9644
2750.5657
2876.6048
2996.1167
3108.1975
3212.0117
3306.8006
3391.889
3466.6908
3529.6587
3581.5911
3622.2743
3651.8069
3669.5676
3675.5442
3669.8985
3652.8821
3624.8442
3585.7434
3535.9769
3476.2848
3408.2096
3330.876
3245.0731
3151.9637
3052.3136
2946.9162
2836.5839
2722.1399
2604.4104
2484.2154
2362.3614
2239.6329
2116.7855
1994.5392
1873.5723
1754.5154
1637.9479
1524.3931
1414.316
1308.1213
1206.152
1108.6898
1015.9567
928.13368
2492.0266
2675.1662
2857.3811
3037.2214
3213.3
3384.263
3548.8059
3705.6861
3853.7382
3991.8857
4119.1512
4234.6581
4337.6371
4427.4343
4502.2265
4563.0548
4609.823
4642.4642
4660.452
4663.8498
4652.9305
4627.8655
4589.4611
4537.4115
4472.3833
4395.2407
4307.9837
4209.3197
4100.5213
3982.8689
3857.2961
3724.7655
3586.2601
3442.7734
3295.3007
3144.83
2992.3325
2838.7541
2685.0072
2531.9629
2380.4439
2231.2183
2084.994
1942.4141
1804.0535
1670.4158
1541.9325
1418.9618
1301.7893
1190.6311
1085.654
3504.4316
3736.4099
3964.3635
4186.4712
4401.0416
4606.4667
4801.2382
4983.9609
5153.3646
5308.3205
5447.8591
5571.1324
5677.4303
5764.6507
5834.1341
5886.0352
5919.985
5935.6848
5933.2573
5913.4116
5875.7689
5822.0637
5751.4892
5665.5896
5564.713
5451.7265
5324.6409
5185.6416
5036.0192
4876.909
4709.4771
4534.9102
4354.4048
4169.157
3980.352
3789.1545
3596.6989
3404.08
3212.3446
3022.4834
2835.4238
2652.0236
2473.0652
2299.2518
2131.2036
1969.456
1814.4581
1666.5733
1526.0803
1393.1768
1268.0032
4914.15
5202.8542
5482.6358
5751.3082
6006.9071
6247.6229
6471.8133
6678.0125
6864.9275
7031.4631
7176.8589
7300.3776
7399.6264
7476.3036
7530.9324
7562.7835
7571.9332
7558.7639
7523.7659
7467.9233
7391.4944
7294.5649
7178.9461
7047.5175
6899.5529
6734.5987
6555.9251
6364.6758
6162.2172
5949.9539
5729.3123
5501.7267
5268.6276
5031.4299
4791.5216
4550.2539
4308.931
4068.8005
3831.0448
3596.7731
3367.014
3142.7094
2924.7093
2713.7678
2510.5402
2315.5813
2129.3452
1952.1861
1784.3608
1626.0333
1477.3013
6856.8016
7208.0303
7543.0564
7859.4003
8154.9271
8427.7445
8676.2141
8898.9682
9094.8002
9262.5667
9402.5062
9511.7843
9592.2531
9644.9456
9668.956
9664.6441
9633.4174
9574.6519
9491.141
9381.9801
9248.4867
9092.5596
8918.1821
8722.9282
8508.7773
8278.1349
8032.7792
7774.3792
7504.6292
7225.2382
6937.9174
6644.3674
6346.2656
6045.2544
5742.9303
5440.833
5140.4355
4843.1346
4550.2426
4262.9788
3982.4631
3709.7098
3445.623
3190.9928
2946.4935
2712.6825
2490.0006
2278.7741
2079.2187
1891.4446
1715.488
9502.8911
9918.0149
10306.672
10666.262
10994.679
11290.144
11551.228
11777.083
11966.928
12117.445
12232.314
12310.905
12353.523
12360.353
12332.5
12270.613
12177.042
12052.51
11896.265
11712.469
11500.72
11268.462
11009.804
10730.451
10432.001
10116.518
9786.0952
9442.7962
9088.6709
8725.7528
8356.0512
7981.5398
7604.1453
7225.7362
6848.112
6472.9929
6102.0101
5736.6968
5378.48
5028.6728
4688.4681
4358.9332
4041.0057
3735.4906
3443.0586
3164.2467
2899.4589
2648.9698
2412.929
2191.3691
1984.2421
13061.747
13534.483
13966.971
14356.793
14702.226
15001.865
15254.422
15460.832
15617.323
15727.286
15792.638
15812.48
15788.123
15721.483
15612.095
15466.004
15280.404
15059.593
14803.6
14521.261
14206.124
13864.882
13499.417
13112.363
12706.136
12283.207
11846.05
11397.108
10938.787
10473.442
10003.378
9530.8316
9057.9672
8586.8636
8119.5048
7657.7709
7203.4285
6758.123
6323.3707
5900.5519
5490.9053
5095.5231
4715.3478
4351.1704
4003.6292
3673.2112
3360.2544
3064.952
2787.358
2527.396
2284.9008
17784.012
18296.245
18750.595
19145.248
19479.592
19753.222
19962.019
20112.264
20203.592
20237.281
20214.562
20138.577
20008.269
19831.278
19605.109
19334.301
19019.854
18672.152
18284.765
17863.319
17411.915
16933.609
16431.273
15907.906
15366.461
14809.855
14240.967
13662.607
13077.518
12488.357
11897.698
11308.014
10721.676
10140.94
9567.9413
9004.6827
8453.0306
7914.7053
7391.2747
6884.1488
6394.5745
5923.6315
5472.2304
5041.1111
4630.8434
4241.8286
3874.3037
3528.3457
3203.878
2900.6687
23962.017
24478.676
24916.076
25273.013
25551.777
25748.52
25868.887
25916.661
25891.552
25798.745
25636.807
25415.662
25133.646
24794.512
24400.865
23966.076
23482.764
22956.63
22393.912
21797.71
21171.903
20520.207
19846.201
19153.403
18445.251
17725.092
16996.179
16261.659
15524.564
14787.811
14054.19
13326.362
12606.853
11898.043
11202.164
10521.293
9857.342
9212.0545
8587.0004
7983.5694
7402.9683
6846.2174
6314.1489
5807.4072
5326.4498
4871.5505
4442.8042
4040.1335
3663.3
3311.9474
31927.501
32390.419
32750.773
33003.723
33158.89
33218.144
33183.37
33061.839
32851.889
32566.938
32205.733
31772.26
31270.484
30718.524
30105.276
29440.524
28731.142
27980.82
27194.658
26377.143
25532.746
24665.789
23780.429
22880.675
21970.388
21053.283
20132.919
19212.707
18295.898
17385.587
16484.708
15596.032
14722.163
13865.533
13028.4
12212.839
11420.743
10653.811
9913.5521
9201.2731
8518.0813
7864.8803
7242.3694
6651.0446
6091.2006
5562.935
5066.1542
4600.582
4165.773
3761.1665
42046.717
42365.632
42556.671
42621.773
42565.785
42397.155
42115.631
41737.97
41263.351
40698.46
40047.407
39336.123
38545.591
37695.344
36790.255
35836.04
34839.114
33805.031
32739.393
31647.499
30534.434
29405.051
28263.968
27115.579
25964.062
24813.382
23667.301
22529.377
21402.971
20291.246
19197.173
18123.528
17072.894
16047.656
15050.004
14081.926
13145.206
12241.421
11371.937
10537.907
9740.2678
8979.7402
8256.8267
7571.8148
6924.779
6315.5862
5743.9021
5209.2005
4710.7762
4247.801
54701.61
54761.772
54664.821
54420.31
54030.182
53518.033
52885.447
52133.773
51275.813
50345.908
49312.588
48211.734
47043.249
45816.865
44540.224
43220.521
41864.819
40479.681
39071.363
37645.758
36208.419
34764.575
33319.135
31876.711
30441.629
29017.946
27609.463
26219.732
24852.071
23509.57
22195.095
20911.296
19660.605
18445.243
17267.216
16128.317
15030.12
13973.982
12961.039
11992.201
11068.157
10189.368
9356.0674
8568.2687
7825.763
7128.1269
6474.7291
5864.7386
5297.1207
70304.747
69943.892
69392.577
68685.574
67820.387
66801.223
65679.463
64429.055
63068.006
61625.617
60100.319
58508.002
56857.361
55158.049
53418.963
51648.365
49854.019
48043.132
46222.416
44398.103
42575.975
40761.393
38959.317
37174.34
35410.712
33672.359
31962.911
30285.717
28643.862
27040.177
25477.255
23957.455
22482.911
21055.534
19677.014
18348.82
17072.201
15848.185
14677.572
13560.938
12498.63
11490.768
10537.242
9637.7145
8791.6271
7998.2028
7256.4557
6565.2037
5923.1197
89246.444
88267.278
87068.77
85679.891
84166.848
82479.098
80676.253
78763.044
76753.415
74666.579
72513.018
70306.071
68056.959
65776.238
63473.612
61157.977
58837.494
56519.624
54211.183
51918.389
49646.909
47401.902
45188.063
43009.66
40870.572
38774.324
36724.114
34722.84
32773.122
30877.322
29037.553
27255.698
25533.414
23872.138
22273.092
20737.283
19265.502
17858.324
16516.104
15238.977
14026.854
12879.422
11796.144
10776.257
9818.7808
8922.5188
8086.0691
7307.839
6586.1066
111921.74
110054.61
107967.38
105682.1
103260.86
100702.11
98034.994
95276.658
92444.185
89555.262
86624.175
83664.632
80688.863
77707.94
74731.845
71769.548
68829.097
65917.694
63041.773
60207.069
57418.69
54681.172
51998.541
49374.366
46811.805
44313.646
41882.349
39520.074
37228.71
35009.896
32865.041
30795.336
28801.765
26885.11
25045.956
23284.693
21601.512
19996.404
18469.158
17019.358
15646.376
14349.372
13127.294
11978.877
10902.642
9896.9067
8959.7871
8089.2134
7282.9856
138688
135592.96
132311.2
128865.78
125296.17
121622.99
117871.52
114062.86
110216.19
106349.35
102477.84
98615.581
94774.835
90966.428
87199.868
83483.469
79824.478
76229.181
72703.01
69250.636
65876.059
62582.682
59373.389
56250.602
53216.347
50272.298
47419.82
44660.012
41993.73
39421.617
36944.121
34561.509
32273.878
30081.158
27983.119
25979.366
24069.341
22252.313
20527.379
18893.454
17349.267
15893.356
14524.065
13239.543
12037.742
10916.424
9873.1578
8905.3174
169786.4
165125.57
160318.14
155395.81
150393.88
145339.87
140259.55
135175.38
130107.13
125072.3
120086.04
115161.41
110309.63
105540.23
100861.28
96279.522
91800.533
87428.888
83168.271
79021.596
74991.114
71078.504
67284.956
63611.249
60057.81
56624.772
53312.021
50119.232
47045.906
44091.39
41254.899
38535.526
35932.254
33443.955
31069.394
28807.223
26655.976
24614.059
22679.748
20851.172
19126.309
17502.978
15978.832
14551.352
13217.85
11975.465
10821.17
9751.8113
205453.32
198821.71
192115.66
185370.85
178621.95
171898.15
165224.92
158624.02
152114.01
145710.63
139426.99
133273.89
127260.11
121392.63
115676.85
110116.87
104715.57
99474.896
94395.904
89478.968
84723.863
80129.88
75695.914
71420.54
67302.087
63338.685
59528.321
55868.868
52358.124
48993.826
45773.671
42695.32
39756.406
36954.533
34287.267
31752.132
29346.597
27068.063
24913.853
22881.196
20967.213
19168.908
17483.155
15906.692
14436.116
13067.885
11798.314
10623.624
245820.8
236771.93
227760.06
218820.94
209987.43
201286.95
192742.34
184372.26
176191.79
168212.89
160444.71
152894.02
145565.51
138462.08
131585.14
124934.82
118510.2
112309.49
106330.19
100569.25
95023.193
89688.187
84560.181
79634.96
74908.214
70375.59
66032.736
61875.33
57899.106
54099.871
50473.511
47015.994
43723.367
40591.75
37617.319
34796.296
32124.929
29599.476
27216.179
24971.253
22860.859
20881.093
19027.97
17297.409
15685.227
14187.135
12798.738
11515.565
290925.21
278980.26
267229.48
255704.47
244433.09
233437.4
222734.44
212336.87
202253.58
192490.27
183049.9
173933.13
165138.68
156663.69
148503.98
140654.35
133108.78
125860.61
118902.77
112227.83
105828.19
99696.186
93824.114
88204.358
82829.418
77691.958
72784.842
68101.15
63634.195
59377.528
55324.935
51470.43
47808.241
44332.792
41038.685
37920.67
34973.625
32192.525
29572.416
27108.386
24795.542
22628.986
20603.793
18714.994
16957.565
15326.415
13816.385
12422.267
340701.76
325359.98
310421.31
295907.43
281837.2
268223.2
255072.9
242389.48
230172.53
218418.68
207122.14
196275.15
185868.4
175891.36
166332.64
157180.16
148421.46
140043.82
132034.45
124380.62
117069.75
110089.51
103427.89
97073.236
91014.298
85240.266
79740.772
74505.902
69526.194
64792.625
60296.599
56029.924
51984.781
48153.703
44529.533
41105.394
37874.648
34830.863
31967.772
29279.241
26759.229
24401.766
22200.915
20150.757
18245.369
16478.808
14845.11
13338.285
394985
375735.21
357152.74
339244.94
322016.09
305463.62
289581.6
274359.86
259785.2
245842.08
232513.15
219779.77
207622.35
196020.76
184954.57
174403.29
164346.59
154764.46
145637.29
136946.06
128672.32
120798.32
113307.01
106182.12
99408.091
92970.151
86854.27
81047.158
75536.234
70309.601
65356.012
60664.828
56225.976
52029.906
48067.537
44330.214
40809.656
37497.906
34387.283
31470.335
28739.799
26188.556
23809.597
21595.997
19540.882
17637.417
15878.791
14258.204
453509.69
429842.91
407167.02
385467.75
364728.48
344927.93
326041.52
308040.67
290896.12
274576.81
259050.93
244286.31
230250.81
216912.63
204240.51
192203.96
180773.37
169920.17
159616.87
149837.13
140555.81
131748.96
123393.86
115468.97
107953.94
100829.56
94077.736
87681.429
81624.627
75892.276
70470.228
65345.178
60504.605
55936.703
51630.318
47574.885
43760.359
40177.156
36816.089
33668.313
30725.266
27978.622
25420.247
23042.157
20836.49
18795.48
16911.439
15176.73
515919.35
487341.53
460138.35
434267.15
409684.48
386343.81
364196.56
343192.98
323283.34
304416.81
286544.51
269618.14
253590.66
238416.54
224051.92
210454.71
197584.66
185403.42
173874.54
162963.44
152637.46
142865.74
133619.22
124870.59
116594.17
108765.9
101363.24
94365.08
87751.683
81504.581
75606.502
70041.278
64793.764
59849.749
55195.873
50819.543
46708.851
42852.495
39239.707
35860.176
32703.987
29761.556
27023.575
24480.968
22124.846
19946.484
17937.292
16088.777
581776.6
547821.08
515683.11
485285.51
456551.32
429402.85
403762.72
379554.64
356704.1
335138.73
314789.1
295587.3
277469.56
260374.65
244244.35
229023.47
214659.78
201104.01
188309.73
176233.28
164833.68
154072.5
143913.78
134323.89
125271.41
116727.04
108663.45
101055.16
93878.457
87111.229
80732.886
74724.227
69067.335
63745.466
58742.939
54045.037
49637.902
45508.445
41644.249
38033.487
34664.842
31527.431
28610.74
25904.569
23398.977
21084.255
18950.895
16989.535
650577.37
610815.57
573370.87
538126.35
504964.61
473770.74
444433.32
416845.05
390903.12
366509.46
343570.83
321999.23
301710.25
282625.54
264670.89
247776.59
231877.21
216911.5
202822.12
189555.54
177061.76
165294.2
154209.46
143767.16
133929.75
124662.33
115932.5
107710.17
99967.417
92678.301
85818.749
79366.385
73300.4
67601.407
62251.317
57233.209
52531.211
48130.386
44016.623
40176.539
36597.377
33266.931
30173.456
27305.606
24652.37
22203.038
19947.17
17874.531
878828.76
823084.25
770792.85
721776.94
675816.53
632736.53
592365.46
554537.98
519095.91
485888.77
454773.87
425616.45
398289.5
372673.63
348656.82
326134.54
305007.78
285185.34
266581.68
249117.11
232717.41
217313.56
202841.41
189241.39
176458.22
164440.62
153141.08
142515.58
132523.37
123126.71
114290.7
105983.01
98173.752
90835.223
83941.765
77469.579
71396.559
65702.136
60367.13
55373.605
50704.738
46344.691
42278.493
38491.934
34971.461
31704.089
28677.315
25879.047
23297.556
20921.466
18739.67
975779.31
911243.93
851001.02
794771.83
742285.01
693292.9
647562.25
604873.13
565018.52
527804.07
493047.72
460579.27
430239.89
401881.56
375366.5
350566.58
327363.22
305645.07
285310.16
266263.53
248417.23
231689.83
216005.99
201296.04
187495.58
174545.11
162389.66
150978.48
140264.74
130205.19
120759.93
111892.14
103567.82
95755.561
88426.344
81553.311
75111.582
69078.065
63431.283
58151.206
53219.101
48617.383
44329.485
40339.73
36633.218
33195.72
30013.576
27073.609
24363.058
21869.599
19581.275
1075068
1001283.5
932701.38
868946.15
809668.2
754543.52
703270.81
655569.6
611178.93
569856.3
531376.64
495531.26
462126.93
430984.78
401939.44
374838.06
349539.45
325913.64
303839.47
283206.41
263912.08
245862.1
228969.46
213154.01
198341.89
184465.08
171460.94
159271.79
147844.54
137130.32
127084.12
117664.52
108833.34
100555.41
92798.297
85532.052
78728.987
72363.464
66411.692
60851.536
55662.347
50824.79
46320.698
42132.932
38245.251
34642.192
31308.953
28231.275
25395.349
22787.878
20396.098
1175825.5
1092426.2
1015204.8
943680.72
877412.98
815994.6
759050.23
706233.65
657225.48
611731.35
569479.99
530221.66
493726.47
459782.93
428196.53
398788.38
371394.06
345862.42
322054.93
299843.1
279110.09
259748.13
241658.22
224749.39
208938.12
194147.68
180307.58
167353.11
155224.83
143868.13
133232.86
123272.92
113945.96
105213
97038.169
89388.419
82233.252
75544.484
69296.01
63463.599
58024.689
52958.208
48244.402
43864.682
39801.484
36038.131
32558.708
29347.903
26390.816
23673.108
21181.334
1277181.2
1183899.2
1097826.2
1018366.4
944978.41
877165.82
814473.94
756486.28
702821.36
653129.76
607091.49
564413.57
524827.74
488088.39
453970.67
422268.73
392794.06
365374.09
339851.19
316079.68
293927.49
273273.2
254005.56
236022.67
219231.16
203545.49
188887.27
175184.68
162371.88
150388.53
139179.28
128693.4
118884.31
109709.26
101128.96
93107.266
85610.891
78609.12
72073.562
65977.906
60297.704
55010.166
50093.976
45529.119
41296.729
37378.951
33758.801
30420.003
27346.47
24522.545
21934.579
1378281.6
1274950.2
1179901.6
1092416.8
1011846.6
937599.64
869137.55
805969.96
747650.28
693771.65
643963.34
597887.51
555236.23
515728.72
479108.97
445143.44
413619.06
384341.36
357132.82
331831.8
308289.32
286370.67
265952.26
246921.16
229174.15
212616.84
197162.94
182733.52
169256.36
156665.4
144900.17
133905.29
123630.02
114027.87
105056.16
96675.708
88850.461
81547.222
74735.346
68386.481
62474.328
56974.416
51863.898
47121.365
42726.681
38660.843
34905.872
31444.775
1478309.2
1364862.2
1260801.9
1165279.2
1077531.7
996869.02
922665.44
854354.12
791421.17
733400.56
679869.46
630444.1
584776.01
542548.63
503474.26
467291.33
433761.92
402669.5
373816.97
347024.85
322129.97
298982.44
277446.86
257399.3
238726.72
221325.96
205102.88
189971.52
175853.36
162676.69
150375.97
138891.27
128167.75
118155.24
108807.75
100083.1
91942.544
84350.462
77274.003
70682.827
64548.832
58845.908
53549.721
48637.505
44087.89
39880.753
35997.157
1576496.9
1452966.3
1339943
1236443.3
1141587.7
1054583.5
974715.79
901339.3
833871.54
771786.28
714607.83
661905.95
613291.27
568411.16
526946.12
488606.47
453129.42
420276.45
389830.93
361596.05
335393.31
311059.07
288445.77
267418.65
247854.97
229642.95
212680.73
196875.43
182142.37
168404.31
155590.73
143637.27
132485.1
122080.44
112374.09
103320.95
94879.679
87012.275
79683.764
72861.877
66516.766
60620.741
55148.026
50074.547
45377.736
41036.357
37030.218
1672141.1
1538652
1416794.8
1305448
1203613.1
1110393.7
1024984.2
946660.1
874769.87
808726.72
748001.97
692118.87
640647.19
593198.42
549421.4
508998.56
471642.51
437092.95
405114.02
375491.82
348032.31
322559.72
298913.19
276947.81
256531.38
237543.69
219875.32
203426.7
188107.14
173834
160531.97
148132.37
136572.49
125795.1
115747.86
106382.87
97656.271
89527.778
81960.366
74919.914
68374.895
62296.098
56656.368
51430.371
46594.388
42126.114
38004.251
1764610.3
1621374.6
1490886.1
1371885.8
1263255.4
1163994.2
1073205.7
990086.85
913916.86
844048.88
779901.61
720952.26
666730.28
616811.69
570814.22
528392.91
489236.19
453062.45
419617.01
388669.31
360010.55
333451.92
308820.87
285962.22
264734.59
245009.58
226670.51
209611.31
193735.47
178955.2
165190.52
152368.61
140423.05
129293.26
118923.9
109264.41
100268.48
91893.659
84100.961
76854.49
70121.117
63870.18
58073.207
52703.667
47736.74
43149.112
38918.502
1853351.5
1700659.8
1561809.3
1435405.9
1320212.4
1215124.6
1119156.4
1031426.3
951145.91
877609.01
810182.71
748299.09
691448.11
639171.2
591055.74
546730.07
505859.14
468140.68
433301.72
401095.59
371299.24
343711.23
318147.79
294443.78
272449.04
252027.29
233054.87
215419.46
199019.02
183760.76
169560.3
156340.82
144032.38
132571.19
121899.09
111962.92
102714.08
94108.062
86104.001
78664.32
71754.371
65342.116
59397.835
53893.862
48804.341
44105.005
39772.683
1937893.8
1776105.8
1629220.8
1495714.6
1374233
1263570.4
1162652.4
1070521.5
986322.6
909292.12
838746.89
774075.2
714728.74
660215.47
610093.43
563965.21
521473.15
482295.06
446140.44
412747.14
381878.41
353320.29
326879.66
302380.49
279664.65
258588.38
239021.35
220845.31
203952.93
188246.72
173638.06
160046.39
147398.38
135627.25
124672.11
114477.4
104992.34
96170.458
87969.125
80349.181
73274.544
66711.881
60630.295
55001.054
49797.329
44993.965
40566.967
2017851.5
1847383.7
1692841.5
1552575.3
1425116.8
1309161.5
1203549.9
1107250.3
1019343.7
939010.91
865520.39
798218.34
736519.71
679900.35
627890.21
580067.28
536052.28
495504.02
458115.28
423609.17
391735.95
362270.15
335008.5
309765.93
286376.34
264688.88
244566.93
225886.61
208535.62
192411.99
177423.16
163485.01
150521.04
138461.63
127243.36
116808.37
107103.86
98081.508
89697.038
81909.801
74682.372
67980.204
61771.303
56025.937
50716.372
45816.627
41301.941
3322328.2
3022193.4
2752394.4
2509507.1
2290544.3
2092932.3
1914236
1752454.5
1605806.2
1472711.5
1351770.9
1241742.6
1141524.2
1050135.6
966704.23
890452.61
820686.79
756786.75
698197.86
644423.4
595018.02
549581.96
507756.07
469217.33
433674.94
400866.87
370556.83
342532
316598.78
292583.58
270328.91
249692.21
230544.37
212768.37
196258.11
180917.29
166658.47
153402.2
141076.2
129614.67
118957.66
109050.42
99842.932
91289.388
83347.747
75979.337
69148.481
62822.164
56969.73
51562.6
46574.032
41978.558
3450885
3135650.4
2852699
2598332.2
2369334.6
2162891.7
1976470.7
1807902.5
1655277.9
1516911.1
1391311.6
1277159.8
1173286
1078652
992335.24
913514.42
841457.78
775512.39
715094.88
659683.44
608810.79
562057.96
519048.93
479445.86
442944.94
409272.65
378182.57
349452.96
322882.26
298289.91
275512.19
254401.04
234822.46
216655.07
199788.89
184124.16
169570.38
156045.33
143474.28
131789.23
120928.24
110834.83
101457.37
92748.646
84665.322
77167.575
70218.688
63784.701
57834.105
52337.546
47267.58
42598.084
3570243.5
3240891.8
2945654.9
2680575.7
2442217.4
2227566.9
2033960.1
1859083.8
1700909.8
1557652
1427734.2
1309763.5
1202507.1
1104872.3
1015889.3
934696.23
860525.81
792694.36
730591.7
673672.65
621449.47
573485.32
529388.51
488807.42
451426.14
416960.5
385154.7
355778.24
328623.64
303502.43
280245.63
258700.1
238727.29
220201.83
203010.14
187049.3
172225.94
158455.32
145660.45
133771.3
122724.12
112460.8
102928.27
94077.989
85865.454
78249.78
71193.294
64661.173
58621.123
53043.085
47898.969
43162.056
3680104.6
3337676.9
3031072
2756089.6
2509084.5
2286866.9
2086635.3
1905947.9
1742665.9
1594909.7
1461023.4
1339545.7
1229185.1
1128798.3
1037371.9
954006.02
877900.77
808343.93
744700.55
686403.85
632947.21
583877.3
538787.97
497314.95
459131.16
423942.66
391485
361520.05
333833.66
308231.35
284538.9
262598.49
242267.45
223416.7
205929.41
189699.73
174631.7
160638.27
147640.37
135566.12
124350.14
113932.81
104259.73
95281.189
86951.599
79229.112
72075.183
65454.204
59333.171
53681.378
48470.152
43672.23
3780297.2
3425877.6
3108856.8
2824808.3
2569894.3
2340763.1
2134481.8
1948490.8
1780550.3
1628694.6
1491194.1
1366524.7
1253340.6
1150452.2
1056805.9
971467.24
893606.13
822484.3
757444.12
697899.05
643325.22
593254.24
547266.75
504986.92
466077.51
430235.64
397189.02
366692.58
338526.05
312489.51
288403.99
266107.41
245453.34
226309.36
208555.67
192083.78
176795.37
162601.29
149420.59
137179.74
125811.83
115255.92
105456.42
96362.51
87927.65
80109.117
72867.581
66166.723
59972.898
54254.82
48983.288
44130.549
3870767.7
3505466.7
3179002.6
2886740.7
2624667.2
2389283
2177532.7
1986750
1814603.2
1659048.2
1518288.3
1390742
1275014.6
1169873.9
1074230
987116.78
907677.07
835148.9
768854.08
708188.14
652611.65
601642.56
554849.6
511846.48
472286.8
435859.62
402285.55
371313.27
342717.02
316291.96
291854.84
269239.76
248296.89
228890.83
210899.09
194210.81
178725.56
164352.29
151008.4
138618.82
127115.32
116435.75
106523.44
97326.607
88797.845
80893.648
73573.982
66801.894
60543.164
54765.989
49440.697
44539.095
3951567.8
3576507.4
3241579.6
2941961.3
2673479.7
2432502.6
2215863.1
2020798.8
1844895.6
1686038.6
1542371
1412259.6
1294265.4
1187118.3
1089695.5
1001002.9
920158.78
846379.88
778969.65
717307.63
660840.41
609073.74
561565.71
517920.68
477784.07
440837.74
406795.98
375401.89
346424.8
319655.53
294906.96
272009.82
250811.26
231173.2
212970.78
196091.03
180431.63
165899.87
152411.64
139890.55
128267.16
117478.27
107466.24
98178.441
89566.691
81586.792
74198.087
67363.062
61046.988
55217.603
49844.821
44900.058
4022841.9
3639141.2
3296725
2990601.7
2716457
2470540
2249584.1
2050741.4
1871524.8
1709756.9
1563526.9
1431156
1311165.9
1202252.9
1103265.2
1013183.6
931104.65
856226.53
787836.35
725299.46
668050.15
615583.39
567447.87
523239.7
482597.09
445195.57
410743.82
378980.05
349669.27
322598.44
297577.1
274432.96
253010.53
233169.39
214782.58
197735.27
181923.5
167253.09
153638.59
141002.47
129274.24
118389.75
108290.53
98923.194
90238.888
82192.808
74743.748
67853.704
61487.502
55612.48
50198.189
45215.703
4084813.7
3693577.3
3344633.3
3032842.2
2753765.7
2503548.7
2278837
2076708
1894610.7
1730312.9
1581857.1
1447524.1
1325801.4
1215355.9
1115010.5
1023724.2
940574.8
864743.95
795504.64
732209.91
674283.28
621210.38
572531.69
527836.19
486755.79
448960.5
414154.17
382070.75
352471
325140
299882.91
276525.34
254909.51
234892.93
216346.86
199154.84
183211.5