/*--------------------------------*- C++ -*----------------------------------*\
| =========                 |                                                 |
| \\      /  F ield         | OpenFOAM: The Open Source CFD Toolbox           |
|  \\    /   O peration     | Version:  2312                                  |
|   \\  /    A nd           | Website:  www.openfoam.com                      |
|    \\/     M anipulation  |                                                 |
\*---------------------------------------------------------------------------*/
FoamFile
{
    version     2.0;
    format      ascii;
    arch        "LSB;label=32;scalar=64";
    class       volScalarField;
    location    "0.08";
    object      T;
}
// * * * * * * * * * * * * * * * * * * * * * * * * * * * * * * * * * * * * * //

dimensions      [0 0 0 1 0 0 0];

internalField   nonuniform List<scalar> 
3272
(
398.56831
399.85566
401.09647
402.29025
403.43692
404.53647
405.58891
406.59431
407.55278
408.46444
409.32946
410.148
410.92027
411.64646
412.3268
412.96152
413.55085
414.09504
414.59435
415.04902
415.45934
415.8256
416.14222
416.41598
416.6483
416.84036
416.98945
417.09586
417.15984
417.18166
417.16196
417.10092
416.99802
416.85412
416.6725
416.44861
416.18381
415.87944
415.53591
415.15362
414.73303
414.27463
413.77891
413.24641
412.6777
412.07339
411.4341
410.76052
410.05335
409.31335
408.54131
407.73808
406.90474
399.24194
400.5274
401.76582
402.95678
404.10023
405.19617
406.24466
407.24579
408.19969
409.10651
409.96643
410.77964
411.54636
412.26682
412.94125
413.56989
414.15301
414.69085
415.18367
415.63172
416.03528
416.39464
416.70444
416.97135
417.19746
417.38252
417.52462
417.62403
417.68103
417.69567
417.66909
417.6009
417.49097
417.34006
417.1515
416.92021
416.64833
416.33687
415.98625
415.59687
415.1692
414.70371
414.20091
413.66133
413.08554
412.47415
411.82779
411.14714
410.43289
409.6858
408.90664
408.09623
407.25572
400.51199
401.79287
403.02587
404.21065
405.34718
406.43554
407.47583
408.46818
409.41277
410.30981
411.15949
411.96207
412.71779
413.42693
414.08973
414.7065
415.2775
415.80302
416.28333
416.71866
417.10922
417.45495
417.75185
418.00583
418.21981
418.39164
418.52049
418.60661
418.6503
418.6518
418.61211
418.53043
418.4073
418.24341
418.04171
417.79664
417.51154
417.18688
416.82306
416.42051
415.97968
415.50105
414.98512
414.43243
413.84355
413.21908
412.55966
411.86596
411.13867
410.37855
409.58637
408.76296
407.90948
402.31144
403.58438
404.80833
405.983
407.10846
408.18484
409.21233
410.19112
411.12147
412.00362
412.83785
413.62447
414.36377
415.05608
415.7017
416.30097
416.85421
417.36175
417.82392
418.2411
418.61375
418.93646
419.21656
419.45239
419.64855
419.80152
419.91148
419.97871
420.0035
419.98642
419.92796
419.82718
419.68506
419.50473
419.28278
419.01896
418.71529
418.37212
417.98984
417.56889
417.10971
416.61277
416.07857
415.50766
414.90059
414.25796
413.58042
412.86862
412.12327
411.34512
410.53494
409.69356
408.82212
404.58087
405.84184
407.05246
408.21254
409.32227
410.38186
411.39159
412.35175
413.26267
414.12468
414.93814
415.70341
416.42087
417.0909
417.71386
418.29016
418.82015
419.30422
419.74271
420.1359
420.48378
420.78213
421.03735
421.25158
421.4238
421.55275
421.63872
421.682
421.68296
421.64249
421.55998
421.43574
421.27053
421.06736
420.8209
420.53387
420.20707
419.84085
419.43562
418.99181
418.50985
417.99021
417.43339
416.83992
416.21037
415.54532
414.8454
414.11129
413.34368
412.54332
411.71097
410.84746
409.95396
407.26693
408.51121
409.70362
410.84411
411.93297
412.97055
413.95723
414.89341
415.77951
416.61597
417.40322
418.14173
418.83193
419.47428
420.06923
420.61721
421.11868
421.57408
421.98392
422.34886
422.66353
422.93404
423.16123
423.34818
423.49161
423.59185
423.64925
423.66389
423.63692
423.56825
423.45728
423.30517
423.11473
422.88225
422.60794
422.29365
421.93975
421.54659
421.11458
420.64411
420.13562
419.58958
419.00648
418.38683
417.7312
417.04016
416.31435
415.55442
414.76107
413.93503
413.07708
412.18804
411.26905
410.32108
411.54331
412.71207
413.82746
414.88992
415.89992
416.85796
417.76458
418.6203
419.42568
420.18125
420.88754
421.54511
422.15448
422.71616
423.23065
423.69844
424.11997
424.49566
424.82579
425.10621
425.34333
425.53967
425.69319
425.80339
425.87061
425.89518
425.87765
425.81871
425.71724
425.57405
425.39262
425.17067
424.90549
424.60026
424.2553
423.87095
423.44756
422.9855
422.48519
421.94704
421.37151
420.75907
420.11025
419.42557
418.70562
417.95101
417.16239
416.34046
415.48593
414.59957
413.68221
412.73498
413.69854
414.89283
416.03203
417.11641
418.14656
419.12312
420.04673
420.91804
421.73772
422.50643
423.22481
423.89351
424.51315
425.08435
425.6077
426.08375
426.51306
426.89613
427.23343
427.52113
427.76466
427.96651
428.12603
428.24214
428.31523
428.34565
428.33393
428.28081
428.18558
428.04869
427.8709
427.65562
427.3971
427.09783
426.75876
426.38024
425.96261
425.50621
425.01142
424.47861
423.90821
423.30065
422.65639
421.97593
421.2598
420.50856
419.72282
418.90321
418.05041
417.16513
416.24813
415.30022
414.32256
417.35763
418.51761
419.62094
420.66808
421.65978
422.59684
423.48007
424.31025
425.08819
425.81465
426.49042
427.11622
427.69279
428.22082
428.70098
429.1339
429.5202
429.86044
430.15073
430.39672
430.60018
430.76181
430.87996
430.95507
430.98754
430.97791
430.92697
430.83421
430.69974
430.52443
430.31147
430.05621
429.75989
429.42385
429.04842
428.63391
428.18064
427.68895
427.1592
426.59174
425.98699
425.34534
424.66726
423.95321
423.20372
422.41933
421.60062
420.74821
419.86277
418.94499
417.99561
417.01538
416.00593
421.25915
422.37812
423.439
424.44244
425.38939
426.28082
427.11768
427.90091
428.63144
429.31019
429.93803
430.51581
431.04435
431.52443
431.95681
432.34218
432.68122
432.97002
433.2144
433.41558
433.57539
433.69172
433.76507
433.79591
433.78479
433.73253
433.63876
433.50337
433.32736
433.11396
432.8588
432.5625
432.22673
431.85176
431.43788
430.98538
430.49457
429.96575
429.39926
428.79544
428.15467
427.47734
426.76389
426.01475
425.23043
424.41146
423.55838
422.67182
421.75241
420.80083
419.81771
425.36603
426.43707
427.44877
428.40198
429.29784
430.13749
430.92205
431.6526
432.33023
432.95595
433.53076
434.05562
434.53144
434.95909
435.33938
435.6731
435.95639
436.19517
436.3904
436.54445
436.65513
436.72294
436.74849
436.7324
436.67543
436.57722
436.43768
436.25783
436.04104
435.783
435.48397
435.14582
434.7688
434.35316
433.89918
433.40712
432.87725
432.30987
431.70527
431.06378
430.38575
429.67154
428.92155
428.13622
427.316
426.46141
425.57298
424.6513
423.69698
422.71069
421.69338
429.6431
430.65921
431.61496
432.51142
433.34993
434.13179
434.85828
435.53063
436.15005
436.71769
437.23466
437.70201
438.12074
438.49178
438.81604
439.0898
439.31902
439.50474
439.64911
439.75036
439.80905
439.82544
439.80093
439.73594
439.62994
439.48307
439.29632
439.07323
438.80923
438.50482
438.16173
437.78021
437.36051
436.90286
436.4075
435.87467
435.30463
434.69761
434.05391
433.37381
432.65762
431.90568
431.11837
430.29609
429.43927
428.54839
427.62396
426.66654
425.67674
424.65521
423.60289
434.05692
435.01115
435.9043
436.73766
437.51274
438.23101
438.89391
439.50281
440.05904
440.56387
441.01851
441.42412
441.78175
442.09242
442.35264
442.56831
442.74091
442.87172
442.95973
443.00557
443.00961
442.97289
442.89655
442.77948
442.62218
442.4255
442.19322
441.92019
441.60773
441.25716
440.86874
440.44269
439.97923
439.47857
438.94092
438.36648
437.75546
437.1081
436.42463
435.7053
434.95039
434.16022
433.33511
432.47544
431.58162
430.65408
429.69331
428.69986
427.67428
426.61723
425.52961
438.57576
439.46135
440.28548
441.04963
441.7555
442.40472
442.99887
443.53943
444.02785
444.4655
444.85375
445.1938
445.48676
445.72943
445.92759
446.08332
446.1968
446.26776
446.29702
446.28541
446.23291
446.14178
446.01012
445.83977
445.63013
445.38577
445.10063
444.77742
444.41684
444.0191
443.58444
443.11303
442.60508
442.06074
441.48019
440.8636
440.21115
439.52302
438.79941
438.04054
437.24665
436.41801
435.55492
434.65772
433.72676
432.76248
431.76531
430.73577
429.6744
428.58181
427.45889
443.1696
443.98009
444.72911
445.41833
446.04961
446.62472
447.14536
447.61314
448.02956
448.39605
448.7143
448.98547
449.20664
449.38337
449.51828
449.61067
449.66108
449.66992
449.63867
449.56807
449.45828
449.30852
449.1205
448.89773
448.63758
448.33726
448.00055
447.62736
447.21788
446.77231
446.29082
445.77355
445.22066
444.63228
444.00853
443.34955
442.65547
441.92644
441.1626
440.36414
439.53126
438.66419
437.76318
436.82853
435.86058
434.85969
433.82629
432.76086
431.6639
430.53601
429.37802
447.81014
448.5395
449.20777
449.8168
450.36857
450.86499
451.30788
451.69897
452.03974
452.33125
452.57649
452.77246
452.92389
453.03395
453.10142
453.12738
453.11306
453.05842
452.96593
452.83415
452.66368
452.45581
452.21457
451.93509
451.61821
451.26537
450.87702
450.45336
449.99459
449.50083
448.97223
448.40889
447.81092
447.1784
446.51142
445.81007
445.07443
444.30459
443.50068
442.66283
441.79118
440.88593
439.94729
438.97551
437.97089
436.93376
435.86451
434.76357
433.63143
432.46864
431.27602
452.47093
453.11364
453.69605
454.22014
454.68804
455.10173
455.46309
455.77424
456.03682
456.24839
456.41574
456.53922
456.6201
456.65903
456.6568
456.61484
456.53454
456.4165
456.2591
456.06552
455.83406
455.57155
455.26969
454.93309
454.56165
454.15566
453.71542
453.24112
452.73291
452.1909
451.61519
451.00584
450.3629
449.68641
448.97641
448.23293
447.45602
446.64572
445.8021
444.92525
444.01526
443.07229
442.09649
441.08808
440.04732
438.97449
437.86994
436.73406
435.56731
434.3702
433.14353
457.12736
457.67849
458.1705
458.60551
458.9858
459.31332
459.58959
459.81803
459.99618
460.1291
460.2199
460.26802
460.27433
460.24111
460.16764
460.05803
459.90961
459.72493
459.5028
459.24971
458.95836
458.63305
458.2737
457.88081
457.45462
456.99535
456.50321
455.97834
455.42085
454.8308
454.20823
453.55316
452.86559
452.14552
451.39292
450.60779
449.7901
448.93986
448.05709
447.14181
446.19409
445.21401
444.20171
443.15734
442.0811
440.97327
439.83412
438.66402
437.46338
436.23266
434.97259
461.75678
462.21204
462.60976
462.95214
463.2418
463.48085
463.66757
463.80888
463.90531
463.95874
463.96961
463.94066
463.87108
463.76502
463.6206
463.43981
463.22222
462.97392
462.68896
462.36969
462.01745
461.63268
461.21564
460.76663
460.28587
459.77354
459.22977
458.65467
458.04828
457.41062
456.74167
456.0414
455.30977
454.54669
453.75212
452.92596
452.06818
451.17869
450.25748
449.30452
448.31982
447.30341
446.25538
445.17585
444.06496
442.92294
441.75003
440.54656
439.31288
438.04933
466.33855
466.69429
466.99453
467.24109
467.43763
467.58281
467.68137
467.73696
467.74862
467.71987
467.64993
467.54314
467.39843
467.21686
466.99874
466.75044
466.46646
466.14847
465.79856
465.41683
465.00385
464.56
464.08559
463.58086
463.04597
462.48106
461.88621
461.26144
460.60677
459.92215
459.2075
458.46275
457.68778
456.88247
456.04669
455.18033
454.28326
453.35538
452.39658
451.40681
450.386
449.33417
448.25132
447.13754
445.99292
444.81765
443.61192
442.37603
441.1103
439.81527
470.85409
471.1072
471.30795
471.4551
471.5548
471.60894
471.61792
471.58563
471.51124
471.3996
471.24998
471.06317
470.83978
470.5869
470.29818
469.97657
469.62382
469.24004
468.82599
468.38212
467.90884
467.40648
466.87531
466.31549
465.72717
465.1104
464.46521
463.79157
463.08943
462.35868
461.5992
460.81084
459.99343
459.1468
458.27076
457.36513
456.42973
455.46441
454.469
453.44339
452.38748
451.30121
450.18455
449.03752
447.8602
446.65269
445.41517
444.14788
442.85112
441.52544
475.28713
475.43397
475.53144
475.58112
475.58458
475.54527
475.4629
475.34242
475.1833
474.98691
474.75355
474.49154
474.1926
473.86249
473.50159
473.1105
472.69009
472.24087
471.76339
471.25807
470.72524
470.16517
469.57807
468.96406
468.3232
467.6555
466.96092
466.23938
465.49075
464.71488
463.91158
463.08063
462.22183
461.33491
460.41966
459.47582
458.50316
457.50146
456.47052
455.41015
454.32022
453.20059
452.0512
450.87201
449.66305
448.4244
447.15617
445.85856
444.53182
443.17642
479.61972
479.66212
479.65687
479.60698
479.51264
479.37956
479.20789
478.9969
478.7491
478.47341
478.15914
477.81557
477.44123
477.03757
476.6054
476.14541
475.65826
475.14447
474.60449
474.03867
473.44729
472.83055
472.18858
471.52144
470.82914
470.11162
469.36877
468.60046
467.80648
466.98663
466.14065
465.26828
464.36922
463.44319
462.48987
461.50897
460.5002
459.46328
458.39795
457.30398
456.18116
455.02932
453.84834
452.63814
451.3987
450.13003
448.83223
447.50543
446.14978
483.8435
483.78028
483.67054
483.52121
483.3313
483.10048
482.8395
482.54112
482.20804
481.84593
481.45291
481.03141
480.58209
480.10586
479.6035
479.07567
478.52291
477.94569
477.34438
476.71926
476.07055
475.39837
474.70277
473.98377
473.24129
472.47521
471.68536
470.87154
470.03348
469.17091
468.28351
467.37096
466.4329
465.46898
464.47884
463.46212
462.41846
461.34754
460.24904
459.12266
457.96816
456.78531
455.57394
454.33391
453.06516
451.76767
450.44147
449.08668
447.70358
487.94547
487.77803
487.56576
487.31244
487.02922
486.70527
486.35037
485.96404
485.54744
485.1029
484.63105
484.13311
483.60999
483.06248
482.49125
481.8969
481.2799
480.64063
479.97939
479.29638
478.59174
477.86553
477.11772
476.34826
475.557
474.74376
473.9083
473.05035
472.16958
471.26565
470.33818
469.38679
468.41106
467.41057
466.3849
465.33365
464.25639
463.15273
462.02231
460.86479
459.67984
458.46721
457.22667
455.95804
454.66119
453.33607
451.98268
450.60109
449.19157
491.91875
491.64519
491.33146
490.97916
490.59622
490.1809
489.73623
489.26342
488.76376
488.23871
487.68927
487.11644
486.52104
485.90377
485.26525
484.60596
483.9263
483.22656
482.50697
481.76764
481.00865
480.22996
479.4315
478.61311
477.7746
476.91571
476.03612
475.13551
474.21349
473.26963
472.30352
471.31469
470.30267
469.26698
468.20714
467.12269
466.01314
464.87806
463.71703
462.52963
461.31552
460.07436
458.80589
457.50989
456.18617
454.83465
453.45526
452.04805
450.61318
495.75711
495.3746
494.95829
494.50937
494.03121
493.52491
492.99229
492.43473
491.85346
491.24969
490.62438
489.9784
489.31249
488.62725
487.92321
487.20075
486.46019
485.70174
484.92553
484.13162
483.31997
482.4905
481.64304
480.77738
479.89323
478.99028
478.06814
477.12642
476.16466
475.18239
474.1791
473.15429
472.10741
471.03793
469.94531
468.82903
467.68855
466.52338
465.33303
464.11706
462.87506
461.60665
460.31152
458.98938
457.64003
456.26332
454.85915
453.42746
499.44868
498.96203
498.44541
497.90049
497.32948
496.7339
496.11528
495.47492
494.81397
494.13345
493.43424
492.71711
491.98267
491.23143
490.46382
489.68014
488.8806
488.06534
487.23439
486.38773
485.52525
484.64677
483.75207
482.84086
481.91277
480.96742
480.00437
479.02314
478.02323
477.00408
475.96513
474.90582
473.82555
472.72371
471.59973
470.453
469.28296
468.08904
466.87071
465.62748
464.35888
463.06449
461.74394
460.39691
459.02316
457.62248
456.19476
454.73998
502.99225
502.40359
501.78889
501.14982
500.48819
499.80549
499.10308
498.38215
497.6437
496.88865
496.11775
495.33163
494.53083
493.71574
492.88667
492.04384
491.18738
490.31731
489.4336
488.53613
487.62471
486.6991
485.75899
484.80401
483.83374
482.84771
481.84542
480.82633
479.78986
478.73541
477.66236
476.57006
475.45787
474.32513
473.1712
471.99543
470.79719
469.57587
468.33089
467.0617
465.76778
464.44868
463.10397
461.73329
460.33635
458.91292
457.46284
455.98607
506.38495
505.6967
504.98637
504.25553
503.50574
502.73838
501.95465
501.15558
500.34207
499.51489
498.67467
497.82192
496.95705
496.08037
495.19209
494.2923
493.38105
492.45829
491.52387
490.57761
489.61923
488.64841
487.66476
486.66785
485.65719
484.63223
483.59242
482.53713
481.46574
480.37758
479.27197
478.14821
477.00559
475.84341
474.66096
473.45754
472.23247
470.98509
469.71477
468.42092
467.10296
465.7604
464.39276
462.99966
461.58074
460.13574
458.66447
457.16685
509.62504
508.83991
508.0367
507.21678
506.38156
505.53223
504.66985
503.79529
502.90932
502.01257
501.10555
500.18864
499.26215
498.32626
497.38107
496.42661
495.4628
494.4895
493.5065
492.51351
491.51018
490.49612
489.47085
488.43388
487.38464
486.32252
485.2469
484.15711
483.05244
481.93217
480.79556
479.64185
478.47029
477.28011
476.07056
474.84088
473.59034
472.31824
471.02389
469.70665
468.36591
467.00112
465.61178
464.19744
462.75772
461.29232
459.80101
458.28366
512.71182
511.83284
510.93973
510.03371
509.11598
508.18758
507.24938
506.30213
505.34645
504.38282
503.41163
502.43314
501.44753
500.45489
499.45521
498.4484
497.43431
496.4127
495.38327
494.34565
493.29942
492.24409
491.17914
490.10398
489.01799
487.9205
486.81081
485.68818
484.55187
483.40108
482.23502
481.05288
479.85385
478.63712
477.40186
476.14729
474.87262
473.5771
472.26001
470.92064
469.55836
468.17256
466.7627
465.3283
463.86894
462.38428
460.87404
459.33807
515.64558
514.67601
513.69622
512.70725
511.71012
510.70568
509.69466
508.67765
507.6551
506.62738
505.59473
504.55731
503.51517
502.46829
501.41655
500.35978
499.29772
498.23004
497.15636
496.07623
494.98915
493.89456
492.79186
491.6804
490.55948
489.42838
488.28634
487.13255
485.96622
484.78649
483.59252
482.38345
481.15841
479.91653
478.65695
477.37884
476.08136
474.76371
473.42512
472.06486
470.68224
469.27662
467.84741
466.3941
464.91622
463.4134
461.88533
460.33182
518.42747
517.37076
516.30769
515.23908
514.16579
513.08848
512.00772
510.92394
509.83747
508.74851
507.65718
506.56353
505.46747
504.36889
503.26757
502.16323
501.05552
499.94403
498.82829
497.70777
496.58189
495.45003
494.31151
493.16561
492.01159
490.84864
489.67595
488.49267
487.29792
486.09081
484.87045
483.63591
482.38628
481.12065
479.83811
478.53777
477.21877
475.88024
474.52139
473.14144
471.73966
470.31537
468.86795
467.39683
465.90153
464.38162
462.83679
461.26677
521.05939
519.91916
518.77632
517.6315
516.48538
515.33845
514.19111
513.04364
511.89622
510.74892
509.60173
508.45455
507.30723
506.15951
505.01109
503.86158
502.71054
501.55749
500.40186
499.24306
498.08042
496.91327
495.74084
494.56236
493.37702
492.18396
490.9823
489.77114
488.54956
487.3166
486.07132
484.81276
483.53995
482.25193
480.94775
479.62647
478.28719
476.92902
475.5511
474.15263
472.73283
471.29099
469.82645
468.33861
466.82694
465.291
463.73042
462.1449
523.54386
522.32389
521.10487
519.88735
518.6718
517.45855
516.24784
515.03978
513.83442
512.63169
511.43145
510.23349
509.03754
507.84324
506.65017
505.45788
504.26583
503.07345
501.88009
500.68509
499.48772
498.28721
497.08276
495.87353
494.65863
493.43716
492.20818
490.97075
489.72387
488.46656
487.19782
485.91664
484.622
483.31292
481.98838
480.64742
479.28909
477.91246
476.51663
475.10076
473.66405
472.20574
470.72515
469.22164
467.69464
466.14367
464.56832
462.96827
525.88402
524.58813
523.29659
522.00991
520.72836
519.45213
518.18126
516.91574
515.65545
514.40019
513.14972
511.9037
510.66174
509.42339
508.18814
506.95543
505.72465
504.49513
503.26618
502.03703
500.8069
499.57496
498.34034
497.10212
495.85939
494.61118
493.3565
492.09434
490.82368
489.54348
488.25269
486.95025
485.63512
484.30625
482.96261
481.60319
480.22698
478.83303
477.42041
475.98825
474.53569
473.06197
471.56635
470.04817
468.50682
466.94179
465.35263
463.73899
532.23405
530.84328
529.45954
528.08378
526.7155
525.35511
524.00283
522.65874
521.32285
519.99505
518.67516
517.36294
516.05806
514.76014
513.46875
512.18337
510.90347
509.62845
508.35765
507.09038
505.8259
504.56343
503.30215
502.04121
500.7797
499.51671
498.25126
496.98238
495.70905
494.43023
493.14487
491.85189
490.5502
489.23873
487.91637
486.58203
485.23463
483.87309
482.49636
481.10342
479.69327
478.26494
476.81753
475.35016
473.86202
472.35236
470.82049
469.26576
467.6876
466.08555
464.45919
534.52439
533.05402
531.59473
530.14673
528.70992
527.28437
525.87006
524.46687
523.07463
521.69309
520.32192
518.96073
517.60908
516.26647
514.93235
513.60612
512.28713
510.9747
509.66808
508.36652
507.06919
505.77525
504.4838
503.19393
501.90469
500.61508
499.3241
498.03071
496.73383
495.4324
494.1253
492.81141
491.48962
490.15879
488.81779
487.46548
486.10074
484.72247
483.32958
481.921
480.49571
479.05271
477.59106
476.10986
474.60828
473.08553
471.5409
469.97371
468.38333
466.76924
465.13102
536.66968
535.12398
533.59314
532.07707
530.57561
529.08858
527.61578
526.1569
524.7116
523.27947
521.86005
520.45282
519.0572
517.6726
516.29835
514.93376
513.57809
512.23056
510.89036
509.55664
508.22852
506.90509
505.58539
504.26843
502.95322
501.63871
500.32384
499.00751
497.68862
496.36604
495.03862
493.70521
492.36463
491.01572
489.65731
488.28823
486.90731
485.51343
484.10545
482.68229
481.24289
479.78621
478.3113
476.81722
475.30312
473.76819
472.2117
470.63294
469.03121
467.40592
465.75663
538.67444
537.05769
535.45942
533.87929
532.31699
530.77215
529.24435
527.73314
526.23801
524.7584
523.2937
521.84328
520.40645
518.9825
517.57065
516.17014
514.78012
513.39975
512.02813
510.66434
509.30744
507.95644
506.61033
505.26807
503.9286
502.59084
501.25366
499.91593
498.5765
497.23419
495.88783
494.5362
493.17812
491.81236
490.43773
489.05302
487.65704
486.24862
484.8266
483.38987
481.93733
480.46793
478.98068
477.47463
475.94889
474.40265
472.83516
471.24569
469.63348
467.99775
466.33816
540.54349
538.85994
537.19831
535.55806
533.93868
532.33961
530.76027
529.20003
527.65822
526.13416
524.62709
523.13628
521.66091
520.20017
518.7532
517.31913
515.89704
514.48601
513.08507
511.69323
510.30947
508.93277
507.56204
506.1962
504.83413
503.4747
502.11675
500.75909
499.40054
498.03988
496.67588
495.30731
493.93294
492.55151
491.1618
489.76257
488.35259
486.93066
485.4956
484.04627
482.58153
481.10032
479.60162
478.08444
476.54791
474.99118
473.41351
471.81421
470.19235
468.54684
466.87766
542.28183
540.53567
538.8147
537.11818
535.4454
533.79563
532.16811
530.56205
528.97666
527.41109
525.86449
524.33599
522.82468
521.32965
519.84995
518.38461
516.93266
515.49308
514.06484
512.64689
511.23815
509.83753
508.44391
507.05614
505.67307
504.29351
502.91625
501.54008
500.16377
498.78606
497.40569
496.0214
494.63191
493.23595
491.83225
490.41954
488.99658
487.56213
486.11499
484.65397
483.17794
481.68578
480.17647
478.649
477.10246
475.53601
473.94894
472.3407
543.89459
542.08994
540.31357
538.56454
536.84195
535.1449
533.47247
531.82374
530.19775
528.59355
527.01016
525.4466
523.90187
522.37495
520.86482
519.37044
517.89074
516.42465
514.97106
513.52888
512.09696
510.67415
509.25929
507.85119
506.44864
505.05041
503.65526
502.26194
500.86917
499.47567
498.08014
496.68129
495.2778
493.86839
492.45174
491.02657
489.5916
488.14557
486.68724
485.21542
483.72894
482.22668
480.70756
479.17057
477.61478
476.03934
474.44354
545.387
543.52788
541.69995
539.90206
538.13315
536.39215
534.678
532.98962
531.32593
529.68587
528.06833
526.47225
524.89652
523.34005
521.80172
520.28042
518.77502
517.28437
515.80731
514.34269
512.88931
511.44598
510.01147
508.58455
507.16398
505.7485
504.33681
502.92763
501.51965
500.11156
498.70202
497.28972
495.87332
494.45148
493.02288
491.5862
490.14015
488.68343
487.21479
485.73301
484.23689
482.7253
481.19714
479.65137
478.08704
476.50328
474.89923
546.76431
544.85464
542.97887
541.13567
539.32382
537.54209
535.78929
534.06419
532.36561
530.69235
529.04323
527.41706
525.81267
524.22887
522.66448
521.11831
519.58916
518.07583
516.5771
515.09176
513.61858
512.15629
510.70366
509.25939
507.8222
506.3908
504.96386
503.54006
502.11806
500.69652
499.27409
497.84939
496.42108
494.9878
493.5482
492.10093
490.64467
489.17812
487.69999
486.20904
484.70406
483.18388
481.6474
480.09356
478.52137
476.92994
475.31832
548.0318
546.07536
544.15535
542.27027
540.41874
538.59939
536.81088
535.05189
533.3211
531.61722
529.93897
528.28506
526.65425
525.04527
523.45686
521.88777
520.33675
518.80253
517.28385
515.77945
514.28803
512.80831
511.33899
509.87876
508.42629
506.98025
505.53929
504.10205
502.66717
501.23327
499.79898
498.3629
496.92366
495.47987
494.03016
492.57316
491.10754
489.63195
488.14512
486.64576
485.13264
483.60459
482.06048
480.49923
478.91984
477.32136
475.70283
549.19468
547.19516
545.23438
543.31071
541.42263
539.56864
537.74728
535.9571
534.19669
532.46465
530.75961
529.08021
527.42511
525.79299
524.18252
522.59239
521.02129
519.4679
517.93091
516.409
514.90086
513.40515
511.92053
510.44566
508.97917
507.51971
506.0659
504.61634
503.16966
501.72444
500.27928
498.83277
497.38351
495.9301
494.47114
493.00524
491.53104
490.0472
488.55239
487.04533
485.52477
483.98952
482.43843
480.8704
479.28442
477.67951
476.05468
550.25815
548.21908
546.22085
544.26175
542.34013
540.45437
538.60287
536.7841
534.99653
533.23869
531.5091
529.80635
528.12902
526.47571
524.84505
523.23566
521.64618
520.07525
518.5215
516.98359
515.46015
513.94982
512.45121
510.96296
509.48367
508.01194
506.54639
505.08558
503.62811
502.17255
500.71747
499.26144
497.80304
496.34084
494.87343
493.39941
491.91739
490.42601
488.92393
487.40985
485.88251
484.34069
482.78323
481.20903
479.61703
478.00626
476.3757
551.22733
549.15207
547.11957
545.12807
543.17578
541.26098
539.38196
537.53707
535.7247
533.9433
532.19131
530.46725
528.76963
527.09699
525.44791
523.82096
522.21472
520.62779
519.05878
517.50629
515.96891
514.44525
512.9339
511.43346
509.9425
508.45961
506.98336
505.51231
504.04502
502.58005
501.11594
499.65125
498.18454
496.71435
495.23926
493.75785
492.26871
490.77048
489.26179
487.74133
486.20782
484.66003
483.09679
481.51697
479.91951
478.30343
476.66768
563.40236
561.03475
558.72391
556.46722
554.26229
552.10738
549.99898
547.93523
545.91422
543.93401
541.99278
540.0887
538.22006
536.38514
534.58231
532.80996
531.06653
529.35047
527.66027
525.99446
524.35155
522.7301
521.12865
519.54577
517.98004
516.43001
514.89425
513.37134
511.85984
510.35831
508.86529
507.37934
505.899
504.42281
502.9493
501.47701
500.00447
498.53022
497.05279
495.57074
494.08263
492.58705
491.08261
489.56794
488.0417
486.50261
484.94942
483.38094
481.79604
480.19364
478.57275
476.9323
564.3788
561.97046
559.62141
557.32881
555.09012
552.90299
550.7645
548.67241
546.62463
544.61913
542.65394
540.72718
538.83701
536.98168
535.15945
533.36867
531.6077
529.87496
528.16888
526.48793
524.8306
523.19538
521.58081
519.9854
518.40769
516.84623
515.29955
513.76619
512.2447
510.7336
509.23144
507.73673
506.248
504.76377
503.28256
501.80289
500.32326
498.8422
497.35824
495.86991
494.37577
492.87438
491.36433
489.84426
488.31281
486.76868
485.21062
483.63743
482.04794
480.4411
478.81587
477.17121
565.25786
562.81275
560.42917
558.10413
555.8349
553.61885
551.4532
549.33553
547.26361
545.23529
543.24851
541.30129
539.39174
537.518
535.67831
533.87092
532.09417
530.34641
528.62603
526.93145
525.26113
523.61353
521.98714
520.38046
518.79199
517.22024
515.66373
514.12098
512.5905
511.07081
509.56042
508.05784
506.56158
505.07013
503.582
502.09568
500.60969
499.12252
497.63269
496.13872
494.63916
493.13255
491.61748
490.09256
488.55644
487.00779
485.44536
483.86793
482.27434
480.6635
479.0344
477.38595
566.04503
563.56687
561.15229
558.79812
556.50145
554.25951
552.0695
549.92888
547.83531
545.78652
543.78038
541.81483
539.8879
537.99768
536.14233
534.32008
532.52919
530.76797
529.03478
527.32801
525.64607
523.98738
522.35042
520.73365
519.13554
517.5546
515.9893
514.43814
512.89963
511.37226
509.85452
508.3449
506.84189
505.34399
503.84967
502.35743
500.86575
499.37312
497.87805
496.37905
494.87464
493.36337
491.84382
490.31457
488.77427
487.2216
485.65526
484.07405
482.4768
480.8624
479.22984
477.57801
566.7456
564.23795
561.7957
559.41554
557.09441
554.8294
552.61768
550.4566
548.34372
546.2767
544.25331
542.27143
540.32903
538.42413
536.55485
534.71935
532.91588
531.14269
529.39811
527.68048
525.9882
524.31966
522.67329
521.04755
519.44088
517.85175
516.27863
514.72001
513.17436
511.64016
510.11588
508.60001
507.09102
505.58738
504.08757
502.59006
501.09333
499.59586
498.09613
496.59266
495.08395
493.56855
492.04502
490.51193
488.96793
487.41168
485.84189
484.25732
482.65682
481.03927
479.40364
477.74882
567.36471
564.83093
562.36417
559.96099
557.6182
555.33279
553.10185
550.92268
548.79272
546.70956
544.67092
542.6746
540.71851
538.80063
536.91903
535.07184
533.25724
531.47348
529.71883
527.99162
526.2902
524.61295
522.95828
521.32462
519.71038
518.11403
516.53402
514.96881
513.41685
511.87662
510.34659
508.8252
507.31093
505.80223
504.29758
502.79542
501.29424
499.7925
498.28867
496.78126
495.26877
493.74972
492.22268
490.68621
489.13895
487.57955
486.00671
484.4192
482.81583
481.19551
479.55718
477.89974
567.90731
565.35057
562.86228
560.43889
558.07709
555.77378
553.52599
551.33093
549.18599
547.08868
545.03666
543.02768
541.05959
539.13034
537.23794
535.3805
533.55615
531.76312
529.99965
528.26404
526.55462
524.86975
523.20781
521.56721
519.94635
518.34368
516.75763
515.18665
513.62918
512.08368
510.5486
509.02239
507.5035
505.99038
504.48149
502.97528
501.4702
499.96472
498.45731
496.94646
495.43066
493.90843
492.37832
490.83891
489.2888
487.72664
486.15114
484.56106
482.9552
481.33245
479.69176
478.03204
568.37814
565.80144
563.29445
560.85349
558.47518
556.15632
553.89389
551.68503
549.52708
547.41748
545.35385
543.33387
541.35537
539.41625
537.51448
535.64814
533.81534
532.01427
530.24315
528.50026
526.78391
525.09242
523.42418
521.77756
520.15097
518.54282
516.95154
515.37556
513.81331
512.26325
510.7238
509.19341
507.67052
506.15357
504.64102
503.13129
501.62285
500.11414
498.60363
497.0898
495.57114
494.04616
492.5134
490.97143
489.41886
487.85433
486.27653
484.68422
483.0762
481.45136
479.80865
478.14695
568.7818
566.18795
563.6649
561.20886
558.81638
556.48418
554.20919
551.98849
549.81937
547.69924
545.62565
543.59625
541.60882
539.66123
537.75143
535.87747
534.03743
532.22946
530.45179
528.70266
526.98036
525.28322
523.60958
521.95781
520.32631
518.71347
517.11771
515.53745
513.97112
512.41715
510.87396
509.34
507.81369
506.29347