/*--------------------------------*- C++ -*----------------------------------*\
| =========                 |                                                 |
| \\      /  F ield         | OpenFOAM: The Open Source CFD Toolbox           |
|  \\    /   O peration     | Version:  2312                                  |
|   \\  /    A nd           | Website:  www.openfoam.com                      |
|    \\/     M anipulation  |                                                 |
\*---------------------------------------------------------------------------*/
FoamFile
{
    version     2.0;
    format      ascii;
    arch        "LSB;label=32;scalar=64";
    class       volVectorField;
    location    "0.08";
    object      U;
}
// * * * * * * * * * * * * * * * * * * * * * * * * * * * * * * * * * * * * * //

dimensions      [0 1 -1 0 0 0 0];

internalField   nonuniform List<vector> 
3272
(
(1.1297124 -0.65186793 0)
(1.1317219 -0.67157761 0)
(1.1334758 -0.69109246 0)
(1.1350061 -0.71038552 0)
(1.136287 -0.72943236 0)
(1.1372982 -0.74821502 0)
(1.1380253 -0.76671678 0)
(1.1384553 -0.78492235 0)
(1.1385763 -0.80281747 0)
(1.1383775 -0.8203886 0)
(1.1378494 -0.83762284 0)
(1.1369834 -0.85450775 0)
(1.1357719 -0.87103133 0)
(1.1342084 -0.88718196 0)
(1.1322874 -0.90294836 0)
(1.1300042 -0.91831954 0)
(1.1273552 -0.93328484 0)
(1.1243375 -0.94783384 0)
(1.1209494 -0.96195641 0)
(1.1171902 -0.9756425 0)
(1.1130598 -0.98888191 0)
(1.1085557 -1.0016649 0)
(1.1036765 -1.0139855 0)
(1.0984289 -1.0258381 0)
(1.0928202 -1.0372126 0)
(1.086854 -1.0480994 0)
(1.0805331 -1.0584897 0)
(1.073861 -1.0683768 0)
(1.0668437 -1.0777543 0)
(1.0594886 -1.086616 0)
(1.0518031 -1.0949552 0)
(1.0437935 -1.1027663 0)
(1.0354669 -1.1100457 0)
(1.026835 -1.1167897 0)
(1.0179088 -1.1229922 0)
(1.0086934 -1.1286488 0)
(0.99919709 -1.1337599 0)
(0.98943336 -1.1383244 0)
(0.97941415 -1.1423407 0)
(0.9691507 -1.145808 0)
(0.95865458 -1.1487263 0)
(0.94793775 -1.1510966 0)
(0.93701245 -1.1529203 0)
(0.92589117 -1.1542 0)
(0.91458658 -1.1549386 0)
(0.90311154 -1.1551401 0)
(0.89147899 -1.1548088 0)
(0.87970184 -1.1539502 0)
(0.8677928 -1.1525705 0)
(0.85576406 -1.1506771 0)
(0.84362358 -1.1482781 0)
(0.83138385 -1.1453876 0)
(0.81910008 -1.1420203 0)
(1.1381982 -0.62413522 0)
(1.1403371 -0.64348018 0)
(1.1421929 -0.66258413 0)
(1.1438113 -0.68143252 0)
(1.1451702 -0.70000972 0)
(1.146249 -0.7183008 0)
(1.1470332 -0.73629167 0)
(1.1475093 -0.75396919 0)
(1.1476652 -0.77132103 0)
(1.1474903 -0.78833556 0)
(1.1469754 -0.80500173 0)
(1.1461121 -0.82130896 0)
(1.1448934 -0.83724708 0)
(1.1433132 -0.85280628 0)
(1.1413662 -0.86797704 0)
(1.1390484 -0.88275016 0)
(1.1363565 -0.89711667 0)
(1.1332882 -0.91106786 0)
(1.1298421 -0.92459523 0)
(1.1260179 -0.93769052 0)
(1.121816 -0.95034593 0)
(1.1172342 -0.96255444 0)
(1.1122714 -0.97430871 0)
(1.1069349 -0.98560215 0)
(1.1012329 -0.99642738 0)
(1.0951685 -1.0067773 0)
(1.0887446 -1.0166455 0)
(1.0819653 -1.0260261 0)
(1.0748372 -1.0349135 0)
(1.0673684 -1.043302 0)
(1.059566 -1.0511865 0)
(1.0514358 -1.058563 0)
(1.0429858 -1.0654279 0)
(1.0342288 -1.071777 0)
(1.0251752 -1.0776072 0)
(1.0158299 -1.0829164 0)
(1.0062018 -1.0877034 0)
(0.99630506 -1.0919667 0)
(0.9861516 -1.0957057 0)
(0.97575277 -1.0989204 0)
(0.96512032 -1.1016112 0)
(0.95426636 -1.1037796 0)
(0.94320335 -1.1054273 0)
(0.93194395 -1.106557 0)
(0.92050104 -1.1071719 0)
(0.90888764 -1.1072761 0)
(0.89711692 -1.106874 0)
(0.88520204 -1.1059711 0)
(0.87315611 -1.1045732 0)
(0.86099231 -1.1026869 0)
(0.84871877 -1.1003189 0)
(0.83633865 -1.097477 0)
(0.82390198 -1.0941752 0)
(1.1541856 -0.60703946 0)
(1.1565066 -0.62612197 0)
(1.1585213 -0.64494235 0)
(1.1602763 -0.66348651 0)
(1.1617507 -0.68174094 0)
(1.1629248 -0.69969267 0)
(1.1637842 -0.71732945 0)
(1.164316 -0.73463977 0)
(1.1645087 -0.75161276 0)
(1.1643521 -0.76823818 0)
(1.1638376 -0.78450628 0)
(1.1629576 -0.80040781 0)
(1.1617058 -0.81593385 0)
(1.1600767 -0.83107586 0)
(1.1580661 -0.84582557 0)
(1.1556706 -0.86017499 0)
(1.1528877 -0.87411636 0)
(1.1497159 -0.88764216 0)
(1.1461544 -0.90074502 0)
(1.1422036 -0.91341775 0)
(1.1378634 -0.92565366 0)
(1.1331337 -0.93744784 0)
(1.1280149 -0.94879321 0)
(1.1225143 -0.95968237 0)
(1.1166403 -0.97010958 0)
(1.1103963 -0.98006904 0)
(1.1037855 -0.98955569 0)
(1.0968131 -0.99856432 0)
(1.0894865 -1.0070899 0)
(1.0818142 -1.0151275 0)
(1.073803 -1.0226732 0)
(1.0654593 -1.0297238 0)
(1.0567928 -1.0362756 0)
(1.0478156 -1.0423246 0)
(1.0385376 -1.0478689 0)
(1.0289646 -1.0529082 0)
(1.019107 -1.0574403 0)
(1.0089787 -1.0614641 0)
(0.99859193 -1.0649793 0)
(0.98795812 -1.0679865 0)
(0.97708938 -1.0704863 0)
(0.9659981 -1.0724805 0)
(0.954697 -1.0739712 0)
(0.94319898 -1.0749611 0)
(0.93151719 -1.0754538 0)
(0.91966493 -1.0754532 0)
(0.9076556 -1.0749642 0)
(0.89550261 -1.073992 0)
(0.88321928 -1.0725426 0)
(0.87081889 -1.0706227 0)
(0.85831003 -1.0682395 0)
(0.84569568 -1.0654006 0)
(0.83302271 -1.0621148 0)
(1.1770306 -0.591713 0)
(1.1795713 -0.61052323 0)
(1.1817767 -0.62905061 0)
(1.1836924 -0.6472821 0)
(1.1852981 -0.66520576 0)
(1.1865751 -0.68281029 0)
(1.1875101 -0.70008512 0)
(1.1880909 -0.71702028 0)
(1.1883069 -0.73360642 0)
(1.188149 -0.7498347 0)
(1.1876094 -0.76569678 0)
(1.1866817 -0.78118471 0)
(1.1853605 -0.79629091 0)
(1.1836415 -0.81100811 0)
(1.1815215 -0.8253293 0)
(1.178998 -0.83924774 0)
(1.1760698 -0.85275687 0)
(1.1727363 -0.86585034 0)
(1.1689981 -0.87852192 0)
(1.1648562 -0.89076561 0)
(1.1603097 -0.90257612 0)
(1.1553598 -0.91394875 0)
(1.1500117 -0.92487832 0)
(1.1442722 -0.93535698 0)
(1.1381486 -0.94538018 0)
(1.1316451 -0.95494358 0)
(1.1247658 -0.96404293 0)
(1.1175172 -0.97267376 0)
(1.1099075 -0.98083163 0)
(1.1019455 -0.98851247 0)
(1.0936381 -0.99571343 0)
(1.0849924 -1.0024317 0)
(1.0760206 -1.0086637 0)
(1.0667347 -1.0144066 0)
(1.0571415 -1.0196591 0)
(1.0472492 -1.0244214 0)
(1.0370708 -1.0286914 0)
(1.0266197 -1.0324684 0)
(1.0159078 -1.0357524 0)
(1.0049471 -1.0385443 0)
(0.99375 -1.0408452 0)
(0.98232936 -1.042657 0)
(0.97069818 -1.043982 0)
(0.95886971 -1.0448233 0)
(0.94685741 -1.0451844 0)
(0.93467489 -1.0450695 0)
(0.9223359 -1.0444835 0)
(0.90985416 -1.0434315 0)
(0.89724333 -1.0419197 0)
(0.88451697 -1.0399545 0)
(0.87168402 -1.037543 0)
(0.85874721 -1.0346926 0)
(0.84575174 -1.0314122 0)
(1.2061687 -0.57810884 0)
(1.2089479 -0.59662895 0)
(1.2113559 -0.61484519 0)
(1.2134372 -0.63274608 0)
(1.2151724 -0.65032139 0)
(1.2165439 -0.66756148 0)
(1.2175398 -0.68445742 0)
(1.2181491 -0.70100086 0)
(1.2183626 -0.71718397 0)
(1.2181724 -0.73299939 0)
(1.2175721 -0.74844018 0)
(1.2165565 -0.76349978 0)
(1.2151217 -0.77817195 0)
(1.2132646 -0.7924507 0)
(1.2109835 -0.80633032 0)
(1.2082772 -0.81980528 0)
(1.2051456 -0.83287025 0)
(1.2015896 -0.84552003 0)
(1.1976109 -0.85774941 0)
(1.1932108 -0.86955347 0)
(1.18839 -0.88092912 0)
(1.1831509 -0.89187141 0)
(1.1775015 -0.90237489 0)
(1.1714501 -0.91243414 0)
(1.165002 -0.922045 0)
(1.1581623 -0.93120438 0)
(1.150937 -0.93990869 0)
(1.1433339 -0.94815408 0)
(1.1353623 -0.95593655 0)
(1.1270304 -0.96325331 0)
(1.1183456 -0.97010248 0)
(1.1093177 -0.97648106 0)
(1.0999591 -0.98238531 0)
(1.0902807 -0.98781424 0)
(1.0802896 -0.99276821 0)
(1.0699962 -0.9972459 0)
(1.0594149 -1.0012458 0)
(1.0485582 -1.0047677 0)
(1.0374386 -1.0078122 0)
(1.0260685 -1.0103804 0)
(1.0144607 -1.0124736 0)
(1.0026286 -1.0140939 0)
(0.99058542 -1.0152439 0)
(0.97834488 -1.0159268 0)
(0.9659208 -1.0161463 0)
(0.95332717 -1.0159066 0)
(0.94057809 -1.0152126 0)
(0.9276877 -1.0140696 0)
(0.91466999 -1.0124836 0)
(0.90153892 -1.0104609 0)
(0.88830383 -1.0080086 0)
(0.87496729 -1.0051341 0)
(0.86157248 -1.0018458 0)
(1.2410918 -0.56630339 0)
(1.2441091 -0.58450826 0)
(1.246713 -0.60238856 0)
(1.2489471 -0.61993464 0)
(1.2507931 -0.63713804 0)
(1.2522353 -0.6539909 0)
(1.2532631 -0.67048597 0)
(1.2538673 -0.68661655 0)
(1.2540403 -0.70237639 0)
(1.2537759 -0.71775962 0)
(1.2530693 -0.73276078 0)
(1.251917 -0.74737468 0)
(1.2503166 -0.76159643 0)
(1.2482667 -0.77542134 0)
(1.2457671 -0.78884494 0)
(1.2428181 -0.80186292 0)
(1.2394213 -0.81447112 0)
(1.2355791 -0.82666551 0)
(1.2312947 -0.83844218 0)
(1.226569 -0.84979757 0)
(1.2214039 -0.86072871 0)
(1.2158073 -0.87123193 0)
(1.2097876 -0.88130129 0)
(1.203352 -0.89093356 0)
(1.1965067 -0.90012564 0)
(1.1892577 -0.90887491 0)
(1.181613 -0.91717832 0)
(1.1735821 -0.9250325 0)
(1.165174 -0.93243441 0)
(1.1563965 -0.93938255 0)
(1.1472595 -0.94587549 0)
(1.1377756 -0.95190958 0)
(1.1279559 -0.95748173 0)
(1.1178087 -0.96259291 0)
(1.107344 -0.96724371 0)
(1.0965755 -0.97143196 0)
(1.0855167 -0.97515699 0)
(1.0741803 -0.97841911 0)
(1.0625789 -0.98121912 0)
(1.0507256 -0.98355827 0)
(1.0386339 -0.98543828 0)
(1.0263172 -0.98686136 0)
(1.0137895 -0.98783028 0)
(1.0010647 -0.98834831 0)
(0.98815723 -0.98841927 0)
(0.97508135 -0.98804747 0)
(0.9618516 -0.98723776 0)
(0.94848253 -0.9859955 0)
(0.93498854 -0.98432654 0)
(0.92138392 -0.98223723 0)
(0.90767845 -0.97973454 0)
(0.89387462 -0.97682583 0)
(0.88001368 -0.97351937 0)
(1.2813385 -0.55619047 0)
(1.2845748 -0.57404715 0)
(1.2873503 -0.59155939 0)
(1.2897079 -0.60871947 0)
(1.2916308 -0.62552086 0)
(1.2931051 -0.64195753 0)
(1.2941226 -0.65802402 0)
(1.2946759 -0.6737153 0)
(1.2947593 -0.68902672 0)
(1.2943687 -0.70395399 0)
(1.2935012 -0.71849308 0)
(1.2921552 -0.73264022 0)
(1.2903302 -0.74639184 0)
(1.2880268 -0.75974454 0)
(1.2852462 -0.77269507 0)
(1.2819908 -0.78524028 0)
(1.2782635 -0.7973771 0)
(1.2740684 -0.80910259 0)
(1.2694096 -0.82041428 0)
(1.2642903 -0.83131053 0)
(1.2587144 -0.8417877 0)
(1.2526918 -0.8518415 0)
(1.2462324 -0.86146864 0)
(1.2393429 -0.87066652 0)
(1.2320302 -0.87943325 0)
(1.2243024 -0.88776647 0)
(1.216169 -0.8956634 0)
(1.2076404 -0.90312131 0)
(1.1987254 -0.91013868 0)
(1.1894322 -0.91671438 0)
(1.1797744 -0.92284637 0)
(1.1697663 -0.92853193 0)
(1.1594155 -0.93377003 0)
(1.1487301 -0.93856178 0)
(1.1377248 -0.94290611 0)
(1.126414 -0.94680187 0)
(1.1148107 -0.95024914 0)
(1.1029277 -0.95324853 0)
(1.0907784 -0.95580104 0)
(1.0783763 -0.9579081 0)
(1.0657354 -0.95957162 0)
(1.0528697 -0.96079398 0)
(1.0397934 -0.96157805 0)
(1.026521 -0.96192719 0)
(1.0130672 -0.96184527 0)
(0.99944683 -0.96133664 0)
(0.98567486 -0.96040609 0)
(0.97176619 -0.95905895 0)
(0.95773562 -0.95730095 0)
(0.94359771 -0.95513843 0)
(0.92936255 -0.95257817 0)
(0.91503277 -0.94962798 0)
(0.90064807 -0.94629746 0)
(1.3264827 -0.54763467 0)
(1.3299017 -0.56510372 0)
(1.3328081 -0.58220969 0)
(1.3352444 -0.598947 0)
(1.3371957 -0.61531112 0)
(1.3386507 -0.63129792 0)
(1.3396033 -0.64690377 0)
(1.3400485 -0.66212536 0)
(1.3399832 -0.67695971 0)
(1.3394052 -0.69140406 0)
(1.3383142 -0.70545584 0)
(1.3367105 -0.71911268 0)
(1.3345958 -0.73237233 0)
(1.3319726 -0.74523262 0)
(1.3288443 -0.75769149 0)
(1.325215 -0.76974688 0)
(1.3210897 -0.78139674 0)
(1.3164736 -0.79263934 0)
(1.3113712 -0.80347383 0)
(1.3057886 -0.81389887 0)
(1.2997351 -0.82391087 0)
(1.2932203 -0.83350598 0)
(1.2862531 -0.84268265 0)
(1.2788415 -0.85143941 0)
(1.2709943 -0.85977467 0)
(1.2627213 -0.86768627 0)
(1.2540337 -0.87517177 0)
(1.2449414 -0.8822298 0)
(1.2354537 -0.88885982 0)
(1.2255818 -0.89506015 0)
(1.2153401 -0.90082786 0)
(1.204742 -0.90616258 0)
(1.1937954 -0.91106587 0)
(1.1825111 -0.91553642 0)
(1.170905 -0.91957279 0)
(1.1589912 -0.92317497 0)
(1.1467831 -0.92634346 0)
(1.134294 -0.92907909 0)
(1.121538 -0.93138302 0)
(1.108529 -0.93325687 0)
(1.0952815 -0.93470266 0)
(1.0818099 -0.93572289 0)
(1.0681289 -0.93632051 0)
(1.0542535 -0.93649893 0)
(1.0401988 -0.93626205 0)
(1.02598 -0.93561416 0)
(1.0116125 -0.93456003 0)
(0.99711179 -0.93310483 0)
(0.98249283 -0.93125423 0)
(0.96777057 -0.92901406 0)
(0.95295483 -0.92639079 0)
(0.93804578 -0.92339923 0)
(0.92309235 -0.92004198 0)
(1.3761247 -0.54049517 0)
(1.3796735 -0.55753219 0)
(1.3826548 -0.57418928 0)
(1.3851108 -0.59046308 0)
(1.3870289 -0.60635112 0)
(1.3884007 -0.62185127 0)
(1.3892228 -0.63696173 0)
(1.3894931 -0.65168096 0)
(1.3892107 -0.6660076 0)
(1.3883764 -0.67994044 0)
(1.386992 -0.69347836 0)
(1.3850604 -0.70662033 0)
(1.3825857 -0.71936537 0)
(1.3795724 -0.7317125 0)
(1.3760261 -0.74366073 0)
(1.3719531 -0.75520898 0)
(1.3673598 -0.76635646 0)
(1.3622521 -0.77710323 0)
(1.3566371 -0.7874488 0)
(1.3505255 -0.79739073 0)
(1.3439278 -0.8069265 0)
(1.3368535 -0.81605448 0)
(1.3293121 -0.8247738 0)
(1.3213133 -0.8330835 0)
(1.3128678 -0.84098195 0)
(1.3039873 -0.84846716 0)
(1.2946829 -0.85553799 0)
(1.2849644 -0.86219431 0)
(1.2748437 -0.86843508 0)
(1.264335 -0.87425773 0)
(1.2534516 -0.8796607 0)
(1.242204 -0.88464571 0)
(1.2306036 -0.88921361 0)
(1.2186652 -0.89336226 0)
(1.2064036 -0.89709104 0)
(1.1938326 -0.90040034 0)
(1.1809662 -0.90329084 0)
(1.1678186 -0.90576353 0)
(1.154404 -0.90781972 0)
(1.1407372 -0.90946114 0)
(1.1268329 -0.91068993 0)
(1.1127061 -0.91150863 0)
(1.0983719 -0.91192026 0)
(1.0838456 -0.91192823 0)
(1.0691428 -0.91153641 0)
(1.0542792 -0.91074909 0)
(1.0392708 -0.90957091 0)
(1.0241332 -0.90800697 0)
(1.0088823 -0.90606264 0)
(0.99353362 -0.9037426 0)
(0.97808634 -0.9010601 0)
(0.96255037 -0.89803608 0)
(0.94700606 -0.89462279 0)
(1.4298828 -0.53462184 0)
(1.4334937 -0.55117902 0)
(1.4364796 -0.56734168 0)
(1.4388831 -0.58310874 0)
(1.4406945 -0.59847987 0)
(1.4419085 -0.61345493 0)
(1.4425248 -0.62803398 0)
(1.4425442 -0.64221722 0)
(1.4419689 -0.6560049 0)
(1.4408024 -0.66939731 0)
(1.4390491 -0.68239473 0)
(1.4367147 -0.69499739 0)
(1.4338055 -0.70720551 0)
(1.4303285 -0.71901917 0)
(1.4262917 -0.73043835 0)
(1.4217031 -0.74146322 0)
(1.4165698 -0.75209482 0)
(1.4109003 -0.76233357 0)
(1.4047063 -0.77217786 0)
(1.398 -0.78162601 0)
(1.390792 -0.79067731 0)
(1.383093 -0.79933135 0)
(1.3749135 -0.80758777 0)
(1.3662657 -0.81544549 0)
(1.3571621 -0.82290286 0)
(1.3476146 -0.82995912 0)
(1.3376338 -0.83661446 0)
(1.3272322 -0.84286822 0)
(1.3164247 -0.84871813 0)
(1.3052252 -0.85416267 0)
(1.2936443 -0.85920343 0)
(1.2816942 -0.86384121 0)
(1.2693908 -0.8680747 0)
(1.2567487 -0.87190304 0)
(1.2437825 -0.87532634 0)
(1.2305062 -0.87834511 0)
(1.2169346 -0.88096013 0)
(1.2030823 -0.88317248 0)
(1.1889643 -0.88498358 0)
(1.1745954 -0.88639521 0)
(1.1599911 -0.88740958 0)
(1.1451665 -0.88802925 0)
(1.1301374 -0.88825724 0)
(1.1149194 -0.88809695 0)
(1.0995285 -0.88755223 0)
(1.0839809 -0.88662731 0)
(1.0682929 -0.88532683 0)
(1.0524807 -0.88365586 0)
(1.0365621 -0.88161981 0)
(1.0205429 -0.87922658 0)
(1.0044115 -0.87649032 0)
(1.4873882 -0.52985747 0)
(1.4909793 -0.54588502 0)
(1.4938868 -0.56150621 0)
(1.4961541 -0.57672226 0)
(1.4977747 -0.591535 0)
(1.4987469 -0.60594625 0)
(1.4990737 -0.6199579 0)
(1.4987591 -0.63357184 0)
(1.4978086 -0.64678989 0)
(1.4962285 -0.65961375 0)
(1.4940264 -0.672045 0)
(1.4912104 -0.68408506 0)
(1.4877895 -0.69573518 0)
(1.4837734 -0.70699644 0)
(1.4791719 -0.71787 0)
(1.4739937 -0.72835793 0)
(1.4682488 -0.73846156 0)
(1.4619505 -0.74818002 0)
(1.455112 -0.75751238 0)
(1.4477456 -0.7664587 0)
(1.4398631 -0.77501938 0)
(1.4314765 -0.78319471 0)
(1.422599 -0.79098403 0)
(1.4132444 -0.79838626 0)
(1.4034257 -0.80540088 0)
(1.3931542 -0.81202846 0)
(1.3824432 -0.8182686 0)
(1.3713083 -0.82411916 0)
(1.3597643 -0.82957873 0)
(1.3478219 -0.83464921 0)
(1.3354939 -0.83933149 0)
(1.3227966 -0.8436241 0)
(1.3097458 -0.84752627 0)
(1.2963559 -0.85103808 0)
(1.2826419 -0.85415989 0)
(1.2686186 -0.85689228 0)
(1.254301 -0.85923609 0)
(1.2397045 -0.86119245 0)
(1.2248442 -0.86276283 0)
(1.2097356 -0.86394905 0)
(1.1943944 -0.86475331 0)
(1.1788363 -0.86517817 0)
(1.1630773 -0.86522661 0)
(1.1471333 -0.86490202 0)
(1.1310208 -0.86420817 0)
(1.1147563 -0.86314926 0)
(1.0983564 -0.86172996 0)
(1.0818376 -0.85995535 0)
(1.0652137 -0.85783107 0)
(1.04849 -0.85536659 0)
(1.0316838 -0.85257005 0)
(1.5482803 -0.5260404 0)
(1.5517571 -0.541488 0)
(1.554492 -0.55652059 0)
(1.5565292 -0.57114169 0)
(1.5578659 -0.58535519 0)
(1.5585044 -0.59916487 0)
(1.558451 -0.61257436 0)
(1.5577136 -0.62558715 0)
(1.5563006 -0.63820651 0)
(1.5542218 -0.65043551 0)
(1.5514876 -0.66227687 0)
(1.5481091 -0.67373303 0)
(1.5440979 -0.68480616 0)
(1.5394659 -0.69549855 0)
(1.5342236 -0.7058133 0)
(1.5283829 -0.71575268 0)
(1.5219588 -0.72531648 0)
(1.5149659 -0.73450448 0)
(1.5074178 -0.74331755 0)
(1.4993276 -0.7517566 0)
(1.4907089 -0.75982269 0)
(1.4815763 -0.76751596 0)
(1.4719449 -0.77483598 0)
(1.4618286 -0.78178212 0)
(1.4512404 -0.78835537 0)
(1.4401939 -0.79455573 0)
(1.4287058 -0.80038107 0)
(1.4167915 -0.80583009 0)
(1.4044623 -0.81090495 0)
(1.3917313 -0.8156067 0)
(1.3786154 -0.81993378 0)
(1.3651309 -0.82388531 0)
(1.3512931 -0.82746136 0)
(1.3371171 -0.8306622 0)
(1.3226182 -0.83348824 0)
(1.3078119 -0.83594008 0)
(1.2927138 -0.8380186 0)
(1.2773393 -0.83972496 0)
(1.2617043 -0.84106061 0)
(1.2458245 -0.84202737 0)
(1.2297159 -0.8426274 0)
(1.2133946 -0.84286322 0)
(1.1968768 -0.84273775 0)
(1.1801789 -0.8422543 0)
(1.1633175 -0.84141657 0)
(1.1463094 -0.84022869 0)
(1.1291714 -0.83869522 0)
(1.1119203 -0.83682119 0)
(1.0945694 -0.83461203 0)
(1.0771229 -0.83207418 0)
(1.0596087 -0.82921464 0)
(1.6122035 -0.52300693 0)
(1.6154609 -0.53782512 0)
(1.6179191 -0.5522232 0)
(1.6196239 -0.56620694 0)
(1.6205764 -0.57978226 0)
(1.6207829 -0.59295469 0)
(1.6202537 -0.60572953 0)
(1.6190001 -0.61811173 0)
(1.6170341 -0.63010594 0)
(1.6143688 -0.64171645 0)
(1.6110177 -0.65294691 0)
(1.6069948 -0.66380057 0)
(1.602314 -0.67428081 0)
(1.5969879 -0.68439187 0)
(1.5910306 -0.69413699 0)
(1.5844588 -0.70351664 0)
(1.5772893 -0.71253127 0)
(1.5695368 -0.72118257 0)
(1.5612161 -0.72947215 0)
(1.552342 -0.73740105 0)
(1.5429301 -0.7449702 0)
(1.5329967 -0.75218055 0)
(1.5225581 -0.75903208 0)
(1.5116286 -0.76552488 0)
(1.5002224 -0.77165901 0)
(1.488357 -0.77743361 0)
(1.4760489 -0.78284721 0)
(1.4633097 -0.78790197 0)
(1.4501531 -0.79259889 0)
(1.4365966 -0.79693644 0)
(1.4226569 -0.80091374 0)
(1.4083497 -0.80453075 0)
(1.3936908 -0.80778764 0)
(1.378696 -0.81068466 0)
(1.363381 -0.8132222 0)
(1.3477617 -0.81540088 0)
(1.3318541 -0.81722156 0)
(1.3156741 -0.81868536 0)
(1.2992377 -0.81979372 0)
(1.2825611 -0.82054838 0)
(1.2656604 -0.82095144 0)
(1.2485521 -0.82100536 0)
(1.2312526 -0.82071294 0)
(1.2137786 -0.82007739 0)
(1.196147 -0.8191023 0)
(1.1783747 -0.81779164 0)
(1.1604788 -0.81614983 0)
(1.1424761 -0.81418167 0)
(1.1243804 -0.81189239 0)
(1.1061963 -0.80928745 0)
(1.0879516 -0.80637247 0)
(1.6788054 -0.5205936 0)
(1.6817291 -0.53473504 0)
(1.6837988 -0.54845521 0)
(1.6850623 -0.56176194 0)
(1.6855248 -0.574663 0)
(1.6851967 -0.5871656 0)
(1.6840924 -0.59927654 0)
(1.6822267 -0.61100203 0)
(1.6796153 -0.62234791 0)
(1.6762746 -0.63331966 0)
(1.6722216 -0.64392159 0)
(1.6674724 -0.65415783 0)
(1.6620419 -0.66403377 0)
(1.655946 -0.67355375 0)
(1.6492042 -0.68271902 0)
(1.641835 -0.69153082 0)
(1.633855 -0.69999149 0)
(1.6252802 -0.70810329 0)
(1.6161278 -0.71586784 0)
(1.6064143 -0.72328604 0)
(1.5961558 -0.73035889 0)
(1.58537 -0.73708841 0)
(1.5740752 -0.74347542 0)
(1.5622873 -0.74951882 0)
(1.5500222 -0.75521614 0)
(1.5372971 -0.76056952 0)
(1.5241262 -0.76558025 0)
(1.5105236 -0.77024877 0)
(1.4965067 -0.77457348 0)
(1.4820924 -0.77855364 0)
(1.4672972 -0.78218912 0)
(1.4521372 -0.78547993 0)
(1.4366288 -0.78842615 0)
(1.4207881 -0.79102797 0)
(1.4046313 -0.79328574 0)
(1.3881747 -0.79520005 0)
(1.3714345 -0.79677167 0)
(1.3544268 -0.79800169 0)
(1.337168 -0.79889146 0)
(1.3196745 -0.79944262 0)
(1.3019627 -0.79965718 0)
(1.2840492 -0.79953747 0)
(1.2659507 -0.79908619 0)
(1.247684 -0.79830639 0)
(1.2292662 -0.79720152 0)
(1.2107145 -0.79577538 0)
(1.1920461 -0.79403218 0)
(1.1732781 -0.79197653 0)
(1.1544244 -0.78961344 0)
(1.1354904 -0.78694807 0)
(1.1165023 -0.78398572 0)
(1.7477356 -0.51863946 0)
(1.7502044 -0.53206019 0)
(1.7517681 -0.54506258 0)
(1.7524766 -0.55765637 0)
(1.7523395 -0.56985101 0)
(1.7513714 -0.58165518 0)
(1.7495909 -0.593077 0)
(1.7470165 -0.60412365 0)
(1.743667 -0.61480185 0)
(1.7395625 -0.62511848 0)
(1.7347231 -0.63507855 0)
(1.7291659 -0.64468735 0)
(1.7229086 -0.65395056 0)
(1.7159728 -0.66287055 0)
(1.7083797 -0.67144938 0)
(1.7001477 -0.67969044 0)
(1.691295 -0.68759607 0)
(1.6818399 -0.695168 0)
(1.6718013 -0.70240838 0)
(1.6611969 -0.70931813 0)
(1.6500429 -0.71589963 0)
(1.6383576 -0.72215366 0)
(1.6261631 -0.72807975 0)
(1.6134792 -0.73367695 0)
(1.6003176 -0.73894637 0)
(1.5866926 -0.74388891 0)
(1.572624 -0.74850553 0)
(1.5581284 -0.75279452 0)
(1.5432222 -0.75675518 0)
(1.5279221 -0.76038725 0)
(1.512245 -0.76369053 0)
(1.4962077 -0.7666649 0)
(1.4798267 -0.76931033 0)
(1.4631186 -0.77162691 0)
(1.4460998 -0.77361494 0)
(1.4287869 -0.77527489 0)
(1.4111962 -0.77660745 0)
(1.3933442 -0.77761358 0)
(1.3752474 -0.77829453 0)
(1.3569223 -0.77865183 0)
(1.3383855 -0.77868735 0)
(1.3196538 -0.77840327 0)
(1.300744 -0.77780213 0)
(1.2816731 -0.77688684 0)
(1.2624585 -0.77566064 0)
(1.2431173 -0.77412715 0)
(1.2236669 -0.77229035 0)
(1.2041245 -0.77015462 0)
(1.1845046 -0.76772478 0)
(1.1648126 -0.76500586 0)
(1.1450733 -0.7620031 0)
(1.8186456 -0.51698821 0)
(1.8205333 -0.52964867 0)
(1.8214697 -0.54189797 0)
(1.8215069 -0.55374754 0)
(1.8206588 -0.56520822 0)
(1.8189446 -0.57628996 0)
(1.8163867 -0.58700214 0)
(1.8130075 -0.59735253 0)
(1.8088284 -0.60734833 0)
(1.8038728 -0.6169978 0)
(1.7981638 -0.62630776 0)
(1.7917208 -0.63528239 0)
(1.7845661 -0.64392574 0)
(1.7767232 -0.65224103 0)
(1.768213 -0.66023246 0)
(1.7590567 -0.66790327 0)
(1.7492749 -0.67525553 0)
(1.7388865 -0.68229031 0)
(1.7279115 -0.68901069 0)
(1.7163678 -0.69541833 0)
(1.7042734 -0.70151508 0)
(1.691651 -0.70729968 0)
(1.6785223 -0.71277062 0)
(1.6649027 -0.71793161 0)
(1.650807 -0.72278438 0)
(1.6362537 -0.72732629 0)
(1.6212612 -0.73155693 0)
(1.6058464 -0.7354761 0)
(1.5900262 -0.73908334 0)
(1.5738176 -0.74237819 0)
(1.5572379 -0.74536025 0)
(1.5403039 -0.74802924 0)
(1.5230326 -0.750385 0)
(1.5054408 -0.75242751 0)
(1.487545 -0.75415693 0)
(1.4693619 -0.75557359 0)
(1.4509081 -0.75667806 0)
(1.4322001 -0.75747117 0)
(1.4132546 -0.757954 0)
(1.3940882 -0.75812793 0)
(1.3747176 -0.75799467 0)
(1.3551596 -0.75755625 0)
(1.3354312 -0.75681502 0)
(1.3155495 -0.75577368 0)
(1.2955319 -0.75443528 0)
(1.2753958 -0.75280322 0)
(1.2551586 -0.75088121 0)
(1.2348377 -0.74867338 0)
(1.2144474 -0.74618426 0)
(1.1939936 -0.74341885 0)
(1.1735 -0.74038224 0)
(1.8911897 -0.51549022 0)
(1.8923674 -0.52735617 0)
(1.8925533 -0.53882243 0)
(1.891802 -0.54990186 0)
(1.8901319 -0.5606063 0)
(1.8875658 -0.57094655 0)
(1.8841307 -0.58093341 0)
(1.879853 -0.59057528 0)
(1.8747557 -0.59988026 0)
(1.8688638 -0.60885619 0)
(1.8622062 -0.61750973 0)
(1.8548065 -0.62584527 0)
(1.8466869 -0.63386693 0)
(1.8378715 -0.64157871 0)
(1.8283839 -0.64898509 0)
(1.8182474 -0.65608876 0)
(1.8074846 -0.66289186 0)
(1.7961145 -0.66939677 0)
(1.7841568 -0.67560558 0)
(1.7716322 -0.68151984 0)
(1.7585615 -0.68713767 0)
(1.7449681 -0.69246135 0)
(1.7308692 -0.69749103 0)
(1.7162821 -0.70222896 0)
(1.7012266 -0.70667391 0)
(1.6857204 -0.71082473 0)
(1.669781 -0.71468104 0)
(1.653426 -0.71824249 0)
(1.6366725 -0.72150842 0)
(1.6195381 -0.72447819 0)
(1.60204 -0.72715121 0)
(1.5841954 -0.72952705 0)
(1.5660212 -0.73160537 0)
(1.5475343 -0.73338598 0)
(1.5287514 -0.73486887 0)
(1.5096893 -0.73605422 0)
(1.4903645 -0.73694242 0)
(1.4707938 -0.73753412 0)
(1.4509937 -0.73783024 0)
(1.4309809 -0.73783198 0)
(1.4107722 -0.73754086 0)
(1.3903844 -0.73695871 0)
(1.3698345 -0.73608771 0)
(1.3491398 -0.73493033 0)
(1.3283177 -0.73348939 0)
(1.3073856 -0.73176805 0)
(1.2863611 -0.72976976 0)
(1.2652615 -0.72749827 0)
(1.2441012 -0.72495759 0)
(1.2228863 -0.72215203 0)
(1.2016394 -0.71908861 0)
(1.9650255 -0.51400429 0)
(1.9653636 -0.52504757 0)
(1.9646763 -0.5357068 0)
(1.9630207 -0.54599609 0)
(1.9604194 -0.55592787 0)
(1.9568987 -0.56551334 0)
(1.9524891 -0.5747645 0)
(1.9472207 -0.58369149 0)
(1.9411198 -0.59230152 0)
(1.934215 -0.60060072 0)
(1.926537 -0.60859567 0)
(1.9181109 -0.61629252 0)
(1.908962 -0.62369575 0)
(1.8991156 -0.63080927 0)
(1.8885963 -0.637636 0)
(1.8774294 -0.64417934 0)
(1.8656377 -0.65044229 0)
(1.8532412 -0.65642736 0)
(1.8402621 -0.66213287 0)
(1.8267242 -0.6675626 0)
(1.8126449 -0.67271498 0)
(1.798046 -0.67759141 0)
(1.7829494 -0.68219321 0)
(1.7673731 -0.68651883 0)
(1.7513362 -0.69056819 0)
(1.7348568 -0.69434079 0)
(1.7179527 -0.69783597 0)
(1.7006416 -0.70105296 0)
(1.6829411 -0.70399087 0)
(1.6648686 -0.70664885 0)
(1.6464416 -0.70902613 0)
(1.6276771 -0.71112204 0)
(1.6085922 -0.71293606 0)
(1.5892037 -0.71446779 0)
(1.5695284 -0.71571701 0)
(1.549583 -0.71668372 0)
(1.5293841 -0.71736811 0)
(1.5089482 -0.71777064 0)
(1.488292 -0.71789201 0)
(1.4674322 -0.71773324 0)
(1.4463853 -0.71729565 0)
(1.4251684 -0.71658084 0)
(1.4037984 -0.71559079 0)
(1.3822925 -0.71432775 0)
(1.3606681 -0.71279433 0)
(1.3389429 -0.71099344 0)
(1.3171345 -0.70892828 0)
(1.2952604 -0.70660228 0)
(1.2733354 -0.70401855 0)
(1.2513631 -0.70118281 0)
(1.2293653 -0.69810939 0)
(2.039816 -0.51239925 0)
(2.0391866 -0.5225983 0)
(2.0375055 -0.53243285 0)
(2.0348324 -0.54191806 0)
(2.0311945 -0.55106705 0)
(2.0266204 -0.55989177 0)
(2.0211428 -0.56840362 0)
(2.0147973 -0.57661232 0)
(2.0076151 -0.58452571 0)
(1.9996248 -0.5921493 0)
(1.9908579 -0.5994901 0)
(1.9813428 -0.60655463 0)
(1.9711062 -0.6133461 0)
(1.9601755 -0.619869 0)
(1.9485764 -0.62612669 0)
(1.9363332 -0.63212165 0)
(1.9234707 -0.63785442 0)
(1.9100139 -0.6433294 0)
(1.8959817 -0.64854547 0)
(1.8813956 -0.6535041 0)
(1.8662792 -0.65820633 0)
(1.8506533 -0.66264968 0)
(1.8345386 -0.66683545 0)
(1.8179542 -0.67076282 0)
(1.8009192 -0.67443138 0)
(1.783452 -0.67784041 0)
(1.7655706 -0.68098896 0)
(1.7472928 -0.68387594 0)
(1.7286363 -0.68650024 0)
(1.7096185 -0.68886076 0)
(1.6902567 -0.69095649 0)
(1.670568 -0.69278655 0)
(1.6505693 -0.69435015 0)
(1.6302772 -0.69564669 0)
(1.6097086 -0.69667572 0)
(1.58888 -0.69743701 0)
(1.5678078 -0.69793054 0)
(1.5465087 -0.69815654 0)
(1.524999 -0.69811553 0)
(1.5032954 -0.69780828 0)
(1.4814144 -0.6972359 0)
(1.4593728 -0.69639979 0)
(1.4371876 -0.69530167 0)
(1.414876 -0.6939436 0)
(1.3924553 -0.69232798 0)
(1.3699432 -0.69045752 0)
(1.3473574 -0.68833534 0)
(1.3247161 -0.68596493 0)
(1.3020321 -0.68335137 0)
(1.2792999 -0.68050361 0)
(2.1152313 -0.51055522 0)
(2.1135099 -0.51989554 0)
(2.1107187 -0.52889478 0)
(2.1069195 -0.53756844 0)
(2.1021429 -0.54593138 0)
(2.0964214 -0.55399453 0)
(2.0897918 -0.56176766 0)
(2.0822912 -0.56925964 0)
(2.0739531 -0.5764802 0)
(2.0648097 -0.58343572 0)
(2.054892 -0.59013098 0)
(2.0442314 -0.59657208 0)
(2.0328565 -0.60276398 0)
(2.0207935 -0.60870929 0)
(2.0080701 -0.61440899 0)
(1.9947154 -0.61986807 0)
(1.9807505 -0.62508637 0)
(1.966198 -0.63006594 0)
(1.9510832 -0.63480883 0)
(1.9354276 -0.63931236 0)
(1.9192535 -0.64357727 0)
(1.9025819 -0.64760254 0)
(1.8854334 -0.65138812 0)
(1.8678273 -0.65493322 0)
(1.8497829 -0.65823695 0)
(1.8313187 -0.66129822 0)
(1.8124526 -0.66411579 0)
(1.7932026 -0.66668829 0)
(1.773586 -0.66901432 0)
(1.7536203 -0.67109255 0)
(1.7333225 -0.6729217 0)
(1.7127095 -0.67450062 0)
(1.6917981 -0.67582828 0)
(1.6706048 -0.67690382 0)
(1.6491461 -0.67772655 0)
(1.6274383 -0.67829601 0)
(1.6054979 -0.67861195 0)
(1.5833412 -0.67867437 0)
(1.5609843 -0.67848356 0)
(1.5384438 -0.67804006 0)
(1.5157362 -0.67734475 0)
(1.492878 -0.67639881 0)
(1.4698861 -0.67520373 0)
(1.4467775 -0.67376136 0)
(1.4235696 -0.67207387 0)
(1.4002798 -0.67014381 0)
(1.3769257 -0.66797421 0)
(1.3535232 -0.66556864 0)
(1.3300823 -0.66293335 0)
(1.3066102 -0.66007698 0)
(2.1909504 -0.50836475 0)
(2.1880177 -0.51683894 0)
(2.184006 -0.5250003 0)
(2.1789774 -0.5328624 0)
(2.1729673 -0.5404402 0)
(2.1660134 -0.54774468 0)
(2.1581533 -0.55478417 0)
(2.149425 -0.56156882 0)
(2.1398643 -0.56810697 0)
(2.1295067 -0.57440448 0)
(2.1183848 -0.58046803 0)
(2.1065281 -0.58630086 0)
(2.0939677 -0.59190553 0)
(2.0807356 -0.59728786 0)
(2.0668551 -0.60244696 0)
(2.0523523 -0.60738593 0)
(2.0372548 -0.61210783 0)
(2.0215853 -0.61661022 0)
(2.0053676 -0.62089424 0)
(1.9886242 -0.62495895 0)
(1.9713768 -0.62880392 0)
(1.9536465 -0.63242818 0)
(1.9354537 -0.63583088 0)
(1.9168178 -0.63901082 0)
(1.8977579 -0.64196668 0)
(1.8782924 -0.644697 0)
(1.8584392 -0.64720016 0)
(1.8382159 -0.64947452 0)
(1.8176398 -0.65151839 0)
(1.796728 -0.65333013 0)
(1.7754973 -0.6549082 0)
(1.7539643 -0.65625116 0)
(1.7321454 -0.65735774 0)
(1.710057 -0.6582268 0)
(1.6877152 -0.65885741 0)
(1.6651362 -0.65924885 0)
(1.6423361 -0.65940063 0)
(1.6193308 -0.65931253 0)
(1.5961366 -0.65898458 0)
(1.5727696 -0.65841712 0)
(1.549246 -0.65761077 0)
(1.5255823 -0.65656649 0)
(1.5017951 -0.65528555 0)
(1.4779014 -0.65376956 0)
(1.4539183 -0.65202046 0)
(1.4298631 -0.6500406 0)
(1.4057529 -0.64783267 0)
(1.3816031 -0.64539972 0)
(1.357422 -0.64274565 0)
(1.3332235 -0.63987824 0)
(2.2666636 -0.50573458 0)
(2.262406 -0.51334331 0)
(2.2570699 -0.5206687 0)
(2.2507192 -0.52772468 0)
(2.2433902 -0.53452383 0)
(2.2351246 -0.54107968 0)
(2.225962 -0.54739748 0)
(2.2159408 -0.55348666 0)
(2.2051001 -0.55935885 0)
(2.1934743 -0.5650155 0)
(2.1810981 -0.57046122 0)
(2.1680067 -0.5757031 0)
(2.1542263 -0.58073984 0)
(2.139787 -0.58557609 0)
(2.1247186 -0.59021477 0)
(2.1090457 -0.59465381 0)
(2.0927949 -0.59889529 0)
(2.0759901 -0.60293836 0)
(2.0586545 -0.6067827 0)
(2.0408107 -0.61042737 0)
(2.0224802 -0.61387127 0)
(2.0036838 -0.61711301 0)
(1.9844415 -0.62015114 0)
(1.9647728 -0.622984 0)
(1.9446962 -0.62560983 0)
(1.92423 -0.62802675 0)
(1.9033917 -0.63023279 0)
(1.8821988 -0.63222595 0)
(1.860668 -0.63400424 0)
(1.8388161 -0.63556573 0)
(1.8166595 -0.63690858 0)
(1.7942146 -0.63803107 0)
(1.7714972 -0.63893164 0)
(1.7485235 -0.63960891 0)
(1.7253092 -0.64006167 0)
(1.7018701 -0.64028897 0)
(1.6782221 -0.64029006 0)
(1.6543807 -0.64006448 0)
(1.6303619 -0.63961204 0)
(1.6061815 -0.63893282 0)
(1.5818556 -0.63802724 0)
(1.5574003 -0.636896 0)
(1.5328321 -0.63554016 0)