/*--------------------------------*- C++ -*----------------------------------*\
| =========                 |                                                 |
| \\      /  F ield         | OpenFOAM: The Open Source CFD Toolbox           |
|  \\    /   O peration     | Version:  2312                                  |
|   \\  /    A nd           | Website:  www.openfoam.com                      |
|    \\/     M anipulation  |                                                 |
\*---------------------------------------------------------------------------*/
FoamFile
{
    version     2.0;
    format      ascii;
    arch        "LSB;label=32;scalar=64";
    class       volScalarField;
    location    "0.07";
    object      f_Bilger;
}
// * * * * * * * * * * * * * * * * * * * * * * * * * * * * * * * * * * * * * //

dimensions      [0 0 0 0 0 0 0];

internalField   nonuniform List<scalar> 
3272
(
0.004750477
0.0052090012
0.0056953106
0.0061509397
0.0065537964
0.0069162099
0.0072784893
0.0076413096
0.0079912773
0.0083266985
0.0086564445
0.0089818065
0.0092955371
0.009590417
0.0098645005
0.010119791
0.010358107
0.010579657
0.010784307
0.010972728
0.011146261
0.011306356
0.011454202
0.011590618
0.011716089
0.01183088
0.011935131
0.012028917
0.01211228
0.012185248
0.012247838
0.012300067
0.012341938
0.012373431
0.012394516
0.012405119
0.012405231
0.01239486
0.012374011
0.012342765
0.012301355
0.012250116
0.012189411
0.012119627
0.012041548
0.011955339
0.011861584
0.011760269
0.011652249
0.011537274
0.011415904
0.011288528
0.011155504
0.0099069656
0.010089723
0.010294037
0.010502199
0.010703812
0.010899696
0.011099818
0.011303811
0.011506228
0.011705902
0.011905599
0.012104751
0.012298819
0.012483201
0.012655993
0.012817484
0.012968056
0.013107352
0.013234923
0.013350869
0.013455775
0.013550372
0.013635282
0.013710924
0.013777512
0.013835126
0.013883775
0.013923425
0.01395403
0.013975546
0.013987872
0.013991048
0.013985018
0.013969712
0.013945063
0.01391098
0.013867413
0.013814379
0.0137519
0.013680006
0.013598978
0.013509163
0.013410789
0.013303982
0.013189917
0.013068374
0.012939832
0.01280472
0.012663358
0.012516017
0.012363043
0.012204808
0.012041619
0.014770501
0.014931823
0.015091428
0.015246848
0.015395971
0.015538952
0.015677919
0.015812971
0.015943053
0.016068151
0.016189098
0.016305508
0.016415565
0.016517351
0.01660991
0.016693127
0.016766965
0.016831136
0.016885357
0.016929616
0.016964134
0.016989236
0.017005181
0.017012289
0.017010637
0.017000283
0.016981253
0.016953546
0.016917135
0.016871992
0.016818084
0.01675545
0.016684087
0.016603921
0.01651533
0.016417802
0.016311229
0.016196039
0.01607227
0.01594042
0.015799732
0.015651098
0.015494822
0.015331233
0.01516079
0.014983839
0.014800738
0.01461184
0.014417477
0.014217985
0.014013725
0.013805081
0.013592375
0.018691797
0.018902085
0.019101333
0.019289151
0.019465168
0.01962943
0.019782384
0.019924218
0.020054955
0.020174837
0.02028421
0.02038303
0.020470814
0.020547028
0.020611426
0.02066402
0.020704857
0.020733893
0.020751098
0.020756705
0.020750827
0.020733642
0.020705438
0.020666447
0.020616857
0.020556852
0.020486617
0.020406256
0.020315821
0.020215569
0.020105174
0.019985002
0.019855378
0.019716126
0.019568019
0.019410001
0.019242796
0.019066745
0.018881984
0.018688708
0.018487106
0.018277567
0.018060479
0.017836252
0.01760532
0.017368104
0.017125015
0.016876451
0.0166228
0.016364461
0.016101847
0.015835389
0.015565469
0.022031869
0.022287967
0.022530116
0.022758001
0.022971341
0.023169964
0.023353823
0.023522899
0.023677197
0.023816785
0.023941745
0.024052062
0.024147621
0.024228309
0.024294109
0.024345098
0.024381385
0.024402864
0.024409966
0.024402823
0.024381475
0.024346138
0.0242971
0.024234593
0.024158855
0.024070177
0.023968949
0.023855846
0.023730081
0.023591586
0.023441385
0.023279813
0.023107821
0.02292352
0.022728228
0.022522306
0.022306035
0.022079713
0.021843642
0.021598148
0.0213436
0.021080416
0.020809051
0.02052998
0.020243692
0.01995068
0.01965143
0.019346421
0.019036129
0.018721034
0.018401627
0.018078409
0.017751849
0.025141695
0.025427893
0.025698818
0.025954162
0.026193639
0.026417004
0.026624066
0.026814678
0.026988726
0.027146127
0.027286812
0.027410705
0.027517723
0.02760781
0.027680959
0.027737211
0.027776643
0.027799083
0.027805056
0.027794673
0.027767877
0.027724851
0.027665865
0.027591128
0.027500863
0.02739537
0.027275449
0.027141578
0.026992399
0.026828378
0.026650434
0.026460692
0.026257358
0.026039679
0.025809428
0.025566925
0.025312522
0.025046595
0.024769542
0.024481789
0.024183793
0.023876044
0.023559061
0.023233381
0.022899557
0.022558151
0.022209724
0.021854837
0.021494052
0.021127935
0.020757056
0.020381993
0.020003308
0.028197827
0.028502161
0.028789957
0.029060977
0.029314991
0.029551789
0.029771185
0.029973019
0.030157152
0.030323461
0.030471839
0.030602185
0.030714416
0.030808471
0.030884322
0.030941972
0.030981457
0.031002558
0.031005833
0.030991337
0.030958877
0.03090868
0.030840959
0.030755894
0.030653659
0.030534385
0.030399699
0.030249059
0.03008128
0.029896885
0.029696893
0.029484084
0.029255832
0.029011321
0.028752697
0.028480335
0.028194636
0.027896024
0.027584952
0.027261902
0.026927385
0.02658194
0.026226128
0.025860536
0.025485765
0.025102429
0.024711151
0.024312557
0.023907279
0.023495954
0.023079221
0.022657727
0.022232114
0.031258131
0.031573305
0.031870474
0.032149488
0.032410204
0.032652484
0.032876208
0.033081263
0.033267549
0.033434974
0.033583456
0.033712924
0.033823316
0.033914589
0.033986716
0.034039688
0.034073513
0.034088084
0.034083881
0.034060854
0.034018782
0.03395798
0.033878587
0.033780757
0.033664642
0.033530369
0.033380054
0.033212344
0.033025717
0.032821417
0.032600299
0.032365682
0.0321141
0.031844805
0.031560191
0.031260652
0.03094661
0.030618511
0.030276836
0.029922093
0.029554821
0.029175584
0.028784974
0.028383603
0.027972105
0.027551131
0.027121343
0.026683415
0.026238029
0.025785875
0.025327648
0.024864049
0.024395781
0.034328907
0.034650181
0.034951857
0.035233874
0.03549618
0.035738725
0.035961464
0.036164357
0.036347368
0.036510465
0.03665362
0.036776811
0.036880024
0.036963255
0.037026506
0.037069772
0.037092862
0.037096329
0.037080189
0.037044169
0.036988448
0.036913204
0.036818579
0.036704744
0.036571891
0.036420265
0.036251886
0.036064955
0.035857524
0.035632014
0.035388805
0.035131755
0.034855949
0.03456176
0.034251314
0.033925019
0.033583307
0.03322664
0.032855509
0.032470436
0.032071972
0.031660697
0.031237217
0.030802164
0.03035619
0.029899971
0.029434196
0.028959571
0.028476814
0.027986653
0.027489823
0.026987072
0.026479153
0.03740141
0.037724948
0.038027279
0.038308437
0.038568457
0.038807379
0.039025238
0.03922207
0.039397911
0.039552795
0.039686755
0.039799828
0.039892056
0.039963486
0.040014194
0.040043777
0.040052978
0.040041828
0.040010142
0.039957909
0.039885363
0.039792622
0.039679839
0.039547218
0.039394958
0.039224974
0.039036054
0.038826547
0.038596888
0.038348607
0.038082123
0.037801471
0.037500001
0.037180133
0.036843264
0.036489814
0.036120223
0.035734961
0.035334526
0.034919448
0.034490285
0.034047627
0.03359209
0.033124316
0.032644974
0.032154755
0.03165437
0.031144547
0.030626031
0.030099579
0.02956596
0.040465791
0.040787845
0.041087155
0.041363849
0.041618056
0.041849898
0.042059494
0.042246956
0.04241239
0.042555897
0.042677571
0.042777505
0.042855787
0.042912501
0.042947721
0.04296133
0.042953973
0.042925494
0.042875728
0.04280496
0.042713289
0.042600825
0.042467719
0.042314319
0.042142777
0.041950712
0.041739552
0.041505885
0.041252681
0.040979947
0.040690719
0.040384669
0.040056413
0.03971013
0.039346253
0.038965199
0.038567412
0.038153366
0.037723565
0.037278543
0.036818863
0.036345122
0.035857943
0.03535798
0.034845911
0.034322442
0.033788299
0.033244231
0.032691003
0.032129397
0.031560208
0.043514488
0.043831123
0.044123604
0.044392156
0.044636999
0.044858342
0.045056383
0.045231311
0.045383302
0.045512518
0.045619116
0.045703239
0.045765024
0.045804598
0.045821868
0.04581747
0.045791397
0.045743372
0.04567375
0.045582641
0.045470141
0.045336319
0.04518109
0.04500755
0.044813504
0.044599245
0.044362546
0.044104839
0.043827212
0.043529714
0.04321755
0.042883736
0.042529025
0.042155887
0.041764677
0.041355801
0.040929699
0.040486844
0.040027741
0.039552925
0.039062966
0.038558463
0.038040047
0.037508378
0.036964146
0.036408067
0.035840883
0.035263358
0.034676275
0.034080436
0.033476662
0.046541972
0.04684905
0.047130726
0.047387323
0.047619152
0.04782651
0.048009675
0.048168907
0.048304451
0.048416532
0.048505359
0.048571127
0.048614016
0.048633928
0.04863161
0.048607125
0.048560108
0.048490984
0.048399888
0.048286948
0.048152302
0.047996266
0.047818524
0.047622605
0.047405712
0.047166316
0.046904523
0.046622281
0.046319947
0.045998038
0.045660974
0.045299396
0.044918187
0.044518112
0.044099549
0.043662904
0.043208615
0.042737153
0.04224902
0.041744752
0.04122492
0.040690126
0.040141004
0.039578223
0.039002478
0.038414497
0.037815033
0.037204863
0.036584789
0.035955629
0.035318224
0.049543786
0.049837039
0.050103828
0.050344575
0.050559684
0.050749533
0.050914481
0.051054857
0.051170973
0.05126311
0.051331527
0.051376465
0.051397835
0.051396483
0.051372549
0.051325621
0.051256173
0.051164351
0.051050294
0.050914107
0.050755792
0.050577528
0.050377362
0.050157334
0.049915605
0.049649966
0.04936337
0.049055946
0.048728263
0.048385178
0.048019114
0.047630854
0.047223114
0.046796199
0.046350465
0.045886308
0.045404158
0.04490448
0.044387771
0.043854566
0.043305432
0.042740971
0.042161821
0.041568653
0.040962169
0.040343104
0.039712219
0.039070306
0.038418178
0.03775667
0.037086642
0.052515772
0.052790898
0.053038705
0.053259711
0.05345441
0.053623261
0.053766694
0.053885106
0.053978875
0.054048334
0.054093787
0.054115177
0.054113428
0.054088735
0.054040712
0.053969878
0.053876402
0.053760401
0.053622031
0.053461399
0.053281043
0.053078427
0.052852314
0.052608562
0.052339603
0.052049051
0.05173723
0.051403763
0.051054679
0.050685648
0.050291253
0.049876882
0.049442804
0.048989303
0.048516724
0.04802545
0.0475159
0.04698853
0.04644383
0.045882327
0.045304584
0.044711201
0.044102814
0.043480095
0.042843749
0.042194515
0.041533164
0.040860494
0.04017733
0.039484523
0.038782946
0.055453653
0.055706411
0.055931215
0.056128677
0.056299376
0.056443844
0.056562574
0.05665602
0.056724649
0.056768827
0.056788556
0.056784808
0.056757789
0.056707224
0.056633647
0.056537303
0.056418383
0.056276854
0.056112999
0.055929534
0.055722867
0.05549325
0.05524534
0.054972734
0.054678189
0.054362302
0.054025417
0.053667821
0.053295158
0.052897159
0.052477007
0.052036746
0.051576604
0.051096863
0.050597855
0.050079948
0.049543548
0.048989097
0.048417074
0.047827997
0.04722242
0.046600937
0.045964181
0.04531282
0.044647562
0.043969146
0.043278349
0.042575974
0.041862856
0.041139855
0.040407859
0.058352898
0.058579184
0.058777112
0.058947382
0.059090656
0.059207533
0.05929855
0.059364148
0.059405043
0.059421221
0.05941366
0.059382529
0.05932776
0.059249869
0.059149086
0.059025763
0.058880338
0.058711884
0.0585243
0.058312816
0.058078854
0.057826733
0.057549679
0.057250803
0.056930379
0.056588601
0.056226239
0.055848437
0.05544701
0.055021755
0.054576073
0.054110183
0.053624318
0.053118751
0.052593796
0.052049804
0.051487162
0.050906298
0.050307675
0.049691798
0.049059213
0.048410502
0.047746292
0.047067247
0.04637407
0.045667502
0.044948319
0.044217332
0.043475379
0.04272333
0.041962083
0.061208734
0.061404643
0.061572027
0.061711669
0.061824312
0.061910626
0.061971225
0.062006053
0.062016758
0.062003415
0.061966191
0.061905384
0.061821423
0.061714657
0.06158508
0.061433193
0.06126146
0.061066551
0.060848716
0.060611714
0.060353661
0.060071205
0.059767541
0.059442493
0.059095864
0.058727276
0.058344703
0.057940232
0.057510151
0.057059555
0.056588572
0.056097382
0.055586198
0.055055276
0.054504908
0.053935425
0.053347194
0.052740624
0.052116162
0.051474296
0.050815559
0.050140522
0.049449802
0.048744054
0.048023977
0.047290309
0.046543825
0.045785336
0.045015686
0.044235753
0.043446449
0.064016236
0.064178119
0.064311547
0.064417364
0.064496421
0.064549429
0.064576488
0.064579067
0.064557764
0.064512293
0.064443385
0.064351501
0.06423677
0.064100088
0.063940161
0.063761831
0.063558852
0.063334481
0.063091965
0.062826784
0.062538582
0.06222928
0.06189903
0.061547928
0.061175544
0.060782492
0.06037581
0.05994171
0.059486589
0.05901097
0.058515027
0.057998933
0.057462891
0.056907133
0.05633193
0.05573759
0.055124458
0.054492922
0.053843409
0.05317639
0.052492379
0.051791936
0.051075664
0.05034421
0.049598263
0.048838557
0.048065862
0.047280989
0.046484784
0.045678132
0.066770451
0.066894961
0.066991323
0.067060357
0.067103175
0.067120033
0.067112229
0.067080302
0.067024501
0.066945377
0.066843225
0.066719072
0.066571622
0.066405677
0.066215249
0.066004924
0.065771978
0.065522111
0.065248496
0.06495352
0.06463764
0.064301016
0.063943959
0.063567306
0.063168522
0.062755491
0.062316751
0.061857213
0.061377188
0.060876839
0.060356313
0.059815764
0.05925537
0.058675341
0.058075922
0.057457395
0.056820082
0.056164346
0.055490593
0.054799273
0.054090883
0.053365966
0.05262511
0.05186895
0.051098167
0.050313485
0.04951567
0.048705528
0.047883902
0.04705167
0.069466508
0.069550643
0.069607242
0.069636617
0.069640765
0.069620162
0.069575044
0.069506254
0.06941488
0.069300771
0.069163353
0.069007514
0.068827174
0.068627148
0.068405041
0.068165848
0.06790452
0.067621516
0.067318343
0.066994769
0.066650909
0.066286533
0.065901818
0.065502505
0.065081295
0.064636647
0.064172204
0.063687646
0.063182972
0.06265825
0.062113577
0.061549071
0.060964883
0.060361192
0.059738214
0.059096204
0.058435456
0.057756309
0.057059145
0.056344393
0.055612528
0.054864075
0.054099607
0.053319744
0.052525156
0.051716557
0.050894705
0.050060402
0.049214486
0.048357837
0.072099699
0.072140798
0.072154746
0.07214312
0.072106757
0.072045907
0.071962041
0.071854519
0.071726918
0.071577575
0.071404584
0.071212455
0.070998198
0.07076683
0.070515435
0.070241476
0.069948565
0.06963567
0.069302981
0.068950582
0.068579138
0.068186843
0.067780871
0.067352479
0.066902491
0.0664327
0.065943249
0.065434074
0.064905154
0.064356508
0.063788191
0.063200286
0.062592907
0.061966203
0.061320359
0.060655599
0.059972189
0.059270441
0.058550711
0.057813405
0.057058976
0.056287929
0.05550082
0.054698254
0.053880886
0.05304942
0.052204606
0.051347237
0.050478154
0.04959824
0.074665542
0.074661289
0.074631326
0.074576019
0.07449745
0.074394576
0.074271829
0.074125858
0.073958403
0.073771309
0.073561856
0.073336097
0.073090361
0.072822771
0.072537047
0.07223188
0.071908175
0.071564949
0.071202642
0.070820663
0.070424207
0.070009183
0.069571241
0.069115276
0.068639889
0.068145174
0.067631172
0.067097849
0.066545172
0.065973128
0.065381735
0.064771039
0.064141119
0.06349209
0.062824104
0.062137353
0.061432075
0.060708551
0.059967112
0.059208138
0.058432061
0.057639363
0.056830582
0.056006305
0.055167174
0.054313879
0.05344716
0.052567805
0.051676651
0.077160649
0.077109186
0.077032772
0.076931925
0.076811476
0.076666158
0.076500424
0.076314809
0.076107142
0.075884487
0.075640141
0.075376102
0.075094181
0.074793802
0.074474953
0.074137614
0.073783793
0.073409218
0.073018916
0.072613815
0.072185581
0.071740888
0.071277341
0.07079544
0.070294888
0.069775595
0.069237506
0.068680552
0.068104671
0.067509816
0.066895968
0.066263137
0.065611365
0.064940732
0.064251356
0.063543397
0.06281706
0.0620726
0.061310317
0.060530566
0.059733756
0.058920346
0.058090854
0.05724585
0.05638596
0.05551186
0.054624278
0.05372399
0.052811813
0.079580032
0.079481041
0.079357186
0.079210296
0.079044133
0.078856063
0.078646785
0.078423214
0.07817634
0.077913246
0.0776317
0.077331697
0.077014215
0.076681181
0.076329279
0.075958067
0.075577389
0.075174696
0.07475352
0.074317255
0.073862721
0.073390972
0.072901511
0.072394246
0.07186899
0.0713256
0.070763957
0.070183949
0.069585473
0.068968446
0.068332811
0.067678541
0.06700564
0.066314151
0.06560416
0.064875792
0.064129221
0.06336467
0.062582413
0.061782778
0.060966147
0.060132959
0.059283709
0.05841895
0.057539289
0.056645391
0.055737969
0.05481779
0.053885663
0.081922767
0.081773095
0.081600851
0.081405899
0.081196212
0.080964632
0.080713402
0.080445642
0.080159598
0.079858778
0.079540084
0.079203509
0.078849178
0.078486495
0.078101931
0.077700358
0.077285363
0.076853373
0.076404524
0.075939801
0.075458405
0.074960348
0.07444538
0.073913297
0.073363894
0.072796983
0.072212392
0.071609963
0.070989552
0.070351038
0.069694324
0.069019342
0.068326062
0.067614491
0.066884676
0.066136711
0.065370738
0.064586948
0.063785587
0.062966956
0.062131411
0.061279368
0.060411301
0.059527743
0.058629284
0.057716574
0.056790315
0.055851267
0.054900246
0.084183139
0.083984506
0.08376389
0.083521543
0.083263012
0.082988443
0.082695195
0.082385019
0.082057351
0.081721591
0.08136586
0.080992925
0.080605695
0.080205813
0.079789749
0.079358213
0.07891228
0.078451055
0.0779743
0.077482157
0.076974309
0.076450565
0.075910677
0.075354396
0.074781478
0.074191692
0.073584818
0.072960654
0.072319013
0.071659734
0.070982678
0.070287742
0.069574855
0.068843988
0.068095155
0.067328414
0.066543874
0.065741698
0.064922101
0.064085355
0.063231794
0.062361808
0.061475849
0.06057443
0.059658125
0.058727566
0.057783445
0.056826519
0.086363235
0.086112007
0.085841222
0.085551638
0.08524477
0.084929535
0.084593217
0.084241494
0.083875893
0.083498435
0.083105997
0.08269881
0.082278027
0.081844229
0.081396426
0.080934573
0.080458882
0.07996902
0.079464733
0.078945881
0.078412202
0.077863436
0.0772993
0.076719506
0.076123768
0.07551181
0.07488337
0.074238198
0.073576069
0.072896776
0.072200144
0.071486029
0.070754323
0.070004961
0.069237921
0.068453228
0.067650959
0.066831244
0.065994271
0.065140284
0.064269591
0.063382558
0.062479616
0.061561256
0.060628034
0.059680565
0.058719523
0.057745637
0.088455708
0.088155988
0.087834858
0.087497469
0.08714621
0.086783227
0.086405301
0.086013675
0.085609395
0.085193222
0.084764328
0.08432262
0.08386848
0.083402088
0.08292309
0.082431305
0.081926643
0.081408852
0.080877657
0.080332807
0.079774007
0.079200944
0.078613295
0.078010728
0.077392915
0.076759535
0.076110283
0.075444867
0.074763017
0.074064487
0.073349062
0.072616559
0.071866834
0.071099784
0.070315352
0.06951353
0.068694363
0.067857952
0.067004453
0.066134086
0.065247131
0.06434393
0.063424893
0.06249049
0.061541258
0.060577793
0.059600752
0.058610853
0.090466121
0.090111372
0.089741408
0.089357571
0.088961321
0.08855366
0.088133891
0.087702388
0.087259685
0.086806129
0.086341495
0.085865676
0.085378734
0.084880652
0.084371204
0.083850162
0.083317307
0.08277236
0.082215009
0.081644931
0.081061783
0.080465205
0.079854826
0.079230271
0.078591168
0.077937154
0.077267877
0.076583005
0.075882226
0.075165253
0.074431832
0.073681742
0.0729148
0.07213087
0.07132986
0.070511728
0.069676489
0.068824212
0.067955027
0.067069124
0.066166759
0.065248251
0.064313985
0.063364414
0.062400053
0.061421483
0.060429343
0.059424343
0.092388232
0.091981468
0.091562629
0.091132323
0.090691399
0.090240452
0.089779453
0.089308583
0.088828098
0.088338144
0.087838624
0.087329416
0.086810431
0.08628153
0.085742477
0.085192994
0.084632787
0.084061524
0.083478844
0.082884369
0.082277704
0.081658437
0.081026154
0.080380433
0.079720858
0.079047023
0.078358533
0.077655014
0.076936112
0.076201501
0.075450888
0.074684014
0.073900662
0.073100659
0.072283878
0.071450249
0.070599751
0.069732426
0.068848376
0.067947765
0.067030823
0.066097846
0.065149197
0.064185307
0.063206674
0.06221386
0.061207492
0.060188267
0.094222826
0.093765462
0.093298448
0.092822232
0.092337348
0.091844178
0.091342832
0.090833406
0.090315997
0.089790619
0.089257163
0.088715462
0.088165331
0.087606541
0.087038804
0.086461787
0.085875133
0.085278453
0.084671334
0.084053342
0.083424032
0.082782944
0.082129614
0.081463578
0.080784374
0.080091553
0.079384677
0.078663332
0.077927123
0.077175685
0.076408687
0.075625834
0.074826873
0.074011596
0.073179845
0.072331517
0.071466561
0.070584992
0.069686882
0.06877237
0.067841662
0.066895031
0.065932818
0.064955434
0.063963358
0.062957135
0.061937376
0.06090477
0.095970328
0.095463488
0.094949276
0.094428054
0.093900169
0.093365858
0.092825205
0.092278228
0.091724907
0.091165155
0.090598801
0.090025617
0.089445339
0.088857659
0.088262226
0.087658649
0.08704651
0.086425362
0.085794737
0.085154151
0.084503105
0.083841091
0.083167599
0.082482118
0.081784145
0.081073185
0.080348762
0.079610419
0.078857722
0.078090269
0.077307692
0.076509659
0.075695883
0.074866123
0.07402019
0.073157948
0.07227932
0.07138429
0.070472904
0.069545278
0.068601593
0.067642098
0.066667116
0.065677035
0.064672316
0.063653488
0.062621146
0.061575969
0.097631305
0.097076173
0.096515924
0.095950827
0.095381087
0.094806818
0.094228024
0.093644638
0.09305654
0.092463547
0.091865415
0.091261844
0.090652495
0.090036987
0.089414904
0.088785793
0.088149176
0.087504548
0.086851389
0.08618916
0.085517312
0.08483529
0.084142537
0.083438497
0.082722624
0.081994382
0.081253254
0.080498742
0.079730376
0.078947716
0.078150358
0.077337936
0.07651013
0.075666666
0.074807323
0.073931937
0.073040402
0.072132675
0.071208778
0.0702688
0.069312901
0.068341309
0.067354324
0.066352316
0.065335726
0.064305067
0.063260918
0.062203946
0.099206601
0.0986045
0.097999534
0.097391862
0.096781563
0.096168629
0.09555297
0.094934425
0.094312778
0.093687757
0.093059035
0.092426241
0.091788958
0.091146737
0.090499094
0.089845515
0.089185462
0.088518374
0.087843676
0.087160777
0.086469079
0.08576798
0.085056877
0.084335171
0.083602273
0.082857606
0.082100614
0.081330761
0.080547539
0.079750473
0.078939124
0.078113092
0.077272025
0.076415619
0.075543623
0.074655844
0.073752148
0.072832467
0.071896798
0.070945209
0.069977835
0.068994884
0.067996637
0.066983443
0.065955726
0.064913978
0.063858766
0.062790744
0.10069736
0.10004976
0.099401533
0.098752725
0.09810328
0.097453076
0.096801918
0.096149549
0.095495658
0.094839886
0.094181822
0.093521018
0.092856986
0.092189206
0.091517128
0.090840176
0.090157754
0.089469245
0.08877402
0.088071438
0.087360853
0.086641616
0.085913078
0.0851746
0.08442555
0.083665313
0.082893292
0.082108917
0.081311643
0.08050096
0.079676396
0.07883752
0.077983947
0.077115344
0.076231432
0.075331989
0.074416856
0.073485941
0.072539217
0.071576729
0.070598592
0.069604995
0.068596198
0.067572532
0.066534401
0.06548228
0.064416716
0.063338355
0.10210498
0.10141349
0.1007236
0.1000352
0.099348123
0.098662126
0.09797691
0.097292119
0.09660735
0.095922152
0.095236038
0.094548478
0.093858914
0.093166757
0.092471392
0.091772182
0.091068474
0.090359595
0.089644865
0.088923593
0.088195085
0.087458648
0.08671359
0.085959229
0.085194895
0.084419934
0.083633712
0.082835622
0.082025087
0.081201563
0.080364545
0.079513572
0.078648229
0.077768155
0.076873042
0.075962644
0.075036777
0.074095323
0.073138235
0.072165536
0.071177322
0.070173762
0.0691551
0.068121648
0.067073789
0.066011977
0.064936743
0.063848721
0.1056552
0.10491002
0.10416866
0.10343112
0.10269749
0.10196762
0.10124127
0.10051815
0.099797902
0.099080126
0.098364366
0.097650126
0.096936869
0.096224025
0.09551099
0.094797133
0.094081799
0.093364309
0.092643968
0.091920063
0.09119187
0.090458658
0.089719688
0.088974221
0.088221517
0.087460846
0.086691484
0.085912723
0.085123872
0.084324262
0.083513252
0.082690231
0.081854624
0.081005895
0.080143553
0.079267157
0.078376315
0.077470697
0.076550028
0.075614104
0.074662782
0.073695995
0.072713746
0.071716112
0.070703247
0.069675376
0.068632795
0.067575867
0.066505021
0.065420765
0.064323727
0.10703694
0.10624417
0.10545782
0.10467774
0.10390379
0.10313569
0.10237308
0.10161556
0.10086266
0.10011386
0.099368619
0.098626346
0.097886419
0.097148188
0.096410974
0.095674076
0.094936773
0.094198326
0.09345798
0.092714968
0.091968516
0.09121784
0.090462158
0.089700684
0.088932638
0.088157249
0.087373755
0.08658141
0.085779488
0.084967288
0.084144134
0.083309384
0.082462433
0.081602716
0.080729714
0.079842957
0.078942031
0.078026577
0.0770963
0.076150971
0.075190427
0.074214579
0.073223414
0.072216991
0.071195449
0.070158997
0.069107917
0.068042552
0.066963301
0.065870642
0.0647652
0.10833532
0.10749703
0.10666767
0.10584696
0.10503455
0.10423003
0.10343292
0.10264268
0.10185875
0.1010805
0.10030729
0.099538435
0.09877324
0.098010972
0.09725088
0.096492196
0.095734133
0.094975894
0.094216666
0.093455631
0.092691962
0.091924832
0.091153411
0.090376871
0.089594393
0.088805166
0.088008391
0.087203289
0.086389098
0.085565085
0.084730544
0.083884802
0.083027225
0.082157221
0.081274244
0.080377799
0.079467447
0.078542805
0.077603556
0.076649449
0.075680302
0.074696007
0.073696532
0.072681923
0.071652302
0.070607868
0.069548892
0.0684757
0.067388649
0.066288171
0.065174905
0.10955241
0.10867073
0.10780043
0.10694106
0.1060921
0.10525301
0.10442317
0.10360193
0.10278861
0.10198249
0.10118282
0.10038886
0.099599802
0.098814848
0.098033177
0.097253954
0.096476333
0.095699456
0.094922458
0.09414447
0.093364617
0.092582025
0.091795822
0.091005141
0.090209122
0.089406918
0.088597696
0.087780642
0.086954963
0.086119894
0.0852747
0.084418681
0.083551174
0.082671561
0.081779272
0.080873787
0.079954642
0.079021434
0.078073825
0.077111542
0.076134385
0.075142229
0.074135025
0.073112803
0.072075673
0.071023828
0.069957532
0.068877103
0.067782837
0.066675082
0.065554539
0.11069048
0.1097676
0.10885847
0.10796245
0.10707889
0.10620709
0.10534631
0.10449579
0.10365473
0.10282233
0.10199774
0.10118011
0.10036859
0.099562294
0.098760332
0.097961807
0.097165814
0.096371439
0.095577767
0.094783877
0.093988851
0.093191772
0.092391725
0.091587804
0.090779115
0.089964774
0.089143916
0.088315693
0.087479284
0.086633893
0.085778759
0.084913153
0.084036388
0.083147821
0.082246858
0.081332955
0.080405627
0.079464452
0.078509068
0.077539186
0.076554588
0.07555513
0.074540749
0.07351146
0.072467364
0.071408645
0.070335574
0.069248483
0.068147577
0.067033024
0.065905732
0.11175194
0.1107901
0.10984426
0.10891364
0.10799744
0.10709481
0.10620489
0.10532681
0.10445966
0.10360255
0.10275454
0.1019147
0.1010821
0.10025578
0.099434801
0.098618191
0.097804992
0.096994239
0.096184965
0.095376205
0.094566996
0.093756379
0.092943402
0.092127122
0.091306609
0.090480947
0.089649238
0.088810606
0.0879642
0.087109198
0.086244811
0.085370285
0.08448491
0.083588018
0.082678993
0.08175727
0.080822345
0.079873773
0.078911177
0.077934247
0.076942748
0.075936523
0.07491549
0.073879655
0.072829103
0.071764017
0.070684678
0.069591488
0.11273935
0.11174079
0.1107604
0.10979724
0.10885035
0.10791876
0.10700149
0.10609756
0.10520596
0.10432569
0.10345575
0.10259513
0.10174281
0.10089777
0.10005902
0.099225513
0.098396251
0.097570212
0.096746385
0.095923759
0.09510133
0.0942781
0.093453081
0.092625295
0.091793779
0.090957585
0.090115786
0.089267479
0.088411785
0.087547855
0.086674876
0.085792072
0.084898708
0.083994096
0.083077597
0.082148629
0.081206665
0.080251244
0.07928197
0.078298518
0.077300636
0.076288151
0.075260968
0.074219078
0.073162556
0.072091571
0.071006414
0.11365539
0.11262236
0.11160956
0.11061589
0.10964025
0.10868156
0.10773871
0.10681061
0.10589617
0.10499429
0.10410388
0.10322387
0.10235316
0.10149069
0.10063538
0.099786144
0.098941931
0.098101672
0.09726431
0.096428793
0.095594079
0.094759132
0.093922931
0.093084463
0.092242736
0.091396773
0.090545619
0.089688343
0.088824041
0.087951842
0.087070907
0.08618044
0.085279684
0.08436793
0.083444521
0.082508854
0.081560386
0.080598638
0.079623197
0.078633723
0.077629949
0.076611687
0.07557883
0.074531353
0.073469318
0.072392873
0.071302246
0.11450278
0.11343752
0.11239444
0.11137228
0.11036983
0.10938587
0.10841918
0.10746857
0.10653286
0.10561086
0.10470142
0.10380339
0.1029156
0.10203693
0.10116624
0.10030241
0.099444322
0.098590875
0.097740965
0.096893502
0.096047406
0.095201609
0.094355054
0.093506701
0.092655527
0.091800528
0.090940724
0.090075157
0.089202902
0.088323064
0.087434783
0.086537242
0.085629663
0.084711321
0.083781538
0.082839696
0.081885233
0.080917655
0.079936534
0.078941515
0.077932316
0.076908736
0.075870655
0.074818035
0.073750923
0.072669444
0.071573789
0.11528434
0.11418905
0.11311778
0.11206913
0.11104175
0.11003431
0.10904549
0.10807399
0.10711855
0.10617791
0.10525083
0.10433609
0.10343249
0.10253882
0.1016539
0.10077657
0.09990566
0.099040021
0.098178516
0.097320018
0.096463412
0.095607597
0.094751487
0.093894014
0.093034126
0.092170796
0.091303017
0.090429811
0.089550229
0.088663355
0.08776831
0.086864257
0.085950402
0.085025998
0.084090354
0.083142834
0.082182861
0.081209926
0.080223587
0.079223473
0.078209293
0.077180832
0.076137955
0.075080614
0.07400884
0.072922739
0.071822485
0.11600289
0.11487974
0.11378233
0.11270914
0.11165869
0.11062952
0.10962023
0.10862942
0.10765574
0.10669788
0.10575451
0.10482436
0.10390615
0.10299865
0.10210062
0.10121085
0.10032812
0.099451248
0.098579065
0.097710407
0.096844127
0.095979095
0.095114196
0.094248336
0.093380438
0.09250945
0.091634344
0.09075412
0.089867809
0.088974476
0.088073223
0.087163195
0.086243581
0.085313619
0.0843726
0.083419875
0.082454853
0.081477009
0.080485889
0.079481112
0.07846237
0.077429439
0.076382173
0.07532051
0.07424447
0.073154142
0.072049693
0.11666125
0.11551236
0.11439084
0.11329502
0.11222329
0.1111741
0.11014594
0.10913735
0.10814689
0.10717317
0.10621482
0.1052705
0.10433888
0.10341867
0.10250859
0.10160738
0.1007138
0.099826624
0.098944643
0.098066666
0.097191514
0.096318032
0.095445077
0.09457153
0.093696294
0.092818292
0.091936477
0.091049828
0.090157359
0.089258115
0.088351183
0.08743569
0.08651081
0.085575767
0.084629837
0.083672355
0.08270272
0.081720393
0.080724909
0.079715872
0.078692967
0.077655956
0.076604684
0.075539078
0.074459147
0.073364967
0.0722567
0.11726224
0.1160897
0.11494603
0.11382942
0.11273816
0.11167059
0.11062513
0.10960023
0.10859439
0.10760614
0.10663407
0.10567677
0.10473286
0.10380102
0.10287992
0.10196825