/*--------------------------------*- C++ -*----------------------------------*\
| =========                 |                                                 |
| \\      /  F ield         | OpenFOAM: The Open Source CFD Toolbox           |
|  \\    /   O peration     | Version:  2312                                  |
|   \\  /    A nd           | Website:  www.openfoam.com                      |
|    \\/     M anipulation  |                                                 |
\*---------------------------------------------------------------------------*/
FoamFile
{
    version     2.0;
    format      ascii;
    arch        "LSB;label=32;scalar=64";
    class       volScalarField;
    location    "0.07";
    object      k;
}
// * * * * * * * * * * * * * * * * * * * * * * * * * * * * * * * * * * * * * //

dimensions      [0 2 -2 0 0 0 0];

internalField   nonuniform List<scalar> 
3272
(
11.18698
11.188742
11.195336
11.204739
11.213823
11.221125
11.232597
11.245674
11.256586
11.265543
11.275796
11.287502
11.298623
11.307742
11.315207
11.322198
11.329061
11.335272
11.340386
11.344448
11.347696
11.35028
11.352246
11.353577
11.354232
11.354188
11.353443
11.352
11.349878
11.347096
11.343678
11.339641
11.335007
11.32979
11.324003
11.31766
11.310748
11.303254
11.295153
11.286437
11.277105
11.267177
11.256695
11.245716
11.234297
11.222478
11.210279
11.197694
11.184703
11.171289
11.157441
11.143176
11.128536
11.374561
11.382378
11.38764
11.3923
11.396929
11.40109
11.406022
11.4113
11.415966
11.419984
11.424316
11.429043
11.433457
11.437025
11.439855
11.442383
11.444716
11.446585
11.447753
11.448207
11.448031
11.447274
11.44594
11.444007
11.441446
11.438242
11.434394
11.429912
11.424811
11.41911
11.412832
11.405986
11.398598
11.390679
11.382248
11.373312
11.363873
11.353922
11.343446
11.332436
11.320894
11.308838
11.2963
11.283325
11.269957
11.256236
11.242174
11.22777
11.213014
11.197899
11.182424
11.166599
11.150457
11.337574
11.361533
11.382916
11.401821
11.418626
11.433457
11.446362
11.457453
11.46687
11.474784
11.481457
11.487042
11.491562
11.495035
11.497571
11.499341
11.500433
11.500831
11.500499
11.499453
11.497726
11.495335
11.4923
11.488601
11.484245
11.479226
11.473556
11.467249
11.460321
11.452794
11.444685
11.436013
11.426798
11.417056
11.406804
11.396055
11.384819
11.373095
11.360886
11.348185
11.335004
11.321358
11.307272
11.29278
11.277915
11.262708
11.24718
11.231341
11.215189
11.198718
11.181928
11.164835
11.147473
11.252529
11.279375
11.304899
11.328973
11.351607
11.372784
11.392447
11.410571
11.427153
11.442175
11.455637
11.467556
11.477964
11.4869
11.49442
11.500599
11.505508
11.509192
11.511719
11.51312
11.513454
11.512751
11.511049
11.508371
11.504751
11.500216
11.494802
11.488544
11.481475
11.473632
11.465048
11.455758
11.445791
11.43518
11.423946
11.412121
11.399728
11.386783
11.373303
11.359302
11.3448
11.329817
11.31438
11.298519
11.282264
11.265645
11.248684
11.231396
11.213793
11.195885
11.177684
11.15921
11.140496
11.228737
11.253737
11.277787
11.300821
11.322802
11.343696
11.363454
11.382039
11.399416
11.415544
11.430378
11.443889
11.456057
11.466877
11.476351
11.484495
11.491335
11.496898
11.501216
11.504314
11.506226
11.506977
11.506603
11.505138
11.502599
11.499024
11.494446
11.488895
11.482404
11.47501
11.466746
11.457652
11.447751
11.437086
11.425687
11.413583
11.400803
11.387377
11.373332
11.358697
11.343497
11.327759
11.311511
11.294783
11.277608
11.260014
11.24203
11.22368
11.204986
11.185969
11.166649
11.147049
11.127205
11.269671
11.292371
11.313973
11.334466
11.353844
11.372107
11.389248
11.405264
11.420146
11.433886
11.446468
11.457879
11.46811
11.477154
11.485013
11.491691
11.497205
11.501575
11.504804
11.506916
11.507932
11.507874
11.506771
11.50463
11.501475
11.49733
11.492218
11.486164
11.479192
11.471327
11.462595
11.453023
11.442632
11.431454
11.419517
11.406854
11.393496
11.379471
11.364804
11.349526
11.333662
11.317235
11.300272
11.282799
11.264849
11.246451
11.227634
11.208423
11.188846
11.168928
11.148693
11.12817
11.107391
11.353512
11.374637
11.394387
11.41277
11.429803
11.445506
11.459901
11.47301
11.484855
11.495457
11.504833
11.513003
11.519981
11.525786
11.530438
11.53396
11.53638
11.537722
11.538001
11.537254
11.535494
11.532752
11.529055
11.524423
11.518878
11.512442
11.505135
11.496983
11.488006
11.478224
11.467658
11.456333
11.444272
11.431498
11.418033
11.4039
11.38912
11.373717
11.357711
11.34112
11.323969
11.306288
11.288104
11.269449
11.250347
11.230821
11.210893
11.190587
11.169927
11.148942
11.127657
11.106097
11.084293
11.464542
11.484517
11.502836
11.51952
11.534598
11.548103
11.560073
11.570547
11.579567
11.587173
11.593406
11.598306
11.601912
11.604265
11.605401
11.605364
11.604205
11.601947
11.598636
11.594307
11.588999
11.582747
11.575586
11.567546
11.558657
11.548949
11.538448
11.527182
11.515177
11.502454
11.489036
11.474949
11.460218
11.444863
11.428903
11.412361
11.395257
11.377612
11.359447
11.340783
11.321644
11.302047
11.282012
11.26156
11.240704
11.219469
11.197885
11.175981
11.153787
11.131319
11.1086
11.085649
11.062494
11.595699
11.614449
11.631288
11.64625
11.659374
11.670707
11.680299
11.688201
11.694469
11.699158
11.702324
11.704025
11.704309
11.703251
11.700881
11.697265
11.692462
11.68652
11.679494
11.67143
11.662378
11.652383
11.641489
11.629737
11.617166
11.603813
11.589713
11.5749
11.559405
11.543256
11.52648
11.509107
11.491166
11.472676
11.453661
11.434144
11.414146
11.39369
11.372797
11.351487
11.329781
11.307697
11.285256
11.262477
11.239381
11.215986
11.192313
11.168379
11.144199
11.119801
11.095214
11.070466
11.04558
11.744756
11.761852
11.776808
11.789672
11.800499
11.809348
11.81628
11.821363
11.824662
11.826248
11.826182
11.824558
11.821405
11.816816
11.810853
11.803583
11.795069
11.785378
11.77457
11.762705
11.749838
11.736023
11.721313
11.705757
11.6894
11.672287
11.654459
11.635956
11.616813
11.597066
11.576744
11.555885
11.534516
11.512662
11.490349
11.467602
11.444447
11.420904
11.396998
11.372748
11.348176
11.323302
11.298144
11.272723
11.247058
11.221167
11.195071
11.168788
11.14234
11.115747
11.089026
11.911273
11.92609
11.938559
11.948748
11.956726
11.962568
11.96635
11.968155
11.968053
11.966156
11.962497
11.957188
11.9503
11.941914
11.932109
11.920958
11.908535
11.894914
11.880165
11.864354
11.847544
11.829796
11.811167
11.791713
11.771485
11.750533
11.728903
11.706639
11.683782
11.66037
11.636426
11.612009
11.587138
11.561841
11.536147
11.510083
11.483674
11.456946
11.42992
11.402618
11.375063
11.347273
11.319269
11.29107
11.262694
11.234161
11.205489
11.176699
11.147808
11.118837
11.089805
12.095066
12.106882
12.116167
12.123006
12.127486
12.1297
12.129731
12.127711
12.123675
12.117753
12.110032
12.100605
12.089562
12.076994
12.062985
12.047622
12.030985
12.013157
11.994212
11.974225
11.953263
11.931394
11.908678
11.885176
11.860945
11.836037
11.810502
11.784386
11.757732
11.730582
11.702971
11.67494
11.646518
11.617737
11.588624
11.559209
11.529516
11.499571
11.469396
11.439013
11.408443
11.377706
11.346821
11.315807
11.284682
11.253465
11.222173
11.190825
11.159439
11.128034
11.096628
12.295642
12.3037
12.309066
12.311846
12.312137
12.310086
12.305743
12.299251
12.290713
12.280238
12.267932
12.253899
12.23824
12.221054
12.202435
12.182479
12.161275
12.138909
12.115465
12.091021
12.065649
12.039421
12.012405
11.984661
11.956251
11.92723
11.89765
11.867557
11.836998
11.806017
11.774652
11.742939
11.71091
11.678595
11.646025
11.613228
11.580227
11.547048
11.513712
11.48024
11.446652
11.412967
11.379204
11.345379
11.311509
11.277613
11.243706
11.209805
11.175929
11.142093
11.108314
12.512101
12.515636
12.516336
12.514364
12.509793
12.502772
12.493427
12.481885
12.468267
12.452696
12.435288
12.41616
12.395421
12.37318
12.349541
12.324607
12.298474
12.271234
12.242975
12.21378
12.183728
12.152891
12.121342
12.089146
12.056365
12.023056
11.989272
11.955061
11.920466
11.885543
11.850325
11.814844
11.779133
11.743224
11.707146
11.670924
11.634583
11.598146
11.561633
11.525064
11.488456
11.451827
11.415193
11.37857
11.341973
11.305418
11.268918
11.23249
11.196149
11.159909
11.123787
12.743204
12.74147
12.736794
12.729323
12.719213
12.706609
12.691651
12.674481
12.655234
12.634045
12.611044
12.586353
12.560094
12.532384
12.503336
12.473059
12.441654
12.409219
12.375845
12.341621
12.306629
12.270945
12.234642
12.197788
12.160448
12.122678
12.084536
12.046067
12.007306
11.968326
11.929152
11.889814
11.850344
11.810773
11.771129
11.731436
11.691718
11.651993
11.612282
11.572601
11.532967
11.493394
11.453896
11.414486
11.375178
11.335985
11.296918
11.257991
11.219217
11.180608
11.142178
12.987517
12.979727
12.968943
12.955324
12.939036
12.920239
12.899092
12.875748
12.850358
12.823066
12.794011
12.763327
12.731144
12.697588
12.662776
12.626824
12.589836
12.551916
12.513159
12.473655
12.433491
12.392744
12.35149
12.309796
12.267727
12.225342
12.182697
12.139841
12.096816
12.053673
12.010447
11.967168
11.923867
11.880572
11.837309
11.794101
11.750968
11.707928
11.664998
11.622192
11.579524
11.537005
11.494648
11.452462
11.410458
11.368646
11.327036
11.285638
11.244462
11.203519
11.162819
13.24334
13.228807
13.211243
13.190834
13.16776
13.1422
13.114326
13.084303
13.052294
13.018454
12.982929
12.945864
12.907396
12.867655
12.826765
12.784845
12.742004
12.698347
12.653974
12.608973
12.563439
12.517447
12.471073
12.424385
12.377448
12.33032
12.283056
12.235709
12.188322
12.140934
12.093582
12.046297
11.999107
11.95204
11.905117
11.858359
11.811785
11.765409
11.719246
11.673306
11.627601
11.582139
11.536929
11.491979
11.447295
11.402885
11.358756
11.314916
11.27137
11.228126
11.185193
13.509004
13.487042
13.462058
13.434255
13.403832
13.370981
13.335887
13.298725
13.259668
13.218879
13.176516
13.132727
13.087656
13.041436
12.994196
12.946056
12.897131
12.847528
12.797346
12.746667
12.695601
12.644217
12.592588
12.540784
12.48887
12.4369
12.384932
12.333017
12.281193
12.229499
12.177969
12.126632
12.075516
12.024644
11.974036
11.923709
11.87368
11.823959
11.774559
11.725487
11.67675
11.628355
11.580307
11.532609
11.485267
11.438284
11.391663
11.34541
11.299527
11.254018
11.208891
13.782749
13.752722
13.719724
13.683974
13.645687
13.605067
13.562307
13.517595
13.471111
13.423026
13.373502
13.322694
13.270747
13.217799
13.163982
13.109417
13.054218
12.998494
12.942346
12.885862
12.829134
12.772242
12.715257
12.658248
12.601277
12.544399
12.487667
12.431131
12.374826
12.318788
12.26305
12.207638
12.152577
12.097888
12.043586
11.989688
11.936205
11.883145
11.830517
11.778325
11.726574
11.675265
11.624401
11.573982
11.524009
11.474482
11.425403
11.376771
11.328588
11.280853
14.06281
14.024136
13.982584
13.938389
13.891778
13.842963
13.792149
13.73953
13.685294
13.629615
13.57266
13.514585
13.455538
13.395659
13.335082
13.273927
13.212309
13.150334
13.088104
13.025707
12.96323
12.900753
12.838344
12.776071
12.713995
12.652169
12.590642
12.529457
12.468651
12.408257
12.348303
12.288813
12.22981
12.171309
12.113324
12.055868
11.998948
11.942569
11.886736
11.83145
11.776711
11.722519
11.668871
11.615765
11.563197
11.511165
11.459666
11.408697
11.358255
11.308337
14.347439
14.299597
14.249015
14.195938
14.1406
14.083227
14.024028
13.963203
13.900943
13.837425
13.772818
13.707279
13.640957
13.573989
13.506512
13.438646
13.370505
13.302189
13.233797
13.165419
13.097135
13.029029
12.961162
12.893597
12.826399
12.759611
12.69328
12.627446
12.562144
12.497402
12.433245
12.369696
12.30677
12.244482
12.182841
12.121856
12.061531
12.001867
11.942865
11.884523
11.826836
11.769801
11.713411
11.657661
11.602543
11.548051
11.494178
11.440919
11.388265
11.336211
14.634927
14.577466
14.517443
14.45511
14.390712
14.324479
14.256624
14.187351
14.11685
14.045303
13.972875
13.899724
13.825998
13.751831
13.677363
13.602707
13.527973
13.453263
13.378669
13.304279
13.230161
13.156411
13.083081
13.010231
12.937913
12.866175
12.795058
12.724598
12.654825
12.585765
12.517439
12.449865
12.383056
12.317021
12.251767
12.187297
12.123613
12.060711
11.998588
11.937238
11.876654
11.816826
11.757746
11.699403
11.641787
11.584887
11.528694
11.473196
11.418384
11.364248
14.923629
14.856169
14.786363
14.714473
14.640747
14.565415
14.488694
14.410788
14.331888
14.252173
14.171808
14.090945
14.009735
13.928308
13.846793
13.765306
13.683954
13.602833
13.522026
13.441629
13.361682
13.282306
13.203538
13.125425
13.048021
12.971369
12.895505
12.820462
12.746265
12.672936
12.600492
12.528946
12.458308
12.388582
12.319771
12.251874
12.184888
12.118807
12.053623
11.989325
11.925902
11.863341
11.80163
11.740754
11.680698
11.62145
11.562994
11.505317
11.448404
15.211977
15.134216
15.054362
14.972681
14.889422
14.804818
14.719082
14.632417
14.545013
14.457045
14.368677
14.280054
14.191322
14.10261
14.01404
13.925721
13.837759
13.750253
13.663237
13.576865
13.491153
13.406188
13.322021
13.238698
13.156263
13.074755
12.994205
12.914642
12.836085
12.758553
12.682058
12.606608
12.532209
12.458861
12.386562
12.315308
12.24509
12.175898
12.107721
12.040543
11.97435
11.909124
11.844848
11.781504
11.719075
11.657543
11.596889
11.537095
11.478144
15.498504
15.410214
15.320119
15.228483
15.135554
15.041566
14.946726
14.851234
14.755275
14.659021
14.56263
14.466243
14.369995
14.274015
14.178419
14.083302
13.988768
13.894913
13.801786
13.709485
13.618061
13.527578
13.438085
13.349625
13.262235
13.175949
13.090793
13.006789
12.923954
12.8423
12.761836
12.682564
12.604485
12.527596
12.451889
12.377357
12.303986
12.231762
12.160668
12.090687
12.021797
11.95398
11.887213
11.821474
11.756742
11.692995
11.630211
11.568367
11.507444
15.781852
15.68288
15.582421
15.480733
15.378062
15.274638
15.170664
15.06633
14.961816
14.85729
14.752905
14.648791
14.545075
14.441881
14.339321
14.23748
14.136453
14.036325
13.937158
13.839022
13.741974
13.646065
13.55134
13.457837
13.365588
13.274619
13.184953
13.096605
13.009587
12.923907
12.839566
12.756566
12.6749
12.59456
12.515537
12.437814
12.361377
12.286207
12.212281
12.139578
12.068075
11.997745
11.928565
11.860507
11.793547
11.727659
11.662817
11.598995
11.536169
16.060777
15.951044
15.840168
15.728398
15.615973
15.503118
15.390033
15.276896
15.163875
15.051135
14.938826
14.827062
14.715965
14.605649
14.496217
14.387751
14.280335
14.174044
14.068941
13.965082
13.862519
13.761297
13.661454
13.563021
13.466024
13.370484
13.276417
13.183835
13.092742
13.003142
12.915032
12.828406
12.743255
12.659566
12.577322
12.496507
12.417098
12.339073
12.262406
12.187071
12.113039
12.040282
11.96877
11.898475
11.829365
11.761413
11.694587
11.628859
16.334166
16.213662
16.092378
15.970556
15.848423
15.726197
15.604075
15.482218
15.360788
15.239937
15.119805
15.000505
14.882146
14.764831
14.648652
14.533689
14.420013
14.307692
14.196781
14.087331
13.979384
13.872979
13.768146
13.664911
13.563293
13.463307
13.364964
13.268268
13.173221
13.079818
12.988052
12.897914
12.809387
12.722456
12.637098
12.553292
12.471012
12.390229
12.310916
12.233041
12.156571
12.081475
12.007718
11.935268
11.86409
11.794152
11.725421
11.657862
16.60103
16.469808
16.338189
16.206401
16.074661
15.943177
15.812132
15.681682
15.551977
15.423155
15.295346
15.168655
15.043181
14.919017
14.796244
14.674935
14.555151
14.436951
14.320384
14.205491
14.092308
13.980866
13.871187
13.763292
13.657192
13.552898
13.450412
13.349734
13.25086
13.15378
13.058482
12.96495
12.873165
12.783105
12.694744
12.608055
12.523008
12.439571
12.35771
12.277391
12.198578
12.121233
12.045319
11.9708
11.897637
11.825795
11.755236
11.685923
16.86051
16.718686
16.576855
16.435239
16.294042
16.153455
16.013648
15.874771
15.73696
15.60034
15.465028
15.33112
15.198708
15.067869
14.938678
14.811195
14.685475
14.561566
14.43951
14.319339
14.201082
14.084761
13.970394
13.857991
13.74756
13.639103
13.532618
13.428098
13.325532
13.224908
13.126207
13.029408
12.934486
12.841416
12.750167
12.660706
12.573001
12.487015
12.402709
12.320046
12.238984
12.159484
12.081503
12.005003
11.92994
11.856276
11.783969
11.712979
17.11187
16.959613
16.80775
16.656491
16.506026
16.356531
16.208162
16.061058
15.915341
15.771125
15.628511
15.487588
15.348434
15.211118
15.075701
14.942236
14.810768
14.681336
14.553972
14.428702
14.305545
14.184516
14.065626
13.948878
13.834274
13.721809
13.611474
13.503258
13.397145
13.293114
13.191144
13.091207
12.993275
12.897317
12.803298
12.711182
12.62093
12.532501
12.445855
12.360948
12.277736
12.196174
12.116219
12.037825
11.960948
11.885545
11.81157
11.738981
17.354496
17.192025
17.030353
16.869678
16.710175
16.552002
16.395303
16.2402
16.086806
15.93522
15.785529
15.637812
15.492134
15.348554
15.207123
15.067883
14.930869
14.796111
14.663633
14.533451
14.405578
14.280021
14.156782
14.03586
13.917248
13.800935
13.686907
13.575146
13.465631
13.358336
13.253234
13.150293
13.049481
12.95076
12.854092
12.759437
12.66675
12.575989
12.487108
12.400059
12.314795
12.231267
12.149429
12.069231
11.990626
11.913566
11.838004
11.763893
17.587895
17.41547
17.244253
17.074424
16.906144
16.739555
16.574782
16.411937
16.251118
16.092408
15.935885
15.781612
15.629644
15.48003
15.332807
15.18801
15.045663
14.905788
14.768397
14.633501
14.501104
14.371205
14.243799
14.118877
13.996427
13.876431
13.758869
13.643719
13.530951
13.420538
13.312444
13.206636
13.103073
13.001716
12.902522
12.805445
12.710439
12.617455
12.526444
12.437356
12.350139
12.264741
12.181111
12.099197
12.018949
11.940316
11.863246
11.787691
17.81168
17.6296
17.449134
17.270445
17.093678
16.918957
16.746393
16.576082
16.408106
16.242539
16.079442
15.918866
15.760856
15.605447
15.452668
15.302542
15.155084
15.010306
14.868213
14.728806
14.592081
14.45803
14.326642
14.1979
14.071785
13.948275
13.827342
13.708959
13.593091
13.479705
13.368762
13.260222
13.154042
13.050176
12.948578
12.849198
12.751986
12.65689
12.563856
12.47283
12.383758
12.296585
12.211255
12.127714
12.045908
11.965782
11.887284
11.81036
18.025569
17.834163
17.644772
17.457542
17.2726
17.090054
16.909998
16.732513
16.557669
16.385522
16.216122
16.049507
15.885711
15.724757
15.566664
15.411444
15.259103
15.109643
14.963061
14.81935
14.678499
14.540491
14.405308
14.272928
14.143324
14.016469
13.892329
13.770871
13.652056
13.535845
13.422194
13.311059
13.202393
13.096146
12.992267
12.890702
12.791398
12.694299
12.599347
12.506485
12.415656
12.326801
12.239862
12.15478
12.0715
11.989963
11.910113
11.831895
18.229375
18.028996
17.831027
17.635596
17.442809
17.252761
17.065527
16.881175
16.699758
16.521321
16.345898
16.173517
16.004198
15.837955
15.674795
15.51472
15.357728
15.203811
15.052957
14.905152
14.760377
14.618608
14.47982
14.343983
14.211067
14.081037
13.953854
13.829479
13.707869
13.58898
13.472763
13.35917
13.248149
13.139647
13.033608
12.929976
12.828692
12.729698
12.632933
12.538335
12.445845
12.355401
12.266941
12.180405
12.095733
12.012864
11.931739
11.8523
18.422994
18.214017
18.007835
17.804556
17.60427
17.407054
17.212968
17.022064
16.83438
16.649947
16.468788
16.290918
16.116345
15.945072
15.777096
15.612409
15.450999
15.292851
15.137944
14.986256
14.837759
14.692425
14.550221
14.411111
14.275058
14.142021
14.011959
13.884824
13.760571
13.639149
13.520507
13.404591
13.291345
13.180712
13.072634
12.96705
12.863897
12.763115
12.664638
12.568404
12.474347
12.382405
12.292512
12.204605
12.118622
12.034498
11.952173
11.871585
19.275827
19.049844
18.826652
18.606403
18.389215
18.175197
17.964436
17.757007
17.552966
17.352361
17.155225
16.961585
16.771458
16.584853
16.401773
16.222217
16.046174
15.873633
15.704577
15.538985
15.376831
15.218089
15.062727
14.910712
14.762008
14.616575
14.474372
14.335357
14.199482
14.066701
13.936962
13.810215
13.686404
13.565475
13.447368
13.332026
13.219386
13.109386
13.001962
12.89705
12.794584
12.694497
12.596722
12.501191
12.407839
12.316599
12.227404
12.140188
12.054885
11.971432
11.889764
19.474867
19.239868
19.008084
18.779641
18.554643
18.333175
18.115307
17.901094
17.690578
17.483789
17.280747
17.081465
16.885945
16.694185
16.506177
16.321907
16.141356
15.964502
15.791319
15.621776
15.455842
15.29348
15.134653
14.97932
14.827438
14.678962
14.533846
14.392039
14.253492
14.118151
13.985962
13.856867
13.730809
13.607727
13.487561
13.370246
13.255719
13.143914
13.034762
12.928197
12.824149
12.722549
12.623327
12.526414
12.431739
12.339234
12.248829
12.160457
12.074049
11.989538
11.906858
19.662528
19.418965
19.179024
18.942811
18.710408
18.481883
18.257285
18.036654
17.820013
17.607378
17.398756
17.194144
16.993533
16.796909
16.604252
16.415537
16.230737
16.049819
15.872748
15.699486
15.529993
15.364225
15.202137
15.043683
14.888814
14.737478
14.589623
14.445194
14.304136
14.166391
14.0319
13.900602
13.772434
13.647334
13.525235
13.406071
13.289774
13.176275
13.065503
12.957388
12.851858
12.748841
12.648264
12.550055
12.454141
12.360452
12.268916
12.179461
12.092018
12.006518
11.922892
19.838947
19.587279
19.339624
19.096066
18.856669
18.621479
18.390531
18.163845
17.94143
17.723287
17.509407
17.299777
17.094374
16.893173
16.696144
16.503251
16.314457
16.12972
15.948997
15.772243
15.599408
15.430444
15.265298
15.103916
14.946245
14.792227
14.641805
14.494919
14.351508
14.211511
14.074865
13.941503
13.811361
13.68437
13.560462
13.439568
13.321615
13.206532
13.094246
12.984682
12.877766
12.773424
12.67158
12.57216
12.47509
12.380295
12.287701
12.197235
12.108825
12.022401
11.937893
20.004321
19.745008
19.490081
19.239605
18.993622
18.752161
18.515239
18.28286
18.055019
17.831701
17.612884
17.398543
17.188644
16.98315
16.78202
16.58521
16.392672
16.204358
16.020215
15.84019
15.664228
15.492271
15.324263
15.160143
14.999851
14.843325
14.690503
14.54132
14.395711
14.25361
14.114949
13.979661
13.847674
13.718919
13.593323
13.470813
13.351315
13.234753
13.121054
13.010138
12.90193
12.796352
12.693328
12.592779
12.49463
12.398804
12.305225
12.213816
12.124505
12.037222
11.951891
20.158888
19.892391
19.630635
19.373663
19.1215
18.874157
18.631634
18.39392
18.160995
17.93283
17.709392
17.490642
17.276536
17.067027
16.862063
16.661591
16.465555
16.273899
16.086561
15.903482
15.7246
15.549851
15.379171
15.212496
15.04976
14.890895
14.735835
14.584511
14.436853
14.292791
14.152254
14.01517
13.881465
13.751066
13.623898
13.499884
13.378947
13.26101
13.145995
13.033822
12.924411
12.817684
12.713561
12.611963
12.512811
12.416027
12.321531
12.229245
20.302931
20.029707
19.761557
19.498508
19.240565
18.987723
18.739965
18.497267
18.259593
18.026904
17.799153
17.576289
17.358259
17.145006
16.936467
16.732583
16.533288
16.338517
16.148204
15.962282
15.780681
15.603333
15.430168
15.261116
15.096105
14.935066
14.777924
14.624609
14.475046
14.329162
14.186881
14.048129
13.912828
13.780902
13.652273
13.526862
13.40459
13.285376
13.169139
13.055799
12.945273
12.837479
12.732337
12.629765
12.529683
12.43201
12.336664
20.436763
20.15726
19.883147
19.61443
19.351099
19.093133
18.8405
18.59316
18.351066
18.114166
17.882402
17.655713
17.434034
17.217299
17.005439
16.798383
16.59606
16.398398
16.205322
16.016759
15.832635
15.652874
15.477403
15.306145
15.139026
14.975969
14.816898
14.661736
14.510408
14.362834
14.218937
14.078639
13.941859
13.808519
13.678538
13.551833
13.428324
13.307927
13.19056
13.076138
12.964579
12.855799
12.749714
12.646241
12.545298
12.446803
12.350672
20.560723
20.275382
19.995725
19.721742
19.453406
19.190681
18.933521
18.681873
18.435678
18.194872
17.959386
17.729149
17.504088
17.284127
17.069189
16.859196
16.654069
16.453728
16.258094
16.067088
15.880628
15.698636
15.52103
15.347733
15.178662
15.01374
14.852884
14.696016
14.543055
14.39392
14.24853
14.106803
13.968657
13.834011
13.702779
13.57488
13.450228
13.328739
13.210328
13.094909
12.982397
12.872706
12.76575
12.661446
12.559709
12.460455
12.363601
20.67517
20.38442
20.099629
19.820769
19.5478
19.28067
19.019322
18.763689
18.513702
18.269284
18.030358
17.796843
17.568657
17.345717
17.127936
16.91523
16.707514
16.504701
16.306707
16.113445
15.924831
15.740779
15.561206
15.386027
15.215158
15.048515
14.886015
14.727574
14.573109
14.422535
14.275768
14.132725
13.993321
13.857471
13.725089
13.596089
13.470385
13.347891
13.228519
13.112181
12.998792
12.888262
12.780506
12.675436
12.572969
12.473017
12.375496
20.780479
20.484736
20.195207
19.911848
19.634605
19.363414
19.098204
18.838899
18.585416
18.337671
18.095577
17.859043
17.62798
17.402295
17.181898
16.966696
16.756598
16.551511
16.351345
16.156009
15.965414
15.779469
15.598086
15.421178
15.248656
15.080432
14.916421
14.756535
14.600687
14.448791
14.300761
14.156509
14.01595
13.878994
13.745555
13.615545
13.488876
13.365459
13.245205
13.128025
13.013829
12.90253
12.794039
12.688269
12.585131
12.484539
12.386407
20.877035
20.576702
20.282817
19.995322
19.714152
19.43923
19.170474
18.907796
18.651104
18.400305
18.155302
17.915998
17.682295
17.454094
17.231297
17.013806
16.801523
16.594352
16.392195
16.194959
16.002547
15.814868
15.631828
15.453335
15.279298
15.109627
14.944232
14.783022
14.625909
14.472804
14.323616
14.178259
14.036641
13.898674
13.764268
13.633334
13.505781
13.38152
13.260459
13.142508
13.027576
12.915574
12.806411
12.699998
12.596248
12.495071
12.39638
20.965231
20.660694
20.36282
20.07154
19.786775
19.508439
19.236438
18.970675
18.711048
18.457456
18.209795
17.967958
17.731843
17.501342
17.276353
17.056771
16.842492
16.633417
16.429443
16.23047
16.036401
15.847138
15.662585
15.482647
15.307228
15.136236
14.969578
14.807161
14.648893
14.494684
14.344441
14.198075
14.055492
13.916603
13.781316
13.649539
13.521181
13.39615
13.274353
13.1557
13.040097
12.927453
12.817678
12.710681
12.606372
12.504662
12.405462
22.692464
22.348916
22.012459
21.683083
21.360765
21.045464
20.737091
20.435579
20.140848
19.852808
19.571361
19.296404
19.02783
18.765531
18.509396
18.259314
18.015173
17.776861
17.544268
17.317283
17.095798
16.879705
16.668898
16.46327
16.262719
16.067143
15.87644
15.690512
15.509259
15.332584
15.160391
14.992585
14.829071
14.669755
14.514543
14.363342
14.216058
14.072599
13.932873
13.796785
13.664243
13.535153
13.409423
13.286959
13.167667
13.051455
12.93823
12.827899
12.720371
12.615556
12.513362
12.4137
22.785696
22.437569
22.09678
21.763306
21.437108
21.118125
20.806268
20.501455
20.203594
19.912582
19.628314
19.350676
19.079555
18.814833
18.556393
18.304117
18.057887
17.817585
17.583096
17.354304
17.131096
16.913359
16.700983
16.493858
16.291879
16.094938
15.902932
15.715758
15.533315
15.355504
15.182224
15.01338
14.848873
14.688608
14.532489
14.38042
14.232307
14.088056
13.947572
13.81076
13.677526
13.547775
13.421413
13.298345
13.178477
13.061714
12.947962
12.837129
12.729122
12.623849
12.521217
12.421137
22.869755
22.517489
22.172786
21.835611
21.505907
21.183601
20.8686
20.560807
20.26012
19.966427
19.679613
19.399557
19.126137
18.859229
18.59871
18.344456
18.096342
17.854246
17.618048
17.387627
17.162865
16.943647
16.729857
16.521384
16.318116
16.119946
15.926766
15.73847
15.554956
15.376121
15.201863
15.032083
14.866683
14.705563
14.548627
14.395778
14.246919
14.101954
13.960788
13.823324
13.689467
13.559121
13.43219
13.308579
13.188192
13.070934
12.956709
12.845424
12.736985
12.6313
12.528275
12.42782
22.945122
22.589137
22.240918
21.900418
21.567567
21.24228
20.924455
20.613988
20.310764
20.014665
19.725565
19.443339
19.167857
18.89899
18.636606
18.380577
18.130774
17.88707
17.649339
17.417458
17.191304
16.970757
16.755701
16.546019
16.341597
16.142325
15.948093
15.758793
15.574319
15.394566
15.219432
15.048815
14.882614
14.720729
14.563061
14.409513
14.259986
14.114382
13.972605
13.834558
13.700144
13.569265
13.441825
13.317728
13.196876
13.079174
12.964526
12.852837
12.744012
12.637958
12.534582
12.43379
23.01227
22.652966
22.30161
21.958143
21.622484
21.294537
20.974194
20.661341
20.355855
20.05761
19.766474
19.482313
19.204993
18.934378
18.670332
18.412722
18.161414
17.916277
17.67718
17.443998
17.216603
16.994874
16.778689
16.567931
16.362482
16.162229
15.96706
15.776865
15.591536
15.410967
15.235053
15.06369
14.896776
14.73421
14.575892
14.421721
14.271599
14.125427
13.983107
13.84454
13.70963
13.578277
13.450384
13.325855
13.20459
13.086494
12.971469
12.85942
12.750252
12.64387
12.54018
12.43909
23.071666
22.70942
22.355285
22.009189
21.671043
21.340741
21.018169
20.703204
20.395716
20.095571
19.802632
19.516759
19.237812
18.96565
18.700134
18.441124
18.188485
17.942079
17.701775
17.467442
17.23895
17.016175
16.798992
16.587281
16.380924
16.179804
15.983807
15.792821
15.606736
15.425446
15.248842
15.07682
14.909276
14.746108
14.587214
14.432494
14.281846
14.135172
13.992372
13.853346
13.717997
13.586226
13.457933
13.333021
13.211392
13.092947
12.977589
12.865223
12.755751
12.649079
12.545113
12.443759
23.123762
22.758932
22.402355
22.053951
21.713621
21.381252
21.056723
20.739903
20.430657
20.128845
19.834323
19.546947
19.266572
18.993054
18.726247
18.46601
18.212202
17.964684
17.723321
17.487978
17.258524
17.034831
16.816774
16.604228
16.397074
16.195193
15.99847
15.80679
15.620044
15.43812
15.260911
15.088312
14.920216
14.75652
14.597122
14.44192
14.290812
14.143697
14.000476
13.861049
13.725316
13.593177
13.464534
13.339287
13.217338
13.098588
12.982939
12.870294
12.760556
12.653631
12.549423
12.447837
23.168997
22.801921
22.443221
22.09281
21.750581
21.416416
21.090185
20.771754
20.46098
20.157719
19.861822
19.573141
19.291525
19.016828
18.7489
18.487597
18.232775
17.984291
17.742007
17.505787
17.275498
17.051009
16.832191
16.618921
16.411075
16.208534
16.01118
15.818899
15.631577
15.449104
15.271371
15.09827
14.929695
14.765541
14.605705
14.450084
14.298576
14.15108
14.007494
13.867718
13.731651
13.599195
13.470247
13.34471
13.222483
13.103468
12.987566
12.87468
12.764712
12.657567
12.553148
12.451362
23.207797
22.838791
22.478268
22.126134
21.782275
21.446567
21.118876
20.799061
20.486976
20.182471
19.885394
19.595592
19.312912
19.037203
18.768313
18.506095
18.250402
18.001089
17.758016
17.521044
17.290038
17.064865
16.845396
16.631504
16.423065
16.219957
16.022063
15.829265
15.64145
15.458506
15.280323
15.106792