/*--------------------------------*- C++ -*----------------------------------*\
| =========                 |                                                 |
| \\      /  F ield         | OpenFOAM: The Open Source CFD Toolbox           |
|  \\    /   O peration     | Version:  2312                                  |
|   \\  /    A nd           | Website:  www.openfoam.com                      |
|    \\/     M anipulation  |                                                 |
\*---------------------------------------------------------------------------*/
FoamFile
{
    version     2.0;
    format      ascii;
    arch        "LSB;label=32;scalar=64";
    class       volScalarField;
    location    "0.07";
    object      O2;
}
// * * * * * * * * * * * * * * * * * * * * * * * * * * * * * * * * * * * * * //

dimensions      [0 0 0 0 0 0 0];

internalField   nonuniform List<scalar> 
3272
(
0.22657569
0.22623374
0.22586947
0.22552522
0.22521715
0.22493636
0.22465349
0.22436808
0.22408997
0.22382038
0.22355276
0.22328619
0.22302616
0.22277808
0.22254346
0.22232087
0.22210903
0.22190788
0.2217176
0.22153776
0.22136739
0.22120547
0.22105114
0.22090386
0.22076332
0.22062939
0.22050205
0.2203813
0.22026721
0.22015985
0.22005932
0.2199657
0.2198791
0.21979962
0.21972736
0.21966265
0.21960557
0.21955633
0.21951494
0.21948148
0.21945596
0.21943825
0.21942816
0.21942544
0.2194298
0.219441
0.21945885
0.21948325
0.21951399
0.21955111
0.21959442
0.21964375
0.21969892
0.22286518
0.22271177
0.2225415
0.2223671
0.22219604
0.22202764
0.22185457
0.22167707
0.2214991
0.22132146
0.22114206
0.22096134
0.22078269
0.22060953
0.22044332
0.22028385
0.2201309
0.21998479
0.21984591
0.21971423
0.21958933
0.21947071
0.21935797
0.21925083
0.2191492
0.21905308
0.21896255
0.21887769
0.21879862
0.21872543
0.2186585
0.21859766
0.21854325
0.21849523
0.21845382
0.21841926
0.21839175
0.21837142
0.21835839
0.21835273
0.21835445
0.21836342
0.2183795
0.21840252
0.21843211
0.21846821
0.21851061
0.21855916
0.21861374
0.21867425
0.21874053
0.21881241
0.21888979
0.21937215
0.21922411
0.219076
0.21892956
0.21878629
0.21864603
0.2185072
0.21836973
0.21823437
0.21810112
0.21796938
0.21783943
0.21771265
0.21759047
0.21747363
0.21736225
0.21725642
0.21715643
0.2170625
0.21697466
0.21689275
0.21681657
0.21674621
0.21668112
0.21662171
0.21656766
0.21651922
0.2164765
0.21643956
0.2164085
0.21638345
0.21636451
0.21635179
0.21634541
0.2163455
0.2163522
0.21636568
0.21638604
0.21641335
0.21644755
0.21648888
0.21653711
0.21659208
0.21665363
0.21672156
0.21679567
0.21687582
0.21696185
0.21705362
0.217151
0.21725382
0.21736189
0.21747507
0.21656676
0.21637537
0.21619029
0.21601178
0.2158401
0.21567523
0.21551684
0.21536484
0.21521922
0.21507984
0.21494648
0.2148192
0.21469842
0.21458455
0.21447784
0.21437832
0.21428606
0.21420124
0.21412412
0.21405409
0.21399136
0.21393554
0.21388685
0.21384517
0.21381046
0.21378267
0.21376184
0.21374796
0.21374106
0.21374115
0.21374826
0.21376245
0.21378373
0.21381221
0.21384778
0.21389076
0.21394108
0.21399872
0.21406371
0.21413604
0.21421567
0.21430247
0.21439629
0.21449694
0.21460422
0.21471792
0.21483786
0.21496384
0.2150957
0.21523324
0.21537626
0.21552452
0.21567784
0.21418926
0.21395827
0.2137353
0.21352061
0.2133144
0.2131168
0.21292789
0.21274772
0.21257631
0.21241366
0.21225978
0.21211471
0.21197861
0.2118516
0.21173377
0.21162511
0.21152559
0.21143607
0.21135558
0.21128437
0.2112218
0.21116819
0.21112359
0.21108791
0.21106109
0.21104308
0.21103386
0.21103336
0.21104151
0.21105838
0.21108386
0.2111179
0.21116029
0.21121153
0.21127134
0.21133966
0.21141646
0.21150168
0.21159529
0.21169718
0.21180724
0.21192532
0.21205123
0.21218477
0.2123257
0.21247379
0.2126288
0.21279051
0.21295868
0.21313306
0.2133134
0.2134994
0.21369081
0.21198641
0.21172784
0.21147797
0.21123703
0.21100525
0.21078283
0.21056992
0.21036668
0.21017322
0.20998967
0.20981611
0.20965268
0.20949948
0.20935663
0.20922418
0.20910218
0.20899059
0.2088906
0.20880094
0.20872195
0.20865284
0.20859412
0.20854592
0.20850819
0.20848088
0.20846396
0.20845743
0.20846114
0.2084751
0.20849935
0.20853379
0.20857793
0.20863216
0.20869678
0.20877133
0.20885575
0.20894996
0.20905388
0.20916739
0.20929037
0.20942267
0.20956409
0.20971442
0.20987344
0.21004088
0.2102165
0.21040002
0.21059116
0.21078963
0.21099515
0.21120739
0.21142604
0.21165077
0.20983051
0.20955329
0.20928546
0.2090272
0.2087787
0.20854012
0.20831164
0.2080934
0.20788554
0.2076882
0.2075015
0.20732559
0.20716059
0.2070066
0.20686371
0.20673199
0.20661145
0.20650356
0.20640649
0.20632107
0.20624619
0.20618267
0.20613064
0.2060901
0.20606104
0.20604345
0.20603737
0.20604262
0.20605929
0.20608743
0.20612694
0.20617718
0.20623876
0.206312
0.20639636
0.20649176
0.20659812
0.20671533
0.20684327
0.20698178
0.2071307
0.20728984
0.20745897
0.20763785
0.20782622
0.20802381
0.20823032
0.20844544
0.20866886
0.20890024
0.20913925
0.20938552
0.20963868
0.20767943
0.20738896
0.20710875
0.20683893
0.20657961
0.20633092
0.20609297
0.20586587
0.20564973
0.20544468
0.2052508
0.20506822
0.20489704
0.20473737
0.2045893
0.20445295
0.2043284
0.20421685
0.20411694
0.20402848
0.20395128
0.20388615
0.20383312
0.20379222
0.20376346
0.20374687
0.20374252
0.2037502
0.20377014
0.20380233
0.20384672
0.20390256
0.20397066
0.20405137
0.2041441
0.20424876
0.20436529
0.20449358
0.20463352
0.20478495
0.20494772
0.20512162
0.20530645
0.20550198
0.20570793
0.20592402
0.20614997
0.20638545
0.20663013
0.20688366
0.20714567
0.20741578
0.20769359
0.20552812
0.20522793
0.20493898
0.20466134
0.20439507
0.20414023
0.20389687
0.20366505
0.20344484
0.2032363
0.2030395
0.20285451
0.20268139
0.20252023
0.20237109
0.20223416
0.20211079
0.20199881
0.20189955
0.20181147
0.20173562
0.20167224
0.20162137
0.20158307
0.20155737
0.20154431
0.20154393
0.20155609
0.20158112
0.20161891
0.20166947
0.20173192
0.20180748
0.20189623
0.20199764
0.20211168
0.20223826
0.2023773
0.2025287
0.20269232
0.20286801
0.20305559
0.20325486
0.20346559
0.20368753
0.20392039
0.2041639
0.20441773
0.20468154
0.20495498
0.20523766
0.2055292
0.20582916
0.20338228
0.20307522
0.20278044
0.20249792
0.20222765
0.20196964
0.20172388
0.20149038
0.20126914
0.20106018
0.20086352
0.20067919
0.2005072
0.20034755
0.20020017
0.20006715
0.1999462
0.1998378
0.19974104
0.19965655
0.19958478
0.1995258
0.19947965
0.1994464
0.1994261
0.19941885
0.19942446
0.19944313
0.19947503
0.19952008
0.19957827
0.19964867
0.19973302
0.19983083
0.19994182
0.20006594
0.20020314
0.20035335
0.20051647
0.20069238
0.20088096
0.20108203
0.2012954
0.20152087
0.20175818
0.20200708
0.20226728
0.20253847
0.2028203
0.20311243
0.20341448
0.20124829
0.20093717
0.20063932
0.20035466
0.20008311
0.19982461
0.19957909
0.1993465
0.19912679
0.19891994
0.19872592
0.19854472
0.19837633
0.19822078
0.19807812
0.19795012
0.19783448
0.19773071
0.19763914
0.19756051
0.19749487
0.19744226
0.19740274
0.19737639
0.19736338
0.19736346
0.19737668
0.19740344
0.19744363
0.19749737
0.19756405
0.19764372
0.19773796
0.19784579
0.19796718
0.19810211
0.19825054
0.19841242
0.19858767
0.19877618
0.19897783
0.19919248
0.19941995
0.19966004
0.19991252
0.20017713
0.20045361
0.20074164
0.2010409
0.20135102
0.20167163
0.19913077
0.19881854
0.1985205
0.1982365
0.19796639
0.19771004
0.19746733
0.19723815
0.19702241
0.19682001
0.19663089
0.19645501
0.19629233
0.19614282
0.19600822
0.19588652
0.19577711
0.19567974
0.19559549
0.19552439
0.19546647
0.19542177
0.19539031
0.19537245
0.19536781
0.19537644
0.19539865
0.19543453
0.19548407
0.19554736
0.19562325
0.1957135
0.19581815
0.19593667
0.19606905
0.19621531
0.19637541
0.19654932
0.19673698
0.1969383
0.19715317
0.19738146
0.19762301
0.19787764
0.19814513
0.19842523
0.19871768
0.19902219
0.19933842
0.19966604
0.20000465
0.19703281
0.19672257
0.19642733
0.19614688
0.19588101
0.19562952
0.19539223
0.19516896
0.19495957
0.19476393
0.19458191
0.19441345
0.19425846
0.19411878
0.19399221
0.19387836
0.19377643
0.19368775
0.19361233
0.19355019
0.19350136
0.1934659
0.19344381
0.1934353
0.19344008
0.19345839
0.19349048
0.1935363
0.19359588
0.19366923
0.19375532
0.19385667
0.19397219
0.19410181
0.19424556
0.19440343
0.19457544
0.19476156
0.19496175
0.19517592
0.19540401
0.19564588
0.1959014
0.19617039
0.19645266
0.19674797
0.19705606
0.19737665
0.19770942
0.19805404
0.19841012
0.1949567
0.19465161
0.19436225
0.19408831
0.19382953
0.19358563
0.19335637
0.19314153
0.19294088
0.19275426
0.19258151
0.1924225
0.19227919
0.19214917
0.19203217
0.19192702
0.19183521
0.1917567
0.19169149
0.1916396
0.19160104
0.19157613
0.19156444
0.19156611
0.19158123
0.19161016
0.19165282
0.1917093
0.1917796
0.19186267
0.19196043
0.19207297
0.1921997
0.19234069
0.19249599
0.19266564
0.19284964
0.19304799
0.19326067
0.19348763
0.1937288
0.19398407
0.19425332
0.1945364
0.19483312
0.19514326
0.19546657
0.19580279
0.19615161
0.19651269
0.19688565
0.19290447
0.19260775
0.19232733
0.19206287
0.191814
0.1915804
0.19136178
0.19115784
0.19096828
0.19079289
0.1906315
0.19048612
0.19035418
0.19023539
0.19012853
0.19003503
0.18995482
0.18988788
0.18983418
0.18979374
0.18976694
0.18975322
0.18975274
0.18976554
0.18979205
0.18983219
0.18988607
0.1899539
0.19003446
0.19012874
0.19023842
0.1903623
0.19050045
0.19065298
0.19081994
0.19100139
0.19119736
0.19140788
0.19163293
0.1918725
0.19212652
0.19239493
0.1926776
0.1929744
0.19328517
0.1936097
0.19394776
0.19429909
0.19466339
0.19504034
0.19542957
0.19087824
0.19059305
0.19032463
0.19007253
0.18983634
0.18961568
0.18941021
0.18921962
0.18904339
0.18888136
0.1887356
0.18860341
0.18848426
0.18837733
0.18828372
0.18820335
0.18813616
0.18808208
0.1880411
0.18801363
0.18799901
0.1879975
0.18800906
0.18803409
0.18807256
0.18812454
0.18819009
0.18826929
0.18836091
0.18846761
0.18858885
0.18872427
0.18887401
0.18903816
0.18921681
0.18941004
0.18961791
0.18984046
0.19007771
0.19032965
0.19059626
0.19087747
0.19117319
0.19148331
0.19180768
0.19214611
0.19249839
0.19286426
0.19324345
0.19363564
0.19404048
0.18888035
0.18860977
0.18835627
0.18811933
0.18789845
0.18769322
0.18750331
0.18732859
0.1871677
0.18702333
0.18689265
0.18677471
0.18666941
0.18657737
0.18649846
0.18643259
0.18637977
0.1863397
0.18631295
0.18629874
0.18629744
0.18630894
0.18633361
0.18637144
0.18642252
0.18648695
0.1865647
0.18665471
0.18675903
0.18687803
0.18701103
0.18715817
0.18731959
0.1874954
0.18768573
0.18789069
0.18811034
0.18834476
0.18859398
0.18885804
0.18913691
0.18943057
0.18973896
0.19006196
0.19039945
0.19075127
0.19111721
0.19149705
0.19189051
0.1922973
0.19271706
0.18691334
0.18666033
0.18642455
0.18620542
0.18600232
0.1858148
0.18564237
0.18548695
0.18534487
0.18521749
0.1851025
0.18500061
0.18491189
0.18483618
0.18477325
0.18472305
0.18468606
0.18466123
0.18464893
0.18464923
0.18466196
0.18468754
0.18472586
0.18477706
0.1848413
0.18491883
0.18500794
0.18511057
0.18522797
0.18535905
0.18550399
0.18566295
0.1858361
0.18602359
0.18622556
0.18644213
0.18667342
0.18691951
0.18718048
0.18745636
0.18774718
0.18805293
0.18837356
0.18870899
0.18905913
0.18942381
0.18980287
0.19019608
0.19060319
0.19102391
0.19145789
0.18497993
0.18474725
0.18453184
0.18433307
0.18415003
0.18398244
0.18383256
0.1836952
0.18357333
0.1834633
0.18336665
0.18328309
0.18321232
0.18315429
0.18310848
0.18307567
0.18305464
0.18304583
0.1830492
0.18306467
0.1830925
0.18313264
0.18318515
0.18325015
0.18332787
0.18341833
0.18351996
0.18363637
0.18376618
0.18390949
0.18406648
0.18423733
0.18442223
0.18462136
0.18483488
0.18506295
0.1853057
0.18556325
0.18583569
0.18612311
0.18642554
0.18674299
0.18707545
0.18742288
0.18778516
0.1881622
0.18855382
0.18895982
0.18937998
0.18981399
0.18308291
0.18287311
0.18268049
0.18250469
0.18234355
0.18220031
0.18207144
0.18195549
0.18185282
0.18176335
0.18168675
0.1816229
0.18157113
0.1815323
0.18150476
0.18148931
0.18148564
0.18149361
0.18151337
0.18154492
0.18158829
0.18164354
0.18171073
0.18178981
0.1818815
0.18198407
0.18210054
0.1822299
0.18237232
0.18252797
0.18269707
0.18287983
0.18307645
0.18328714
0.1835121
0.18375151
0.18400552
0.1842743
0.18455795
0.18485659
0.18517027
0.18549905
0.18584293
0.18620189
0.18657585
0.18696472
0.18736835
0.18778658
0.18821919
0.18866592
0.18122513
0.18104047
0.18087249
0.18072331
0.18058709
0.18046751
0.18036032
0.18026676
0.18018657
0.18011897
0.18006343
0.18002088
0.17998933
0.17996969
0.1799614
0.1799645
0.17997874
0.18000434
0.18004114
0.18008921
0.18014858
0.18021943
0.18030184
0.18039464
0.18049959
0.1806174
0.18074737
0.18088979
0.18104491
0.18121296
0.18139418
0.18158881
0.18179708
0.18201923
0.18225548
0.18250604
0.1827711
0.18305084
0.18334542
0.18365495
0.18397954
0.18431926
0.18467414
0.18504418
0.18542933
0.18582953
0.18624465
0.18667453
0.187119
0.1875778
0.17940957
0.17925201
0.17911321
0.1789898
0.17887967
0.17878371
0.17870145
0.17863177
0.17857566
0.17853123
0.178498
0.17847661
0.17846631
0.1784671
0.17847854
0.1785009
0.17853385
0.17857748
0.17863178
0.17869678
0.17877241
0.1788592
0.17895561
0.17906381
0.17918386
0.17931553
0.179459
0.17961453
0.17978238
0.17996282
0.18015612
0.18036253
0.18058234
0.1808158
0.18106316
0.18132466
0.18160052
0.18189096
0.18219615
0.18251625
0.18285138
0.18320165
0.18356711
0.18394779
0.18434367
0.18475469
0.18518076
0.18562175
0.18607749
0.18654771
0.17763949
0.17751269
0.17740177
0.17730468
0.17722203
0.1771524
0.17709684
0.17705268
0.17702052
0.17699978
0.17698996
0.17699103
0.17700241
0.17702427
0.17705623
0.17709829
0.17715027
0.17721237
0.17728453
0.17736693
0.1774585
0.17756018
0.17767332
0.17779684
0.17793131
0.17807692
0.1782339
0.17840252
0.17858307
0.17877583
0.1789811
0.17919917
0.17943036
0.17967494
0.17993319
0.1802054
0.1804918
0.18079264
0.18110813
0.18143845
0.18178376
0.18214418
0.18251981
0.18291068
0.18331681
0.18373818
0.1841747
0.18462626
0.1850927
0.17591703
0.17582025
0.17573869
0.17567082
0.17561757
0.1755758
0.17554659
0.17552877
0.17552204
0.17552585
0.17553985
0.17556401
0.17559782
0.17564113
0.17569394
0.17575617
0.17582732
0.17590839
0.17599829
0.17609674
0.17620597
0.17632445
0.17645294
0.1765915
0.17674043
0.17689998
0.17707043
0.17725207
0.1774452
0.17765016
0.17786726
0.17809683
0.17833919
0.17859468
0.17886359
0.17914623
0.17944289
0.17975383
0.18007928
0.18041947
0.18077459
0.18114477
0.18153014
0.18193077
0.1823467
0.18277792
0.18322439
0.18368601
0.18416268
0.17424163
0.17417828
0.17412795
0.17409077
0.17406645
0.17405368
0.17405226
0.17406129
0.17408063
0.17410958
0.17414797
0.17419565
0.17425225
0.17431717
0.17439111
0.17447413
0.1745639
0.17466334
0.17477176
0.17488837
0.17501409
0.1751488
0.17529281
0.17544633
0.17560966
0.17578307
0.17596687
0.1761614
0.17636697
0.17658395
0.17681269
0.17705354
0.17730686
0.177573
0.1778523
0.1781451
0.1784517
0.17877241
0.17910749
0.1794572
0.17982173
0.18020128
0.18059598
0.18100594
0.18143122
0.18187183
0.18232775
0.18279892
0.18328525
0.17261877
0.17258807
0.17257027
0.17256475
0.17257068
0.17258726
0.17261423
0.17265089
0.1726968
0.17275106
0.17281407
0.17288564
0.1729656
0.17305159
0.17314672
0.17324985
0.1733601
0.17347833
0.1736046
0.17373877
0.17388117
0.17403197
0.17419141
0.17435977
0.17453735
0.17472447
0.17492147
0.17512869
0.1753465
0.17557529
0.17581543
0.17606731
0.17633132
0.17660784
0.17689725
0.17719989
0.17751613
0.17784627
0.17819063
0.17854948
0.17892306
0.17931157
0.1797152
0.18013405
0.18056823
0.18101777
0.18148267
0.18196288
0.18245829
0.17104862
0.17105204
0.17106733
0.17109402
0.17113105
0.1711773
0.17123306
0.17129766
0.1713708
0.17145
0.17153777
0.17163334
0.17173585
0.17184479
0.17196094
0.17208413
0.1722141
0.17235111
0.17249531
0.17264678
0.17280576
0.17297246
0.17314717
0.17333018
0.17352182
0.17372243
0.17393239
0.17415207
0.17438188
0.17462221
0.17487349
0.17513613
0.17541054
0.17569714
0.17599633
0.17630851
0.17663404
0.17697328
0.17732656
0.17769418
0.17807642
0.17847351
0.17888564
0.17931297
0.17975562
0.18021365
0.18068707
0.18117583
0.16953308
0.16957119
0.1696203
0.1696796
0.1697484
0.16982395
0.16990886
0.17000148
0.17010108
0.17020692
0.1703195
0.17043861
0.17056384
0.17069498
0.1708322
0.17097551
0.17112489
0.17128049
0.17144248
0.17161102
0.17178635
0.17196872
0.17215845
0.17235585
0.17256129
0.17277513
0.17299778
0.17322964
0.17347115
0.17372274
0.17398486
0.17425795
0.17454245
0.17483881
0.17514747
0.17546883
0.17580331
0.17615129
0.17651313
0.17688916
0.17727967
0.17768494
0.17810518
0.17854058
0.17899127
0.17945735
0.17993886
0.18043582
0.16807386
0.16814647
0.16822973
0.16832185
0.16842175
0.16852842
0.16864223
0.16876255
0.16888882
0.1690206
0.1691579
0.16930059
0.16944846
0.1696014
0.16975947
0.16992272
0.17009123
0.17026515
0.17044466
0.17062998
0.17082136
0.17101911
0.17122355
0.17143504
0.17165396
0.17188072
0.17211575
0.17235948
0.17261237
0.1728749
0.17314752
0.17343073
0.17372499
0.17403078
0.17434855
0.17467876
0.17502184
0.1753782
0.17574823
0.17613229
0.1765307
0.17694376
0.17737171
0.17781476
0.17827308
0.17874679
0.17923597
0.17974064
0.16667059
0.16677955
0.16689679
0.16702145
0.16715266
0.16728974
0.16743247
0.16758045
0.16773326
0.1678906
0.16805234
0.16821839
0.16838862
0.16856301
0.1687416
0.16892448
0.16911178
0.16930366
0.16950034
0.16970209
0.16990918
0.17012194
0.17034074
0.17056596
0.17079802
0.17103734
0.17128439
0.17153964
0.17180356
0.17207667
0.17235946
0.17265244
0.17295611
0.17327097
0.17359751
0.17393621
0.17428753
0.17465191
0.17502977
0.17542148
0.17582741
0.17624787
0.17668314
0.17713345
0.17759899
0.17807991
0.17857632
0.17908825
0.16532534
0.16547
0.16562125
0.16577842
0.16594081
0.16610788
0.16627927
0.16645464
0.16663369
0.16681617
0.16700197
0.167191
0.16738322
0.16757864
0.16777733
0.16797943
0.16818509
0.16839452
0.16860797
0.16882573
0.16904812
0.1692755
0.16950825
0.16974681
0.1699916
0.1702431
0.17050179
0.17076817
0.17104277
0.17132609
0.17161868
0.17192106
0.17223377
0.17255735
0.17289229
0.17323912
0.17359832
0.17397035
0.17435567
0.17475467
0.17516774
0.17559522
0.17603742
0.1764946
0.17696697
0.17745469
0.17795792
0.17847668
0.16403829
0.16421825
0.16440323
0.16459262
0.16478586
0.16498246
0.16518208
0.16538442
0.16558926
0.1657964
0.16600576
0.1662173
0.16643102
0.16664699
0.1668653
0.16708613
0.16730968
0.16753618
0.16776593
0.16799924
0.16823647
0.16847801
0.16872429
0.16897575
0.16923286
0.16949612
0.16976604
0.17004316
0.17032802
0.17062117
0.17092317
0.17123458
0.17155597
0.17188788
0.17223087
0.17258546
0.17295218
0.1733315
0.1737239
0.17412983
0.17454967
0.17498381
0.17543256
0.17589622
0.17637502
0.17686916
0.17737879
0.17790399
0.16280953
0.16302432
0.16324257
0.16346373
0.1636873
0.16391289
0.16414019
0.16436896
0.16459901
0.16483025
0.1650626
0.16529608
0.16553074
0.16576669
0.16600407
0.16624309
0.16648398
0.16672703
0.16697256
0.16722092
0.1674725
0.16772772
0.16798705
0.16825094
0.16851992
0.1687945
0.16907523
0.16936267
0.16965739
0.16995996
0.17027098
0.17059104
0.17092072
0.1712606
0.17161126
0.17197325
0.17234711
0.17273337
0.1731325
0.17354498
0.17397124
0.17441166
0.1748666
0.17533636
0.17582122
0.1763214
0.17683706
0.17736829
0.16163896
0.16188799
0.1621389
0.16239121
0.16264448
0.1628984
0.16315272
0.16340725
0.16366187
0.16391653
0.16417123
0.16442601
0.16468098
0.16493629
0.16519213
0.16544874
0.1657064
0.16596542
0.16622618
0.16648904
0.16675444
0.16702284
0.16729471
0.16757057
0.16785095
0.16813639
0.16842748
0.1687248
0.16902896
0.16934055
0.16966019
0.16998849
0.17032608
0.17067356
0.17103151
0.17140054
0.17178119
0.17217401
0.17257952
0.17299821
0.17343051
0.17387686
0.17433763
0.17481314
0.17530369
0.17580953
0.17633085
0.17686775
0.16052628
0.16080883
0.16109166
0.16137435
0.16165657
0.16193806
0.16221863
0.16249818
0.16277663
0.163054
0.16333032
0.1636057
0.16388029
0.16415428
0.16442792
0.16470148
0.16497529
0.16524969
0.16552508
0.16580188
0.16608055
0.16636159
0.16664549
0.1669328
0.16722409
0.16751993
0.16782092
0.16812769
0.16844084
0.16876103
0.16908889
0.16942505
0.16977016
0.17012485
0.17048974
0.17086543
0.17125251
0.17165155
0.17206309
0.17248763
0.17292564
0.17337757
0.1738438
0.17432471
0.1748206
0.17533175
0.17585837
0.17640059
0.15947097
0.15978618
0.16010006
0.16041228
0.16072258
0.16103079
0.16133679
0.16164052
0.161942
0.16224127
0.16253844
0.16283366
0.16312713
0.1634191
0.16370985
0.16399969
0.16428898
0.16457812
0.16486754
0.16515769
0.16544906
0.16574218
0.16603758
0.16633583
0.16663753
0.16694328
0.16725372
0.16756947
0.1678912
0.16821957
0.16855523
0.16889885
0.1692511
0.16961263
0.16998408
0.17036608
0.17075925
0.17116416
0.17158138
0.17201143
0.17245481
0.17291198
0.17338335
0.1738693
0.17437019
0.1748863
0.17541789
0.17596509
0.15847234
0.15881923
0.15916318
0.15950396
0.1598414
0.1601754
0.16050591
0.16083294
0.16115657
0.1614769
0.1617941
0.16210837
0.16241996
0.16272915
0.16303627
0.16334169
0.1636458
0.16394903
0.16425184
0.16455473
0.16485821
0.16516285
0.1654692
0.16577787
0.16608948
0.16640466
0.16672407
0.16704837
0.16737823
0.16771435
0.16805741
0.1684081
0.16876711
0.1691351
0.16951275
0.16990071
0.17029961
0.17071005
0.17113262
0.17156786
0.17201628
0.17247836
0.17295453
0.1734452
0.17395074
0.17447149
0.17500772
0.17555958
0.15637337
0.1567623
0.15714781
0.15752953
0.15790698
0.15827992
0.15864822
0.15901178
0.15937057
0.15972462
0.16007402
0.16041888
0.16075939
0.16109576
0.16142825
0.16175714
0.16208279
0.16240554
0.16272582
0.16304405
0.1633607
0.16367626
0.16399127
0.16430627
0.16462185
0.16493861
0.16525717
0.16557818
0.1659023
0.16623021
0.1665626
0.16690016
0.16724362
0.16759368
0.16795104
0.16831642
0.16869052
0.16907401
0.16946759
0.16987188
0.17028753
0.17071512
0.17115522
0.17160836
0.17207503
0.17255569
0.17305075
0.17356063
0.17408569
0.17462626
0.17518248
0.15538683
0.15581041
0.15622871
0.15664142
0.15704825
0.15744905
0.15784376
0.15823236
0.1586149
0.15899148
0.15936226
0.15972741
0.16008718
0.16044183
0.16079168
0.16113706
0.16147836
0.16181599
0.16215039
0.16248203
0.16281142
0.16313909
0.16346559
0.16379152
0.16411747
0.16444408
0.164772
0.1651019
0.16543447
0.16577042
0.16611045
0.16645529
0.16680566
0.16716232
0.16752597
0.16789735
0.16827719
0.16866619
0.16906503
0.16947439
0.16989492
0.17032722
0.17077188
0.17122943
0.17170039
0.17218523
0.17268438
0.17319827
0.17372733
0.17427193
0.17483224
0.15445759
0.15491451
0.1553643
0.15580676
0.15624175
0.15666922
0.15708917
0.15750169
0.15790689
0.15830496
0.1586961
0.15908057
0.15945866
0.15983069
0.16019703
0.16055806
0.16091422
0.16126595
0.16161373
0.16195808
0.16229953
0.16263864
0.16297602
0.16331226
0.16364801
0.16398392
0.16432067
0.16465897
0.16499951
0.16534302
0.16569025
0.16604193
0.16639882
0.16676167
0.16713124
0.16750827
0.16789349
0.16828765
0.16869143
0.16910554
0.16953064
0.16996734
0.17041626
0.17087794
0.1713529
0.17184162
0.17234455
0.17286213
0.17339488
0.17394325
0.17450738
0.15358453
0.15407338
0.15455329
0.1550242
0.15548608
0.15593897
0.15638297
0.15681825
0.157245
0.15766347
0.15807395
0.15847674
0.15887219
0.15926069
0.15964264
0.16001848
0.16038868
0.16075374
0.16111416
0.1614705
0.16182333
0.16217325
0.16252087
0.16286683
0.16321181
0.16355648
0.16390155
0.16424773
0.16459576
0.16494639
0.16530038
0.16565849
0.16602149
0.16639016
0.16676527
0.16714758
0.16753785
0.16793683
0.16834524
0.16876379
0.16919315
0.16963397
0.17008686
0.17055239
0.17103107
0.1715234
0.17202981
0.17255076
0.17308688
0.17363879
0.1742065
0.15276635
0.15328566
0.15379428
0.15429228
0.15477972
0.15525676
0.15572358
0.15618044
0.15662761
0.1570654
0.15749416
0.15791427
0.15832613
0.15873017
0.15912685
0.15951666
0.1599001
0.1602777
0.16065003
0.16101766
0.16138119
0.16174126
0.16209851
0.16245361
0.16280725
0.16316015
0.16351301
0.16386659
0.16422165
0.16457895
0.16493927
0.16530339
0.16567211
0.16604622
0.16642651
0.16681376
0.16720875
0.16761224
0.16802496
0.16844765
0.16888099
0.16932564
0.16978223
0.17025134
0.17073349
0.17122917
0.17173879
0.17226278
0.17280191
0.17335722
0.17392826
0.15200164
0.15254988
0.15308576
0.15360943
0.15412109
0.15462098
0.15510939
0.15558663
0.15605307
0.15650908
0.15695508
0.15739151
0.15781881
0.15823748
0.15864801
0.15905094
0.15944682
0.15983621
0.1602197
0.16059792
0.1609715
0.16134108
0.16170736
0.16207101
0.16243277
0.16279335
0.16315351
0.16351401
0.16387563
0.16423916
0.1646054
0.16497514
0.1653492
0.16572838
0.1661135
0.16650536
0.16690474
0.16731242
0.16772916
0.1681557
0.16859274
0.16904095
0.16950098
0.16997342
0.1704588
0.1709576
0.17147019
0.17199685
0.15128884
0.15186447
0.15242611
0.15297404
0.15350854
0.15402998
0.15453871
0.15503514
0.1555197
0.15599284
0.15645504
0.15690678
0.15734857
0.15778095
0.15820447
0.1586197
0.15902721
0.15942763
0.15982158
0.1602097
0.16059266
0.16097114
0.16134584
0.16171748
0.16208681
0.16245457
0.16282153
0.16318849
0.16355623
0.16392556
0.1642973
0.16467228
0.1650513
0.16543521
0.16582483
0.16622096
0.16662442
0.167036
0.16745647
0.16788658
0.16832705
0.16877857
0.16924179
0.16971732
0.17020569
0.17070741
0.17122283
0.15062631
0.15122775
0.15181365
0.15238439
0.15294038
0.15348204
0.15400984
0.15452427
0.15502581
0.15551499
0.15599234
0.15645841
0.15691375
0.15735895
0.1577946
0.1582213
0.15863968
0.15905039
0.15945408
0.15985143
0.16024313
0.16062989
0.16101244
0.16139152
0.16176789
0.16214233
0.16251562
0.16288857
0.163262
0.16363673
0.16401358
0.16439341
0.16477705
0.16516534
0.16555912
0.16595922
0.16636646
0.16678164
0.16720557
0.16763898
0.16808263
0.16853721
0.16900338
0.16948177
0.16997293
0.1704774
0.17099564
0.15001231
0.15063798
0.15124664
0.15183875
0.15241484
0.15297543
0.15352107
0.1540523
0.1545697
0.15507385
0.15556533
0.15604475
0.15651271
0.15696985
0.15741678
0.15785416
0.15828265
0.15870293
0.15911567
0.1595216
0.15992142
0.16031587
0.1607057
0.16109167
0.16147458
0.16185521
0.16223436
0.16261287
0.16299157
0.16337129
0.16375288
0.1641372
0.1645251
0.16491744
0.16531507
0.16571884
0.16612957
0.16654809
0.1669752
0.16741167
0.16785825
0.16831565
0.16878455
0.16926558
0.16975932
0.17026635
0.17078718
0.14944507
0.15009339
0.15072329
0.15133535
0.15193018
0.15250841
0.15307064
0.15361751
0.15414966
0.15466772
0.15517234
0.15566416
0.15614384
0.15661204
0.15706944
0.15751672
0.15795458
0.15838372
0.15880485
0.15921871
0.15962604
0.16002761
0.16042418
0.16081653
0.16120548
0.16159182
0.1619764
0.16236004
0.1627436
0.16312793
0.16351389
0.16390235
0.16429419
0.16469026
0.16509144
0.16549859
0.16591254
0.16633413
0.16676417
0.16720345
0.16765272
0.16811272
0.16858413
0.16906759
0.16956372
0.17007309
0.17059629
0.14892273
0.14959214
0.1502418
0.15087239
0.15148462
0.1520792
0.15265683
0.1532182
0.15376401
0.15429496
0.15481172
0.15531501
0.15580553
0.15628397
0.15675104
0.15720747
0.15765397
0.15809129
0.15852016
0.15894134
0.1593556
0.15976373
0.1601665
0.16056473
0.16095924
0.16135086
0.16174042
0.16212879
0.16251682
0.16290539
0.16329537
0.16368764
0.16408309
0.1644826
0.16488704
0.16529728
0.16571419
0.1661386
0.16657133
0.16701319
0.16746494
0.16792731
0.16840102
0.16888671
0.16938502
0.16989655
0.17042189
0.14844345
0.1491324
0.14980033
0.15044806
0.15107638
0.15168607
0.15227792
0.15285267
0.15341108
0.1539539
0.15448187
0.15499573
0.15549622
0.15598409
0.15646006
0.1569249
0.15737936
0.1578242
0.15826018
0.15868809
0.15910872
0.15952287
0.15993134
0.16033497
0.16073458
0.16113103
0.16152517
0.16191787
0.16231
0.16270246
0.16309612
0.16349189
0.16389065
0.1642933
0.16470072
0.16511381
0.16553341
0.1659604
0.16639559
0.16683981
0.16729382
0.16775837
0.16823418
0.16872191
0.16922221
0.1697357
0.17026297
0.14800534
0.1487123
0.14939706
0.15006056
0.15070368
0.15132727
0.15193219
0.15251924
0.15308923
0.15364295
0.15418121
0.15470476
0.15521441
0.15571091
0.15619504
0.15666759
0.15712934
0.15758106
0.15802356
0.15845763
0.15888408
0.15930373
0.15971742
0.16012598
0.16053026
0.16093113
0.16132945
0.1617261
0.16212199
0.16251799
0.16291501
0.16331396
0.16371574
0.16412126
0.16453141
0.16494708
0.16536915
0.16579849
0.16623592
0.16668228
0.16713835
0.16760488
0.1680826
0.16857219
0.1690743
0.16958957
0.17011858
0.14360908
0.14446272
0.14528813
0.14608646
0.14685888
0.14760658
0.14832998
0.14903015
0.14970809
0.15036476
0.15100109
0.15161796
0.15221626
0.15279683
0.15336053
0.15390817
0.15444059
0.15495859
0.15546297
0.15595456
0.15643414
0.15690252
0.15736053
0.15780896
0.15824864
0.1586804
0.15910508
0.15952351
0.15993656
0.16034509
0.16074998
0.1611521
0.16155235
0.16195164
0.16235087
0.16275095
0.1631528
0.16355732
0.16396544
0.16437807
0.16479609
0.16522039
0.16565186
0.16609133
0.16653963
0.16699757
0.1674659
0.16794535
0.16843662
0.16894037
0.16945724
0.16998783
0.14315487
0.14402988
0.14487515
0.14569197
0.14648159
0.1472452
0.14798357
0.14869779
0.14938889
0.15005791
0.15070583
0.15133359
0.15194212
0.15253232
0.15310508
0.15366127
0.15420174
0.15472733
0.15523888
0.15573722
0.15622319
0.1566976
0.1571613
0.15761512
0.15805989
0.15849647
0.15892569
0.15934843
0.15976555
0.16017793
0.16058645
0.16099202
0.16139554
0.16179791
0.16220006
0.1626029
0.16300737
0.16341437
0.16382485
0.16423971
0.16465985
0.16508618
0.16551957
0.16596088
0.16641094
0.16687056
0.16734051
0.16782153
0.16831432
0.16881954
0.16933786
0.16986985
0.14274453
0.143639
0.14450234
0.14533595
0.14614119
0.14691928
0.14767124
0.14839818
0.14910121
0.14978142
0.15043983
0.15107745
0.15169524
0.15229416
0.15287513
0.15343904
0.15398678
0.15451923
0.15503725
0.15554171
0.15603344
0.1565133
0.15698214
0.15744082
0.15789019
0.1583311
0.15876443
0.15919104
0.15961183
0.16002768
0.16043949
0.16084816
0.16125461
0.16165976
0.16206454
0.16246987
0.16287669
0.16328594
0.16369853
0.1641154
0.16453745
0.16496559
0.16540071
0.16584368
0.16629532
0.16675645
0.16722786
0.16771029
0.16820444
0.16871098
0.16923058
0.16976384
0.14237593
0.14328799
0.14416765
0.14501644
0.14583577
0.14662695
0.14739116
0.14812957
0.14884334
0.14953362
0.15020148
0.15084797
0.1514741
0.15208086
0.1526692
0.15324005
0.15379434
0.15433296
0.15485679
0.15536673
0.15586364
0.15634839
0.15682185
0.15728488
0.15773837
0.15818318