/*--------------------------------*- C++ -*----------------------------------*\
| =========                 |                                                 |
| \\      /  F ield         | OpenFOAM: The Open Source CFD Toolbox           |
|  \\    /   O peration     | Version:  2312                                  |
|   \\  /    A nd           | Website:  www.openfoam.com                      |
|    \\/     M anipulation  |                                                 |
\*---------------------------------------------------------------------------*/
FoamFile
{
    version     2.0;
    format      ascii;
    arch        "LSB;label=32;scalar=64";
    class       volScalarField;
    location    "0.07";
    object      p;
}
// * * * * * * * * * * * * * * * * * * * * * * * * * * * * * * * * * * * * * //

dimensions      [1 -1 -2 0 0 0 0];

internalField   nonuniform List<scalar> 
3272
(
100088.49
100071
100056.48
100046.69
100040.24
100035.67
100031.68
100028.75
100026.36
100024.46
100022.86
100021.46
100020.23
100019.19
100018.29
100017.5
100016.79
100016.15
100015.59
100015.09
100014.64
100014.22
100013.84
100013.49
100013.16
100012.85
100012.56
100012.28
100012.02
100011.77
100011.53
100011.3
100011.09
100010.88
100010.68
100010.48
100010.29
100010.12
100009.95
100009.78
100009.63
100009.47
100009.33
100009.18
100009.04
100008.91
100008.77
100008.64
100008.5
100008.37
100008.24
100008.1
100007.95
100027.99
100020.95
100014.44
100010.23
100008.01
100007.43
100007.78
100007.68
100007.76
100007.83
100007.87
100007.86
100007.82
100007.74
100007.65
100007.52
100007.38
100007.23
100007.08
100006.94
100006.81
100006.69
100006.57
100006.46
100006.36
100006.26
100006.16
100006.07
100005.98
100005.89
100005.8
100005.71
100005.62
100005.53
100005.45
100005.36
100005.28
100005.19
100005.11
100005.03
100004.95
100004.87
100004.79
100004.7
100004.62
100004.53
100004.43
100004.33
100004.23
100004.11
100003.99
100003.85
100003.7
100017.66
100016.92
100015.6
100014.16
100012.89
100011.89
100011.11
100010.36
100009.73
100009.2
100008.75
100008.35
100008
100007.67
100007.35
100007.06
100006.77
100006.51
100006.26
100006.04
100005.84
100005.66
100005.5
100005.35
100005.22
100005.1
100004.98
100004.87
100004.77
100004.66
100004.57
100004.47
100004.37
100004.28
100004.19
100004.1
100004.01
100003.93
100003.84
100003.75
100003.67
100003.58
100003.49
100003.39
100003.29
100003.18
100003.07
100002.95
100002.82
100002.67
100002.51
100002.34
100002.15
100013.19
100013.02
100012.38
100011.55
100010.7
100009.95
100009.3
100008.74
100008.27
100007.87
100007.52
100007.2
100006.91
100006.63
100006.36
100006.09
100005.84
100005.59
100005.37
100005.16
100004.97
100004.8
100004.65
100004.5
100004.37
100004.25
100004.14
100004.03
100003.93
100003.82
100003.72
100003.62
100003.53
100003.43
100003.34
100003.25
100003.15
100003.06
100002.97
100002.88
100002.78
100002.69
100002.58
100002.48
100002.36
100002.24
100002.11
100001.96
100001.81
100001.64
100001.45
100001.24
100001.01
100010.2
100010.22
100009.96
100009.53
100009.03
100008.54
100008.09
100007.69
100007.32
100006.99
100006.69
100006.41
100006.13
100005.87
100005.6
100005.35
100005.1
100004.86
100004.64
100004.44
100004.25
100004.08
100003.93
100003.78
100003.65
100003.53
100003.41
100003.29
100003.18
100003.07
100002.97
100002.86
100002.76
100002.66
100002.55
100002.46
100002.36
100002.26
100002.16
100002.06
100001.95
100001.85
100001.73
100001.61
100001.48
100001.34
100001.19
100001.03
100000.84
100000.65
100000.43
100000.19
99999.921
100008.03
100008.13
100008.06
100007.86
100007.59
100007.29
100006.98
100006.68
100006.39
100006.12
100005.86
100005.6
100005.34
100005.09
100004.85
100004.61
100004.37
100004.15
100003.95
100003.75
100003.58
100003.41
100003.26
100003.12
100002.99
100002.86
100002.74
100002.62
100002.51
100002.39
100002.28
100002.17
100002.06
100001.96
100001.85
100001.75
100001.64
100001.54
100001.43
100001.32
100001.21
100001.09
100000.96
100000.83
100000.69
100000.53
100000.36
100000.17
99999.972
99999.749
99999.504
99999.234
99998.936
100006.32
100006.45
100006.47
100006.4
100006.25
100006.06
100005.85
100005.63
100005.41
100005.18
100004.95
100004.72
100004.5
100004.27
100004.05
100003.83
100003.62
100003.42
100003.23
100003.06
100002.89
100002.74
100002.6
100002.46
100002.33
100002.21
100002.09
100001.97
100001.86
100001.74
100001.63
100001.52
100001.41
100001.3
100001.19
100001.09
100000.98
100000.87
100000.75
100000.64
100000.52
100000.39
100000.26
100000.11
99999.956
99999.786
99999.601
99999.398
99999.176
99998.932
99998.664
99998.369
99998.044
100004.9
100005.04
100005.1
100005.09
100005.02
100004.9
100004.76
100004.59
100004.41
100004.22
100004.03
100003.83
100003.63
100003.43
100003.24
100003.05
100002.86
100002.68
100002.51
100002.35
100002.2
100002.06
100001.93
100001.8
100001.68
100001.56
100001.44
100001.33
100001.21
100001.1
100000.99
100000.88
100000.77
100000.66
100000.55
100000.45
100000.34
100000.22
100000.11
99999.989
99999.863
99999.73
99999.588
99999.434
99999.268
99999.087
99998.889
99998.673
99998.435
99998.174
99997.887
99997.572
99997.224
100003.67
100003.81
100003.89
100003.91
100003.88
100003.81
100003.71
100003.59
100003.45
100003.3
100003.13
100002.96
100002.79
100002.62
100002.45
100002.28
100002.11
100001.95
100001.8
100001.66
100001.52
100001.39
100001.27
100001.15
100001.03
100000.91
100000.8
100000.69
100000.58
100000.47
100000.36
100000.26
100000.15
100000.04
99999.934
99999.825
99999.715
99999.602
99999.485
99999.363
99999.234
99999.096
99998.948
99998.788
99998.613
99998.423
99998.216
99997.988
99997.738
99997.464
99997.162
99996.83
99996.464
100002.58
100002.72
100002.8
100002.84
100002.84
100002.81
100002.74
100002.65
100002.54
100002.41
100002.28
100002.14
100001.99
100001.84
100001.69
100001.54
100001.39
100001.25
100001.12
100000.99
100000.86
100000.74
100000.62
100000.51
100000.4
100000.29
100000.18
100000.07
99999.963
99999.857
99999.756
99999.651
99999.546
99999.441
99999.335
99999.228
99999.118
99999.005
99998.887
99998.763
99998.631
99998.489
99998.336
99998.171
99997.99
99997.793
99997.578
99997.341
99997.081
99996.797
99996.484
100001.59
100001.72
100001.82
100001.87
100001.89
100001.87
100001.83
100001.76
100001.68
100001.58
100001.47
100001.35
100001.23
100001.1
100000.97
100000.84
100000.71
100000.58
100000.46
100000.34
100000.23
100000.11
100000
99999.896
99999.789
99999.684
99999.58
99999.476
99999.371
99999.267
99999.179
99999.075
99998.971
99998.868
99998.764
99998.658
99998.549
99998.435
99998.317
99998.191
99998.056
99997.912
99997.756
99997.586
99997.4
99997.197
99996.975
99996.731
99996.464
99996.171
99995.849
100000.69
100000.82
100000.91
100000.97
100001
100001.01
100000.98
100000.94
100000.88
100000.8
100000.71
100000.61
100000.51
100000.4
100000.28
100000.17
100000.06
99999.947
99999.837
99999.728
99999.622
99999.517
99999.414
99999.312
99999.211
99999.111
99999.011
99998.912
99998.813
99998.716
99998.621
99998.523
99998.424
99998.324
99998.222
99998.117
99998.009
99997.896
99997.776
99997.649
99997.513
99997.366
99997.206
99997.033
99996.843
99996.635
99996.408
99996.158
99995.885
99995.586
99995.258
99999.866
99999.989
100000.08
100000.15
100000.19
100000.2
100000.2
100000.17
100000.12
100000.06
99999.994
99999.914
99999.826
99999.734
99999.638
99999.54
99999.441
99999.342
99999.243
99999.144
99999.046
99998.949
99998.853
99998.757
99998.662
99998.567
99998.472
99998.378
99998.285
99998.191
99998.098
99998.003
99997.908
99997.81
99997.71
99997.607
99997.499
99997.386
99997.266
99997.138
99997
99996.851
99996.689
99996.512
99996.319
99996.107
99995.876
99995.622
99995.345
99995.041
99994.708
99999.108
99999.226
99999.32
99999.39
99999.436
99999.461
99999.465
99999.451
99999.421
99999.378
99999.323
99999.259
99999.187
99999.11
99999.028
99998.944
99998.857
99998.768
99998.679
99998.59
99998.5
99998.411
99998.321
99998.232
99998.142
99998.053
99997.963
99997.874
99997.786
99997.696
99997.605
99997.514
99997.421
99997.326
99997.228
99997.126
99997.019
99996.906
99996.785
99996.656
99996.517
99996.366
99996.201
99996.022
99995.826
99995.612
99995.377
99995.12
99994.84
99994.533
99994.197
99998.412
99998.526
99998.619
99998.691
99998.742
99998.774
99998.787
99998.785
99998.767
99998.737
99998.696
99998.645
99998.587
99998.523
99998.454
99998.381
99998.304
99998.226
99998.147
99998.066
99997.984
99997.902
99997.819
99997.736
99997.652
99997.568
99997.484
99997.4
99997.315
99997.229
99997.142
99997.054
99996.964
99996.871
99996.774
99996.673
99996.567
99996.453
99996.332
99996.202
99996.061
99995.909
99995.743
99995.561
99995.363
99995.146
99994.91
99994.651
99994.368
99994.059
99993.723
99997.773
99997.883
99997.975
99998.047
99998.102
99998.14
99998.161
99998.167
99998.16
99998.141
99998.111
99998.072
99998.025
99997.972
99997.914
99997.851
99997.785
99997.716
99997.645
99997.572
99997.498
99997.423
99997.346
99997.269
99997.191
99997.112
99997.033
99996.953
99996.873
99996.79
99996.706
99996.621
99996.533
99996.442
99996.347
99996.246
99996.14
99996.027
99995.905
99995.774
99995.632
99995.478
99995.311
99995.128
99994.928
99994.71
99994.471
99994.211
99993.927
99993.618
99993.281
99997.188
99997.294
99997.384
99997.457
99997.514
99997.556
99997.583
99997.597
99997.598
99997.587
99997.567
99997.538
99997.501
99997.457
99997.408
99997.355
99997.297
99997.236
99997.173
99997.109
99997.042
99996.973
99996.902
99996.83
99996.758
99996.684
99996.61
99996.534
99996.456
99996.377
99996.297
99996.214
99996.128
99996.038
99995.944
99995.844
99995.738
99995.625
99995.503
99995.371
99995.228
99995.073
99994.904
99994.719
99994.518
99994.299
99994.06
99993.799
99993.515
99993.205
99992.869
99996.652
99996.755
99996.843
99996.916
99996.975
99997.02
99997.051
99997.07
99997.078
99997.075
99997.063
99997.042
99997.013
99996.978
99996.937
99996.891
99996.842
99996.788
99996.731
99996.676
99996.615
99996.551
99996.486
99996.42
99996.352
99996.283
99996.213
99996.14
99996.066
99995.99
99995.912
99995.831
99995.747
99995.659
99995.565
99995.466
99995.36
99995.246
99995.123
99994.99
99994.846
99994.69
99994.52
99994.334
99994.132
99993.912
99993.673
99993.412
99993.128
99992.82
99992.485
99996.163
99996.262
99996.348
99996.421
99996.481
99996.528
99996.563
99996.587
99996.6
99996.603
99996.597
99996.582
99996.561
99996.533
99996.499
99996.46
99996.417
99996.371
99996.321
99996.27
99996.215
99996.157
99996.097
99996.036
99995.972
99995.908
99995.841
99995.771
99995.7
99995.627
99995.551
99995.472
99995.389
99995.301
99995.208
99995.109
99995.002
99994.888
99994.764
99994.631
99994.486
99994.329
99994.157
99993.971
99993.768
99993.548
99993.308
99993.048
99992.765
99992.458
99995.717
99995.813
99995.897
99995.969
99996.029
99996.077
99996.115
99996.143
99996.16
99996.168
99996.167
99996.159
99996.143
99996.121
99996.093
99996.061
99996.024
99995.984
99995.94
99995.893
99995.843
99995.79
99995.735
99995.678
99995.618
99995.557
99995.493
99995.427
99995.358
99995.287
99995.213
99995.134
99995.052
99994.965
99994.872
99994.772
99994.665
99994.55
99994.426
99994.292
99994.146
99993.987
99993.815
99993.628
99993.425
99993.204
99992.965
99992.704
99992.423
99992.117
99995.311
99995.404
99995.485
99995.556
99995.617
99995.667
99995.706
99995.736
99995.757
99995.769
99995.773
99995.769
99995.758
99995.741
99995.719
99995.691
99995.659
99995.624
99995.586
99995.544
99995.498
99995.45
99995.399
99995.345
99995.288
99995.229
99995.168
99995.105
99995.038
99994.968
99994.895
99994.818
99994.736
99994.648
99994.555
99994.455
99994.348
99994.232
99994.107
99993.971
99993.824
99993.665
99993.492
99993.304
99993.1
99992.88
99992.64
99992.381
99992.1
99991.797
99994.942
99995.031
99995.111
99995.181
99995.242
99995.292
99995.333
99995.365
99995.389
99995.404
99995.411
99995.411
99995.404
99995.392
99995.374
99995.35
99995.323
99995.292
99995.26
99995.222
99995.18
99995.134
99995.086
99995.034
99994.981
99994.925
99994.866
99994.804
99994.739
99994.67
99994.597
99994.52
99994.438
99994.351
99994.257
99994.156
99994.048
99993.931
99993.805
99993.668
99993.52
99993.36
99993.186
99992.998
99992.794
99992.573
99992.334
99992.076
99991.797
99991.495
99994.606
99994.693
99994.772
99994.841
99994.901
99994.951
99994.994
99995.027
99995.052
99995.07
99995.08
99995.084
99995.08
99995.071
99995.056
99995.037
99995.011
99994.982
99994.961
99994.926
99994.886
99994.842
99994.795
99994.747
99994.696
99994.641
99994.584
99994.523
99994.459
99994.391
99994.319
99994.242
99994.159
99994.071
99993.977
99993.875
99993.766
99993.647
99993.52
99993.382
99993.233
99993.071
99992.897
99992.708
99992.503
99992.283
99992.044
99991.787
99991.51
99994.301
99994.387
99994.463
99994.531
99994.591
99994.641
99994.684
99994.719
99994.746
99994.766
99994.778
99994.784
99994.784
99994.778
99994.766
99994.749
99994.724
99994.691
99994.693
99994.653
99994.613
99994.571
99994.527
99994.481
99994.431
99994.378
99994.322
99994.262
99994.198
99994.13
99994.058
99993.98
99993.897
99993.808
99993.713
99993.61
99993.499
99993.38
99993.251
99993.112
99992.961
99992.799
99992.623
99992.433
99992.229
99992.008
99991.771
99991.514
99991.239
99994.025
99994.108
99994.183
99994.25
99994.309
99994.36
99994.403
99994.439
99994.467
99994.489
99994.503
99994.511
99994.513
99994.51
99994.5
99994.486
99994.467
99994.442
99994.427
99994.396
99994.36
99994.321
99994.279
99994.234
99994.186
99994.134
99994.078
99994.018
99993.954
99993.886
99993.813
99993.735
99993.651
99993.561
99993.464
99993.36
99993.248
99993.127
99992.997
99992.856
99992.704
99992.541
99992.364
99992.174
99991.969
99991.749
99991.511
99991.257
99990.982
99993.774
99993.856
99993.929
99993.996
99994.054
99994.105
99994.148
99994.185
99994.214
99994.237
99994.252
99994.262
99994.266
99994.265
99994.257
99994.245
99994.229
99994.209
99994.188
99994.16
99994.127
99994.09
99994.05
99994.006
99993.958
99993.906
99993.851
99993.791
99993.727
99993.658
99993.585
99993.505
99993.42
99993.329
99993.231
99993.125
99993.011
99992.888
99992.756
99992.614
99992.461
99992.296
99992.119
99991.928
99991.723
99991.503
99991.266
99991.013
99990.74
99993.547
99993.627
99993.699
99993.764
99993.823
99993.874
99993.917
99993.953
99993.984
99994.008
99994.024
99994.035
99994.041
99994.041
99994.036
99994.026
99994.011
99993.993
99993.971
99993.944
99993.913
99993.877
99993.838
99993.794
99993.747
99993.695
99993.64
99993.58
99993.515
99993.445
99993.371
99993.29
99993.204
99993.111
99993.011
99992.903
99992.787
99992.663
99992.529
99992.386
99992.231
99992.065
99991.887
99991.695
99991.49
99991.27
99991.034
99990.781
99993.341
99993.42
99993.491
99993.555
99993.614
99993.665
99993.707
99993.744
99993.775
99993.8
99993.817
99993.829
99993.836
99993.837
99993.833
99993.825
99993.811
99993.794
99993.773
99993.747
99993.716
99993.681
99993.642
99993.599
99993.551
99993.5
99993.443
99993.383
99993.317
99993.246
99993.17
99993.088
99993
99992.905
99992.804
99992.694
99992.577
99992.451
99992.315
99992.17
99992.014
99991.846
99991.667
99991.475
99991.269
99991.048
99990.813
99990.561
99993.154
99993.233
99993.302
99993.366
99993.424
99993.474
99993.517
99993.555
99993.586
99993.611
99993.629
99993.642
99993.65
99993.652
99993.649
99993.641
99993.629
99993.612
99993.591
99993.565
99993.535
99993.5
99993.461
99993.418
99993.37
99993.318
99993.261
99993.199
99993.133
99993.061
99992.983
99992.899
99992.809
99992.713
99992.609
99992.497
99992.378
99992.25
99992.113
99991.965
99991.808
99991.639
99991.459
99991.265
99991.059
99990.839
99990.604
99990.352
99992.985
99993.063
99993.132
99993.195
99993.252
99993.302
99993.346
99993.383
99993.414
99993.439
99993.458
99993.472
99993.48
99993.483
99993.481
99993.474
99993.462
99993.445
99993.424
99993.399
99993.369
99993.334
99993.295
99993.251
99993.203
99993.15
99993.092
99993.029
99992.961
99992.887
99992.808
99992.722
99992.63
99992.531
99992.426
99992.312
99992.191
99992.06
99991.921
99991.772
99991.613
99991.443
99991.261
99991.067
99990.86
99990.64
99990.405
99990.154
99992.832
99992.909
99992.978
99993.041
99993.097
99993.147
99993.19
99993.228
99993.259
99993.284
99993.304
99993.318
99993.326
99993.329
99993.327
99993.321
99993.309
99993.293
99993.272
99993.246
99993.216
99993.181
99993.141
99993.097
99993.047
99992.993
99992.934
99992.87
99992.8
99992.725
99992.644
99992.556
99992.462
99992.361
99992.253
99992.138
99992.014
99991.882
99991.74
99991.59
99991.429
99991.257
99991.074
99990.879
99990.672
99990.451
99990.216
99989.966
99992.694
99992.77
99992.838
99992.901
99992.957
99993.006
99993.05
99993.087
99993.118
99993.143
99993.163
99993.177
99993.186
99993.19
99993.188
99993.181
99993.17
99993.153
99993.132
99993.106
99993.075
99993.04
99992.999
99992.954
99992.904
99992.849
99992.788
99992.722
99992.651
99992.574
99992.49
99992.401
99992.305
99992.201
99992.091
99991.973
99991.847
99991.713
99991.57
99991.417
99991.254
99991.081
99990.897
99990.701
99990.493
99990.272
99990.038
99989.788
99992.569
99992.644
99992.712
99992.774
99992.83
99992.879
99992.922
99992.959
99992.991
99993.016
99993.036
99993.05
99993.059
99993.063
99993.061
99993.054
99993.042
99993.026
99993.004
99992.978
99992.946
99992.91
99992.869
99992.822
99992.771
99992.714
99992.652
99992.585
99992.511
99992.432
99992.347
99992.255
99992.157
99992.051
99991.939
99991.818
99991.69
99991.554
99991.408
99991.254
99991.089
99990.915
99990.729
99990.533
99990.324
99990.102
99989.868
99989.619
99992.455
99992.53
99992.598
99992.66
99992.715
99992.764
99992.807
99992.844
99992.875
99992.901
99992.92
99992.935
99992.943
99992.947
99992.945
99992.938
99992.926
99992.909
99992.887
99992.86
99992.828
99992.791
99992.748
99992.701
99992.648
99992.59
99992.526
99992.457
99992.382
99992.3
99992.213
99992.119
99992.018
99991.91
99991.795
99991.673
99991.542
99991.403
99991.256
99991.099
99990.933
99990.757
99990.57
99990.373
99990.163
99989.941
99989.707
99989.458
99992.352
99992.427
99992.494
99992.556
99992.611
99992.66
99992.703
99992.74
99992.771
99992.796
99992.816
99992.83
99992.839
99992.842
99992.84
99992.833
99992.82
99992.803
99992.78
99992.752
99992.719
99992.681
99992.637
99992.588
99992.534
99992.474
99992.409
99992.338
99992.261
99992.177
99992.087
99991.991
99991.888
99991.778
99991.66
99991.536
99991.403
99991.262
99991.112
99990.954
99990.786
99990.608
99990.42
99990.221
99990.011
99989.789
99989.554
99989.305
99992.259
99992.333
99992.401
99992.462
99992.517
99992.566
99992.609
99992.645
99992.676
99992.701
99992.721
99992.735
99992.743
99992.746
99992.744
99992.736
99992.723
99992.705
99992.682
99992.653
99992.619
99992.58
99992.535
99992.485
99992.429
99992.367
99992.3
99992.227
99992.148
99992.062
99991.97
99991.872
99991.766
99991.654
99991.534
99991.406
99991.271
99991.128
99990.976
99990.816
99990.646
99990.467
99990.278
99990.078
99989.867
99989.644
99989.409
99989.16
99992.174
99992.248
99992.316
99992.377
99992.432
99992.48
99992.523
99992.56
99992.591
99992.616
99992.635
99992.648
99992.657
99992.659
99992.657
99992.648
99992.635
99992.616
99992.592
99992.562
99992.527
99992.487
99992.441
99992.389
99992.331
99992.268
99992.199
99992.124
99992.043
99991.955
99991.861
99991.76
99991.652
99991.537
99991.415
99991.285
99991.147
99991.002
99990.848
99990.686
99990.514
99990.333
99990.143
99989.942
99989.73
99989.507
99989.271
99989.023
99991.834
99991.929
99992.017
99992.097
99992.171
99992.239
99992.3
99992.355
99992.403
99992.446
99992.482
99992.513
99992.538
99992.557
99992.57
99992.578
99992.58
99992.577
99992.568
99992.554
99992.535
99992.509
99992.479
99992.443
99992.401
99992.353
99992.3
99992.241
99992.176
99992.105
99992.028
99991.945
99991.855
99991.758
99991.655
99991.545
99991.427
99991.303
99991.171
99991.031
99990.883
99990.727
99990.563
99990.39
99990.207
99990.015
99989.813
99989.601
99989.377
99989.141
99988.892
99991.764
99991.859
99991.947
99992.027
99992.101
99992.169
99992.23
99992.285
99992.333
99992.376
99992.412
99992.442
99992.467
99992.486
99992.499
99992.506
99992.508
99992.504
99992.495
99992.48
99992.46
99992.434
99992.402
99992.365
99992.322
99992.273
99992.218
99992.158
99992.091
99992.018
99991.939
99991.853
99991.761
99991.663
99991.557
99991.444
99991.325
99991.198
99991.063
99990.921
99990.771
99990.613
99990.447
99990.272
99990.088
99989.895
99989.692
99989.479
99989.254
99989.018
99988.769
99991.7
99991.795
99991.883
99991.964
99992.038
99992.106
99992.167
99992.221
99992.27
99992.312
99992.348
99992.379
99992.403
99992.421
99992.434
99992.441
99992.443
99992.438
99992.428
99992.413
99992.392
99992.365
99992.332
99992.293
99992.249
99992.199
99992.143
99992.08
99992.012
99991.937
99991.856
99991.768
99991.674
99991.573
99991.465
99991.35
99991.228
99991.099
99990.962
99990.818
99990.666
99990.506
99990.337
99990.161
99989.975
99989.781
99989.577
99989.363
99989.138
99988.901
99988.651
99991.642
99991.737
99991.825
99991.906
99991.98
99992.048
99992.109
99992.164
99992.212
99992.254
99992.291
99992.321
99992.345
99992.363
99992.375
99992.382
99992.383
99992.378
99992.368
99992.351
99992.329
99992.301
99992.267
99992.228
99992.182
99992.131
99992.073
99992.009
99991.939
99991.862
99991.779
99991.689
99991.593
99991.49
99991.38
99991.263
99991.138
99991.007
99990.868
99990.721
99990.567
99990.405
99990.234
99990.056
99989.869
99989.673
99989.468
99989.254
99989.028
99988.791
99988.54
99991.589
99991.684
99991.773
99991.854
99991.928
99991.996
99992.057
99992.112
99992.16
99992.202
99992.238
99992.268
99992.292
99992.31
99992.322
99992.328
99992.329
99992.323
99992.312
99992.295
99992.272
99992.243
99992.208
99992.167
99992.12
99992.067
99992.008
99991.943
99991.871
99991.792
99991.707
99991.616
99991.517
99991.412
99991.3
99991.18
99991.054
99990.92
99990.779
99990.63
99990.474
99990.309
99990.137
99989.957
99989.768
99989.571
99989.366
99989.151
99988.925
99988.686
99988.435
99991.541
99991.636
99991.725
99991.806
99991.881
99991.949
99992.01
99992.064
99992.113
99992.155
99992.191
99992.22
99992.244
99992.262
99992.273
99992.279
99992.279
99992.273
99992.261
99992.243
99992.219
99992.19
99992.154
99992.112
99992.064
99992.009
99991.949
99991.881
99991.808
99991.728
99991.641
99991.547
99991.447
99991.34
99991.225
99991.104
99990.975
99990.839
99990.695
99990.545
99990.386
99990.22
99990.046
99989.864
99989.674
99989.475
99989.269
99989.054
99991.497
99991.593
99991.681
99991.763
99991.838
99991.906
99991.967
99992.022
99992.07
99992.112
99992.147
99992.177
99992.2
99992.218
99992.229
99992.234
99992.234
99992.227
99992.215
99992.196
99992.172
99992.141
99992.104
99992.061
99992.011
99991.956
99991.894
99991.825
99991.75
99991.668
99991.579
99991.484
99991.381
99991.272
99991.156
99991.032
99990.901
99990.763
99990.618
99990.465
99990.304
99990.136
99989.96
99989.776
99989.584
99989.385
99989.177
99991.458
99991.553
99991.642
99991.724
99991.798
99991.866
99991.928
99991.983
99992.031
99992.073
99992.108
99992.138
99992.161
99992.178
99992.189
99992.194
99992.193
99992.186
99992.172
99992.153
99992.128
99992.096
99992.058
99992.014
99991.963
99991.906
99991.843
99991.773
99991.696
99991.613
99991.522
99991.425
99991.321
99991.209
99991.091
99990.965
99990.832
99990.692
99990.545
99990.39
99990.227
99990.057
99989.88
99989.694
99989.501
99989.299
99989.09
99991.422
99991.517
99991.606
99991.688
99991.763
99991.831
99991.892
99991.947
99991.995
99992.037
99992.073
99992.102
99992.125
99992.142
99992.152
99992.157
99992.155
99992.148
99992.134
99992.114
99992.088
99992.055
99992.016
99991.971
99991.919
99991.861
99991.796
99991.725
99991.647
99991.561
99991.469
99991.37
99991.264
99991.151
99991.031
99990.903
99990.768
99990.626
99990.477
99990.32
99990.156
99989.984
99989.804
99989.617
99989.422
99989.219
99989.008
99991.389
99991.485
99991.574
99991.656
99991.731
99991.799
99991.86
99991.915
99991.963
99992.005
99992.04
99992.069
99992.092
99992.109
99992.119
99992.123
99992.121
99992.113
99992.099
99992.078
99992.051
99992.018
99991.978
99991.932
99991.879
99991.819
99991.753
99991.681
99991.601
99991.514
99991.421
99991.32
99991.212
99991.097
99990.975
99990.846
99990.709
99990.565
99990.414
99990.255
99990.089
99989.915
99989.734
99989.545
99989.348
99989.144
99988.931
99991.359
99991.456
99991.544
99991.626
99991.702
99991.77
99991.831
99991.886
99991.934
99991.976
99992.011
99992.04
99992.063
99992.079
99992.089
99992.093
99992.09
99992.081
99992.066
99992.045
99992.017
99991.983
99991.943
99991.895
99991.842
99991.781
99991.714
99991.64
99991.559
99991.471
99991.376
99991.274
99991.164
99991.048
99990.924
99990.793
99990.654
99990.508
99990.355
99990.195
99990.027
99989.851
99989.668
99989.478
99989.279
99989.074
99988.86
99991.333
99991.429
99991.518
99991.6
99991.675
99991.743
99991.805
99991.86
99991.908
99991.95
99991.985
99992.013
99992.036
99992.052
99992.061
99992.065
99992.062
99992.053
99992.037
99992.015
99991.987
99991.952
99991.911
99991.862
99991.808
99991.746
99991.678
99991.603
99991.52
99991.431
99991.334
99991.231
99991.12
99991.002
99990.876
99990.743
99990.603
99990.456
99990.301
99990.139
99989.969
99989.792
99989.607
99989.415
99989.215
99989.008
99988.793
99991.309
99991.405
99991.494
99991.576
99991.651
99991.72
99991.781
99991.836
99991.884
99991.926
99991.961
99991.989
99992.011
99992.027
99992.037
99992.04
99992.036
99992.027
99992.011
99991.988
99991.959
99991.924
99991.881
99991.832
99991.777
99991.714
99991.645
99991.569
99991.485
99991.395
99991.297
99991.192
99991.079
99990.96
99990.833
99990.698
99990.557
99990.407
99990.251
99990.087
99989.916
99989.737
99989.551
99989.357
99989.156
99988.947
99988.731
99990.691
99990.825
99990.953
99991.072
99991.184
99991.287
99991.383
99991.473
99991.555
99991.63
99991.698
99991.76
99991.815
99991.863
99991.904
99991.939
99991.968
99991.99
99992.005
99992.014
99992.017
99992.013
99992.003
99991.987
99991.964
99991.934
99991.898
99991.855
99991.805
99991.749
99991.685
99991.615
99991.538
99991.453
99991.361
99991.262
99991.156
99991.042
99990.921
99990.793
99990.657
99990.514
99990.363
99990.205
99990.04
99989.867
99989.687
99989.499
99989.304
99989.101
99988.891
99988.673
99990.671
99990.806
99990.933
99991.052
99991.164
99991.268
99991.364
99991.453
99991.536
99991.611
99991.679
99991.741
99991.796
99991.844
99991.885
99991.92
99991.948
99991.97
99991.985
99991.994
99991.996
99991.992
99991.982
99991.965
99991.941
99991.911
99991.874
99991.831
99991.78
99991.723
99991.659
99991.588
99991.509
99991.424
99991.331
99991.231
99991.123
99991.009
99990.886
99990.756
99990.619
99990.475
99990.323
99990.163
99989.997
99989.822
99989.641
99989.452
99989.255
99989.051
99988.84
99988.62
99990.654
99990.789
99990.916
99991.035
99991.147
99991.251
99991.347
99991.437
99991.519
99991.594
99991.663
99991.724
99991.779
99991.827
99991.868
99991.903
99991.931
99991.952
99991.967
99991.976
99991.978
99991.974
99991.963
99991.946
99991.922
99991.891
99991.853
99991.809
99991.758
99991.7
99991.635
99991.563
99991.484
99991.398
99991.304
99991.203
99991.094
99990.978
99990.855
99990.724
99990.585
99990.439
99990.286
99990.125
99989.957
99989.782
99989.599
99989.408
99989.211
99989.005
99988.793
99988.572
99990.64
99990.774
99990.901
99991.02
99991.132
99991.236
99991.332
99991.422
99991.504
99991.579
99991.648
99991.709
99991.764
99991.812
99991.853
99991.887
99991.915
99991.937
99991.951
99991.96
99991.962
99991.957
99991.946
99991.928
99991.904
99991.873
99991.835
99991.79
99991.738
99991.68
99991.614
99991.541
99991.461
99991.374
99991.279
99991.177
99991.068
99990.951
99990.826
99990.694
99990.555
99990.408
99990.253
99990.091
99989.922
99989.745
99989.561
99989.369
99989.17
99988.964
99988.75
99988.528
99990.628
99990.762
99990.889
99991.008
99991.119
99991.223
99991.32
99991.409
99991.491
99991.567
99991.635
99991.696
99991.751
99991.799
99991.84
99991.874
99991.902
99991.923
99991.938
99991.946
99991.947
99991.942
99991.931
99991.913
99991.888
99991.856
99991.818
99991.773
99991.721
99991.661
99991.595
99991.522
99991.441
99991.353
99991.258
99991.155
99991.044
99990.926
99990.801
99990.668
99990.527
99990.379
99990.224
99990.061
99989.89
99989.713
99989.527
99989.334
99989.134
99988.926
99988.711
99988.488
99990.619
99990.752
99990.879
99990.997
99991.109
99991.213
99991.309
99991.398
99991.481
99991.556
99991.624
99991.685
99991.74
99991.787
99991.828
99991.862
99991.89
99991.911
99991.925
99991.933
99991.935
99991.93
99991.918
99991.899
99991.874
99991.842
99991.803
99991.758
99991.705
99991.645
99991.579
99991.505
99991.423
99991.335
99991.239
99991.135
99991.024
99990.905
99990.779
99990.645
99990.503
99990.354
99990.198
99990.034
99989.862
99989.684
99989.497
99989.303
99989.102
99988.893
99988.676
99988.453
99990.612
99990.745
99990.871
99990.989
99991.1
99991.204
99991.301
99991.39
99991.472
99991.547
99991.615
99991.676
99991.73
99991.778
99991.818
99991.852
99991.88
99991.901
99991.915
99991.923
99991.924
99991.918
99991.906
99991.888
99991.862
99991.83
99991.791
99991.745
99991.692
99991.631
99991.564
99991.49
99991.408
99991.319
99991.222
99991.118
99991.006
99990.886
99990.759
99990.625
99990.482
99990.332
99990.175
99990.01
99989.838
99989.658
99989.471
99989.276
99989.073
99988.863
99988.646
99988.421
99990.607
99990.74
99990.865
99990.983
99991.094
99991.198
99991.294
99991.383
99991.465
99991.54
99991.608
99991.669
99991.723
99991.77
99991.81
99991.844
99991.871
99991.892
99991.906
99991.914
99991.915
99991.909
99991.897
99991.878
99991.852
99991.819
99991.78
99991.733
99991.68
99991.62
99991.552
99991.477
99991.395
99991.305
99991.208
99991.103
99990.991
99990.87
99990.743
99990.607
99990.464
99990.314
99990.156
99989.99
99989.817
99989.636
99989.448
99989.252
99989.049
99988.838
99988.62
99988.394
99990.605
99990.737
99990.862
99990.98
99991.09
99991.194
99991.289
99991.378
99991.46
99991.535
99991.602
99991.663
99991.717
99991.764
99991.804
99991.838
99991.865
99991.885
99991.899
99991.906
99991.907
99991.901
99991.889
99991.869
99991.843
99991.811
99991.771
99991.724
99991.67
99991.61
99991.542
99991.466
99991.384