/*--------------------------------*- C++ -*----------------------------------*\
| =========                 |                                                 |
| \\      /  F ield         | OpenFOAM: The Open Source CFD Toolbox           |
|  \\    /   O peration     | Version:  2312                                  |
|   \\  /    A nd           | Website:  www.openfoam.com                      |
|    \\/     M anipulation  |                                                 |
\*---------------------------------------------------------------------------*/
FoamFile
{
    version     2.0;
    format      ascii;
    arch        "LSB;label=32;scalar=64";
    class       volVectorField;
    location    "0.07";
    object      U;
}
// * * * * * * * * * * * * * * * * * * * * * * * * * * * * * * * * * * * * * //

dimensions      [0 1 -1 0 0 0 0];

internalField   nonuniform List<vector> 
3272
(
(-0.15594665 -0.29809967 0)
(-0.077879301 -0.398557 0)
(-0.020396582 -0.47685692 0)
(0.019940014 -0.53811006 0)
(0.052178785 -0.58949819 0)
(0.090072313 -0.63386056 0)
(0.12667152 -0.66948453 0)
(0.15193957 -0.70001118 0)
(0.16972082 -0.72804277 0)
(0.18632584 -0.7535285 0)
(0.20286069 -0.7753674 0)
(0.21650763 -0.79425708 0)
(0.22578952 -0.81172221 0)
(0.23221442 -0.82877037 0)
(0.23806022 -0.84532124 0)
(0.244089 -0.86099649 0)
(0.24984935 -0.87582378 0)
(0.25488214 -0.89013078 0)
(0.25931884 -0.90410006 0)
(0.26353418 -0.91764908 0)
(0.26772877 -0.93061883 0)
(0.27187607 -0.94292547 0)
(0.27587065 -0.95455284 0)
(0.27961896 -0.96551602 0)
(0.2830579 -0.97582968 0)
(0.28615788 -0.98551075 0)
(0.28891644 -0.9945716 0)
(0.29134227 -1.003022 0)
(0.29344856 -1.0108715 0)
(0.29524718 -1.0181288 0)
(0.29674445 -1.0248046 0)
(0.29794838 -1.0309171 0)
(0.29886377 -1.0364713 0)
(0.2994991 -1.0414817 0)
(0.29987177 -1.04595 0)
(0.29994099 -1.0498781 0)
(0.29970392 -1.0532975 0)
(0.29919315 -1.0562193 0)
(0.29843574 -1.0586651 0)
(0.29747899 -1.0606376 0)
(0.29634894 -1.0621361 0)
(0.295085 -1.0631562 0)
(0.29372102 -1.0636832 0)
(0.29227305 -1.0637004 0)
(0.29074159 -1.0631931 0)
(0.28911149 -1.0621513 0)
(0.28736215 -1.0605789 0)
(0.28547248 -1.058484 0)
(0.2834435 -1.05588 0)
(0.28128706 -1.0527693 0)
(0.27902828 -1.0491509 0)
(0.27669286 -1.0450109 0)
(0.27425516 -1.0403476 0)
(0.17239128 0.12136597 0)
(0.19923138 0.13452998 0)
(0.21590213 0.12556834 0)
(0.22289374 0.10464681 0)
(0.22371717 0.077947583 0)
(0.22388167 0.047835362 0)
(0.22751693 0.012042212 0)
(0.23313214 -0.027057514 0)
(0.23931355 -0.067112579 0)
(0.24714229 -0.10642083 0)
(0.25604918 -0.14479582 0)
(0.26441372 -0.18230772 0)
(0.27145208 -0.21868573 0)
(0.27757173 -0.25341067 0)
(0.28344219 -0.28620871 0)
(0.28920229 -0.31712382 0)
(0.29454387 -0.34639542 0)
(0.29925207 -0.37422612 0)
(0.30341535 -0.40069332 0)
(0.30723269 -0.42582714 0)
(0.31081251 -0.44967921 0)
(0.31416192 -0.47233793 0)
(0.31724073 -0.49388116 0)
(0.32001198 -0.51439782 0)
(0.32245826 -0.53394645 0)
(0.32457303 -0.55257653 0)
(0.3263679 -0.57032608 0)
(0.32785762 -0.58721942 0)
(0.32905571 -0.60327924 0)
(0.32997088 -0.61852615 0)
(0.33059815 -0.63297854 0)
(0.3309529 -0.64665349 0)
(0.33104472 -0.6595673 0)
(0.3308765 -0.67173499 0)
(0.33045926 -0.68317675 0)
(0.32978052 -0.69391394 0)
(0.32884182 -0.7039419 0)
(0.32765589 -0.71328351 0)
(0.32624157 -0.72194928 0)
(0.32463336 -0.7299665 0)
(0.32286191 -0.7373406 0)
(0.32095801 -0.74407367 0)
(0.31894927 -0.7501675 0)
(0.31685014 -0.75562259 0)
(0.31466835 -0.76044021 0)
(0.31239317 -0.76462703 0)
(0.3100092 -0.76819458 0)
(0.30751128 -0.77115925 0)
(0.30490242 -0.77353363 0)
(0.30220032 -0.77533172 0)
(0.29942562 -0.77655647 0)
(0.29658062 -0.77721 0)
(0.29362471 -0.77729697 0)
(0.34218504 -0.16014276 0)
(0.34613899 -0.15917841 0)
(0.3529915 -0.16578353 0)
(0.36007193 -0.17591292 0)
(0.36581137 -0.18647252 0)
(0.37090583 -0.1957195 0)
(0.37608923 -0.20432825 0)
(0.38090116 -0.2137897 0)
(0.3851981 -0.22391476 0)
(0.38949231 -0.2347421 0)
(0.39376356 -0.24656971 0)
(0.39756493 -0.25950688 0)
(0.40064211 -0.27329392 0)
(0.40313523 -0.2875606 0)
(0.40531443 -0.30207288 0)
(0.40726768 -0.31676944 0)
(0.40890975 -0.33164074 0)
(0.41018264 -0.34661741 0)
(0.41112145 -0.36156602 0)
(0.41180261 -0.37639579 0)
(0.41227502 -0.39103051 0)
(0.41257007 -0.40545449 0)
(0.41266948 -0.41964648 0)
(0.41254623 -0.43358324 0)
(0.41220318 -0.44724227 0)
(0.41162633 -0.46059865 0)
(0.41083167 -0.47362634 0)
(0.40983123 -0.48630166 0)
(0.40862476 -0.49860411 0)
(0.4072157 -0.51051395 0)
(0.40560511 -0.52201247 0)
(0.4037974 -0.53307494 0)
(0.40179709 -0.54369425 0)
(0.39960428 -0.55385302 0)
(0.39722492 -0.56355384 0)
(0.39466901 -0.57278493 0)
(0.39193608 -0.58152879 0)
(0.38902732 -0.58978348 0)
(0.38594435 -0.59754447 0)
(0.382713 -0.60480993 0)
(0.37937045 -0.61157612 0)
(0.37593064 -0.6178363 0)
(0.37240905 -0.62358604 0)
(0.36882045 -0.62882076 0)
(0.36517294 -0.63353882 0)
(0.36146505 -0.63774453 0)
(0.35769194 -0.64144142 0)
(0.35385315 -0.64463707 0)
(0.34995691 -0.64733807 0)
(0.34601827 -0.64955054 0)
(0.34205845 -0.65127709 0)
(0.33807448 -0.6525179 0)
(0.33403695 -0.65326573 0)
(0.48177626 -0.30394017 0)
(0.48291882 -0.30040288 0)
(0.48627589 -0.29865075 0)
(0.49057013 -0.29884415 0)
(0.49489488 -0.30041857 0)
(0.49900764 -0.30281179 0)
(0.502893 -0.3060919 0)
(0.50644983 -0.31035732 0)
(0.50966224 -0.31537691 0)
(0.51261131 -0.32104838 0)
(0.51529473 -0.32743056 0)
(0.51757689 -0.33451341 0)
(0.51935623 -0.34215326 0)
(0.52065794 -0.35016257 0)
(0.52156498 -0.35842891 0)
(0.52211834 -0.36692162 0)
(0.52230165 -0.37562314 0)
(0.52213226 -0.3844821 0)
(0.52160818 -0.39342703 0)
(0.52076542 -0.40239898 0)
(0.51963429 -0.41135077 0)
(0.51821856 -0.42025545 0)
(0.51655702 -0.42910552 0)
(0.51464815 -0.43787081 0)
(0.5124907 -0.44653508 0)
(0.51008683 -0.45507234 0)
(0.50744751 -0.46345544 0)
(0.50458016 -0.47166941 0)
(0.50149475 -0.47969563 0)
(0.49820214 -0.48751061 0)
(0.49471256 -0.49509457 0)
(0.49103027 -0.50242798 0)
(0.48716275 -0.50950181 0)
(0.48310769 -0.51629848 0)
(0.47887864 -0.52279859 0)
(0.47450827 -0.52899038 0)
(0.46998987 -0.534865 0)
(0.46531709 -0.54041141 0)
(0.4605031 -0.54561982 0)
(0.45556836 -0.5504733 0)
(0.45053473 -0.55496707 0)
(0.44541723 -0.55909422 0)
(0.44023105 -0.56284666 0)
(0.43499038 -0.56621811 0)
(0.42970551 -0.56920584 0)
(0.42438244 -0.57180997 0)
(0.41902511 -0.57403187 0)
(0.41363996 -0.57587309 0)
(0.40823683 -0.5773355 0)
(0.40283308 -0.57842003 0)
(0.39744569 -0.57912662 0)
(0.39207909 -0.57945508 0)
(0.38672019 -0.57939368 0)
(0.59829369 -0.35985032 0)
(0.59891645 -0.36199044 0)
(0.60099196 -0.36451981 0)
(0.60392373 -0.36767707 0)
(0.60718159 -0.37140273 0)
(0.61047056 -0.3755465 0)
(0.61364998 -0.38005287 0)
(0.61661461 -0.3848744 0)
(0.61930202 -0.38994262 0)
(0.62169137 -0.39521378 0)
(0.62374712 -0.40069336 0)
(0.6254052 -0.40637589 0)
(0.62661556 -0.4122111 0)
(0.62737434 -0.41813627 0)
(0.62770712 -0.42411216 0)
(0.6276347 -0.43012604 0)
(0.62715768 -0.43616489 0)
(0.62627991 -0.44220519 0)
(0.62499736 -0.44823761 0)
(0.62333809 -0.45421301 0)
(0.62133311 -0.46012086 0)
(0.61899296 -0.46592665 0)
(0.61633822 -0.47162482 0)
(0.61337423 -0.477207 0)
(0.61010748 -0.48266455 0)
(0.60654929 -0.48798433 0)
(0.60270559 -0.49315412 0)
(0.59858329 -0.49816168 0)
(0.59420609 -0.50299563 0)
(0.58959046 -0.50764501 0)
(0.5847428 -0.51209878 0)
(0.57966204 -0.51634859 0)
(0.57436292 -0.5203854 0)
(0.56887607 -0.52419715 0)
(0.56321208 -0.52776594 0)
(0.55737748 -0.5310892 0)
(0.55138057 -0.53416619 0)
(0.54523062 -0.53698556 0)
(0.53894186 -0.53953737 0)
(0.53253071 -0.54181176 0)
(0.52601421 -0.54380311 0)
(0.51940846 -0.54550582 0)
(0.51272963 -0.54691461 0)
(0.50599296 -0.54802601 0)
(0.49921214 -0.54883867 0)
(0.49239849 -0.54935319 0)
(0.4855629 -0.54957064 0)
(0.47871655 -0.54949236 0)
(0.47187352 -0.54911917 0)
(0.46505043 -0.54845104 0)
(0.45826536 -0.54748953 0)
(0.45152932 -0.54623276 0)
(0.44484612 -0.54467458 0)
(0.70543736 -0.37619289 0)
(0.70604177 -0.38230997 0)
(0.70756311 -0.3883398 0)
(0.70971612 -0.39448337 0)
(0.71220467 -0.40078893 0)
(0.71479851 -0.40722517 0)
(0.71734224 -0.41375794 0)
(0.71972295 -0.42035288 0)
(0.72186038 -0.42697073 0)
(0.72369936 -0.4335816 0)
(0.72519194 -0.44016918 0)
(0.72629267 -0.44671504 0)
(0.72696763 -0.45318964 0)
(0.72720598 -0.45956141 0)
(0.72701464 -0.46580791 0)
(0.72640413 -0.47191728 0)
(0.72536843 -0.47787926 0)
(0.723892 -0.48368325 0)
(0.7219881 -0.48932154 0)
(0.71968966 -0.49476296 0)
(0.71701431 -0.49999979 0)
(0.71397017 -0.50501659 0)
(0.71056383 -0.50981111 0)
(0.70680297 -0.5143804 0)
(0.70269652 -0.51872051 0)
(0.69825517 -0.52282759 0)
(0.69349201 -0.52670086 0)
(0.68841762 -0.53032721 0)
(0.68304604 -0.53370329 0)
(0.67739428 -0.5368321 0)
(0.67147516 -0.53971134 0)
(0.66529672 -0.542336 0)
(0.65888124 -0.54469438 0)
(0.65225046 -0.54678624 0)
(0.64541142 -0.54861409 0)
(0.63837774 -0.55017633 0)
(0.63116399 -0.5514715 0)
(0.62378428 -0.55249598 0)
(0.61625357 -0.55324663 0)
(0.60858776 -0.55372067 0)
(0.60080339 -0.55391653 0)
(0.59291723 -0.55383308 0)
(0.58494624 -0.55347003 0)
(0.57690732 -0.55282833 0)
(0.56881647 -0.55191029 0)
(0.5606892 -0.55071921 0)
(0.55254021 -0.54925889 0)
(0.54438496 -0.54753297 0)
(0.53623996 -0.54554461 0)
(0.52812263 -0.54329732 0)
(0.52005269 -0.54079349 0)
(0.51204684 -0.53803696 0)
(0.50412188 -0.53502372 0)
(0.80928086 -0.37930361 0)
(0.8099561 -0.38766096 0)
(0.81117752 -0.39576452 0)
(0.81280257 -0.40376292 0)
(0.81466377 -0.41172955 0)
(0.81660059 -0.41968443 0)
(0.81848304 -0.42762225 0)
(0.82020788 -0.43552659 0)
(0.8216946 -0.44337329 0)
(0.82288203 -0.45113846 0)
(0.82372091 -0.45879896 0)
(0.82417216 -0.46633134 0)
(0.82420791 -0.47370864 0)
(0.82381489 -0.48090497 0)
(0.82299109 -0.48789898 0)
(0.82173851 -0.49467635 0)
(0.82004804 -0.50122569 0)
(0.81790608 -0.50753164 0)
(0.81533054 -0.51357411 0)
(0.8123479 -0.51933977 0)
(0.80896731 -0.52481664 0)
(0.80519323 -0.52999894 0)
(0.80102857 -0.53488256 0)
(0.79648182 -0.53946321 0)
(0.79156131 -0.54373699 0)
(0.78627445 -0.54770064 0)
(0.78064322 -0.55135164 0)
(0.77468055 -0.55468604 0)
(0.76838804 -0.55770087 0)
(0.76178389 -0.56039903 0)
(0.75489022 -0.56278038 0)
(0.74772434 -0.56484072 0)
(0.74029877 -0.56657297 0)
(0.73262736 -0.56798739 0)
(0.72472686 -0.56908624 0)
(0.71661441 -0.56986977 0)
(0.70830587 -0.57033923 0)
(0.69981691 -0.57049592 0)
(0.69116357 -0.57034137 0)
(0.68236233 -0.56987732 0)
(0.67343012 -0.56910607 0)
(0.66438424 -0.56803046 0)
(0.65524246 -0.56665406 0)
(0.64602262 -0.56498141 0)
(0.63674273 -0.56301792 0)
(0.62742019 -0.56076981 0)
(0.61807277 -0.55824354 0)
(0.60871828 -0.55544562 0)
(0.59937468 -0.55238262 0)
(0.59006197 -0.54906065 0)
(0.58079936 -0.54548657 0)
(0.57160979 -0.54166563 0)
(0.56251671 -0.53760163 0)
(0.91168784 -0.3807484 0)
(0.91243369 -0.39029739 0)
(0.91346087 -0.39952686 0)
(0.91469201 -0.40854407 0)
(0.91602751 -0.41741993 0)
(0.91735874 -0.42619198 0)
(0.91858758 -0.43487354 0)
(0.91962964 -0.44346381 0)
(0.92041493 -0.45195127 0)
(0.92088756 -0.46031999 0)
(0.92100283 -0.46855039 0)
(0.9207267 -0.4766213 0)
(0.92003483 -0.48450943 0)
(0.91891317 -0.49219232 0)
(0.91735522 -0.49964989 0)
(0.91535817 -0.50686693 0)
(0.91291603 -0.51383068 0)
(0.9100224 -0.52052244 0)
(0.90668588 -0.52691846 0)
(0.90292876 -0.53301018 0)
(0.89875923 -0.5387873 0)
(0.8941752 -0.54424442 0)
(0.88918226 -0.54937456 0)
(0.8837889 -0.55417116 0)
(0.87800384 -0.5586286 0)
(0.87183718 -0.56274125 0)
(0.86530539 -0.56650253 0)
(0.85842195 -0.56991373 0)
(0.85119245 -0.57297024 0)
(0.84363238 -0.57567066 0)
(0.83576819 -0.57801397 0)
(0.82762161 -0.57999564 0)
(0.81919652 -0.58161416 0)
(0.81050382 -0.58287674 0)
(0.80156831 -0.58378499 0)
(0.79240824 -0.58434021 0)
(0.78303982 -0.58454469 0)
(0.77347955 -0.58440123 0)
(0.76374435 -0.58391307 0)
(0.75385135 -0.58308382 0)
(0.74381799 -0.58191767 0)
(0.7336622 -0.58041932 0)
(0.72340221 -0.57859424 0)
(0.71305688 -0.57644867 0)
(0.70264492 -0.57398964 0)
(0.69218553 -0.57122489 0)
(0.6816978 -0.56816242 0)
(0.67120099 -0.56481085 0)
(0.66071528 -0.5611787 0)
(0.65026011 -0.55727503 0)
(0.63985869 -0.55310865 0)
(0.62953493 -0.54868667 0)
(0.61931577 -0.54401653 0)
(1.0130471 -0.38391863 0)
(1.0138387 -0.3941082 0)
(1.0147106 -0.40394288 0)
(1.0156171 -0.41350175 0)
(1.016496 -0.42284543 0)
(1.0172742 -0.43201404 0)
(1.0178805 -0.44102929 0)
(1.0182501 -0.44990019 0)
(1.0183269 -0.4586251 0)
(1.0180642 -0.46719634 0)
(1.0174245 -0.47560114 0)
(1.0163793 -0.48382424 0)
(1.0149078 -0.49184813 0)
(1.0129972 -0.49965516 0)
(1.010639 -0.50722842 0)
(1.0078275 -0.51455501 0)
(1.0045605 -0.52162258 0)
(1.0008412 -0.52841299 0)
(0.9966737 -0.53490751 0)
(0.99206799 -0.54109411 0)
(0.98703141 -0.54696826 0)
(0.98156566 -0.5525223 0)
(0.97567744 -0.5577479 0)
(0.96937531 -0.56263744 0)
(0.96266845 -0.56718371 0)
(0.95556803 -0.57137992 0)
(0.94808867 -0.57521934 0)
(0.94024313 -0.57869892 0)
(0.93203927 -0.58181562 0)
(0.9234928 -0.58456582 0)
(0.91463371 -0.58695267 0)
(0.90548337 -0.58895797 0)
(0.89604006 -0.59058938 0)
(0.88631575 -0.59184972 0)
(0.87633864 -0.59273956 0)
(0.86612782 -0.59326005 0)
(0.85569988 -0.59341313 0)
(0.84507189 -0.5932014 0)
(0.83426135 -0.59262812 0)
(0.82328596 -0.59169711 0)
(0.81216372 -0.59041284 0)
(0.800913 -0.58878038 0)
(0.78955271 -0.5868056 0)
(0.77810206 -0.58449497 0)
(0.76658075 -0.58185603 0)
(0.75500864 -0.57889659 0)
(0.74340588 -0.57562551 0)
(0.73179279 -0.57205176 0)
(0.7201895 -0.5681852 0)
(0.70861814 -0.56403638 0)
(0.69710319 -0.55961415 0)
(0.68567218 -0.55492519 0)
(0.67434664 -0.54998294 0)
(1.1134079 -0.38900296 0)
(1.1142074 -0.39954319 0)
(1.114924 -0.40970154 0)
(1.1155306 -0.41953855 0)
(1.1159874 -0.42910477 0)
(1.1162453 -0.43843788 0)
(1.1162539 -0.44756245 0)
(1.1159656 -0.45649281 0)
(1.1153375 -0.46523412 0)
(1.1143334 -0.47378544 0)
(1.1129234 -0.48214067 0)
(1.1110849 -0.49029078 0)
(1.1088016 -0.49822431 0)
(1.1060631 -0.50592907 0)
(1.1028601 -0.51339285 0)
(1.099187 -0.52060507 0)
(1.095048 -0.52755401 0)
(1.090448 -0.53422531 0)
(1.0853896 -0.54060681 0)
(1.0798779 -0.54668804 0)
(1.0739181 -0.55246384 0)
(1.067516 -0.55792675 0)
(1.0606796 -0.5630689 0)
(1.0534184 -0.56788277 0)
(1.0457424 -0.57236052 0)
(1.0376638 -0.57649478 0)
(1.0291965 -0.58027952 0)
(1.0203516 -0.5837099 0)
(1.0111383 -0.58678 0)
(1.0015657 -0.58948928 0)
(0.99168463 -0.59185889 0)
(0.98151366 -0.59382904 0)
(0.97102952 -0.59542848 0)
(0.96025587 -0.59666083 0)
(0.9492228 -0.5975234 0)
(0.93794959 -0.59801647 0)
(0.92645326 -0.59814129 0)
(0.9147513 -0.59789989 0)
(0.90286162 -0.59729502 0)
(0.89080237 -0.59633017 0)
(0.87859202 -0.59500945 0)
(0.8662494 -0.59333773 0)
(0.85379385 -0.5913205 0)
(0.84124506 -0.58896413 0)
(0.82862317 -0.58627559 0)
(0.81594872 -0.58326279 0)
(0.80324236 -0.57993409 0)
(0.79052491 -0.57629863 0)
(0.77781697 -0.57236628 0)
(0.76514198 -0.56814701 0)
(0.75253129 -0.56365112 0)
(1.2128018 -0.39534305 0)
(1.2135546 -0.40606068 0)
(1.2140875 -0.41637342 0)
(1.2143845 -0.42632974 0)
(1.2144206 -0.43597222 0)
(1.2141636 -0.44533503 0)
(1.2135792 -0.4544431 0)
(1.2126339 -0.4633134 0)
(1.2112966 -0.4719554 0)
(1.2095409 -0.48037312 0)
(1.2073447 -0.48856581 0)
(1.2046912 -0.49652966 0)
(1.2015685 -0.50425841 0)
(1.1979689 -0.51174506 0)
(1.1938858 -0.51898275 0)
(1.1893163 -0.52596235 0)
(1.1842664 -0.53267271 0)
(1.1787428 -0.53910497 0)
(1.1727474 -0.54525096 0)
(1.1662835 -0.55110415 0)
(1.1593572 -0.55665846 0)
(1.1519768 -0.56190737 0)
(1.1441515 -0.56684367 0)
(1.1358925 -0.57146051 0)
(1.1272113 -0.5757503 0)
(1.1181193 -0.57970695 0)
(1.1086303 -0.58332572 0)
(1.0987596 -0.58660327 0)
(1.0885118 -0.58953364 0)
(1.0778674 -0.59210949 0)
(1.066942 -0.59432487 0)
(1.0557497 -0.59618032 0)
(1.0442031 -0.59767934 0)
(1.0323606 -0.59881682 0)
(1.0202578 -0.59959164 0)
(1.007911 -0.60000456 0)
(0.9953374 -0.60005683 0)
(0.98255462 -0.59975027 0)
(0.9695809 -0.59908735 0)
(0.95643475 -0.59807124 0)
(0.94313501 -0.59670573 0)
(0.92970095 -0.59499537 0)
(0.91615223 -0.59294531 0)
(0.90250894 -0.59056153 0)
(0.88879159 -0.58785068 0)
(0.87502109 -0.58482022 0)
(0.86121876 -0.58147825 0)
(0.84740556 -0.57783358 0)
(0.83360314 -0.57389561 0)
(0.81983552 -0.5696743 0)
(0.80613213 -0.56517994 0)
(1.31128 -0.40228382 0)
(1.3119176 -0.4130525 0)
(1.312215 -0.42339723 0)
(1.3121651 -0.43335858 0)
(1.3117539 -0.44297332 0)
(1.3109615 -0.45227248 0)
(1.3097662 -0.46128036 0)
(1.3081461 -0.47001521 0)
(1.3060807 -0.47848918 0)
(1.303552 -0.48670966 0)
(1.3005454 -0.49467988 0)
(1.2970499 -0.50240008 0)
(1.2930579 -0.50986842 0)
(1.2885638 -0.51708271 0)
(1.2835651 -0.52403915 0)
(1.2780653 -0.53072982 0)
(1.2720712 -0.53714564 0)
(1.265587 -0.54328201 0)
(1.2586153 -0.54913497 0)
(1.2511612 -0.55469944 0)
(1.2432328 -0.55997011 0)
(1.23484 -0.56494174 0)
(1.2259938 -0.56960645 0)
(1.2167066 -0.57395871 0)
(1.20699 -0.57799258 0)
(1.1968548 -0.58170366 0)
(1.1863138 -0.58508851 0)
(1.1753823 -0.58814515 0)
(1.164077 -0.59086997 0)
(1.1524079 -0.59324521 0)
(1.1404212 -0.59524002 0)
(1.1281256 -0.59691845 0)
(1.1155047 -0.59825515 0)
(1.1025923 -0.59923837 0)
(1.0894133 -0.59986938 0)
(1.0759864 -0.60014952 0)
(1.0623298 -0.60008022 0)
(1.0484619 -0.59966333 0)
(1.0344012 -0.59890123 0)
(1.0201667 -0.59779699 0)
(1.0057776 -0.59635425 0)
(0.99125352 -0.59457737 0)
(0.97661439 -0.59247131 0)
(0.9618806 -0.59004179 0)
(0.94707291 -0.58729524 0)
(0.9322126 -0.58423879 0)
(0.91732114 -0.5808804 0)
(0.90242013 -0.57722859 0)
(0.88753104 -0.57329285 0)
(0.87267843 -0.56908292 0)
(0.85789045 -0.56461004 0)
(1.4088958 -0.40936512 0)
(1.4093349 -0.42007696 0)
(1.4093271 -0.43035018 0)
(1.408872 -0.44022026 0)
(1.4079643 -0.44971989 0)
(1.4065944 -0.45887766 0)
(1.4047506 -0.46771714 0)
(1.4024208 -0.47625707 0)
(1.3995933 -0.48451124 0)
(1.3962581 -0.49248928 0)
(1.3924073 -0.50019725 0)
(1.3880351 -0.50763881 0)
(1.383137 -0.51481651 0)
(1.3777116 -0.52173075 0)
(1.3717637 -0.52837742 0)
(1.3653005 -0.53475035 0)
(1.3583266 -0.54084605 0)
(1.3508454 -0.54666325 0)
(1.3428624 -0.55219911 0)
(1.3343853 -0.55744933 0)
(1.3254231 -0.56240974 0)
(1.3159898 -0.56707686 0)
(1.3060975 -0.57144107 0)
(1.2957571 -0.57549873 0)
(1.2849811 -0.57924585 0)
(1.2737798 -0.58267921 0)
(1.2621661 -0.58579558 0)
(1.2501576 -0.58859476 0)
(1.2377821 -0.59107324 0)
(1.2250576 -0.59320774 0)
(1.2119953 -0.59499172 0)
(1.1986046 -0.59645372 0)
(1.1848994 -0.59758316 0)
(1.1709053 -0.59837418 0)
(1.1566431 -0.5988263 0)
(1.1421315 -0.59894024 0)
(1.127389 -0.59871719 0)
(1.1124346 -0.59815895 0)
(1.097287 -0.59726791 0)
(1.0819656 -0.59604711 0)
(1.0664898 -0.59450018 0)
(1.0508794 -0.59263141 0)
(1.0351548 -0.59044573 0)
(1.0193364 -0.58794874 0)
(1.0034452 -0.58514674 0)
(0.9875027 -0.58204678 0)
(0.97153066 -0.57865655 0)
(0.95555034 -0.5749849 0)
(0.93958392 -0.57104064 0)
(0.92365531 -0.56683456 0)
(0.90779264 -0.56237662 0)
(1.5056818 -0.41630029 0)
(1.5058279 -0.42685606 0)
(1.5054303 -0.43696342 0)
(1.5044955 -0.44665453 0)
(1.5030257 -0.45595932 0)
(1.5010195 -0.46490451 0)
(1.4984739 -0.47351307 0)
(1.4953851 -0.48180399 0)
(1.4917495 -0.48979188 0)
(1.4875641 -0.49748779 0)
(1.4828264 -0.50490021 0)
(1.4775343 -0.51203647 0)
(1.4716883 -0.51890105 0)
(1.4652951 -0.52549326 0)
(1.4583639 -0.53180969 0)
(1.4509008 -0.53784951 0)
(1.4429093 -0.54361353 0)
(1.434396 -0.54910123 0)
(1.4253697 -0.55431038 0)
(1.4158401 -0.5592377 0)
(1.4058162 -0.563878 0)
(1.3953176 -0.56822701 0)
(1.3843574 -0.57228135 0)
(1.372943 -0.57603656 0)
(1.3610878 -0.57948924 0)
(1.3488035 -0.58263603 0)
(1.3361007 -0.58547315 0)
(1.3229973 -0.58800276 0)
(1.3095415 -0.59022418 0)
(1.2957492 -0.59210717 0)
(1.2816024 -0.59366054 0)
(1.2671174 -0.59489608 0)
(1.2523232 -0.59580882 0)
(1.2372427 -0.59639556 0)
(1.2218945 -0.59665587 0)
(1.2062973 -0.5965903 0)
(1.19047 -0.5962 0)
(1.1744313 -0.59548681 0)
(1.1582005 -0.59445318 0)
(1.1417968 -0.59310217 0)
(1.1252401 -0.59143748 0)
(1.1085504 -0.58946338 0)
(1.091748 -0.5871848 0)
(1.0748536 -0.58460733 0)
(1.0578884 -0.58173724 0)
(1.0408739 -0.5785814 0)
(1.0238316 -0.5751479 0)
(1.0067835 -0.57144469 0)
(0.98975066 -0.56748217 0)
(0.972758 -0.56326887 0)
(0.95583251 -0.55881756 0)
(1.6016426 -0.42291295 0)
(1.6013903 -0.43322022 0)
(1.6005075 -0.44307438 0)
(1.5990065 -0.4525054 0)
(1.5968965 -0.46154125 0)
(1.5941832 -0.47020737 0)
(1.5908709 -0.4785262 0)
(1.5869636 -0.48651699 0)
(1.582465 -0.49419455 0)
(1.5773774 -0.50157101 0)
(1.571702 -0.50865798 0)
(1.5654422 -0.51546395 0)
(1.5586073 -0.52199143 0)
(1.5512091 -0.52823996 0)
(1.5432559 -0.53421115 0)
(1.5347528 -0.53990827 0)
(1.5257069 -0.54533254 0)
(1.5161281 -0.55048345 0)
(1.5060275 -0.55536048 0)
(1.495419 -0.55996205 0)
(1.4843147 -0.56427924 0)
(1.4727286 -0.56830868 0)
(1.4606753 -0.57205244 0)
(1.4481671 -0.57550611 0)
(1.4352173 -0.57866794 0)
(1.4218382 -0.58153325 0)
(1.4080373 -0.58409655 0)
(1.39383 -0.58635229 0)
(1.3792869 -0.58829617 0)
(1.364416 -0.58992904 0)
(1.3491774 -0.59125458 0)
(1.3335993 -0.59226902 0)
(1.3177161 -0.59296885 0)
(1.3015493 -0.59335344 0)
(1.2851171 -0.59342298 0)
(1.2684377 -0.59317826 0)
(1.2515301 -0.59262056 0)
(1.2344133 -0.59175189 0)
(1.2171063 -0.59057472 0)
(1.1996288 -0.58909221 0)
(1.1820004 -0.587308 0)
(1.1642414 -0.58522648 0)
(1.1463723 -0.58285249 0)
(1.1284138 -0.5801917 0)
(1.1103871 -0.57725016 0)
(1.0923133 -0.57403514 0)
(1.0742148 -0.57055385 0)
(1.0561119 -0.56681593 0)
(1.0380275 -0.5628292 0)
(1.0199845 -0.55860557 0)
(1.0020116 -0.55415311 0)
(1.6967508 -0.42908599 0)
(1.6959874 -0.43905953 0)
(1.6945154 -0.44858044 0)
(1.6923534 -0.45767722 0)
(1.6895165 -0.46637644 0)
(1.686017 -0.4747023 0)
(1.6818654 -0.48267686 0)
(1.677073 -0.49031992 0)
(1.6716499 -0.49764646 0)
(1.6656015 -0.50466992 0)
(1.6589343 -0.5114028 0)
(1.6516607 -0.51785084 0)
(1.6437958 -0.52401665 0)
(1.6353505 -0.52990445 0)
(1.6263327 -0.53551956 0)
(1.6167517 -0.54086493 0)
(1.6066183 -0.54594113 0)
(1.5959431 -0.55074807 0)
(1.5847387 -0.55528822 0)
(1.5730267 -0.55956458 0)
(1.5608204 -0.56355872 0)
(1.5481276 -0.56727247 0)
(1.5349645 -0.57070778 0)
(1.5213448 -0.57386348 0)
(1.5072836 -0.57673738 0)
(1.4927985 -0.57932544 0)
(1.4779023 -0.58162028 0)
(1.4626121 -0.58360684 0)
(1.4469724 -0.58528085 0)
(1.4309909 -0.58667438 0)
(1.4146546 -0.58777743 0)
(1.3979897 -0.5885776 0)
(1.3810236 -0.5890726 0)
(1.3637762 -0.58926299 0)
(1.3462661 -0.58914966 0)
(1.3285119 -0.58873337 0)
(1.3105326 -0.58801581 0)
(1.2923471 -0.58699878 0)
(1.2739746 -0.58568504 0)
(1.2554348 -0.58407747 0)
(1.2367475 -0.58218001 0)
(1.2179327 -0.57999666 0)
(1.199011 -0.57753259 0)
(1.1800034 -0.57479302 0)
(1.1609304 -0.57178449 0)
(1.1418141 -0.56851343 0)
(1.1226746 -0.56498832 0)
(1.1035349 -0.56121687 0)
(1.0844148 -0.55720943 0)
(1.0653403 -0.55297471 0)
(1.0463369 -0.54852394 0)
(1.7909509 -0.43472998 0)
(1.7895577 -0.44429293 0)
(1.787387 -0.45340875 0)
(1.7844632 -0.46210521 0)
(1.7808077 -0.47040732 0)
(1.7764381 -0.47833847 0)
(1.77137 -0.48592015 0)
(1.7656211 -0.49317282 0)
(1.7592071 -0.50011297 0)
(1.7521379 -0.50675251 0)
(1.7444277 -0.51310108 0)
(1.7360948 -0.51916481 0)
(1.7271537 -0.52495053 0)
(1.717616 -0.53046574 0)
(1.7074942 -0.5357145 0)
(1.6968013 -0.54069924 0)
(1.6855503 -0.54542038 0)
(1.6737505 -0.54987806 0)
(1.6614114 -0.55407721 0)
(1.6485732 -0.55803049 0)
(1.6352508 -0.56170115 0)
(1.6214359 -0.56510047 0)
(1.6071476 -0.56823277 0)
(1.5924046 -0.57109528 0)
(1.5772245 -0.57368358 0)
(1.5616274 -0.57599573 0)
(1.5456344 -0.578023 0)
(1.5292583 -0.57975287 0)
(1.5125161 -0.58119222 0)
(1.4954242 -0.5823589 0)
(1.4779948 -0.58324231 0)
(1.4602482 -0.58383433 0)
(1.4422051 -0.58413333 0)
(1.4238847 -0.58413991 0)
(1.4053057 -0.58385425 0)
(1.3864871 -0.58327761 0)
(1.3674476 -0.58241104 0)
(1.3482061 -0.58125692 0)
(1.3287821 -0.57981726 0)
(1.3091948 -0.57809559 0)
(1.2894641 -0.57609499 0)
(1.26961 -0.57382019 0)
(1.2496531 -0.57127541 0)
(1.2296139 -0.56846669 0)
(1.2095136 -0.56539946 0)
(1.1893725 -0.56208125 0)
(1.1692129 -0.55851918 0)
(1.1490542 -0.55472219 0)
(1.1289197 -0.55069967 0)
(1.1088323 -0.54646104 0)
(1.088821 -0.54201523 0)
(1.8841618 -0.43976831 0)
(1.8820169 -0.44885246 0)
(1.8790347 -0.45750052 0)
(1.8752457 -0.46573882 0)
(1.870677 -0.47359167 0)
(1.8653511 -0.48108096 0)
(1.8592875 -0.48823061 0)
(1.8525078 -0.4950576 0)
(1.8450365 -0.5015774 0)
(1.8368909 -0.50780202 0)
(1.8280873 -0.51374029 0)
(1.8186448 -0.51940138 0)
(1.8085796 -0.52479503 0)
(1.7979083 -0.52992693 0)
(1.7866469 -0.53480032 0)
(1.7748107 -0.53941757 0)
(1.762415 -0.54378105 0)
(1.7494668 -0.54789289 0)
(1.7359655 -0.55175226 0)
(1.7219824 -0.55535749 0)
(1.7075333 -0.55871007 0)
(1.6925798 -0.56180578 0)
(1.6771554 -0.5646434 0)
(1.6612845 -0.56721801 0)
(1.6449823 -0.56952654 0)
(1.6282726 -0.57156704 0)
(1.6111807 -0.57333372 0)
(1.5937069 -0.57482424 0)
(1.5758618 -0.57604399 0)
(1.5576743 -0.57699317 0)
(1.5391612 -0.57766693 0)
(1.5203395 -0.5780617 0)
(1.5012276 -0.57817664 0)
(1.4818444 -0.57801112 0)
(1.4622085 -0.57756573 0)
(1.4423387 -0.57684087 0)
(1.4222535 -0.57583822 0)
(1.4019718 -0.57455919 0)
(1.3815128 -0.57300658 0)
(1.3608956 -0.57118279 0)
(1.3401401 -0.5690918 0)
(1.319266 -0.56673708 0)
(1.2982938 -0.56412388 0)
(1.2772439 -0.56125687 0)
(1.2561366 -0.55814257 0)
(1.2349933 -0.55478727 0)
(1.2138338 -0.55119865 0)
(1.1926796 -0.54738544 0)
(1.1715511 -0.54335664 0)
(1.1504761 -0.53912151 0)
(1.1294811 -0.53468531 0)
(1.9762821 -0.44412959 0)
(1.9732623 -0.45267761 0)
(1.969355 -0.4608035 0)
(1.9645968 -0.46853572 0)
(1.9590202 -0.47589548 0)
(1.9526492 -0.48290624 0)
(1.9455097 -0.48958952 0)
(1.9376327 -0.49596036 0)
(1.9290438 -0.50203029 0)
(1.9197637 -0.50781563 0)
(1.9098127 -0.5133262 0)
(1.8992107 -0.51857316 0)
(1.8879784 -0.52356368 0)
(1.8761366 -0.52830413 0)
(1.8637033 -0.53279444 0)
(1.850694 -0.53703948 0)
(1.8371233 -0.54104209 0)
(1.8230051 -0.54480715 0)
(1.8083534 -0.54832747 0)
(1.7932085 -0.55159003 0)
(1.7775893 -0.55463093 0)
(1.7614889 -0.55742835 0)
(1.7449287 -0.55997513 0)
(1.7279304 -0.56226788 0)
(1.710509 -0.56430296 0)
(1.692688 -0.56608064 0)
(1.6744898 -0.56759907 0)
(1.6559151 -0.56886533 0)
(1.6369786 -0.56987019 0)
(1.6177087 -0.57061185 0)
(1.5981221 -0.57108884 0)
(1.5782354 -0.57129957 0)
(1.5580666 -0.57124281 0)
(1.5376341 -0.57091807 0)
(1.5169562 -0.57032542 0)
(1.4960512 -0.56946547 0)
(1.4749376 -0.56833935 0)
(1.453634 -0.56694869 0)
(1.4321592 -0.56529568 0)
(1.4105323 -0.56338301 0)
(1.3887729 -0.56121395 0)
(1.3669005 -0.55879233 0)
(1.3449353 -0.55612263 0)
(1.3228973 -0.55320991 0)
(1.3008071 -0.55006001 0)
(1.2786846 -0.54667922 0)
(1.2565505 -0.54307522 0)
(1.234424 -0.53925568 0)
(1.2123284 -0.53522974 0)
(1.190292 -0.53100445 0)
(2.0671929 -0.44774857 0)
(2.0631768 -0.45571152 0)
(2.0582324 -0.46327224 0)
(2.0524017 -0.47045833 0)
(2.0457227 -0.47729287 0)
(2.0382226 -0.48379455 0)
(2.029934 -0.48998173 0)
(2.0208933 -0.4958687 0)
(2.0111266 -0.50147146 0)
(2.0006562 -0.50680269 0)
(1.9895062 -0.51187526 0)
(1.9777005 -0.51669804 0)
(1.9652624 -0.5212776 0)
(1.9522177 -0.52562015 0)
(1.9385853 -0.529724 0)
(1.9243785 -0.53359412 0)
(1.9096134 -0.53723263 0)
(1.8943086 -0.54064542 0)
(1.8784835 -0.54383209 0)
(1.8621632 -0.54678353 0)
(1.8453734 -0.54951901 0)
(1.8281226 -0.55201632 0)
(1.8104248 -0.55427462 0)
(1.792301 -0.55629077 0)
(1.7737631 -0.5580596 0)
(1.7548324 -0.55958856 0)
(1.7355277 -0.5608765 0)
(1.7158578 -0.56192445 0)
(1.6958426 -0.56272175 0)
(1.6755029 -0.56326748 0)
(1.6548557 -0.56356062 0)
(1.6339179 -0.56359999 0)
(1.6127073 -0.56338416 0)
(1.5912419 -0.56291285 0)
(1.5695395 -0.56218563 0)
(1.5476181 -0.56120333 0)
(1.5254958 -0.55996649 0)
(1.503191 -0.55847697 0)
(1.4807221 -0.55673627 0)
(1.458108 -0.55474737 0)
(1.4353677 -0.55251279 0)
(1.4125209 -0.55003669 0)
(1.389587 -0.54732273 0)
(1.366586 -0.54437638 0)
(1.3435378 -0.54120257 0)
(1.3204625 -0.53780819 0)
(1.2973794 -0.53419969 0)
(1.2743093 -0.53038552 0)
(1.251274 -0.52637267 0)
(1.2283031 -0.52216905 0)
(2.1567633 -0.45056421 0)
(2.1516328 -0.4579047 0)
(2.1455427 -0.46486826 0)
(2.1385388 -0.47147902 0)
(2.1306675 -0.47775989 0)
(2.1219618 -0.48372679 0)
(2.1124558 -0.48939683 0)
(2.102186 -0.49478523 0)
(2.0911822 -0.4999096 0)
(2.0794704 -0.5047793 0)
(2.0670766 -0.50940647 0)
(2.0540288 -0.51379973 0)
(2.0403516 -0.51796411 0)
(2.0260755 -0.5219057 0)
(2.0112206 -0.52562143 0)
(1.9957989 -0.52911789 0)
(1.9798243 -0.5323975 0)
(1.9633139 -0.53546384 0)
(1.9462976 -0.53832927 0)
(1.9287949 -0.54097317 0)
(1.9108387 -0.54341345 0)
(1.8924432 -0.54561651 0)
(1.8736097 -0.54758948 0)
(1.8543649 -0.54933503 0)
(1.8347122 -0.55085767 0)
(1.8146709 -0.55215333 0)
(1.79427 -0.5532224 0)
(1.7735204 -0.55405918 0)
(1.7524388 -0.55465925 0)
(1.7310433 -0.55502074 0)
(1.7093509 -0.55514253 0)
(1.6873789 -0.55502275 0)
(1.6651445 -0.55466055 0)
(1.6426653 -0.55405487 0)
(1.6199585 -0.55320586 0)
(1.5970418 -0.55211339 0)
(1.5739329 -0.55077858 0)
(1.5506497 -0.54920223 0)
(1.5272104 -0.54738649 0)
(1.5036334 -0.54533318 0)
(1.4799375 -0.54304555 0)
(1.4561418 -0.54052649 0)
(1.4322655 -0.53778048 0)
(1.408328 -0.53481162 0)
(1.3843491 -0.53162578 0)
(1.3603478 -0.52822845 0)
(1.336344 -0.52462717 0)
(1.3123568 -0.52082895 0)
(1.288411 -0.51684211 0)
(1.2645333 -0.51267144 0)
(2.2448536 -0.45252465 0)
(2.2384933 -0.45921673 0)
(2.2311544 -0.46555891 0)
(2.2228875 -0.47157255 0)
(2.2137429 -0.47727721 0)
(2.2037569 -0.4826933 0)
(2.1929655 -0.4878357 0)
(2.1814063 -0.49271973 0)
(2.1691136 -0.49735933 0)
(2.1561161 -0.50176493 0)
(2.1424399 -0.50594385 0)
(2.128117 -0.50990738 0)
(2.1131736 -0.51365497 0)
(2.0976447 -0.51719478 0)
(2.0815487 -0.52052823 0)
(2.0648932 -0.52365853 0)
(2.0476971 -0.52658463 0)
(2.0299688 -0.52930934 0)
(2.0117525 -0.5318827 0)
(1.9930667 -0.53421605 0)
(1.9739506 -0.53636014 0)
(1.9544235 -0.53827399 0)
(1.9344616 -0.53997373 0)