/*--------------------------------*- C++ -*----------------------------------*\
| =========                 |                                                 |
| \\      /  F ield         | OpenFOAM: The Open Source CFD Toolbox           |
|  \\    /   O peration     | Version:  2312                                  |
|   \\  /    A nd           | Website:  www.openfoam.com                      |
|    \\/     M anipulation  |                                                 |
\*---------------------------------------------------------------------------*/
FoamFile
{
    version     2.0;
    format      ascii;
    arch        "LSB;label=32;scalar=64";
    class       volScalarField;
    location    "0.06";
    object      alphat;
}
// * * * * * * * * * * * * * * * * * * * * * * * * * * * * * * * * * * * * * //

dimensions      [1 -1 -1 0 0 0 0];

internalField   nonuniform List<scalar> 
3272
(
0.030591626
0.030544788
0.030503104
0.030466579
0.03043528
0.030409244
0.030388474
0.030372966
0.030362723
0.030357753
0.030358063
0.030363645
0.030374485
0.030390567
0.030411888
0.030438466
0.030470337
0.030507548
0.030550147
0.030598181
0.030651691
0.030710715
0.030775295
0.030845491
0.03092137
0.03100296
0.0310905
0.031183748
0.031282959
0.031388056
0.031499042
0.031616012
0.031739022
0.03186811
0.032003348
0.032144803
0.032292545
0.032446645
0.032607167
0.032774193
0.03294775
0.033127898
0.033314684
0.033508116
0.033708228
0.033915043
0.034128572
0.034348838
0.034575868
0.034809694
0.035050365
0.03529795
0.035552544
0.030192551
0.03015317
0.030118475
0.030088499
0.030063329
0.030043032
0.030027653
0.030017218
0.030011754
0.030011281
0.030015813
0.030025354
0.030039902
0.03005946
0.030084043
0.030113684
0.03014843
0.03018834
0.030233473
0.03028388
0.030339614
0.030400729
0.030467234
0.03053921
0.030616861
0.030699956
0.030788876
0.030883422
0.030983724
0.031089841
0.031201812
0.031319669
0.031443478
0.0315733
0.031709201
0.03185125
0.031999515
0.032154083
0.032315002
0.032482351
0.032656175
0.032836523
0.033023449
0.033216992
0.033417185
0.033624061
0.03383765
0.034057975
0.034285064
0.034518943
0.034759647
0.035007235
0.035261891
0.029458198
0.029428536
0.029402992
0.02938165
0.029364617
0.029351992
0.029343847
0.029340244
0.029341229
0.029346839
0.029357103
0.02937204
0.029391672
0.029416022
0.029445127
0.029479035
0.029517805
0.029561506
0.029610214
0.02966395
0.029722772
0.029786918
0.029856048
0.029930633
0.030010466
0.030095698
0.030186436
0.030282716
0.030384593
0.030492121
0.030605364
0.03072438
0.030849237
0.030980003
0.031116761
0.03125957
0.031408499
0.031563635
0.031725081
0.031892845
0.032067079
0.032247796
0.032435057
0.03262892
0.032829433
0.033036639
0.033250576
0.033471281
0.033698784
0.033933121
0.03417433
0.03442247
0.034677724
0.028609161
0.028588692
0.028571873
0.028558823
0.028549657
0.028544479
0.028543379
0.028546429
0.028553691
0.028565214
0.028581037
0.028601199
0.028625734
0.028654685
0.0286881
0.028726042
0.028768573
0.028815746
0.028867835
0.02892457
0.028986103
0.029052665
0.029124008
0.029200445
0.029282005
0.029368758
0.029460774
0.029558112
0.029660848
0.029769053
0.029882798
0.030002157
0.03012721
0.030258032
0.030394689
0.030537297
0.030685893
0.030840566
0.03100149
0.031168664
0.031342181
0.031522118
0.031708547
0.031901539
0.032101157
0.032307463
0.03252051
0.032740345
0.032967013
0.033200557
0.033441022
0.033688463
0.033943052
0.027737846
0.02772466
0.02771486
0.027708571
0.027705894
0.027706921
0.027711734
0.0277204
0.027732979
0.027749524
0.027770079
0.027794687
0.027823392
0.027856241
0.027893293
0.027934613
0.027980279
0.02803059
0.028085083
0.028144294
0.028207898
0.028276096
0.028349028
0.028426771
0.028509404
0.028596992
0.028689596
0.028787302
0.028890191
0.028998342
0.029111836
0.029230747
0.029355159
0.0294852
0.029620946
0.029762368
0.029909695
0.030063046
0.030222441
0.030387972
0.030559728
0.030737802
0.030922277
0.031113237
0.031310757
0.031514911
0.031725775
0.031943418
0.032167904
0.032399295
0.032637656
0.032883064
0.033135661
0.026900005
0.026891781
0.026886846
0.026885307
0.02688724
0.026892715
0.026901792
0.026914528
0.026930972
0.026951171
0.026975166
0.027003
0.027034716
0.027070363
0.02710999
0.027153639
0.027201806
0.027253827
0.027310267
0.027370889
0.02743564
0.02750484
0.027578551
0.027656849
0.027739822
0.027827505
0.027919998
0.02801738
0.028119736
0.02822715
0.028339699
0.028457456
0.028580553
0.028709104
0.028843171
0.028982688
0.02912804
0.029279229
0.029436315
0.029599392
0.029768561
0.029943931
0.0301256
0.030313668
0.030508231
0.03070938
0.030917188
0.031131736
0.0313531
0.031581352
0.031816564
0.032058807
0.032308217
0.026125621
0.026120506
0.026118652
0.026120133
0.026125001
0.026133302
0.02614508
0.026160376
0.026179228
0.026201674
0.026227752
0.026257501
0.026290962
0.026328183
0.026369225
0.026414186
0.026463521
0.026516321
0.026573539
0.02663454
0.02669957
0.026768848
0.026842443
0.026920445
0.02700289
0.027089874
0.027181477
0.027277781
0.027378873
0.027484842
0.027595753
0.027711687
0.027832809
0.027959206
0.028090949
0.028227934
0.028370622
0.028518997
0.028673135
0.028833144
0.028999131
0.029171196
0.029349442
0.029533972
0.029724886
0.029922283
0.030126264
0.030336923
0.03055435
0.030778633
0.031009855
0.031248098
0.031493491
0.025423796
0.025420822
0.025421063
0.025424561
0.025431349
0.025441458
0.025454915
0.025471752
0.025491999
0.025515687
0.025542851
0.025573525
0.025607744
0.025645542
0.025686942
0.025732627
0.02578199
0.025834704
0.025891748
0.025952266
0.026016713
0.02608526
0.026157921
0.026234803
0.026315973
0.02640151
0.026491496
0.026586014
0.026685154
0.026789004
0.02689763
0.027011111
0.027129628
0.027253268
0.027382102
0.027516002
0.027655457
0.027800485
0.027951127
0.028107497
0.028269703
0.028437873
0.028612107
0.028792513
0.028979208
0.0291723
0.029371897
0.029578104
0.029791025
0.030010756
0.030237395
0.030471035
0.030711796
0.024790664
0.0247896
0.024791654
0.024796844
0.02480519
0.02481671
0.024831424
0.024849355
0.024870531
0.02489498
0.024922733
0.024953827
0.024988298
0.025026187
0.025067525
0.025113069
0.025161731
0.02521423
0.02527041
0.025329883
0.025393196
0.025460423
0.025531621
0.025606866
0.025686234
0.025769805
0.025857662
0.025949892
0.026046583
0.026147829
0.026253691
0.026364254
0.026479702
0.026600134
0.026725618
0.026856004
0.026991766
0.027133021
0.027279761
0.027432098
0.027590144
0.027753993
0.027923789
0.028099673
0.028281759
0.028470149
0.028664962
0.028866315
0.029074318
0.029289081
0.029510708
0.029739303
0.029975
0.024217329
0.024218329
0.024222302
0.024229251
0.024239184
0.024252113
0.024268054
0.024287026
0.024309054
0.024334165
0.024362393
0.024393774
0.024428353
0.024466184
0.024507367
0.024552524
0.024600409
0.024652242
0.024707228
0.024765539
0.024827509
0.024893209
0.024962708
0.025036084
0.025113416
0.025194785
0.025280278
0.025369983
0.02546399
0.025562396
0.025665261
0.025772671
0.025884826
0.026001824
0.026123735
0.026250397
0.026382226
0.02651949
0.026662103
0.026810186
0.026963858
0.027123245
0.027288462
0.027459615
0.027636837
0.027820288
0.028010101
0.02820638
0.028409241
0.0286188
0.028835165
0.023694979
0.023698275
0.023704368
0.023713251
0.023724926
0.0237394
0.023756686
0.023776802
0.023799771
0.023825623
0.023854394
0.023886107
0.023920825
0.023958542
0.024000058
0.024044469
0.024091711
0.024142763
0.024196583
0.024253737
0.024314363
0.024378537
0.024446335
0.024517837
0.024593124
0.024672282
0.024755399
0.024842566
0.024933878
0.02502943
0.025129279
0.025233519
0.025342373
0.025455918
0.025574243
0.025697195
0.025825069
0.025958321
0.026096792
0.026240605
0.026389885
0.02654476
0.026705357
0.026871807
0.027044238
0.027222764
0.027407515
0.027598658
0.027796337
0.028000659
0.028211738
0.023216946
0.023222676
0.023231013
0.023241943
0.023255465
0.023271584
0.023290308
0.023311663
0.023335659
0.023362337
0.023391766
0.023423918
0.023458907
0.023496793
0.023538236
0.023581953
0.023629173
0.023679153
0.023732015
0.023788101
0.023847483
0.023910237
0.023976441
0.024046179
0.024119536
0.024196599
0.024277458
0.024362209
0.024450946
0.024543769
0.024640724
0.024741923
0.024847609
0.024957816
0.025072634
0.02519215
0.025316192
0.025445533
0.025579995
0.025719676
0.025864703
0.026015206
0.026171317
0.026333172
0.026500905
0.026674655
0.026854558
0.027040738
0.02723333
0.027432511
0.027638413
0.022778862
0.022787011
0.022797573
0.022810531
0.022825881
0.022843635
0.022863777
0.022886394
0.022911429
0.02293894
0.02296898
0.023001586
0.023036865
0.023075443
0.023116238
0.023159926
0.023206643
0.023255739
0.023307811
0.023362933
0.023421181
0.023482633
0.023547373
0.023615484
0.023687054
0.023762173
0.023840934
0.023923433
0.024009767
0.024100038
0.024194279
0.024292649
0.024395364
0.024502446
0.024614007
0.024730161
0.02485065
0.024976311
0.025106991
0.025242767
0.025383769
0.025530132
0.025681991
0.025839485
0.026002754
0.026171941
0.02634719
0.026528646
0.026716452
0.026910735
0.027111657
0.022378017
0.022388421
0.022401048
0.022415882
0.022432902
0.022452198
0.022473642
0.022497346
0.022523316
0.022551583
0.022582173
0.022615082
0.022651224
0.022689648
0.022730149
0.022773812
0.022819696
0.022868196
0.022919514
0.022973724
0.023030905
0.023091137
0.023154505
0.023221096
0.023290999
0.023364306
0.023441112
0.023521513
0.023605608
0.023693493
0.023785199
0.023880962
0.0239809
0.024085075
0.024193601
0.024306599
0.024423776
0.02454601
0.024673159
0.024805287
0.024942528
0.025085018
0.025232897
0.025386305
0.025545389
0.025710295
0.025881171
0.02605817
0.026241442
0.026431143
0.026627413
0.022012607
0.022024987
0.022039412
0.0220559
0.022074353
0.022094859
0.022117405
0.022142025
0.022168748
0.022197614
0.022228673
0.022262002
0.022298339
0.02233632
0.022377158
0.022420101
0.022465367
0.022513234
0.022563775
0.022617068
0.022673192
0.022732231
0.02279427
0.022859399
0.022927707
0.022999288
0.023074239
0.023152658
0.02323465
0.023320257
0.0234096
0.023502926
0.023600264
0.02370172
0.02380741
0.023917457
0.02403154
0.024150582
0.02427444
0.024403169
0.024536904
0.024675784
0.024819951
0.024969552
0.025124732
0.025285645
0.025452441
0.025625278
0.025804313
0.025989707
0.026181622
0.021681166
0.021695216
0.021711078
0.021728816
0.021748407
0.02176987
0.021793222
0.021818491
0.021845713
0.021874933
0.021906206
0.021940187
0.021975816
0.022014056
0.022054284
0.022096549
0.022141218
0.02218836
0.022238051
0.02229037
0.022345399
0.022403221
0.022463925
0.0225276
0.022594337
0.022664233
0.022737384
0.022813889
0.022893844
0.022977277
0.023064414
0.023155395
0.023250273
0.023349161
0.023452179
0.023559448
0.023670622
0.023786675
0.02390745
0.024032996
0.024163453
0.02429896
0.024439663
0.024585708
0.024737248
0.024894435
0.025057426
0.025226381
0.025401463
0.025582838
0.025770678
0.021382218
0.021397477
0.021414437
0.021433102
0.021453476
0.021475575
0.021499417
0.021525035
0.02155247
0.021581771
0.021613582
0.021646887
0.021682622
0.021720247
0.02175968
0.021801327
0.02184526
0.021891555
0.021940289
0.021991544
0.022045402
0.02210195
0.022161275
0.02222347
0.022288626
0.02235684
0.022428212
0.022502844
0.022580772
0.022662116
0.022747123
0.022835844
0.022928364
0.023024798
0.023125269
0.023229898
0.023338311
0.023451542
0.023569406
0.023691954
0.023819326
0.023951664
0.024089114
0.024231827
0.024379955
0.024533655
0.024693086
0.024858411
0.025029796
0.025207412
0.025391439
0.021114068
0.021130178
0.021147848
0.021167081
0.021187892
0.021210297
0.021234312
0.021259975
0.021287332
0.021317015
0.021348046
0.021381331
0.021416381
0.021453086
0.021491829
0.021532685
0.021575728
0.021621038
0.021668692
0.021718775
0.02177137
0.021826566
0.021884451
0.021945117
0.022008658
0.02207517
0.022144752
0.022217501
0.022293436
0.022372746
0.022455662
0.02254218
0.022632412
0.022726477
0.022824494
0.022926589
0.023032359
0.023142902
0.023257997
0.023377698
0.023502147
0.023631487
0.023765866
0.023905435
0.02405035
0.024200769
0.024356854
0.024518769
0.024686682
0.024860764
0.025041199
0.020874882
0.02089147
0.020909485
0.020928938
0.020949855
0.020972266
0.02099615
0.021021564
0.021049125
0.021077883
0.021108754
0.021141221
0.02117526
0.021211177
0.021249046
0.021288942
0.021330942
0.021375127
0.021421578
0.021470379
0.021521615
0.021575375
0.021631749
0.021690831
0.021752714
0.021817495
0.021885273
0.021956091
0.022030053
0.022107397
0.022188225
0.022272581
0.02236058
0.022452338
0.022547975
0.022647615
0.022750836
0.022858803
0.022971245
0.023088226
0.023209887
0.023336374
0.023467835
0.023604423
0.023746296
0.023893612
0.024046537
0.024205236
0.024369877
0.024540625
0.020662644
0.020679361
0.020697382
0.020716728
0.020737443
0.02075963
0.020783083
0.020808516
0.020834986
0.020863456
0.020893328
0.020924733
0.020957872
0.020992817
0.021029642
0.021068424
0.021109241
0.021152175
0.021197307
0.021244723
0.021294509
0.021346756
0.021401553
0.021458996
0.021519178
0.021582196
0.021648093
0.021717033
0.021789027
0.021864414
0.021943171
0.022025397
0.022111205
0.022200711
0.022294026
0.022391268
0.02249202
0.022597509
0.022707399
0.022821769
0.02294076
0.023064519
0.023193196
0.023326944
0.023465923
0.023610293
0.02376022
0.023915875
0.024077431
0.024245079
0.020475232
0.020491767
0.020509488
0.020528423
0.020548589
0.020570554
0.020593694
0.020617885
0.020643946
0.020671222
0.020700008
0.020730403
0.020762472
0.020796287
0.020831923
0.020869457
0.020908969
0.02095054
0.020994254
0.021040198
0.021088457
0.021139123
0.021192286
0.021248044
0.021306489
0.021367671
0.021431753
0.021498717
0.021568843
0.021642245
0.021718953
0.021799079
0.021882739
0.021970046
0.022061104
0.022155954
0.022254326
0.022357429
0.02246486
0.022576717
0.022693144
0.022814287
0.022940298
0.023071333
0.02320755
0.023349112
0.023496188
0.023648948
0.023807572
0.023972257
0.020310486
0.020326579
0.020343733
0.020362026
0.020381935
0.020402767
0.020425109
0.020448674
0.020473369
0.020499547
0.020527222
0.020556456
0.020587314
0.020619869
0.020654196
0.020690372
0.020728479
0.020768599
0.020810816
0.020855217
0.020901889
0.020950923
0.021002404
0.021056447
0.021113075
0.021172502
0.021234667
0.021299729
0.021367988
0.021439407
0.021514089
0.021592148
0.021673703
0.021758877
0.021847811
0.021940098
0.022036273
0.022137081
0.022242138
0.022351573
0.022465531
0.022584163
0.022707619
0.022836055
0.022969633
0.023108515
0.02325287
0.02340287
0.023558694
0.023720534
0.020166261
0.020181726
0.020198048
0.020216013
0.020234596
0.020254728
0.020275843
0.020298154
0.020321759
0.020346751
0.020373191
0.020401145
0.020430682
0.020461875
0.020494799
0.020529533
0.020566159
0.020604761
0.020645421
0.020688231
0.020733268
0.020780643
0.020830395
0.020882665
0.020937557
0.020995146
0.021055396
0.021118668
0.02118501
0.021254468
0.021327154
0.02140318
0.021482667
0.021565736
0.02165252
0.021742508
0.021836509
0.021935067
0.022037824
0.022144922
0.022256505
0.022372723
0.022493728
0.022619676
0.022750729
0.022887051
0.023028811
0.02317618
0.023329329
0.020040437
0.020055289
0.02007074
0.020087574
0.020105299
0.020124017
0.02014392
0.020165022
0.020187388
0.020211091
0.020236199
0.020262783
0.020290915
0.020320671
0.020352124
0.020385352
0.020420446
0.020457485
0.020496544
0.020537739
0.020581101
0.020626759
0.020674829
0.020725366
0.020778476
0.020834129
0.020892624
0.020954083
0.021018524
0.021086052
0.021156777
0.021230812
0.021308274
0.021389283
0.021473964
0.021561767
0.02165367
0.021750039
0.021850575
0.021955421
0.02206472
0.02217862
0.022297275
0.022420842
0.022549481
0.022683358
0.022822643
0.022967513
0.023118163
0.019931535
0.019944968
0.019959683
0.01997513
0.019991604
0.020009116
0.020027744
0.020047542
0.020068574
0.020090906
0.020114609
0.020139758
0.02016643
0.020194698
0.020224635
0.020256314
0.020289844
0.020325305
0.020362715
0.020402259
0.02044398
0.020487966
0.020534318
0.02058312
0.020634336
0.020688241
0.020745011
0.020804631
0.020867206
0.020932844
0.021001652
0.021073742
0.02114923
0.021228234
0.021310875
0.021396577
0.021486462
0.021580715
0.021679113
0.021781792
0.021888897
0.022000575
0.02211698
0.022238268
0.022364601
0.022496145
0.02263307
0.022775556
0.022923803
0.019837019
0.019849386
0.019862733
0.019876969
0.019892167
0.019908376
0.019925664
0.019944093
0.019963729
0.019984638
0.020006884
0.020030555
0.020055732
0.020082492
0.020110885
0.020140979
0.020172935
0.020206783
0.0202426
0.020280497
0.020320562
0.020362876
0.020407533
0.020454484
0.020503989
0.020556243
0.020611229
0.020669047
0.0207298
0.020793593
0.020860535
0.020930736
0.021004308
0.021081368
0.021162036
0.021245714
0.02133366
0.02142588
0.021522222
0.021622823
0.021727825
0.021837376
0.02195163
0.022070743
0.022194876
0.022324195
0.022458869
0.022599075
0.022745005
0.019755296
0.01976652
0.019778589
0.019791532
0.019805403
0.01982025
0.019836151
0.019853173
0.019871377
0.019890838
0.019911589
0.019933758
0.019957428
0.019982651
0.020009502
0.020038056
0.020068415
0.020100663
0.020134879
0.020171144
0.020209581
0.020250243
0.020293087
0.0203384
0.020386304
0.020436832
0.020490077
0.020546139
0.020605119
0.020667122
0.020732256
0.020800628
0.02087235
0.020947531
0.021026291
0.021108025
0.021194112
0.021284383
0.021378756
0.021477367
0.021580359
0.021687879
0.02180008
0.021917118
0.022039157
0.02216636
0.022298896
0.022436931
0.019685008
0.019694972
0.019705738
0.019717349
0.019729867
0.019743313
0.019757803
0.019773401
0.019790155
0.019808133
0.019827412
0.019848089
0.019870241
0.019893938
0.019919255
0.019946267
0.019975047
0.020005722
0.020038366
0.020073001
0.020109866
0.020148737
0.020190054
0.020233781
0.020280024
0.020328875
0.020380431
0.020434791
0.020492054
0.020552327
0.020615716
0.020682328
0.02075227
0.020825644
0.020902548
0.020982424
0.021066737
0.021155146
0.021247638
0.021344349
0.021445422
0.021551005
0.021661251
0.021776317
0.021896365
0.022021561
0.022152078
0.022288103
0.019624708
0.01963337
0.019642816
0.019653076
0.019664213
0.01967628
0.019689361
0.019703526
0.019718834
0.019735332
0.019753133
0.019772329
0.019792987
0.019815181
0.019838991
0.019864491
0.019891694
0.019920835
0.019951986
0.019984922
0.020020186
0.0200576
0.020097328
0.020139461
0.020184094
0.020231325
0.020281249
0.020333965
0.020389574
0.020448181
0.020509892
0.020574815
0.020643059
0.020714714
0.020789764
0.0208679
0.020950527
0.021037161
0.021127859
0.02122276
0.021322007
0.021425748
0.021534135
0.021647326
0.021765485
0.02188878
0.022017387
0.022151494
0.019573126
0.019580486
0.019588602
0.019597514
0.019607281
0.019617967
0.019629649
0.019642404
0.019656299
0.019671308
0.019687646
0.019705395
0.019724592
0.019745315
0.019767652
0.019791723
0.019817286
0.019844949
0.019874547
0.019906085
0.019939782
0.019975677
0.020013872
0.020054463
0.020097544
0.020143213
0.020191566
0.020242702
0.020296722
0.020353731
0.020413834
0.020477143
0.020543775
0.020613875
0.020686895
0.020763534
0.020844548
0.02092949
0.021018482
0.021111662
0.021209174
0.021311165
0.021417789
0.021529203
0.021645573
0.021767066
0.021893862
0.022026148
0.019529109
0.019535182
0.019541994
0.019549579
0.019557998
0.019567322
0.019577626
0.019589002
0.019601569
0.019615032
0.019629946
0.019646311
0.019664084
0.019683369
0.019704253
0.019726815
0.01975106
0.01977722
0.019805323
0.019835425
0.019867646
0.019902068
0.019938785
0.019977891
0.020019481
0.02006365
0.020110497
0.02016012
0.020212619
0.020268099
0.020326666
0.020388429
0.020453505
0.020522026
0.020593312
0.0206685
0.020747931
0.020831265
0.020918636
0.021010184
0.02110605
0.021206383
0.021311336
0.021421069
0.021535745
0.021655535
0.021780618
0.02191118
0.019491608
0.019496464
0.019502017
0.019508307
0.019515412
0.019523403
0.019532356
0.019542363
0.019553495
0.019565723
0.019579267
0.019594212
0.01961059
0.01962848
0.019647962
0.019669113
0.019691998
0.019716746
0.019743432
0.01977213
0.019802939
0.019835946
0.019871244
0.019908926
0.019949088
0.019991823
0.020037231
0.020085409
0.020136457
0.02019048
0.020247583
0.020307871
0.020371453
0.020438447
0.020508153
0.020581958
0.020659873
0.020741682
0.020827517
0.020917518
0.021011827
0.021110592
0.021213967
0.02132211
0.021435186
0.021553367
0.021676833
0.021805769
0.019459949
0.019463518
0.019467811
0.019472841
0.019478673
0.019485376
0.019493011
0.019501696
0.019511499
0.01952245
0.019534679
0.01954828
0.019563316
0.019579864
0.019598002
0.019617808
0.019639361
0.019662763
0.019688097
0.019715447
0.019744904
0.019776558
0.0198105
0.019846823
0.019885621
0.01992699
0.019971027
0.02001783
0.020067499
0.020120137
0.020175849
0.020234738
0.020296899
0.020362415
0.020430659
0.020503156
0.020579635
0.02066
0.020744384
0.020832923
0.020925761
0.021023045
0.021124929
0.021231572
0.02134314
0.021459805
0.021581746
0.021709151
0.019433114
0.019435493
0.0194386
0.019442422
0.019447034
0.019452504
0.019458852
0.019466269
0.019474819
0.019484514
0.019495478
0.019507799
0.019521551
0.019536815
0.019553669
0.019572192
0.019592466
0.019614582
0.019638629
0.019664691
0.01969286
0.019723223
0.019755874
0.019790903
0.019828406
0.019868476
0.019911212
0.01995671
0.02000507
0.020056397
0.020110793
0.020168363
0.020229195
0.020293229
0.02036015
0.020431412
0.020506536
0.02058554
0.020668553
0.020755714
0.020847165
0.020943054
0.021043533
0.021148763
0.02125891
0.021374147
0.021494656
0.021620621
0.019410419
0.019411696
0.019413711
0.019416377
0.019419828
0.01942415
0.019429209
0.01943542
0.019442806
0.019451279
0.019461031
0.019472133
0.019484661
0.019498704
0.019514337
0.019531638
0.019550691
0.019571584
0.019594406
0.019619245
0.019646188
0.019675327
0.019706751
0.019740554
0.019776828
0.019815669
0.019857172
0.019901435
0.019948559
0.019998645
0.0200518
0.020108135
0.020167794
0.020230178
0.020296032
0.02036611
0.020439957
0.020517677
0.0205994
0.020685264
0.02077541
0.020869985
0.020969142
0.021073043
0.021181854
0.021295749
0.021414912
0.021539529
0.019391563
0.019391726
0.019392574
0.019394117
0.019396462
0.019399793
0.019403465
0.019408552
0.019414912
0.019422168
0.019430772
0.019440719
0.019452081
0.019464967
0.019479444
0.019495586
0.01951348
0.019533212
0.019554874
0.019578552
0.019604336
0.019632315
0.019662579
0.019695222
0.019730335
0.019768014
0.019808353
0.019851452
0.019897408
0.019946325
0.019998307
0.02005346
0.020111911
0.020172932
0.020237773
0.02030668
0.020379327
0.020455841
0.020536352
0.020620997
0.020709917
0.020803258
0.020901174
0.021003825
0.02111138
0.021224017
0.021341919
0.021465273
0.019375738
0.019374872
0.019374645
0.019375115
0.019376369
0.019378488
0.019381339
0.019385366
0.019390713
0.019396647
0.019404201
0.019413059
0.019423302
0.019435103
0.019448489
0.019463537
0.019480333
0.019498967
0.019519532
0.019542114
0.019566803
0.019593687
0.019622857
0.019654406
0.019688425
0.019725009
0.019764254
0.019806256
0.019851114
0.019898931
0.019949809
0.020003843
0.020061105
0.020120934
0.020184819
0.020252607
0.020324129
0.020399511
0.020478886
0.020562388
0.020650158
0.020742342
0.020839092
0.020940571
0.021046948
0.021158404
0.021275127
0.021397302
0.019371003
0.019367783
0.019364928
0.019362549
0.0193607
0.019359468
0.019358925
0.019359151
0.019360216
0.01936214
0.019365141
0.019369304
0.019374467
0.01938115
0.019388723
0.019397864
0.01940867
0.01942103
0.019435045
0.019450806
0.019468403
0.019487934
0.019509484
0.019533142
0.019558996
0.019587137
0.019617656
0.019650647
0.019686204
0.01972442
0.019765393
0.019809221
0.019856006
0.019905852
0.01995885
0.020014907
0.020073705
0.020136686
0.020203423
0.020273889
0.020348212
0.020426523
0.020508956
0.020595649
0.02068675
0.020782409
0.020882787
0.020988059
0.021098408
0.021214029
0.021335108
0.019362702
0.019358618
0.019354885
0.019351594
0.019348821
0.019346648
0.019345155
0.019344421
0.019344521
0.019345521
0.019347555
0.019350703
0.019354969
0.019360564
0.019367358
0.019375766
0.019385286
0.01939667
0.019409716
0.019424502
0.019441119
0.01945968
0.019480263
0.019502953
0.01952784
0.019555014
0.019584569
0.019616596
0.019651189
0.019688442
0.019728451
0.019771314
0.019817134
0.019866021
0.019918125
0.019972815
0.02003084
0.020092947
0.020158698
0.020228177
0.020301511
0.020378827
0.020460261
0.02054595
0.020636038
0.020730676
0.020830023
0.020934255
0.021043567
0.021158161
0.021278222
0.019356114
0.019351228
0.019346671
0.019342532
0.019338894
0.019335844
0.019333464
0.019331836
0.019331039
0.019331153
0.019332282
0.019334508
0.019337887
0.019342539
0.019348482
0.0193559
0.019364711
0.019375353
0.019387201
0.019401068
0.019416758
0.019434414
0.019454092
0.019475877
0.019499858
0.019526128
0.019554779
0.019585904
0.019619597
0.019655951
0.01969506
0.019737022
0.019781937
0.01982991
0.019881077
0.01993467
0.019991985
0.020053209
0.020118042
0.020186601
0.020259011
0.020335401
0.020415904
0.020500656
0.0205898
0.020683484
0.020781865
0.02088512
0.020993457
0.021107098
0.021226218
0.019350948
0.019345318
0.019339994
0.019335067
0.019330627
0.019326761
0.019323555
0.019321095
0.019319462
0.019318741
0.019319027
0.019320401
0.019322938
0.019326731
0.019331844
0.019338394
0.01934642
0.019356134
0.019367497
0.019380273
0.019394991
0.019411818
0.019430655
0.019451595
0.019474729
0.019500153
0.019527961
0.019558245
0.019591099
0.019626614
0.019664885
0.019706008
0.019750079
0.019797188
0.019847422
0.0199001
0.019956745
0.020017121
0.0200811
0.020148803
0.020220354
0.020295883
0.02037552
0.020459401
0.020547667
0.020640462
0.020737939
0.020840271
0.020947688
0.021060451
0.021178704
0.019346957
0.019340639
0.019334604
0.019328948
0.019323764
0.019319141
0.01931517
0.019311936
0.019309526
0.019308026
0.019307526
0.01930811
0.019309858
0.019312858
0.019317187
0.019322941
0.019330198
0.019339085
0.019349641
0.019361946
0.01937573
0.01939161
0.019409669
0.019429822
0.019452167
0.019476801
0.019503821
0.019533322
0.019565396
0.019600133
0.019637625
0.01967797
0.019721259
0.019767568
0.019816841
0.019868787
0.019924786
0.019984368
0.020047552
0.020114459
0.020185213
0.020259941
0.020338775
0.020421849
0.020509301
0.020601272
0.020697903
0.020799357
0.020905898
0.02101787
0.021135323
0.01934393
0.019336978
0.019330288
0.01932396
0.019318087
0.019312765
0.019308084
0.019304134
0.019301003
0.019298779
0.019297549
0.0192974
0.019298416
0.01930068
0.019304277
0.019309295
0.019315821
0.019323956
0.019333761
0.019345297
0.019358535
0.019373883
0.019390885
0.019410305
0.019431914
0.019455812
0.019482098
0.019510872
0.019542221
0.019576237
0.019613009
0.019652633
0.019695206
0.019740819
0.019788973
0.019840481
0.019895816
0.019954658
0.020017105
0.020083274
0.020153289
0.020227276
0.020305367
0.020387694
0.020474394
0.020565604
0.020661453
0.020762063
0.01934169
0.019334155
0.019326864
0.019319916
0.01931341
0.019307442
0.019302107
0.019297495
0.019293697
0.019290801
0.019288896
0.019288069
0.019288405
0.019289988
0.019292904
0.019297241
0.019303086
0.01931053
0.019319644
0.019330494
0.019343128
0.019357755
0.01937439
0.019392819
0.019413741
0.019436954
0.019462556
0.019490654
0.019521335
0.019554685
0.019590792
0.019629752
0.019671668
0.019716476
0.01976383
0.01981489
0.019869566
0.019927728
0.019989493
0.02005498
0.020124312
0.020197614
0.020275018
0.020356657
0.020442666
0.020533179
0.02062832
0.019340085
0.019332019
0.019324176
0.01931666
0.019309571
0.019303009
0.019297071
0.019291849
0.019287435
0.01928392
0.019281392
0.019279939
0.019279646
0.019280601
0.019282887
0.019286594
0.019291807
0.019298615
0.019307094
0.019317316
0.019329354
0.019343343
0.019359349
0.019377454
0.01939745
0.019420023
0.019444985
0.019472458
0.019502521
0.019535259
0.019570753
0.019609101
0.019650467
0.019694305
0.019741159
0.019791758
0.019845806
0.019903339
0.019964475
0.020029333
0.020098034
0.020170706
0.020247478
0.020328483
0.020413857
0.02050374
0.020598279
0.019338989
0.019330439
0.019322093
0.019314056
0.019306434
0.019299327
0.019292835
0.019287052
0.019282072
0.019277986
0.019274884
0.019272854
0.019271983
0.019272358
0.019274064
0.01927719
0.019281821
0.019288043
0.019295938
0.019305583
0.019317056
0.019330466
0.019345895
0.019363426
0.019383137
0.019404836
0.019429196
0.01945609
0.019485585
0.019517765
0.019552696
0.019590466
0.019631211
0.019674292
0.019720783
0.01977086
0.019824324
0.019881276
0.019941833
0.020006111
0.020074233
0.020146324
0.020222514
0.020302938
0.020387732
0.020477042
0.020571025
0.019338297
0.019329309
0.019320504
0.019311992
0.019303881
0.019296276
0.019289276
0.019282979
0.01927748
0.019272871
0.019269242
0.019266682
0.01926528
0.019265122
0.019266295
0.019268886
0.019272981
0.019278667
0.019286026
0.019295138
0.019306086
0.019318967
0.019333866
0.01935087
0.019370061
0.019391504
0.019415018
0.019441382
0.019470351
0.019502027
0.019536445
0.019573673
0.019613745
0.019656296
0.019702444
0.019751994
0.019804923
0.019861343
0.019921367
0.019985113
0.020052702
0.020124261
0.020199919
0.020279809
0.020364073
0.020452857
0.020546326
0.019337921
0.019328538
0.019319316
0.019310371
0.019301815
0.019293754
0.019286291
0.019279524
0.01927355
0.019268462
0.01926435
0.019261306
0.019259417
0.019258771
0.019259455
0.019261556
0.019265161
0.019270356
0.019277224
0.019285847
0.019296311
0.019308705
0.019323118
0.019339638
0.019358349
0.019379335
0.019402565
0.019428183
0.01945666
0.01948789
0.019521851
0.019558584
0.019597864
0.019640189
0.019685937
0.01973499
0.019787428
0.01984336
0.019902896
0.019966155
0.020033257
0.020104328
0.020179498
0.020258902
0.02034268
0.020430984
0.020523978
0.019337792
0.019328052
0.019318452
0.019309113
0.019300151
0.019291675
0.01928379
0.019276595
0.019270188
0.019264663
0.019260112
0.019256625
0.019254292
0.0192532
0.019253437
0.019255091
0.019258248
0.019262994
0.019269414
0.01927759
0.019287609
0.019299559
0.019313528
0.019329602
0.019347868
0.019368403
0.019391233
0.019416608
0.019444358
0.019475218
0.019508781
0.019544832
0.019583711
0.01962577
0.019671084
0.019719688
0.019771679
0.019827165
0.019886256
0.01994907
0.020015727
0.020086354
0.020161079
0.020240039
0.020323374
0.020411238
0.020503795
0.019337854
0.019327791
0.019317845