/*--------------------------------*- C++ -*----------------------------------*\
| =========                 |                                                 |
| \\      /  F ield         | OpenFOAM: The Open Source CFD Toolbox           |
|  \\    /   O peration     | Version:  2312                                  |
|   \\  /    A nd           | Website:  www.openfoam.com                      |
|    \\/     M anipulation  |                                                 |
\*---------------------------------------------------------------------------*/
FoamFile
{
    version     2.0;
    format      ascii;
    arch        "LSB;label=32;scalar=64";
    class       volScalarField;
    location    "0.06";
    object      H2O;
}
// * * * * * * * * * * * * * * * * * * * * * * * * * * * * * * * * * * * * * //

dimensions      [0 0 0 0 0 0 0];

internalField   nonuniform List<scalar> 
3272
(
0.0031165671
0.0032176811
0.0033179948
0.0034174577
0.0035159533
0.0036133197
0.003709383
0.0038040029
0.0038971063
0.0039886903
0.0040787989
0.004167488
0.0042547938
0.0043407133
0.0044251965
0.0045081468
0.0045894272
0.0046688689
0.0047462829
0.0048214737
0.0048942563
0.0049644768
0.0050320215
0.0050968039
0.0051587703
0.0052179577
0.0052740361
0.0053273956
0.0053776354
0.0054247755
0.0054687742
0.005509417
0.0055466086
0.005580273
0.0056103593
0.0056368415
0.0056597114
0.005678972
0.0056946498
0.0057067087
0.0057152183
0.0057201721
0.0057215564
0.0057193794
0.005713651
0.0057043908
0.0056916581
0.0056755276
0.0056560956
0.005633472
0.0056077699
0.0055790911
0.0055475113
0.0037337111
0.003835958
0.0039373522
0.0040378036
0.0041371834
0.0042353327
0.004332087
0.0044273107
0.0045209219
0.0046128944
0.00470324
0.0047919807
0.0048791231
0.0049646428
0.005048477
0.0051305251
0.0052106539
0.0052887056
0.005364504
0.0054378722
0.005508629
0.0055766243
0.0056418046
0.0057040387
0.0057630232
0.0058192351
0.005872058
0.0059218703
0.0059684463
0.0060116406
0.0060513654
0.0060875108
0.0061199825
0.0061487077
0.0061736299
0.0061947349
0.0062120126
0.0062254095
0.0062350268
0.0062408451
0.0062428564
0.0062410975
0.0062355666
0.0062262649
0.006213224
0.0061964811
0.0061760971
0.0061521558
0.0061247619
0.006094035
0.0060601002
0.0060230722
0.0059830221
0.0047417543
0.0048491503
0.0049554184
0.0050604388
0.005164079
0.0052661924
0.0053666333
0.005465277
0.0055620349
0.0056568555
0.0057497122
0.0058405854
0.005929445
0.0060162385
0.0061008858
0.0061832796
0.0062632924
0.006340783
0.0064155729
0.0064875771
0.0065566211
0.0066222589
0.0066851089
0.0067442635
0.0068001991
0.0068526807
0.0069015542
0.0069468006
0.0069883363
0.007026056
0.0070598572
0.0070896431
0.0071153261
0.0071368655
0.0071541193
0.0071671849
0.0071759832
0.0071805329
0.0071808422
0.0071769332
0.0071687907
0.0071564555
0.0071399472
0.0071192904
0.0070945236
0.007065701
0.0070328972
0.0069962077
0.0069557475
0.0069116458
0.0068640387
0.0068130596
0.0067588046
0.0059155364
0.0060333232
0.0061495132
0.0062639747
0.0063765797
0.0064871975
0.0065957013
0.0067019779
0.0068059355
0.0069075031
0.0070066239
0.0071032439
0.0071973018
0.0072887207
0.0073774019
0.0074632262
0.0075460715
0.0076258565
0.0077020185
0.0077751216
0.0078447971
0.0079106251
0.0079731166
0.0080316262
0.0080861535
0.0081366225
0.0081829444
0.0082250376
0.0082628104
0.0082961616
0.0083249923
0.0083492222
0.0083686739
0.0083834766
0.0083934591
0.0083986621
0.0083990055
0.0083945142
0.0083851557
0.0083709747
0.0083519875
0.0083282222
0.0082997115
0.0082664966
0.0082286316
0.008186187
0.0081392521
0.0080879362
0.0080323662
0.0079726837
0.0079090395
0.0078415874
0.007770457
0.0071047875
0.0072367896
0.0073666757
0.0074943122
0.0076195767
0.0077423499
0.0078625169
0.0079799713
0.0080946178
0.0082063715
0.0083151538
0.0084208869
0.0085234873
0.00862286
0.0087188904
0.0088114356
0.0089003286
0.008984964
0.0090664169
0.0091434509
0.0092168883
0.00928628
0.0093513186
0.0094118675
0.0094678281
0.0095191029
0.0095655932
0.009607199
0.0096438161
0.0096753337
0.0097016387
0.0097225453
0.009738161
0.0097484558
0.0097532794
0.009752593
0.0097463805
0.009734589
0.0097172496
0.0096943765
0.0096659915
0.0096321254
0.0095928188
0.0095481241
0.0094981078
0.0094428531
0.0093824619
0.0093170549
0.0092467703
0.0091717618
0.0090921948
0.0090082438
0.0089200727
0.0082402978
0.0083879175
0.0085329564
0.0086752839
0.0088147819
0.0089513367
0.009084839
0.009215184
0.0093422724
0.0094660088
0.0095863001
0.0097030517
0.0098161647
0.0099255329
0.010031045
0.010132606
0.010229014
0.010321951
0.010410005
0.01049386
0.010573721
0.010648781
0.010718921
0.010784016
0.010843944
0.010898588
0.010947831
0.010991557
0.011029653
0.011062012
0.01108826
0.011108606
0.011123054
0.011131454
0.011133674
0.011129706
0.011119455
0.011102904
0.011080066
0.011050944
0.011015556
0.010973932
0.010926114
0.010872158
0.010812137
0.010746141
0.01067428
0.010596681
0.01051349
0.01042487
0.010330999
0.010232068
0.010128269
0.0093065433
0.0094691706
0.0096288342
0.0097854098
0.0099387842
0.010088848
0.010235496
0.010378622
0.010518127
0.010653907
0.010785863
0.010913889
0.011037878
0.011157706
0.011273217
0.011384159
0.011489328
0.011591185
0.011687131
0.011779041
0.011866289
0.01194829
0.012024907
0.012095999
0.012161426
0.012221053
0.012274743
0.012322364
0.012363784
0.012398878
0.012427173
0.012448984
0.012464344
0.012473002
0.01247483
0.01246982
0.01245783
0.012438839
0.012412846
0.012379842
0.012339834
0.012292844
0.012238909
0.012178083
0.012110437
0.012036062
0.011955068
0.011867584
0.011773761
0.011673766
0.011567783
0.011456014
0.011338672
0.010312776
0.010488657
0.010661253
0.010830449
0.010996143
0.011158231
0.011316613
0.011471189
0.011621858
0.011768518
0.011911067
0.012049402
0.01218342
0.012313031
0.012438176
0.01255694
0.012670997
0.012781373
0.012885166
0.012985061
0.013079748
0.013168838
0.01325218
0.013329621
0.013401005
0.013466179
0.013524989
0.013577282
0.013622911
0.013661732
0.013693166
0.013717616
0.013735136
0.013745417
0.013748298
0.013743754
0.013731639
0.013711878
0.013684468
0.013649383
0.013606615
0.013556173
0.013498082
0.013432387
0.013359152
0.013278462
0.013190422
0.013095158
0.012992818
0.01288357
0.012767602
0.012645121
0.012516348
0.011274383
0.011461336
0.011644713
0.011824418
0.012000361
0.01217245
0.012340595
0.012504705
0.012664684
0.012820437
0.012971861
0.013118853
0.013261306
0.01339911
0.013532175
0.01365825
0.013780617
0.013897102
0.014008227
0.014115349
0.014216734
0.014312259
0.014401772
0.014485108
0.014562101
0.014632579
0.014696373
0.014753313
0.014803234
0.014845972
0.014880836
0.014908316
0.014928488
0.01494099
0.014945619
0.014942315
0.014930961
0.014911395
0.014883618
0.014847585
0.01480327
0.014750663
0.014689774
0.014620634
0.014543294
0.014457828
0.014364331
0.014262922
0.014153743
0.014036958
0.013912759
0.013781353
0.013642954
0.012204385
0.012400201
0.012592166
0.012780203
0.01296424
0.013144205
0.013320022
0.013491611
0.013658891
0.013821773
0.013980162
0.014133957
0.014283043
0.014427264
0.014566307
0.014698273
0.014827163
0.014948942
0.015066439
0.015179192
0.015286084
0.015386959
0.015481651
0.015569982
0.015651773
0.015726838
0.015794994
0.015856054
0.015909836
0.01595616
0.015994215
0.016024584
0.016047372
0.016062145
0.016068662
0.01606682
0.016056552
0.016037587
0.016009937
0.015973536
0.015928334
0.015874303
0.015811434
0.01573974
0.015659255
0.015570039
0.015472174
0.015365767
0.015250951
0.015127886
0.014996764
0.013111225
0.013313827
0.013512309
0.013706619
0.013896709
0.014082527
0.014264017
0.014441118
0.014613761
0.014781874
0.014945372
0.015104169
0.015258196
0.015407473
0.01554925
0.015686706
0.015820165
0.015946174
0.016068693
0.016185721
0.016296829
0.016401839
0.016500568
0.016592829
0.016678427
0.016757166
0.016828847
0.016893269
0.016950235
0.016999548
0.017040284
0.017073117
0.017098203
0.017114979
0.017123196
0.01712271
0.017113499
0.01709519
0.017067799
0.017031237
0.016985433
0.016930336
0.016865918
0.016792171
0.016709112
0.016616781
0.016515246
0.016404599
0.016284961
0.016156481
0.016019335
0.013999363
0.014206824
0.014409908
0.01460859
0.01480285
0.014992659
0.015177984
0.015358786
0.015535015
0.015706612
0.0158735
0.016035573
0.01619268
0.016344663
0.016489194
0.016631034
0.016765602
0.016895959
0.017021796
0.017141847
0.017255948
0.017363917
0.017465566
0.017560697
0.017649106
0.017730585
0.017804921
0.017871897
0.017931299
0.017982918
0.018025735
0.018060522
0.018087467
0.018105845
0.018115429
0.018116046
0.018107673
0.018089905
0.018062711
0.018025994
0.01797966
0.017923635
0.017857869
0.017782333
0.017697023
0.017601962
0.017497198
0.017382809
0.017258897
0.017125599
0.016983081
0.01487059
0.01508111
0.015287013
0.015488308
0.015685001
0.01587709
0.016064569
0.016247422
0.016425621
0.016599134
0.01676791
0.016931854
0.017090671
0.017242082
0.017390311
0.017533008
0.017669402
0.017802616
0.017930264
0.01805216
0.01816813
0.018277987
0.018381534
0.018478566
0.018568868
0.018652221
0.018728398
0.018797165
0.018858283
0.01891152
0.018955806
0.018992145
0.019020452
0.019040005
0.01905059
0.019052009
0.019044216
0.019026798
0.018999666
0.018962716
0.01891583
0.018858911
0.018791885
0.018714702
0.018627337
0.018529793
0.018422098
0.018304313
0.018176525
0.018038852
0.017891453
0.015725203
0.015937075
0.016144121
0.016346379
0.016543886
0.01673667
0.016924751
0.017108136
0.017286823
0.017460811
0.017630125
0.017794919
0.017951657
0.018104227
0.018253713
0.01839568
0.018534403
0.018668335
0.018796735
0.018919447
0.019036297
0.019147093
0.019251633
0.019349706
0.019441087
0.019525547
0.019602845
0.019672732
0.019734931
0.019789083
0.019834314
0.019871862
0.019901062
0.019921405
0.019932654
0.019934585
0.019927133
0.019909868
0.019882654
0.019845376
0.019797891
0.019740079
0.019671841
0.019593106
0.019503826
0.019403984
0.019293589
0.019172681
0.019041333
0.018899646
0.018747764
0.016562797
0.016774389
0.016980979
0.01718264
0.01737944
0.017571437
0.017758675
0.017941184
0.018118974
0.018292032
0.01846031
0.018623662
0.01877909
0.018932615
0.01907905
0.019222094
0.019360997
0.019494617
0.019622812
0.019745424
0.019862275
0.019973173
0.020077911
0.020176268
0.020268013
0.020352906
0.020430702
0.020501155
0.020564036
0.02061805
0.020664036
0.020702407
0.020732139
0.020752942
0.020764562
0.020766755
0.020759439
0.020742155
0.020714736
0.020677048
0.020628924
0.02057022
0.020500814
0.020420611
0.020329543
0.020227568
0.020114677
0.019990891
0.019856264
0.01971088
0.019554869
0.017382716
0.017592461
0.017797072
0.017996655
0.01819131
0.018381126
0.018566178
0.018746517
0.018922167
0.019093125
0.019259353
0.019418111
0.019574399
0.019723906
0.019869902
0.020012479
0.020150031
0.020282441
0.020409571
0.020531261
0.020647334
0.020757592
0.020861823
0.020959798
0.021051276
0.021136008
0.021213736
0.021284177
0.021346917
0.021400804
0.021447341
0.021485937
0.021515866
0.021536839
0.021548582
0.021550825
0.021543473
0.021526032
0.021498309
0.02146015
0.021411365
0.021351784
0.021281262
0.021199681
0.021106949
0.021003003
0.020887814
0.020761384
0.020623746
0.020474969
0.020315164
0.018184275
0.018390675
0.018591858
0.018787959
0.01897911
0.019165434
0.019347045
0.019524017
0.019696392
0.019864178
0.020024579
0.020182659
0.020334066
0.02048181
0.020626715
0.020766889
0.02090223
0.021032615
0.021157905
0.021277939
0.021392534
0.021501491
0.021604588
0.021701591
0.021792248
0.021876301
0.021953499
0.022023647
0.022085171
0.022138979
0.022185685
0.0222242
0.022254055
0.022274956
0.022286609
0.022288725
0.022281195
0.022263484
0.022235381
0.02219671
0.022147256
0.022086826
0.02201525
0.021932385
0.021838118
0.021732364
0.021615072
0.021486225
0.021345839
0.021193967
0.0210307
0.01896685
0.019168485
0.01936487
0.019556169
0.019742536
0.019924124
0.020101127
0.020273632
0.020441688
0.020602446
0.020761061
0.020913145
0.021061607
0.02120751
0.021348991
0.021485965
0.021618329
0.02174596
0.021868716
0.021986434
0.022098927
0.022205989
0.022307396
0.022402902
0.022492243
0.022575136
0.022651282
0.022720333
0.022780892
0.02283432
0.02288074
0.022918872
0.022948402
0.022969014
0.022980391
0.022982225
0.022974398
0.022956321
0.022927778
0.022888567
0.022838448
0.022777203
0.022704638
0.022620588
0.022524914
0.022417511
0.022298307
0.022167264
0.022024384
0.021869709
0.021703324
0.019729896
0.019925431
0.020115747
0.020301021
0.020481406
0.020657044
0.020828374
0.020995412
0.021155276
0.021313282
0.021464758
0.02161298
0.021758585
0.021900078
0.022037397
0.02217046
0.022299165
0.022423392
0.022542995
0.022657807
0.022767638
0.022872278
0.022971495
0.02306504
0.023152633
0.023233976
0.023308752
0.0233757
0.023435366
0.023488435
0.023534117
0.023571614
0.023600593
0.023620718
0.023631654
0.023633068
0.023624838
0.023606311
0.023577279
0.023537506
0.023486729
0.023424705
0.023351218
0.023266076
0.02316912
0.023060221
0.022939285
0.022806255
0.022661117
0.022503907
0.020472933
0.020661134
0.020844219
0.021022376
0.021195721
0.021364036
0.021528829
0.021686558
0.02184285
0.021992487
0.022139494
0.022283568
0.022423821
0.022560225
0.022692725
0.022821247
0.022945692
0.023065939
0.02318184
0.023293225
0.023399898
0.023501642
0.023598219
0.023689394
0.023774862
0.023854306
0.023926294
0.023992216
0.024050576
0.024102847
0.024147512
0.024184134
0.024212355
0.024231816
0.024242159
0.024243028
0.024234297
0.024215246
0.024185678
0.024145324
0.024093897
0.024031129
0.02395678
0.023870636
0.023772512
0.023662259
0.023539758
0.023404934
0.023257743
0.023098171
0.021195536
0.021375257
0.021550078
0.021720198
0.021885946
0.022044547
0.022199768
0.022353112
0.022499807
0.02264457
0.022785966
0.022923789
0.023058062
0.023188774
0.023315878
0.023439305
0.023558963
0.023674728
0.023786447
0.02389395
0.023997022
0.024095455
0.02418897
0.024277437
0.024360456
0.024436585
0.02450733
0.024570806
0.02462831
0.024679234
0.024722653
0.024758192
0.02478547
0.024804105
0.024813718
0.02481393
0.024804608
0.024784961
0.024754815
0.024713861
0.024661788
0.024598307
0.02452315
0.024436081
0.024336894
0.024225415
0.024101506
0.023965068
0.023816036
0.023654377
0.021897317
0.022067468
0.022233115
0.022394195
0.022548404
0.022700352
0.022846803
0.022990029
0.023131502
0.023269153
0.023403418
0.023534396
0.023662135
0.023786629
0.023907834
0.024025687
0.024140104
0.024250958
0.024358081
0.024461318
0.024560392
0.024655184
0.024745156
0.024830715
0.024909762
0.02498449
0.025052316
0.025113903
0.025170068
0.025219346
0.025261318
0.025295591
0.025321762
0.025339427
0.025348184
0.025347647
0.025337638
0.025317334
0.025286568
0.025244994
0.025192278
0.025128105
0.025052186
0.024964262
0.024864102
0.024751512
0.024626334
0.024488451
0.024337785
0.024174305
0.022577974
0.022737353
0.022893313
0.023041186
0.023188418
0.023329065
0.023467786
0.023603625
0.023736408
0.023866016
0.023992573
0.024116186
0.024236913
0.024354745
0.024469622
0.024581482
0.024690284
0.024795878
0.02489803
0.024996735
0.025091374
0.025182486
0.025267964
0.025349661
0.025426674
0.025498383
0.025563321
0.025623372
0.025677505
0.025724951
0.025765307
0.025798157
0.025823078
0.025839647
0.025847438
0.025846069
0.025835281
0.025814267
0.025782841
0.025740626
0.025687264
0.025622417
0.025545774
0.025457051
0.025355998
0.025242397
0.025116071
0.024976886
0.024824761
0.023237515
0.023383974
0.023528573
0.023666536
0.023801884
0.023934825
0.024064329
0.024190926
0.024314742
0.024435801
0.024554162
0.024669969
0.024783296
0.024894119
0.025002294
0.025107779
0.025210681
0.025310789
0.02540752
0.025501777
0.025590998
0.025677223
0.025759916
0.025838199
0.025911878
0.025979517
0.026042517
0.026100456
0.026152365
0.02619783
0.026236425
0.026267718
0.026291268
0.02630663
0.026313359
0.026311079
0.026299435
0.026277663
0.026245538
0.02620266
0.026148647
0.026083138
0.026005801
0.025916328
0.025814448
0.025699923
0.025572552
0.025432175
0.02527865
0.023872205
0.024009659
0.024139935
0.02426869
0.024393866
0.024516123
0.024635585
0.02475251
0.024867028
0.024979177
0.025088914
0.025196547
0.025302196
0.02540581
0.025506905
0.025605589
0.025702438
0.025797183
0.025887324
0.025976192
0.026061588
0.026143617
0.026222142
0.0262967
0.026365852
0.026430783
0.026491493
0.026546828
0.026596386
0.026639742
0.026676458
0.026706083
0.026728157
0.026742219
0.026747803
0.026744543
0.026731979
0.026709403
0.026676545
0.026632982
0.026578311
0.02651215
0.026434141
0.026343959
0.026241309
0.026125933
0.025997612
0.025856161
0.025701421
0.024486588
0.024610968
0.024730858
0.02484778
0.024961766
0.025073014
0.025181983
0.025288901
0.025393862
0.025496899
0.02559753
0.025696688
0.025794514
0.025891121
0.025984452
0.026075679
0.026166482
0.026254825
0.026340294
0.026423565
0.026504124
0.026581689
0.026656013
0.026725621
0.026791526
0.026853876
0.026911565
0.026964171
0.027011267
0.027052412
0.027087152
0.027115017
0.027135533
0.027148217
0.027152586
0.027148288
0.027134749
0.027111327
0.027077706
0.02703344
0.026978104
0.026911295
0.026832636
0.026741777
0.026638404
0.026522241
0.026393054
0.02625065
0.026094879
0.025080277
0.025190984
0.025298571
0.025403499
0.025505986
0.025605729
0.025703899
0.025800599
0.025895823
0.02598994
0.026080574
0.02617107
0.026260939
0.026349347
0.026435948
0.026520859
0.026604581
0.026686582
0.026766524
0.02684434
0.026919958
0.026992906
0.027061859
0.027127913
0.027190782
0.027249726
0.027304311
0.027354102
0.027398654
0.027437511
0.027470198
0.027496234
0.027515125
0.02752637
0.027529469
0.027524084
0.027509525
0.027485224
0.027450813
0.027405828
0.027349821
0.02728237
0.027203075
0.027111567
0.027007511
0.026890613
0.026760623
0.026617355
0.025651221
0.025748403
0.02584326
0.025935967
0.026027095
0.026114404
0.026201691
0.026288114
0.02637325
0.026457253
0.026539689
0.026621524
0.026702796
0.026783186
0.026862489
0.026940606
0.027017542
0.027093267
0.027167492
0.027239671
0.027310426
0.027377549
0.027442842
0.027505196
0.027564327
0.027619824
0.027671256
0.027718178
0.027760132
0.027796644
0.027827227
0.027851382
0.027868598
0.027878359
0.027880146
0.027873636
0.02785802
0.027832813
0.027797593
0.027751875
0.027695194
0.027627104
0.027547188
0.027455054
0.027350349
0.027232755
0.027101997
0.026957826
0.026199442
0.026283001
0.026365021
0.026445129
0.026523714
0.026600472
0.026676607
0.02675219
0.026827098
0.026901253
0.026974731
0.027047895
0.027120769
0.027193217
0.027265109
0.027336312
0.027406374
0.027475888
0.027544589
0.027610501
0.027675935
0.027739018
0.027799902
0.02785821
0.027913582
0.027965612
0.028013867
0.028057891
0.028097215
0.028131351
0.028159796
0.028182036
0.028197544
0.02820579
0.028206238
0.028198571
0.028181874
0.028155741
0.028119697
0.028073239
0.02801588
0.027947158
0.027866633
0.027773896
0.027668571
0.02755032
0.02741884
0.027273864
0.026725885
0.026795655
0.026864191
0.026931519
0.026997848
0.027063286
0.02712835
0.027193253
0.027258022
0.027322289
0.027386596
0.027451105
0.027515678
0.027580245
0.027644744
0.027709242
0.027771956
0.027835359
0.02789796
0.027959066
0.028019134
0.028077546
0.028134049
0.028188296
0.028239908
0.028288472
0.028333546
0.028374667
0.028411351
0.028443097
0.028469389
0.028489697
0.028503479
0.028510188
0.028509301
0.02850043
0.028482644
0.028455576
0.028418699
0.028371496
0.028313461
0.028244112
0.028162992
0.028069673
0.027963758
0.027844888
0.02771274
0.027567035
0.027229597
0.027285608
0.027340822
0.027395397
0.027449547
0.027503472
0.027557485
0.027611821
0.02766676
0.027720846
0.027776014
0.027832017
0.027888374
0.027945115
0.02800217
0.028059389
0.028116213
0.028173195
0.028229831
0.028285681
0.028340652
0.028394373
0.028446517
0.028496724
0.028544599
0.028589718
0.02863163
0.02866986
0.028703913
0.028733274
0.028757414
0.028775787
0.028787839
0.028793005
0.02879079
0.02878068
0.028761816
0.028733803
0.028696091
0.028648142
0.028589434
0.028519468
0.028437768
0.028343887
0.028237409
0.028117958
0.027985191
0.027838817
0.027710708
0.027753098
0.027795128
0.027837039
0.027879099
0.027921524
0.02796454
0.028008325
0.028052958
0.028098077
0.028144249
0.028191528
0.028239714
0.028288727
0.028338459
0.028388738
0.028439295
0.028490153
0.028541024
0.028591576
0.028641559
0.028690645
0.028738483
0.028784697
0.028828881
0.028870597
0.028909383
0.028944754
0.028976201
0.029003199
0.029025202
0.029041653
0.029051982
0.029055612
0.029052075
0.029040718
0.029020783
0.028991827
0.02895328
0.02890459
0.028845217
0.028774645
0.028692381
0.028597958
0.028490945
0.028370947
0.028237603
0.02809061
0.028170016
0.028198559
0.02822741
0.028256777
0.028286884
0.028317928
0.028350086
0.028383494
0.028418211
0.028454158
0.028491513
0.028530328
0.028570504
0.02861194
0.028654509
0.02869804
0.028742324
0.028787223
0.028832487
0.028877816
0.028922917
0.028967453
0.029011064
0.029053359
0.029093917
0.02913229
0.029168005
0.029200564
0.029229447
0.029254115
0.029274011
0.029288564
0.029297191
0.029299301
0.029294453
0.029281855
0.02926086
0.029230968
0.029191595
0.029142172
0.029082145
0.02901098
0.028928168
0.028833226
0.028725704
0.028605191
0.028471307
0.028323738
0.02860707
0.028622055
0.02863795
0.028654973
0.028673328
0.028693185
0.028714686
0.028737943
0.028763009
0.028789873
0.02881859
0.028849169
0.028881537
0.028915587
0.028951179
0.02898814
0.029026267
0.029065362
0.029105172
0.029145404
0.029185741
0.02922584
0.029265324
0.029303791
0.029340808
0.029375915
0.029408628
0.029438437
0.02946481
0.029487196
0.029505026
0.029517716
0.029524671
0.02952529
0.029519142
0.029505322
0.029483283
0.029452468
0.029412282
0.029362138
0.02930147
0.029229728
0.029146388
0.029050949
0.028942946
0.028821946
0.028687557
0.028539449
0.029022216
0.029023892
0.029027095
0.029032034
0.029038891
0.029047815
0.029058912
0.029072274
0.029087954
0.029105937
0.02912623
0.029148811
0.029173598
0.02920048
0.029229304
0.029259889
0.029292026
0.029325488
0.029360011
0.029395293
0.029431007
0.029466796
0.029502272
0.02953702
0.029570596
0.029602529
0.029632323
0.029659455
0.029683384
0.029703546
0.029719361
0.029730231
0.029735551
0.029734733
0.029727284
0.029712274
0.029689213
0.029657494
0.02961651
0.029565662
0.02950437
0.029432069
0.029348221
0.02925231
0.029143851
0.029022396
0.028887532
0.028738917
0.029415765
0.029404429
0.029395244
0.029388406
0.029384069
0.02938236
0.029383349
0.0293871
0.029393686
0.029403045
0.029415164
0.029430006
0.029447461
0.029467413
0.029489697
0.029514121
0.029540465
0.029568483
0.029597897
0.029628397
0.029659644
0.029691267
0.029722868
0.029754021
0.029784269
0.029813131
0.029840098
0.029864639
0.0298862
0.029904206
0.029918064
0.029927168
0.029930897
0.029928696
0.029919948
0.029903798
0.029879738
0.029847138
0.029805376
0.029753843
0.029691944
0.029619106
0.029534772
0.029438414
0.029329529
0.029207648
0.029072339
0.028923245
0.029788044
0.029764044
0.029742835
0.029724573
0.029709385
0.029697368
0.029688584
0.029683072
0.02968086
0.029681889
0.029686108
0.029693496
0.029703882
0.029717165
0.029733153
0.029751647
0.029772414
0.029795193
0.029819692
0.029845592
0.029872539
0.029900154
0.029928025
0.029955716
0.02998276
0.030008663
0.030032908
0.030054951
0.030074227
0.030090151
0.030102121
0.030109518
0.030111709
0.030108173
0.030098154
0.030080907
0.030055876
0.03002242
0.029979904
0.029927707
0.029865224
0.029791868
0.029707075
0.029610298
0.029501018
0.029378741
0.029243014
0.029093466
0.030266058
0.030221151
0.030178859
0.030139405
0.030103177
0.030070349
0.030041053
0.030015393
0.029993441
0.029975237
0.0299608
0.029950118
0.02994314
0.029939798
0.02994002
0.029943602
0.029950498
0.029960445
0.029973255
0.029988675
0.030006432
0.030026222
0.030047712
0.03007054
0.030094312
0.03011861
0.030142982
0.030166953
0.030190019
0.03021165
0.030231295
0.030248378
0.030262303
0.030272456
0.030278211
0.030278928
0.030274096
0.03026285
0.030244547
0.03021858
0.030184297
0.030141052
0.030088215
0.03002517
0.029951321
0.029866093
0.029768929
0.02965929
0.029536651
0.02940053
0.029250547
0.030636424
0.030577629
0.030522192
0.030470337
0.030422321
0.030378303
0.030338393
0.030302668
0.030271175
0.030243933
0.030220934
0.030202143
0.030187495
0.0301769
0.030170252
0.030167387
0.03016816
0.030172324
0.030179707
0.030190023
0.030202985
0.030218278
0.03023556
0.030254454
0.03027456
0.030295444
0.030316648
0.030337684
0.030358039
0.030377174
0.030394527
0.030409511
0.030421523
0.030429938
0.030434118
0.030433438
0.030427339
0.030414922
0.030395606
0.03036874
0.030333662
0.030289716
0.030236263
0.030172679
0.030098361
0.030012726
0.029915209
0.029805252
0.02968229
0.029545797
0.029395393
0.030985419
0.030913237
0.03084515
0.030781343
0.030722001
0.030667247
0.030617166
0.030571805
0.030531187
0.030495305
0.030464128
0.030437598
0.030415631
0.03039812
0.030384932
0.030375901
0.030370848
0.030369552
0.030371746
0.030377203
0.030385603
0.030396621
0.0304099
0.030425054
0.030441672
0.03045931
0.0304775
0.030495744
0.03051352
0.030530279
0.030545448
0.030558435
0.030568623
0.03057538
0.030578058
0.030576061
0.030568721
0.030555201
0.030534916
0.030507189
0.030471348
0.030426731
0.030372689
0.030308589
0.030233824
0.03014781
0.030049978
0.029939755
0.029816518
0.029679667
0.029528848
0.031313464
0.031228434
0.031148215
0.03107295
0.031002768
0.030937756
0.030877965
0.030823416
0.030774102
0.030729994
0.030691035
0.030657147
0.030628225
0.030604142
0.030584747
0.03056986
0.030559283
0.030552782
0.030550097
0.030550951
0.030555012
0.030561977
0.030571464
0.030583075
0.030596388
0.03061095
0.030626283
0.030641882
0.030657212
0.030671718
0.030684818
0.030695908
0.030704366
0.03070955
0.030710802
0.030707555
0.030699021
0.030684461
0.030663251
0.030634703
0.030598136
0.030552878
0.030498271
0.03043368
0.030358491
0.030272122
0.030174014
0.030063592
0.029940143
0.029802926
0.029651693
0.031621028
0.03152372
0.031431915
0.031345715
0.031265202
0.031190426
0.031121403
0.031058124
0.031000557
0.030948646
0.030902311
0.030861451
0.030825943
0.030795641
0.030770374
0.03074995
0.030734151
0.030722732
0.030715422
0.03071193
0.030711935
0.030715046
0.030720952
0.030729218
0.030739411
0.030751069
0.030763706
0.030776805
0.030789826
0.030802204
0.030813347
0.030822646
0.030829467
0.030833163
0.030833075
0.030828631
0.030818966
0.030803424
0.030781337
0.03075201
0.030714752
0.030668884
0.030613741
0.03054868
0.030473086
0.030386381
0.030288031
0.030177498
0.030053928
0.02991628
0.029764646
0.031908633
0.031799636
0.031696814
0.031600223
0.031509906
0.031425872
0.031348104
0.031276565
0.031211194
0.031151908
0.031098607
0.031051168
0.031009446
0.030973279
0.030942479
0.030916836
0.030896119
0.03088007
0.030868406
0.030860821
0.030856983
0.030856524
0.030859034
0.030864153
0.030871411
0.030880337
0.030890436
0.030901184
0.030912033
0.030922407
0.030931709
0.03093932
0.0309446
0.030946891
0.030945562
0.030939954
0.030929235
0.030912768
0.030889853
0.030859788
0.030821876
0.03077543
0.030719777
0.030654267
0.030578284
0.030491253
0.030392677
0.03028215
0.032176841
0.032056764
0.031943506
0.031837085
0.0317375
0.031644724
0.031558707
0.03147938
0.031406656
0.031340429
0.031280573
0.031226946
0.031179384
0.031137706
0.031101709
0.031071167
0.031045835
0.031025442
0.031009693
0.030998269
0.030990828
0.030986995
0.030986373
0.030988518
0.030993023
0.030999389
0.031007109
0.031015653
0.031024464
0.03103296
0.031040535
0.031046563
0.031050397
0.031051372
0.031048879
0.031042163
0.031030465
0.031013126
0.030989431
0.030958672
0.030920144
0.030873151
0.030817015
0.030751078
0.030674716
0.030587354
0.030488513
0.032426253
0.032295713
0.032172613
0.032056929
0.031948621
0.031847623
0.031753854
0.031667214
0.03158759
0.031514851
0.031448851
0.031389427
0.031336396
0.031289559
0.031248699
0.031213574
0.031183926
0.031159472
0.031139904
0.031124894
0.031114086
0.031107101
0.031103529
0.031102939
0.031104855
0.031108828
0.031114326
0.031120812
0.031127719
0.031134459
0.031140421
0.031144969
0.031147451
0.031147204
0.03114361
0.031135855
0.031123247
0.03110509
0.031080665
0.031049255
0.031010148
0.030962641
0.030906048
0.030839704
0.030762974
0.030675261
0.030575991
0.032657498
0.032517121
0.032384777
0.032260402
0.032143916
0.032035217
0.031934191
0.031840711
0.031754637
0.031675815
0.031604078
0.031539241
0.031481107
0.03142946
0.031384065
0.03134467
0.031311
0.031282762
0.031259638
0.031241288
0.031227348
0.031217427
0.03121111
0.031207956
0.031207497
0.031209227
0.031212657
0.031217226
0.031222362
0.031227469
0.031231928
0.031235098
0.03123632
0.031234951
0.031230303
0.031221591
0.031208135
0.031189216
0.031164109
0.03113209
0.031092441
0.031044452
0.03098743
0.030920701
0.030843618
0.030755556
0.030655889
0.032871233
0.032721642
0.032580653
0.03244816
0.032324041
0.032208159
0.032100369
0.032000516
0.031908436
0.031823952
0.031746877
0.031677009
0.031614132
0.031558015
0.031508408
0.031465047
0.031427644
0.031395895
0.031369471
0.031348023
0.031331177
0.031318534
0.03130967
0.031304138
0.031301463
0.031301143
0.031302642
0.031305434
0.031308927
0.031312519
0.031315584
0.031317477
0.031317534
0.031315121
0.031309483
0.031299893
0.031285649
0.031266021
0.03124028
0.031207695
0.031167542
0.031119104
0.031061681
0.03099459
0.030917172
0.03082878
0.030728768
0.033068127
0.032909945
0.032760909
0.032620867
0.032489654
0.0323671
0.03225303
0.032147265
0.032049615
0.031959884
0.031877864
0.031803336
0.031736067
0.031675813
0.03162231
0.03157528
0.031534426
0.031499431
0.031469957
0.031445645
0.031426114
0.031410956
0.031399741
0.031392012
0.031387288
0.031385063
0.031384802
0.031385941
0.031387918
0.031390111
0.031391888
0.0313926
0.031391594
0.031388193
0.031381647
0.031371249
0.031356275
0.031335992
0.031309664
0.031276554
0.031235933
0.031187079
0.031129283
0.031061855
0.030984125
0.03089543
0.030795115
0.033248859
0.033082707
0.032926219
0.032779189
0.032641413
0.03251269
0.032392817
0.032281589
0.032178796
0.032084221
0.031997638
0.031918812
0.031847495
0.031783427
0.031726334
0.031675925
0.031631891
0.031593907
0.031561626
0.031534679
0.031512677
0.031495205
0.031481825
0.031472075
0.031465468