/*--------------------------------*- C++ -*----------------------------------*\
| =========                 |                                                 |
| \\      /  F ield         | OpenFOAM: The Open Source CFD Toolbox           |
|  \\    /   O peration     | Version:  2312                                  |
|   \\  /    A nd           | Website:  www.openfoam.com                      |
|    \\/     M anipulation  |                                                 |
\*---------------------------------------------------------------------------*/
FoamFile
{
    version     2.0;
    format      ascii;
    arch        "LSB;label=32;scalar=64";
    class       volScalarField;
    location    "0.06";
    object      k;
}
// * * * * * * * * * * * * * * * * * * * * * * * * * * * * * * * * * * * * * //

dimensions      [0 2 -2 0 0 0 0];

internalField   nonuniform List<scalar> 
3272
(
11.100492
11.116594
11.132621
11.148584
11.16444
11.180084
11.195379
11.210222
11.224568
11.238427
11.251831
11.264805
11.277354
11.289465
11.301113
11.312266
11.322892
11.332952
11.3424
11.351182
11.359243
11.36654
11.373051
11.37878
11.383761
11.388037
11.391641
11.394568
11.396818
11.398333
11.399078
11.399016
11.39813
11.396405
11.393851
11.390481
11.386318
11.381387
11.375715
11.369328
11.362239
11.354457
11.345978
11.336791
11.326885
11.316259
11.304925
11.292911
11.280257
11.267012
11.253228
11.238954
11.224227
11.192531
11.209575
11.226396
11.242982
11.259288
11.275235
11.290723
11.305677
11.320057
11.33386
11.347101
11.35979
11.371925
11.383493
11.394474
11.404848
11.414591
11.423679
11.432079
11.43975
11.446651
11.452752
11.458033
11.462498
11.46617
11.469081
11.471258
11.472704
11.47341
11.473347
11.472484
11.47079
11.468252
11.464866
11.460638
11.455582
11.449718
11.443069
11.43566
11.427514
11.418647
11.409068
11.398775
11.387765
11.376038
11.363601
11.35047
11.336673
11.32225
11.307247
11.291717
11.275708
11.259251
11.259625
11.278559
11.297001
11.314929
11.332309
11.349092
11.365224
11.380659
11.395372
11.409356
11.422611
11.43514
11.446939
11.457999
11.46831
11.477861
11.486645
11.49465
11.501862
11.508256
11.513801
11.518496
11.522318
11.52527
11.527369
11.528636
11.52909
11.528741
11.527584
11.525604
11.522787
11.51912
11.514596
11.509216
11.502989
11.495928
11.48805
11.479377
11.469936
11.459744
11.448823
11.437188
11.424845
11.411801
11.398062
11.383642
11.368558
11.35284
11.336526
11.31966
11.302289
11.284458
11.266199
11.319987
11.342176
11.363535
11.384042
11.403673
11.422405
11.440213
11.457079
11.472992
11.487948
11.501949
11.514994
11.527085
11.538219
11.548395
11.557614
11.565876
11.573189
11.579554
11.584967
11.5894
11.592884
11.595391
11.596933
11.597526
11.597189
11.595935
11.593772
11.590709
11.586747
11.581884
11.576119
11.569457
11.561906
11.553476
11.544182
11.534045
11.523081
11.511318
11.498779
11.485485
11.471455
11.456706
11.441252
11.425109
11.408296
11.390838
11.372765
11.354113
11.334924
11.315241
11.295106
11.274553
11.359806
11.385421
11.40993
11.433308
11.455539
11.47661
11.496511
11.515236
11.532785
11.549158
11.56436
11.578394
11.591265
11.602978
11.613541
11.622956
11.631228
11.638388
11.644439
11.649387
11.653238
11.655997
11.657674
11.658279
11.65783
11.656343
11.653826
11.650299
11.645775
11.640263
11.633772
11.626313
11.617896
11.608536
11.598249
11.587051
11.57496
11.562001
11.548195
11.533566
11.51814
11.501938
11.484983
11.467296
11.448898
11.429815
11.410076
11.389717
11.368774
11.347291
11.325313
11.302886
11.280042
11.392314
11.420183
11.446753
11.472001
11.495915
11.518486
11.539711
11.559592
11.578132
11.595338
11.611217
11.625777
11.639029
11.650982
11.66165
11.671042
11.679172
11.686063
11.691727
11.696187
11.699451
11.701535
11.702454
11.702225
11.700871
11.698392
11.694813
11.690152
11.684424
11.677644
11.669828
11.66099
11.651146
11.640316
11.628517
11.615766
11.602083
11.587491
11.572013
11.55567
11.53849
11.520499
11.501724
11.482193
11.461932
11.440972
11.419338
11.397065
11.37419
11.350752
11.326794
11.302357
11.277478
11.438892
11.467374
11.4944
11.519955
11.544032
11.566631
11.587756
11.607413
11.625614
11.642372
11.6577
11.671614
11.684131
11.695268
11.705043
11.713475
11.720579
11.726381
11.730899
11.734159
11.736182
11.736989
11.7366
11.735039
11.73231
11.728439
11.723445
11.717346
11.71016
11.701905
11.692597
11.682256
11.670897
11.658541
11.645205
11.630907
11.615664
11.599504
11.582449
11.564525
11.545757
11.526167
11.50578
11.48462
11.462716
11.440094
11.416789
11.392832
11.368261
11.343114
11.317431
11.291254
11.264622
11.513393
11.541107
11.567197
11.59166
11.614503
11.635735
11.655372
11.673431
11.689932
11.7049
11.718357
11.73033
11.740844
11.749927
11.757606
11.763905
11.76885
11.772472
11.774791
11.775838
11.775645
11.774251
11.771654
11.767893
11.762986
11.756954
11.749819
11.7416
11.732317
11.72199
11.710637
11.698278
11.684931
11.670614
11.655345
11.639145
11.622031
11.604022
11.58514
11.565406
11.544843
11.52348
11.501337
11.478437
11.454809
11.430479
11.405479
11.379839
11.353593
11.326778
11.299433
11.271596
11.243307
11.619701
11.645683
11.669848
11.69221
11.712791
11.731616
11.748713
11.764114
11.777854
11.789968
11.800493
11.809467
11.816928
11.822913
11.827461
11.830605
11.832383
11.832844
11.832003
11.829895
11.826562
11.822042
11.816361
11.809547
11.801626
11.792624
11.782564
11.77147
11.759363
11.746264
11.732195
11.717175
11.701224
11.684359
11.666599
11.647963
11.628472
11.608141
11.586989
11.565037
11.542302
11.518796
11.494553
11.469606
11.443976
11.417684
11.390757
11.363226
11.335121
11.306476
11.277327
11.247713
11.217675
11.755602
11.779166
11.800703
11.820248
11.837837
11.853513
11.867322
11.87931
11.889528
11.898026
11.904855
11.910067
11.913715
11.915846
11.916506
11.915753
11.913624
11.910168
11.905426
11.899445
11.892267
11.883931
11.874474
11.86393
11.85233
11.839704
11.82608
11.811484
11.795941
11.779474
11.762107
11.74386
11.724756
11.704809
11.684039
11.662465
11.640111
11.61699
11.593117
11.568512
11.543192
11.517179
11.49049
11.463138
11.43515
11.406563
11.377406
11.347699
11.317466
11.28674
11.255554
11.916801
11.937362
11.955686
11.971825
11.985835
11.997778
12.007715
12.015712
12.021833
12.026146
12.028718
12.029607
12.028893
12.026632
12.02287
12.017677
12.011111
12.00323
11.994083
11.983727
11.972207
11.959571
11.94586
11.931116
11.915373
11.898668
11.881031
11.862493
11.843083
11.822824
11.801743
11.779863
11.757206
11.733789
11.709628
11.684741
11.659158
11.63289
11.605951
11.578357
11.550125
11.521273
11.491821
11.461788
11.431193
11.400052
11.368386
11.336234
11.303628
11.27059
11.237146
12.099152
12.116114
12.130641
12.142803
12.152677
12.160343
12.16588
12.169373
12.170897
12.17054
12.168397
12.16451
12.158983
12.151887
12.143292
12.133273
12.121883
12.109198
12.095284
12.080196
12.063991
12.04672
12.028432
12.009171
11.988979
11.967896
11.945956
11.923193
11.899637
11.875317
11.850258
11.824486
11.798023
11.770887
11.743096
11.714668
11.685625
11.655985
11.625759
11.594961
11.563607
11.531714
11.499298
11.466378
11.432971
11.399099
11.36478
11.33003
11.294873
11.259351
11.223494
12.299386
12.312103
12.322206
12.329788
12.334946
12.337781
12.338378
12.336872
12.333317
12.327825
12.320499
12.311424
12.300693
12.288385
12.27458
12.259419
12.242878
12.225085
12.20611
12.186017
12.164865
12.142712
12.11961
12.09561
12.070758
12.045095
12.01866
11.991489
11.963614
11.935065
11.90587
11.876054
11.845639
11.814645
11.783089
11.750988
11.718364
11.685232
11.651602
11.617489
11.582905
11.547865
11.512385
11.476479
11.440164
11.403459
11.36638
11.328949
11.291187
11.253108
11.214749
12.515095
12.522865
12.527874
12.530236
12.530059
12.527505
12.522615
12.515553
12.506422
12.495334
12.482398
12.467721
12.451398
12.433522
12.414192
12.393508
12.371539
12.348371
12.324082
12.298744
12.272424
12.245183
12.217079
12.188165
12.158489
12.128097
12.09703
12.065324
12.033013
12.000129
11.966699
11.932749
11.8983
11.863371
11.82798
11.792144
11.75588
11.719204
11.682124
11.644651
11.606798
11.568576
11.529998
11.491077
11.451828
11.412264
11.372404
11.332263
11.291862
11.251223
11.210366
12.744445
12.746534
12.74575
12.742249
12.736111
12.727518
12.716589
12.703458
12.688253
12.671099
12.652117
12.631424
12.609126
12.585328
12.560136
12.533648
12.505958
12.47715
12.447307
12.416505
12.384815
12.352302
12.319027
12.285046
12.25041
12.215166
12.179354
12.143015
12.106181
12.068884
12.031152
11.99301
11.954477
11.915572
11.876312
11.836712
11.796788
11.756553
11.716013
11.675176
11.634053
11.592653
11.550985
11.509061
11.466891
11.424488
11.381865
11.339037
11.296021
11.252836
11.209505
12.985902
12.981593
12.9743
12.964224
12.951508
12.936309
12.918775
12.899053
12.877286
12.853609
12.828155
12.801047
12.772404
12.742342
12.71097
12.678395
12.644714
12.61002
12.574397
12.537925
12.500678
12.462724
12.424126
12.384942
12.345223
12.305017
12.264367
12.223311
12.181881
12.140111
12.098027
12.05565
12.013001
11.970095
11.926949
11.883574
11.839986
11.796195
11.752203
11.708017
11.663643
11.619088
11.574359
11.529463
11.484408
11.439203
11.393859
11.348387
11.302802
11.25712
11.21136
13.238031
13.226553
13.212085
13.19481
13.174901
13.152528
13.127857
13.101047
13.072252
13.04162
13.009289
12.975395
12.940064
12.903418
12.865575
12.826644
12.786728
12.745922
12.704313
12.661985
12.619013
12.575466
12.531409
12.4869
12.441992
12.396731
12.351161
12.305317
12.259232
12.212939
12.166462
12.11982
12.07303
12.026109
11.979067
11.931917
11.88467
11.837335
11.789909
11.742395
11.694798
11.64712
11.599366
11.551537
11.503641
11.455681
11.407666
11.359604
11.311505
11.263383
11.215254
13.499355
13.480036
13.457738
13.432658
13.404987
13.374912
13.342609
13.308252
13.272004
13.234019
13.194447
13.15343
13.1111
13.067588
13.023014
12.97749
12.931122
12.884007
12.836235
12.787889
12.739047
12.689778
12.640147
12.590212
12.540025
12.489631
12.439074
12.388387
12.337603
12.28675
12.23585
12.184921
12.133978
12.083034
12.032097
11.981176
11.930282
11.879419
11.82858
11.777766
11.726977
11.676211
11.62547
11.574753
11.524061
11.473396
11.422762
11.372164
11.321608
11.271105
11.220668
13.76838
13.740581
13.709854
13.676412
13.640464
13.602206
13.561829
13.519515
13.475433
13.429748
13.382617
13.334184
13.284591
13.233971
13.182445
13.130129
13.077127
13.02354
12.969458
12.914965
12.860137
12.805044
12.74975
12.694311
12.638778
12.583195
12.527603
12.472036
12.416522
12.361087
12.305749
12.250524
12.195425
12.14046
12.085636
12.030958
11.976434
11.922065
11.867841
11.813757
11.75981
11.705994
11.652307
11.598744
11.545304
11.491983
11.438783
11.385703
11.332747
11.27992
14.043542
14.006684
13.966991
13.924692
13.880009
13.83315
13.784315
13.733689
13.681451
13.627773
13.572813
13.516726
13.459653
13.401727
13.343073
13.283804
13.224029
13.163845
13.103343
13.042606
12.981709
12.920721
12.859702
12.798708
12.737788
12.676983
12.616332
12.555866
12.49561
12.435588
12.375812
12.316298
12.257053
12.198083
12.13939
12.080976
12.022849
11.965005
11.907428
11.850109
11.793042
11.736217
11.679627
11.623265
11.567124
11.511197
11.455481
11.399973
11.344673
11.289585
14.323243
14.276815
14.227689
14.176106
14.122298
14.066482
14.008863
13.949634
13.888978
13.827068
13.764072
13.700141
13.635419
13.57004
13.504125
13.437791
13.371143
13.304278
13.237284
13.170243
13.103228
13.036304
12.96953
12.902959
12.836637
12.770603
12.704888
12.639528
12.574541
12.509943
12.445748
12.381966
12.318601
12.255654
12.193122
12.131006
12.069312
12.008031
11.947141
11.88663
11.826487
11.766699
11.707254
11.64814
11.589348
11.530866
11.472687
11.414804
11.357214
11.299918
14.605881
14.549448
14.490494
14.42927
14.366013
14.30095
14.234292
14.16623
14.096952
14.026636
13.955446
13.883537
13.811049
13.738115
13.664857
13.591387
13.517809
13.444217
13.370698
13.297329
13.224179
13.151312
13.078783
13.006642
12.934931
12.863687
12.792927
12.722699
12.65301
12.58387
12.515292
12.447279
12.379834
12.312953
12.246628
12.180855
12.115644
12.050973
11.986819
11.923166
11.859997
11.797297
11.735049
11.673237
11.611847
11.550864
11.490276
11.430073
11.370247
11.310796
14.88988
14.823084
14.753984
14.682833
14.609876
14.535345
14.459452
14.382392
14.304353
14.225509
14.146025
14.066053
13.985732
13.905191
13.824549
13.743917
13.663393
13.583069
13.503026
13.423339
13.344074
13.265288
13.187033
13.109354
13.032291
12.955875
12.880128
12.805077
12.730733
12.657103
12.584194
12.512005
12.440535
12.369776
12.299716
12.230349
12.161678
12.093675
12.026316
11.959578
11.893443
11.827889
11.762896
11.698444
11.634514
11.571087
11.508148
11.445681
11.383675
15.17372
15.096281
15.016789
14.935502
14.852664
14.768511
14.683256
14.597093
14.510207
14.42277
14.334943
14.246874
14.1587
14.070545
13.982524
13.894742
13.807295
13.720269
13.63374
13.547779
13.462446
13.377795
13.29387
13.210715
13.128363
13.046841
12.966171
12.886366
12.807437
12.729387
12.652217
12.575924
12.5005
12.425932
12.352208
12.279318
12.207257
12.135991
12.065493
11.995739
11.926703
11.85836
11.790686
11.723658
11.65725
11.591442
11.526213
11.461544
11.397424
15.455958
15.367674
15.277621
15.186058
15.09323
14.999368
14.904684
14.80937
14.713606
14.617562
14.521393
14.425243
14.329241
14.233506
14.138149
14.043269
13.948958
13.855293
13.762347
13.670186
13.578862
13.488424
13.398914
13.310366
13.22281
13.136271
13.050761
12.96629
12.882863
12.80048
12.719136
12.638823
12.559529
12.481238
12.403931
12.327599
12.252227
12.177777
12.104218
12.031522
11.959658
11.888599
11.818316
11.748779
11.679963
11.611839
11.544384
11.477576
11.411401
15.735257
15.636
15.535289
15.433379
15.330513
15.226916
15.122794
15.018336
14.913718
14.809102
14.704638
14.600462
14.496699
14.39346
14.290845
14.188954
14.087868
13.98766
13.888396
13.790134
13.692922
13.596803
13.501811
13.407977
13.315326
13.223872
13.133627
13.044593
12.956772
12.870157
12.784739
12.700505
12.617438
12.535517
12.454722
12.375037
12.296444
12.218897
12.142362
12.066806
11.992196
11.918499
11.845682
11.773712
11.702559
11.63219
11.562578
11.493697
11.425528
16.010384
15.900103
15.788705
15.676442
15.56355
15.450248
15.336735
15.223193
15.10979
14.996681
14.884011
14.771908
14.660486
14.549851
14.440096
14.331309
14.223569
14.116939
14.01148
13.907242
13.804268
13.702592
13.602245
13.50325
13.405625
13.309379
13.214518
13.121041
13.028942
12.93821
12.848831
12.760786
12.674053
12.588607
12.504425
12.421488
12.33977
12.25922
12.179801
12.101475
12.024205
11.947954
11.872685
11.798361
11.724947
11.652409
11.580712
11.509827
16.280233
16.158942
16.036892
15.914329
15.791481
15.668557
15.545748
15.423228
15.301153
15.179674
15.058927
14.939029
14.820086
14.702194
14.585441
14.469904
14.355654
14.24275
14.131242
14.021174
13.912582
13.805494
13.699935
13.595919
13.493458
13.392557
13.293215
13.195425
13.099176
13.004452
12.911234
12.819497
12.729215
12.640358
12.552899
12.466817
12.382077
12.298626
12.21642
12.135418
12.05558
11.976864
11.899229
11.822635
11.747042
11.672411
11.598708
11.525901
16.543817
16.411594
16.278987
16.146234
16.013551
15.881137
15.749173
15.617821
15.487229
15.357536
15.228873
15.101345
14.975048
14.850069
14.726485
14.604366
14.483775
14.364765
14.247373
14.131639
14.017593
13.905253
13.794637
13.685754
13.578609
13.473201
13.369522
13.267561
13.1673
13.068719
12.971792
12.876492
12.782784
12.690635
12.600016
12.510904
12.423252
12.337004
12.252114
12.168536
12.086225
12.005136
11.925225
11.846446
11.768757
11.692116
11.616485
11.541829
16.800278
16.657258
16.514244
16.371459
16.229108
16.087379
15.94644
15.806443
15.667521
15.529803
15.393419
15.258453
15.124994
14.993119
14.862895
14.734384
14.607639
14.482707
14.359615
14.238394
14.119068
14.001648
13.886145
13.772561
13.660894
13.551137
13.443275
13.337293
13.233166
13.130869
13.030372
12.931641
12.834637
12.739322
12.645666
12.553642
12.463191
12.374257
12.286788
12.200736
12.116051
12.032685
11.950589
11.869714
11.790015
11.711447
11.633966
11.557537
17.048879
16.895251
16.742026
16.589413
16.437604
16.286773
16.137075
15.98865
15.841617
15.696093
15.552206
15.410018
15.26961
15.13105
14.994398
14.859701
14.727006
14.59635
14.467753
14.341238
14.216819
14.094504
13.974292
13.856182
13.740163
13.626222
13.514339
13.404492
13.296651
13.190786
13.086861
12.984837
12.884672
12.786321
12.689755
12.594939
12.501806
12.410298
12.320359
12.231938
12.144981
12.059434
11.975247
11.892368
11.810746
11.730333
11.651084
11.572959
17.289007
17.125004
16.961807
16.79961
16.638588
16.478901
16.32069
16.164082
16.009186
15.856103
15.704942
15.555769
15.408646
15.263632
15.120775
14.980114
14.841686
14.705516
14.571621
14.440013
14.3107
14.183679
14.058947
13.936491
13.816297
13.698344
13.582606
13.469055
13.357657
13.248376
13.141169
13.035994
12.932803
12.831551
12.732203
12.634718
12.539022
12.445055
12.352757
12.262073
12.172945
12.085318
11.999135
11.914342
11.830885
11.748713
11.667777
11.588033
17.520166
17.346056
17.173165
17.001662
16.831703
16.663433
16.496982
16.332461
16.169966
16.009587
15.851413
15.695504
15.541914
15.390688
15.241863
15.095471
14.951534
14.810073
14.671094
14.534603
14.400598
14.269071
14.14001
14.013396
13.889208
13.767418
13.647996
13.530906
13.41611
13.303565
13.193227
13.085045
12.978967
12.874947
12.772948
12.672919
12.57478
12.478469
12.383923
12.291084
12.199889
12.11028
12.022197
11.935581
11.850378
11.766531
11.683989
11.602707
17.741963
17.558053
17.375775
17.19527
17.016677
16.840124
16.665725
16.493578
16.323769
16.156371
15.991456
15.829078
15.669278
15.512093
15.357548
15.205664
15.056454
14.909928
14.766088
14.624928
14.48644
14.350609
14.217414
14.086832
13.958834
13.833385
13.710451
13.589989
13.471956
13.356305
13.242984
13.13194
13.023115
12.916463
12.811944
12.709495
12.609034
12.510494
12.413813
12.318924
12.225766
12.134274
12.044385
11.95604
11.869177
11.78374
11.699674
11.61693
17.954105
17.760735
17.569403
17.380223
17.193319
17.008799
16.826763
16.647295
16.470468
16.296341
16.124969
15.956397
15.790656
15.627773
15.467761
15.310631
15.156387
15.005029
14.856552
14.710942
14.568182
14.428251
14.291122
14.156764
14.02514
13.896213
13.76994
13.646273
13.525165
13.406562
13.29041
13.176648
13.065215
12.956067
12.84916
12.744414
12.64175
12.541098
12.442391
12.345561
12.250541
12.157264
12.065665
11.975679
11.887244
11.800301
11.714792
11.630665
18.156381
17.953929
17.753894
17.556386
17.361509
17.169354
16.980007
16.793533
16.609995
16.429438
16.2519
16.077418
15.906009
15.737693
15.572473
15.410348
15.251312
15.095357
14.942469
14.792629
14.645811
14.501987
14.361121
14.223178
14.088116
13.955889
13.82645
13.699745
13.575722
13.454323
13.335489
13.219153
13.105253
12.993744
12.884575
12.777656
12.672907
12.570257
12.469634
12.370968
12.274188
12.179223
12.086006
11.99447
11.904549
11.816182
11.729309
11.643875
18.348681
18.137531
17.929167
17.723692
17.521194
17.321748
17.125422
16.932269
16.742334
16.555651
16.372243
16.192138
16.015339
15.841861
15.671692
15.504824
15.341239
15.180923
15.023853
14.870003
14.719339
14.571826
14.427423
14.286087
14.14777
14.012422
13.879988
13.750412
13.623633
13.499592
13.378222
13.259455
13.143226
13.02949
12.918184
12.809214
12.702498
12.597962
12.495531
12.395132
12.296691
12.200135
12.105392
12.012392
11.921069
11.831359
11.7432
11.656535
19.206992
18.978846
18.753459
18.530971
18.311513
18.095206
17.882137
17.67238
17.465993
17.263028
17.063524
16.867512
16.675012
16.486035
16.300596
16.118686
15.940316
15.765458
15.594099
15.426209
15.261765
15.100741
14.9431
14.788802
14.637804
14.490059
14.34552
14.204131
14.065837
13.930579
13.798293
13.668916
13.542383
13.418625
13.297567
13.179144
13.063312
12.949993
12.83909
12.730521
12.62421
12.520078
12.418048
12.318044
12.219989
12.123809
12.029432
11.936788
11.845814
11.756446
11.668623
19.405349
19.168109
18.934043
18.703273
18.475911
18.252054
18.031772
17.815123
17.60215
17.392891
17.187368
16.985598
16.787591
16.593345
16.402861
16.216122
16.033128
15.85384
15.67824
15.506285
15.337947
15.173194
15.011979
14.854255
14.699973
14.54908
14.401523
14.257243
14.116176
13.978259
13.843425
13.711604
13.582727
13.456722
13.333512
13.213029
13.095229
12.980017
12.867297
12.756988
12.649009
12.543279
12.439718
12.338246
12.238784
12.141254
12.045582
11.951697
11.859534
11.769031
11.680124
19.592479
19.346601
19.104297
18.865672
18.630817
18.399807
18.172696
17.949525
17.730325
17.515114
17.303904
17.096698
16.893492
16.694274
16.499032
16.307743
16.12039
15.936932
15.757337
15.581554
15.40955
15.241291
15.076716
14.915772
14.758402
14.604552
14.45416
14.307163
14.163494
14.023082
13.885855
13.751741
13.620665
13.492551
13.367325
13.244914
13.125266
13.008279
12.893857
12.781917
12.672375
12.565147
12.460151
12.357304
12.256523
12.157729
12.060843
11.965792
11.872515
11.78095
11.691029
19.768505
19.514451
19.264355
19.018304
18.77637
18.538606
18.30505
18.075729
17.850656
17.629838
17.413271
17.200946
16.992847
16.788952
16.589236
16.393669
16.202221
16.014846
15.831497
15.652122
15.476676
15.305128
15.137403
14.973439
14.813177
14.656553
14.503504
14.353962
14.207856
14.065108
13.925642
13.789381
13.656247
13.526159
13.399047
13.274837
13.15346
13.034811
12.918797
12.805332
12.694329
12.585702
12.479365
12.375232
12.273219
12.173242
12.075219
11.979076
11.884754
11.792199
11.701333
19.933607
19.671839
19.414399
19.161352
18.912751
18.66863
18.429013
18.193908
17.963316
17.73723
17.515632
17.298502
17.085812
16.87753
16.673619
16.474041
16.278755
16.08771
15.900848
15.718108
15.539441
15.364817
15.194145
15.027358
14.864391
14.705175
14.549642
14.397722
14.249338
14.104408
13.962851
13.824587
13.689531
13.5576
13.428731
13.302843
13.179851
13.059652
12.942153
12.827265
12.714899
12.604967
12.49738
12.392049
12.288887
12.187807
12.088723
11.991556
11.896255
11.802782
11.711038
20.08801
19.818992
19.554651
19.295036
19.040177
18.790093
18.544791
18.304266
18.068503
17.837482
17.611175
17.389548
17.172563
16.960176
16.752344
16.549017
16.350145
16.155671
15.965528
15.779647
15.597974
15.420479
15.247056
15.077637
14.912149
14.750516
14.592668
14.438531
14.288025
14.141063
13.997558
13.857427
13.720584
13.586935
13.456432
13.328984
13.204487
13.082845
12.963964
12.847753
12.73412
12.622973
12.514223
12.407778
12.303548
12.201443
12.101372
12.003245
20.231981
19.956171
19.68537
19.419606
19.158893
18.903234
18.652619
18.407029
18.166437
17.930809
17.700105
17.474282
17.25329
17.037077
16.825589
16.618768
16.416555
16.218886
16.025688
15.836886
15.652417
15.472241
15.296259
15.124392
14.956563
14.792685
14.632683
14.476485
14.324007
14.175156
14.029841
13.887977
13.749475
13.614231
13.482214
13.353314
13.227421
13.104439
12.984276
12.866836
12.752027
12.639754
12.529925
12.422446
12.317226
12.214172
12.113189
20.365819
20.083669
19.80684
19.535341
19.269171
19.008315
18.75275
18.502443
18.257354
18.017438
17.782644
17.552918
17.3282
17.108429
16.893543
16.683475
16.478159
16.277522
16.081487
15.889975
15.702913
15.520248
15.341888
15.167748
14.997749
14.831793
14.669795
14.511686
14.357379
14.206779
14.059786
13.916315
13.77628
13.639559
13.506143
13.375895
13.248708
13.124486
13.003136
12.884559
12.768661
12.655346
12.544518
12.436084
12.329948
12.226019
12.124205
20.489852
20.201805
19.919369
19.64254
19.371298
19.105616
18.845454
18.590768
18.341506
18.097612
17.859024
17.625678
17.397507
17.174439
16.956403
16.743328
16.535137
16.331753
16.133092
15.939071
15.749611
15.564644
15.384083
15.207838
15.035829
14.867955
14.704114
14.544239
14.388241
14.236026
14.087482
13.942522
13.801068
13.663002
13.528286
13.39679
13.268408
13.143042
13.020596
12.90097
12.784067
12.66979
12.558041
12.448724
12.341745
12.237009
12.134428
20.604429
20.310914
20.023285
19.741518
19.46558
19.195428
18.931013
18.672276
18.419154
18.171582
17.929487
17.692796
17.461432
17.235319
17.014375
16.798522
16.587677
16.381757
16.180673
15.984337
15.792664
15.605577
15.422986
15.2448
15.070929
14.901288
14.735753
14.574253
14.416696
14.262993
14.11302
13.966688
13.823928
13.684625
13.548711
13.416066
13.286583
13.160164
13.036709
12.916117
12.79829
12.683127
12.57053
12.460402
12.352647
12.247169
12.143881
20.709913
20.41135
20.118925
19.832601
19.55233
19.278057
19.009718
18.747247
18.490568
18.239606
17.994279
17.754507
17.520205
17.291287
17.067666
16.849257
16.63597
16.427716
16.224403
16.025938
15.83223
15.643195
15.45874
15.27877
15.103192
14.931907
14.764829
14.601837
14.442846
14.287779
14.136495
13.988899
13.844945
13.704506
13.567491
13.43379
13.303297
13.175912
13.051531
12.930053
12.811377
12.695402
12.582027
12.471155
12.362687
12.256529
12.152592
20.806681
20.503474
20.206639
19.916125
19.631871
19.35381
19.081868
18.815965
18.55602
18.301945
18.053653
17.811053
17.574054
17.342563
17.116487
16.895733
16.680207
16.469814
16.264458
16.064041
15.868468
15.677649
15.491486
15.309883
15.132742
14.959961
14.791444
14.6271
14.466796
14.310481
14.157997
14.009249
13.864204
13.722719
13.584697
13.450031
13.318615
13.190345
13.065117
12.942829
12.823377
12.706659
12.592573
12.48102
12.371901
12.265121
12.160589
20.895116
20.587655
20.28678
19.992429
19.704529
19.423001
19.147761
18.87872
18.615786
18.358865
18.107861
17.862676
17.623212
17.389369
17.161049
16.938153
16.720582
16.508235
16.301012
16.098813
15.901537
15.709089
15.521368
15.338275
15.159708
14.985563
14.815739
14.650147
14.488651
14.331195
14.177618
14.027831
13.881784
13.739343
13.600404
13.464858
13.3326
13.203524
13.077525
12.954498
12.834338
12.716943
12.60221
12.490037
12.380324
12.272976
12.167902
22.635981
22.28999
21.950964
21.618905
21.293798
20.975608
20.664265
20.359705
20.061855
19.770631
19.485943
19.207698
18.935797
18.670141
18.410628
18.157155
17.909616
17.667907
17.431924
17.201563
16.976718
16.757285
16.543161
16.334241
16.13042
15.931596
15.737666
15.548529
15.364081
15.184218
15.008834
14.837824
14.671096
14.508522
14.350024
14.195452
14.044724
13.897768
13.754457
13.614684
13.47834
13.345318
13.21551
13.088811
12.965113
12.844311
12.726302
12.61098
12.498244
12.387993
12.280129
12.174562
22.729678
22.379069
22.035673
21.699478
21.370451
21.048541
20.733672
20.425769
20.124744
19.830503
19.542948
19.261977
18.987483
18.719359
18.457496
18.201783
17.952111
17.708369
17.470447
17.238235
17.011624
16.790506
16.574773
16.364315
16.159027
15.958799
15.763529
15.573109
15.387435
15.2064
15.029894
14.857812
14.690056
14.526505
14.367064
14.211595
14.060015
13.912236
13.768139
13.627612
13.490547
13.356833
13.226364
13.099031
12.974727
12.853345
12.734779
12.618926
12.505681
12.394943
12.286613
12.180599
22.814197
22.459415
22.11207
21.772136
21.439567
21.114299
20.796247
20.485323
20.181431
19.884467
19.594325
19.310893
19.034059
18.763709
18.499725
18.241993
17.990397
17.744821
17.505151
17.271271
17.043068
16.820431
16.603247
16.391404
16.184792
15.983301
15.786823
15.595248
15.40847
15.226378
15.048863
14.875816
14.707135
14.542702
14.382412
14.226137
14.073789
13.92527
13.780464
13.639259
13.501544
13.367209
13.236144
13.108241
12.983391
12.861487
12.742422
12.62609
12.512387
12.40121
12.292461
12.186046
22.890014
22.531481
22.180587
21.837295
21.501545
21.17326
20.85235
20.538714
20.232248
19.93284
19.640375
19.354736
19.075802
18.803453
18.537568
18.278025
18.024704
17.777483
17.536244
17.300869
17.07124
16.847241
16.628757
16.415672
16.207875
16.005251
15.80769
15.615081
15.427313
15.244275
15.065855
14.891944
14.722434
14.557211
14.396162
14.239166
14.086129
13.936948
13.791508
13.649695
13.511399
13.376507
13.244909
13.116496
12.991158
12.868786
12.749273
12.632513
12.5184
12.406831
12.297706
12.190931
22.957597
22.595714
22.241653
21.895363
21.556773
21.225798
20.902336
20.586281
20.277518
19.97593
19.681394
19.393787
19.112981
18.838851
18.57127
18.310113
18.055254
17.806568
17.563932
17.327224
17.096324
16.871112
16.65147
16.43728
16.228426
16.024794
15.826269
15.632738
15.444089
15.260209
15.080984
14.906303
14.736057
14.570129
14.408406
14.250768
14.097117
13.947347
13.801342
13.658989
13.520175
13.384788
13.252716
13.123849
12.998076
12.875289
12.755378
12.638236
12.523758
12.41184
12.302382
12.195286
23.017402
22.652552
22.295684
21.946738
21.605633
21.272274
20.946552
20.628354
20.317559
20.01404
19.717671
19.428321
19.145858
18.870152
18.601071
18.338485
18.082265
17.832283
17.588411
17.350525
17.1185
16.892215
16.671549
16.456381
16.246594
16.042069
15.842692
15.648347
15.458919
15.274294
15.094358
14.918997
14.748099
14.581549
14.41923
14.261025
14.106832
13.95654
13.810037
13.667206
13.527935
13.392111
13.25962
13.130352
13.004195
12.88104
12.760777
12.643299
12.528499
12.416273
12.306518
12.19914
23.069878
22.702421
22.343088
21.991809
21.648494
21.313042
20.985336
20.665257
20.352676
20.047463
19.749484
19.458604
19.174687
18.897598
18.627201
18.363362
18.105948
17.854828
17.609872
17.370952
17.137941
16.910716
16.689151
16.473126
16.26252
16.057214
15.857089
15.66203
15.471919
15.286642
15.106082
14.930125
14.758656
14.59156
14.428719
14.270017
14.115348
13.964601
13.81766
13.674411
13.53474
13.398532
13.265674
13.136055
13.009562
12.886084
12.765514
12.64774
12.532658
12.420161
12.310148
12.202522
23.115461
22.745737
22.384261
22.030953
21.685718
21.348445
21.019015
20.6973
20.383168
20.076482
19.777105
19.484896
19.199715
18.921424
18.649883
18.384956
18.126505
17.874397
17.6285
17.388682
17.154816
16.926773
16.704429
16.487659
16.276342
16.070357
15.869584
15.673905
15.483202
15.297359
15.116257
14.939782
14.767818
14.600249
14.436955
14.277822
14.12274
13.971597
13.824277
13.680665
13.540647
13.404106
13.27093
13.141006
13.014221
12.890464
12.769626
12.651597
12.53627
12.423538
12.313301
12.205459
23.154574
22.782903
22.419585
22.064536
21.717651
21.378816
21.047905
20.724786
20.409322
20.101372
19.800794
19.507444
19.22118
18.941857
18.669335
18.403473
18.144133
17.891178
17.644473
17.403885
17.169284
16.94054
16.717527
16.50012
16.288193
16.081626
15.880297
15.684086
15.492875
15.306546
15.124981
14.948062
14.775674