/*--------------------------------*- C++ -*----------------------------------*\
| =========                 |                                                 |
| \\      /  F ield         | OpenFOAM: The Open Source CFD Toolbox           |
|  \\    /   O peration     | Version:  2312                                  |
|   \\  /    A nd           | Website:  www.openfoam.com                      |
|    \\/     M anipulation  |                                                 |
\*---------------------------------------------------------------------------*/
FoamFile
{
    version     2.0;
    format      ascii;
    arch        "LSB;label=32;scalar=64";
    class       volScalarField;
    location    "0.06";
    object      Ma;
}
// * * * * * * * * * * * * * * * * * * * * * * * * * * * * * * * * * * * * * //

dimensions      [0 0 0 0 0 0 0];

internalField   nonuniform List<scalar> 
3272
(
0.002215799
0.002262802
0.0023094297
0.0023554781
0.0024008172
0.0024454068
0.0024892641
0.0025324019
0.0025747807
0.0026163017
0.0026568314
0.0026962323
0.002734383
0.0027711843
0.0028065585
0.0028404465
0.0028728065
0.0029036149
0.0029328709
0.0029605991
0.0029868356
0.0030116017
0.0030349236
0.0030568071
0.0030772223
0.0030961117
0.0031134267
0.0031291496
0.003143213
0.0031556741
0.0031665494
0.0031758424
0.0031835731
0.0031897618
0.0031944246
0.0031975733
0.0031992154
0.0031993535
0.0031979823
0.0031951079
0.0031907367
0.0031848805
0.0031775651
0.0031688319
0.0031587186
0.0031472685
0.0031345204
0.0031205035
0.0031052402
0.0030887453
0.0030710315
0.0030521259
0.0030321046
0.0012818764
0.0013274431
0.0013728252
0.0014178281
0.0014622896
0.0015061077
0.0015492358
0.0015916593
0.0016333609
0.0016742997
0.0017144085
0.0017536044
0.0017918
0.001828912
0.0018648648
0.0018995928
0.0019330386
0.0019651508
0.0019958951
0.0020252707
0.0020533121
0.0020799847
0.0021053119
0.0021293151
0.0021519941
0.0021733199
0.0021932599
0.0022117788
0.0022288754
0.0022444986
0.00225869
0.002271465
0.0022828387
0.0022928297
0.002301459
0.0023087446
0.0023147011
0.0023193468
0.0023226758
0.0023247079
0.0023254525
0.0023249247
0.0023231464
0.0023201521
0.0023159854
0.0023106865
0.0023042976
0.0022968592
0.0022884057
0.0022789674
0.002268566
0.0022572165
0.0022449451
0.0013016893
0.001329423
0.0013576701
0.0013862435
0.0014149703
0.0014437125
0.0014723677
0.0015008635
0.0015291402
0.0015571344
0.0015847712
0.0016119651
0.0016386257
0.0016646633
0.0016899935
0.0017145437
0.0017382483
0.0017610278
0.0017827986
0.0018035173
0.0018232978
0.0018420147
0.0018596433
0.0018762262
0.0018917475
0.0019061885
0.001919526
0.0019317252
0.0019427736
0.0019526424
0.0019613329
0.0019688524
0.0019752108
0.0019804205
0.001984506
0.001987481
0.0019893507
0.0019901608
0.0019898974
0.0019885623
0.0019861882
0.0019827874
0.0019783796
0.0019729927
0.0019666642
0.0019594351
0.0019513473
0.0019424438
0.0019327645
0.0019223433
0.0019112023
0.0018993423
0.0018867596
0.0015495448
0.001567406
0.0015855151
0.0016037609
0.001622035
0.0016402426
0.0016583031
0.0016761506
0.0016937295
0.0017109864
0.0017278655
0.0017443069
0.0017602476
0.0017756219
0.0017903662
0.0018044366
0.0018178086
0.0018304249
0.001842188
0.0018529433
0.0018629032
0.0018720675
0.0018801957
0.0018874066
0.0018937089
0.0018990773
0.001903497
0.0019069502
0.0019094249
0.0019109089
0.0019113977
0.001910897
0.001909419
0.001906968
0.0019035654
0.0018992511
0.0018940136
0.0018878778
0.0018808937
0.0018730399
0.0018643425
0.0018548253
0.0018445118
0.0018334297
0.0018216148
0.001809105
0.0017959439
0.0017821733
0.0017678359
0.0017529684
0.0017375931
0.0017217119
0.0017053173
0.0018557481
0.0018697921
0.0018837191
0.001897457
0.0019109316
0.0019240728
0.0019368149
0.0019490993
0.0019608748
0.0019720945
0.0019827143
0.0019926909
0.0020019815
0.0020105364
0.0020183043
0.0020252638
0.0020314365
0.0020367923
0.0020412255
0.0020446835
0.0020471628
0.0020487557
0.0020493764
0.0020490394
0.0020477519
0.0020455115
0.0020423168
0.002038166
0.0020330593
0.0020269984
0.0020199848
0.0020120261
0.0020031397
0.0019933461
0.0019826586
0.0019710951
0.0019587053
0.0019455018
0.0019315118
0.0019167516
0.0019012473
0.0018850267
0.0018681186
0.0018505556
0.0018323737
0.0018136138
0.0017943176
0.0017745305
0.0017542957
0.0017336526
0.0017126317
0.0016912434
0.0016694943
0.0021539854
0.002166952
0.0021795109
0.0021916059
0.0022031785
0.0022141704
0.0022245245
0.0022341879
0.002243113
0.002251257
0.0022585811
0.0022650501
0.0022706311
0.0022752904
0.0022789925
0.0022817184
0.0022835005
0.0022842763
0.0022840337
0.0022827222
0.0022803297
0.0022769062
0.0022724321
0.0022669078
0.0022603402
0.0022527369
0.0022441059
0.0022344559
0.0022237976
0.0022121432
0.0021995017
0.0021858828
0.0021713174
0.0021558286
0.0021394314
0.0021221399
0.0021040093
0.0020850765
0.0020653588
0.0020448839
0.0020236839
0.0020017915
0.0019792411
0.0019560691
0.0019323149
0.0019080199
0.0018832288
0.0018579862
0.0018323385
0.0018063282
0.0017799923
0.0017533572
0.0017264435
0.0024286323
0.0024414696
0.0024536764
0.0024652028
0.0024759977
0.0024860097
0.0024951884
0.0025034865
0.002510861
0.0025172736
0.0025226902
0.0025270812
0.0025304203
0.0025326819
0.0025338406
0.0025338853
0.002532836
0.0025306233
0.0025272778
0.0025227736
0.0025171025
0.0025102856
0.0025023208
0.002493213
0.0024829724
0.0024716113
0.0024591435
0.0024455839
0.0024309496
0.0024152594
0.0023985304
0.0023807765
0.0023620289
0.0023423177
0.0023216645
0.0023000859
0.0022776322
0.0022543437
0.0022302456
0.0022053715
0.0021797572
0.0021534395
0.0021264563
0.0020988472
0.0020706536
0.002041919
0.0020126882
0.0019830083
0.0019529254
0.0019224865
0.0018917334
0.0018607049
0.0018294344
0.0026803197
0.0026931604
0.0027051927
0.0027163696
0.0027266453
0.0027359739
0.0027443111
0.0027516158
0.0027578506
0.0027629823
0.0027669822
0.0027698261
0.0027714939
0.0027719657
0.0027712157
0.0027692738
0.0027661079
0.0027616544
0.0027559682
0.0027490493
0.0027409105
0.002731544
0.0027209514
0.0027091431
0.0026961328
0.0026819363
0.002666571
0.0026500558
0.0026324111
0.0026136599
0.0025938259
0.0025729282
0.0025509935
0.0025280543
0.0025041439
0.002479284
0.0024535155
0.0024268749
0.0023993963
0.0023711177
0.0023420772
0.0023123138
0.0022818675
0.00225078
0.0022190941
0.0021868539
0.0021541056
0.0021208957
0.0020872735
0.0020532861
0.0020189828
0.0019844047
0.0019495939
0.0029147114
0.002927354
0.0029390323
0.0029497034
0.0029593272
0.0029678642
0.0029752769
0.0029815313
0.0029865967
0.0029904461
0.0029930567
0.0029944094
0.0029944889
0.0029932802
0.002990768
0.0029870044
0.0029819339
0.0029755181
0.0029677561
0.0029587096
0.0029484053
0.0029368227
0.0029239627
0.0029098394
0.0028944693
0.0028778708
0.0028600638
0.0028410696
0.002820911
0.0027996133
0.0027772054
0.0027537101
0.0027291496
0.0027035557
0.0026769736
0.0026494342
0.002620966
0.0025915983
0.0025613717
0.0025303289
0.0024985091
0.0024659522
0.0024326995
0.0023987933
0.002364277
0.0023291951
0.0022935936
0.0022575196
0.0022210222
0.0021841538
0.0021469648
0.002109499
0.0020717931
0.0031372463
0.0031494087
0.0031604579
0.0031703573
0.0031790741
0.0031865766
0.0031928359
0.0031978258
0.0032015238
0.0032039105
0.0032049701
0.0032046908
0.0032030633
0.0032000744
0.003195717
0.0031900364
0.0031829793
0.0031745779
0.0031647836
0.0031536627
0.0031412307
0.0031274833
0.0031124307
0.0030960891
0.0030784772
0.003059615
0.0030395246
0.0030182291
0.002995753
0.0029721236
0.0029473728
0.0029215263
0.0028946025
0.0028666296
0.0028376624
0.0028077474
0.0027769032
0.0027451462
0.0027125191
0.0026790707
0.0026448419
0.0026098728
0.0025742047
0.0025378802
0.0025009423
0.0024634357
0.0024254052
0.0023868985
0.0023479645
0.0023086595
0.0022690413
0.0033515722
0.0033629948
0.0033731552
0.0033820253
0.0033895818
0.0033958022
0.003400667
0.0034041592
0.0034062652
0.0034069737
0.0034062772
0.003404172
0.0034006584
0.0033957249
0.0033894163
0.0033816365
0.0033724589
0.0033619395
0.0033500094
0.003336728
0.0033220977
0.0033061293
0.00328884
0.0032702491
0.0032503775
0.0032292478
0.003206884
0.0031833114
0.0031585563
0.0031326477
0.0031056199
0.0030774994
0.0030483042
0.0030180575
0.0029868159
0.0029546423
0.0029215579
0.0028875653
0.002852701
0.0028170209
0.0027805677
0.0027433813
0.0027055031
0.0026669752
0.0026278408
0.0025881436
0.002547929
0.0025072427
0.0024661359
0.0024246638
0.0023828857
0.0035596784
0.0035701418
0.0035791932
0.0035868154
0.0035929955
0.0035977215
0.003600984
0.003602776
0.0036030928
0.0036019324
0.0035992941
0.0035951793
0.003589596
0.0035825821
0.0035742497
0.0035641969
0.0035527298
0.0035399521
0.0035257831
0.0035102305
0.0034933062
0.003475031
0.0034554272
0.0034345175
0.0034123257
0.0033888768
0.0033641973
0.0033383142
0.003311256
0.0032830538
0.0032537422
0.0032233469
0.0031918929
0.0031594041
0.003125928
0.0030915319
0.003056236
0.003020058
0.0029830197
0.0029451802
0.0029065829
0.0028672675
0.0028272749
0.0027866475
0.0027454278
0.0027036599
0.0026613877
0.0026186585
0.002575521
0.002532032
0.0024882479
0.0037624815
0.0037717931
0.003779545
0.0037857319
0.0037903524
0.0037934059
0.0037948934
0.0037948179
0.0037931845
0.0037899997
0.0037852699
0.0037789901
0.0037711514
0.0037619051
0.0037515127
0.0037392792
0.0037252247
0.0037100773
0.0036935839
0.0036756687
0.0036563679
0.0036357104
0.0036137229
0.0035904316
0.0035658629
0.0035400445
0.0035130045
0.0034847724
0.0034553785
0.0034248564
0.0033932407
0.0033605543
0.0033268273
0.0032920924
0.0032563913
0.0032197824
0.0031822867
0.0031439353
0.0031047445
0.0030647731
0.0030240646
0.0029826583
0.002940595
0.0028979167
0.0028546663
0.0028108866
0.0027666225
0.0027219194
0.0026768272
0.0026313999
0.0025856937
0.0039603315
0.003968308
0.0039745827
0.0039791633
0.0039820602
0.0039832845
0.003982848
0.0039807639
0.003977047
0.0039717147
0.003964784
0.0039562445
0.0039461744
0.0039345718
0.0039215552
0.0039070491
0.0038908029
0.0038732133
0.0038542445
0.0038338783
0.0038121352
0.003789041
0.0037646229
0.0037389089
0.0037119274
0.003683708
0.0036542805
0.0036236762
0.0035919287
0.0035590725
0.0035251391
0.0034901561
0.0034541528
0.0034171678
0.0033792413
0.003340428
0.0033007462
0.0032602334
0.0032189047
0.0031768192
0.0031340204
0.0030905473
0.0030464404
0.0030017418
0.0029564935
0.0029107391
0.0028645219
0.002817888
0.0027708857
0.0027235689
0.0026759912
0.0041533249
0.0041597808
0.0041644023
0.0041672101
0.0041682272
0.0041674758
0.0041649789
0.0041607596
0.0041548426
0.0041472537
0.0041380171
0.0041271459
0.0041147207
0.0041006837
0.0040851888
0.0040681577
0.0040495648
0.0040295303
0.0040080823
0.0039852386
0.0039610244
0.0039354673
0.0039085966
0.0038804421
0.0038510344
0.0038204042
0.0037885826
0.0037556029
0.0037215028
0.0036863163
0.0036500709
0.0036127991
0.0035745311
0.0035353078
0.0034951685
0.0034541681
0.003412322
0.0033696703
0.0033262269
0.0032820517
0.0032371885
0.0031916761
0.0031455548
0.0030988662
0.0030516525
0.0030039563
0.0029558215
0.0029072929
0.002858419
0.0028092519
0.0027598442
0.0043414649
0.0043462075
0.0043489957
0.0043498636
0.0043488457
0.0043459759
0.0043412873
0.004334813
0.0043265866
0.0043166398
0.0043049982
0.0042917475
0.0042768259
0.0042603631
0.0042423447
0.0042227883
0.0042017279
0.0041792081
0.0041552655
0.0041299309
0.0041032342
0.0040752068
0.0040458798
0.0040152855
0.0039834561
0.0039504234
0.0039162188
0.0038808777
0.003844443
0.0038069461
0.0037684119
0.0037288735
0.0036883673
0.0036469331
0.0036046093
0.0035614529
0.0035174761
0.0034727203
0.003427197
0.0033809678
0.0033340767
0.0032865621
0.003238464
0.0031898239
0.0031406834
0.0030910852
0.0030410724
0.00299069
0.0029399856
0.002889011
0.002837816
0.0045247293
0.0045275588
0.0045283298
0.004527088
0.0045238803
0.0045187508
0.0045117427
0.0045028979
0.0044922564
0.0044798512
0.004465779
0.0044499834
0.0044325917
0.0044135964
0.0043930292
0.0043709435
0.0043473645
0.0043223311
0.0042958816
0.0042680503
0.0042388712
0.0042083778
0.004176604
0.0041435833
0.0041093498
0.0040739361
0.0040373742
0.0039997003
0.0039609607
0.0039211837
0.0038803953
0.0038386274
0.0037959217
0.0037523158
0.0037078488
0.0036625797
0.0036165174
0.003569703
0.0035221458
0.0034739089
0.0034250365
0.0033755667
0.0033255392
0.0032749949
0.0032239754
0.0031725226
0.0031206795
0.0030684908
0.0030160039
0.002963271
0.0029103384
0.004703093
0.0047038064
0.0047023734
0.0046988529
0.0046933011
0.0046857738
0.0046763223
0.0046649941
0.0046518304
0.0046369376
0.0046202662
0.0046019493
0.0045819847
0.0045604069
0.0045372813
0.00451264
0.0044865193
0.0044589591
0.0044299977
0.0043996722
0.0043680187
0.004335073
0.0043008701
0.0042654455
0.0042288333
0.0041910687
0.0041521861
0.0041122216
0.0040712156
0.0040291971
0.0039861952
0.0039422449
0.003897387
0.003851658
0.0038050976
0.0037577685
0.0037096742
0.0036608558
0.0036113184
0.0035611285
0.0035103296
0.0034589598
0.003407058
0.0033546651
0.0033018216
0.0032485695
0.0031949508
0.0031410099
0.0030867956
0.003032359
0.0029777442
0.004876533
0.0048749256
0.0048711052
0.0048651394
0.0048570936
0.0048470355
0.0048350203
0.0048210954
0.0048053748
0.0047878173
0.0047685676
0.0047476236
0.0047250319
0.0047008592
0.0046751451
0.0046479309
0.0046192574
0.0045891655
0.0045576949
0.0045248843
0.0044907715
0.0044553937
0.0044187873
0.0043809875
0.0043420294
0.0043019487
0.0042607884
0.0042185784
0.0041753511
0.00413114
0.0040859746
0.0040398941
0.0039929369
0.0039451382
0.0038965402
0.0038472096
0.0037971434
0.0037463802
0.0036949224
0.0036428395
0.0035901751
0.0035369659
0.0034832511
0.0034290704
0.0033744644
0.0033194736
0.0032641403
0.0032085085
0.0031526268
0.0030965493
0.005045023
0.0050408973
0.0050345094
0.0050259395
0.0050152567
0.0050025431
0.0049878428
0.0049712832
0.0049528198
0.0049326188
0.0049106741
0.0048870535
0.0048618197
0.0048350187
0.0048066975
0.0047769001
0.0047456702
0.0047130494
0.0046790789
0.0046437986
0.0046072478
0.0045694642
0.0045304852
0.0044903456
0.0044490786
0.004406719
0.0043633285
0.0043189258
0.0042735251
0.0042271739
0.0041799008
0.0041317473
0.0040827477
0.0040329361
0.0039823601
0.0039310911
0.0038791156
0.0038264701
0.0037731548
0.0037192429
0.003664777
0.0036097932
0.00355433
0.0034984266
0.0034421226
0.0033854587
0.0033284762
0.0032712197
0.0032137387
0.003156083
0.0052085349
0.0052017
0.0051925749
0.0051812478
0.00516779
0.0051523261
0.0051348743
0.0051154894
0.0050943108
0.005071335
0.0050466585
0.0050203394
0.0049924298
0.0049629808
0.0049320413
0.0048996579
0.0048658746
0.0048307349
0.0047942803
0.004756552
0.0047175897
0.0046774323
0.0046361175
0.0045936804
0.0045501484
0.0045055416
0.0044599708
0.0044134331
0.0043659172
0.0043174777
0.0042681561
0.0042179897
0.0041670082
0.0041152435
0.0040627531
0.0040096105
0.003955789
0.0039013231
0.0038462155
0.0037905412
0.0037343403
0.0036776486
0.0036205037
0.0035629442
0.0035050093
0.0034467385
0.0033881738
0.0033293599
0.0032703459
0.0032111784
0.0053670339
0.0053573167
0.0053452949
0.0053310625
0.0053147634
0.0052963884
0.0052760712
0.0052538644
0.0052298292
0.005204061
0.0051766226
0.0051475734
0.0051169682
0.0050848596
0.0050512993
0.0050163342
0.0049800088
0.0049423668
0.0049034509
0.0048633019
0.0048219606
0.0047794652
0.0047358564
0.0046911696
0.0046454262
0.0045986175
0.004550895
0.0045022886
0.0044527142
0.0044022457
0.0043509368
0.0042988195
0.0042459203
0.0041922671
0.0041379335
0.0040829713
0.0040273751
0.0039711471
0.0039143138
0.0038569448
0.0037990767
0.0037407446
0.0036819856
0.0036228375
0.0035633387
0.0035035284
0.0034434479
0.0033831421
0.0033226622
0.0032620482
0.0055204804
0.0055077258
0.0054926546
0.0054754526
0.0054561049
0.0054347982
0.005411523
0.00538639
0.0053594873
0.0053308898
0.0053006628
0.0052688659
0.005235555
0.0052007845
0.0051646094
0.0051270761
0.0050882271
0.005048107
0.0050067587
0.0049642224
0.0049205396
0.0048757461
0.004829884
0.0047829869
0.0047350816
0.0046861817
0.0046363593
0.0045856857
0.0045341103
0.004481684
0.0044284518
0.0043744463
0.0043196946
0.0042642241
0.004208112
0.0041514027
0.0040940901
0.0040361643
0.0039776715
0.0039186743
0.003859206
0.0037993009
0.0037389951
0.0036783258
0.0036173303
0.0035560474
0.003494518
0.0034327883
0.0033709082
0.005668822
0.0056529097
0.0056346844
0.0056143386
0.0055919242
0.0055675416
0.0055412657
0.0055131801
0.0054833727
0.0054519207
0.0054188897
0.0053843383
0.0053483221
0.0053108949
0.0052721213
0.0052320426
0.0051906961
0.0051481287
0.0051043843
0.0050595001
0.0050135191
0.0049664742
0.0049184054
0.0048693514
0.0048193403
0.0047683865
0.0047165458
0.0046638653
0.0046103449
0.0045560198
0.0045009257
0.0044450948
0.0043885553
0.0043313363
0.0042735163
0.0042151254
0.0041561591
0.0040966019
0.0040365157
0.0039759563
0.0039149543
0.0038535426
0.0037917567
0.0037296326
0.0036672072
0.0036045187
0.0035416082
0.0034785222
0.003415309
0.0058120643
0.0057928015
0.0057713559
0.0057477682
0.0057221873
0.0056946993
0.0056653789
0.005634309
0.005601576
0.0055672583
0.0055314212
0.0054941206
0.0054554107
0.0054153382
0.0053739907
0.0053314022
0.0052875915
0.0052426137
0.0051965155
0.005149331
0.0051010967
0.0050518529
0.005001635
0.0049504828
0.0048984137
0.0048454589
0.0047916588
0.004737047
0.004681645
0.0046254815
0.0045685883
0.0045109962
0.0044527342
0.0043938328
0.0043343716
0.004274365
0.0042138106
0.0041526902
0.0040910765
0.0040290204
0.0039665501
0.0039036975
0.003840497
0.0037769838
0.0037131936
0.0036491643
0.0035849377
0.0035205608
0.0034560773
0.0059500911
0.0059274281
0.0059026204
0.0058757592
0.0058469656
0.0058163318
0.005783937
0.0057498633
0.005714196
0.0056770142
0.0056383811
0.0055983482
0.0055569686
0.0055142756
0.0054703802
0.0054253242
0.005379093
0.0053317494
0.0052833445
0.0052339109
0.0051834796
0.005132092
0.0050797868
0.0050265868
0.0049725232
0.0049176268
0.0048619261
0.0048054543
0.0047482358
0.004690298
0.0046316703
0.0045723824
0.0045124633
0.0044519452
0.0043909083
0.0043293508
0.0042672747
0.0042046584
0.0041415835
0.0040780956
0.0040142218
0.003949993
0.0038854426
0.0038206042
0.0037555133
0.0036902065
0.0036247256
0.0035591195
0.0034934272
0.0060828744
0.0060567359
0.0060285216
0.0059983386
0.0059662996
0.0059324996
0.0058970179
0.0058599356
0.0058213385
0.005781307
0.0057398977
0.0056971549
0.0056531344
0.0056078843
0.0055614793
0.0055139765
0.0054653779
0.0054157253
0.0053650679
0.005313441
0.0052608725
0.0052074042
0.0051530628
0.0050978835
0.0050418915
0.0049851127
0.004927577
0.0048693121
0.0048103433
0.004750697
0.0046904008
0.004629483
0.0045679723
0.0045059039
0.0044433574
0.0043803131
0.0043167798
0.0042527339
0.0041882633
0.0041234084
0.0040581953
0.0039926541
0.003926817
0.0038607171
0.0037943878
0.0037278658
0.003661193
0.0035944179
0.0062104025
0.0061807307
0.0061490722
0.0061155395
0.0060802405
0.0060432693
0.0060047044
0.0059646236
0.0059231155
0.0058802631
0.0058361078
0.0057906905
0.0057440716
0.0056963054
0.0056474473
0.0055975514
0.0055466391
0.0054947328
0.0054418815
0.005388123
0.0053334848
0.0052779845
0.0052216855
0.0051645913
0.0051067337
0.0050481393
0.0049888341
0.0049288431
0.0048681912
0.0048069035
0.0047450057
0.0046825241
0.0046194867
0.0045559357
0.004491947
0.0044274789
0.0043625502
0.0042971399
0.0042313385
0.0041651806
0.0040986914
0.0040319007
0.0039648396
0.0038975397
0.0038300346
0.0037623594
0.0036945561
0.0036266729
0.006332651
0.0062994138
0.0062642935
0.0062274042
0.0061888481
0.0061487167
0.0061070869
0.0060640321
0.0060196439
0.0059740133
0.0059271552
0.0058791053
0.0058299395
0.0057797067
0.0057284518
0.0056762284
0.0056230628
0.0055689658
0.0055139846
0.0054581524
0.0054015087
0.0053440613
0.0052858616
0.0052269203
0.0051672659
0.0051069231
0.0050459155
0.0049842664
0.0049219993
0.0048591378
0.0047957057
0.0047317267
0.004667227
0.0046022627
0.0045368985
0.0044710701
0.0044048044
0.0043380942
0.0042710263
0.0042036283
0.0041359253
0.0040679466
0.0039997223
0.0039312836
0.0038626623
0.0037938938
0.0037250191
0.003656083
0.0064496101
0.0064127984
0.0063742185
0.0063339841
0.0062921914
0.0062489269
0.0062042649
0.0061582731
0.0061110479
0.0060626904
0.0060131835
0.0059625518
0.0059108981
0.0058582603
0.0058046722
0.0057501905
0.0056948257
0.0056386144
0.0055815634
0.0055237402
0.0054651578
0.0054058302
0.0053457987
0.0052850801
0.0052236982
0.0051616759
0.0050990346
0.0050357961
0.0049719821
0.0049076145
0.0048427155
0.0047773062
0.00471141
0.004645105
0.0045784145
0.004511302
0.0044437551
0.0043758094
0.0043075372
0.0042389605
0.0041701046
0.004100998
0.0040316703
0.0039621513
0.0038924726
0.0038226679
0.0037527775
0.003682844
0.0065612811
0.0065209087
0.0064788915
0.0064353417
0.0063903479
0.0063439922
0.0062963455
0.0062474701
0.0061974661
0.0061464222
0.0060943329
0.0060411872
0.0059871131
0.0059321372
0.0058762873
0.0058196062
0.0057621279
0.0057038642
0.005644829
0.0055850777
0.0055246262
0.0054634901
0.0054017
0.005339275
0.0052762363
0.0052126045
0.0051483992
0.0050836403
0.0050183478
0.0049525416
0.0048862422
0.0048194691
0.0047522457
0.0046846589
0.0046167127
0.004548374
0.0044796098
0.0044104913
0.0043410743
0.0042713785
0.0042014288
0.0041312532
0.00406088
0.0039903383
0.0039196581
0.0038488732
0.0037780217
0.003707144
0.006667669
0.0066237806
0.0065783721
0.0065315528
0.0064834065
0.0064340135
0.0063834411
0.0063317511
0.0062790236
0.0062253574
0.0061707473
0.0061151779
0.0060587552
0.0060015116
0.005943473
0.005884674
0.0058251465
0.0057649039
0.0057039615
0.005642358
0.0055801115
0.0055172388
0.0054537637
0.0053897046
0.0053250807
0.0052599102
0.0051942109
0.0051280009
0.0050612981
0.0049941207
0.004926487
0.0048584154
0.0047899339
0.0047211324
0.0046519893
0.0045824801
0.0045125639
0.0044423335
0.0043718308
0.0043010744
0.004230089
0.0041589015
0.0040875393
0.0040160303
0.0039444042
0.0038726925
0.0038009327
0.003729164
0.0067688291
0.0067214646
0.006672736
0.0066227055
0.0065714671
0.0065191026
0.0064656731
0.0064112427
0.0063558773
0.0062996523
0.0062425862
0.0061846734
0.0061259844
0.0060665531
0.006006404
0.0059455665
0.0058840679
0.0058219238
0.0057591492
0.0056957705
0.0056318052
0.0055672698
0.0055021835
0.0054365634
0.0053704262
0.0053037881
0.005236665
0.0051690729
0.005101028
0.0050325464
0.004963644
0.0048943376
0.0048246664
0.0047547173
0.0046844349
0.0046138091
0.0045428044
0.0044715217
0.0043999914
0.0043282318
0.0042562672
0.0041841235
0.004111827
0.0040394051
0.0039668858
0.0038943003
0.0038216841
0.0037490746
0.0068648023
0.0068140286
0.0067620629
0.0067088943
0.0066546375
0.0065993802
0.0065431697
0.0064860787
0.0064281611
0.0063694619
0.0063100204
0.00624984
0.0061889679
0.0061274329
0.0060652552
0.0060024608
0.0059390725
0.0058751075
0.005810578
0.0057455019
0.0056798947
0.0056137714
0.0055471482
0.0054800402
0.0054124619
0.0053444272
0.00527595
0.0052070446
0.0051377251
0.0050680058
0.0049978999
0.0049274211
0.0048566282
0.0047855946
0.0047142317
0.0046425412
0.0045705099
0.0044982334
0.0044257323
0.0043530254
0.0042801365
0.0042070906
0.0041339132
0.0040606306
0.0039872704
0.0039138616
0.0038404387
0.0037670385
0.0069556899
0.0069015798
0.0068464497
0.0067902247
0.0067330358
0.006674977
0.0066160651
0.0065564008
0.0064960242
0.0064349386
0.0063732116
0.0063108458
0.0062478755
0.0061843234
0.0061202014
0.0060555336
0.0059903385
0.0059246352
0.0058584305
0.0057917353
0.0057245631
0.0056569272
0.0055888412
0.0055203183
0.0054513706
0.0053820099
0.0053122478
0.0052420969
0.0051715695
0.0051006781
0.0050294336
0.0049578453
0.0048860022
0.0048139265
0.0047415538
0.0046688489
0.0045958519
0.0045226379
0.0044492212
0.0043756212
0.0043018613
0.0042279655
0.0041539586
0.0040798663
0.0040057148
0.0039315325
0.003857352
0.0037832079
0.0070416744
0.0069842713
0.0069260027
0.0068668115
0.0068067896
0.0067460384
0.006684498
0.0066223557
0.0065596237
0.0064962383
0.0064323211
0.0063678577
0.0063028769
0.0062373965
0.0061714156
0.0061049597
0.0060380415
0.0059706836
0.0059028852
0.0058346493
0.005765989
0.0056969154
0.0056274404
0.005557575
0.0054873292
0.0054167121
0.0053457335
0.0052744038
0.005202734
0.0051307346
0.0050584144
0.004985782
0.0049129446
0.0048398913
0.0047665594
0.0046928989
0.0046189942
0.0045448961
0.0044706169
0.0043961763
0.004321597
0.0042469019
0.0041721152
0.004097262
0.0040223683
0.0039474601
0.0038725683
0.0037977272
0.0071227362
0.0070621538
0.0070008417
0.0069387801
0.0068760271
0.0068126475
0.0067486552
0.0066841312
0.0066191258
0.0065535193
0.0064875128
0.0064210418
0.0063541395
0.0062868224
0.0062190688
0.0061509114
0.0060823535
0.0060134266
0.0059441169
0.0058744183
0.0058043458
0.005733909
0.0056631177
0.0055919815
0.0055205079
0.0054487034
0.0053765752
0.0053041324
0.0052313842
0.0051583393
0.0050850052
0.0050113943
0.004937624
0.0048636452
0.0047894002
0.0047148464
0.0046400891
0.0045651594
0.0044900697
0.0044148395
0.0043394904
0.0042640447
0.0041885261
0.0041129595
0.0040373698
0.0039617821
0.0038862252
0.0038107302
0.0073858467
0.0073243766
0.007262058
0.007198972
0.0071353294
0.0070710959
0.0070062717
0.0069408949
0.0068750104
0.0068086461
0.006741844
0.0066746341
0.0066069804
0.0065389945
0.0064705663
0.0064018289
0.0063327673
0.0062633288
0.0061935579
0.0061234431
0.0060530335
0.0059822958
0.0059112115
0.005839802
0.0057680752
0.0056960391
0.0056237026
0.0055510705
0.0054781461
0.0054049342
0.0053314422
0.0052576783
0.0051836486
0.0051093613
0.0050348389
0.0049601914
0.0048853379
0.0048102243
0.0047348377
0.004659281
0.0045835712
0.0045077212
0.0044317506
0.0043556797
0.0042795304
0.0042033259
0.0041270908
0.0040508507
0.0039746282
0.0038984489
0.0038223438
0.0074671043
0.0074021883
0.0073366325
0.0072705039
0.0072039284
0.0071369019
0.0070694315
0.0070015433
0.0069332684
0.0068646313
0.0067956565
0.0067263627
0.0066567411
0.0065868397
0.0065166209
0.0064461729
0.006375394
0.0063043608
0.0062330628
0.0061614738
0.0060896692
0.0060175876
0.0059451928
0.0058725202
0.0057995755
0.0057263646
0.0056528965
0.0055791739
0.0055051961
0.0054309646
0.0053564856
0.0052817665
0.0052068101
0.0051316321
0.0050562706
0.0049807789
0.0049051114
0.0048291731
0.0047530122
0.004676707
0.0046002664
0.0045237049
0.0044470411
0.0043702948
0.0042934868
0.0042166402
0.0041397804
0.0040629325
0.0039861179
0.0039093594
0.0038326838
0.0075434143
0.0074751952
0.00740653
0.0073374706
0.0072680932
0.0071984032
0.0071284084
0.0070581257
0.0069875748
0.0069167723
0.0068457322
0.0067744651
0.0067029691
0.0066312659
0.0065593418
0.0064872343
0.006414899
0.0063423724
0.0062695828
0.0061966056
0.0061234918
0.0060501515
0.0059765198
0.0059026568
0.0058285655
0.0057542478
0.005679715
0.005604968
0.0055300016
0.0054548131
0.0053794074
0.0053037917
0.0052279624
0.0051519574
0.0050758157
0.0049995339
0.0049230923
0.0048463835
0.0047695019
0.0046924957
0.004615372
0.0045381456
0.0044608343
0.0043834568
0.0043060334
0.0042285868
0.0041511431
0.0040737292
0.0039963635
0.0039190647
0.003841859
0.0076148952
0.0075435199
0.0074718817
0.0074000173
0.0073279712
0.0072557489
0.0071833549
0.0071107973
0.0070380862
0.0069652296
0.0068922332
0.0068191005
0.006745829
0.0066724273
0.0065988876
0.0065252243
0.0064514113
0.0063774449
0.0063033252
0.0062290079
0.0061546509
0.0060801368
0.0060053427
0.0059303624
0.005855195
0.005779836
0.0057043026
0.0056285953
0.0055527036
0.0054766191
0.0054003453
0.0053238905
0.0052472368
0.0051704683
0.0050936091
0.0050165803
0.0049394019
0.0048619806
0.0047844276
0.0047067669
0.0046290059
0.0045511595
0.0044732445
0.0043952786
0.0043172812
0.0042392749
0.0041612871
0.0040833452
0.0040054663
0.0039276668
0.0038499673
0.0076816767
0.0076072964
0.0075328277
0.0074582928
0.0073837139
0.007309092
0.0072344257
0.0071597149
0.0070849604
0.0070101625
0.006935319
0.0068604271
0.006785481
0.0067104802
0.0066354165
0.0065602912
0.0064850832
0.0064097748
0.0063343592
0.0062588556
0.006183321
0.0061076766
0.0060318039
0.0059557804
0.0058796084
0.0058032707
0.0057267968
0.0056501906
0.0055734352
0.0054965141
0.0054194287
0.0053421929
0.0052647585
0.0051872863
0.0051097674
0.0050320353
0.0049541572
0.0048760807
0.0047979023
0.0047196319
0.0046412778
0.0045628545
0.0044843778
0.0044058646
0.0043273334
0.0042488062
0.0041703113
0.0040918791
0.0040135217
0.0039352557
0.0038570987
0.0077438976
0.0076666672
0.007589515
0.0075124493
0.0074354756
0.0073585876
0.0072817767
0.0072050348
0.0071283544
0.0070517278
0.0069751462
0.0068986004
0.00682208
0.0067455775
0.0066690818
0.0065925852
0.0065160665
0.0064395025
0.0063628814
0.0062862207
0.0062096237
0.0061329526
0.0060560254
0.0059790486
0.0059019441
0.0058246878
0.0057473284
0.0056698805
0.0055923215
0.0055146211
0.0054367784
0.0053588208
0.0052806476
0.0052025296
0.0051243871
0.0050460096
0.0049674696
0.0048887911
0.004810031
0.0047311936
0.0046522887
0.0045733298
0.0044943318
0.0044153108
0.0043362846
0.0042572746
0.0041783111
0.0040994214
0.0078017043
0.0077217811
0.0076420952
0.0075626414
0.0074834116
0.007404391
0.0073255632
0.0072469122
0.0071684228
0.0070900797
0.0070118677
0.0069337716
0.006855776
0.0067778675
0.0067000308
0.0066222517
0.0065445073
0.0064667721
0.0063890308
0.006311297
0.0062336708
0.0061560064
0.0060781795
0.0060002827
0.0059223325
0.005844217
0.0057660208
0.0056877833
0.0056094789
0.0055310553
0.0054525039
0.0053738829
0.0052950256
0.005216292
0.0051375833
0.0050585917
0.0049794448
0.0049002102
0.0048209098
0.0047415468
0.0046621313
0.0045826762
0.0045031956
0.0044237049
0.0043442216
0.004264767
0.0041853715
0.0078552485
0.0077727911
0.0076907225
0.0076090247
0.0075276774
0.0074466571
0.0073659392
0.0072855002
0.0072053172
0.0071253684
0.007045632
0.0069660873
0.0068867138
0.0068074928
0.0067284045
0.0066494297
0.0065705433
0.0064917187
0.0064129386
0.0063342068
0.0062556024
0.0061770061
0.0060983093
0.0060196274
0.0059408767
0.0058619834
0.0057829924
0.0057040085
0.0056250166
0.0055459236
0.0054667018
0.0053874738
0.0053080215
0.0052286813
0.0051494386
0.0050698678
0.0049901761
0.004910428
0.0048306273
0.0047507782
0.0046708908
0.0045909772
0.004511051
0.0044311271
0.0043512228
0.0042713601