/*--------------------------------*- C++ -*----------------------------------*\
| =========                 |                                                 |
| \\      /  F ield         | OpenFOAM: The Open Source CFD Toolbox           |
|  \\    /   O peration     | Version:  2312                                  |
|   \\  /    A nd           | Website:  www.openfoam.com                      |
|    \\/     M anipulation  |                                                 |
\*---------------------------------------------------------------------------*/
FoamFile
{
    version     2.0;
    format      ascii;
    arch        "LSB;label=32;scalar=64";
    class       volScalarField;
    location    "0.06";
    object      nut;
}
// * * * * * * * * * * * * * * * * * * * * * * * * * * * * * * * * * * * * * //

dimensions      [0 2 -1 0 0 0 0];

internalField   nonuniform List<scalar> 
3272
(
0.029219184
0.029255148
0.029294432
0.029337055
0.02938305
0.029432374
0.029484936
0.029540667
0.029599571
0.029661725
0.02972725
0.02979626
0.029868843
0.029945049
0.030024899
0.030108391
0.030195507
0.030286211
0.030380453
0.030478172
0.030579315
0.030683849
0.03079178
0.030903162
0.031018083
0.031136654
0.031258968
0.031385067
0.031514999
0.031648725
0.031786234
0.031927509
0.03207256
0.032221394
0.032374071
0.03253066
0.03269125
0.032855934
0.033024806
0.03319795
0.033375434
0.033557308
0.033743603
0.033934334
0.034129504
0.034329129
0.034533244
0.034741899
0.034955164
0.035173124
0.035395875
0.035623516
0.035856138
0.029393473
0.029433228
0.029475962
0.029521695
0.029570468
0.029622269
0.029677055
0.029734795
0.029795505
0.029859252
0.029926131
0.029996234
0.030069633
0.030146378
0.030226495
0.030309997
0.030396882
0.030487138
0.030580738
0.030677645
0.030777822
0.03088126
0.030987967
0.031097992
0.031211415
0.031328327
0.031448816
0.031572932
0.031700711
0.031832152
0.031967256
0.032106004
0.032248418
0.032394528
0.032544385
0.03269806
0.032855634
0.033017199
0.033182844
0.03335265
0.033526686
0.033705001
0.033887629
0.034074595
0.034265935
0.03446168
0.03466187
0.034866561
0.035075818
0.035289716
0.035508338
0.035731773
0.035960216
0.029552787
0.029599889
0.029649372
0.029701285
0.02975569
0.029812619
0.029872086
0.029934106
0.029998717
0.030065979
0.030135968
0.030208759
0.030284414
0.030362982
0.030444504
0.030529006
0.030616513
0.030707038
0.030800587
0.030897148
0.030996706
0.031099293
0.031204913
0.031313614
0.031425467
0.031540549
0.031658935
0.031780685
0.031905839
0.032034416
0.032166438
0.032301922
0.032440897
0.032583407
0.032729508
0.03287927
0.033032772
0.033190103
0.033351355
0.033516606
0.033685935
0.033859406
0.034037072
0.034218977
0.034405165
0.034595679
0.034790571
0.034989901
0.035193736
0.035402152
0.035615228
0.035833056
0.036055841
0.029678491
0.02973649
0.029796176
0.029857633
0.029920939
0.029986162
0.030053354
0.030122567
0.030193856
0.030267284
0.03034292
0.030420829
0.03050107
0.030583698
0.03066876
0.030756298
0.030846352
0.030938967
0.031034173
0.031131996
0.031232424
0.031335536
0.031441331
0.031549868
0.031661214
0.031775442
0.031892617
0.032012792
0.032136028
0.032262367
0.032391849
0.032524515
0.032660411
0.032799592
0.032942121
0.033088072
0.033237528
0.033390568
0.03354729
0.033707778
0.033872115
0.034040377
0.034212632
0.034388944
0.034569373
0.034753982
0.034942836
0.035136002
0.035333552
0.035535564
0.035742117
0.035953298
0.036169312
0.029725242
0.029795391
0.029866679
0.029939205
0.03001305
0.030088289
0.030164986
0.030243204
0.030323006
0.030404454
0.03048761
0.030572534
0.030659285
0.030747917
0.030838484
0.030931032
0.031025604
0.031122275
0.031221085
0.031322072
0.031425276
0.03153074
0.031638512
0.031748648
0.03186122
0.031976288
0.032093901
0.032214138
0.032337059
0.032462722
0.032591183
0.032722498
0.032856728
0.032993939
0.033134203
0.033277596
0.033424199
0.033574098
0.033727382
0.033884139
0.034044457
0.034208422
0.034376113
0.034547608
0.034722977
0.034902297
0.03508565
0.035273121
0.035464796
0.035660761
0.035861109
0.03606595
0.036275459
0.029701638
0.029782633
0.029864437
0.029947142
0.030030818
0.030115527
0.030201331
0.030288287
0.030376453
0.030465885
0.03055664
0.030648773
0.030742337
0.030837387
0.030933974
0.03103215
0.031131965
0.031233484
0.031336753
0.031441834
0.031548771
0.031657619
0.031768431
0.031881271
0.031996218
0.032113288
0.032232571
0.032354133
0.032478039
0.032604351
0.032733135
0.032864455
0.032998379
0.033134983
0.033274341
0.033416532
0.033561636
0.033709742
0.033860933
0.034015295
0.034172921
0.034333912
0.034498359
0.034666353
0.034837985
0.035013343
0.035192503
0.035375551
0.035562575
0.035753666
0.035948912
0.036148409
0.036352327
0.029641252
0.029730614
0.029820597
0.029911272
0.030002693
0.03009491
0.030187975
0.030281938
0.030376849
0.03047276
0.030569722
0.030667785
0.030767003
0.030867426
0.030969108
0.0310721
0.031176451
0.031282222
0.031389464
0.031498241
0.031608607
0.031720624
0.031834349
0.03194986
0.032067173
0.032186373
0.032307525
0.032430691
0.032555939
0.032683333
0.032812941
0.032944833
0.033079077
0.033215748
0.033354921
0.033496671
0.033641075
0.033788228
0.033938225
0.03409116
0.034247126
0.034406207
0.034568491
0.034734067
0.034903026
0.035075455
0.035251453
0.035431113
0.035614529
0.035801793
0.035992999
0.036188244
0.036387681
0.029574201
0.0296696
0.029765462
0.029861842
0.029958781
0.030056324
0.030154516
0.030253403
0.030353033
0.030453457
0.030554723
0.030656885
0.030759995
0.030864108
0.030969277
0.031075554
0.031182994
0.031291658
0.031401595
0.031512866
0.031625539
0.031739711
0.031855373
0.031972626
0.032091523
0.032212126
0.032334497
0.032458703
0.032584807
0.032712876
0.032842978
0.032975184
0.033109563
0.033246188
0.033385133
0.033526476
0.033670296
0.033816673
0.033965691
0.034117439
0.034272006
0.0344295
0.034589997
0.034753586
0.034920366
0.035090429
0.03526387
0.035440785
0.035621271
0.035805422
0.035993334
0.036185103
0.03638086
0.029517483
0.02961722
0.029717237
0.029817576
0.029918275
0.030019379
0.030120933
0.030222985
0.030325586
0.030428789
0.03053265
0.030637223
0.030742568
0.030848743
0.030955805
0.031063814
0.031172829
0.031282925
0.031394156
0.031506568
0.031620235
0.03173524
0.031851636
0.031969486
0.032088855
0.032209805
0.0323324
0.032456706
0.032582788
0.032710713
0.03284055
0.032972369
0.033106241
0.033242235
0.033380424
0.033520886
0.033663702
0.033808947
0.033956701
0.034107049
0.03426007
0.034415824
0.034574433
0.034736017
0.034900661
0.035068442
0.035239458
0.035413805
0.035591581
0.035772881
0.035957801
0.036146438
0.036338901
0.029477287
0.029580213
0.029683196
0.029786273
0.029889489
0.02999289
0.030096526
0.030200454
0.03030473
0.030409415
0.030514572
0.030620264
0.030726561
0.030833525
0.030941213
0.031049721
0.031159093
0.031269393
0.031380701
0.031493085
0.031606619
0.031721373
0.031837416
0.031954813
0.032073633
0.032193942
0.032315806
0.032439294
0.032564472
0.032691409
0.032820175
0.032950839
0.033083475
0.033218148
0.033354931
0.0334939
0.03363514
0.033778722
0.033924722
0.034073221
0.0342243
0.034378051
0.034534551
0.034693865
0.034856097
0.035021384
0.035189831
0.035361511
0.035536512
0.035714935
0.035896874
0.02945426
0.029559513
0.029664574
0.029769485
0.029874295
0.02997906
0.030083838
0.030188695
0.030293695
0.030398912
0.03050442
0.030610275
0.030716592
0.030823427
0.030930821
0.031038883
0.031147687
0.03125731
0.031367827
0.03147932
0.031591864
0.031705535
0.031820407
0.031936551
0.032054041
0.032172947
0.032293339
0.032415288
0.032538865
0.032664139
0.03279118
0.032920063
0.033050858
0.033183634
0.033318458
0.033455404
0.033594565
0.03373601
0.03387981
0.034026043
0.034174791
0.034326138
0.03448017
0.034636977
0.034796644
0.034959246
0.03512487
0.035293659
0.03546573
0.035641154
0.035820016
0.029447418
0.02955421
0.029660555
0.029766503
0.029872112
0.029977448
0.030082578
0.030187587
0.030292534
0.030397514
0.030502651
0.030607932
0.030713511
0.030819464
0.030925869
0.03103282
0.031140385
0.031248665
0.031357747
0.031467716
0.031578652
0.031690638
0.031803752
0.031918073
0.032033678
0.032150642
0.03226904
0.032388944
0.032510429
0.032633565
0.032758427
0.032885087
0.033013618
0.033144089
0.033276569
0.033411131
0.033547861
0.033686834
0.033828118
0.03397179
0.034117929
0.034266619
0.034417944
0.03457199
0.034728846
0.034888606
0.035051359
0.035217181
0.035386168
0.035558469
0.035734178
0.029456005
0.029563507
0.029670315
0.02977649
0.029882101
0.029987236
0.030091941
0.030196392
0.030300574
0.030404612
0.030508626
0.030612691
0.030716909
0.030821368
0.030926158
0.031031455
0.03113722
0.03124362
0.03135075
0.031458696
0.031567546
0.031677387
0.031788304
0.03190038
0.032013696
0.032128332
0.032244365
0.032361873
0.032480929
0.032601609
0.032723987
0.032848138
0.032974132
0.03310204
0.033231934
0.033363886
0.033497976
0.033634281
0.033772868
0.033913813
0.034057193
0.03420309
0.034351586
0.034502766
0.034656717
0.034813531
0.034973299
0.035136118
0.035302079
0.035471259
0.035643781
0.029479941
0.029587244
0.029693628
0.029799167
0.029903921
0.030008094
0.030111595
0.030214645
0.03031732
0.030419724
0.030521968
0.030624158
0.030726394
0.030828776
0.030931415
0.031034433
0.03113791
0.031241955
0.031346671
0.031452156
0.031558505
0.031665809
0.031774159
0.031883641
0.031994342
0.032106343
0.032219726
0.032334569
0.032450948
0.032568942
0.032688623
0.032810068
0.032933346
0.033058529
0.033185689
0.033314896
0.033446231
0.033579767
0.03371557
0.033853715
0.033994277
0.034137336
0.034282971
0.034431267
0.034582308
0.034736184
0.034892985
0.035052806
0.035215743
0.035381899
0.035551359
0.029519615
0.029625742
0.029730755
0.029834789
0.029937811
0.030040036
0.030141536
0.030242434
0.030342844
0.030442883
0.030542667
0.030642316
0.030741938
0.030841648
0.030941562
0.031041798
0.031142465
0.031243673
0.031345526
0.031448128
0.031551579
0.031655976
0.031761413
0.031867981
0.031975769
0.03208486
0.032195339
0.032307285
0.032420776
0.03253589
0.032652703
0.032771288
0.032891715
0.033014055
0.033138378
0.033264756
0.033393265
0.03352398
0.033656963
0.033792284
0.03393002
0.034070246
0.03421304
0.034358484
0.034506661
0.034657657
0.034811561
0.034968467
0.035128471
0.035291673
0.035458181
0.029575523
0.02967952
0.029782154
0.029883633
0.029984036
0.030083498
0.030182138
0.030280083
0.03037746
0.030474398
0.030571025
0.030667465
0.030763841
0.030860278
0.030956898
0.031053826
0.031151179
0.031249072
0.031347615
0.031446916
0.031547079
0.031648205
0.031750391
0.031853731
0.031958315
0.03206423
0.032171561
0.032280387
0.032390789
0.032502844
0.032616628
0.032732211
0.032849663
0.032969055
0.033090455
0.033213933
0.033339564
0.03346742
0.03359756
0.033730054
0.033864972
0.034002389
0.034142379
0.034285023
0.034430399
0.034578593
0.034729691
0.034883785
0.035040968
0.035201341
0.035365015
0.029647962
0.029748716
0.029848041
0.029946073
0.030042941
0.030138781
0.030233732
0.030327932
0.030421521
0.030514639
0.03060742
0.0307
0.030792514
0.030885091
0.030977865
0.031070965
0.031164512
0.031258626
0.031353423
0.031449014
0.031545507
0.031643005
0.031741607
0.03184141
0.031942506
0.032044983
0.032148925
0.032254413
0.032361525
0.032470343
0.032580937
0.032693378
0.032807733
0.032924071
0.03304246
0.033162967
0.033285665
0.033410624
0.033537899
0.033667556
0.033799664
0.033934293
0.034071517
0.034211409
0.034354048
0.034499515
0.034647895
0.034799276
0.03495375
0.035111416
0.035272388
0.029736779
0.029833357
0.029928419
0.030022109
0.030114575
0.030205969
0.030296441
0.030386144
0.030475229
0.030563841
0.030652127
0.030740234
0.030828299
0.030916467
0.031004873
0.03109365
0.031182925
0.031272822
0.03136346
0.031454954
0.031547413
0.031640943
0.031735645
0.031831617
0.031928951
0.032027736
0.032128057
0.032229994
0.032333626
0.03243903
0.032546276
0.032655433
0.032766567
0.032879744
0.032995029
0.033112489
0.033232194
0.033354211
0.03347859
0.033605395
0.03373469
0.033866543
0.034001023
0.034138202
0.034278155
0.034420959
0.034566696
0.03471545
0.034867312
0.035022378
0.035180761
0.029841469
0.029932957
0.030022875
0.030111383
0.030198646
0.030284828
0.030370094
0.030454608
0.030538525
0.030622005
0.030705204
0.030788272
0.03087136
0.030954615
0.031038176
0.03112218
0.031206759
0.031292038
0.031378141
0.031465183
0.031553276
0.031642528
0.03173304
0.031824909
0.031918229
0.032013089
0.032109572
0.03220776
0.032307729
0.032409554
0.032513301
0.032619039
0.032726832
0.032836743
0.032948834
0.033063167
0.033179816
0.03329884
0.033420287
0.033544215
0.033670687
0.033799764
0.033931514
0.034066005
0.034203308
0.034343496
0.034486649
0.034632848
0.034782179
0.034934731
0.02996109
0.030046647
0.030130619
0.030213182
0.030294518
0.030374801
0.030454209
0.03053291
0.030611073
0.030688866
0.03076645
0.030843985
0.030921626
0.030999523
0.03107782
0.031156656
0.031236166
0.031316477
0.031397714
0.031479995
0.031563431
0.031648131
0.031734197
0.031821726
0.031910811
0.032001539
0.032093993
0.032188256
0.0322844
0.032382496
0.03248261
0.032584807
0.03268915
0.032795697
0.032904507
0.033015641
0.033129171
0.033245154
0.03336363
0.033484654
0.033608284
0.03373458
0.033863605
0.033995422
0.034130099
0.034267708
0.034408323
0.034552023
0.034698894
0.034849035
0.03009435
0.030173225
0.030250539
0.030326485
0.030401257
0.03047504
0.030548017
0.03062037
0.030692274
0.030763901
0.030835422
0.030907
0.030978795
0.031050957
0.031123635
0.031196969
0.031271095
0.031346144
0.031422238
0.031499497
0.031578033
0.031657954
0.03173936
0.03182235
0.031907014
0.031993439
0.032081703
0.032171892
0.032264075
0.032358317
0.032454683
0.032553237
0.032654036
0.032757137
0.032862593
0.032970465
0.033080824
0.03319372
0.03330919
0.033427284
0.033548057
0.033671564
0.033797864
0.033927017
0.034059088
0.034194143
0.034332255
0.034473499
0.03461796
0.034765738
0.030239702
0.030311242
0.030381286
0.030450037
0.030517698
0.030584467
0.030650539
0.030716092
0.030781313
0.030846381
0.030911468
0.030976742
0.031042362
0.031108484
0.031175254
0.031242817
0.031311308
0.031380857
0.031451588
0.031523619
0.031597062
0.031672023
0.031748602
0.031826895
0.031906994
0.031988984
0.032072927
0.032158929
0.032247044
0.032337335
0.032429866
0.032524695
0.03262188
0.032721471
0.032823518
0.032928079
0.033035229
0.033145005
0.033257441
0.033372586
0.033490489
0.033611202
0.03373478
0.033861279
0.03399076
0.034123285
0.034258923
0.034397745
0.034539834
0.034685286
0.030395435
0.030459089
0.030521348
0.030582422
0.030642522
0.03070186
0.030760632
0.030819026
0.030877229
0.030935422
0.030993783
0.031052478
0.03111167
0.031171514
0.031232158
0.031293744
0.031356409
0.031420282
0.031485485
0.031552135
0.031620342
0.031690211
0.03176184
0.031835324
0.031910752
0.031988205
0.032067756
0.032149485
0.032233456
0.032319728
0.032408361
0.032499412
0.032592933
0.032688971
0.032787574
0.032888799
0.032992715
0.03309935
0.03320874
0.033320927
0.033435957
0.033553879
0.033674742
0.0337986
0.033925509
0.034055528
0.034188721
0.034325157
0.034464909
0.030559749
0.030615067
0.030669123
0.030722137
0.030774324
0.030825902
0.030877073
0.030928029
0.030978957
0.031030041
0.031081457
0.031133375
0.031185955
0.031239351
0.031293712
0.031349179
0.031405886
0.031463961
0.031523526
0.031584694
0.031647573
0.031712267
0.031778869
0.031847474
0.031918166
0.031991027
0.032066129
0.03214354
0.032223325
0.032305542
0.032390246
0.03247749
0.032567323
0.032659789
0.032754934
0.032852814
0.032953488
0.033056981
0.033163324
0.033272558
0.033384724
0.033499867
0.033618032
0.033739269
0.03386363
0.03399117
0.034121951
0.034256041
0.03439352
0.030730828
0.030777459
0.030822993
0.030867655
0.030911667
0.030955246
0.030998598
0.031041917
0.031085391
0.031129203
0.03117353
0.031218538
0.031264388
0.031311231
0.031359213
0.031408475
0.03145915
0.03151136
0.031565226
0.03162086
0.031678365
0.031737843
0.031799384
0.031863079
0.031929012
0.031997261
0.032067892
0.032140973
0.032216562
0.032294716
0.032375486
0.032458922
0.032545068
0.032633966
0.032725659
0.032820202
0.032917647
0.033018012
0.033121325
0.033227624
0.033336947
0.033449334
0.033564827
0.033683472
0.033805316
0.033930412
0.034058818
0.034190598
0.034325835
0.030906902
0.030944587
0.03098137
0.031017478
0.031053136
0.031088558
0.031123951
0.031159509
0.031195422
0.031231869
0.031269025
0.031307057
0.031346119
0.031386362
0.031427923
0.031470949
0.031515566
0.031561893
0.031610048
0.031660138
0.031712267
0.031766528
0.031823013
0.031881806
0.031942991
0.032006638
0.032072814
0.032141579
0.032212991
0.032287102
0.032363961
0.032443611
0.032526094
0.032611451
0.032699719
0.032790953
0.032885197
0.032982464
0.033082779
0.033186176
0.03329269
0.033402357
0.033515215
0.033631306
0.033750673
0.033873366
0.033999437
0.034128947
0.034261973
0.031086273
0.031114847
0.031142736
0.031170169
0.031197369
0.03122455
0.031251917
0.031279662
0.03130797
0.031337021
0.031366988
0.031398031
0.031430302
0.031463948
0.031499104
0.031535909
0.031574487
0.031614957
0.031657428
0.031702008
0.031748794
0.031797876
0.031849343
0.031903278
0.031959755
0.032018843
0.032080605
0.032145099
0.032212379
0.032282492
0.032355483
0.032431394
0.03251026
0.03259212
0.032677009
0.032764979
0.032856068
0.032950283
0.033047646
0.033148188
0.033251939
0.033358933
0.033469203
0.033582787
0.033699727
0.033820066
0.033943853
0.034071141
0.03126736
0.031286736
0.031305667
0.031324378
0.03134309
0.031362014
0.031381352
0.031401291
0.031422012
0.031443693
0.031466504
0.031490599
0.031516126
0.031543225
0.03157203
0.031602672
0.031635274
0.03166995
0.031706804
0.03174594
0.031787451
0.031831424
0.031877945
0.031927089
0.031978927
0.032033525
0.032090943
0.032151235
0.032214449
0.032280631
0.032349822
0.032422058
0.032497372
0.032575797
0.03265737
0.032742139
0.032830134
0.032921356
0.033015826
0.033113571
0.033214618
0.033318995
0.033426735
0.03353787
0.033652439
0.033770482
0.033892048
0.034017194
0.031448705
0.031458875
0.031468853
0.031478863
0.031489121
0.031499834
0.031511196
0.031523392
0.031536597
0.031550983
0.031566719
0.031583952
0.031602823
0.031623467
0.031646015
0.03167059
0.031697312
0.031726293
0.031757627
0.031791416
0.031827752
0.031866713
0.031908382
0.031952829
0.032000123
0.032050325
0.032103489
0.032159668
0.032218905
0.032281242
0.032346715
0.032415359
0.032487201
0.032562271
0.032640606
0.032722251
0.032807224
0.032895526
0.032987174
0.033082192
0.033180602
0.033282431
0.033387705
0.033496456
0.033608718
0.03372453
0.033843938
0.033966999
0.031628997
0.031630015
0.031631111
0.031632501
0.031634396
0.031636995
0.031640489
0.031645053
0.031650856
0.031658065
0.031666851
0.031677345
0.031689686
0.031704003
0.03172042
0.031739056
0.031760025
0.031783437
0.031809378
0.031837945
0.031869225
0.031903296
0.031940231
0.031980099
0.032022963
0.03206888
0.032117901
0.032170073
0.032225437
0.032284031
0.032345888
0.032411037
0.032479502
0.032551308
0.032626495
0.032705106
0.032787143
0.032872606
0.032961514
0.033053883
0.033149733
0.033249088
0.033351971
0.033458409
0.033568436
0.033682085
0.033799402
0.03392044
0.031807065
0.031799049
0.031791388
0.031784292
0.031777964
0.031772595
0.031768368
0.031765455
0.031764011
0.0317642
0.031766194
0.031770106
0.031776073
0.03178422
0.031794663
0.031807515
0.031822885
0.031840875
0.031861572
0.031885063
0.031911432
0.031940751
0.031973091
0.032008514
0.03204708
0.03208884
0.032133844
0.032182131
0.032233742
0.032288709
0.032347061
0.032408823
0.032474017
0.032542665
0.032614807
0.032690479
0.032769673
0.032852392
0.032938647
0.033028453
0.033121829
0.033218792
0.033319363
0.033423567
0.033531433
0.033642995
0.033758292
0.033877375
0.031981889
0.031965005
0.031948763
0.03193336
0.031918991
0.031905839
0.03189408
0.031883876
0.031875378
0.031868738
0.031864118
0.031861635
0.031861413
0.031863571
0.03186822
0.031875465
0.03188541
0.031898149
0.031913768
0.031932347
0.031953965
0.03197869
0.032006587
0.032037715
0.032072128
0.032109874
0.032150997
0.032195535
0.032243522
0.032294987
0.032349958
0.032408453
0.032470492
0.032536095
0.032605301
0.03267814
0.032754594
0.032834666
0.032918365
0.033005703
0.033096693
0.033191352
0.033289697
0.033391749
0.033497536
0.033607087
0.03372044
0.033837643
0.032152594
0.032127049
0.03210244
0.03207895
0.032056759
0.032036043
0.032016969
0.031999692
0.031984356
0.031971104
0.031960082
0.03195141
0.031945204
0.031941575
0.031940628
0.031942462
0.031947172
0.031954847
0.03196557
0.031979416
0.031996456
0.032016756
0.032040376
0.032067369
0.032097786
0.03213167
0.032169061
0.032209992
0.032254495
0.032302596
0.032354315
0.03240967
0.032468676
0.032531355
0.032597744
0.03266786
0.032741682
0.032819211
0.032900455
0.032985423
0.033074123
0.03316657
0.033262778
0.033362765
0.033466556
0.033574178
0.033685667
0.033801067
0.032318436
0.032284477
0.032251752
0.032220423
0.032190659
0.032162626
0.032136482
0.032112373
0.032090438
0.032070808
0.032053617
0.032038983
0.032027015
0.032017817
0.032011487
0.032008117
0.032007797
0.032010608
0.032016629
0.032025931
0.032038579
0.032054633
0.03207415
0.032097179
0.032123764
0.032153946
0.03218776
0.032225236
0.032266401
0.032311277
0.032359883
0.032412231
0.032468332
0.032528212
0.032591906
0.032659414
0.032730717
0.032805814
0.032884708
0.032967407
0.033053916
0.033144246
0.033238408
0.03333642
0.033438301
0.033544078
0.033653785
0.033767461
0.032478796
0.032436707
0.032396143
0.03235725
0.032320186
0.032285105
0.032252156
0.032221476
0.032193197
0.032167441
0.032144328
0.032123973
0.032106478
0.032091941
0.032080454
0.0320721
0.032066963
0.032065119
0.032066642
0.032071596
0.032080043
0.03209204
0.032107635
0.032126875
0.032149799
0.032176445
0.032206843
0.03224102
0.032278998
0.032320796
0.03236643
0.032415907
0.032469237
0.032526447
0.032587571
0.032652591
0.032721489
0.032794265
0.032870918
0.032951452
0.033035871
0.033124181
0.033216393
0.033312519
0.033412579
0.033516597
0.033624604
0.033736639
0.032633169
0.03258327
0.032535166
0.032489004
0.03244493
0.032403087
0.032363615
0.032326639
0.032292286
0.032260666
0.03223189
0.032206066
0.032183289
0.032163654
0.032147242
0.032134132
0.032124398
0.032118114
0.032115347
0.032116158
0.032120602
0.032128731
0.032140591
0.032156222
0.032175662
0.032198941
0.032226087
0.032257123
0.032292068
0.032330937
0.032373743
0.03242049
0.032471184
0.032525858
0.032584536
0.032647188
0.0327138
0.032784367
0.032858889
0.032937365
0.033019796
0.033106185
0.033196541
0.033290874
0.033389201
0.033491546
0.033597938
0.033708413
0.032781172
0.032723791
0.032668466
0.032615346
0.032564568
0.032516263
0.032470561
0.032427578
0.032387428
0.032350217
0.032316043
0.032285011
0.032257203
0.032232715
0.032211616
0.032193981
0.032179877
0.032169371
0.032162528
0.032159402
0.032160043
0.032164499
0.032172812
0.032185017
0.032201148
0.032221233
0.032245293
0.032273349
0.032305416
0.032341508
0.03238163
0.032425787
0.032473983
0.032526254
0.032582611
0.032643018
0.032707461
0.032775935
0.032848436
0.03292496
0.033005506
0.033090074
0.033178669
0.0332713
0.033367984
0.033468742
0.033573603
0.0336826
0.033128488
0.033057934
0.032989221
0.032922528
0.032857993
0.032795778
0.032736024
0.032678857
0.032624399
0.032572767
0.03252407
0.03247841
0.032435887
0.032396588
0.032360609
0.032328026
0.032298934
0.03227339
0.032251464
0.032233216
0.03221871
0.032208005
0.03220115
0.032198191
0.032199169
0.032204123
0.032213086
0.032226087
0.032243148
0.032264289
0.032289526
0.032318871
0.032352334
0.03238992
0.032431627
0.032477463
0.032527465
0.032581626
0.032639909
0.032702302
0.032768797
0.032839387
0.032914065
0.032992829
0.033075674
0.033162603
0.033253624
0.033348751
0.033448007
0.033551421
0.033659025
0.033285079
0.033206871
0.033130798
0.03305702
0.032985678
0.032916916
0.03285086
0.032787627
0.032727331
0.032670075
0.03261596
0.03256508
0.032517523
0.032473373
0.032432714
0.032395618
0.032362169
0.03233242
0.032306439
0.032284274
0.032265987
0.032251636
0.032241261
0.032234902
0.032232597
0.032234381
0.032240284
0.03225033
0.03226454
0.032282927
0.032305505
0.032332283
0.032363267
0.032398459
0.032437858
0.032481471
0.032529335
0.032581423
0.032637704
0.032698163
0.032762792
0.032831581
0.03290452
0.032981602
0.033062823
0.033148181
0.033237681
0.033331337
0.033429174
0.033531225
0.033637517
0.033433545
0.033348067
0.03326501
0.033184519
0.033106727
0.033031762
0.032959741
0.032890771
0.032824952
0.032762381
0.032703147
0.032647335
0.032595027
0.032546298
0.032501223
0.032459871
0.032422315
0.032388605
0.0323588
0.032332944
0.032311094
0.032293311
0.032279622
0.032270062
0.032264668
0.032263468
0.032266491
0.032273758
0.032285284
0.032301082
0.032321159
0.032345522
0.032374174
0.032407115
0.032444345
0.032485873
0.032531725
0.032581863
0.03263626
0.032694902
0.032757776
0.032824871
0.032896175
0.032971677
0.03305137
0.033135249
0.033223316
0.033315585
0.033412085
0.033512855
0.033617916
0.033573811
0.033481456
0.033391796
0.033304964
0.033221082
0.033140264
0.033062616
0.032988235
0.032917211
0.032849632
0.032785576
0.032725122
0.032668342
0.032615305
0.032566077
0.032520723
0.032479306
0.032441874
0.032408475
0.032379151
0.032353954
0.032332949
0.03231615
0.032303587
0.032295292
0.032291292
0.032291612
0.032296271
0.03230528
0.032318649
0.032336381
0.032358479
0.032384943
0.032415772
0.032450972
0.032490549
0.032534511
0.032582819
0.03263545
0.032692388
0.032753618
0.032819125
0.032888895
0.032962916
0.033041176
0.033123668
0.033210389
0.03330135
0.03339659
0.033496162
0.033600072
0.033705879
0.03360704
0.033511161
0.033418359
0.033328745
0.033242422
0.033159484
0.033080017
0.033004103
0.03293182
0.032863238
0.032798427
0.032737451
0.032680372
0.032627251
0.032578144
0.032533108
0.032492187
0.032455423
0.03242285
0.03239452
0.032370497
0.032350786
0.032335413
0.032324405
0.032317785
0.032315574
0.032317792
0.032324448
0.032335544
0.032351082
0.032371062
0.032395482
0.032424334
0.032457638
0.032495392
0.032537586
0.032584183
0.032635162
0.032690506
0.032750198
0.03281422
0.032882557
0.032955193
0.033032114
0.033113309
0.033198769
0.033288498
0.033382549
0.033481009
0.033583844
0.033829808
0.033724879
0.03362316
0.033524756
0.033429767
0.033338283
0.033250386
0.033166156
0.033085663
0.033008975
0.032936157
0.032867269
0.032802368
0.03274151
0.032684748
0.032632134
0.032583716
0.032539536
0.032499628
0.032464022
0.032432765
0.032405926
0.032383494
0.032365499
0.032351961
0.032342895
0.032338323
0.032338264
0.032342723
0.0323517
0.032365191
0.032383197
0.032405711
0.032432718
0.032464256
0.032500312
0.032540854
0.032585855
0.032635295
0.032689153
0.032747411
0.032810049
0.03287705
0.032948395
0.033024068
0.033104055
0.033188339
0.033276907
0.033945709
0.033835079
0.033727897
0.033624255
0.03352424
0.033427933
0.033335406
0.033246726
0.033161958
0.03308116
0.03300439
0.032931699
0.032863139
0.032798757
0.032738602
0.032682719
0.03263115
0.032583933
0.032541098
0.03250267
0.032468691
0.032439221
0.032414257
0.032393821
0.032377931
0.032366593
0.032359824
0.032357645
0.032360061
0.032367067
0.032378654
0.032394822
0.032415567
0.032440857
0.032470757
0.03250523
0.032544236
0.032587753
0.032635761
0.032688238
0.032745162
0.032806514
0.032872272
0.032942418
0.033016932
0.033095799
0.033178998
0.034053737
0.033937789
0.033825514
0.03371699
0.033612293
0.033511494
0.033414654
0.033321834
0.033233088
0.033148467
0.03306802
0.032991793
0.032919831
0.032852175
0.032788867
0.032729946
0.032675451
0.032625413
0.03257986
0.032538814
0.03250231
0.032470396
0.032443079
0.032420376
0.032402303
0.032388861
0.032380054
0.032375909
0.032376428
0.032381607
0.032391428
0.032405891
0.032424997
0.032448698
0.032477082
0.032510083
0.032547664
0.032589805
0.032636485
0.03268768
0.032743369
0.032803528
0.032868134
0.032937168
0.03301061
0.033088443
0.033170657
0.034154084
0.034033194
0.033916185
0.033803126
0.033694083
0.033589113
0.033488272
0.033391611
0.033299175
0.033211009
0.033127154
0.03304765
0.032972534
0.032901845
0.032835616
0.032773882
0.032716676
0.032664027
0.032615958
0.032572489
0.032533649
0.032499475
0.03246998
0.032445175
0.032425081
0.032409695
0.032399006
0.032393043
0.032391808
0.032395297
0.032403484
0.032416366
0.032433954
0.032456206
0.03248318
0.032514815
0.032551078
0.032591948
0.032637401
0.032687412
0.032741958
0.032801014
0.032864556
0.032932563
0.033005014
0.033081895
0.033163199
0.034246971
0.034121504
0.034000112
0.033882856
0.033769789
0.033660962
0.033556421
0.033456208
0.033360361
0.033268918
0.033181914
0.033099383
0.033021356
0.032947864
0.032878938
0.032814607
0.0327549
0.03269984
0.032649449
0.032603745
0.03256275
0.032526494
0.03249499
0.032468248
0.032446281
0.032429102
0.032416683
0.032409045
0.032406191
0.032408125
0.032414804
0.032426227
0.032442418
0.032463339
0.032489011
0.032519386
0.032554434
0.032594131
0.032638453
0.032687373
0.032740865
0.032798905
0.032861466
0.032928527
0.033000066
0.03307607
0.033156532
0.034332642
0.034202952
0.034077518
0.03395639
0.033839613
0.033727231
0.033619279
0.033515793
0.033416805
0.033322344
0.033232441
0.033147122
0.033066414
0.032990344
0.032918936
0.032852216
0.032790207
0.032732931
0.032680404
0.032632644
0.032589667
0.032551498
0.032518148
0.032489627
0.032465941
0.032447094
0.032433097
0.032423922
0.032419579
0.032420085
0.032425381
0.03243546
0.032450372
0.032470068
0.032494541
0.032523759
0.032557691
0.032596311
0.032639594
0.032687511
0.032740036
0.032797141
0.032858802
0.032924993
0.032995695
0.033070892
0.033150579
0.034411361
0.034277789
0.034148639
0.034023954
0.03390377
0.033788122
0.033677039
0.033570549
0.033468677
0.033371447
0.033278883
0.033191008
0.033107842
0.033029407
0.032955723
0.032886813
0.032822694
0.032763385
0.032708901
0.032659256
0.032614464
0.032574542
0.032539502
0.032509351
0.032484093
0.032463727
0.032448257
0.03243769
0.032431981
0.032431181
0.032435211
0.032444062
0.032457806
0.032476373
0.03249975
0.032527908
0.032560818
0.032598453
0.032640784
0.032687783
0.032739422
0.032795672
0.032856507
0.032921903
0.032991837
0.033066296
0.033145271
0.034483406
0.03434628