/*--------------------------------*- C++ -*----------------------------------*\
| =========                 |                                                 |
| \\      /  F ield         | OpenFOAM: The Open Source CFD Toolbox           |
|  \\    /   O peration     | Version:  2312                                  |
|   \\  /    A nd           | Website:  www.openfoam.com                      |
|    \\/     M anipulation  |                                                 |
\*---------------------------------------------------------------------------*/
FoamFile
{
    version     2.0;
    format      ascii;
    arch        "LSB;label=32;scalar=64";
    class       volScalarField;
    location    "0.06";
    object      O2;
}
// * * * * * * * * * * * * * * * * * * * * * * * * * * * * * * * * * * * * * //

dimensions      [0 0 0 0 0 0 0];

internalField   nonuniform List<scalar> 
3272
(
0.22211791
0.22187768
0.22164064
0.2214069
0.22117676
0.22095064
0.22072897
0.2205121
0.2203002
0.22009327
0.21989119
0.2196938
0.219501
0.21931277
0.21912921
0.21895054
0.21877706
0.21860915
0.21844725
0.21829179
0.21814317
0.21800174
0.21786772
0.21774125
0.2176224
0.21751106
0.21740778
0.2173118
0.21722382
0.21714379
0.2170718
0.21700821
0.21695318
0.21690682
0.21686916
0.2168402
0.21681988
0.21680811
0.21680478
0.21680976
0.21682295
0.2168443
0.21687373
0.21691102
0.21695624
0.21700926
0.21706982
0.2171377
0.21721262
0.21729426
0.21738233
0.21747651
0.21757659
0.22055159
0.22031135
0.22007446
0.21984117
0.2196118
0.21938675
0.21916643
0.21895117
0.21874117
0.21853648
0.21833706
0.21814283
0.21795375
0.21776986
0.21759128
0.21741823
0.21725101
0.21708997
0.21693549
0.21678797
0.21664781
0.21651531
0.21639058
0.21627386
0.21616566
0.21606507
0.21597315
0.21588919
0.21581356
0.21574649
0.21568814
0.21563867
0.21559824
0.21556694
0.21554481
0.21553183
0.21552793
0.21553303
0.21554702
0.21556981
0.21560117
0.21564106
0.21568943
0.21574618
0.21581112
0.2158841
0.21596492
0.21605331
0.21614897
0.21625157
0.21636076
0.21647622
0.21659773
0.21799063
0.217742
0.21749754
0.21725756
0.2170224
0.2167924
0.21656795
0.21634933
0.21613675
0.21593033
0.2157301
0.2155361
0.21534836
0.21516698
0.21499212
0.214824
0.2146629
0.21450911
0.21436302
0.21422482
0.21409488
0.21397403
0.21386116
0.21375787
0.2136633
0.21357783
0.21350166
0.21343479
0.21337733
0.21332944
0.21329125
0.21326292
0.21324456
0.21323624
0.21323798
0.21324976
0.21327145
0.21330301
0.21334446
0.21339533
0.21345589
0.21352577
0.21360485
0.21369299
0.21379002
0.21389573
0.21400988
0.21413217
0.21426227
0.21439982
0.21454444
0.21469577
0.21485353
0.21500352
0.21473397
0.21446995
0.21421181
0.21395986
0.21371442
0.21347578
0.21324423
0.21301997
0.21280315
0.21259388
0.21239226
0.21219841
0.21201247
0.21183464
0.21166514
0.21150422
0.21135207
0.21120975
0.21107622
0.2109522
0.21083843
0.21073405
0.21064014
0.21055669
0.21048377
0.2104215
0.21036997
0.21032928
0.21029955
0.21028092
0.21027349
0.21027733
0.21029253
0.21031897
0.21035682
0.21040584
0.21046587
0.21053722
0.21061938
0.21071225
0.21081565
0.2109294
0.21105331
0.21118716
0.2113307
0.21148362
0.21164561
0.21181628
0.21199525
0.21218209
0.21237639
0.21257779
0.21196945
0.2116693
0.21137623
0.21109057
0.21081262
0.21054266
0.21028097
0.21002779
0.20978332
0.20954776
0.20932125
0.20910395
0.20889603
0.20869766
0.20850906
0.2083305
0.20816231
0.2080056
0.20785839
0.20772294
0.20759781
0.2074838
0.20738144
0.20729093
0.20721241
0.20714601
0.20709184
0.20705003
0.20702068
0.20700391
0.20699983
0.20700848
0.2070299
0.20706433
0.20711171
0.20717148
0.20724419
0.20732987
0.20742809
0.20753868
0.20766147
0.20779627
0.20794286
0.20810102
0.20827047
0.20845092
0.20864203
0.20884343
0.20905472
0.20927544
0.20950515
0.20974338
0.20998968
0.20906303
0.2087284
0.20840226
0.20808494
0.20777673
0.20747788
0.20718865
0.20690928
0.20663998
0.20638096
0.2061324
0.2058945
0.20566745
0.20545144
0.20524669
0.20505338
0.20487374
0.20470464
0.20454863
0.2044045
0.20427195
0.20415236
0.20404592
0.20395281
0.20387321
0.20380728
0.20375516
0.20371698
0.2036929
0.20368302
0.20368741
0.20370606
0.20373922
0.20378703
0.20384936
0.2039254
0.20401644
0.20412197
0.20424168
0.20437541
0.20452299
0.2046842
0.20485881
0.20504656
0.20524715
0.20546024
0.20568548
0.20592245
0.20617071
0.2064298
0.20669921
0.20697842
0.20726693
0.20632351
0.20595553
0.20559724
0.20524896
0.20491096
0.20458348
0.20426677
0.20396107
0.20366659
0.20338355
0.20311216
0.20285262
0.20260514
0.20236997
0.20214738
0.20193787
0.20174363
0.20156011
0.20139199
0.20123598
0.20109321
0.20096467
0.20085056
0.2007511
0.2006665
0.20059693
0.20054259
0.20050364
0.20048023
0.2004725
0.20048049
0.20050419
0.20054403
0.20060003
0.20067208
0.20075916
0.20086304
0.20098301
0.20111878
0.20127022
0.20143712
0.20161929
0.20181649
0.20202843
0.20225481
0.20249528
0.20274944
0.20301688
0.20329712
0.20358968
0.20389402
0.20420958
0.2045358
0.20372783
0.20333056
0.20294402
0.2025685
0.20220423
0.20185145
0.2015104
0.20118129
0.20086434
0.20055977
0.20026778
0.19998859
0.19972238
0.19946934
0.19922958
0.19900667
0.19879742
0.19859999
0.19841956
0.19825145
0.19809795
0.19795971
0.19783696
0.19772993
0.19763887
0.19756397
0.19750546
0.19746353
0.19743837
0.19743015
0.19743889
0.1974646
0.19750782
0.19756857
0.19764674
0.19774114
0.19785377
0.19798412
0.19813175
0.19829654
0.19847833
0.19867692
0.19889207
0.19912351
0.19937092
0.19963396
0.19991223
0.2002053
0.20051268
0.20083387
0.20116831
0.20151543
0.20187462
0.20123758
0.20081626
0.20040661
0.20000886
0.19962322
0.19924991
0.19888912
0.19854106
0.19820593
0.19788393
0.19757526
0.19728012
0.19699874
0.19673131
0.196478
0.19624301
0.19602018
0.19581347
0.1956219
0.19544323
0.19528044
0.1951337
0.19500327
0.19488939
0.19479232
0.1947123
0.19464957
0.19460437
0.19457691
0.19456739
0.19457585
0.19460233
0.19464741
0.19471121
0.19479363
0.19489327
0.19501218
0.1951504
0.1953072
0.19548248
0.19567611
0.19588791
0.19611767
0.19636513
0.19662999
0.19691191
0.19721049
0.1975253
0.19785587
0.19820167
0.19856214
0.19893667
0.19932465
0.19882045
0.19838047
0.19795303
0.19753832
0.19713651
0.19674775
0.19637222
0.19601009
0.19566152
0.19532669
0.1950058
0.19469904
0.19440662
0.19412884
0.19386628
0.19362244
0.1933899
0.19317594
0.19297554
0.19278962
0.19262006
0.19246711
0.19233105
0.19221214
0.19211066
0.19202689
0.19196109
0.19191353
0.19188444
0.19187407
0.19188248
0.19190971
0.19195647
0.19202291
0.19210895
0.19221307
0.1923371
0.19248197
0.19264651
0.19283065
0.19303432
0.19325736
0.1934996
0.19376079
0.19404066
0.19433888
0.19465507
0.19498882
0.19533965
0.19570703
0.19609039
0.19645575
0.19600223
0.19556209
0.19513545
0.19472243
0.19432313
0.19393768
0.19356619
0.19320881
0.19286568
0.19253695
0.1922228
0.19192334
0.19163853
0.1913735
0.19112225
0.19088425
0.19066562
0.19045947
0.19026929
0.1900958
0.18993929
0.18980004
0.18967837
0.18957456
0.18948892
0.18942173
0.18937329
0.18934387
0.18933374
0.18934299
0.18937167
0.18942065
0.18949001
0.18957981
0.18968857
0.1898174
0.18996849
0.19014016
0.1903324
0.19054518
0.19077837
0.19103183
0.19130535
0.19159867
0.1919115
0.19224349
0.19259422
0.19296324
0.19335003
0.19375403
0.19413296
0.19367066
0.19322254
0.19278865
0.19236903
0.19196373
0.19157281
0.19119634
0.19083442
0.19048716
0.19015468
0.18983719
0.18953495
0.18924825
0.18898139
0.18872553
0.18848894
0.1882662
0.18805794
0.18786633
0.18769163
0.18753414
0.18739416
0.187272
0.18716798
0.18708242
0.18701564
0.18696796
0.18693968
0.1869311
0.18694231
0.1869734
0.18702544
0.18709828
0.187192
0.18730658
0.18744028
0.18759738
0.18777603
0.18797609
0.18819754
0.18844031
0.18870427
0.18898926
0.18929506
0.18962139
0.18996792
0.19033428
0.19072002
0.19112465
0.19154761
0.19184831
0.19138173
0.19093005
0.19049324
0.19007128
0.18966415
0.18927186
0.18889441
0.18853184
0.1881842
0.18785158
0.18753412
0.18723238
0.18695057
0.1866808
0.18642736
0.18619155
0.18596802
0.1857609
0.18557049
0.18539708
0.18524096
0.18510246
0.18498191
0.18487964
0.18479598
0.1847313
0.18468592
0.18466018
0.18465443
0.18466868
0.18470331
0.18475927
0.18483638
0.18493485
0.18505489
0.18519415
0.18535749
0.18554319
0.185751
0.18598092
0.18623294
0.18650696
0.18680285
0.18712043
0.18745946
0.18781963
0.1882006
0.18860194
0.18902319
0.18946379
0.18960189
0.18913528
0.1886842
0.18824855
0.18782823
0.18742315
0.18703326
0.18665849
0.18629884
0.18595429
0.18562475
0.18530992
0.18501639
0.1847368
0.18446924
0.1842216
0.18398641
0.18376639
0.18356279
0.18337588
0.18320593
0.18305327
0.18291821
0.1828011
0.18270229
0.18262215
0.18256104
0.18251933
0.18249738
0.18249556
0.18251383
0.18255302
0.18261361
0.18269567
0.18279945
0.18292523
0.18307037
0.1832402
0.18343304
0.18364857
0.18388683
0.18414784
0.18443156
0.1847379
0.18506671
0.18541777
0.18579083
0.18618555
0.18660156
0.1870384
0.18749554
0.18739557
0.186933
0.18648649
0.18605586
0.18564091
0.18524151
0.18485752
0.18448885
0.18413543
0.18379727
0.18347441
0.1831671
0.18288085
0.1826045
0.1823474
0.18210302
0.18187274
0.18165852
0.18146058
0.18127918
0.18111462
0.18096722
0.1808373
0.18072523
0.18063138
0.18055612
0.18049986
0.18046298
0.18044589
0.18044892
0.1804721
0.1805166
0.18058247
0.18067001
0.18077954
0.18091136
0.18106261
0.18123908
0.18143911
0.18166229
0.18190874
0.1821785
0.18247158
0.18278792
0.18312743
0.18348992
0.18387516
0.18428287
0.18471267
0.18516416
0.18563682
0.18523186
0.18477724
0.18433909
0.18391712
0.18351109
0.18312076
0.18274594
0.18238648
0.18204228
0.18171332
0.18139962
0.1811062
0.18082379
0.18056013
0.18030939
0.18007153
0.17984929
0.17964286
0.17945247
0.17927838
0.1791209
0.17898033
0.17885703
0.17875138
0.17866376
0.17859458
0.17854425
0.17851319
0.17850186
0.17851043
0.17853945
0.17858972
0.17866138
0.17875483
0.17887043
0.17900853
0.17916603
0.17934925
0.17955643
0.17978716
0.18004158
0.18031981
0.18062188
0.18094778
0.18129745
0.18167076
0.18206751
0.18248743
0.1829302
0.18339543
0.18388264
0.18311333
0.18267041
0.18224419
0.18183435
0.18144055
0.18106249
0.18069988
0.18035251
0.18002027
0.17970307
0.17940606
0.17911979
0.1788521
0.1785976
0.17835494
0.17812739
0.17791509
0.17771824
0.17753709
0.17737189
0.17722295
0.1770906
0.17697522
0.17687718
0.1767969
0.1767348
0.17669133
0.17666693
0.17666213
0.17667691
0.17671234
0.17676884
0.17684671
0.1769464
0.17706831
0.17721284
0.17737664
0.17756665
0.1777809
0.17801901
0.17828117
0.17856754
0.17887821
0.17921321
0.17957251
0.17995602
0.18036358
0.18079497
0.18124988
0.18172795
0.18222873
0.18104238
0.18061468
0.1802038
0.17980933
0.17943088
0.17906808
0.17872049
0.17838787
0.17807007
0.17777231
0.17748496
0.17721594
0.17695998
0.17671536
0.17648524
0.17626975
0.17606907
0.17588339
0.17571296
0.17555804
0.17541895
0.17529604
0.17518969
0.1751003
0.17502832
0.17497419
0.17493839
0.1749214
0.17492362
0.17494527
0.17498758
0.17505069
0.17513509
0.17524126
0.17536964
0.17552069
0.17569081
0.17588759
0.17610878
0.17635408
0.17662372
0.17691789
0.17723675
0.17758036
0.17794875
0.17834185
0.17875955
0.17920166
0.17966791
0.18015793
0.1806713
0.17902116
0.17861199
0.17821958
0.17784348
0.17748328
0.17713864
0.17680862
0.17649314
0.17619745
0.17591165
0.17564412
0.17538896
0.17514516
0.17491525
0.1746993
0.17449746
0.17430987
0.17413675
0.17397833
0.17383491
0.17370681
0.17359439
0.17349806
0.17341822
0.17335536
0.17330995
0.1732825
0.17327359
0.17328324
0.1733124
0.17336187
0.17343193
0.17352312
0.17363596
0.17377092
0.1739285
0.17410491
0.17430842
0.17453641
0.17478868
0.17506552
0.17536716
0.17569379
0.17604555
0.17642248
0.17682457
0.17725176
0.17770387
0.17818067
0.17868182
0.17705156
0.17666399
0.17629292
0.17593786
0.17559849
0.17527511
0.17496479
0.17467402
0.17439234
0.17412907
0.17387703
0.17363679
0.17340981
0.17319613
0.17299581
0.17280897
0.17263576
0.1724764
0.17233114
0.17220027
0.17208414
0.17198313
0.17189765
0.17182814
0.1717751
0.17173904
0.17172073
0.1717201
0.17173771
0.17177483
0.17183177
0.17190905
0.17200725
0.17212691
0.17226852
0.17243253
0.17261518
0.17282538
0.17306002
0.17331905
0.17360281
0.17391157
0.17424559
0.17460502
0.17498998
0.1754005
0.17583653
0.17629796
0.1767846
0.1772962
0.17513531
0.17477214
0.17442495
0.17409324
0.17377626
0.1734791
0.17319447
0.17291975
0.17266333
0.17241685
0.17218277
0.17196141
0.17175266
0.17155654
0.17137309
0.17120242
0.17104469
0.17090012
0.17076898
0.17065156
0.17054825
0.17045942
0.17038553
0.17032698
0.17028434
0.17025852
0.17024931
0.17025741
0.17028364
0.17032891
0.17039359
0.17047832
0.17058371
0.17071036
0.17085872
0.17102873
0.17121768
0.17143456
0.17167571
0.17194129
0.17223169
0.17254726
0.17288827
0.17325494
0.17364744
0.17406582
0.1745101
0.17498019
0.17547595
0.17599716
0.17327393
0.17293779
0.17261673
0.17231071
0.17202394
0.17174765
0.17148764
0.17123964
0.17100122
0.17077582
0.17056264
0.17036146
0.17017215
0.16999471
0.16982919
0.16967569
0.16953437
0.16940545
0.16928923
0.16918602
0.16909623
0.1690202
0.16895857
0.16891145
0.16888015
0.16886425
0.16886476
0.16888199
0.16891722
0.16897084
0.16904349
0.16913584
0.16924858
0.16938242
0.16953817
0.16971233
0.16990838
0.17013193
0.17037944
0.17065136
0.17094815
0.1712702
0.17161784
0.17199135
0.17239091
0.17281665
0.1732686
0.17374673
0.17425091
0.17478091
0.17146869
0.17116234
0.17086884
0.17059663
0.17033195
0.17008533
0.16984841
0.16962281
0.16940874
0.16920632
0.16901527
0.16883538
0.16866653
0.16850871
0.16836199
0.16822648
0.16810231
0.16798974
0.16788912
0.16780065
0.16772503
0.16766216
0.16761363
0.16757859
0.1675581
0.16755287
0.16756328
0.16759023
0.16763453
0.1676967
0.16777747
0.16787754
0.16799767
0.16813859
0.16830108
0.16848084
0.16868357
0.16891344
0.1691671
0.16944514
0.16974805
0.17007628
0.17043022
0.17081016
0.17121636
0.17164898
0.17210809
0.17259369
0.17310565
0.16972016
0.16944804
0.16918556
0.16894137
0.16870797
0.16848506
0.16827422
0.16807446
0.16788546
0.1677071
0.16753919
0.1673815
0.16723391
0.16709644
0.16696923
0.16685239
0.16674594
0.16665019
0.16656579
0.1664923
0.16643176
0.16638294
0.16634671
0.16632389
0.16631502
0.16632061
0.16634134
0.16637818
0.16643166
0.16650252
0.1665915
0.16669935
0.16682686
0.16697479
0.1671439
0.16732956
0.16753894
0.16777487
0.1680345
0.16831843
0.16862722
0.16896135
0.16932125
0.16970728
0.17011972
0.17055877
0.17102456
0.17151712
0.17203647
0.16803576
0.16779097
0.16756507
0.1673481
0.16714336
0.16694959
0.16676648
0.16659351
0.16643034
0.1662768
0.16613284
0.16599806
0.16587231
0.16575566
0.16564857
0.16555101
0.16546262
0.16538382
0.1653167
0.16525895
0.16521253
0.16517762
0.16515468
0.16514436
0.16514723
0.16516383
0.16519521
0.16524191
0.16530469
0.1653843
0.16548154
0.1655972
0.16573206
0.16588694
0.16606262
0.1662542
0.16647019
0.16671201
0.16697742
0.16726705
0.16758148
0.16792124
0.16828681
0.16867859
0.16909689
0.16954197
0.17001398
0.17051301
0.1710391
0.1664074
0.16619762
0.16600171
0.16581684
0.16564272
0.16547881
0.16532435
0.16517887
0.1650421
0.16491388
0.1647946
0.16468325
0.16457968
0.16448385
0.1643977
0.16432009
0.16424985
0.16418889
0.1641377
0.164096
0.16406452
0.16404372
0.16403417
0.16403645
0.16405108
0.16407907
0.16412099
0.16417762
0.16424973
0.16433813
0.16444363
0.16456706
0.16470925
0.16487101
0.16505315
0.16525062
0.16547313
0.16572071
0.16599173
0.16628685
0.1666067
0.16695184
0.16732279
0.16771999
0.16814382
0.16859454
0.16907236
0.16957737
0.1701096
0.16483637
0.16466287
0.16450047
0.16434816
0.16420538
0.16407218
0.16394696
0.16382943
0.16371944
0.16361649
0.16352296
0.1634353
0.16335413
0.16328029
0.16321413
0.1631556
0.16310444
0.16306133
0.16302675
0.16300098
0.16298454
0.16297795
0.16298178
0.16299662
0.16302332
0.16306254
0.16311502
0.16318157
0.163263
0.16336016
0.16347388
0.16360504
0.16375448
0.16392302
0.16411149
0.16431475
0.16454369
0.1647969
0.16507336
0.16537378
0.16569882
0.1660491
0.16642517
0.16682751
0.16725654
0.16771256
0.16819581
0.16870639
0.16332645
0.16318907
0.16306105
0.16294183
0.16283043
0.16272918
0.1626334
0.16254398
0.16246122
0.16238481
0.16231516
0.16225127
0.16219314
0.16214112
0.16209548
0.1620564
0.16202397
0.16199862
0.1619808
0.16197089
0.16196949
0.16197699
0.16199421
0.16202175
0.16206034
0.16211073
0.16217371
0.16225012
0.16234081
0.16244664
0.16256852
0.16270733
0.16286395
0.16303916
0.16323366
0.16344265
0.16367792
0.16393662
0.16421837
0.1645239
0.16485393
0.16520911
0.16559004
0.16599725
0.16643118
0.16689219
0.16738057
0.16789653
0.16187765
0.16177661
0.16168325
0.16159768
0.16151911
0.16144765
0.16138169
0.16132102
0.16126563
0.16121539
0.16117033
0.16113013
0.16109476
0.16106441
0.16103931
0.16101972
0.16100584
0.1609981
0.16099697
0.16100277
0.16101624
0.16103788
0.16106838
0.16110843
0.16115878
0.16122023
0.1612936
0.16137976
0.16147958
0.16159399
0.16172392
0.16187029
0.16203402
0.16221589
0.16241567
0.16263056
0.16287205
0.16313611
0.16342296
0.16373342
0.16406823
0.16442809
0.16481364
0.16522545
0.165664
0.16612971
0.1666229
0.16714382
0.16048872
0.16042434
0.16036648
0.16031477
0.16026868
0.16022785
0.16019151
0.16015932
0.16013114
0.16010686
0.16008643
0.16006978
0.16005692
0.160048
0.16004327
0.16004301
0.16004742
0.16005708
0.16007239
0.16009381
0.16012198
0.16015752
0.1602011
0.16025348
0.16031543
0.16038777
0.16047136
0.1605671
0.16067591
0.16079874
0.16093656
0.16109036
0.16126117
0.16145023
0.16165309
0.16187504
0.16212251
0.16239173
0.16268352
0.16299871
0.16333809
0.16370241
0.16409235
0.16450851
0.16495142
0.16542153
0.16591922
0.16644474
0.15916082
0.15913301
0.1591104
0.15909242
0.15907857
0.15906842
0.15906149
0.15905747
0.15905621
0.15905758
0.15906155
0.15906818
0.1590775
0.15908969
0.159105
0.15912374
0.15914625
0.15917299
0.15920447
0.1592412
0.15928381
0.15933298
0.15938941
0.15945387
0.15952718
0.15961019
0.15970379
0.15980892
0.15992652
0.16005758
0.1602031
0.16036411
0.16054167
0.16073694
0.1609444
0.16117299
0.16142583
0.16170005
0.16199657
0.1623163
0.16266006
0.16302863
0.16342272
0.16384299
0.16429001
0.16476425
0.16526613
0.16579594
0.15789346
0.15790205
0.15791437
0.15792981
0.15794787
0.15796814
0.15799024
0.15801397
0.15803919
0.15806581
0.15809382
0.15812331
0.15815439
0.15818727
0.15822222
0.1582596
0.15829978
0.15834325
0.15839055
0.15844223
0.15849897
0.15856144
0.15863041
0.15870667
0.15879106
0.15888448
0.15898784
0.15910211
0.15922828
0.15936735
0.15952036
0.15968835
0.15987235
0.16007344
0.16028588
0.16052085
0.16077876
0.16105777
0.16135884
0.16168291
0.16203084
0.16240345
0.16280149
0.16322564
0.16367651
0.16415462
0.16466042
0.16519422
0.15668618
0.15673079
0.15677762
0.15682601
0.1568755
0.15692572
0.15697631
0.15702726
0.15707845
0.15712978
0.1571813
0.15723315
0.15728549
0.15733856
0.15739268
0.15744822
0.15750562
0.15756538
0.15762808
0.15769432
0.15776478
0.1578402
0.15792135
0.15800907
0.15810424
0.15820776
0.1583206
0.15844374
0.15857822
0.15872505
0.15888532
0.15906008
0.15925029
0.15945674
0.1596743
0.15991541
0.16017818
0.16046178
0.16076721
0.16109543
0.16144733
0.16182377
0.16222554
0.16265334
0.16310784
0.16358957
0.16409903
0.16463656
0.15553828
0.1556184
0.1556992
0.15577994
0.15586026
0.15593984
0.15601819
0.15609571
0.15617229
0.15624768
0.1563221
0.1563957
0.15646871
0.1565414
0.15661413
0.15668731
0.15676141
0.15683698
0.1569146
0.15699494
0.1570787
0.15716665
0.1572596
0.15735841
0.15746399
0.15757729
0.15769929
0.15783101
0.15797351
0.15812786
0.15829515
0.15847648
0.15867279
0.15888375
0.1591067
0.15935371
0.15962115
0.15990915
0.16021875
0.16055091
0.16090659
0.16128666
0.16169194
0.16212319
0.16258108
0.16306621
0.16357909
0.1641201
0.15444886
0.15456389
0.15467808
0.15479041
0.15490083
0.15500916
0.15511425
0.15521762
0.155319
0.15541767
0.15551429
0.15560898
0.15570199
0.15579367
0.15588441
0.15597464
0.15606488
0.1561557
0.15624773
0.15634167
0.15643826
0.1565383
0.15664262
0.15675212
0.15686774
0.15699045
0.15712128
0.15726127
0.15741149
0.15757306
0.15774712
0.15793484
0.15813767
0.15835095
0.15858051
0.15883301
0.15910491
0.15939711
0.15971067
0.16004659
0.16040585
0.16078935
0.16119795
0.16163242
0.1620935
0.1625818
0.16309788
0.16364213
0.15341831
0.15356706
0.15371319
0.15385612
0.15399576
0.15413247
0.1542627
0.1543912
0.15451695
0.15463787
0.15475597
0.15487101
0.15498328
0.15509328
0.15520138
0.15530803
0.15541379
0.15551928
0.15562517
0.15573219
0.15584111
0.15595275
0.15606799
0.15618776
0.15631302
0.15644477
0.15658407
0.15673198
0.15688961
0.15705811
0.15723862
0.15743234
0.15764056
0.15785759
0.15809343
0.15835067
0.15862684
0.15892305
0.15924038
0.15957986
0.15994251
0.16032924
0.16074095
0.16117846
0.1616425
0.16213376
0.16265282
0.1632001
0.15244435
0.15262593
0.15280313
0.15297563
0.15314331
0.15330612
0.15346298
0.15361572
0.15376478
0.15390627
0.15404522
0.15417984
0.15431055
0.15443818
0.15456295
0.15468535
0.154806
0.15492554
0.1550447
0.15516424
0.15528496
0.15540772
0.15553341
0.155663
0.15579748
0.15593788
0.15608527
0.15624076
0.15640548
0.1565806
0.15676727
0.15696664
0.15717959
0.15740089
0.15764267
0.15790428
0.1581845
0.15848451
0.15880542
0.15914828
0.15951412
0.1599039
0.16031853
0.16075886
0.16122567
0.16171968
0.16224152
0.16279164
0.15085376
0.15108288
0.15130708
0.15152607
0.1517393
0.1519465
0.1521475
0.15234219
0.15253053
0.15271225
0.15288814
0.1530584
0.15322203
0.15338157
0.15353362
0.15368174
0.15382637
0.1539671
0.15410455
0.15423941
0.15437236
0.15450419
0.15463568
0.15476765
0.15490101
0.15503667
0.15517563
0.15531889
0.15546753
0.15562265
0.15578536
0.15595683
0.15613825
0.15633083
0.15653567
0.1567524
0.15697845
0.15722581
0.15749152
0.1577756
0.15807921
0.15840349
0.15874954
0.1591184
0.15951104
0.1599284
0.16037135
0.16084071
0.16133727
0.1618617
0.16241449
0.14988791
0.15015286
0.15041103
0.15066211
0.15090578
0.15114183
0.15137018
0.15159081
0.15180374
0.15200899
0.15220702
0.15239803
0.15258193
0.15275972
0.15293065
0.15309697
0.15325596
0.15341184
0.15356363
0.15371201
0.15385769
0.15400157
0.15414442
0.1542871
0.15443053
0.15457567
0.15472352
0.15487514
0.15503161
0.15519406
0.15536364
0.15554152
0.15572893
0.15592715
0.15613779
0.15635621
0.15658829
0.15684067
0.15711026
0.15739796
0.15770498
0.15803245
0.1583815
0.15875319
0.15914851
0.15956841
0.16001379
0.1604855
0.1609844
0.16151126
0.16206654
0.14897896
0.1492784
0.14956916
0.14985106
0.15012389
0.15038757
0.15064209
0.15088751
0.15112394
0.15135155
0.15157068
0.15178161
0.15198456
0.15218011
0.15236836
0.15255032
0.15272562
0.15289683
0.15306066
0.15322184
0.15337954
0.15353487
0.1536885
0.15384132
0.15399429
0.1541484
0.15430468
0.15446421
0.1546281
0.15479749
0.15497357
0.15515752
0.15535058
0.155554
0.15576929
0.15599071
0.1562286
0.15648519
0.15675844
0.15704957
0.15735979
0.15769027
0.15804215
0.15841649
0.15881433
0.15923659
0.1596842
0.16015804
0.16065907
0.16118819
0.16174583
0.14812565
0.14845809
0.14878004
0.14909139
0.14939207
0.1496821
0.14996156
0.15023058
0.15048937
0.15073818
0.15097736
0.15120725
0.1514282
0.15164071
0.15184516
0.15204226
0.15223233
0.15241673
0.15259548
0.15276747
0.15293595
0.15310217
0.153266
0.15342841
0.15359039
0.15375296
0.15391719
0.15408418
0.15425507
0.15443103
0.15461324
0.15480292
0.1550013
0.15520954
0.15542874
0.15565382
0.15589712
0.15615746
0.15643417
0.15672852
0.15704176
0.15737506
0.15772959
0.15810643
0.15850661
0.15893107
0.15938072
0.15985644
0.16035937
0.16089065
0.16145053
0.14732656
0.14769049
0.14804214
0.14838153
0.14870869
0.14902375
0.14932688
0.1496183
0.14989828
0.15016714
0.15042529
0.15067312
0.15091107
0.15113964
0.15135933
0.15157079
0.15177457
0.15197163
0.15216242
0.15234771
0.15252618
0.15270167
0.15287514
0.15304657
0.153217
0.15338752
0.15355923
0.15373325
0.15391073
0.15409286
0.15428086
0.15447594
0.15467934
0.15489213
0.15511427
0.15534372
0.15559192
0.15585572
0.15613567
0.15643304
0.1567491
0.15708505
0.15744206
0.15782124
0.15822361
0.15865012
0.15910163
0.15957897
0.16008352
0.16061696
0.16117893
0.14658017
0.14697401
0.14735385
0.14771982
0.14807207
0.14841082
0.14873633
0.1490489
0.14934888
0.14963667
0.1499127
0.15017744
0.15043139
0.15067509
0.1509091
0.15113408
0.15135068
0.15155971
0.15176182
0.15195766
0.15214738
0.15233362
0.15251419
0.15269407
0.15287242
0.15305038
0.15322908
0.15340968
0.15359335
0.15378128
0.15397471
0.15417487
0.15438304
0.15460046
0.15482358
0.15505902
0.15531127
0.15557829
0.15586125
0.15616145
0.15648015
0.15681858
0.15717791
0.15755927
0.1579637
0.15839213
0.15884537
0.15932401
0.14588487
0.146307
0.14671349
0.14710456
0.14748049
0.14784157
0.14818815
0.14852063
0.14883943
0.149145
0.14943783
0.14971846
0.14998742
0.15024531
0.15049274
0.1507304
0.15095898
0.15117927
0.151392
0.15159788
0.15179754
0.15199249
0.15218337
0.15236929
0.152555
0.15273989
0.1529251
0.15311185
0.15330131
0.15349467
0.15369318
0.15389811
0.15411077
0.15433128
0.15455714
0.15479786
0.15505353
0.15532358
0.15560936
0.1559122
0.15623336
0.15657409
0.15693559
0.15731899
0.15772535
0.15815562
0.15861054
0.14523895
0.14568775
0.14611932
0.14653401
0.14693217
0.14731422
0.14768059
0.14803174
0.14836817
0.14869039
0.14899895
0.14929444
0.14957744
0.14984859
0.15010856
0.15035806
0.15059782
0.15082863
0.15105129
0.15126657
0.15147527
0.15167853
0.15187725
0.15207242
0.15226322
0.1524545
0.15264574
0.1528382
0.15303305
0.1532315
0.15343477
0.15364414
0.15386141
0.15408305
0.15431329
0.15455856
0.15481725
0.15509012
0.15537853
0.15568381
0.15600726
0.15635014
0.15671365
0.15709895
0.15750713
0.15793916
0.15839598
0.14464064
0.14511447
0.14556957
0.14600638
0.14642536
0.14682702
0.14721188
0.14758047
0.14793335
0.14827111
0.14859435
0.14890368
0.14919977
0.14948328
0.14975492
0.15001543
0.15026559
0.15050621
0.1507381
0.15096213
0.15117914
0.15139017
0.1515962
0.15179825
0.15199733
0.15219278
0.15238951
0.15258727
0.15278713
0.15299032
0.15319802
0.15341142
0.15363209
0.15385578
0.15409088
0.15433961
0.15460106
0.15487653
0.15516737
0.15547492
0.15580048
0.15614535
0.15651073
0.15689781
0.15730767
0.15774137
0.15819993
0.14408814
0.14458537
0.14506243
0.14551987
0.14595826
0.1463782
0.14678026
0.14716508
0.14753327
0.14788547
0.14822233
0.14854453
0.14885276
0.14914774
0.14943021
0.14970094
0.14996074
0.15021044
0.15045091
0.15068302
0.1509077
0.15112592
0.15133873
0.15154717
0.15175228
0.15195507
0.15215504
0.15235767
0.15256215
0.15276979
0.15298162
0.15319867
0.15342171
0.15364852
0.15388805
0.15413962
0.15440364
0.1546815
0.15497459
0.15528423
0.15561176
0.15595845
0.15632557
0.15671428
0.15712572
0.15756097
0.15802109
0.14357959
0.14409861
0.14459609
0.14507269
0.14552909
0.14596597
0.146384
0.14678386
0.14716623
0.1475318
0.14788127
0.14821537
0.14853484
0.14884042
0.14913289
0.14941306
0.14968177
0.14993986
0.15018824
0.15042782
0.15065954
0.15088441
0.15110346
0.15131777
0.15152843
0.15173655
0.15194271
0.15214813
0.15235679
0.15256863
0.15278435
0.1530048
0.1532287
0.15346036
0.15370331
0.15395737
0.15422375
0.15450383
0.15479897
0.15511054
0.15543987
0.15578826
0.15615697
0.15654719
0.15696007
0.15739674
0.15785827
0.14311314
0.14365234
0.14416871
0.14466303
0.14513608
0.14558861
0.14602138
0.14643511
0.14683056
0.14720846
0.14756956
0.14791463
0.14824444
0.14855978
0.14886146
0.14915032
0.14942722
0.14969304
0.1499487
0.15019514
0.15043333
0.15066429
0.15088907
0.15110876
0.15132448
0.15153732
0.15174814
0.15195907
0.15216971
0.15238567
0.15260513
0.15282697
0.15305405
0.15328973
0.15353531
0.1537917
0.15406025
0.15434236
0.15463939
0.15495273
0.15528371
0.15563365
0.15600382
0.15639542
0.15680963
0.15724759
0.15771038
0.14268694
0.14324473
0.14377847
0.14428909
0.14477745
0.14524439
0.1456907
0.14611718
0.14652464
0.14691386
0.14728563
0.14764076
0.14798006
0.14830435
0.14861448
0.1489113
0.14919571
0.1494686
0.14973093
0.14998366
0.15022777
0.15046429
0.15069431
0.15091892
0.15113925
0.15135643
0.15157148
0.15178607
0.15200115
0.15221978
0.15244137
0.15266609
0.15289662
0.15313512
0.15338299
0.15364151
0.15391206
0.15419602
0.15449478
0.15480973
0.15514223
0.15549358
0.15586508
0.15625795
0.15667337
0.15711249
0.15757641
0.13902139
0.13973395
0.1404169
0.1410713
0.14169833
0.14229921
0.14287392
0.14342356
0.14394911
0.14445149
0.14493159
0.1453903
0.14582845
0.14624689
0.14664645
0.14702797
0.14739229
0.14774026
0.14807272
0.14839055
0.14869464
0.14898589
0.14926525
0.14953366
0.14979211
0.15004161
0.15028322
0.15051801
0.1507471
0.15097163
0.15119276
0.15141163
0.15162969
0.1518483
0.15206939
0.15229343
0.15252116
0.15275445
0.15299532
0.15324531
0.15350579
0.15377815
0.1540638
0.15436414
0.15468056
0.15501443
0.15536707
0.15573978
0.15613379
0.15655031
0.15699049
0.15745542
0.13857499
0.13930944
0.14001275
0.14068613
0.14133082
0.14194796
0.14253807
0.14310219
0.14364133
0.14415647
0.14464858
0.14511856
0.14556732
0.14599575
0.14640472
0.14679511
0.14716779
0.14752362
0.14786351
0.14818834
0.14849902
0.1487965
0.14908171
0.14935564
0.14961929
0.14987368
0.15011989
0.15035901
0.15059216
0.15082051
0.15104523
0.15126752
0.15148877
0.1517104
0.15193394
0.15216036
0.15239063
0.15262634
0.15286938
0.15312131
0.15338357
0.15365758
0.15394476
0.15424653
0.15456428
0.15489939
0.1552532
0.155627
0.15602206
0.15643956
0.15688069
0.15734653
0.13817178
0.13892615
0.13964797
0.14033859
0.1409993
0.14163127
0.14223535
0.14281258
0.14336403
0.14389074
0.14439371
0.14487391
0.14533227
0.14576974
0.14618723
0.14658563
0.14696586
0.14732881
0.1476754
0.14800656
0.1483232
0.14862629
0.14891679
0.1491957
0.14946404
0.14972286
0.14997322
0.15021624
0.15045306
0.15068485
0.15091281
0.15113818
0.15136229
0.15158657
0.15181244
0.15204106
0.15227355
0.15251141
0.1527564
0.15301009
0.15327396
0.15354946
0.15383802
0.15414108
0.15446003
0.15479625
0.15515111
0.1555259
0.15592189
0.15634028
0.15678225
0.15724891
0.13780963
0.13858201
0.13932056
0.14002674
0.1407019
0.1413473
0.14196396
0.14255301
0.14311555
0.14365267
0.14416541
0.1446548
0.14512181
0.14556741
0.14599255
0.14639816
0.14678517
0.14715452
0.14750714
0.14784397
0.14816597
0.1484741
0.14876935
0.14905274