/*--------------------------------*- C++ -*----------------------------------*\
| =========                 |                                                 |
| \\      /  F ield         | OpenFOAM: The Open Source CFD Toolbox           |
|  \\    /   O peration     | Version:  2312                                  |
|   \\  /    A nd           | Website:  www.openfoam.com                      |
|    \\/     M anipulation  |                                                 |
\*---------------------------------------------------------------------------*/
FoamFile
{
    version     2.0;
    format      ascii;
    arch        "LSB;label=32;scalar=64";
    class       volScalarField;
    location    "0.06";
    object      omega;
}
// * * * * * * * * * * * * * * * * * * * * * * * * * * * * * * * * * * * * * //

dimensions      [0 0 -1 0 0 0 0];

internalField   nonuniform List<scalar> 
3272
(
379.90426
379.98761
380.02514
380.01715
379.96193
379.85666
379.69826
379.48439
379.21389
378.8865
378.50225
378.06104
377.56248
377.00608
376.39136
375.71805
374.98599
374.19511
373.34532
372.43643
371.46819
370.44049
369.35346
368.20765
367.00402
365.74376
364.42793
363.05699
361.63156
360.15142
358.61681
357.02805
355.38572
353.69063
351.94372
350.14602
348.29864
346.40277
344.45971
342.47077
340.4372
338.3602
336.24086
334.08026
331.87957
329.64013
327.36354
325.05164
322.70645
320.33014
317.92484
315.49255
313.03503
380.78286
380.84763
380.86615
380.83795
380.76125
380.63372
380.45296
380.21708
379.92498
379.57616
379.17035
378.70722
378.18636
377.60732
376.96975
376.27349
375.5185
374.70487
373.83266
372.90183
371.9123
370.86415
369.7575
368.59287
367.37105
366.09299
364.75963
363.3715
361.92911
360.43265
358.88236
357.27865
355.62215
353.91366
352.15409
350.34441
348.48568
346.57903
344.62567
342.62687
340.58384
338.49778
336.3698
334.20102
331.99263
329.746
327.46272
325.14458
322.79361
320.41196
318.00185
315.5653
313.10298
381.00042
381.03383
381.01992
380.95757
380.84513
380.68083
380.46302
380.19038
379.86199
379.47727
379.03582
378.53724
377.98119
377.36736
376.69557
375.96577
375.17809
374.33275
373.42997
372.46985
371.45239
370.37807
369.24691
368.05939
366.81615
365.51792
364.16546
362.75935
361.30012
359.78817
358.22391
356.60787
354.94072
353.22322
351.45622
349.64061
347.77735
345.86747
343.91213
341.91242
339.86955
337.78465
335.65887
333.49334
331.28929
329.04808
326.77124
324.46049
322.11772
319.74496
317.34428
314.91755
312.4653
381.42057
381.42281
381.37562
381.27744
381.12683
380.92253
380.66343
380.3487
379.97771
379.55002
379.06533
378.52337
377.92395
377.26696
376.55241
375.7804
374.95117
374.06514
373.12267
372.12415
371.06951
369.95965
368.79453
367.5747
366.30075
364.97333
363.59307
362.1606
360.67647
359.14125
357.55549
355.91981
354.2349
352.50153
350.72046
348.89256
347.01874
345.09987
343.13705
341.13133
339.08379
336.99555
334.86772
332.70146
330.498
328.25867
325.98494
323.67841
321.34084
318.97408
316.58005
314.1605
311.71599
382.16027
382.12021
382.02874
381.88417
381.68527
381.43113
381.12105
380.75451
380.33119
379.85088
379.31343
378.71881
378.06703
377.35819
376.59246
375.77007
374.89127
373.95685
372.96715
371.92262
370.82372
369.67091
368.46466
367.20552
365.89404
364.53084
363.11654
361.65176
360.1371
358.57321
356.96072
355.30028
353.59261
351.83845
350.03858
348.19376
346.3048
344.37264
342.3982
340.38246
338.32643
336.23118
334.09777
331.92734
329.72109
327.48029
325.20634
322.90073
320.56506
318.20104
315.81045
313.39493
310.95518
383.55845
383.4511
383.29042
383.07499
382.80392
382.47665
382.09281
381.65223
381.15486
380.60073
379.98996
379.32276
378.59934
377.82003
376.98517
376.09518
375.15049
374.15177
373.09952
371.99443
370.83697
369.62776
368.36738
367.05641
365.69544
364.28508
362.82594
361.31865
359.76383
358.16213
356.51421
354.82073
353.08238
351.29989
349.47398
347.60537
345.69478
343.7431
341.75115
339.71984
337.65008
335.54285
333.39917
331.2201
329.00675
326.76034
324.48213
322.17351
319.83595
317.471
315.08029
312.66539
310.22714
385.91122
385.7093
385.45171
385.13758
384.76654
384.33845
383.85336
383.31144
382.71298
382.05833
381.34793
380.58223
379.76176
378.88705
377.95868
376.97725
375.94334
374.85768
373.72091
372.53381
371.29704
370.0113
368.67723
367.29548
365.86668
364.39145
362.87043
361.30425
359.69352
358.0389
356.34103
354.60055
352.8181
350.99437
349.13004
347.22576
345.28221
343.30014
341.28033
339.22357
337.13068
335.00255
332.84009
330.64427
328.41611
326.15669
323.86718
321.54881
319.2029
316.83088
314.43423
312.01441
309.5724
389.3053
388.98763
388.61135
388.17633
387.68275
387.13101
386.5216
385.85512
385.13226
384.35374
383.52033
382.63281
381.69201
380.69875
379.65387
378.55816
377.41243
376.21759
374.97429
373.68349
372.34605
370.96276
369.53433
368.0615
366.54495
364.98536
363.38338
361.73966
360.05484
358.32954
356.56441
354.76005
352.91709
351.03615
349.11783
347.16279
345.17163
343.145
341.0836
338.98811
336.85927
334.69787
332.50471
330.28064
328.02659
325.7435
323.43242
321.09443
318.73072
316.34255
313.93126
311.49824
309.04456
393.65487
393.20648
392.69625
392.12478
391.49286
390.80141
390.05142
389.24395
388.38008
387.46095
386.48767
385.46139
384.38323
383.2543
382.0757
380.84843
379.5736
378.25248
376.88552
375.47394
374.01879
372.52096
370.98129
369.40058
367.7796
366.11908
364.41973
362.68221
360.9072
359.09532
357.2472
355.36344
353.44465
351.49138
349.50421
347.48374
345.43056
343.34524
341.22836
339.08055
336.90246
334.69477
332.45819
330.19347
327.90141
325.58286
323.23872
320.86995
318.47759
316.06277
313.62671
311.17072
308.69605
398.80202
398.21098
397.55501
396.8354
396.05351
395.21078
394.30868
393.34873
392.33242
391.26125
390.13673
388.96031
387.73343
386.45747
385.13378
383.7636
382.34823
380.88901
379.38689
377.8431
376.25874
374.63482
372.97231
371.27209
369.53501
367.76187
365.95342
364.11039
362.23344
360.32323
358.38038
356.40549
354.39916
352.36189
350.29422
348.19669
346.06993
343.91441
341.73065
339.51918
337.28059
335.01548
332.72446
330.40821
328.06741
325.7028
323.31517
320.90537
318.4743
316.02297
313.55248
404.58668
403.84165
403.02908
402.15088
401.20897
400.20527
399.14172
398.02025
396.84275
395.61108
394.32706
392.99246
391.60898
390.1783
388.70194
387.18136
385.61808
384.01352
382.36896
380.68569
378.96488
377.20766
375.41508
373.5881
371.72764
369.83456
367.90965
365.95366
363.96729
361.9512
359.90601
357.83233
355.73072
353.60168
351.44568
349.26318
347.05487
344.82116
342.56246
340.27926
337.97207
335.64141
333.28784
330.91191
328.51425
326.09549
323.65632
321.19747
318.71975
316.22403
313.71136
410.87309
409.96239
408.98225
407.93514
406.8235
405.64971
404.41613
403.12507
401.77878
400.37944
398.92917
397.42999
395.88385
394.29263
392.65808
390.98195
389.26567
387.5109
385.71915
383.89175
382.02997
380.135
378.20796
376.24988
374.26172
372.24438
370.19868
368.12539
366.02523
363.89884
361.74685
359.56985
357.36836
355.14288
352.89384
350.6217
348.32698
346.01012
343.67147
341.31145
338.93051
336.52908
334.10765
331.66671
329.20677
326.7284
324.23221
321.71881
319.18892
316.6433
314.0829
417.55106
416.46288
415.30418
414.07796
412.7871
411.43444
410.02269
408.55451
407.03247
405.45904
403.83657
402.16734
400.45348
398.69694
396.89962
395.06427
393.19109
391.28259
389.3403
387.36561
385.35986
383.32428
381.26005
379.16823
377.04981
374.9057
372.73675
370.54373
368.32734
366.08823
363.827
361.54421
359.24037
356.91591
354.57126
352.20683
349.82305
347.4203
344.99891
342.55921
340.10157
337.62637
335.13401
332.6249
330.09948
327.55823
325.00166
322.43031
319.8448
317.24579
314.63411
424.52918
423.25217
421.90445
420.48948
419.01056
417.47088
415.87351
414.22141
412.51741
410.76421
408.9644
407.12044
405.2346
403.30899
401.34574
399.34701
397.31436
395.24961
393.15441
391.03024
388.8785
386.70046
384.49732
382.27015
380.01997
377.74769
375.45414
373.14008
370.80621
368.45314
366.08146
363.69168
361.28426
358.85961
356.4181
353.96009
351.48595
348.996
346.49048
343.96967
341.43387
338.88338
336.31851
333.7396
331.147
328.54111
325.92235
323.29119
320.64814
317.99376
315.32876
431.72803
430.25198
428.7059
427.09366
425.41892
423.68519
421.89584
420.05408
418.16295
416.22535
414.24402
412.22159
410.1604
408.06278
405.9309
403.76684
401.57251
399.34967
397.09997
394.82494
392.52599
390.20442
387.86143
385.4981
383.11542
380.71431
378.29558
375.85996
373.40811
370.94064
368.45808
365.9609
363.44949
360.92423
358.38545
355.83343
353.26848
350.69085
348.10072
345.49829
342.88377
340.25739
337.61938
334.96999
332.3095
329.63821
326.95646
324.26462
321.56312
318.85242
316.1331
439.07598
437.39228
435.64007
433.82358
431.94677
430.01344
428.02716
425.99135
423.90924
421.78385
419.61808
417.41457
415.17586
412.90433
410.60219
408.27159
405.91447
403.53262
401.1277
398.70125
396.25468
393.78928
391.30624
388.80663
386.29143
383.76151
381.21767
378.6606
376.09091
373.5092
370.91593
368.31152
365.69631
363.07062
360.43471
357.78882
355.13319
352.46801
349.79335
347.10935
344.41615
341.71389
339.00271
336.28279
333.5543
330.81748
328.07256
325.31984
322.55964
319.79235
317.01839
446.50729
444.6092
442.64496
440.61903
438.53566
436.39881
434.21227
431.97958
429.70409
427.38897
425.03711
422.65128
420.23409
417.78791
415.31508
412.8177
410.29772
407.75694
405.19701
402.61945
400.02567
397.41694
394.79442
392.15915
389.51207
386.85404
384.1858
381.508
378.8212
376.12597
373.42271
370.71176
367.99343
365.26797
362.53558
359.79644
357.05071
354.29852
351.53987
348.7748
346.00338
343.22567
340.44172
337.65162
334.85547
332.0534
329.24558
326.4322
323.61349
320.78975
317.9613
453.96159
451.84444
449.66418
447.42553
445.13288
442.79036
440.40187
437.97106
435.50136
432.99594
430.45778
427.88971
425.2943
422.67404
420.0312
417.36787
414.68599
411.98734
409.27354
406.5461
403.80639
401.05563
398.29496
395.52537
392.74778
389.96298
387.17168
384.37448
381.57189
378.76441
375.95239
373.13612
370.31583
367.49172
364.66393
361.83256
358.99773
356.15949
353.31775
350.47248
347.62367
344.77128
341.91529
339.05572
336.19256
333.32587
330.45572
327.58221
324.70551
321.8258
318.94331
461.38411
459.04522
456.64693
454.19409
451.69123
449.14258
446.55209
443.92347
441.26012
438.56528
435.84196
433.09296
430.3209
427.52822
424.71715
421.88975
419.04792
416.1934
413.3278
410.45255
407.56898
404.67829
401.78155
398.87972
395.97364
393.06408
390.15167
387.23698
384.32047
381.40256
378.48353
375.56362
372.64301
369.72182
366.80012
363.87797
360.95542
358.03245
355.10889
352.18463
349.25957
346.3336
343.40663
340.47856
337.54934
334.61891
331.68727
328.75444
325.82049
322.88556
468.726
466.16462
463.54809
460.88136
458.16902
455.41534
452.6243
449.79955
446.94451
444.06244
441.1563
438.2289
435.28282
432.32043
429.34391
426.35526
423.35635
420.34885
417.33431
414.31412
411.28954
408.26173
405.23168
402.20032
399.16842
396.13668
393.10569
390.07599
387.04794
384.0219
380.99809
377.97671
374.95785
371.94158
368.92788
365.91675
362.90824
359.90222
356.89845
353.89672
350.89687
347.89871
344.90207
341.90678
338.91268
335.91966
332.92762
329.93648
326.94624
323.95688
475.94459
473.16174
470.32844
467.44967
464.53007
461.57388
458.58501
455.56712
452.52358
449.45758
446.37209
443.26984
440.15332
437.02484
433.88651
430.74028
427.58793
424.43108
421.2712
418.10963
414.94755
411.78604
408.62607
405.46846
402.31396
399.16319
396.01665
392.87487
389.73815
386.60673
383.48081
380.36051
377.24588
374.13689
371.03347
367.93555
364.84316
361.7561
358.67402
355.59665
352.52376
349.45508
346.39035
343.32934
340.27182
337.21758
334.16643
331.11824
328.07289
325.03029
483.00346
480.00171
476.95459
473.86707
470.74367
467.58865
464.40592
461.19895
457.9711
454.7255
451.46501
448.19228
444.90973
441.61956
438.32382
435.02437
431.7229
428.42097
425.11996
421.82112
418.52559
415.23437
411.94833
408.66826
405.39485
402.12866
398.86997
395.6195
392.37735
389.1437
385.9187
382.7024
379.4948
376.29582
373.10527
369.92305
366.7492
363.58337
360.42517
357.27425
354.13031
350.99301
347.86203
344.73705
341.61776
338.50388
335.39515
332.29134
329.19228
326.0978
489.87224
486.65554
483.39883
480.10695
476.78437
473.43531
470.06355
466.67251
463.26543
459.84531
456.41493
452.97681
449.53329
446.08647
442.6383
439.19055
435.74482
432.30258
428.86512
425.43363
422.00915
418.5926
415.18478
411.78642
408.39812
405.02039
401.65356
398.29805
394.95402
391.62159
388.30083
384.99175
381.69427
378.40824
375.13345
371.86975
368.61708
365.375
362.14309
358.92094
355.70816
352.50437
349.30916
346.12214
342.94294
339.77119
336.60657
333.44877
330.29755
496.52632
493.09973
489.63868
486.14789
482.6317
479.09422
475.53912
471.96973
468.38913
464.80022
461.20562
457.60778
454.00887
450.41093
446.81577
443.22508
439.64037
436.06298
432.49415
428.93496
425.38636
421.84921
418.32421
414.81202
411.31319
407.82815
404.35722
400.90064
397.45857
394.03106
390.61812
387.2197
383.83565
380.46578
377.10984
373.76763
370.43899
367.12339
363.82038
360.5295
357.2503
353.98231
350.72507
347.47812
344.24102
341.01333
337.79465
334.5846
331.38287
502.94636
499.3159
495.65665
491.97316
488.26969
484.55012
480.818
477.07652
473.32866
469.57714
465.82448
462.07297
458.32468
454.5815
450.84514
447.1172
443.39906
439.69199
435.99711
432.31543
428.64781
424.995
421.35765
417.73633
414.13153
410.54362
406.97284
403.41935
399.88324
396.36454
392.86318
389.37903
385.91191
382.46156
379.02769
375.61008
372.20847
368.82225
365.45091
362.09395
358.75086
355.42111
352.10418
348.79954
345.50668
342.2251
338.95433
335.69393
332.44351
509.11788
505.29033
501.4397
497.5704
493.68648
489.79165
485.88928
481.98244
478.07394
474.16637
470.2621
466.3633
462.47189
458.58964
454.71807
450.85879
447.01302
443.18191
439.3665
435.5677
431.78629
428.02294
424.27821
420.5526
416.84654
413.1603
409.49406
405.84793
402.22194
398.61604
395.03012
391.46399
387.9174
384.39005
380.88161
377.39182
373.92033
370.46648
367.02968
363.60941
360.20508
356.81611
353.44192
350.08193
346.73556
343.40224
340.08145
336.77267
333.47547
515.03066
511.01339
506.97873
502.93093
498.87381
494.8109
490.74541
486.68022
482.61799
478.56116
474.51197
470.47244
466.44433
462.42929
458.42877
454.44415
450.47663
446.52724
442.59691
438.68647
434.79661
430.9279
427.08085
423.25588
419.4533
415.67334
411.91613
408.1817
404.47003
400.78102
397.11447
393.47016
389.84778
386.24696
382.66736
379.10868
375.57049
372.05205
368.55275
365.07198
361.60913
358.16355
354.73462
351.32168
347.92411
344.54128
341.17259
337.81748
520.6782
516.47898
512.26802
508.04934
503.82656
499.60302
495.38173
491.1654
486.95651
482.75735
478.57006
474.39646
470.23819
466.09675
461.97348
457.86963
453.7863
449.72444
445.68484
441.66826
437.67531
433.70646
429.76217
425.84274
421.94843
418.0794
414.23572
410.41736
406.62423
402.85618
399.11297
395.39431
391.69983
388.02912
384.3818
380.75756
377.15587
373.57593
370.01709
366.4787
362.96007
359.46054
355.9794
352.51596
349.06954
345.63946
342.22506
338.82574
526.05717
521.68407
517.30476
512.92304
508.54232
504.16573
499.79609
495.43592
491.08751
486.75301
482.43447
478.1335
473.85161
469.59016
465.35038
461.13338
456.94017
452.77163
448.6284
444.51115
440.42045
436.35666
432.32015
428.31118
424.3299
420.37642
416.45074
412.55279
408.68242
404.83941
401.02347
397.23427
393.47138
389.73434
386.02275
382.33628
378.67428
375.03594
371.42054
367.82738
364.25575
360.70491
357.17413
353.66266
350.16976
346.69471
343.23679
339.79536
531.16695
526.6282
522.08864
517.55183
513.02095
508.49895
503.98843
499.49174
495.01097
490.54809
486.10514
481.68346
477.28444
472.90933
468.55922
464.2351
459.93788
455.66838
451.42709
447.21461
443.03141
438.8778
434.75406
430.66036
426.59682
422.56345
418.56021
414.58695
410.64349
406.72954
402.84478
398.9888
395.16115
391.3613
387.58886
383.84348
380.12435
376.43065
372.76164
369.11657
365.49468
361.89519
358.31732
354.76027
351.22326
347.70552
344.20628
340.72486
536.00919
531.31309
526.62142
521.93747
517.26424
512.60442
507.96046
503.33452
498.72848
494.14414
489.58354
485.04772
480.53797
476.05544
471.60109
467.1758
462.78036
458.41546
454.08159
449.77919
445.50867
441.27026
437.06417
432.89051
428.7493
424.64052
420.56405
416.5197
412.50722
408.52629
404.57652
400.65748
396.76864
392.90947
389.07956
385.2785
381.50536
377.75933
374.03963
370.34546
366.67602
363.0305
359.40805
355.80786
352.22908
348.6709
345.13252
341.61321
540.58743
535.74225
530.90656
526.08339
521.27551
516.48542
511.71535
506.9673
502.24301
497.54411
492.87234
488.22883
483.61465
479.03081
474.47818
469.95751
465.46949
461.0147
456.59357
452.20645
447.85365
443.53535
439.25168
435.00267
430.7883
426.60846
422.463
418.35166
414.27415
410.23009
406.21906
402.24057
398.29404
394.37894
390.49486
386.64128
382.81721
379.02181
375.25427
371.51376
367.79944
364.11045
360.44592
356.80497
353.18673
349.59034
346.01496
342.45983
544.90677
539.92061
534.94891
529.99434
525.05941
520.14643
515.25746
510.39431
505.5586
500.75178
495.97535
491.2304
486.5179
481.83871
477.19359
472.58319
468.00808
463.46873
458.96551
454.49871
450.06854
445.6751
441.31847
436.99861
432.71544
428.46879
424.25844
420.08411
415.94543
411.842
407.77334
403.73891
399.73811
395.77039
391.83534
387.93233
384.06031
380.21842
376.40583
372.62168
368.86508
365.13513
361.43093
357.75156
354.09613
350.46371
346.85344
343.26451
548.97345
543.85434
538.75446
533.67611
528.62157
523.59293
518.59207
513.62065
508.68016
503.77188
498.89709
494.05682
489.25192
484.48316
479.75117
475.05649
470.39958
465.78085
461.20057
456.65895
452.15614
447.69218
443.26706
438.8807
434.53294
430.22357
425.95232
421.71884
417.52274
413.36357
409.24079
405.15384
401.10206
397.08493
393.10203
389.15256
385.23549
381.34992
377.49499
373.66981
369.87345
366.10499
362.36348
358.64798
354.95754
351.29122
347.6481
344.02736
552.79465
547.55049
542.33006
537.13536
531.96843
526.83114
521.72523
516.65215
511.61331
506.60982
501.64275
496.71307
491.82151
486.96875
482.15531
477.38162
472.64805
467.95489
463.30239
458.69066
454.11978
449.58973
445.10044
440.65175
436.24348
431.87534
427.54701
423.25811
419.0082
414.79677
410.62328
406.48708
402.38751
398.32407
394.29633
390.3033
386.34395
382.41741
378.52276
374.65908
370.82542
367.02081
363.24427
359.49484
355.77153
352.07336
348.3994
344.74877
556.37811
551.01679
545.68321
540.37934
535.107
529.86785
524.66349
519.49516
514.36418
509.27151
504.21803
499.20463
494.23192
489.30054
484.41086
479.56323
474.75791
469.99513
465.27504
460.59772
455.96316
451.37128
446.82195
442.31497
437.85009
433.42697
429.04526
424.70451
420.40424
416.14393
411.92298
407.7407
403.59641
399.48966
395.41994
391.38611
387.3872
383.42229
379.49044
375.59071
371.7221
367.88362
364.07427
360.29304
356.53891
352.81089
349.10801
345.42935
559.73231
554.26129
548.82182
543.41575
538.04474
532.71029
527.41382
522.15645
516.93928
511.76322
506.62895
501.53733
496.48877
491.48392
486.523
481.60629
476.73394
471.90611
467.12291
462.38432
457.69029
453.04066
448.43526
443.87384
439.35609
434.88163
430.45005
426.06088
421.71359
417.40762
413.14233
408.917
404.73095
400.58377
396.4748
392.40286
388.36697
384.36619
380.39958
376.46613
372.56485
368.6947
364.85466
361.04367
357.26071
353.50475
349.77481
346.06993
579.77267
574.10865
568.4723
562.86598
557.2925
551.75412
546.25258
540.78941
535.36596
529.98347
524.64296
519.34536
514.09146
508.88185
503.71722
498.59789
493.52451
488.49714
483.516
478.58112
473.69262
468.85057
464.05487
459.30537
454.60191
449.94423
445.33205
440.765
436.24268
431.76462
427.3303
422.93916
418.5906
414.28397
410.01851
405.79351
401.60866
397.46307
393.35557
389.28517
385.25094
381.25188
377.28697
373.35519
369.45548
365.58677
361.74799
357.9381
354.15604
350.40082
346.67146
583.00443
577.23323
571.49371
565.78823
560.11919
554.48857
548.89803
543.34894
537.84254
532.37988
526.96188
521.58933
516.26291
510.98311
505.75049
500.56531
495.42809
490.33881
485.29768
480.30458
475.3596
470.46277
465.61391
460.81279
456.05921
451.35286
446.69343
442.08051
437.51365
432.99232
428.51597
424.08401
419.69581
415.35068
411.04786
406.78665
402.56674
398.38703
394.2464
390.14388
386.07848
382.0492
378.05499
374.0948
370.16753
366.27211
362.40742
358.57239
354.766
350.98721
347.23504
586.01262
580.14161
574.30606
568.50823
562.7502
557.03376
551.36039
545.73137
540.14777
534.61054
529.12046
523.67821
518.28433
512.93927
507.64342
502.39704
497.20047
492.05369
486.95677
481.90954
476.91204
471.96433
467.06608
462.217
457.41684
452.66527
447.96193
443.30639
438.69813
434.1366
429.62121
425.15132
420.72626
416.34535
412.00784
407.71303
403.46051
399.24907
395.07765
390.94525
386.85088
382.7935
378.77204
374.78543
370.83254
366.91225
363.02344
359.16501
355.33595
351.53525
347.76187
588.80731
582.84355
576.9188
571.03513
565.19441
559.39825
553.64797
547.94471
542.28944
536.68296
531.12596
525.619
520.16251
514.75687
509.40235
504.09916
498.84751
493.64738
488.49868
483.40124
478.355
473.36011
468.41605
463.5225
458.67913
453.88561
449.14153
444.44644
439.79979
435.20098
430.64937
426.1443
421.68506
417.27093
412.90126
408.57534
404.29254
400.05166
395.85166
391.69154
387.57028
383.48682
379.44007
375.42893
371.45225
367.50888
363.59764
359.71744
355.86729
352.04627
348.25322
591.39852
585.34876
579.34128
573.37802
567.46064
561.59056
555.76899
549.99694
544.27524
538.6046
532.98559
527.41866
521.90417
516.44239
511.03353
505.67771
500.37505
495.12548
489.92885
484.78488
479.69353
474.65495
469.66849
464.73376
459.8504
455.01803
450.23622
445.50451
440.82232
436.18899
431.60385
427.06621
422.57532
418.13042
413.731
409.37629
405.06543
400.79728
396.57082
392.38502
388.23886
384.13124
380.06107
376.0272
372.02848
368.06371
364.13168
360.23122
356.36149
352.5217
348.71046
593.79616
587.66682
581.5828
575.54589
569.55757
563.61912
557.73161
551.89592
546.11279
540.3828
534.70644
529.08406
523.51594
518.00226
512.54315
507.13867
501.78886
496.49358
491.25263
486.06568
480.93259
475.85368
470.828
465.85523
460.93494
456.06667
451.24998
446.48442
441.76938
437.10416
432.48803
427.92029
423.40018
418.92682
414.49994
410.11864
405.78183
401.48847
397.23754
393.02801
388.85882
384.72888
380.63704
376.58217
372.56307
368.57851
364.62723
360.70795
596.00996
589.80714
583.65247
577.54755
571.49374
565.49217
559.54379
553.64937
547.80954
542.02478
536.29549
530.62195
525.00434
519.44277
513.9373
508.48793
503.0946
497.75716
492.47533
487.24876
482.07724
476.96094
471.8991
466.89126
461.93695
457.0356
452.18673
447.38995
442.64462
437.94998
433.30526
428.70977
424.16274
419.66312
415.21096
410.80509
406.44434
402.12773
397.85423
393.62281
389.43239
385.28184
381.17002
377.09576
373.05786
369.05505
365.08604
598.04946
591.77895
585.55918
579.39162
573.27748
567.21779
561.21335
555.26484
549.37279
543.5376
537.75957
532.03891
526.37573
520.77007
515.22191
509.73121
504.29782
498.92156
493.6021
488.33908
483.13222
477.98148
472.88629
467.84615
462.86057
457.92882
453.05035
448.22482
443.4516
438.7299
434.05886
429.4378
424.86603
420.34227
415.86688
411.43836
407.05557
402.71755
398.42329
394.17172
389.96174
385.79223
381.66202
377.56992
373.51471
369.49513
365.50993
599.92393
593.59121
587.31161
581.08649
574.91693
568.80381
562.74786
556.74966
550.80963
544.92811
539.10531
533.34136
527.63631
521.99015
516.40279
510.87411
505.40394
499.99201
494.638
489.34151
484.10219
478.91987
473.79403
468.72416
463.70982
458.75022
453.84459
448.99268
444.19383
439.4473
434.75209
430.1075
425.51296
420.9673
416.47049
412.0211
407.61807
403.26041
398.94707
394.677
390.44907
386.26214
382.11503
378.00654
373.93544
369.90047
365.9004
601.64237
595.25262
588.91819
582.64031
576.41993
570.25786
564.1547
558.11095
552.12695
546.20297
540.33913
534.53552
528.79211
523.10883
517.48555
511.92208
506.41819
500.9736
495.58792
490.26076
484.99172
479.78049
474.62659
469.52948
464.48864
459.50357
454.57314
449.69708
444.87474
440.10547
435.38811
430.72195
426.10659
421.54091
417.02444
412.55595
408.13437
403.7587
399.4279
395.14088
390.8965
386.69361
382.53103
378.40753
374.32187
370.27279
366.25909
603.21349
596.7716
590.38705
584.06094
577.79412
571.58729
565.44099
559.3556
553.33142
547.36862
541.46728
535.62742
529.84895
524.13175
518.47563
512.88036
507.34567
501.87122
496.45662
491.10142
485.80521
480.5676
475.38808
470.2661
465.2011
460.19243
455.23956
450.34146
445.49764
440.70763
435.97004
431.28414
426.64982
422.06582
417.53139
413.04543
408.60691
404.2148
399.86805
395.56553
391.30613
387.08866
382.91194
378.77472
374.67577
370.6138
366.58762
604.64568
598.15626
591.72604
585.35597
579.04684
572.79922
566.61359
560.49026
554.42945
548.43128
542.49576
536.62286
530.81244
525.06433
519.37829
513.75405
508.19129
502.68964
497.24867
491.86793
486.54696
481.28531
476.08246
470.93784
465.85085
460.82082
455.84709
450.92915
446.06575
441.25686
436.50086
431.79699
427.14544
422.54469
417.99389
413.49203
409.03808
404.631
400.26971
395.95309
391.68
387.44925
383.25964
379.10993
374.99886
370.92515
366.88759
605.94699
599.41442
592.94271
586.53273
580.18514
573.90047
567.6791
561.52131
555.42723
549.39692
543.43036
537.52744
531.688
525.91181
520.19859
514.54803
508.95977
503.43341
497.96851
492.56457
487.2211
481.93762
476.71358
471.5484
466.44145
461.39203
456.39947
451.46326
446.58218
441.75611
436.98339
432.26343
427.59611
422.9801
418.41445
413.89816
409.4302
405.00953
400.63503
396.30561
392.02008
387.77728
383.57597
379.41492
375.29284
371.20846
367.16057
640.86948
634.00845
627.20137
620.4506
613.75805
607.12513
600.55356
594.04432
587.5982
581.21581
574.8976
568.64389
562.45488
556.33068
550.27129
544.27662
538.34653
532.48082
526.67921
520.94139
515.267
509.65567
504.10695
498.62037
493.19542
487.8316
482.52836
477.28514
472.10135
466.97633
461.90938
456.89981
451.94704
447.05003
442.20833
437.42045
432.68596
428.00439
423.37456
418.79548
414.26614
409.78551
405.35253
400.9661
396.62508
392.32831
388.07459
383.8627
379.69138
375.55935
371.46532
367.40807
642.13061
635.22645
628.37803
621.58759
614.85697
608.18759
601.58087
595.0378
588.5591
582.14533
575.79688
569.514
563.29686
557.1455
551.05987
545.03986
539.08528
533.19587
527.37134
521.61134
515.91547
510.28333
504.71445
499.20833
493.76445
488.38226
483.06121
477.80071
472.60014
467.45884
462.37609
457.35119
452.3835
447.47209
442.61629
437.81482
433.0672
428.37279
423.7305
419.1393
414.5982
410.10616
405.66209
401.26489
396.91343
392.60653
388.34298
384.12155
379.94098
375.79997
371.69724
367.63155
643.26278
636.31992
629.4344
622.60838
615.84361
609.14146
602.50321
595.92978
589.42185
582.97991
576.6043
570.29524
564.05284
557.8771
551.76792
545.72516
539.74858
533.83791
527.9928
522.21289
516.49775
510.84693
505.25995
499.73629
494.27541
488.87674
483.5397
478.26369
473.04806
467.89214
462.79521
457.75656
452.77549
447.85114
442.9827
438.16905
433.40963
428.7037
424.05022
419.44816
414.89651
410.39422
405.9402
401.53335
397.17252
392.85652
388.58415
384.35416
380.16528
376.01623
371.90569
367.83243
644.27406
637.29664
630.37801
623.52022
616.72495
609.99354
603.32713
596.72659
590.19254
583.72544
577.32558
570.99314
564.72817
558.53065
552.40044
546.33736
540.34114
534.41147
528.54799
522.75029
517.01792
511.35043
505.74729
500.20797
494.7319
489.31851
483.96719
478.67732
473.44825
468.27928
463.16969
458.11875
453.12575
448.18982
443.3101
438.48559
433.71563
428.99942
424.33594
419.72418
415.16311
410.65167
406.18878
401.77331
397.40411
393.07999
388.79975
384.56212
380.36583
376.20959
372.09208
368.01206
645.17209
638.16401
631.21599
624.33
617.50766
610.75025
604.05883
597.43421
590.87698
584.38754
577.96615
571.61294
565.32794
559.11107
552.96219
546.88106
540.8674
534.92086
529.04106
523.22757
517.47991
511.7976
506.18011
500.62689
495.13734
489.71088
484.34689
479.04471
473.8037
468.62314
463.50232
458.44047
453.43687
448.49066
443.60095
438.76679
433.98746
429.26212
424.58978
419.96941
415.39998
410.88043
406.40965
401.98653
397.60991
393.27859
388.99135
384.74694
380.54408
376.38146
372.25776
368.17175
645.96414
638.92905
631.95511
625.04426
618.19804
611.4177
604.70423
598.05837
591.48069
584.97154
578.53116
572.15964
565.85697
559.62304
553.45769
547.36064
541.33159
535.37018
529.47599
523.64856
517.88742
512.19205
506.56191
500.99642
495.49499
490.057
484.68182
479.3688
474.11726
468.92649
463.79576
458.7243
453.71135
448.75606
443.85755
439.01488
434.2273
429.49391
424.81375
420.1858
415.609
411.08229
406.60457
402.1747
397.79153
393.45386
389.16047
384.91008
380.70143
376.53319
372.40404
368.31273
646.65712
639.5984
632.6018
625.6692
618.8021
612.00169
605.26892
598.60448
592.00891
585.48252
579.02552
572.63797
566.31984
560.07099
553.89122
547.78025
541.73775
535.76332
529.85653
524.01692
518.24398
512.53719
506.89597
501.31975
495.80792
490.35985
484.97489
479.65239
474.39164
469.19193
464.05253
458.97266
453.95154
448.98832
444.08211
439.232
434.43719
429.69677
425.00978
420.37518
415.79194
411.25898
406.77518
402.33942
397.95053
393.60731
389.30853
385.05292
380.8392
376.66605
372.53213
368.4362
647.25756
640.17838
633.16215
626.21071
619.32552
612.50772
605.75822
599.07769
592.4666
585.92528
579.45388
573.05245
566.72091
560.45913
554.26687
548.14384
542.08967
536.10396
530.18626
524.33609
518.55293
512.83623
507.18543
501.59991
496.07907
490.62226
485.22884
479.89811
474.62939
469.42194
464.27503
459.18787
454.15967
449.18959
444.27671
439.42016
434.61908
429.87258
425.17967
420.53933
415.95051
411.41213
406.92308
402.48221
398.08837
393.74034
389.4369
385.17677
380.95867
376.78126
372.64322
368.54329
647.77167
640.67498
633.64195
626.67438
619.7737
612.94101
606.17718
599.48286
592.8585
586.30439
579.82065
573.40733
567.06432
560.79146
554.58851
548.45514
542.39098
536.39561
530.46857
524.60936
518.81744
513.09227
507.43325
501.83977
496.31122
490.84693
485.44625
480.10849
474.83294
469.61887
464.46553
459.37213
454.33788
449.36191
444.44334