/*--------------------------------*- C++ -*----------------------------------*\
| =========                 |                                                 |
| \\      /  F ield         | OpenFOAM: The Open Source CFD Toolbox           |
|  \\    /   O peration     | Version:  2312                                  |
|   \\  /    A nd           | Website:  www.openfoam.com                      |
|    \\/     M anipulation  |                                                 |
\*---------------------------------------------------------------------------*/
FoamFile
{
    version     2.0;
    format      ascii;
    arch        "LSB;label=32;scalar=64";
    class       surfaceScalarField;
    location    "0.06";
    object      phi;
}
// * * * * * * * * * * * * * * * * * * * * * * * * * * * * * * * * * * * * * //

dimensions      [1 0 -1 0 0 0 0];

oriented        oriented;

internalField   nonuniform List<scalar> 
6418
(
9.2292907e-08
-1.0524862e-07
9.3786771e-08
-1.0880189e-07
9.5230378e-08
-1.1231381e-07
9.660279e-08
-1.1577669e-07
9.7883133e-08
-1.1918672e-07
9.9062641e-08
-1.2254344e-07
1.0014997e-07
-1.2584702e-07
1.0116602e-07
-1.2909539e-07
1.02133e-07
-1.3228309e-07
1.030651e-07
-1.3540249e-07
1.039648e-07
-1.3844579e-07
1.0482442e-07
-1.4140662e-07
1.0563023e-07
-1.4428046e-07
1.0636647e-07
-1.4706436e-07
1.0701826e-07
-1.4975632e-07
1.0757327e-07
-1.5235492e-07
1.0802264e-07
-1.5485902e-07
1.0836157e-07
-1.5726776e-07
1.0859035e-07
-1.5958114e-07
1.0871517e-07
-1.6180009e-07
1.0874765e-07
-1.6392527e-07
1.0870167e-07
-1.6595548e-07
1.0859231e-07
-1.6789037e-07
1.084322e-07
-1.6972892e-07
1.0822853e-07
-1.7146917e-07
1.0797967e-07
-1.7310858e-07
1.0766686e-07
-1.7464529e-07
1.0731816e-07
-1.7607653e-07
1.0686915e-07
-1.7740768e-07
1.0636871e-07
-1.7863233e-07
1.0579917e-07
-1.7975714e-07
1.0516463e-07
-1.8078289e-07
1.0447268e-07
-1.8170987e-07
1.0373189e-07
-1.8253835e-07
1.029503e-07
-1.8326852e-07
1.0213457e-07
-1.8390055e-07
1.0128938e-07
-1.8443457e-07
1.0041731e-07
-1.8487077e-07
9.9517777e-08
-1.8520912e-07
9.8589303e-08
-1.8545033e-07
9.7632181e-08
-1.8559527e-07
9.6643748e-08
-1.8564535e-07
9.5624382e-08
-1.8560223e-07
9.4580333e-08
-1.8546849e-07
9.3513299e-08
-1.8524685e-07
9.2433062e-08
-1.8493888e-07
9.1347996e-08
-1.8454631e-07
9.0266276e-08
-1.8407041e-07
8.9194064e-08
-1.8351211e-07
8.8134225e-08
-1.828723e-07
8.7084959e-08
-1.8215232e-07
8.6038831e-08
-1.8135513e-07
-1.8048635e-07
1.0905364e-07
-6.3557112e-08
1.1026624e-07
-6.6882044e-08
1.114294e-07
-7.0178977e-08
1.12526e-07
-7.3442391e-08
1.135411e-07
-7.6668035e-08
1.1446808e-07
-7.9852789e-08
1.1531142e-07
-8.2993456e-08
1.1608337e-07
-8.608579e-08
1.1679722e-07
-8.912436e-08
1.1746145e-07
-9.2103404e-08
1.180774e-07
-9.5017747e-08
1.1864013e-07
-9.7863365e-08
1.1914096e-07
-1.006373e-07
1.1957002e-07
-1.0333731e-07
1.1991807e-07
-1.0596157e-07
1.2017767e-07
-1.0850827e-07
1.2034343e-07
-1.1097527e-07
1.2041192e-07
-1.1336006e-07
1.2038222e-07
-1.1566071e-07
1.2025921e-07
-1.1787762e-07
1.2005692e-07
-1.200116e-07
1.1977839e-07
-1.220558e-07
1.1943469e-07
-1.2401098e-07
1.1903626e-07
-1.2587796e-07
1.1858566e-07
-1.2765439e-07
1.1808848e-07
-1.2933815e-07
1.1753145e-07
-1.3092943e-07
1.1692375e-07
-1.3242618e-07
1.1624564e-07
-1.3383041e-07
1.155043e-07
-1.3514173e-07
1.1470029e-07
-1.36361e-07
1.1383717e-07
-1.3748917e-07
1.1292106e-07
-1.3852657e-07
1.1195891e-07
-1.3947339e-07
1.1095743e-07
-1.4032997e-07
1.0992222e-07
-1.4109658e-07
1.0885732e-07
-1.4177366e-07
1.0776638e-07
-1.4236215e-07
1.0664761e-07
-1.4286124e-07
1.0550217e-07
-1.4327391e-07
1.043305e-07
-1.4360036e-07
1.0313211e-07
-1.4384202e-07
1.0190598e-07
-1.440012e-07
1.0065753e-07
-1.4407969e-07
9.9391091e-08
-1.4407971e-07
9.8113551e-08
-1.4400329e-07
9.683231e-08
-1.438522e-07
9.5554273e-08
-1.4362815e-07
9.4284523e-08
-1.4333274e-07
9.3024837e-08
-1.4296774e-07
9.1772032e-08
-1.425352e-07
9.051696e-08
-1.4203757e-07
-1.4147732e-07
1.3950327e-07
-4.7033346e-08
1.4014777e-07
-4.9795858e-08
1.4075771e-07
-5.2545395e-08
1.4132048e-07
-5.527741e-08
1.4182539e-07
-5.7987397e-08
1.4226625e-07
-6.0670987e-08
1.4264259e-07
-6.332355e-08
1.4295815e-07
-6.5940031e-08
1.4321763e-07
-6.8515235e-08
1.4342373e-07
-7.1044371e-08
1.4357588e-07
-7.3523449e-08
1.4367057e-07
-7.5949336e-08
1.4370252e-07
-7.8319524e-08
1.4366593e-07
-8.0631828e-08
1.4355565e-07
-8.2884337e-08
1.4336817e-07
-8.5075197e-08
1.4310147e-07
-8.7201733e-08
1.427523e-07
-8.9260403e-08
1.423161e-07
-9.1247726e-08
1.4178928e-07
-9.3160689e-08
1.4121456e-07
-9.5009105e-08
1.4055611e-07
-9.6773324e-08
1.3983168e-07
-9.8462756e-08
1.390512e-07
-1.0007499e-07
1.3821499e-07
-1.0160739e-07
1.37328e-07
-1.0305868e-07
1.3638642e-07
-1.0442882e-07
1.3538973e-07
-1.0571766e-07
1.3433442e-07
-1.069255e-07
1.3322068e-07
-1.0805248e-07
1.3205064e-07
-1.0909878e-07
1.3082795e-07
-1.1006461e-07
1.2955734e-07
-1.1094996e-07
1.2824369e-07
-1.1175465e-07
1.2689309e-07
-1.1248013e-07
1.2551036e-07
-1.1312586e-07
1.2409655e-07
-1.1369076e-07
1.2266268e-07
-1.1417979e-07
1.2119547e-07
-1.1459229e-07
1.1970774e-07
-1.1492717e-07
1.1819709e-07
-1.1518738e-07
1.1666334e-07
-1.1537474e-07
1.151079e-07
-1.1549096e-07
1.1353423e-07
-1.1553784e-07
1.1194681e-07
-1.155173e-07
1.1035104e-07
-1.1543126e-07
1.0875281e-07
-1.1528166e-07
1.0715749e-07
-1.1507041e-07
1.05569e-07
-1.1479954e-07
1.0398858e-07
-1.1447126e-07
1.0241343e-07
-1.1408782e-07
1.0083634e-07
-1.1365126e-07
-1.1316279e-07
1.7067773e-07
-4.6122701e-08
1.7095534e-07
-4.8383935e-08
1.7119462e-07
-5.0632305e-08
1.7138776e-07
-5.2864432e-08
1.7152785e-07
-5.507664e-08
1.7160985e-07
-5.7265092e-08
1.716312e-07
-5.9425701e-08
1.7159147e-07
-6.1554172e-08
1.7149095e-07
-6.3646336e-08
1.7132947e-07
-6.5698446e-08
1.7110574e-07
-6.770738e-08
1.7081742e-07
-6.9670555e-08
1.7046145e-07
-7.1585729e-08
1.7003445e-07
-7.3450727e-08
1.6953345e-07
-7.5263585e-08
1.6895836e-07
-7.7022926e-08
1.6831392e-07
-7.8726966e-08
1.6759508e-07
-8.0370733e-08
1.6679724e-07
-8.1953395e-08
1.658818e-07
-8.3474601e-08
1.6497018e-07
-8.4918183e-08
1.6394241e-07
-8.6308252e-08
1.6285364e-07
-8.7627426e-08
1.6170674e-07
-8.8875072e-08
1.6050287e-07
-9.005133e-08
1.5924362e-07
-9.1155743e-08
1.5792898e-07
-9.2188115e-08
1.5655887e-07
-9.3148445e-08
1.5513333e-07
-9.4036876e-08
1.5365338e-07
-9.4853361e-08
1.52121e-07
-9.5597751e-08
1.5053974e-07
-9.6270102e-08
1.4891393e-07
-9.6870672e-08
1.4724369e-07
-9.7399974e-08
1.4553951e-07
-9.7856406e-08
1.4380749e-07
-9.8241796e-08
1.4203342e-07
-9.8559839e-08
1.4024372e-07
-9.8805695e-08
1.3842678e-07
-9.8984158e-08
1.365868e-07
-9.9095951e-08
1.3472525e-07
-9.9142375e-08
1.328436e-07
-9.9125158e-08
1.3094399e-07
-9.9046033e-08
1.2902944e-07
-9.8906771e-08
1.2710372e-07
-9.8709221e-08
1.251712e-07
-9.8455289e-08
1.2323641e-07
-9.8146971e-08
1.2130354e-07
-9.7786352e-08
1.1937577e-07
-9.737571e-08
1.1745438e-07
-9.6917395e-08
1.1553792e-07
-9.6413814e-08
1.1362219e-07
-9.5866857e-08
-9.5277482e-08
1.9782454e-07
-5.139523e-08
1.9789382e-07
-5.3371294e-08
1.9791719e-07
-5.5322994e-08
1.9788957e-07
-5.7248176e-08
1.9780609e-07
-5.9144428e-08
1.9766245e-07
-6.1009184e-08
1.9745539e-07
-6.2839691e-08
1.9718271e-07
-6.4633038e-08
1.9684286e-07
-6.6386396e-08
1.9643442e-07
-6.809717e-08
1.9595591e-07
-6.9763107e-08
1.954056e-07
-7.1382228e-08
1.9478159e-07
-7.2952762e-08
1.9408168e-07
-7.4473059e-08
1.9330341e-07
-7.5941237e-08
1.9244766e-07
-7.7354585e-08
1.9153069e-07
-7.8711578e-08
1.905342e-07
-8.0012175e-08
1.894533e-07
-8.1256708e-08
1.88294e-07
-8.2438249e-08
1.8706515e-07
-8.3557731e-08
1.8576315e-07
-8.4613273e-08
1.8439416e-07
-8.5603274e-08
1.8296178e-07
-8.6526257e-08
1.8146813e-07
-8.7381917e-08
1.7991501e-07
-8.8170033e-08
1.7830384e-07
-8.8890529e-08
1.7663592e-07
-8.9543427e-08
1.7491279e-07
-9.0128825e-08
1.7313654e-07
-9.0646751e-08
1.7130864e-07
-9.1097124e-08
1.6943205e-07
-9.1480061e-08
1.6751042e-07
-9.1795963e-08
1.65549e-07
-9.2044141e-08
1.6354931e-07
-9.2225689e-08
1.6151268e-07
-9.2340948e-08
1.5944932e-07
-9.239122e-08
1.5735859e-07
-9.2377555e-08
1.552421e-07
-9.230116e-08
1.5310212e-07
-9.2163487e-08
1.5094087e-07
-9.1966008e-08
1.4876055e-07
-9.1710367e-08
1.4656361e-07
-9.1398286e-08
1.4435293e-07
-9.1031545e-08
1.4213183e-07
-9.0612008e-08
1.399039e-07
-9.0141627e-08
1.3767282e-07
-8.9622469e-08
1.3544205e-07
-8.9056751e-08
1.3321436e-07
-8.8446817e-08
1.3099144e-07
-8.7795144e-08
1.2877328e-07
-8.7104151e-08
1.2655844e-07
-8.6375804e-08
-8.5611251e-08
2.2009916e-07
-5.7411417e-08
2.200516e-07
-5.9283978e-08
2.1995007e-07
-6.1117943e-08
2.1979088e-07
-6.2912049e-08
2.1957018e-07
-6.4664948e-08
2.1928429e-07
-6.6375209e-08
2.1892994e-07
-6.8041282e-08
2.1850448e-07
-6.9661477e-08
2.1800576e-07
-7.1234097e-08
2.1743205e-07
-7.2757507e-08
2.1678185e-07
-7.4230204e-08
2.160539e-07
-7.5650773e-08
2.1524708e-07
-7.7017865e-08
2.1436026e-07
-7.83301e-08
2.1339289e-07
-7.9585975e-08
2.1234768e-07
-8.0784003e-08
2.1123145e-07
-8.1924644e-08
2.1002848e-07
-8.3005903e-08
2.0875199e-07
-8.4027968e-08
2.0738794e-07
-8.4988871e-08
2.0595243e-07
-8.5884354e-08
2.0444539e-07
-8.6715017e-08
2.0286859e-07
-8.7479964e-08
2.0122455e-07
-8.8178543e-08
1.995156e-07
-8.8810473e-08
1.9774395e-07
-8.9375628e-08
1.959117e-07
-8.9874017e-08
1.9402096e-07
-9.0305728e-08
1.9207397e-07
-9.0670903e-08
1.9007342e-07
-9.0969706e-08
1.8802058e-07
-9.120226e-08
1.8591795e-07
-9.1368484e-08
1.8377231e-07
-9.1468642e-08
1.8158418e-07
-9.1503593e-08
1.7935592e-07
-9.1473839e-08
1.7708956e-07
-9.137919e-08
1.7479553e-07
-9.1221273e-08
1.7247175e-07
-9.1001567e-08
1.701211e-07
-9.0721386e-08
1.6774611e-07
-9.0382098e-08
1.6534929e-07
-8.9985212e-08
1.6293315e-07
-8.9532364e-08
1.6050031e-07
-8.9025281e-08
1.580536e-07
-8.8465759e-08
1.5559602e-07
-8.7855684e-08
1.5313074e-07
-8.7197045e-08
1.5066094e-07
-8.6491964e-08
1.4818963e-07
-8.5742683e-08
1.457195e-07
-8.4951586e-08
1.432526e-07
-8.412114e-08
1.4079014e-07
-8.3253712e-08
1.3833272e-07
-8.2351412e-08
-8.1415731e-08
2.3828179e-07
-6.2088628e-08
2.3815517e-07
-6.3953997e-08
2.3796698e-07
-6.5768918e-08
2.377142e-07
-6.7532728e-08
2.3739368e-07
-6.9244785e-08
2.3700227e-07
-7.0904431e-08
2.3653707e-07
-7.2510934e-08
2.3599559e-07
-7.4063437e-08
2.3537579e-07
-7.556103e-08
2.3467604e-07
-7.7002766e-08
2.3389512e-07
-7.8387717e-08
2.3303218e-07
-7.971496e-08
2.3208662e-07
-8.0983578e-08
2.3105802e-07
-8.2192572e-08
2.2994634e-07
-8.3340819e-08
2.2875442e-07
-8.4429062e-08
2.2748288e-07
-8.5455762e-08
2.2612562e-07
-8.6418276e-08
2.2469068e-07
-8.7319678e-08
2.2317291e-07
-8.8156796e-08
2.2158064e-07
-8.8927288e-08
2.1991482e-07
-8.9631065e-08
2.181772e-07
-9.0267877e-08
2.1637004e-07
-9.0837457e-08
2.1449569e-07
-9.1339653e-08
2.1255659e-07
-9.1774426e-08
2.1055516e-07
-9.2141846e-08
2.0849389e-07
-9.2442051e-08
2.0637537e-07
-9.2675245e-08
2.0420239e-07
-9.2841699e-08
2.0197688e-07
-9.294163e-08
1.9970156e-07
-9.2975033e-08
1.9738166e-07
-9.2942409e-08
1.9501832e-07
-9.2844874e-08
1.9261437e-07
-9.2683011e-08
1.9017223e-07
-9.2456456e-08
1.8769936e-07
-9.2166861e-08
1.8519567e-07
-9.1815835e-08
1.8266402e-07
-9.1404718e-08
1.8010712e-07
-9.0934891e-08
1.7752762e-07
-9.0407861e-08
1.7492818e-07
-8.9825243e-08
1.7231148e-07
-8.9188747e-08
1.6968031e-07
-8.8500165e-08
1.6703748e-07
-8.7761386e-08
1.6438591e-07
-8.6974397e-08
1.6172848e-07
-8.6141304e-08
1.5906803e-07
-8.526433e-08
1.5640724e-07
-8.4345828e-08
1.5374849e-07
-8.3388135e-08
1.5109385e-07
-8.2393566e-08
1.4844509e-07
-8.1364139e-08
-8.0301823e-08
2.5333379e-07
-6.5148978e-08
2.5314051e-07
-6.7035996e-08
2.5287839e-07
-6.8864278e-08
2.5254487e-07
-7.0633591e-08
2.5213736e-07
-7.234378e-08
2.5165329e-07
-7.3994693e-08
2.5109032e-07
-7.5586117e-08
2.504464e-07
-7.7117739e-08
2.4971987e-07
-7.8589157e-08
2.4890947e-07
-7.9999899e-08
2.4801433e-07
-8.1349452e-08
2.4703396e-07
-8.2637271e-08
2.4596814e-07
-8.3862803e-08
2.4481697e-07
-8.502554e-08
2.4358141e-07
-8.6125055e-08
2.4226458e-07
-8.7163264e-08
2.4086432e-07
-8.81355e-08
2.3937438e-07
-8.904063e-08
2.378051e-07
-8.9883871e-08
2.3615747e-07
-9.0659753e-08
2.3443364e-07
-9.1367975e-08
2.32635e-07
-9.2008542e-08
2.3076343e-07
-9.2581403e-08
2.2882116e-07
-9.3086416e-08
2.2681064e-07
-9.3523506e-08
2.247344e-07
-9.3892684e-08
2.2259504e-07
-9.4194048e-08
2.2039523e-07
-9.4427763e-08
2.1813768e-07
-9.4594064e-08
2.1582521e-07
-9.4693274e-08
2.1346042e-07
-9.4725651e-08
2.1104614e-07
-9.469132e-08
2.0858563e-07
-9.4590955e-08
2.0608154e-07
-9.4425726e-08
2.0353697e-07
-9.419635e-08
2.0095478e-07
-9.390236e-08
1.983394e-07
-9.3545257e-08
1.9569257e-07
-9.3126792e-08
1.9301708e-07
-9.2648193e-08
1.9031569e-07
-9.2110856e-08
1.8759115e-07
-9.1516254e-08
1.8484613e-07
-9.0865958e-08
1.8208336e-07
-9.0161628e-08
1.7930552e-07
-8.9405012e-08
1.7651536e-07
-8.8597947e-08
1.7371562e-07
-8.7742378e-08
1.7090904e-07
-8.6840354e-08
1.6809838e-07
-8.5894039e-08
1.6528636e-07
-8.4905669e-08
1.624757e-07
-8.3877498e-08
1.5966896e-07
-8.2811584e-08
1.5686846e-07
-8.1709883e-08
-8.057448e-08
2.6597312e-07
-6.6979061e-08
2.6571646e-07
-6.8880309e-08
2.6538385e-07
-7.0717429e-08
2.6497323e-07
-7.2490593e-08
2.6448257e-07
-7.4200036e-08
2.6390994e-07
-7.5845984e-08
2.632536e-07
-7.7428599e-08
2.6251209e-07
-7.894794e-08
2.6168427e-07
-8.0403979e-08
2.6076932e-07
-8.1796592e-08
2.5976679e-07
-8.3125584e-08
2.5867651e-07
-8.4390693e-08
2.5749863e-07
-8.5591615e-08
2.5623375e-07
-8.672808e-08
2.5488361e-07
-8.779996e-08
2.5345125e-07
-8.8808977e-08
2.5193856e-07
-8.9751866e-08
2.5032661e-07
-9.0632593e-08
2.4863817e-07
-9.1444509e-08
2.46873e-07
-9.2186913e-08
2.4503139e-07
-9.2862348e-08
2.4311471e-07
-9.3470758e-08
2.4112481e-07
-9.4011832e-08
2.39064e-07
-9.4485402e-08
2.3693477e-07
-9.4891411e-08
2.3473975e-07
-9.5229881e-08
2.3248164e-07
-9.5500911e-08
2.3016314e-07
-9.5704667e-08
2.2778704e-07
-9.5841393e-08
2.253561e-07
-9.5911412e-08
2.2287344e-07
-9.5914972e-08
2.2034184e-07
-9.5852302e-08
2.1776313e-07
-9.5724225e-08
2.15141e-07
-9.5531827e-08
2.124789e-07
-9.5276012e-08
2.0978058e-07
-9.4956327e-08
2.0704736e-07
-9.4573811e-08
2.0428248e-07
-9.4130439e-08
2.0148864e-07
-9.36273e-08
1.9866864e-07
-9.3065803e-08
1.9582523e-07
-9.2447341e-08
1.9296111e-07
-9.1773403e-08
1.9007897e-07
-9.1045573e-08
1.8718144e-07
-9.0265525e-08
1.8427118e-07
-8.9435017e-08
1.8135081e-07
-8.855591e-08
1.7842298e-07
-8.763015e-08
1.754904e-07
-8.6659799e-08
1.7255592e-07
-8.5646963e-08
1.6962261e-07
-8.4593786e-08
1.6669353e-07
-8.3502081e-08
1.6377066e-07
2.7666036e-07
-6.8052904e-08
2.7634113e-07
-6.9947554e-08
2.7593905e-07
-7.1774658e-08
2.754526e-07
-7.3534787e-08
2.7488038e-07
-7.5228536e-08
2.7422113e-07
-7.6856463e-08
2.7347374e-07
-7.8419041e-08
2.726374e-07
-7.9916648e-08
2.7171151e-07
-8.1349556e-08
2.7069582e-07
-8.2717939e-08
2.6959031e-07
-8.4021896e-08
2.6839534e-07
-8.5261478e-08
2.6711147e-07
-8.6436628e-08
2.6573921e-07
-8.7546841e-08
2.6428136e-07
-8.8593888e-08
2.6273834e-07
-8.9575923e-08
2.6111175e-07
-9.0492541e-08
2.5939503e-07
-9.1347617e-08
2.5759969e-07
-9.2134035e-08
2.5572617e-07
-9.285259e-08
2.5377613e-07
-9.3504893e-08
2.5175125e-07
-9.4091134e-08
2.4965364e-07
-9.4611159e-08
2.4748567e-07
-9.5064871e-08
2.4524989e-07
-9.5452247e-08
2.4294895e-07
-9.5773333e-08
2.4058552e-07
-9.6028238e-08
2.3816237e-07
-9.6217138e-08
2.3568225e-07
-9.6340274e-08
2.3314792e-07
-9.6397959e-08
2.305627e-07
-9.6390386e-08
2.2792932e-07
-9.6317887e-08
2.2524869e-07
-9.6181434e-08
2.2252483e-07
-9.5981776e-08
2.1976153e-07
-9.5719896e-08
2.1696463e-07
-9.5395843e-08
2.1413179e-07
-9.5009914e-08
2.112672e-07
-9.4564324e-08
2.0837366e-07
-9.4060138e-08
2.0545405e-07
-9.3498643e-08
2.0251112e-07
-9.2881119e-08
1.9954756e-07
-9.2208963e-08
1.9656598e-07
-9.1483676e-08
1.9356898e-07
-9.0706842e-08
1.9055911e-07
-8.9880129e-08
1.8753892e-07
-8.9005279e-08
1.8451099e-07
-8.8084139e-08
1.8147799e-07
-8.7118591e-08
1.7844288e-07
-8.6110593e-08
1.7540905e-07
-8.5062045e-08
-8.3974934e-08
2.8568639e-07
-6.8726825e-08
2.8530493e-07
-7.0592678e-08
2.84834e-07
-7.238887e-08
2.8427273e-07
-7.4116364e-08
2.8362038e-07
-7.5776098e-08
2.8287636e-07
-7.7368931e-08
2.8204022e-07
-7.8895624e-08
2.8111174e-07
-8.0356827e-08
2.8009093e-07
-8.1753079e-08
2.7897801e-07
-8.3084811e-08
2.7777343e-07
-8.4352363e-08
2.7647791e-07
-8.5556101e-08
2.7509291e-07
-8.6696697e-08
2.7362109e-07
-8.7774861e-08
2.7206316e-07
-8.8789834e-08
2.7041477e-07
-8.9732131e-08
2.6868212e-07
-9.06181e-08
2.6686649e-07
-9.144342e-08
2.6497125e-07
-9.22005e-08
2.6299754e-07
-9.2892252e-08
2.6094762e-07
-9.3519429e-08
2.5882358e-07
-9.4082148e-08
2.5662772e-07
-9.4580394e-08
2.5436249e-07
-9.5014162e-08
2.5203046e-07
-9.5383486e-08
2.4963429e-07
-9.568844e-08
2.4717668e-07
-9.5929156e-08
2.4466038e-07
-9.6105825e-08
2.4208815e-07
-9.6218693e-08
2.3946273e-07
-9.6268054e-08
2.3678743e-07
-9.6254024e-08
2.3406485e-07
-9.6177071e-08
2.3129574e-07
-9.6038481e-08
2.2848388e-07
-9.5838478e-08
2.2563277e-07
-9.5577219e-08
2.2275089e-07
-9.5255243e-08
2.1983327e-07
-9.4874327e-08
2.1688352e-07
-9.4435826e-08
2.1390529e-07
-9.3940335e-08
2.1090138e-07
-9.3389087e-08
2.0787453e-07
-9.2783322e-08
2.0482738e-07
-9.2124374e-08
2.0176249e-07
-9.1413663e-08
1.9868237e-07
-9.0652694e-08
1.9558952e-07
-8.984304e-08
1.9248642e-07
-8.8986354e-08
1.8937559e-07
-8.8084349e-08
1.8625971e-07
-8.7138808e-08
1.8314174e-07
-8.6151558e-08
1.8002514e-07
-8.5124488e-08
-8.4059623e-08
2.9325008e-07
-6.9212873e-08
2.9280643e-07
-7.1031012e-08
2.9226715e-07
-7.2778333e-08
2.9163207e-07
-7.4456157e-08
2.9090112e-07
-7.606573e-08
2.9007438e-07
-7.760819e-08
2.8915203e-07
-7.9084545e-08
2.8813445e-07
-8.0495682e-08
2.8702217e-07
-8.1842367e-08
2.8581589e-07
-8.3125231e-08
2.8451643e-07
-8.4344778e-08
2.8312483e-07
-8.550157e-08
2.8164308e-07
-8.6596939e-08
2.8007842e-07
-8.7635624e-08
2.7843809e-07
-8.8614043e-08
2.7667979e-07
-8.9497247e-08
2.7484938e-07
-9.0350828e-08
2.7294108e-07
-9.1138718e-08
2.7095291e-07
-9.186028e-08
2.6888702e-07
-9.2518779e-08
2.6674567e-07
-9.3114807e-08
2.645312e-07
-9.3648528e-08
2.6224607e-07
-9.4120003e-08
2.5989282e-07
-9.4529281e-08
2.5747407e-07
-9.4876427e-08
2.5499248e-07
-9.5161542e-08
2.5245077e-07
-9.5384777e-08
2.4985167e-07
-9.5546337e-08
2.4719793e-07
-9.5646474e-08
2.4449228e-07
-9.5685454e-08
2.4173794e-07
-9.5663285e-08
2.3893717e-07
-9.5580474e-08
2.3609144e-07
-9.5438729e-08
2.3320443e-07
-9.5237671e-08
2.302797e-07
-9.4977659e-08
2.2732229e-07
-9.4659674e-08
2.2433215e-07
-9.4283847e-08
2.2130987e-07
-9.385329e-08
2.1825994e-07
-9.3368002e-08
2.1518504e-07
-9.2828975e-08
2.1208778e-07
-9.2237392e-08
2.0897073e-07
-9.1594526e-08
2.0583636e-07
-9.0901732e-08
2.0268716e-07
-9.0160433e-08
1.9952553e-07
-8.9372128e-08
1.9635392e-07
-8.8538372e-08
1.931748e-07
-8.7660796e-08
1.8999077e-07
-8.6741078e-08
1.8680472e-07
-8.5780959e-08
1.8361994e-07
-8.4782265e-08
-8.3746949e-08
2.9950488e-07
-6.9613551e-08
2.9899859e-07
-7.1369274e-08
2.9839112e-07
-7.3053823e-08
2.97683e-07
-7.4668834e-08
2.9687486e-07
-7.6215816e-08
2.9596741e-07
-7.7696139e-08
2.9496144e-07
-7.9111022e-08
2.9385788e-07
-8.0461538e-08
2.9265775e-07
-8.174862e-08
2.9136217e-07
-8.297304e-08
2.8997218e-07
-8.4135272e-08
2.8848828e-07
-8.5235215e-08
2.8691438e-07
-8.6276274e-08
2.8525581e-07
-8.7255582e-08
2.8357711e-07
-8.8170085e-08
2.816789e-07
-8.9056737e-08
2.7976377e-07
-8.9851743e-08
2.7777078e-07
-9.0585962e-08
2.75698e-07
-9.1263286e-08
2.7354788e-07
-9.1881614e-08
2.713232e-07
-9.2440452e-08
2.6902663e-07
-9.293964e-08
2.6666082e-07
-9.3379142e-08
2.6422839e-07
-9.375898e-08
2.6173198e-07
-9.4079216e-08
2.5917425e-07
-9.4339959e-08
2.565579e-07
-9.4541374e-08
2.5388569e-07
-9.4683688e-08
2.5116036e-07
-9.4767136e-08
2.4838458e-07
-9.4791881e-08
2.4556175e-07
-9.4757935e-08
2.4269282e-07
-9.4666393e-08
2.3978134e-07
-9.4518055e-08
2.3683009e-07
-9.4312977e-08
2.3384225e-07
-9.4051666e-08
2.308211e-07
-9.373502e-08
2.2776894e-07
-9.3362481e-08
2.2468571e-07
-9.2937606e-08
2.2157579e-07
-9.2460449e-08
2.1844173e-07
-9.1931848e-08
2.1528605e-07
-9.1352923e-08
2.1211121e-07
-9.0724884e-08
2.0891965e-07
-9.0049017e-08
2.0571375e-07
-8.9326682e-08
2.0249589e-07
-8.8559299e-08
1.9926844e-07
-8.7748355e-08
1.9603379e-07
-8.6895388e-08
1.9279449e-07
-8.6002003e-08
1.8955331e-07
-8.5069856e-08
1.8631332e-07
-8.4100687e-08
-8.309635e-08
3.0458132e-07
-6.9964256e-08
3.0401126e-07
-7.1646548e-08
3.0333523e-07
-7.3258065e-08
3.0255444e-07
-7.4800691e-08
3.0167019e-07
-7.6276147e-08
3.0068378e-07
-7.7685988e-08
2.995966e-07
-7.9031598e-08
2.9841011e-07
-8.0314194e-08
2.9712583e-07
-8.1534831e-08
2.9574534e-07
-8.2694406e-08
2.9427054e-07
-8.3793795e-08
2.9270438e-07
-8.4834031e-08
2.910499e-07
-8.5818096e-08
2.8931025e-07
-8.6740768e-08
2.8749643e-07
-8.7607534e-08
2.8556692e-07
-8.8424044e-08
2.8356565e-07
-8.9173111e-08
2.8148903e-07
-8.9861818e-08
2.7933574e-07
-9.0493838e-08
2.7710753e-07
-9.1069013e-08
2.7480675e-07
-9.1587144e-08
2.724359e-07
-9.2048154e-08
2.6999758e-07
-9.2452041e-08
2.6749438e-07
-9.2798838e-08
2.6492893e-07
-9.3088621e-08
2.6230386e-07
-9.3321503e-08
2.5962186e-07
-9.3497665e-08
2.5688567e-07
-9.361736e-08
2.5409807e-07
-9.3680837e-08
2.5126161e-07
-9.3688035e-08
2.4837944e-07
-9.3639119e-08
2.4545275e-07
-9.3535539e-08
2.4248512e-07
-9.3377575e-08
2.3947923e-07
-9.3165473e-08
2.364379e-07
-9.2899832e-08
2.333639e-07
-9.2581445e-08
2.3026004e-07
-9.2209381e-08
2.2712634e-07
-9.1787378e-08
2.2396702e-07
-9.1315526e-08
2.2078449e-07
-9.0794592e-08
2.1758118e-07
-9.0225649e-08
2.1435948e-07
-8.9609854e-08
2.1112173e-07
-8.8948439e-08
2.0787027e-07
-8.8242698e-08
2.0460741e-07
-8.7493995e-08
2.0133544e-07
-8.6703743e-08
1.980567e-07
-8.5873418e-08
1.9477363e-07
-8.5004544e-08
1.914889e-07
-8.4098695e-08
1.8820539e-07
-8.3157517e-08
-8.218275e-08
3.0859588e-07
-7.0265651e-08
3.079603e-07
-7.1866363e-08
3.0721478e-07
-7.3397416e-08
3.0636122e-07
-7.4860885e-08
3.0540152e-07
-7.6258642e-08
3.0433757e-07
-7.7592387e-08
3.0317129e-07
-7.8863613e-08
3.0190464e-07
-8.0073653e-08
3.0053965e-07
-8.1223683e-08
2.9907846e-07
-8.2314765e-08
2.9752327e-07
-8.334789e-08
2.9587838e-07
-8.4326274e-08
2.9414374e-07
-8.5248133e-08
2.9232361e-07
-8.6112535e-08
2.9041977e-07
-8.6922744e-08
2.8842574e-07
-8.7677067e-08
2.8635123e-07
-8.8373126e-08
2.842003e-07
-8.9013071e-08
2.8197442e-07
-8.9598032e-08
2.7967564e-07
-9.0128274e-08
2.7730629e-07
-9.0603849e-08
2.7486885e-07
-9.1024801e-08
2.7236588e-07
-9.1391167e-08
2.6979995e-07
-9.1703014e-08
2.6717367e-07
-9.1960419e-08
2.6448961e-07
-9.2163504e-08
2.6175042e-07
-9.2312455e-08
2.5895884e-07
-9.2407568e-08
2.5611764e-07
-9.2449013e-08
2.5322935e-07
-9.2436438e-08
2.502967e-07
-9.2370581e-08
2.4732141e-07
-9.2252882e-08
2.4430669e-07
-9.2083155e-08
2.4125516e-07
-9.186187e-08
2.3816948e-07
-9.1589645e-08
2.3505227e-07
-9.1267195e-08
2.3190634e-07
-9.0893292e-08
2.2873183e-07
-9.0471846e-08
2.2553278e-07
-9.0002937e-08
2.2231155e-07
-8.9487271e-08
2.1907044e-07
-8.8925882e-08
2.1581177e-07
-8.8319889e-08
2.1253782e-07
-8.7670472e-08
2.0925087e-07
-8.6978878e-08
2.0595314e-07
-8.6246406e-08
2.0264686e-07
-8.5474418e-08
1.993343e-07
-8.4664326e-08
1.9601782e-07
-8.3817583e-08
1.9269998e-07
-8.2935686e-08
1.8938354e-07
-8.2020168e-08
-8.107264e-08
3.1165394e-07
-7.0503881e-08
3.1095054e-07
-7.2016995e-08
3.1013418e-07
-7.3462274e-08
3.0920736e-07
-7.4841885e-08
3.0817254e-07
-7.6157817e-08
3.0703211e-07
-7.7411853e-08
3.0578847e-07
-7.8605556e-08
3.04444e-07
-7.9740309e-08
3.0300112e-07
-8.0817385e-08
3.0146226e-07
-8.1837883e-08
2.9983217e-07
-8.2805233e-08
2.9811137e-07
-8.3718133e-08
2.9630162e-07
-8.4576287e-08
2.9440734e-07
-8.538131e-08
2.9242793e-07
-8.6130786e-08
2.9036466e-07
-8.6826727e-08
2.882226e-07
-8.7469375e-08
2.8600482e-07
-8.8059015e-08
2.8371369e-07
-8.8596104e-08
2.8135158e-07
-8.9080869e-08
2.7892094e-07
-8.9513444e-08
2.7642429e-07
-8.9893897e-08
2.7386418e-07
-9.0222307e-08
2.7124317e-07
-9.0498736e-08
2.6856382e-07
-9.0723287e-08
2.6582866e-07
-9.089606e-08
2.630402e-07
-9.1017224e-08
2.6020116e-07
-9.1087028e-08
2.5731474e-07
-9.1105529e-08
2.5438307e-07
-9.1072371e-08
2.5140813e-07
-9.0989019e-08
2.4839261e-07
-9.0856088e-08
2.4533919e-07
-9.0673632e-08
2.4225047e-07
-9.0442111e-08
2.3912904e-07
-9.0162139e-08
2.3597739e-07
-8.9834345e-08
2.3279825e-07
-8.9457256e-08
2.2959179e-07
-8.9034959e-08
2.2636193e-07
-8.8567496e-08
2.231109e-07
-8.8055517e-08
2.1984098e-07
-8.7500032e-08
2.1655438e-07
-8.6902114e-08
2.1325332e-07
-8.6262906e-08
2.0994001e-07
-8.5583597e-08
2.0661659e-07
-8.4865442e-08
2.0328524e-07
-8.4109745e-08
1.9994815e-07
-8.3317859e-08
1.9660763e-07
-8.2491185e-08
1.9326614e-07
-8.1631126e-08
1.8992632e-07
-8.0739106e-08
-7.9816573e-08
3.1385053e-07
-7.0661448e-08
3.1307675e-07
-7.2082625e-08
3.1218795e-07
-7.3438405e-08
3.1118717e-07
-7.4731014e-08
3.1007734e-07
-7.5962489e-08
3.0886131e-07
-7.7134686e-08
3.0754184e-07
-7.8249147e-08
3.0612168e-07
-7.9307259e-08
3.0460354e-07
-8.0310327e-08
3.0299259e-07
-8.1261944e-08
3.0128969e-07
-8.2161041e-08
2.9949669e-07
-8.3007541e-08
2.9761763e-07
-8.3803349e-08
2.9565288e-07
-8.4545497e-08
2.9360498e-07
-8.5235751e-08
2.9147732e-07
-8.5875827e-08
2.892729e-07
-8.6465584e-08
2.869945e-07
-8.7005162e-08
2.846447e-07
-8.7494787e-08
2.8222602e-07
-8.7934632e-08
2.7974098e-07
-8.8324809e-08
2.7719212e-07
-8.8665397e-08
2.7458199e-07
-8.8956458e-08
2.7191313e-07
-8.9198066e-08
2.6918806e-07
-8.9390323e-08
2.6640927e-07
-8.9533382e-08
2.6357919e-07
-8.962737e-08
2.6070022e-07
-8.967215e-08
2.5777632e-07
-8.9667452e-08
2.548087e-07
-8.9614044e-08
2.5179946e-07
-8.9513482e-08
2.4875146e-07
-8.9365481e-08
2.4566718e-07
-8.9170271e-08
2.4254918e-07
-8.8928396e-08
2.3939998e-07
-8.8640457e-08
2.3622199e-07
-8.8306994e-08
2.3301781e-07
-8.792626e-08
2.2978758e-07
-8.7502586e-08
2.2653508e-07
-8.7035932e-08
2.2326248e-07
-8.652692e-08
2.1997196e-07
-8.5976518e-08
2.1666569e-07
-8.5385769e-08
2.1334583e-07
-8.4755761e-08
2.1001448e-07
-8.4087641e-08
2.0667374e-07
-8.3382609e-08
2.0332571e-07
-8.2641914e-08
1.9997252e-07
-8.1866862e-08
1.9661641e-07
-8.1058771e-08
1.9325984e-07
-8.0219003e-08
1.8990534e-07
-7.9348822e-08
-7.8449531e-08
3.1527086e-07
-7.0722356e-08
3.1442407e-07
-7.2048569e-08
3.1346119e-07
-7.3312399e-08
3.1238572e-07
-7.4516073e-08
3.1120096e-07
-7.56616e-08
3.0991019e-07
-7.6750985e-08
3.0851638e-07
-7.7785557e-08
3.0702255e-07
-7.876668e-08
3.0543421e-07
-7.9698143e-08
3.037526e-07
-8.0579074e-08
3.0197984e-07
-8.1409576e-08
3.0012007e-07
-8.2191693e-08
2.9817378e-07
-8.2922656e-08
2.9614381e-07
-8.3604003e-08
2.9403413e-07
-8.4237391e-08
2.9184725e-07
-8.4823122e-08
2.895859e-07
-8.536127e-08
2.8725277e-07
-8.5851984e-08
2.8485048e-07
-8.6295383e-08
2.8238161e-07
-8.6691602e-08
2.7984869e-07
-8.7040698e-08
2.7725427e-07
-8.7342738e-08
2.7460086e-07
-8.7597743e-08
2.7189097e-07
-8.7805778e-08
2.6912706e-07
-8.7966925e-08
2.6631162e-07
-8.8081384e-08
2.6344719e-07
-8.8149295e-08
2.6053598e-07
-8.816999e-08
2.5758147e-07
-8.8143459e-08
2.5458473e-07
-8.807122e-08
2.5154863e-07
-8.795402e-08
2.4847546e-07
-8.7791575e-08
2.4536765e-07
-8.7584226e-08
2.422277e-07
-8.7332548e-08
2.3905815e-07
-8.7037127e-08
2.3586136e-07
-8.6698343e-08
2.3263971e-07
-8.6314165e-08
2.2939324e-07
-8.5889263e-08
2.2612563e-07
-8.5423477e-08
2.2283899e-07
-8.4917403e-08
2.1953544e-07
-8.4371965e-08
2.162171e-07
-8.3788162e-08
2.1288602e-07
-8.3167036e-08
2.0954426e-07
-8.250968e-08
2.0619384e-07
-8.181724e-08
2.0283679e-07
-8.1090911e-08
1.9947517e-07
-8.0331922e-08
1.9611121e-07
-7.9541541e-08
1.9274731e-07
-7.8721005e-08
1.8938606e-07
-7.7871461e-08
3.1599081e-07
-7.0673906e-08
3.1506854e-07
-7.1903268e-08
3.1403011e-07
-7.307381e-08
3.128794e-07
-7.4187592e-08
3.1161996e-07
-7.5246589e-08
3.1025544e-07
-7.625318e-08
3.0878886e-07
-7.7208086e-08
3.0722589e-07
-7.8115092e-08
3.0556811e-07
-7.8973496e-08
3.0381819e-07
-7.9783861e-08
3.0198038e-07
-8.0548113e-08
3.0005544e-07
-8.1263874e-08
2.9804651e-07
-8.1932754e-08
2.9595757e-07
-8.2556056e-08
2.9379134e-07
-8.3134159e-08
2.9155045e-07
-8.3667283e-08
2.892376e-07
-8.4155581e-08
2.8685543e-07
-8.4599138e-08
2.8440656e-07
-8.4998059e-08
2.8189356e-07
-8.5352386e-08
2.7931898e-07
-8.5662168e-08
2.7668532e-07
-8.5927387e-08
2.7399508e-07
-8.6148058e-08
2.7125065e-07
-8.632415e-08
2.6845443e-07
-8.6455762e-08
2.6560895e-07
-8.6543206e-08
2.6271689e-07
-8.6586671e-08
2.597801e-07
-8.6584679e-08
2.5680166e-07
-8.6538046e-08
2.5378291e-07
-8.6448385e-08
2.507267e-07
-8.6315762e-08
2.4763518e-07
-8.6140031e-08
2.4451064e-07
-8.5921622e-08
2.4135553e-07
-8.566113e-08
2.3817252e-07
-8.5359172e-08
2.3496393e-07
-8.5015783e-08
2.3173181e-07
-8.4628742e-08
2.2847605e-07
-8.4203218e-08
2.2520028e-07
-8.3738866e-08
2.2190655e-07
-8.3236204e-08
2.1859693e-07
-8.2696117e-08
2.1527347e-07
-8.2119539e-08
2.1193816e-07
-8.1507476e-08
2.0859299e-07
-8.0860964e-08
2.0523991e-07
-8.0181097e-08
2.0188087e-07
-7.9469009e-08
1.9851792e-07
-7.8725862e-08
1.951532e-07
-7.7952807e-08
1.9178916e-07
-7.7150931e-08
-7.6321339e-08
3.1607778e-07
-7.0507027e-08
3.1507793e-07
-7.1638701e-08
3.1396275e-07
-7.2715482e-08
3.127366e-07
-7.3739451e-08
3.1140306e-07
-7.4712144e-08
3.0996608e-07
-7.5636771e-08
3.0843087e-07
-7.6515269e-08
3.0679887e-07
-7.7346871e-08
3.0507361e-07
-7.8132897e-08
3.0325961e-07
-7.8875157e-08
3.0135802e-07
-7.9571748e-08
2.9937248e-07
-8.0224441e-08
2.9730671e-07
-8.0834128e-08
2.9516355e-07
-8.1401186e-08
2.9294575e-07
-8.1925914e-08
2.9065601e-07
-8.2408454e-08
2.8829698e-07
-8.2848909e-08
2.8587128e-07
-8.3247342e-08
2.8338151e-07
-8.3603788e-08
2.8083022e-07
-8.3918248e-08
2.7821992e-07
-8.4190705e-08
2.755531e-07
-8.4421101e-08
2.7283217e-07
-8.4609377e-08
2.7005942e-07
-8.4755419e-08
2.6723698e-07
-8.4859194e-08
2.6436715e-07
-8.4921072e-08
2.6145431e-07
-8.4942332e-08
2.5849834e-07
-8.4919654e-08
2.555023e-07
-8.4854418e-08
2.5246805e-07
-8.4748934e-08
2.4939815e-07
-8.4602351e-08
2.4629467e-07
-8.4414793e-08
2.4315974e-07
-8.4186672e-08
2.3999575e-07
-8.3918627e-08