/*--------------------------------*- C++ -*----------------------------------*\
| =========                 |                                                 |
| \\      /  F ield         | OpenFOAM: The Open Source CFD Toolbox           |
|  \\    /   O peration     | Version:  2312                                  |
|   \\  /    A nd           | Website:  www.openfoam.com                      |
|    \\/     M anipulation  |                                                 |
\*---------------------------------------------------------------------------*/
FoamFile
{
    version     2.0;
    format      ascii;
    arch        "LSB;label=32;scalar=64";
    class       volScalarField;
    location    "0.06";
    object      T;
}
// * * * * * * * * * * * * * * * * * * * * * * * * * * * * * * * * * * * * * //

dimensions      [0 0 0 1 0 0 0];

internalField   nonuniform List<scalar> 
3272
(
328.71584
329.55581
330.3817
331.19343
331.99029
332.77101
333.53418
334.27876
335.00438
335.71139
336.40064
337.07307
337.72944
338.37013
338.99511
339.60393
340.1958
340.76964
341.32424
341.85832
342.37073
342.86062
343.32751
343.77124
344.19196
344.59045
344.96508
345.31889
345.64963
345.95775
346.24323
346.50493
346.7425
346.95576
347.14472
347.30959
347.45072
347.56853
347.66356
347.73597
347.78646
347.81527
347.82251
347.80838
347.77308
347.7169
347.64036
347.54411
347.42894
347.29571
347.14527
346.97831
346.7952
334.47428
335.29649
336.10453
336.89793
337.67585
338.43708
339.18036
339.9047
340.60971
341.29553
341.96271
342.61188
343.24356
343.85797
344.455
345.0342
345.59486
346.13605
346.6567
347.15573
347.6321
348.08503
348.51444
348.91993
349.30001
349.65827
349.99131
350.30199
350.58926
350.85253
351.09151
351.30578
351.49501
351.65906
351.79792
351.91186
352.00121
352.06609
352.10737
352.12534
352.1203
352.09267
352.04264
351.97038
351.87625
351.76062
351.624
351.46708
351.29067
351.09569
350.88301
350.6534
350.40723
343.74118
344.56796
345.37823
346.17126
346.94618
347.70199
348.43768
349.15247
349.84595
350.51811
351.16917
351.79944
352.40915
352.99835
353.56686
354.11426
354.63997
355.14328
355.62325
356.07949
356.5111
356.91561
357.29708
357.65047
357.97905
358.28196
358.55875
358.80978
359.03494
359.23395
359.40649
359.55228
359.67109
359.76291
359.82747
359.86543
359.87691
359.86232
359.82188
359.75645
359.66586
359.55081
359.41159
359.24851
359.06195
358.85236
358.62034
358.36659
358.09196
357.79736
357.48371
357.15184
356.8023
354.33858
355.21238
356.06522
356.89631
357.70488
358.49017
359.25148
359.98824
360.70012
361.38699
362.0489
362.68593
363.29813
363.88542
364.44756
364.98419
365.49488
365.97942
366.4347
366.86438
367.26652
367.63902
367.98514
368.30166
368.58904
368.84735
369.07656
369.27669
369.44764
369.58923
369.70126
369.78358
369.8358
369.85838
369.85123
369.81453
369.74851
369.65381
369.53001
369.37815
369.19857
368.99166
368.75783
368.49748
368.21107
367.89913
367.56233
367.20141
366.81724
366.41075
365.98289
365.53458
365.06655
364.88976
365.84327
366.77073
367.67138
368.54464
369.38993
370.20678
370.99479
371.7537
372.48338
373.18376
373.85481
374.49648
375.10866
375.69109
376.24337
376.76493
377.25266
377.71313
378.13972
378.53733
378.90385
379.23805
379.53966
379.80862
380.04491
380.2485
380.41932
380.55729
380.66226
380.73407
380.77247
380.77785
380.75004
380.68896
380.59564
380.46937
380.31014
380.11885
379.89592
379.64175
379.35674
379.04134
378.696
378.32125
377.91768
377.48597
377.02692
376.54138
376.0303
375.49466
374.93544
374.35354
374.82016
375.86496
376.87907
377.86187
378.81289
379.73173
380.61804
381.47155
382.29207
383.07947
383.83364
384.55452
385.24202
385.89602
386.51637
387.10303
387.64968
388.16632
388.64562
389.09173
389.50611
389.88496
390.22815
390.53551
390.80694
391.04235
391.24164
391.40473
391.5315
391.62185
391.67515
391.69215
391.67273
391.61655
391.52379
391.39585
391.2307
391.02925
390.79211
390.51963
390.21218
389.87016
389.49398
389.08414
388.64116
388.16564
387.65828
387.11985
386.55119
385.95323
385.32695
384.67337
383.99349
384.04538
385.17551
386.27113
387.33178
388.35709
389.3468
390.30068
391.21856
392.10029
392.94579
393.75497
394.52776
395.26409
395.96382
396.62661
397.25163
397.83278
398.38421
398.8924
399.36782
399.80762
400.20932
400.57275
400.89776
401.18418
401.43188
401.6407
401.81052
401.94117
402.03253
402.08383
402.09606
402.06895
402.00212
401.89569
401.7514
401.56641
401.34185
401.07826
400.77592
400.43511
400.05618
399.63951
399.18554
398.69476
398.16774
397.60512
397.00764
396.37609
395.71135
395.01436
394.28612
393.52769
392.68279
393.88273
395.04501
396.16934
397.25553
398.30343
399.31294
400.28397
401.21649
402.11046
402.96586
403.7827
404.561
405.30086
406.00256
406.6562
407.27173
407.85516
408.39176
408.89603
409.36176
409.78759
410.17336
410.51889
410.824
411.08849
411.31218
411.49487
411.63637
411.7365
411.79426
411.81088
411.78598
411.71907
411.6102
411.46125
411.26911
411.03447
410.75804
410.43997
410.08046
409.67977
409.23818
408.75606
408.23383
407.67197
407.07105
406.43171
405.75468
405.04076
404.29083
403.50584
402.68676
400.88339
402.13436
403.34499
404.51519
405.64493
406.73424
407.78315
408.79171
409.76
410.68807
411.576
412.42384
413.23166
413.99952
414.72758
415.40442
416.04836
416.64866
417.20866
417.73571
418.22171
418.66673
419.07064
419.43327
419.75442
420.03386
420.27136
420.46668
420.61957
420.72979
420.79608
420.81987
420.80074
420.73802
420.63163
420.48357
420.29083
420.05309
419.77145
419.44595
419.07665
418.6637
418.20727
417.70761
417.16504
416.57993
415.95275
415.28403
414.5744
413.82457
413.03536
412.20763
411.3421
408.7641
410.04756
411.28828
412.48642
413.64215
414.7557
415.82726
416.85705
417.84527
418.79211
419.69775
420.56232
421.38591
422.16841
422.90886
423.59802
424.25754
424.8675
425.44276
425.98155
426.47909
426.9353
427.35004
427.72313
428.05434
428.34341
428.59008
428.79407
428.95506
429.07278
429.14568
429.17538
429.1614
429.1029
428.99962
428.85362
428.66235
428.42404
428.14036
427.81119
427.43649
427.01624
426.55051
426.03941
425.48312
424.8819
424.23608
423.54608
422.81241
422.0357
421.21673
416.39587
417.69474
418.94876
420.15832
421.32385
422.44576
423.52444
424.56029
425.55367
426.5049
427.41431
428.28217
429.10887
429.89526
430.62787
431.32396
431.9858
432.59698
433.1775
433.71838
434.21828
434.67706
435.09454
435.47051
435.80473
436.09692
436.34679
436.554
436.7182
436.83905
436.91481
436.9472
436.93567
436.87921
436.7774
436.63207
436.44175
436.20284
435.91759
435.58576
435.20714
434.78161
434.30909
433.78955
433.22304
432.60968
431.94966
431.24326
430.49086
429.69295
428.85011
423.81342
425.11231
426.36454
427.57075
428.7316
429.84772
430.91972
431.94818
432.93361
433.87651
434.77728
435.63617
436.45321
437.22836
437.9507
438.64488
439.28929
439.89928
440.47404
441.00838
441.50228
441.95562
442.36823
442.73989
443.07036
443.35932
443.60644
443.81136
443.97367
444.09297
444.1674
444.19874
444.18631
444.12906
444.02662
443.87875
443.68778
443.44733
443.1597
442.8248
442.44229
442.01192
441.53346
441.00676
440.43171
439.80829
439.13655
438.41662
437.64873
436.8332
435.9705
431.02894
432.31395
433.55082
434.74047
435.88378
436.98162
438.0348
439.04407
440.01016
440.93374
441.8154
442.65549
443.45343
444.19873
444.91298
445.58564
446.214
446.8131
447.37278
447.89295
448.37359
448.81457
449.21572
449.57683
449.89762
450.17777
450.4169
450.61459
450.7704
450.88383
450.95305
450.97987
450.96324
450.90219
450.79618
450.64467
450.45063
450.207
449.91575
449.57688
449.18994
448.75453
448.27027
447.73688
447.1541
446.52176
445.83977
445.1081
444.32685
443.49617
442.6164
438.0429
439.30134
440.51059
441.67179
442.78609
443.85456
444.87819
445.85795
446.79473
447.6894
448.54297
449.35705
450.1154
450.83774
451.52986
452.17203
452.78446
453.36094
453.899
454.3987
454.86003
455.28288
455.66709
456.01244
456.31862
456.58529
456.81204
456.99842
457.14386
457.24765
457.30844
457.3278
457.3042
457.23682
457.12498
456.96804
456.76923
456.52093
456.2249
455.8812
455.48922
455.04843
454.55833
454.01848
453.42847
452.78799
452.09679
451.35472
450.56169
449.71773
448.82302
444.85095
446.07119
447.24164
448.36368
449.43866
450.46787
451.45249
452.39363
453.29228
454.14931
454.9654
455.74076
456.46221
457.15871
457.80748
458.42574
459.0109
459.55885
460.06977
460.54374
460.98076
461.38073
461.74349
462.06879
462.35633
462.60572
462.81655
462.98832
463.12056
463.21093
463.26105
463.27052
463.23776
463.16204
463.04261
462.87871
462.67381
462.41966
462.11796
461.76873
461.37127
460.9249
460.42896
459.88287
459.2861
458.63818
457.9387
457.18736
456.38395
455.52832
454.6205
451.44757
452.61899
453.74049
454.81367
455.8401
456.82124
457.75848
458.65305
459.50605
460.31843
461.09094
461.81196
462.50511
463.15219
463.76824
464.35431
464.90447
465.41904
465.89821
466.34208
466.75064
467.12382
467.46143
467.76321
468.02882
468.25785
468.44984
468.60422
468.72018
468.79582
468.83313
468.83052
468.78682
468.70119
468.57279
468.40076
468.18879
467.92791
467.6199
467.26471
466.86151
466.40948
465.90784
465.35584
464.75283
464.09817
463.39132
462.63184
461.81935
460.95357
460.03435
457.82788
458.94081
460.0042
461.01983
461.98945
462.91471
463.7972
464.63828
465.43915
466.20084
466.91178
467.59541
468.23377
468.84053
469.41977
469.96461
470.47543
470.95253
471.39611
471.80625
472.18296
472.52613
472.83556
473.11097
473.35199
473.55817
473.72903
473.86414
473.96084
474.02062
474.04332
474.02715
473.97114
473.8744
473.73599
473.55492
473.33517
473.06694
472.75219
472.39078
471.98174
471.52412
471.017
470.4595
469.8508
469.19015
468.47686
467.71032
466.89004
466.01559
465.08666
463.98813
465.03394
466.03106
466.98144
467.88695
468.74941
469.57072
470.35234
471.09552
471.78882
472.4555
473.07803
473.6693
474.23426
474.76643
475.26628
475.7342
476.17048
476.57529
476.94874
477.29079
477.60132
477.88011
478.12684
478.34111
478.5224
478.67012
478.78357
478.86061
478.9029
478.90941
478.87844
478.80905
478.70027
478.55103
478.36027
478.13223
477.85618
477.53441
477.16664
476.75177
476.2887
475.77639
475.21382
474.60003
473.93412
473.21526
472.44272
471.61588
470.73422
469.79733
469.92591
470.89697
471.82071
472.69916
473.53421
474.32761
475.0823
475.79943
476.46782
477.11078
477.71021
478.28012
478.82367
479.33609
479.81796
480.26976
480.69188
481.0846
481.4481
481.78243
482.08755
482.36332
482.60948
482.82569
483.01148
483.16629
483.28948
483.37905
483.43583
483.45958
483.4487
483.40196
483.31834
483.19675
483.03609
482.83516
482.59844
482.31421
481.98524
481.61104
481.19037
480.72204
480.20484
479.63762
479.0193
478.34883
477.62523
476.84765
476.01535
475.12777
475.63992
476.52966
477.37398
478.17496
478.9343
479.65232
480.33626
480.97268
481.58536
482.15482
482.69745
483.21288
483.69881
484.15595
484.58493
484.98625
485.36027
485.70728
486.02742
486.32074
486.58715
486.82648
487.03844
487.22266
487.37863
487.50572
487.60176
487.66839
487.70364
487.70757
487.67844
487.61515
487.51658
487.38159
487.209
486.99767
486.75196
486.45924
486.12292
485.74224
485.31585
484.84241
484.3206
483.74914
483.12679
482.45238
481.72479
480.94301
480.10612
479.21317
481.12983
481.93268
482.69264
483.41184
484.09282
484.72552
485.32658
485.90205
486.4353
486.94457
487.42561
487.87868
488.30469
488.70444
489.07855
489.42751
489.75169
490.05135
490.3266
490.57746
490.8038
491.00542
491.18195
491.33311
491.45824
491.55514
491.62574
491.66751
491.68066
491.66384
491.61579
491.53534
491.42126
491.2723
491.08733
490.86584
490.61075
490.30923
489.96542
489.57823
489.14617
488.66778
488.14161
487.56624
486.94031
486.2625
485.53157
484.74637
483.9058
483.00878
486.39617
487.10737
487.77904
488.41238
488.99944
489.55921
490.08081
490.57377
491.04358
491.48438
491.89857
492.28739
492.65181
492.9926
493.31039
493.60565
493.87874
494.12989
494.35916
494.56656
494.75185
494.91489
495.05496
495.17241
495.26443
495.33312
495.3765
495.3933
495.38334
495.34523
495.27777
495.1797
495.04967
494.88623
494.68775
494.45826
494.1924
493.88182
493.53042
493.13669
492.69902
492.21581
491.68547
491.10647
490.47731
489.79656
489.06285
488.27491
487.43157
486.53171
491.44037
492.05534
492.63671
493.16899
493.6798
494.14983
494.59598
495.01606
495.41058
495.78008
496.12589
496.44916
496.75082
497.03163
497.29215
497.53285
497.75408
497.956
498.1386
498.30197
498.44547
498.56971
498.67198
498.75449
498.81567
498.85453
498.87
498.86153
498.828
498.76827
498.6811
498.56512
498.41892
498.24095
498.02961
497.78996
497.51362
497.19417
496.83518
496.43493
495.99169
495.50374
494.9694
494.38699
493.7549
493.07157
492.33553
491.54539
490.69998
496.26554
496.77684
497.2623
497.70635
498.12418
498.51692
498.88283
499.22455
499.54347
499.84065
500.11719
500.37416
500.61244
500.83274
501.03553
501.2212
501.39022
501.54266
501.67813
501.79759
501.89818
501.98226
502.04884
502.09686
502.12573
502.13434
502.12209
502.08783
502.03055
501.94905
501.84199
501.70797
501.54548
501.35294
501.12871
500.87834
500.59134
500.26311
499.89652
499.48975
499.04097
498.54837
498.01013
497.42449
496.78969
496.10407
495.36602
494.574
493.72639
500.86244
501.28408
501.66516
502.02323
502.35405
502.66076
502.94465
503.20745
503.45056
503.67509
503.88203
504.07248
504.24728
504.40704
504.55202
504.6825
504.79941
504.90273
504.99014
505.0649
505.12466
505.16953
505.19907
505.21254
505.20906
505.18775
505.14748
505.08742
505.00638
504.90306
504.77609
504.62399
504.44519
504.23806
504.00089
503.73962
503.44184
503.10482
502.73062
502.31734
501.86307
501.36587
500.82383
500.23507
499.59774
498.91005
498.17029
497.37676
496.52773
505.25074
505.57045
505.85986
506.12471
506.36655
506.58739
506.78899
506.97286
507.14034
507.2925
507.42992
507.55408
507.66575
507.76562
507.85282
507.92801
507.9933
508.04701
508.08875
508.11915
508.13745
508.14331
508.13618
508.11546
508.07998
508.02855
507.96055
507.87484
507.77015
507.64512
507.49832
507.3282
507.13316
506.91149
506.66143
506.38922
506.0806
505.73478
505.35298
504.93321
504.47347
503.97172
503.42595
502.83417
502.19443
501.50484
500.7636
499.96899
499.11931
509.432
509.64946
509.84298
510.01526
510.16828
510.30357
510.42329
510.52879
510.62126
510.70202
510.77007
510.82864
510.8779
510.91778
510.94852
510.97032
510.98397
510.98891
510.98485
510.97182
510.94909
510.91643
510.87353
510.81878
510.75127
510.67037
510.57498
510.4639
510.33582
510.18931
510.02286
509.83488
509.62371
509.38764
509.12485
508.84174
508.52228
508.16769
507.77831
507.35208
506.8869
506.38064
505.83119
505.23646
504.5944
503.90301
503.16044
502.365
513.40513
513.52242
513.62025
513.70071
513.76592
513.81614
513.85501
513.88315
513.90149
513.91116
513.91239
513.90644
513.89389
513.87498
513.84991
513.81886
513.78223
513.73938
513.69011
513.63469
513.57144
513.50184
513.4228
513.33448
513.2359
513.12603
513.00371
512.86769
512.71658
512.54891
512.3631
512.15748
511.93037
511.68008
511.40499
511.111
510.78073
510.4174
510.0205
509.58785
509.11728
508.60656
508.05348
507.45586
506.81153
506.11839
505.37443
504.57756
517.17537
517.19401
517.19728
517.18704
517.16514
517.13282
517.09206
517.04394
516.98948
516.92987
516.86519
516.79607
516.72317
516.64679
516.56707
516.48412
516.39875
516.30916
516.21528
516.11928
516.01682
515.90939
515.79566
515.67481
515.54583
515.40762
515.25895
515.09851
514.92486
514.73644
514.53163
514.30867
514.0658
513.80138
513.51508
513.20993
512.86892
512.49694
512.09259
511.6536
511.17769
510.66257
510.10592
509.50545
508.8589
508.16406
507.41875
506.62079
520.74826
520.66979
520.57995
520.48065
520.37357
520.26005
520.1415
520.0189
519.89317
519.76648
519.63742
519.50659
519.37491
519.24261
519.10967
518.97567
518.84397
518.70868
518.57224
518.4347
518.29437
518.15091
518.0034
517.85089
517.69231
517.5265
517.35217
517.16794
516.9723
516.76365
516.54028
516.30036
516.04193
515.76269
515.46843
515.15039
514.79893
514.41847
514.0068
513.56157
513.08042
512.56095
512.00078
511.39752
510.74881
510.05233
509.30578
508.50693
524.12869
523.95514
523.77421
523.58792
523.39778
523.20505
523.01082
522.81578
522.62001
522.42952
522.23772
522.04665
521.85798
521.67154
521.48726
521.30507
521.12558
520.94692
520.76922
520.5922
520.41491
520.2366
520.05637
519.87318
519.68592
519.49335
519.29413
519.0868
518.86982
518.64152
518.40012
518.14376
517.87042
517.57785
517.2735
516.94323
516.58215
516.19338
515.77454
515.32319
514.83689
514.31317
513.74955
513.14356
512.49274
511.79469
511.047
510.24736
527.32292
527.05593
526.78613
526.51526
526.24447
525.97487
525.70744
525.44263
525.18112
524.92501
524.67265
524.42436
524.18085
523.94221
523.70836
523.47917
523.25454
523.03361
522.81594
522.60103
522.38804
522.17613
521.96432
521.75153
521.53657
521.31815
521.09488
520.86524
520.62762
520.3803
520.12147
519.84921
519.56156
519.2564
518.94149
518.59937
518.22909
517.83226
517.40643
516.94911
516.45779
515.92991
515.36292
514.75427
514.1014
513.40183
512.65306
511.85271
530.33279
529.97705
529.62178
529.26915
528.92036
528.57646
528.23852
527.90642
527.58073
527.26268
526.95179
526.64808
526.3518
526.06295
525.78139
525.5069
525.23916
524.97751
524.72137
524.47007
524.22277
523.97856
523.73639
523.49513
523.25354
523.01026
522.76384
522.51271
522.2552
521.98956
521.71389
521.42629
521.12487
520.80793
520.48238
520.1288
519.7496
519.34495
518.91234
518.44923
517.95302
517.4211
516.85083
516.23959
515.58475
514.88371
514.13391
513.33288
533.1683
532.72595
532.28769
531.85615
531.43215
531.01659
530.61125
530.21443
529.82672
529.44965
529.08264
528.72567
528.37875
528.04174
527.71443
527.39652
527.08755
526.7869
526.49389
526.20775
525.92759
525.65244
525.38119
525.11265
524.84553
524.5784
524.30978
524.03803
523.76144
523.47818
523.18633
522.8839
522.56905
522.24182
521.90528
521.54063
521.15281
520.7406
520.30144
519.83271
519.33177
518.79594
518.22251
517.60877
516.95202
516.24957
515.49877
514.6971
535.83543
535.30911
534.7902
534.28283
533.78654
533.30168
532.83286
532.37399
531.9263
531.49315
531.07252
530.66458
530.26928
529.88623
529.51519
529.15579
528.80749
528.46961
528.14139
527.822
527.51048
527.20578
526.90676
526.61217
526.32066
526.03075
525.7409
525.44943
525.15458
524.85446
524.5471
524.23034
523.90161
523.56768
523.21829
522.84327
522.44718
522.0277
521.58222
521.10808
520.60258
520.06298
519.4865
518.87036
518.21178
517.50799
516.75623
515.95391
538.33427
537.7287
537.1352
536.55576
535.99036
535.43732
534.91097
534.39245
533.88597
533.40035
532.92854
532.47199
532.03067
531.60372
531.191
530.79209
530.40636
530.03306
529.67135
529.32031
528.97894
528.64613
528.32068
528.00128
527.68654
527.37493
527.06485
526.75458
526.44232
526.12613
525.80399
525.47377
525.13308
524.79037
524.42883
524.04459
523.64055
523.21409
522.76255
522.28321
521.77333
521.23011
520.65071
520.0323
519.37199
518.66691
517.91422
517.11125
540.6766
539.99491
539.3296
538.68161
538.05117
537.43848
536.84789
536.27246
535.71094
535.17865
534.65755
534.1547
533.66997
533.20116
532.74881
532.31239
531.89116
531.48427
531.09079
530.70973
530.34004
529.98055
529.63002
529.28708
528.95027
528.61805
528.28876
527.96063
527.63181
527.30033
526.96414
526.62123
526.26986
525.91766
525.54462
525.1518
524.74017
524.30703
523.8497
523.36539
522.85132
522.30464
521.72247
521.10191
520.43998
519.7337
518.98012
518.17649
545.24496
544.43379
543.6412
542.8676
542.11363
541.37983
540.6667
539.97444
539.30338
538.65475
538.02586
537.41644
536.83095
536.26086
535.71904
535.19412
534.68514
534.19526
533.72333
533.26852
532.8299
532.40636
531.99691
531.60042
531.2157
530.84142
530.4762
530.11852
529.76678
529.41928
529.07422
528.72971
528.38373
528.03417
527.67904
527.31874
526.95642
526.57253
526.1716
525.75275
525.31327
524.8504
524.36135
523.84328
523.29332
522.70854
522.08597
521.42257
520.7152
519.96075
519.15641
547.51951
546.6281
545.75929
544.91344
544.09095
543.29215
542.51726
541.76636
541.03955
540.33706
539.65765
539.00109
538.36856
537.75724
537.17063
536.60207
536.06169
535.53664
535.03116
534.54473
534.07624
533.62435
533.1881
532.76633
532.35779
531.96112
531.57487
531.19748
530.82731
530.46261
530.10156
529.74222
529.38253
529.02025
528.65257
528.28702
527.91255
527.51879
527.11021
526.68452
526.23901
525.7709
525.27734
524.75547
524.20239
523.61515
522.99076
522.32606
521.61773
520.86243
520.05735
549.64286
548.67538
547.73446
546.82027
545.933
545.07274
544.23948
543.43314
542.65361
541.90069
541.17363
540.47208
539.79611
539.14451
538.51794
537.91394
537.3349
536.77357
536.2418
535.72572
535.22933
534.75068
534.28918
533.84362
533.41269
532.99496
532.58891
532.19297
531.80544
531.42455
531.04843
530.67511
530.30253
529.92851
529.55037
529.17748
528.79147
528.38924
527.97339
527.54124
527.09003
526.61694
526.11911
525.59363
525.0376
524.44807
523.82204
523.1563
522.4472
521.69104
520.88512
551.62112
550.58179
549.57284
548.59422
547.64587
546.72768
545.83944
544.98088
544.1517
543.3515
542.57964
541.83563
541.11909
540.42924
539.76581
539.12749
538.51436
537.92326
537.35543
536.81559
536.29496
535.79095
535.30567
534.8378
534.38587
533.94839
533.52378
533.11043
532.7066
532.31049
531.9202
531.53374
531.14907
530.76418
530.37703
529.99583
529.59909
529.18917
528.76648
528.32824
527.87165
527.39386
526.89198
526.3631
525.80428
525.21261
524.58514
523.91866
523.20908
522.45195
521.6451
553.4604
552.35346
551.28052
550.2413
549.23556
548.26294
547.32307
546.4155
545.53975
544.69527
543.88141
543.09754
542.34308
541.61728
540.91953
540.24882
539.60451
538.98482
538.38962
537.81792
537.27497
536.75037
536.24275
535.75399
535.28246
534.82654
534.38459
533.95494
533.53584
533.12547
532.72189
532.3231
531.92705
531.53195
531.13766
530.74706
530.34054
529.92352
529.49441
529.05045
528.58881
528.1066
527.6009
527.06879
526.50733
525.91365
525.28492
524.61815
523.90851
523.15
522.34217
555.16681
553.99643
552.86348
551.76748
550.70796
549.68437
548.69617
547.74273
546.82343
545.93759
545.08447
544.26333
543.47347
542.71406
541.98434
541.28335
540.61018
539.96354
539.34279
538.74725
538.17789
537.6278
537.10524
536.59704
536.10728
535.6342
535.17612
534.73127
534.29791
533.87419
533.45818
533.04784
532.64102
532.23583
531.83801
531.43525
531.02052
530.59688
530.16178
529.71247
529.24608
528.75972
528.25043
527.71527
527.15129
526.55566
525.92575
525.25929
556.74641
555.51669
554.32765
553.17859
552.06884
550.99768
549.96437
548.96815
548.00825
547.08386
546.19416
545.3383
544.51547
543.72476
542.96531
542.23611
541.53618
540.86434
540.21972
539.6015
539.00926
538.43958
537.89245
537.37149
536.86486
536.37586
535.90284
535.44386
534.99722
534.56106
534.13344
533.7123
533.29532
532.88313
532.47864
532.06523
531.64339
531.21352
530.77283
530.31852
529.84771
529.35746
528.8448
528.30675
527.74036
527.14278
526.51151
558.20518
556.92013
555.67882
554.48034
553.32384
552.20841
551.13314
550.09714
549.0995
548.1393
547.21561
546.32751
545.47406
544.6543
543.86725
543.11189
542.38714
541.69187
541.02505
540.38569
539.77287
539.18451
538.61961
538.07675
537.55933
537.05569
536.56894
536.0969
535.63793
535.19017
534.75175
534.32056
533.8933
533.47799
533.06384
532.64125
532.21303
531.77738
531.33151
530.87255
530.39761
529.90374
529.38792
528.84716
528.27845
527.67884
527.04534
559.549
558.21253
556.92266
555.67832
554.47844
553.32194
552.20778
551.13491
550.1023
549.10893
548.15377
547.23581
546.35401
545.50736
544.69479
543.91521
543.16752
542.45054
541.76315
541.10424
540.47268
539.86685
539.28544
538.72703
538.19012
537.67759
537.17834
536.69428
536.22391
535.76534
535.31689
534.87668
534.44178
534.02099
533.5969
533.16716
532.73312
532.29215
531.84146
531.3782
530.89944
530.40219
529.88344
529.34013
528.76921
528.1676
527.53205
560.78363
559.39952
558.06472
556.77795
555.53795
554.3435
553.1934
552.08646
551.02156
549.99756
549.01335
548.06783
547.15988
546.28841
545.4523
544.6504
543.88155
543.14453
542.43817
541.76124
541.11253
540.49055
539.89389
539.32109
538.7707
538.24086
537.73462
537.23961
536.75882
536.29012
535.83235
535.38403
534.94351
534.51537
534.08228
533.64654
533.20711
532.76123
532.30611
531.83887
531.35657
530.85621
530.33472
529.78904
529.21604
528.61256
527.97521
561.9147
560.4866
559.11036
557.78449
556.50754
555.27813
554.09492
552.95663
551.86201
550.80983
549.79889
548.82801
547.89602
547.00173
546.14398
545.32155
544.53324
543.77781
543.05399
542.36053
541.69611
541.0593
540.44863
539.86259
539.29969
538.75868
538.23667
537.73622
537.24613
536.76781
536.30124
535.84558
535.40236
534.96375
534.52363
534.08257
533.63819
533.1878
532.7286
532.25771
531.77215
531.26891
530.7449
530.19701
529.6221
529.01689
528.37798
562.94763
561.4791
560.0648
558.70304
557.39218
556.13069
554.91711
553.75006
552.62817
551.55015
550.51471
549.5206
548.56656
547.65137
546.77378
545.93256
545.12643
544.35412
543.61432
542.90571
542.22694
541.57657
540.95309
540.35496
539.78062
539.22855
538.69734
538.18334
537.68921
537.20153
536.72642
536.26765
535.81697
535.36997
534.92428
534.47825
534.02933
533.57481
533.11188
532.63763
532.14908
531.6432
531.11687
530.56697
529.99029
529.38352
528.74323
563.88766
562.38216
560.9331
559.53853
558.19667
556.90586
555.66453
554.47119
553.3244
552.22278
551.16496
550.14963
549.17547
548.24119
547.34551
546.48712
545.66473
544.87701
544.12263
543.40021
542.70836
542.04562
541.41047
540.80134
540.21663
539.65473
539.11421
538.59203
538.08783
537.59441
537.11387
536.6484
536.19056
535.73758
535.28695
534.83638
534.38331
533.92501
533.45867
532.98136
532.49009
531.98179
531.45335
530.90159
530.3233
529.71513
529.07363
573.36934
571.51182
569.72263
567.99932
566.33926
564.73974
563.20081
561.72015
560.29572
558.92564
557.60813
556.34155
555.12429
553.95485
552.83176
551.75359
550.71896
549.7265
548.77487
547.86273
546.98875
546.15158
545.34986
544.58222
543.84725
543.14353
542.46956
541.82382
541.2047
540.61057
540.03977
539.4907
538.9608
538.44842
537.94933
537.46388
536.99133
536.52758
536.06945
535.61426
535.15954
534.70269
534.24096
533.77152
533.29143
532.79768
532.28718
531.75681
531.20338
530.62363
530.0142
529.37163
574.32159
572.42249
570.59438
568.83454
567.14025
565.50908
563.93992
562.43065
560.97918
559.58353
558.24184
556.95237
555.71345
554.52349
553.38095
552.28436
551.23225
550.22323
549.2559
548.32887
547.44077
546.59023
545.77584
544.9962
544.24988
543.53542
542.8513
542.19597
541.56782
540.96518
540.38635
539.82957
539.29259
538.7733
538.26877
537.77812
537.29979
536.83079
536.36799
535.90864
535.45016
534.98988
534.52505
534.0528
533.57019
533.0742
532.56172
532.02961
531.47465
530.89359
530.28304
529.63954
575.17847
573.24177
571.37848
569.58566
567.86052
566.20062
564.60421
563.06915
561.5933
560.1746
558.81111
557.50101
556.24256
555.03411
553.87405
552.76085
551.69301
550.66907
549.68759
548.74715
547.84635
546.98376
546.15796
545.36752
544.61098
543.88685
543.1936
542.52965
541.89337
541.28306
540.69699
540.13334
539.58995
539.06464
538.55497
538.05942
537.57613
537.10247
536.63548
536.17236
535.71048
535.24711
534.77948
534.30471
533.81984
533.32183
532.80757
532.27389
531.71757
531.13534
530.52379
529.87946
575.94546
573.97497
572.08007
570.25765
568.50484
566.81905
565.19819
563.64001
562.1423
560.70292
559.31989
557.9913
556.71535
555.49032
554.31457
553.18649
552.10455
551.06724
550.0731
549.12065
548.20846
547.33508
546.49907
545.69896
544.93327
544.20049
543.49907
542.8274
542.18383
541.56667
540.97412
540.40433
539.85522
539.32459
538.8102
538.31018
537.82255
537.34478
536.87404
536.40755
535.9426
535.47647
535.00634
534.52931
534.04242
533.5426
533.02674
532.49167
531.93414
531.35087
530.73844
530.09339
576.62784
574.6272
572.7041
570.85528
569.07776
567.36885
565.72617
564.14739
562.6302
561.17241
559.77197
558.42691
557.13537
555.89558
554.70584
553.56452
552.47003
551.42082
550.41539
549.45226
548.52994
547.64696
546.80186
545.99315
545.21932
544.47884
543.77014
543.09161
542.44157
541.8183
541.22
540.64478
540.09059
539.55526
539.03659
538.53258
538.04111
537.55972
537.08566
536.61616
536.1485
535.6799
535.20754
534.72851
534.23982
533.7384
533.22113
532.68482
532.12622
531.54203
530.92884
530.28317
577.23073
575.20338
573.25529
571.38309
569.5837
567.85428
566.19229
564.59527
563.06086
561.58679
560.17094
558.81131
557.50598
556.25314
555.05104
553.89801
552.79242
551.7327
550.71731
549.74473
548.81346
547.922
547.06887
546.25256
545.47154
544.72426
544.00914
543.32455
542.66879
542.04013
541.43675
540.85675
540.29808
539.75861
539.23614
538.72858
538.23375
537.74919
537.27221
536.80006
536.32999
535.85922
535.3849
534.9041
534.41383
533.911
533.39249
532.85509
532.29555
531.71056
531.09671
530.45051
577.75903
575.70821
573.73818
571.84546
570.02685
568.27942
566.60048
564.98747
563.43794
561.94959
560.52023
559.14783
557.83041
556.56613
555.35319
554.1899
553.07459
552.00565
550.98152
550.00066
549.06155
548.16267
547.30251
546.47954
545.69222
544.93899
544.21824
543.52834
542.86758
542.23421
541.62639
541.0422
540.47962
539.93652
539.41072
538.90005
538.40228
537.91496
537.43544
536.96097
536.4888
536.01613
535.5401
535.05776
534.5661
534.06205
533.54245
533.0041
532.44375
531.85808
531.24366
530.59701
578.21744
576.14622
574.15713
572.24656
570.41126
568.64817
566.9545
565.3276
563.76495
562.2642
560.82311
559.43961
558.1117
556.83749
555.61515
554.44295
553.3192
552.24227
551.21056
550.22252
549.27661
548.37129
547.50502
546.67628
545.88351
545.12512
544.3995
543.70499
543.03989
542.40243
541.79077
541.20297
540.63701
540.09077
539.56206
539.0487
538.5484
538.0587
537.57698
537.10051
536.62652
536.15221
535.67469
535.19102
534.69818
534.19307
533.67254
533.13338
532.57233
531.98607
531.37119
530.72416
578.61047
576.52174
574.51627
572.59039
570.74075
568.96422
567.25791
565.6191
564.04521
562.53381
561.08267
559.68965
558.35275
557.07002
555.83962
554.65978
553.5288
552.44502
551.40682
550.41263
549.46089
548.55005
547.67856
546.84488
546.04743
545.28462
544.55483
543.85639
543.18758
542.54662
541.93167
541.34078
540.77193
540.22301
539.69182
539.17615
538.67368