/*--------------------------------*- C++ -*----------------------------------*\
| =========                 |                                                 |
| \\      /  F ield         | OpenFOAM: The Open Source CFD Toolbox           |
|  \\    /   O peration     | Version:  2312                                  |
|   \\  /    A nd           | Website:  www.openfoam.com                      |
|    \\/     M anipulation  |                                                 |
\*---------------------------------------------------------------------------*/
FoamFile
{
    version     2.0;
    format      ascii;
    arch        "LSB;label=32;scalar=64";
    class       volScalarField;
    location    "0.05";
    object      k;
}
// * * * * * * * * * * * * * * * * * * * * * * * * * * * * * * * * * * * * * //

dimensions      [0 2 -2 0 0 0 0];

internalField   nonuniform List<scalar> 
3250
(
9.7337425
9.6986772
9.663177
9.6273423
9.5912571
9.555003
9.5186609
9.4823114
9.4460348
9.4099107
9.3740177
9.3384332
9.3032331
9.2684916
9.2342811
9.2006718
9.1677317
9.135526
9.1041179
9.0735673
9.0439317
9.0152656
8.9876207
8.9610456
8.9355863
8.9112856
8.8881837
8.8663179
8.8457227
8.8264302
8.8084699
8.7918688
8.7766517
8.7628412
8.7504579
8.7395204
8.7300456
8.7220486
8.715543
8.7105407
8.7070519
8.7050849
8.7046452
8.705733
9.7489452
9.713355
9.6773391
9.6409959
9.6044087
9.5676588
9.5308274
9.4939953
9.4572432
9.4206509
9.3842976
9.3482611
9.3126175
9.2774417
9.2428062
9.2087816
9.1754361
9.1428355
9.1110429
9.0801186
9.0501204
9.0211028
8.9931177
8.9662139
8.9404372
8.9158307
8.8924345
8.8702858
8.8494193
8.8298669
8.8116579
8.7948194
8.7793758
8.7653498
8.7527618
8.7416302
8.7319719
8.7238018
8.7171338
8.7119803
8.7083524
8.7062603
8.7057101
8.7066902
9.7735
9.7369906
9.7000668
9.6628286
9.6253598
9.5877423
9.5500575
9.512387
9.4748118
9.4374124
9.4002683
9.3634579
9.3270579
9.2911435
9.2557878
9.2210618
9.187034
9.1537707
9.1213351
9.0897879
9.059187
9.0295872
9.0010404
8.9735955
8.9472984
8.9221921
8.8983166
8.8757092
8.8544042
8.8344333
8.8158258
8.7986084
8.7828053
8.7684388
8.755529
8.7440941
8.7341505
8.7257129
8.7187948
8.7134083
8.7095641
8.7072715
8.7065359
8.7073438
9.8068677
9.7691024
9.7309386
9.6924779
9.653805
9.6150026
9.5761529
9.5373379
9.4986395
9.4601388
9.421916
9.3840502
9.3466186
9.3096971
9.2733593
9.2376768
9.2027186
9.1685514
9.1352388
9.102842
9.0714189
9.0410248
9.0117115
8.9835283
8.9565209
8.9307324
8.9062028
8.882969
8.8610654
8.8405234
8.8213719
8.8036372
8.7873434
8.7725122
8.7591633
8.7473143
8.7369813
8.7281785
8.7209187
8.7152134
8.7110727
8.7085051
8.7075148
8.7080877
9.8471591
9.8078652
9.7681933
9.7282467
9.6881111
9.6478698
9.6076059
9.5674022
9.5273413
9.487505
9.4479743
9.4088288
9.3701467
9.3320045
9.2944763
9.2576345
9.2215485
9.1862856
9.15191
9.118483
9.0860632
9.0547058
9.0244632
8.9953845
8.9675157
8.9408998
8.9155766
8.8915831
8.8689533
8.8477185
8.8279071
8.8095451
8.7926561
8.7772614
8.7633801
8.7510294
8.7402244
8.730979
8.7233051
8.7172136
8.7127137
8.7098131
8.7085151
8.7088048
9.8927473
9.8517071
9.810314
9.7686726
9.7268699
9.6849896
9.6431157
9.6013316
9.5597206
9.5183653
9.4773474
9.4367472
9.3966437
9.3571139
9.3182329
9.2800734
9.2427059
9.2061977
9.1706139
9.1360161
9.1024633
9.0700111
9.038712
9.0086153
8.9797672
8.9522105
8.9259852
8.901128
8.8776727
8.8556502
8.8350887
8.8160139
8.7984487
8.7824138
8.7679279
8.7550074
8.7436669
8.7339194
8.725776
8.7192468
8.7143401
8.7110628
8.7094173
8.7093878
9.9422433
9.8992857
9.8560049
9.812507
9.7688791
9.725206
9.6815717
9.6380605
9.5947563
9.5517422
9.5091005
9.4669125
9.4252577
9.3842138
9.3438566
9.3042596
9.2654937
9.227627
9.1907249
9.1548497
9.1200606
9.0864138
9.0539618
9.0227544
8.9928375
8.9642544
8.9370447
8.911245
8.886889
8.8640074
8.8426279
8.8227756
8.8044732
8.7877407
8.772596
8.7590551
8.7471316
8.7368378
8.7281841
8.7211795
8.7158315
8.7121459
8.7101243
8.7097489
9.9944543
9.9494438
9.9041486
9.8586722
9.8131016
9.7675214
9.7220158
9.6766695
9.6315668
9.5867914
9.5424264
9.4985533
9.4552526
9.4126025
9.3706796
9.3295579
9.2893089
9.2500014
9.2117013
9.1744714
9.1383714
9.1034576
9.0697832
9.0373977
9.0063477
8.9766761
8.9484226
8.9216239
8.8963132
8.8725209
8.8502746
8.8295988
8.8105156
8.7930445
8.7772029
8.7630058
8.7504662
8.7395955
8.7304032
8.7228974
8.7170847
8.7129699
8.7105526
8.7098163
10.048372
10.00119
9.9537872
9.9062464
9.8586504
9.811083
9.7636287
9.7163723
9.6693984
9.6227913
9.5766343
9.5310098
9.4859987
9.4416798
9.3981303
9.3554249
9.3136356
9.2728318
9.2330799
9.1944433
9.156982
9.1207528
9.085809
9.0522006
9.0199741
8.9891726
8.9598359
8.9320002
8.905699
8.8809621
8.8578168
8.8362872
8.8163949
8.7981589
8.7815957
8.7667197
8.7535432
8.7420765
8.7323284
8.724306
8.7180149
8.7134579
8.7106364
8.7095304
10.200873
10.152161
10.103051
10.053672
10.004111
9.9544515
9.9047772
9.8551716
9.8057196
9.7565059
9.7076155
9.659133
9.6111423
9.5637259
9.5169653
9.47094
9.4257276
9.3814033
9.3380397
9.2957068
9.2544715
9.2143975
9.1755454
9.1379724
9.101732
9.0668745
9.0334465
9.0014913
8.9710485
8.9421545
8.9148423
8.8891417
8.8650796
8.8426796
8.8219629
8.8029477
8.7856501
8.7700836
8.7562597
8.744188
8.7338763
8.7253306
8.7185547
8.7135532
8.7103238
8.7088461
10.260268
10.209209
10.157819
10.106205
10.054452
10.002643
9.9508607
9.8991896
9.8477142
9.7965194
9.7456902
9.6953115
9.6454672
9.5962404
9.5477128
9.4999644
9.4530731
9.4071148
9.3621626
9.3182868
9.2755549
9.2340311
9.1937763
9.154848
9.1173002
9.0811833
9.0465442
9.0134261
8.9818689
8.9519087
8.9235784
8.8969077
8.8719229
8.8486474
8.8271018
8.8073038
8.7892688
8.7730096
8.7585369
8.7458594
8.734984
8.7259148
8.7186575
8.7132131
8.7095785
8.7077328
10.31919
10.26578
10.21209
10.158223
10.104263
10.050292
9.9963928
9.9426485
9.8891437
9.8359632
9.7831919
9.7309147
9.6792156
9.6281779
9.5778835
9.5284127
9.4798439
9.4322531
9.3857141
9.3402976
9.2960714
9.2531002
9.2114454
9.1711646
9.1323124
9.0949392
9.0590921
9.0248146
8.9921464
8.9611236
8.9317791
8.9041422
8.8782389
8.8540924
8.8317226
8.8111469
8.7923797
8.7754334
8.7603178
8.7470407
8.7356072
8.7260234
8.7182912
8.712411
8.7083793
8.7061741
10.377148
10.321382
10.265389
10.209269
10.153104
10.096976
10.040966
9.9851569
9.9296328
9.874478
9.819777
9.7656145
9.7120745
9.6592403
9.6071938
9.5560157
9.5057845
9.4565766
9.408466
9.3615239
9.3158185
9.2714149
9.2283746
9.1867559
9.1466134
9.1079979
9.0709566
9.0355331
9.0017671
8.9696949
8.939349
8.9107585
8.8839494
8.8589442
8.8357625
8.814421
8.7949338
8.7773123
8.7615657
8.7476999
8.7357221
8.7256348
8.7174392
8.7111351
8.706718
8.7041653
10.433736
10.375625
10.31734
10.25898
10.200628
10.142361
10.084261
10.026409
9.9688893
9.9117845
9.8551789
9.7991569
9.7438021
9.6891977
9.6354258
9.5825669
9.5306998
9.4799011
9.430245
9.381803
9.3346437
9.2888324
9.2444312
9.2014984
9.1600889
9.1202539
9.0820407
9.0454929
9.0106505
8.9775494
8.9462222
8.916698
8.8890021
8.863157
8.8391816
8.8170923
8.7969025
8.7786229
8.7622609
8.7478247
8.735318
8.7247425
8.7160989
8.709386
8.7045984
8.7017131
10.488642
10.428207
10.367654
10.307082
10.24657
10.186195
10.126037
10.066175
10.006693
9.9476732
9.8891983
9.8313524
9.7742188
9.7178804
9.6624189
9.607915
9.5544474
9.5020929
9.4509259
9.4010181
9.3524383
9.3052522
9.259522
9.2153065
9.1726607
9.131636
9.0922799
9.0546362
9.0187446
8.9846415
8.952359
8.921926
8.8933679
8.8667065
8.8419606
8.8191458
8.798275
8.7793573
8.7624024
8.747415
8.7343981
8.7233532
8.7142798
8.7071757
8.7020347
8.6988334
10.541635
10.478906
10.41612
10.353371
10.290737
10.228294
10.166118
10.104289
10.042887
9.9819948
9.921694
9.8620678
9.8031989
9.7451698
9.6880621
9.631956
9.5769304
9.523062
9.4704253
9.4190922
9.3691317
9.3206096
9.2735885
9.2281274
9.1842814
9.1421023
9.1016376
9.0629311
9.0260229
8.9909489
8.9577415
8.9264293
8.8970373
8.8695872
8.8440973
8.8205828
8.799055
8.7795251
8.7619998
8.7464832
8.7329778
8.7214842
8.7120011
8.7045252
8.6990495
8.6955504
10.592555
10.527566
10.462587
10.397706
10.332997
10.268532
10.204386
10.140638
10.077366
10.014651
9.9525741
9.8912171
9.8306624
9.7709918
9.7122865
9.6546266
9.5980906
9.5427552
9.4886951
9.435982
9.3846852
9.3348707
9.2866012
9.2399359
9.1949302
9.1516358
9.1101007
9.0703685
9.0324794
8.9964694
8.9623707
8.9302118
8.9000175
8.871809
8.8456043
8.8214175
8.7992614
8.779145
8.761074
8.7450524
8.7310818
8.7191619
8.7092904
8.7014632
8.6956724
8.6918944
10.641299
10.574081
10.506959
10.439998
10.373266
10.306833
10.240772
10.175159
10.110071
10.045587
9.9817878
9.9187542
9.8565674
9.7953087
9.7350586
9.675897
9.6179021
9.5611505
9.5057167
9.4516725
9.3990873
9.3480272
9.2985549
9.2507299
9.2046078
9.1602404
9.1176756
9.0769575
9.038126
9.0012171
8.966263
8.9332921
8.9023288
8.8733942
8.8465053
8.8216771
8.7989212
8.7782454
8.7596553
8.7431539
8.7287423
8.7164192
8.7061815
8.6980241
8.6919384
8.6879008
10.757157
10.687736
10.618383
10.549182
10.480201
10.411505
10.343162
10.275243
10.207823
10.140977
10.074782
10.009318
9.9446654
9.8809033
9.8181127
9.7563736
9.6957652
9.6363656
9.5782509
9.5214956
9.4661716
9.4123481
9.3600913
9.3094641
9.260526
9.2133327
9.1679363
9.1243847
9.0827219
9.0429881
9.0052191
8.9694471
8.9357001
8.9040026
8.874375
8.8468345
8.821396
8.7980694
8.7768625
8.7577803
8.7408251
8.7259972
8.7132944
8.7027129
8.6942466
8.6878862
8.6836083
10.803454
10.731895
10.660464
10.589247
10.518306
10.447707
10.377515
10.3078
10.238633
10.17009
10.102245
10.035176
9.9689633
9.9036849
9.8394206
9.7762498
9.7142513
9.6535026
9.5940797
9.5360567
9.4795054
9.4244951
9.3710919
9.3193588
9.2693554
9.2211375
9.1747571
9.1302624
9.0876974
9.0471021
9.0085126
8.9719607
8.9374746
8.9050782
8.8747914
8.8466327
8.8206146
8.7967472
8.7750378
8.7554907
8.7381077
8.7228882
8.7098293
8.6989262
8.6901721
8.683557
8.6790576
10.847445
10.773792
10.700343
10.62717
10.554333
10.481894
10.409916
10.338468
10.267618
10.197439
10.128005
10.059394
9.9916812
9.9249463
9.8592676
9.7947237
9.7313925
9.6693513
9.6086757
9.5494395
9.4917143
9.4355693
9.3810705
9.3282812
9.2772607
9.228065
9.1807462
9.1353525
9.0919279
9.0505125
9.0111423
8.973849
8.9386606
8.9056001
8.8746896
8.8459445
8.819378
8.7949996
8.7728162
8.7528314
8.7350463
8.7194596
8.7060677
8.6948649
8.6858436
8.6789932
8.6742908
10.889153
10.813457
10.738052
10.662988
10.588321
10.514107
10.440409
10.367291
10.294821
10.22307
10.152111
10.082018
10.012868
9.9447368
9.8777034
9.811845
9.7472391
9.6839622
9.6220895
9.5616946
9.5028489
9.4456213
9.3900779
9.3362818
9.2842924
9.2341657
9.185954
9.1397052
9.0954636
9.0532692
9.0131578
8.9751613
8.9393066
8.9056189
8.8741174
8.8448183
8.8177341
8.7928742
8.7702447
8.7498487
8.7316867
8.7157567
8.7020543
8.6905731
8.6813045
8.6742374
8.6693494
11.006494
10.928569
10.850929
10.773642
10.696756
10.620325
10.544403
10.46905
10.394328
10.320303
10.247044
10.174622
10.10311
10.032583
9.9631165
9.8947878
9.8276736
9.7618504
9.6973943
9.6343799
9.5728805
9.5129672
9.4547087
9.3981711
9.3434173
9.2905067
9.2394954
9.1904355
9.1433752
9.0983586
9.0554256
9.0146121
8.9759496
8.9394657
8.9051845
8.8731252
8.8433036
8.8157319
8.7904191
8.7673708
8.7465895
8.7280751
8.7118248
8.6978336
8.6860943
8.6765976
8.6693316
8.6642747
11.045656
10.965792
10.886279
10.807178
10.72854
10.650413
10.57285
10.495908
10.419647
10.344132
10.269428
10.195606
10.122737
10.050894
9.9801528
9.9105879
9.8422758
9.7752922
9.7097126
9.6456112
9.5830606
9.5221319
9.4628935
9.4054112
9.3497479
9.295963
9.2441126
9.1942486
9.1464193
9.1006687
9.0570369
9.0155596
8.9762676
8.9391898
8.9043487
8.8717637
8.8414503
8.8134205
8.7876826
8.7642418
8.7431001
8.7242568
8.7077084
8.6934491
8.681471
8.6717642
8.6643162
8.659106
11.082647
11.000901
10.919581
10.838737
10.758415
10.67866
10.599523
10.521059
10.443325
10.366383
10.290298
10.215138
10.140973
10.067875
9.9959176
9.9251747
9.8557218
9.7876338
9.7209855
9.6558505
9.5923013
9.5304082
9.4702396
9.4118612
9.3553355
9.3007221
9.2480768
9.1974517
9.1488949
9.1024505
9.0581584
9.0160536
8.9761689
8.9385308
8.9031624
8.8700829
8.8393075
8.8108476
8.7847114
8.7609034
8.7394252
8.7202754
8.70345
8.6889424
8.676744
8.6668441
8.6592297
8.6538806
11.117536
11.033972
10.950914
10.868397
10.78646
10.705146
10.624503
10.544581
10.465439
10.387135
10.309732
10.233295
10.157895
10.083601
10.010485
9.9386214
9.8680836
9.7989459
9.7312825
9.6651664
9.6006695
9.5378619
9.4768117
9.4175842
9.3602421
9.3048447
9.2514476
9.200103
9.150859
9.1037595
9.0588443
9.0161489
8.975705
8.9375396
8.9016753
8.8681313
8.8369222
8.8080595
8.7815505
8.7573995
8.7356075
8.7161726
8.6990901
8.6843528
8.6719513
8.6618743
8.6541082
8.6486336
11.236173
11.150363
11.065078
10.98036
10.896242
10.81276
10.729954
10.64787
10.566558
10.486071
10.406467
10.327807
10.250156
10.173579
10.098147
10.02393
9.9510015
9.8794333
9.8092994
9.740673
9.6736267
9.6082318
9.5445581
9.4826734
9.4226427
9.3645286
9.3083901
9.254283
9.2022592
9.1523668
9.1046497
9.0591472
9.0158957
8.9749259
8.9362647
8.8999348
8.8659548
8.8343395
8.8050996
8.7782423
8.7537713
8.7316871
8.7119873
8.6946665
8.679717
8.6671287
8.6568894
8.648985
8.643397
11.268758
11.181241
11.094309
11.008003
10.922354
10.837396
10.753167
10.669709
10.58707
10.505302
10.42446
10.344604
10.265796
10.188102
10.111589
10.036327
9.9623872
9.8898419
9.8187636
9.749225
9.6812978
9.6150531
9.5505602
9.4878865
9.4270969
9.3682536
9.3114157
9.2566388
9.2039746
9.1534712
9.1051722
9.0591176
9.0153428
8.9738787
8.934752
8.8979853
8.8635969
8.8316012
8.8020087
8.7748262
8.750057
8.727701
8.7077554
8.6902141
8.6750688
8.6623087
8.6519209
8.6438905
8.6382
11.299415
11.210258
11.121752
11.03393
10.94682
10.860454
10.774867
10.6901
10.606199
10.523212
10.441193
10.3602
10.280294
10.201538
10.124
10.047746
9.9728488
9.899378
9.8274057
9.7570039
9.6882437
9.6211958
9.5559289
9.4925102
9.4310044
9.3714733
9.313976
9.2585678
9.2053005
9.1542221
9.1053759
9.0588021
9.0145358
8.9726076
8.9330444
8.8958683
8.8610976
8.8287463
8.7988245
8.7713387
8.7462917
8.7236832
8.7035096
8.6857645
8.6704388
8.657521
8.6469975
8.6388525
8.6330686
11.328223
11.237501
11.147491
11.058223
10.969721
10.882014
10.795136
10.709124
10.624022
10.539877
10.456741
10.374669
10.293722
10.21396
10.13545
10.058258
9.9824536
9.9081073
9.8352898
9.7640722
9.6945253
9.6267191
9.5607219
9.4966006
9.4344195
9.3742404
9.3161221
9.2601198
9.2062852
9.1546659
9.1053059
9.0582445
9.0135168
8.9711536
8.9311813
8.893622
8.8584937
8.8258101
8.7955811
8.7678127
8.7425074
8.7196644
8.6992796
8.6813461
8.6658542
8.652792
8.6421449
8.6338962
8.6280269
11.355263
11.263049
11.171608
11.080964
10.991139
10.902158
10.814053
10.726859
10.640617
10.555374
10.471178
10.388084
10.30615
10.225436
10.146006
10.067927
9.9912657
9.9160922
9.8424766
9.7704891
9.7002
9.6316787
9.5649932
9.50021
9.4373931
9.3766042
9.3179017
9.2613408
9.2069731
9.154846
9.1050035
9.0574847
9.0123246
8.9695538
8.9291987
8.891281
8.8558186
8.8228249
8.7923094
8.7642779
8.7387325
8.7156718
8.6950915
8.6769841
8.6613394
8.6481449
8.6373856
8.6290445
8.6231042
8.6195476
11.380617
11.286986
11.194184
11.102233
11.011151
10.920961
10.831692
10.743378
10.656057
10.569773
10.484574
10.400513
10.317646
10.236032
10.155733
10.076815
9.9993454
9.9233915
9.8490232
9.77631
9.7053215
9.6361268
9.5687934
9.5033873
9.4399725
9.3786103
9.3193589
9.2622734
9.2074053
9.1548019
9.1045069
9.0565594
9.0109944
8.9678422
8.927129
8.8888765
8.8531022
8.8198192
8.7890369
8.7607606
8.7349921
8.7117297
8.6909684
8.6727005
8.6569152
8.6435996
8.6327383
8.6243141
8.6183091
8.6147098
11.404364
11.309387
11.215296
11.122106
11.029833
10.938498
10.848127
10.758752
10.67041
10.583142
10.496996
10.412021
10.328272
10.245808
10.16469
10.084982
10.006749
9.9300601
9.8549828
9.7815863
9.7099398
9.6401116
9.5721689
9.5061775
9.442201
9.3803004
9.3205339
9.2629563
9.2076188
9.1545691
9.1038504
9.0555017
9.0095578
8.966049
8.9250013
8.8864362
8.850371
8.8168185
8.7857879
8.7572841
8.7313085
8.707859
8.6869304
8.6685143
8.6525997
8.6391732
8.6282189
8.6197194
8.6136563
8.6100165
11.42658
11.330331
11.235018
11.140656
11.047257
10.954839
10.863427
10.77305
10.683743
10.595547
10.508505
10.422668
10.338089
10.254824
10.172934
10.092481
10.01353
9.9361491
9.8604049
9.786366
9.7141009
9.6436776
9.5751628
9.508622
9.4441184
9.3817129
9.3214635
9.2634248
9.2076479
9.1541802
9.1030649
9.054341
9.008043
8.9642012
8.9228413
8.8839847
8.8476484
8.813845
8.7825834
8.7538682
8.7277004
8.7040777
8.6829944
8.6644416
8.6484081
8.6348798
8.6238407
8.6152727
8.6091572
8.6054813
11.447342
11.349889
11.253424
11.157954
11.063491
10.970051
10.877656
10.786334
10.696118
10.607046
10.519162
10.432513
10.347151
10.263133
10.180516
10.099363
10.019737
9.9417058
9.8653351
9.790693
9.7178473
9.6468656
9.5778143
9.5107583
9.4457608
9.3828824
9.3221807
9.2637104
9.2075224
9.153664
9.1021781
9.0531036
9.0064751
8.9623226
8.9206716
8.8815433
8.8449546
8.8109178
8.7794415
8.7505301
8.7241842
8.7004011
8.6791747
8.6604959
8.6443529
8.6307313
8.6196147
8.6109845
8.6048217
8.6011138
11.46672
11.368134
11.270581
11.174068
11.078602
10.9842
10.890879
10.798667
10.707595
10.617699
10.529022
10.441609
10.355512
10.270785
10.187485
10.105675
10.025416
9.946774
9.8698156
9.7946078
9.7212179
9.6497129
9.580159
9.5126207
9.4471609
9.38384
9.3227154
9.2638416
9.2072695
9.153046
9.1012142
9.0518127
9.0048759
8.9604338
8.9185116
8.8791305
8.842307
8.8080533
8.7763777
8.7472842
8.7207732
8.6968417
8.6754832
8.6566881
8.6404444
8.6267372
8.6155496
8.6068629
8.6006573
8.5969214
11.484786
11.385132
11.286556
11.189061
11.092653
10.997344
10.903153
10.810104
10.718227
10.627558
10.538136
10.450006
10.363219
10.277827
10.193887
10.11146
10.030607
9.9513937
9.8738849
9.7981474
9.724248
9.6522535
9.5822294
9.5142401
9.4483482
9.3846138
9.3230943
9.2638438
9.2069131
9.1523492
9.1001947
9.0504884
9.0032645
8.9585527
8.9163783
8.876762
8.8397203
8.8052653
8.7734047
8.7441424
8.7174786
8.6934098
8.6719292
8.653027
8.6366905
8.6229047
8.6116523
8.602914
8.5966698
8.5929093
11.501605
11.400949
11.301412
11.202995
11.105701
11.009542
10.914535
10.820701
10.728069
10.636674
10.546553
10.457752
10.370317
10.284303
10.199764
10.116759
10.035351
9.9556021
9.8775783
9.8013455
9.72697
9.654518
9.5840547
9.5156444
9.4493491
9.3852289
9.3233409
9.2637392
9.2064743
9.1515931
9.0991383
9.0491482
9.0016571
8.9566946
8.9142857
8.874451
8.8372069
8.8025649
8.7705329
8.7411144
8.7143092
8.6901135
8.6685202
8.6495192
8.6330973
8.6192393
8.6079274
8.5991421
8.5928631
8.5890806
11.517243
11.415647
11.31521
11.215929
11.117805
11.020849
10.925076
10.830507
10.737169
10.645094
10.554319
10.464889
10.37685
10.290253
10.205153
10.121609
10.039681
9.9594328
9.8809283
9.8042331
9.7294132
9.6565343
9.5856615
9.5168584
9.4501872
9.3857074
9.3234762
9.2635475
9.2059716
9.1507953
9.098061
9.0478072
9.0000678
8.9548724
8.9122458
8.8722085
8.8347766
8.7999616
8.7677708
8.7382077
8.7112718
8.6869589
8.6652616
8.6461694
8.629669
8.6157446
8.6043782
8.5955499
8.5892391
8.5854373
11.531762
11.429287
11.328008
11.227917
11.129018
11.031317
10.934828
10.839571
10.745572
10.652862
10.561477
10.471459
10.382855
10.295714
10.210091
10.126044
10.043632
9.9629171
9.8839642
9.8068381
9.7316041
9.6583275
9.5870732
9.5179046
9.4508835
9.3860693
9.3235189
9.2632861
9.2054211
9.1499705
9.0969767
9.046478
8.9985082
8.9530968
8.9102684
8.8700434
8.8324376
8.7974623
8.7651248
8.735428
8.7083714
8.6839503
8.6621572
8.642981
8.6264082
8.6124227
8.6010062
8.5921385
8.5857988
8.5819796
11.54522
11.441926
11.33986
11.239014
11.13939
11.040993
10.943836
10.847938
10.753322
10.66002
10.568066
10.4775
10.388369
10.300722
10.214612
10.130095
10.047232
9.9660832
9.8867131
9.8091859
9.7335666
9.6599203
9.5883114
9.518803
9.4514567
9.3863318
9.323485
9.2629698
9.2048366
9.1491315
9.0958971
9.0451714
8.9969882
8.9513766
8.9083614
8.8679627
8.830196
8.7950726
8.7625995
8.7327794
8.7056113
8.6810906
8.659209
8.6399556
8.6233162
8.6092745
8.5978118
8.5889078
8.5825416
8.5787066
11.557676
11.453619
11.350819
11.249269
11.14897
11.049925
10.952146
10.85565
10.760461
10.666607
10.574122
10.483048
10.393427
10.305308
10.218744
10.133792
10.050509
9.9689571
9.8891994
9.8112997
9.7353227
9.6613331
9.5893949
9.5195713
9.4519233
9.3865103
9.3233887
9.2626119
9.20423
9.1482894
9.0948321
9.0438963
8.9955155
8.949719
8.906531
8.8659718
8.8280566
8.7927965
8.7601982
8.7302644
8.7029936
8.678381
8.6564182
8.6370935
8.6203929
8.6062994
8.5947942
8.5858567
8.5794659
8.5756164
11.891478
11.78269
11.675264
11.56919
11.464419
11.360936
11.258731
11.157803
11.058156
10.959799
10.862748
10.767025
10.672659
10.579682
10.488134
10.398058
10.309502
10.222517
10.13716
10.053488
9.9715626
9.8914454
9.8132003
9.7368917
9.662584
9.5903409
9.5202252
9.452298
9.3866183
9.3232423
9.2622235
9.2036117
9.1474531
9.0937899
9.0426599
8.9940967
8.9481293
8.904782
8.8640746
8.8260224
8.7906364
8.7579228
8.7278842
8.700519
8.675822
8.6537843
8.6343943
8.6176372
8.603496
8.5919515
8.5829829
8.5765692
8.5727061
12.015231
11.904262
11.794724
11.686581
11.57981
11.474375
11.370257
11.267444
11.165934
11.065727
10.966834
10.869268
10.773051
10.67821
10.584777
10.492791
10.402293
10.313331
10.225957
10.140225
10.056193
9.9739214
9.8934715
9.8149069
9.7382916
9.6636896
9.5911646
9.5207789
9.4525936
9.3866674
9.3230565
9.2618141
9.2029901
9.1466304
9.0927772
9.0414682
8.9927368
8.9466118
8.9031176
8.8622739
8.8240956
8.7885936
8.7557741
8.7256392
8.6981872
8.6734126
8.6513062
8.6318561
8.6150472
8.600862
8.5892811
8.5802835
8.5738481
8.569972
12.027735
11.916038
11.805805
11.696996
11.589582
11.483533
11.378828
11.275452
11.173403
11.072679
10.973289
10.875247
10.778573
10.683292
10.589438
10.497046
10.406158
10.316822
10.229088
10.14301
10.058645
9.9760534
9.8952962
9.8164366
9.7395381
9.6646646
9.5918794
9.5212447
9.4528214
9.3866679
9.3228405
9.2613921
9.2023725
9.1458276
9.0917994
9.0403255
8.9914393
8.9451695
8.9015403
8.8605711
8.8222771
8.7866686
8.7537517
8.7235285
8.6959969
8.6711511
8.6489818
8.6294766
8.61262
8.5983944
8.5867798
8.577755
8.5712988
8.5674098
12.039228
11.92686
11.815984
11.70656
11.598555
11.491939
11.386691
11.282796
11.180249
11.079048
10.9792
10.880718
10.783622
10.687936
10.593692
10.500926
10.40968
10.319998
10.231932
10.145535
10.060863
9.9779768
9.8969365
9.8178051
9.7406458
9.6655223
9.5924975
9.5216337
9.4529912
9.3866287
9.322602
9.2609642
9.2017648
9.1450497
9.0908607
9.0392354
8.9902071
8.9438043
8.9000512
8.858967
8.8205667
8.7848606
8.7518546
8.7215506
8.6939461
8.6690352
8.6468083
8.6272526
8.6103524
8.5960894
8.5844436
8.5753931
8.5689167
8.5650146
12.049765
11.936779
11.825313
11.715322
11.606773
11.499635
11.393888
11.289515
11.186509
11.084869
10.984599
10.885713
10.788229
10.69217
10.597568
10.504458
10.412881
10.322881
10.23451
10.147819
10.062866
9.9797081
9.8984077
9.8190265
9.7416277
9.6662745
9.5930297
9.5219554
9.4531118
9.3865574
9.322348
9.2605364
9.2011721
9.1443008
9.0899645
9.0382004
8.9890419
8.9425173
8.8986507
8.8574613
8.8189638
8.7831685
8.750081
8.719703
8.692032
8.6670616
8.6447822
8.6251804
8.6082403
8.5939431
8.5822682
8.5731934
8.5666971
8.5627809
12.059401
11.945848
11.833839
11.723327
11.614279
11.506663
11.400458
11.295646
11.192219
11.090175
10.989519
10.890261
10.79242
10.69602
10.601089
10.507663
10.415783
10.325492
10.23684
10.149881
10.064669
9.9812628
9.8997239
9.8201138
9.7424954
9.6669318
9.5934855
9.5222184
9.4531908
9.3864607
9.322084
9.2601133
9.2005982
9.1435842
9.089113
9.0372222
8.9879446
8.9413088
8.8973385
8.8560531
8.8174669
8.7815901
8.7484284
8.717983
8.6902514
8.6652269
8.6428995
8.6232558
8.6062793
8.5919508
8.580249
8.5711511
8.5646348
8.5607031
12.068187
11.954115
11.841608
11.730621
11.621116
11.513062
11.406437
11.301224
11.197412
11.094999
10.993988
10.894391
10.796224
10.699511
10.604279
10.510565
10.418407
10.32785
10.238942
10.151736
10.066288
9.9826548
9.9008979
9.8210786
9.7432597
9.6675038
9.5938735
9.5224304
9.4532346
9.3863442
9.3218148
9.259699
9.2000462
9.1429021
9.088308
9.0363016
8.9869156
8.9401784
8.8961138
8.8547408
8.8160739
8.7801231
8.7468938
8.7163872
8.6886005
8.6635269
8.6411561
8.6214743
8.6044647
8.5901077
8.5783811
8.5692613
8.5627248
8.5587751
12.076171
11.961625
11.848666
11.737244
11.627322
11.51887
11.411862
11.306282
11.202119
11.09937
10.998036
10.898129
10.799665
10.702666
10.607161
10.513183
10.420772
10.329972
10.24083
10.1534
10.067737
9.9838969
9.9019414
9.8219316
9.74393
9.667999
9.5942012
9.5225978
9.453249
9.3862127
9.3215444
9.2592967
9.1995187
9.1422562
9.0875505
9.035439
8.9859544
8.9391252
8.8949749
8.8535226
8.8147825
8.7787645
8.7454739
8.7149119
8.6870753
8.6619573
8.6395472
8.619831
8.6027915
8.5884085
8.5766593
8.567519
8.560962
8.5569909
12.083401
11.968425
11.855053
11.743236
11.632936
11.524121
11.416767
11.310854
11.206372
11.103316
11.001689
10.901501
10.802766
10.705508
10.609753
10.515536
10.422896
10.331875
10.242522
10.154888
10.069028
9.9850009
9.9028652
9.8226825
9.744515
9.6684252
9.5944753
9.5227266
9.453239
9.3860704
9.3212761
9.2589088
9.1990175
9.1416477
9.0868408
9.0346341
8.9850604
8.9381479
8.8939201
8.852396
8.8135897
8.777511
8.7441651
8.713553
8.6856715
8.6605134
8.6380679
8.6183208
8.6012544
8.5868482
8.5750785
8.5659191
8.5593417
8.5553445
12.089921
11.974555
11.860811
11.748637
11.637994
11.528851
11.421182
11.314968
11.210197
11.106864
11.004972
10.904529
10.80555
10.708057
10.612077
10.517644
10.424795
10.333575
10.24403
10.156212
10.070175
9.9859779
9.9036791
9.82334
9.7450226
9.6687892
9.5947019
9.5228219
9.4532089
9.3859207
9.3210128
9.2585374
9.1985437
9.1410771
9.086179
9.0338865
8.9842324
8.9372447
8.8929471
8.8513583
8.8124924
8.7763591
8.7429635
8.7123063
8.6843844
8.6591903
8.6367131
8.6169383
8.599848
8.585421
8.5736331
8.5644567
8.5578597
8.5538312
12.095774
11.980058
11.865977
11.753481
11.64253
11.533091
11.425139
11.318654
11.213623
11.110041
11.007909
10.907237
10.808038
10.710333
10.61415
10.519522
10.426486
10.335085
10.245368
10.157384
10.071188
9.9868376
9.9043921
9.8239122
9.7454598
9.6690972
9.5948863
9.5228881
9.4531623
9.3857667
9.3207565
9.258184
9.1980983
9.1405447
9.0855646
9.0331951
8.9834687
8.9364137
8.8920534
8.8504066
8.8114873
8.775305
8.7418648
8.7111674
8.6832093
8.6579831
8.6354777
8.6156782
8.5985666
8.5841215
8.5723178
8.5631266
8.5565124
8.5524487
12.101002
11.984971
11.870589
11.757804
11.646577
11.536873
11.428667
11.321938
11.216674
11.112869
11.010523
10.909645
10.810248
10.712354
10.615989
10.521186
10.427982
10.336421
10.246548
10.158415
10.072077
9.9875894
9.9050124
9.8244064
9.7458332
9.6693548
9.5950332
9.5229292
9.4531025
9.3856107
9.320509
9.2578496
9.1976817
9.1400504
9.084997
9.0325586
8.9827677
8.9356525
8.8912363
8.8495377
8.8105707
8.7743448
8.740865
8.7101317
8.6821415
8.6568868
8.6343562
8.614535
8.5974048
8.5829438
8.5711267
8.5619237
8.5552966
8.5512014
12.105643
11.989332
11.874681
11.761639
11.650165
11.540225
11.431793
11.324848
11.219376
11.115371
11.012835
10.911773
10.8122
10.714137
10.61761
10.522651
10.429298
10.337593
10.247582
10.159317
10.072851
9.9882418
9.9055476
9.8248293
9.7461484
9.6695671
9.5951468
9.5229487
9.4530321
9.3854548
9.3202717
9.2575351
9.197294
9.1395935
9.084475
9.0319755
8.9821274
8.9349587
8.8904928
8.8487483
8.8097391
8.7734746
8.7399596
8.7091946
8.681176
8.6558961
8.6333435
8.6135033
8.5963569
8.5818823
8.5700541
8.5608423
8.5542086
8.5501088
8.5484905
12.109735
11.993175
11.878287
11.765017
11.653324
11.543176
11.434543
11.327406
11.221751
11.11757
11.014864
10.91364
10.813912
10.715699
10.619029
10.523932
10.430446
10.338614
10.248481
10.160098
10.07352
9.9888025
9.9060047
9.8251869
9.7464109
9.6697383
9.595231
9.5229496
9.4529536
9.3853006
9.3200456
9.2572407
9.196935
9.1391736
9.0839976
9.031444
8.9815454
8.9343297
8.88982
8.8480351
8.8089887
8.7726902
8.7391442
8.7083514
8.6803079
8.655006
8.6324342
8.6125774
8.5954171
8.5809312
8.569094
8.559876
8.5532402
8.5491406
8.5475723
12.113313
11.996535
11.881438
11.767968
11.656083
11.545751
11.436943
11.329637
11.223821
11.119485
11.016631
10.915264
10.815399
10.717055
10.620259
10.525041
10.431438
10.339494
10.249254
10.160769
10.074091
9.9892788
9.9063899
9.825485
9.7466253
9.6698728
9.5952889
9.5229344
9.4528688
9.3851494
9.3198314
9.2569668
9.1966044
9.1387895
9.0835632
9.0309625
8.9810197
8.9337627
8.8892148
8.8473946
8.8083157
8.7719875
8.7384146
8.7075975
8.6795324
8.6542114
8.631623
8.611752
8.5945799
8.5800845
8.5682405
8.5590184
8.5523836
8.5482926
8.5467366
12.11641
11.999443
11.884164
11.770519
11.658468
11.547975
11.439015
11.331563
11.225606
11.121136
11.018152
10.916662
10.816678
10.71822
10.621313
10.525989
10.432286
10.340244
10.249911
10.161336
10.074572
9.9896774
9.9067093
9.8257284
9.746796
9.6699739
9.5953235
9.5229056
9.4527794
9.3850024
9.3196296
9.2567131
9.1963016
9.1384404
9.0831704
9.0305287
8.9805476
8.933255
8.888674
8.8468232
8.8077163
8.7713624
8.7377664
8.7069284
8.6788446
8.6535073
8.6309047
8.6110217
8.5938396
8.5793367
8.5674874
8.5582633
8.5516314
8.5475526
8.5460146
8.5470046
12.11906
12.001929
11.886494
11.772699
11.660503
11.549873
11.440781
11.333204
11.227126
11.122541
11.019446
10.917849
10.817762
10.719205
10.622204
10.52679
10.432999
10.340874
10.25046
10.161808
10.07497
9.9900043
9.906968
9.8259218
9.7469269
9.670045
9.5953374
9.5228649
9.4526867
9.3848602
9.3194404
9.2564793
9.1960257
9.1381247
9.0828174
9.0301406
8.9801267
8.9328036
8.8881943
8.8463174
8.8071865
8.7708108
8.737195
8.7063392
8.6782397
8.6528885
8.630274
8.610381
8.5931909
8.5786819
8.566829
8.5576042
8.5509765
8.5469105
8.5453855
8.5464293
12.121291
12.004023
11.888454
11.774531
11.662212
11.551466
11.442263
11.33458
11.2284
11.123716
11.020527
10.918839
10.818666
10.720025
10.622944
10.527453
10.433588
10.341392
10.25091
10.162192
10.075291
9.990265
9.9071709
9.8260693
9.7470213
9.6700887
9.5953327
9.5228139
9.4525917
9.3847233
9.3192637
9.256265
9.1957757