/*--------------------------------*- C++ -*----------------------------------*\
| =========                 |                                                 |
| \\      /  F ield         | OpenFOAM: The Open Source CFD Toolbox           |
|  \\    /   O peration     | Version:  2312                                  |
|   \\  /    A nd           | Website:  www.openfoam.com                      |
|    \\/     M anipulation  |                                                 |
\*---------------------------------------------------------------------------*/
FoamFile
{
    version     2.0;
    format      ascii;
    arch        "LSB;label=32;scalar=64";
    class       volScalarField;
    location    "0.05";
    object      nut;
}
// * * * * * * * * * * * * * * * * * * * * * * * * * * * * * * * * * * * * * //

dimensions      [0 2 -1 0 0 0 0];

internalField   nonuniform List<scalar> 
3250
(
0.034072068
0.034205553
0.034340893
0.034478235
0.0346177
0.034759405
0.034903465
0.035049988
0.035199081
0.035350848
0.035505387
0.03566279
0.035823148
0.035986541
0.036153048
0.036322738
0.036495677
0.036671922
0.036851526
0.037034535
0.037220988
0.037410919
0.037604356
0.037801322
0.038001835
0.038205909
0.038413552
0.038624771
0.038839567
0.039057941
0.03927989
0.03950541
0.039734496
0.039967142
0.040203343
0.040443091
0.040686382
0.040933212
0.041183578
0.041437477
0.04169491
0.041955878
0.042220386
0.042488427
0.034078717
0.034211734
0.03434661
0.034483488
0.034622493
0.03476374
0.034907345
0.035053418
0.035202067
0.035353398
0.035507509
0.035664495
0.035824445
0.035987445
0.036153571
0.036322895
0.036495484
0.036671395
0.036850683
0.037033393
0.037219565
0.037409235
0.03760243
0.037799174
0.037999484
0.038203375
0.038410855
0.03862193
0.038836603
0.039054873
0.039276737
0.03950219
0.039731228
0.039963844
0.040200032
0.040439784
0.040683095
0.04092996
0.041180376
0.041434341
0.041691855
0.04195292
0.042217536
0.04248569
0.034084666
0.034216842
0.034350877
0.034486919
0.034625096
0.034765525
0.034908323
0.035053605
0.03520148
0.035352055
0.035505431
0.035661706
0.035820971
0.035983312
0.036148809
0.036317535
0.036489557
0.036664936
0.036843726
0.037025973
0.03721172
0.037401002
0.037593846
0.037790277
0.037990314
0.038193968
0.038401251
0.038612165
0.038826715
0.039044897
0.03926671
0.039492147
0.039721202
0.039953868
0.040190137
0.040430002
0.040673455
0.04092049
0.041171102
0.041425288
0.041683047
0.041944378
0.04220928
0.042477742
0.034091613
0.034222625
0.034355499
0.034490388
0.034627421
0.034766721
0.034908409
0.0350526
0.03519941
0.035348946
0.035501313
0.035656613
0.035814939
0.035976378
0.036141015
0.036308924
0.036480174
0.036654829
0.036832942
0.037014564
0.037199737
0.037388495
0.03758087
0.037776885
0.037976558
0.038179903
0.038386929
0.038597639
0.038812036
0.039030118
0.039251879
0.039477313
0.039706413
0.03993917
0.040175574
0.040415615
0.040659286
0.040906578
0.041157484
0.041411999
0.041670119
0.041931842
0.042197166
0.042466079
0.034098627
0.034228205
0.03435965
0.03449312
0.03462875
0.034766666
0.034906992
0.03504985
0.035195355
0.035343622
0.035494759
0.03564887
0.035806051
0.035966395
0.036129986
0.036296904
0.03646722
0.036640998
0.036818296
0.036999165
0.037183648
0.037371782
0.037563598
0.037759121
0.037958368
0.038161353
0.038368085
0.038578567
0.0387928
0.039010781
0.039232504
0.03945796
0.039687142
0.039920036
0.040156633
0.04039692
0.040640888
0.040888524
0.04113982
0.041394769
0.041653364
0.041915599
0.042181472
0.042450971
0.034104972
0.034232891
0.034362685
0.03449452
0.034628534
0.034764859
0.034903622
0.035044948
0.035188959
0.035335773
0.035485501
0.035638252
0.035794126
0.03595322
0.036115621
0.036281411
0.036450665
0.03662345
0.036799826
0.036979845
0.037163553
0.037350988
0.037542182
0.037737159
0.037935938
0.038138533
0.038344951
0.038555197
0.038769268
0.038987161
0.039208869
0.039434381
0.039663686
0.039896771
0.040133622
0.040374226
0.040618568
0.040866635
0.041118416
0.041373899
0.041633075
0.041895937
0.042162478
0.042432688
0.034110085
0.03423616
0.034364125
0.034494151
0.03462638
0.034760948
0.034897987
0.035037627
0.035179994
0.03532521
0.035473391
0.03562465
0.035779092
0.035936817
0.036097916
0.036262475
0.036430572
0.036602277
0.036777652
0.036956752
0.037139624
0.037326308
0.037516836
0.037711234
0.037909522
0.038111712
0.038317812
0.038527824
0.038741746
0.038959574
0.039181297
0.039406903
0.039636379
0.03986971
0.040106878
0.040347868
0.040592661
0.040841243
0.041093597
0.04134971
0.041609569
0.041873164
0.042140484
0.042411514
0.034113525
0.034237601
0.034363594
0.034491676
0.034621989
0.034754675
0.034889868
0.035027704
0.035168313
0.035311822
0.035458353
0.035608021
0.035760938
0.035917206
0.036076922
0.036240176
0.036407047
0.03657761
0.03675193
0.036930064
0.03711206
0.037297961
0.0374878
0.037681603
0.03787939
0.038081173
0.038286961
0.038496754
0.03871055
0.03892834
0.039150115
0.039375859
0.039605556
0.039839189
0.040076737
0.040318182
0.040563501
0.040812677
0.04106569
0.041322522
0.041583158
0.041847583
0.042115779
0.042387742
0.034114964
0.034236898
0.034360815
0.034486854
0.034615158
0.034745869
0.034879127
0.035015073
0.035153843
0.035295567
0.035440372
0.035588381
0.035739707
0.035894459
0.036052737
0.036214634
0.036380236
0.036549619
0.03672285
0.03689999
0.03708109
0.037266192
0.037455332
0.037648538
0.037845827
0.038047215
0.038252707
0.038462304
0.038676001
0.038893789
0.039115655
0.039341583
0.039571554
0.039805546
0.040043536
0.040285501
0.040531418
0.040781263
0.041035014
0.041292648
0.041554147
0.041819487
0.042088659
0.042361648
0.033879587
0.033996016
0.034114008
0.034233813
0.034355605
0.03447954
0.034605769
0.034734441
0.034865704
0.034999702
0.035136577
0.035276464
0.035419497
0.035565801
0.035715496
0.035868695
0.036025502
0.036186015
0.036350323
0.036518505
0.036690632
0.036866768
0.037046965
0.037231268
0.037419714
0.03761233
0.037809137
0.038010148
0.038215368
0.038424797
0.03863843
0.038856254
0.039078256
0.039304415
0.03953471
0.039769117
0.040007609
0.04025016
0.040496741
0.040747326
0.041001887
0.0412604
0.041522835
0.041789179
0.042059408
0.042333506
0.033880826
0.033994933
0.034110687
0.034228286
0.034347897
0.034469679
0.034593789
0.034720382
0.034849612
0.034981627
0.035116575
0.035254597
0.03539583
0.035540407
0.03568845
0.035840078
0.035995401
0.036154519
0.036317525
0.036484502
0.036655526
0.03683066
0.037009962
0.037193476
0.037381242
0.037573288
0.037769634
0.037970294
0.038175272
0.038384567
0.038598172
0.038816074
0.039038255
0.039264694
0.039495365
0.039730241
0.039969292
0.040212487
0.040459795
0.040711184
0.040966624
0.041226079
0.04148953
0.041756947
0.042028304
0.042303585
0.033879689
0.033991477
0.034104948
0.034220296
0.034337689
0.034457288
0.034579254
0.034703747
0.034830925
0.034960942
0.03509395
0.035230096
0.035369523
0.035512366
0.035658756
0.035808813
0.035962652
0.036120379
0.03628209
0.036447872
0.036617803
0.036791951
0.036970374
0.03715312
0.037340229
0.037531729
0.037727643
0.037927983
0.038132753
0.038341951
0.038555568
0.03877359
0.038995995
0.03922276
0.039453856
0.039689253
0.039928916
0.040172811
0.040420903
0.040673155
0.040929527
0.041189994
0.04145452
0.041723071
0.041995619
0.042272149
0.033876185
0.033985637
0.034096803
0.034209882
0.034325041
0.034442446
0.03456226
0.034684649
0.034809774
0.034937794
0.035068866
0.035203142
0.035340769
0.035481888
0.035626634
0.035775133
0.035927504
0.036083856
0.03624429
0.036408897
0.036577757
0.036750942
0.036928511
0.037110516
0.037296996
0.037487982
0.037683496
0.037883551
0.038088149
0.038297289
0.038510958
0.038729141
0.038951814
0.03917895
0.039410518
0.039646483
0.039886807
0.040131453
0.040380379
0.04063354
0.040890907
0.041152436
0.041418088
0.041687827
0.041961621
0.042239453
0.03387037
0.033977479
0.034086337
0.034197144
0.03431007
0.034425285
0.034542956
0.03466325
0.034786334
0.034912372
0.035041524
0.035173948
0.035309796
0.035449212
0.035592337
0.035739301
0.035890228
0.036045231
0.036204415
0.036367874
0.036535693
0.036707945
0.036884692
0.037065987
0.037251872
0.037442379
0.037637529
0.037837335
0.0380418
0.038250919
0.03846468
0.038683065
0.038906047
0.039133597
0.039365679
0.039602256
0.039843285
0.040088725
0.040338525
0.040592651
0.040851054
0.041113688
0.041380511
0.041651482
0.041926565
0.042205744
0.033862359
0.033967129
0.034073687
0.034182233
0.034292941
0.034405983
0.03452153
0.034639751
0.034760819
0.0348849
0.03501216
0.03514276
0.035276858
0.035414602
0.035556137
0.035701599
0.035851114
0.036004801
0.036162769
0.036325115
0.036491926
0.03666328
0.03683924
0.037019862
0.037205188
0.037395252
0.037590075
0.037789669
0.037994038
0.038203175
0.038417067
0.038635691
0.038859021
0.039087023
0.039319659
0.039556886
0.039798659
0.040044927
0.040295649
0.040550773
0.040810247
0.041074023
0.041342053
0.041614292
0.041890698
0.042171257
0.033852314
0.033954758
0.034059032
0.03416534
0.034273855
0.034384752
0.034498204
0.034614385
0.034733469
0.034855628
0.034981031
0.035109844
0.035242228
0.035378338
0.035518321
0.035662319
0.035810461
0.035962872
0.036119661
0.036280932
0.036446775
0.036617269
0.03679248
0.036972467
0.037157272
0.03734693
0.037541463
0.037740883
0.037945193
0.038154384
0.038368441
0.038587342
0.038811054
0.039039543
0.039272766
0.039510677
0.039753223
0.040000359
0.040252031
0.040508182
0.040768757
0.041033703
0.041302968
0.0415765
0.041854256
0.042136219
0.033840434
0.033940565
0.034042583
0.034146683
0.034253039
0.034361827
0.034473222
0.034587402
0.034704543
0.034824821
0.034948409
0.035075478
0.035206192
0.035340711
0.035479185
0.035621761
0.035768574
0.035919749
0.036075404
0.036235641
0.036400556
0.03657023
0.036744733
0.036924122
0.037108445
0.037297734
0.037492014
0.037691295
0.03789558
0.038104859
0.038319116
0.038538324
0.038762451
0.038991456
0.039225295
0.039463915
0.039707267
0.039955295
0.040207939
0.04046514
0.040726839
0.040992976
0.041263494
0.041538337
0.041817458
0.042100842
0.033826938
0.033924769
0.034024568
0.0341265
0.03423074
0.034337462
0.034446844
0.034559067
0.034674311
0.034792755
0.034914576
0.035039947
0.035169038
0.035302012
0.035439025
0.035580226
0.035725754
0.03587574
0.036030302
0.03618955
0.036353579
0.036522474
0.036696308
0.036875139
0.037059017
0.037247974
0.037442035
0.037641212
0.037845504
0.038054902
0.038269387
0.038488932
0.038713499
0.038943046
0.039177523
0.039416878
0.039661057
0.039909994
0.040163629
0.040421896
0.040684732
0.040952072
0.041223855
0.041500019
0.041780514
0.042065325
0.033718118
0.033811956
0.033907589
0.034005225
0.034105041
0.034207211
0.034311915
0.034419334
0.03452965
0.034643047
0.034759707
0.034879811
0.035003535
0.035131053
0.035262533
0.035398133
0.035538007
0.035682298
0.03583114
0.035984656
0.036142957
0.036306143
0.036474301
0.036647505
0.036825816
0.037009284
0.037197944
0.03739182
0.037590922
0.037795252
0.038004797
0.038219537
0.038439441
0.038664471
0.03889458
0.039129715
0.039369824
0.039614841
0.039864701
0.040119336
0.040378679
0.040642659
0.040911208
0.041184259
0.041461746
0.041743614
0.04202985
0.033704188
0.033795816
0.033889289
0.03398481
0.034082557
0.034182709
0.034285447
0.034390955
0.034499417
0.03461102
0.034725949
0.034844389
0.034966519
0.035092516
0.035222552
0.03535679
0.035495387
0.03563849
0.035786235
0.03593875
0.036096148
0.036258533
0.036425993
0.036598606
0.036776434
0.036959527
0.037147922
0.037341643
0.0375407
0.037745092
0.037954808
0.038169825
0.038390109
0.038615619
0.038846304
0.039082115
0.039322986
0.03956885
0.039819639
0.040075281
0.040335701
0.040600826
0.040870582
0.041144897
0.041423702
0.041706935
0.041994587
0.033689319
0.033778761
0.033870113
0.033963567
0.034059298
0.034157486
0.034258312
0.034361963
0.034468626
0.034578491
0.034691744
0.034808574
0.034929164
0.035053694
0.035182339
0.035315266
0.035452635
0.035594597
0.035741293
0.035892851
0.03604939
0.036211014
0.036377817
0.036549875
0.036727254
0.036910005
0.037098165
0.037291759
0.037490795
0.037695274
0.037905182
0.038120493
0.038341172
0.038567173
0.038798451
0.039034942
0.03927658
0.039523296
0.039775015
0.040031661
0.040293156
0.04055942
0.040830375
0.041105944
0.041386053
0.041670637
0.041959689
0.033673714
0.033761007
0.03385029
0.03394173
0.0340355
0.03413178
0.034230751
0.034332603
0.034437524
0.034545706
0.03465734
0.034772616
0.03489172
0.035014837
0.035142143
0.035273811
0.035410002
0.035550872
0.035696563
0.03584721
0.036002931
0.036163835
0.036330017
0.036501556
0.036678519
0.036860958
0.03704891
0.037242401
0.03744144
0.037646024
0.03785614
0.038071759
0.038292843
0.03851935
0.038751223
0.038988397
0.039230804
0.03947837
0.039731015
0.039988658
0.040251217
0.040518608
0.040790748
0.041067554
0.041348948
0.041634862
0.041925292
0.033574115
0.033657512
0.033742755
0.033830034
0.03391952
0.034011387
0.034105816
0.034202991
0.034303101
0.034406339
0.034512896
0.034622968
0.034736746
0.03485442
0.034976177
0.035102197
0.035232656
0.035367719
0.035507543
0.035652276
0.035802053
0.035956998
0.03611722
0.036282816
0.036453869
0.036630446
0.036812601
0.037000371
0.037193781
0.037392841
0.037597547
0.037807883
0.038023821
0.038245321
0.038472335
0.038704804
0.038942661
0.039185833
0.039434241
0.039687803
0.039946432
0.040210041
0.040478542
0.040751846
0.041029867
0.041312522
0.041599739
0.041891517
0.03355962
0.033640967
0.033724215
0.033809548
0.033897139
0.033987163
0.034079801
0.034175239
0.034273668
0.03437528
0.034480272
0.034588838
0.034701174
0.034817474
0.034937924
0.035062711
0.035192011
0.035325993
0.035464819
0.035608637
0.035757587
0.035911794
0.036071371
0.036236416
0.036407014
0.036583233
0.036765128
0.036952737
0.037146086
0.037345183
0.037550024
0.037760592
0.037976853
0.038198773
0.038426295
0.038659358
0.038897892
0.039141821
0.039391061
0.039645525
0.039905123
0.040169763
0.040439352
0.040713796
0.040993004
0.041276889
0.041565377
0.04185847
0.033544919
0.03362426
0.033705568
0.033789015
0.033874772
0.033963015
0.034053923
0.034147685
0.034244492
0.034344538
0.034448022
0.034555141
0.034666092
0.03478107
0.034900269
0.035023873
0.035152064
0.035285013
0.035422885
0.035565832
0.035713994
0.035867501
0.036026467
0.036190993
0.036361164
0.036537051
0.036718709
0.036906178
0.037099481
0.037298628
0.037503613
0.037714417
0.037931011
0.038153348
0.038381375
0.038615026
0.038854229
0.039098901
0.039348958
0.039604307
0.039864854
0.040130502
0.040401152
0.040676707
0.04095707
0.041242151
0.041531871
0.041826239
0.033530153
0.033607545
0.033686974
0.033768598
0.033852584
0.033939107
0.034028348
0.034120495
0.03421574
0.034314281
0.034416315
0.034522044
0.034631665
0.034745378
0.034863375
0.034985848
0.035112978
0.035244941
0.035381903
0.035524019
0.035671433
0.035824276
0.035982664
0.0361467
0.036316472
0.03649205
0.036673492
0.036860837
0.037054108
0.037253316
0.037458453
0.037669499
0.037886422
0.038109175
0.0383377
0.03857193
0.038811788
0.03905719
0.039308045
0.039564258
0.039825729
0.040092357
0.040364039
0.040640672
0.040922155
0.041208392
0.041499303
0.0417949
0.033441812
0.033515422
0.033590954
0.033668574
0.03374844
0.033830719
0.033915585
0.034003221
0.034093815
0.03418756
0.034284654
0.034385298
0.034489692
0.03459804
0.03471054
0.034827389
0.034948779
0.035074896
0.035205918
0.035342012
0.035483338
0.03563004
0.035782253
0.035940094
0.036103669
0.036273066
0.036448358
0.036629602
0.036816837
0.037010088
0.037209364
0.037414656
0.037625946
0.037843196
0.038066359
0.038295374
0.03853017
0.038770668
0.039016781
0.039268412
0.039525464
0.039787833
0.040055412
0.040328093
0.04060577
0.040888334
0.041175685
0.041467737
0.04176451
0.03342911
0.033500873
0.033574613
0.033650489
0.033728663
0.033809299
0.033892573
0.033978667
0.034067769
0.034160075
0.034255782
0.034355093
0.034458211
0.034565339
0.034676679
0.034792431
0.034912787
0.035037938
0.035168062
0.03530333
0.035443903
0.03558993
0.035741545
0.03589887
0.03606201
0.036231055
0.03640608
0.036587141
0.03677428
0.03696752
0.03716687
0.037372321
0.037583852
0.037801425
0.038024989
0.038254481
0.038489829
0.03873095
0.038977751
0.039230136
0.039488
0.039751236
0.040019734
0.04029338
0.040572063
0.040855669
0.04114409
0.041437231
0.041735114
0.033416632
0.033486611
0.033558623
0.033632824
0.033709371
0.03378843
0.033870176
0.033954791
0.034042464
0.034133391
0.03422777
0.034325806
0.034427702
0.034533665
0.034643898
0.034758601
0.034877972
0.035002201
0.03513147
0.035265953
0.035405811
0.035551196
0.035702245
0.03585908
0.03602181
0.036190525
0.0363653
0.036546194
0.036733247
0.036926484
0.037125911
0.037331521
0.03754329
0.037761178
0.037985133
0.03821509
0.038450972
0.038692695
0.038940162
0.039193273
0.039451921
0.039715993
0.039985375
0.040259951
0.040539602
0.04082421
0.041113657
0.041407834
0.041706739
0.033404454
0.033472716
0.033543069
0.033615662
0.033690649
0.033768198
0.03384848
0.03393168
0.034017985
0.034107593
0.034200703
0.034297521
0.034398251
0.034503102
0.034612278
0.034725983
0.034844414
0.034967765
0.035096221
0.035229956
0.035369136
0.035513912
0.035664424
0.035820797
0.035983139
0.036151543
0.036326085
0.036506824
0.036693801
0.036887039
0.037086547
0.037292314
0.037504316
0.03772251
0.037946844
0.038177249
0.038413648
0.03865595
0.038904059
0.039157868
0.039417268
0.039682143
0.039952375
0.040227842
0.040508423
0.040793995
0.041084432
0.041379604
0.041679438
0.033392637
0.033459256
0.033528019
0.033599072
0.033672568
0.03374867
0.033827554
0.033909401
0.0339944
0.034082749
0.034174649
0.034270304
0.034369923
0.034473713
0.034581883
0.034694637
0.034812175
0.034934691
0.035062374
0.035195399
0.035333934
0.035478133
0.035628137
0.035784072
0.035946048
0.03611416
0.036288484
0.036469079
0.036655988
0.036849232
0.03704882
0.037254741
0.037466969
0.03768546
0.037910159
0.038140996
0.03837789
0.038620749
0.038869472
0.03912395
0.039384071
0.039649713
0.039920757
0.040197077
0.040478549
0.040765047
0.041056444
0.041352613
0.041653503
0.041959127
0.033381234
0.033446281
0.033513526
0.033583108
0.033655179
0.033729902
0.033807451
0.033888008
0.033971762
0.034058911
0.034149657
0.034244206
0.034342766
0.034445548
0.034552761
0.03466461
0.034781299
0.034903023
0.035029971
0.035162322
0.035300246
0.035443898
0.035593421
0.035748942
0.035910573
0.03607841
0.036252529
0.036432991
0.036619837
0.03681309
0.037012758
0.037218829
0.037431274
0.037650051
0.0378751
0.03810635
0.038343718
0.038587109
0.038836419
0.039091536
0.039352343
0.039618718
0.039890536
0.04016767
0.040449991
0.040737374
0.041029693
0.041326825
0.04162869
0.041935415
0.033370283
0.033433833
0.03349963
0.033567809
0.033638523
0.033711932
0.03378821
0.033867539
0.033950108
0.034036116
0.034125764
0.034219261
0.034316816
0.034418639
0.034524943
0.034635934
0.034751816
0.034872788
0.034999039
0.035130752
0.035268097
0.035411231
0.035560298
0.035715428
0.035876734
0.036044311
0.036218238
0.036398575
0.036585364
0.036778629
0.036978374
0.037184589
0.037397244
0.037616293
0.037841677
0.038073322
0.038311142
0.038555039
0.038804907
0.039060631
0.039322091
0.039589162
0.039861715
0.040139621
0.040422749
0.040710972
0.041004165
0.041302209
0.041605014
0.041912681
0.033359814
0.033421938
0.033486358
0.033553205
0.033622628
0.033694788
0.033769858
0.033848019
0.033929463
0.034014386
0.034102993
0.034195491
0.034292092
0.034393007
0.034498448
0.034608624
0.034723742
0.034844002
0.034969594
0.035100702
0.035237498
0.035380142
0.035528779
0.03568354
0.035844538
0.036011871
0.036185617
0.036365837
0.036552573
0.03674585
0.03694567
0.037152023
0.037364877
0.037584187
0.037809889
0.038041909
0.038280157
0.038524535
0.038774932
0.039031232
0.03929331
0.03956104
0.039834289
0.040112925
0.040396816
0.040685833
0.040979848
0.041278744
0.041582426
0.041890969
0.033349845
0.033410617
0.033473731
0.033539312
0.03360751
0.033678485
0.033752409
0.033829464
0.03390984
0.033993736
0.034081355
0.034172907
0.034268603
0.034368657
0.034473282
0.034582688
0.034697083
0.034816667
0.034941636
0.035072172
0.03520845
0.035350631
0.035498861
0.035653273
0.035813981
0.035981083
0.036154658
0.036334769
0.036521457
0.036714745
0.036914637
0.037121121
0.037334165
0.037553721
0.037779725
0.038012099
0.038250753
0.038495585
0.038746482
0.039003325
0.039265988
0.039534338
0.039808243
0.040087568
0.040372178
0.04066194
0.040956727
0.04125642
0.041560917
0.041870281
0.033340388
0.03339988
0.033461756
0.03352614
0.033593178
0.033663031
0.03373587
0.033811877
0.033891243
0.033974166
0.034060851
0.034151508
0.034246349
0.034345589
0.034449442
0.034558119
0.034671831
0.034790778
0.034915157
0.035045153
0.035180942
0.035322685
0.035470531
0.035624614
0.035785048
0.035951932
0.036125347
0.036305354
0.036491996
0.036685296
0.036885257
0.037091865
0.037305087
0.037524875
0.037751164
0.037983873
0.038222909
0.038468169
0.038719537
0.038976892
0.039240104
0.039509038
0.03978356
0.040063531
0.040348814
0.040639275
0.040934785
0.041235219
0.041540474
0.041850609
0.033331446
0.03338973
0.033450438
0.03351369
0.033579632
0.033648424
0.033720238
0.033795255
0.033873666
0.033955671
0.034041474
0.034131285
0.034225319
0.03432379
0.034426914
0.034534905
0.034647971
0.034766317
0.03489014
0.035019627
0.035154954
0.035296284
0.035443769
0.03559754
0.035757716
0.035924395
0.036097659
0.036277569
0.036464167
0.036657477
0.036857502
0.037064226
0.037277617
0.037497624
0.037724179
0.037957203
0.038196598
0.03844226
0.038694071
0.038951905
0.039215632
0.039485115
0.039760214
0.040040789
0.040326702
0.040617816
0.040913998
0.041215122
0.041521082
0.041831937
0.033323019
0.033380165
0.033439773
0.033501958
0.033566866
0.033634657
0.033705504
0.033779587
0.033857098
0.033938236
0.034023207
0.034112222
0.034205495
0.034303242
0.03440568
0.034513022
0.034625481
0.034743261
0.03486656
0.034995566
0.035130458
0.035271401
0.035418544
0.035572022
0.035731955
0.035898441
0.036071562
0.036251379
0.036437936
0.036631255
0.036831339
0.037038173
0.037251721
0.037471932
0.037698738
0.037932056
0.038171788
0.038417826
0.038670051
0.038928334
0.039192542
0.039462536
0.039738174
0.040019314
0.040305813
0.040597533
0.04089434
0.041196106
0.04150272
0.041814244
0.0333151
0.03337118
0.033429752
0.033490932
0.033554867
0.033621716
0.033691651
0.033764856
0.03384152
0.033921843
0.034006031
0.034094296
0.034186853
0.034283919
0.034385711
0.034492444
0.034604331
0.034721579
0.034844385
0.03497294
0.035107423
0.035248
0.035394822
0.035548025
0.035707728
0.035874031
0.036047017
0.036226748
0.036413265
0.036606592
0.036806731
0.037013665
0.03722736
0.037447762
0.037674802
0.037908394
0.03814844
0.038394829
0.03864744
0.038906142
0.039170799
0.039441269
0.039717409
0.039999072
0.040286116
0.040578399
0.040875784
0.041178142
0.041485361
0.041797506
0.033307678
0.033362762
0.033420363
0.033480599
0.033543618
0.033609582
0.033678662
0.03375104
0.033826908
0.033906465
0.033989919
0.03407748
0.034169365
0.034265791
0.034366977
0.034473138
0.034584488
0.034701235
0.034823579
0.03495171
0.035085809
0.035226042
0.035372562
0.035525506
0.035684994
0.035851125
0.036023984
0.036203631
0.036390111
0.036583444
0.036783633
0.036990661
0.037204491
0.037425071
0.037652327
0.037886175
0.038126513
0.038373228
0.038626198
0.038885289
0.039150363
0.039421276
0.03969788
0.039980029
0.040267577
0.040560379
0.040858298
0.041161202
0.041468978
0.041781697
0.033300743
0.033354902
0.03341159
0.033470939
0.0335331
0.033598233
0.03366651
0.033738114
0.033813236
0.033892076
0.03397484
0.034061742
0.034152997
0.034248823
0.03434944
0.034455066
0.034565913
0.034682191
0.034804101
0.034931835
0.035065573
0.035205484
0.035351721
0.035504422
0.035663706
0.035829676
0.036002415
0.036181984
0.036368426
0.036561763
0.036761998
0.036969112
0.037183068
0.037403811
0.037631268
0.037865353
0.038105962
0.03835298
0.038606282
0.038865734
0.039131194
0.039402516
0.039679551
0.039962148
0.040250159
0.04054344
0.040841849
0.041145254
0.041453541
0.041766785
0.033294288
0.033347583
0.033403415
0.033461933
0.033523289
0.033587645
0.033655171
0.03372605
0.033800474
0.033878642
0.033960762
0.034047047
0.034137712
0.034232978
0.034333064
0.034438187
0.034548564
0.034664404
0.034785908
0.034913269
0.03504667
0.035186279
0.035332251
0.035484724
0.035643818
0.035809635
0.03598226
0.036161754
0.03634816
0.036541501
0.036741776
0.036948968
0.03716304
0.037383934
0.037611577
0.03784588
0.038086739
0.038334037
0.038587647
0.038847432
0.039113249
0.039384948
0.039662379
0.039945389
0.040233826
0.040527545
0.040826402
0.041130264
0.041439016
0.041752741
0.033145672
0.033190849
0.033238338
0.033288341
0.033340792
0.033395817
0.033453557
0.03351416
0.033577789
0.033644614
0.033714816
0.033788589
0.03386613
0.033947649
0.034033357
0.034123472
0.034218215
0.034317804
0.03442246
0.034532397
0.034647827
0.034768952
0.034895966
0.035029052
0.035168378
0.035314102
0.035466361
0.035625276
0.035790951
0.035963468
0.036142891
0.036329263
0.036522604
0.036722916
0.036930179
0.037144356
0.037365389
0.037593202
0.037827707
0.038068796
0.038316352
0.038570245
0.038830337
0.039096482
0.039368528
0.039646323
0.039929711
0.040218539
0.040512657
0.040811922
0.041116198
0.041425372
0.041739531
0.033100619
0.033142674
0.033187007
0.033233689
0.033282844
0.033334503
0.033388772
0.033445784
0.033505686
0.033568637
0.033634809
0.033704381
0.033777546
0.033854504
0.033935462
0.034020634
0.034110237
0.034204492
0.034303619
0.034407838
0.034517367
0.034632414
0.034753186
0.034879876
0.035012667
0.035151731
0.035297222
0.035449281
0.035608029
0.035773569
0.035945986
0.036125341
0.036311679
0.036505019
0.036705363
0.036912691
0.037126963
0.037348123
0.037576093
0.037810782
0.038052082
0.038299875
0.038554028
0.038814402
0.039080848
0.039353213
0.039631341
0.039915075
0.040204259
0.04049874
0.040798373
0.041103022
0.041412573
0.041727123
0.033098694
0.033139921
0.033183463
0.033229379
0.033277765
0.033328688
0.033382254
0.033438589
0.033497838
0.03356016
0.033625723
0.03369471
0.033767311
0.033843727
0.033924164
0.034008837
0.034097964
0.034191766
0.034290463
0.034394277
0.034503425
0.034618118
0.03473856
0.034864948
0.034997466
0.035136284
0.035281559
0.035433431
0.035592023
0.035757437
0.035929759
0.03610905
0.036295354
0.036488692
0.036689063
0.036896449
0.037110809
0.037332083
0.037560196
0.037795054
0.038036547
0.038284557
0.038538948
0.038799579
0.039066301
0.039338957
0.03961739
0.039901439
0.040190945
0.040485755
0.040785719
0.041090701
0.041400587
0.041715483
0.033096917
0.033137386
0.033180194
0.033225396
0.033273078
0.033323323
0.033376236
0.033431943
0.033490588
0.033552325
0.033617326
0.03368577
0.033757848
0.03383376
0.033913715
0.033997926
0.034086612
0.034179993
0.034278293
0.034381731
0.034490525
0.034604888
0.034725026
0.034851133
0.034983396
0.035121986
0.035267059
0.035418758
0.035577203
0.0357425
0.035914732
0.036093962
0.036280234
0.036473567
0.036673963
0.0368814
0.037095838
0.037317217
0.037545459
0.03778047
0.03802214
0.038270347
0.038524955
0.038785822
0.039052794
0.039325716
0.039604425
0.03988876
0.040178559
0.040473665
0.040773925
0.041079202
0.04138938
0.041704575
0.033095282
0.033135054
0.033177184
0.033221726
0.033268762
0.033318382
0.033370693
0.033425821
0.033483905
0.033545103
0.033609583
0.033677525
0.03374912
0.033824568
0.033904076
0.03398786
0.034076138
0.03416913
0.034267061
0.034370151
0.034478618
0.034592677
0.034712531
0.034838379
0.034970406
0.035108784
0.035253671
0.035405207
0.035563516
0.035728703
0.035900851
0.036080023
0.036266263
0.036459591
0.036660007
0.03686749
0.037081998
0.037303471
0.03753183
0.03776698
0.03800881
0.038257195
0.038512001
0.038773081
0.039040282
0.039313444
0.039592404
0.039876998
0.040167061
0.040462432
0.040762956
0.04106849
0.041378918
0.041694366
0.033093784
0.033132913
0.03317442
0.033218354
0.033264798
0.033313844
0.033365601
0.033420194
0.033477763
0.033538463
0.033602463
0.033669943
0.033741092
0.033816111
0.033895208
0.033978598
0.034066499
0.034159133
0.034256724
0.034359493
0.034467658
0.034581435
0.034701028
0.034826636
0.034958445
0.035096627
0.03524134
0.035392726
0.035550908
0.035715992
0.035888061
0.036067179
0.036253388
0.036446709
0.036647141
0.036854664
0.037069234
0.037290791
0.037519256
0.037754531
0.037996505
0.038245053
0.038500037
0.038761311
0.039028718
0.039302098
0.039581285
0.039866113
0.040156413
0.040452021
0.040752778
0.041058535
0.041369171
0.041684821
0.033092413
0.033130953
0.033171888
0.033215264
0.033261165
0.033309685
0.033360934
0.033415036
0.033472132
0.033532375
0.033595934
0.033662988
0.033733728
0.033808353
0.033887072
0.033970099
0.034057654
0.034149959
0.034247236
0.03434971
0.034457597
0.034571114
0.034690467
0.034815854
0.034947461
0.035085461
0.035230014
0.035381261
0.035539326
0.035704314
0.035876309
0.036055374
0.036241554
0.036434866
0.036635312
0.036842869
0.037057495
0.037279127
0.037507686
0.037743073
0.037985177
0.038233871
0.038489016
0.038750464
0.039018057
0.039291633
0.039571025
0.039856062
0.040146575
0.040442395
0.040743357
0.041049305
0.041360108
0.041675906
0.033091162
0.033129163
0.033169573
0.03321244
0.033257845
0.033305885
0.033356669
0.033410322
0.033466984
0.033526809
0.033589964
0.033656629
0.033726993
0.033801258
0.03387963
0.033962325
0.034049562
0.034141564
0.034238555
0.034340757
0.03444839
0.034561668
0.0346808
0.034805983
0.034937405
0.035075238
0.035219643
0.035370761
0.035528717
0.035693616
0.035865542
0.036044558
0.036230708
0.036424012
0.036624468
0.036832054
0.037046728
0.037268427
0.037497069
0.037732557
0.037974777
0.038223602
0.038478891
0.038740495
0.039008255
0.039282007
0.039561582
0.039846808
0.040137511
0.040433519
0.040734661
0.041040772
0.041351705
0.041667588
0.033090023
0.033127532
0.033167464
0.033209866
0.03325482
0.033302422
0.033352783
0.033406026
0.033462293
0.033521736
0.033584523
0.033650832
0.033720854
0.033794788
0.033872844
0.033955236
0.034042183
0.034133909
0.034230637
0.034332591
0.03443999
0.03455305
0.03467198
0.034796976
0.034928227
0.035065908
0.035210177
0.035361176
0.035519031
0.035683847
0.035855708
0.036034678
0.0362208