/*--------------------------------*- C++ -*----------------------------------*\
| =========                 |                                                 |
| \\      /  F ield         | OpenFOAM: The Open Source CFD Toolbox           |
|  \\    /   O peration     | Version:  2312                                  |
|   \\  /    A nd           | Website:  www.openfoam.com                      |
|    \\/     M anipulation  |                                                 |
\*---------------------------------------------------------------------------*/
FoamFile
{
    version     2.0;
    format      ascii;
    arch        "LSB;label=32;scalar=64";
    class       volScalarField;
    location    "0.05";
    object      Qdot;
}
// * * * * * * * * * * * * * * * * * * * * * * * * * * * * * * * * * * * * * //

dimensions      [1 -1 -3 0 0 0 0];

internalField   nonuniform List<scalar> 
3250
(
9444.8019
8770.7788
8107.0222
7458.9333
6831.0763
6227.3462
5650.979
5104.5535
4590.0037
4108.6452
3661.2128
3247.9078
2868.4526
2522.1509
2207.9493
1924.5012
1670.2278
1443.3783
1242.0838
1064.4081
908.39139
772.08872
653.60177
551.10469
462.86408
387.25355
322.76349
268.0065
221.71924
182.76122
150.11117
122.8616
100.21197
81.460958
65.998221
53.29595
42.900461
34.424062
27.537299
21.961719
17.463204
13.845899
10.94674
8.6306236
9907.1831
9199.105
8501.9634
7821.3718
7162.0983
6528.2211
5923.1317
5349.5341
4809.456
4304.276
3834.7625
3401.1236
3003.0638
2639.8472
2310.3627
2013.1908
1746.6681
1508.9501
1298.0688
1111.9855
948.6372
805.97694
682.00733
574.80769
482.55511
403.53975
336.175
279.00327
230.69774
190.06111
156.02169
127.62762
104.03959
84.522716
68.437742
55.232168
44.431355
35.629935
28.483646
22.701698
18.039757
14.293545
11.293109
8.8976906
10822.758
10047.754
9284.8188
8540.0777
7818.7385
7125.2576
6463.3438
5835.9549
5245.3101
4692.9182
4179.6196
3705.64
3270.6534
2873.8495
2514.0065
2189.5635
1898.6919
1639.364
1409.4166
1206.6091
1028.6748
873.36479
738.48551
621.92825
521.69238
435.90222
362.81814
300.8428
248.52309
204.54857
167.74715
137.07854
111.62622
90.588384
73.268192
59.063947
47.459256
38.013549
30.353069
24.162467
19.177073
15.175875
11.97522
9.4232026
12226.324
11349.221
10485.83
9643.0614
8826.8033
8042.1011
7293.1586
6583.3323
5915.1441
5290.3114
4709.7937
4173.853
3682.123
3233.6874
2827.16
2460.7682
2132.434
1839.8517
1580.5612
1352.0134
1151.6296
976.85173
825.18467
694.23064
581.71555
485.50824
403.63323
334.27771
275.79374
226.69635
185.65848
151.50344
123.19559
99.829897
80.620748
64.890613
52.058793
41.630529
33.186681
26.374154
20.897039
16.508646
13.004324
10.215073
14189.56
13170.381
12167.087
11187.677
10238.998
9326.9271
8456.3737
7631.2655
6854.5622
6128.2878
5453.5835
4830.7753
4259.4543
3738.5661
3266.505
2841.2101
2460.2607
2120.967
1820.4561
1555.7497
1323.833
1121.7148
946.47723
795.31648
665.57389
554.75876
460.56339
380.8714
313.76023
257.49888
210.54186
171.52022
139.2305
112.62228
90.784994
72.934464
58.399594
46.609523
37.081469
29.409416
23.25375
18.331873
14.409812
11.294765
16816.985
15608.817
14419.244
13257.715
12132.364
11050.198
10017.085
9037.74
8115.7305
7253.5147
6452.4997
5713.1196
5034.9286
4416.7061
3856.5679
3352.0802
2900.3735
2498.2515
2142.294
1828.9504
1554.6236
1315.7418
1108.8197
930.50712
777.62758
647.20556
536.48513
442.94001
364.27674
298.43199
243.56524
198.0479
160.44997
129.52489
104.19361
83.528277
66.736147
53.144046
42.183733
33.378229
26.329389
20.706615
16.236787
12.695372
20244.08
18791.206
17360.16
15962.268
14607.352
13303.912
12059.093
10878.666
9767.0265
8727.2343
7761.079
6869.1694
6051.0434
5305.2919
4629.6917
4021.3431
3476.8072
2992.239
2563.5124
2186.3353
1856.3524
1569.2345
1320.7531
1106.8419
923.64389
767.54582
635.20155
523.5447
429.79289
351.44455
286.27013
232.29879
187.80194
151.27471
121.4163
97.109964
77.403145
61.488462
48.685683
38.42502
30.231866
23.713022
18.544443
14.460371
24635.89
22872.133
21133.945
19434.989
17787.264
16201.207
14685.641
13247.73
11892.981
10625.276
9446.9484
8358.8804
7360.6365
6450.6086
5626.1766
4883.8747
4219.5597
3628.5737
3105.8995
2646.3028
2244.4607
1895.0727
1592.9554
1333.1193
1110.8285
921.64522
761.45878
626.50276
513.36056
418.96206
340.57285
275.778
222.46165
178.78407
143.15724
114.21987
90.812854
71.955496
56.823197
44.726676
35.093067
27.448883
21.404851
16.642581
30185.225
28032.362
25909.455
23832.85
21817.258
19875.59
18018.829
16255.969
14593.985
13037.874
11590.727
10253.847
9026.9011
7908.0912
6894.3505
5981.5447
5164.678
4438.0952
3795.6738
3231.0026
2737.5425
2308.7676
1938.2846
1619.9312
1347.8524
1116.5578
920.95997
756.39669
618.63927
503.88909
408.7648
330.2823
265.82958
213.13807
170.25212
135.49784
107.45227
84.913655
66.87348
52.490502
41.067122
32.028104
24.901715
19.303144
42382.878
39751.055
37107.139
34475.346
31877.541
29333.826
26862.386
24479.272
22198.24
20030.638
17985.372
16068.928
14285.447
12636.857
11123.046
9742.07
8490.3824
7363.082
6354.1647
5456.7738
4663.4399
3966.3046
3357.3239
2828.4466
2371.7676
1979.6537
1644.8425
1360.5171
1120.3563
918.56522
749.88714
609.60052
493.50404
397.89217
319.52404
255.58774
203.66216
161.67792
127.87855
100.78327
79.151726
61.951437
48.328092
37.578879
29.128868
22.510332
52069.892
48862.077
45637.015
42423.091
39246.897
36133.125
33104.259
30180.276
27378.422
24713.059
22195.592
19834.471
17635.268
15600.818
13731.413
12025.048
10477.694
9083.5984
7835.5919
6725.3997
5743.9388
4881.5994
4128.5017
3474.7231
2910.4941
2426.3602
2013.3111
1662.8774
1367.1984
1119.063
911.92728
739.91334
597.79174
480.95207
385.36473
307.53648
244.46286
193.57906
152.71141
120.03033
94.006161
73.368076
57.066806
44.241142
34.188287
26.337994
63835.565
59941.071
56020.878
52109.056
48237.925
44437.725
40736.179
37158.1
33725.083
30455.285
27363.303
24460.152
21753.322
19246.927
16941.924
14836.394
12925.865
11203.676
9661.3456
8288.9589
7075.534
6009.3755
5078.3978
4270.4141
3573.3862
2975.6342
2466.0029
2033.9901
1669.8359
1364.5786
1110.0813
899.03282
724.92859
582.03536
465.34456
370.51746
293.82584
232.09079
182.62173
143.15756
111.81101
87.017175
67.486616
52.163331
40.187609
30.86368
77949.344
73246.863
68506.75
63769.76
59074.994
54459.311
49956.742
45597.975
41409.945
37415.528
33633.351
30077.717
26758.645
23682.014
20849.798
18260.39
15908.977
13787.968
11887.451
10195.652
8699.3959
7384.5449
6236.4033
5240.0836
4380.8257
3644.2646
3016.6481
2485.0031
2037.255
1662.3045
1350.065
1091.4692
878.44853
703.89163
561.58799
446.16072
352.99324
278.1531
218.31602
170.69229
132.95722
103.18659
79.798002
61.498289
47.23705
36.166309
94667.925
89027.978
83334.2
77634.989
71977.342
66405.896
60962.163
55683.876
50604.438
45752.51
41151.721
36820.536
32772.247
29015.105
25552.57
22383.663
19503.407
16903.324
14571.982
12495.554
10658.38
9043.509
7633.2045
6409.4057
5354.1308
4449.8201
3679.6162
3027.5812
2478.8547
2019.7571
1637.8449
1321.9238
1062.0287
849.37593
676.29561
536.15017
423.24423
332.7307
260.51658
203.17148
157.84104
122.16661
94.212094
72.398442
55.445833
42.323568
114223.16
107510.72
100723.06
93917.189
87149.147
80472.575
73937.739
67590.689
61472.551
55618.97
50059.704
44818.389
39912.479
35353.344
31146.514
27292.073
23785.144
20616.479
17773.096
15238.952
12995.627
11022.987
9299.81
7804.3597
6514.8959
5410.1088
4469.4778
3673.5526
3004.1614
2444.5497
1979.4578
1595.1463
1279.3774
1021.3613
811.67624
642.17094
505.85465
396.78218
309.93813
241.12391
186.85071
144.24008
110.93332
85.010357
64.918192
49.408975
136809.83
128887.43
120862.22
112800.8
104769.44
96832.06
89049.001
81476.001
74163.271
67154.764
60487.62
54191.807
48289.972
42797.485
37722.674
33067.231
28826.76
24991.443
21546.789
18474.431
15752.945
13358.659
11266.416
9450.2905
7884.2178
6542.5461
5400.4901
4434.4929
3622.4965
2944.1264
2380.8003
1915.7694
1534.1046
1222.6377
969.86881
765.84953
602.05124
471.22527
367.26161
285.05066
220.35188
169.67156
130.15146
99.468976
75.74921
57.488902
162574.32
153305.83
143899.32
134432.36
124982.64
115625.65
106433.19
97472.116
88803.153
80479.991
72548.525
65046.344
58002.455
51437.255
45362.727
39782.853
34694.209
30086.716
25944.498
22246.821
18969.064
16083.69
13561.175
11370.884
9481.8492
7863.4604
6486.033
5321.27
4342.6103
3525.4714
2847.3983
2288.1272
1829.5802
1455.8029
1152.8582
908.68933
712.96278
556.89998
433.10656
335.40455
258.67245
198.69626
152.03359
115.89178
88.020591
66.619559
191605.59
180860.36
169932.2
158912.02
147890.28
136955.3
126191.71
115678.87
105489.55
95688.669
86332.34
77467.171
69129.827
61346.887
54134.981
47501.193
41443.685
35952.535
31010.705
26595.134
22677.872
19227.237
16208.935
13587.115
11325.33
9387.3802
7738.0274
6343.5733
5172.3046
4194.808
3384.1695
2716.0693
2168.7895
1723.15
1362.3892
1072.0054
839.57072
654.53163
508.00365
392.56984
302.08772
231.50922
176.71626
134.37318
101.79676
76.844235
235957.85
223937.86
211587.19
199002.62
186287.21
173544.74
160877.43
148384
136157.77
124285.01
112843.4
101900.83
91514.399
81729.832
72581.16
64090.779
56269.805
49118.73
42628.32
36780.704
31550.623
26906.745
22813.025
19230.038
16116.244
13429.151
11126.345
9166.3727
7509.4588
6118.0678
4957.308
3995.1939
3202.7811
2554.1935
2026.5602
1599.8847
1256.862
982.6625
764.69608
592.369
456.84344
350.8067
268.25548
204.29855
154.97963
117.12135
88.190895
273195.45
259527.49
245456.81
231091.74
216548.5
201945.12
187398.77
173023.46
158927.84
145213.15
131971.4
119283.77
107219.44
95834.628
85172.205
75261.547
66118.857
57747.81
50140.506
43278.681
37135.103
31675.093
26858.098
22639.259
18970.918
15804.005
13089.288
10778.441
8824.9383
7184.7443
5816.8287
4683.5061
3750.6214
2987.6029
2367.4065
1866.372
1464.0178
1142.7902
887.78915
686.48174
528.41865
404.96051
309.0218
234.83614
177.74551
134.01442
100.67028
313673.99
298268.7
282376.72
266119.95
249628.63
233035.82
216474.61
200075.41
183963.48
168256.44
153062.13
138476.6
124582.62
111448.48
99127.284
87656.704
77059.174
67342.51
58500.904
50516.239
43359.641
36993.207
31371.816
26444.945
22158.444
18456.178
15281.525
12578.659
10293.64
8375.2611
6775.6952
5450.924
4360.9881
3470.0752
2746.4741
2162.4233
1693.8805
1320.2375
1024.0024
790.4665
607.37258
464.59342
353.83044
268.33712
202.67024
152.47058
114.27464
357208.54
339993.35
322193.91
303949.1
285404.07
266707.6
248009.41
229457.32
211194.32
193355.76
176066.68
159439.55
143572.27
128546.71
114427.69
101262.53
89081.121
77896.461
67705.683
58491.455
50223.692
42861.489
36355.176
30648.419
25680.272
21387.11
17704.393
14568.206
11916.56
9690.4284
7834.5408
6297.9225
5034.2211
4001.8388
3163.9037
2488.1123
1946.4755
1514.9963
1173.3062
904.28148
693.6579
529.6572
402.63536
304.75947
229.71674
172.45791
128.97715
421857.91
403574.61
384479.24
364699.96
344386.8
323698.91
302800.88
281859.63
261041.13
240507.12
220411.79
200898.79
182098.38
164125.11
147075.89
131028.75
116042.05
102154.38
89385.041
77735.026
67188.518
57714.739
49270.092
41800.476
35243.678
29531.73
24593.16
20355.047
16744.844
13691.923
11128.824
8992.2152
7223.5617
5769.5455
4582.2507
3619.1592
2842.9913
2221.4288
1726.755
1335.442
1027.7131
787.09938
600.00906
455.32107
344.01047
258.81115
193.91807
144.73208
472557.87
452468.93
431449.24
409636.57
387192.66
364290.65
341111.09
317838.42
294657.38
271749.26
249288.17
227437.47
206346.56
186148.02
166955.29
148860.99
131935.9
116228.61
101765.85
88553.463
76577.947
65808.423
56198.999
47691.346
40217.39
33702.002
28065.578
23226.424
19102.882
15615.152
12686.771
10245.765
8225.4714
6565.0609
5209.7887
4111.0231
3226.0882
2517.9661
1954.8984
1509.9228
1160.3773
887.39527
675.4131
511.70402
385.94803
289.84406
216.76722
161.47557
525466.46
503557.81
480587.01
456705.34
432086.55
406917.74
381395.42
355721.79
330100.76
304733.82
279815.79
255530.82
232048.59
209520.98
188079.3
167832.14
148864.04
131234.84
114979.86
100110.82
86617.349
74469.148
63618.498
54003.122
45549.192
38174.357
31790.682
26307.384
21633.29
17678.953
14358.397
11590.482
9299.8906
7417.7727
5882.0767
4637.6168
3635.9232
2834.9262
2198.519
1696.0423
1301.7267
994.12346
755.54522
571.53655
430.38383
322.6729
240.89798
179.12711
580205.79
556479.22
531546.88
505577.64
478757.74
451287.99
423380.71
395255.87
367136.76
339245.5
311798.29
285000.9
259044.28
234100.78
210320.75
187830.06
166728.23
147087.6
128953.22
112343.68
97252.658
83651.106
71490.019
60703.531
51212.239
42926.594
35750.215
29582.996
24323.919
19873.493
16135.787
13020.023
10441.76
8323.6651
6595.9426
5196.4464
4070.545
3170.7895
2456.4392
1892.8921
1451.0644
1106.7517
840.00106
634.51301
477.08796
357.12557
266.18203
197.59145
660490.91
636409.26
610857.22
583964.02
555904.24
526874.15
497087.44
466771.75
436164.63
405508.82
375047.29
345018.09
315649.21
287153.76
259725.46
233534.83
208726.11
185415.01
163687.5
143599.45
125177.34
108419.74
93299.623
79767.266
67753.624
57173.974
47931.675
39921.862
33034.956
27159.844
22186.676
18009.19
14526.577
11644.856
9277.8078
7347.5018
5784.4679
4527.5812
3523.7172
2727.2414
2099.3855
1607.5614
1224.6513
928.30639
700.27762
525.79488
393.00484
292.4734
216.76084
719397.73
693654.08
666298.81
637462.11
607324.55
576091.61
543989.14
511259.61
478157.81
444945.74
411887.31
379242.66
347262.5
316182.67
286219.08
257563.32
230378.99
204799.05
180924.14
158822
138527.92
120046.27
103352.76
88397.554
75108.902
63397.072
53158.5
44279.885
36642.102
30123.784
24604.476
19967.299
16101.082
12901.963
10274.491
8132.2627
6398.1696
5004.3024
3891.6006
3009.306
2314.2856
1770.2789
1347.1136
1019.9294
768.43362
576.21036
430.09362
319.61238
236.51747
778901.56
751536.56
722413.32
691664.16
659475.83
626062.52
591661.58
556529.72
520938.46
485168.83
449505.53
414230.87
379618.52
345927.51
313396.54
282238.97
252638.64
224746.64
198679.23
174516.93
152304.79
132053.76
113743.03
97323.295
82720.566
69840.475
58572.772
48795.836
40381.005
33196.571
27111.324
21997.553
17733.474
14205.07
11307.377
8945.247
7033.6653
5497.6946
4272.1164
3300.8533
2536.2378
1938.1917
1473.3678
1114.294
838.55319
628.01875
468.16062
347.43013
256.73616
838609.12
809667.37
778820.5
746201.14
712001.52
676443.89
639776.35
602269.18
564210.09
525898.66
487640.14
449738.89
412491.62
376180.79
341068.29
307389.84
275350.14
245119.18
216829.66
190575.7
166412.93
144359.64
124399.23
106483.52
90536.811
76460.49
64137.911
53439.314
44226.583
36357.668
29690.522
24086.471
19412.945
15545.575
12369.669
9781.1182
7686.7944
6004.5352
4662.7855
3599.9886
2763.8031
2110.2144
1602.6
1210.7938
910.18753
680.89035
506.96605
375.75447
277.29093
898142.38
867675.12
835156.83
800718.91
764558.2
726904.14
688014.82
648173.31
607682.87
566861.05
526033.25
485525.61
445657.79
406735.74
369044.76
332843.27
298357.36
265776.5
235250.48
206887.77
180755.24
156879.3
135248.18
115815.41
98504.123
83211.878
69815.967
58178.728
48152.738
39585.673
32324.654
26219.987
21128.219
16914.502
13454.275
10634.313
8353.2229
6521.4722
5061.033
3904.7473
2995.4927
2285.2261
1733.9718
1308.8059
982.87668
734.48799
546.26562
404.41506
298.08589
218.80337
957147.38
925211.78
891080.91
854883.91
816821.28
777128.82
736073.74
693951.12
651078.98
607792.25
564435.89
521357.44
478899.22
437390.57
397140.25
358429.58
321506.32
286579.88
253817.65
223343.03
195234.78
169527.99
146216.37
125255.73
106568.51
90048.906
75568.507
62982.031
52132.959
42858.827
34995.998
28383.777
22867.808
18302.709
14553.972
11499.167
9028.5431
7045.0996
5464.2456
4213.1388
3229.8008
2462.0952
1866.6388
1407.7041
1056.1591
788.47306
585.81097
433.22605
318.9617
233.86217
1015299.3
981957.11
946277.82
908387.47
868489.45
826825.04
783669.71
739329.7
694137.02
648443.2
602612.14
557012.21
512008.05
467952.06
425176.37
383985.18
344648.12
307394.76
272410.5
239834.08
209756.67
182222.58
157231.52
134742.13
114676.63
96926.309
81357.425
67817.404
56140.889
46155.474
37686.901
30563.567
24620.26
19701.08
15661.56
12370.039
9708.3657
7572.0286
5869.8267
4523.1874
3465.235
2639.7026
1999.7672
1506.8714
1129.5811
842.5136
625.35956
462.01029
339.79874
248.86584
1072305.5
1037621.7
1000462.1
960948.99
919287.9
875724.79
830542.54
784057.67
736615.33
688582.86
640342.37
592282.45
544789.46
498238.53
452984.81
409355.27
367641.38
328093
290913.74
256258.02
224229.78
194883.02
168223.88
144214.32
122776.81
103800.15
87145.672
72653.867
60150.835
49454.481
40380.125
32745.411
26374.384
21100.705
16770.002
13241.414
10388.404
8098.9527
6275.2446
4832.9695
3700.3444
2816.9616
2132.5492
1605.7113
1202.7052
896.29081
664.68055
490.60082
360.47433
263.73715
1127907.2
1091948.9
1053379.7
1012317.9
968970.43
923587.16
876457.51
827907.45
778294.39
728000.64
677425.72
626977.72
577064.08
528082.09
480409.54
434395.88
390354.24
348554.71
309219.24
272518.07
238568.19
207433.62
179127.36
153615.05
130819.87
110628.54
92897.88
77461.802
64138.208
52735.603
43059.143
34915.929
28119.437
22493.031
17872.546
14108.004
11064.549
8622.7029
6678.0754
5140.6454
3933.743
2992.836
2264.2155
1703.6569
1275.1165
949.50329
703.55666
518.84252
380.87792
278.39912
1181879.9
1144715.2
1104808.8
1062274.6
1017320.5
970199.53
921206.76
870676.77
818978.38
766508
713681.72
660926.31
608669.58
557330.33
507308.46
458975.45
412665.81
368669.7
327227.29
288524.74
252692.26
219804.09
189880.41
162890.9
138759.84
117372.26
98580.873
82213.393
68079.883
55979.786
45708.388
37062.511
29845.293
23869.995
18962.822
14964.82
11732.925
9140.2953
7076.0387
5444.4857
4164.1299
3166.3546
2394.0465
1800.1789
1346.4284
1001.8708
741.78626
546.59171
400.90793
292.78
1234033.1
1195730.5
1154559.7
1110630.7
1064151.7
1015378
964609.79
912189.31
858495.92
803939.29
748951.18
693976.2
639461.73
585847.36
533554.43
482975.91
434467.25
388338.4
344847.57
304196.76
266529.44
231930.23
200426.7
171992.89
146554.49
123995.22
104164.07
86882.964
71954.494
59169.403
48313.446
39173.475
31542.568
25224.123
20034.93
15807.242
12389.946
9648.9679
7467.0253
5742.8931
4390.3047
3336.6224
2521.3801
1894.7911
1416.2868
1053.1371
779.1855
573.71758
420.47206
306.81474
1284209.3
1244836.9
1202474.1
1157228.1
1109306.8
1058967.1
1006513.3
952294.61
896700.16
840151.94
783096.54
725995.51
669314.92
613514.34
559035.82
506293.21
455662.34
407472.53
361999.73
319461.61
280014.83
243754.47
210715.62
180876.88
154165.68
130464.78
109619.79
91447.228
75742.636
62288.432
50861.209
41238.193
33202.716
26548.607
21083.495
16631.063
13032.348
10146.209
7849.1189
6034.4174
4611.1792
3502.8292
2645.6179
1987.0552
1484.373
1103.0723
815.58977
600.10323
439.48804
320.44559
1332281.5
1291907.4
1248423.7
1201938.1
1152657.3
1100838.7
1046790.3
990867.54
933468.31
875026.19
816001.67
756872.34
698122.07
640229.54
583656.73
528837.6
476167.76
425995.36
378613.7
334255.85
293091.51
255226.17
220702.5
189503.87
161559.65
136751.95
114923.39
95885.452
79427.013
65322.577
53339.967
43247.162
34818.099
27837.361
22103.71
17432.523
13657.212
10629.775
8220.6094
6317.7662
4825.7848
3664.2552
2766.2294
2076.5832
1550.4054
1151.4739
850.85452
625.64631
457.88397
333.62234
1378149.7
1336843.1
1292308.2
1244659.8
1194101.5
1140891.2
1085339.4
1027807.2
968700.74
908464.23
847571.16
786514.25
725794.24
665908.06
607336.68
550533.43
495912.97
443841.68
394629.72
348525.18
305710.58
266301.69
230348.77
197840.06
168707.08
142831.55
120053.42
100179.54
82992.509
68259.329
55739.469
45192.058
36382.021
29085.049
23091.363
18208.324
14261.984
11097.703
8580.0016
6591.8109
5033.2768
3820.2736
2882.7534
2163.0386
1614.1408
1198.1673
884.85552
650.25918
475.59852
346.30234
1421738
1379569.9
1334053.4
1285317.7
1233563.1
1179047
1122082.5
1063035.5
1002319.7
940389.11
877729.37
814847.42
752259.97
690481.18
630010.19
571318.79
514839.95
460957.58
409998.14
362224.32
317831.11
276944.37
239621.92
205856.89
175583.11
148682.16
124991.62
104314.06
86426.208
71087.988
58050.935
47065.746
37888.741
30287.095
24042.84
18955.642
14844.475
11548.312
8926.0171
6855.5877
5232.9352
3970.3514
2994.7987
2246.1369
1675.3738
1243.0057
917.48875
673.86873
492.58076
358.45039
1462996.4
1420036
1373609.1
1323860.4
1270988.9
1215251.6
1156963.8
1096495.8
1034267.9
970743.41
906419.22
841815.58
777464.19
713895.53
651625.96
591144.84
532902.59
477299.96
424679.07
375316.66
329419.84
287124.32
248495.33
213530.9
182167.26
154286.07
129722.84
108276.19
89717.366
73799.638
60267.04
48862.272
39333.463
31439.677
24955.125
19672.118
15402.856
11980.201
9257.5918
7108.2959
5424.1631
4114.0475
3102.0425
2325.6439
1733.9363
1285.8694
948.66982
696.41603
508.78989
370.03847
1611542.3
1578617.4
1542041
1501941.7
1458221.8
1410948.5
1360258.3
1306346.9
1249471
1189947.5
1128150.6
1064506.8
999487.71
933600.8
867378.71
801367.18
736112.1
672146.02
609975
550066.06
492835.96
438641.81
387773.85
340450.86
296818.09
256948
220843.47
188443.24
159629.17
134234.96
112055.63
92857.338
76387.094
62381.874
50576.823
40712.311
32539.702
25825.776
20355.844
15935.655
12392.242
9573.8695
7349.2927
5606.4825
4251.0103
3204.2284
2401.3747
1789.6961
1326.6649
978.33317
717.8556
524.19471
381.04539
1679501.7
1649695.8
1616333.8
1579271.6
1538542.6
1494120.4
1446063.6
1394500.7
1339624.2
1281689.8
1221015.9
1157980.2
1093014.8
1026598.9
959249.81
891511.63
823943.27
757105
691544.68
627784.1
566305.95
507542.23
451864.29
399575.27
350905.13
306008.3
264964.26
227780.66
194398.72
164700.71
138518.73
115644.51
95839.477
78844.816
64390.873
52205.678
42022.284
33584.779
26652.907
21005.348
16441.733
12783.563
9874.1924
7578.0857
5779.5289
4380.9724
3301.1627
2473.1901
1842.5544
1365.3229
1006.4309
738.15469
538.77307
391.45633
1715579
1685410.8
1651636.4
1614105.2
1572808.9
1527743
1478963.6
1426594.3
1370824.4
1311909
1250167.5
1185980.6
1119785.6
1052068.7
983356.06
914202.63
845179.49
776860.37
709807.45
644557.3
581607.42
521404.15
464332.35
410707.43
360769.96
314683.2
272533.38
234332.75
200025.08
169493.11
142567.57
119037.18
98659.011
81168.812
66290.735
53746.141
43261.207
34573.17
27435.147
21619.561
16920.267
13153.54
10158.089
7794.3238
5943.0438
4503.7459
3392.7102
2540.9944
1892.4443
1401.7973
1032.9315
757.29225
552.51115
401.26235
1749201.7
1718705.2
1684551.6
1646583
1604771.3
1559116.3
1509672.7
1456560.3
1399966.1
1340144.2
1277414.8
1212161.6
1144826.3
1075901.6
1005921.9
935451.95
865074.24
795375.04
726929.88
660289.15
595964.25
534415.01
476039.04
421163.3
370038.48
322836.18
279649.12
240494.01
205317.1
174001.7
146377.37
122230.08
101312.89
83356.515
68079.329
55196.465
44427.666
35503.748
28171.609
22197.793
17370.728
13501.769
10425.259
7997.7861
6096.8668
4619.2161
3478.7902
2604.7316
1939.3276
1436.0626
1057.8187
775.25803
565.40277
410.45989
1780425.9
1749628.2
1715127
1676755.4
1634473.9
1588280.6
1538228
1484433
1427080.3
1366423.3
1302782.9
1236545.2
1168155.9
1098113.8
1026960.6
955270.37
883635.99
812655.35
742916.43
674982.51
609377.93
546575.2
486983.83
430941.69
378708.99
330465.26
286309.34
246262.24
210272.63
178224.46
149946.26
125221.54
103799.66
85406.665
69755.591
56555.769
45520.945
36375.941
28861.842
22739.698
17792.853
13828.058
10675.56
8188.371
6240.9271
4727.3348
3559.3709
2664.3816
1983.1925
1468.1124
1081.0896
792.05142
577.44857
419.05012
1809315.8
1778241.5
1743422.2
1704681.4
1661971.5
1615287
1564677.5
1510257.3
1452208.9
1390785
1326307.2
1259163.4
1189803.4
1118731
1046495.1
973677.84
900881.93
828715.95
757779.41
688647.53
621856.74
557891.3
497171.9
440046.58
386784.48
337572.58
292515.53
251638.43
214892.28
182161.72
153274.39
128011.58
106119.25
87319.17
71319.416
57823.953
46540.955
37189.677
29505.795
23245.239
18186.619
14132.394
10908.992
8366.0838
6375.234
4828.1135
3634.4647
2719.9569
2024.0505
1497.9573
1102.7534
807.68044
588.65533
427.03847
1835942.2
1804614.7
1769504.9
1730427.2
1687327.3
1640195.6
1589078.4
1534087.1
1475402.8
1413277
1348031.9
1280057.4
1209806.4
1137787.7
1064556.3
990702.12
916836.74
843578.6
771537.83
701300.72
633414.84
568375.38
506613.41
448486.44
394271.95
344163.89
298272.38
256626.36
219179.1
185815.9
156363.69
130601.72
108272.87
89094.979
72771.555
59001.608
47488.167
37945.33
30103.765
23714.656
18552.22
14414.934
11125.678
8531.025
6499.8681
4921.6169
3704.1233
2771.4982
2061.9339
1525.6226
1122.8299
822.16066
599.03518
434.43398
1860381.7
1828823.7
1793449.6
1754065.5
1710611.6
1663073.7
1611494.8
1555983.9
1496720.1
1433954.2
1368008.8
1299275.3
1228209.6
1155324.9
1081181.9
1006377.6
931531.46
857271.14
784216.48
712963.94
644071.4
578044.13
515322.77
456273.63
401181.93
350248.11
303587.36
261232.28
223138.24
189191.26
159217.63
132994.79
110262.83
90735.951
74113.503
60089.935
48363.539
38643.665
30656.359
24148.429
18890.036
14675.976
11325.855
8683.378
6614.9725
5007.9558
3768.4321
2819.0713
2096.8929
1551.1465
1141.3484
835.51414
608.60492
441.24878
1882716.4
1850949.5
1815335.9
1775674.1
1731899.7
1683994.1
1631997.1
1576014.9
1516225
1452877.6
1386295.3
1316871.2
1245063.6
1171389.7
1096415.4
1020744
945002.37
869826.42
795844.9
723663.61
653849.84
586918.16
523318.02
463423.82
407527.93
355836.78
308470.31
265464.47
226776.67
192293.61
161841.04
135194.78
112092.36
92244.731
75347.401
61090.658
49168.454
39285.783
31164.452
24547.249
19200.608
14915.944
11509.851
8823.398
6720.7436
5087.2808
3827.506
2862.7633
2128.9934
1574.5783
1158.3454
847.76846
617.38535
447.49766
1903032.2
1871077.1
1835247.1
1795334.8
1751271.4
1703034.2
1650659.6
1594251.7
1533986.2
1470112.6
1402953.7
1332903.7
1260423.6
1186033.7
1110304.7
1033845.6
957290.04
881281.41
806456.58
733429.83
662777.08
595021.37
530620.2
469955.42
413325.93
360943.71
312933.04
269333.01
230102.89
195130.08
164239.86
137206.59
113765.53
93624.627
76475.936
62005.946
49904.65
39873.071
31629.144
24911.983
19484.616
15135.367
11678.076
8951.401
6817.4234
5159.7764
3881.4847
2902.6794
2158.3139
1595.9765
1173.8645
858.95569
625.40064
453.19774
1921418
1889293.8
1853269.5
1813132.2
1768809.2
1720274.2
1667560.3
1610769.3
1550075.8
1485728.2
1418049.6
1347435.3
1274348.2
1199311.8
1122901.1
1045730
968438.38
891676.34
816088.12
742295.7
670882.83
602380.24
537252.78
475889.06
418593.97
365584.53
316989.01
272849.38
233126.66
197708.88
166420.95
139035.95
115287.03
94879.501
77502.251
62838.338
50574.168
40407.157
32051.723
25243.644
19742.854
15334.863
11831.008
9067.7532
6905.2916
5225.6546
3930.5281
2938.9395
2184.9437
1615.4074
1187.954
869.11142
632.67761
458.36879
1937964.3
1905689.1
1869491.1
1829152.5
1784597.6
1735796.3
1682778.9
1625645.1
1564568.1
1499795.8
1431651.3
1360530.8
1286898.8
1211281.9
1134258.6
1056447.5
978493.85
901053.91
824778.52
750296.62
678198.99
609023.33
543241.15
481247.16
423351.68
369776.31
320652.97
276026.24
235858.75
200039.12
168391.97
140689.19
116662.14
96013.663
78429.858
63590.676
51179.29
40889.86
32433.632
25543.369
19976.208
15515.121
11969.178
9172.8617
6984.6582
5285.1501
3974.8128
2971.6755
2208.981
1632.943
1200.667
878.27392
639.24477
463.03441
1952762.4
1920353
1884000.4
1843483
1798722
1749684
1696396.5
1638957.5
1577539
1512388.3
1443828.5
1372256.5
1298138.5
1222003.4
1144433
1066050.1
987504.74
909458.63
832568.56
757469.67
684759.09
614980.76
548612.14
486053.46
427619.93
373537.28
323940.69
278877.14
238310.71
202130.59
170161.12
142173.2
117896.51
97031.779
79262.561
64266.04
51722.49
41323.155
32776.434
25812.386
20185.639
15676.884
12093.159
9267.1658
7055.8571
5338.5151
4014.528
3001.0285
2230.5303
1648.6606
1212.0594
886.48339
645.13091
467.2249
336.82548
1965903.6
1933375.5
1896886.2
1856210.8
1811268
1762021
1708494.8
1650785.6
1589064.9
1523579.4
1454651.9
1382680.1
1308131.4
1231536.9
1153481.3
1074591
995520.52
916936.21
839500.19
763853.12
690597.79
620283.69
553393.61
490332.69
431420.5
376886.45
326868.68
281416.3
240494.7
203993.59
171737.08
143495.19
118996.15
97938.779
80004.384
64867.687
52206.387
41709.131
33081.784
26051.997
20372.163
15820.941
12203.558
9351.1288
7119.2401
5386.015
4049.8726
3027.1469
2249.7012
1662.6406
1222.1901
893.78163
650.36325
470.95231
339.47942
1977478.3
1944845.7
1908236.4
1867422.7
1822320.6
1772890.6
1719154.8
1661208.4
1599222.2
1533442.6
1464192.2
1391869
1316941.8
1239943.3
1161460.9
1082124.1
1002591.3
923532.98
845616.01
769485.91
695750.43
624963.99
557614.08
494110.17
434775.71
379843.39
329453.94
283658.37
242423.25
205638.76
173128.82
144662.68
119967.29
98739.781
80659.505
65399.004
52633.704
42049.96
33351.402
26263.554
20536.835
15948.109
12301.002
9425.2305
7175.1713
5427.9241
4081.052
3050.1831
2266.6066
1674.9658
1231.1194
900.21227
654.97198
474.23967
341.80678
1987575.9
1954851.7
1918137.5
1877203.8
1831963.8
1782375
1728456.7
1670303.7
1608086.6
1542051.1
1472519.7
1399890.7
1324633.8
1247283.4
1168429
1088703.1
1008767.1
929295.39
850958.82
774407.19
700252.61
629053.79
561302.33
497411.54
437708.23
382427.95
331713.74
285618.26
244109.13
207076.96
174345.49
145683.31
120816.26
99440.014
81232.194
65863.451
53007.222
42347.862
33587.046
26448.438
20680.731
16059.221
12386.134
9489.9603
7224.0216
5464.5217
4108.275
3070.2924
2281.361
1685.7204
1238.9088
905.81999
658.98858
477.10697
343.83701
246.72
1996283.8
1963479.3
1926674.2
1885637.6
1840279.6
1790554.7
1736479.3
1678148.2
1615732.1
1549476.5
1479703.4
1406811.2
1331270.6
1253617.2
1174442.4
1094381.2
1014097.6
934269.51
855571.09
778655.88
704139.73
632585.08
564487.11
500262.38
440240.65
384659.97
333665.35
287310.91
245565.16
208319.07
175396.28
146564.77
121549.45
100044.74
81726.75
66264.511
53329.743
42605.073
33790.485
26608.039
20804.936
16155.116
12459.597
9545.8097
7266.1632
5496.0877
4131.7507
3087.63
2294.0789
1694.9883
1245.6196
910.64945
662.44558
479.57448
345.58351
247.95639
2003686.8
1970811.9
1933928.2
1892804.7
1847347.3
1797507.7
1743298.6
1684815.7
1622230.9
1555788.5
1485810.4
1412695.1
1336913.7
1259003.1
1179556.3
1099210.2
1018631.4
938500.38
859494.41
782270.1
707446.53
635589.3
567196.61
502687.85
442395.26
386559.02
335325.83
288751.05
246803.97
209375.86
176290.26
147314.67
122173.19