/*--------------------------------*- C++ -*----------------------------------*\
| =========                 |                                                 |
| \\      /  F ield         | OpenFOAM: The Open Source CFD Toolbox           |
|  \\    /   O peration     | Version:  2312                                  |
|   \\  /    A nd           | Website:  www.openfoam.com                      |
|    \\/     M anipulation  |                                                 |
\*---------------------------------------------------------------------------*/
FoamFile
{
    version     2.0;
    format      ascii;
    arch        "LSB;label=32;scalar=64";
    class       volScalarField;
    location    "0.05";
    object      T;
}
// * * * * * * * * * * * * * * * * * * * * * * * * * * * * * * * * * * * * * //

dimensions      [0 0 0 1 0 0 0];

internalField   nonuniform List<scalar> 
3250
(
466.98821
466.17222
465.29359
464.3541
463.35497
462.29744
461.18276
460.01228
458.78739
457.50956
456.18028
454.80114
453.37373
451.8997
450.38074
448.81855
447.21486
445.57141
443.88996
442.17228
440.42011
438.63522
436.81935
434.97423
433.10157
431.20307
429.28039
427.33516
425.36901
423.3835
421.38018
419.36056
417.32609
415.27823
413.21835
411.14781
409.06794
406.97999
404.88521
402.78479
400.67987
398.57155
396.46083
394.34868
467.70231
466.88133
465.9976
465.05278
464.04807
462.98465
461.86379
460.6868
459.45509
458.1701
456.83336
455.44644
454.01094
452.52852
451.00087
449.42971
447.81677
446.16382
444.47262
442.74495
440.98259
439.18729
437.36083
435.50495
433.62137
431.71182
429.77797
427.82148
425.84397
423.84704
421.83224
419.80111
417.75513
415.69574
413.62436
411.54235
409.45105
407.35175
405.24571
403.13414
401.01822
398.89909
396.77781
394.65513
469.03049
468.2014
467.30904
466.35504
465.34058
464.26683
463.13503
461.9465
460.70264
459.40489
458.05478
456.65387
455.20379
453.70621
452.16283
450.57539
448.94564
447.27537
445.56636
443.82041
442.03934
440.22493
438.37898
436.50327
434.59956
432.66958
430.71506
428.73768
426.7391
424.72095
422.68482
420.63227
418.56481
416.48393
414.39106
412.28761
410.17494
408.05437
405.92718
403.79462
401.65788
399.51814
397.37647
395.23361
470.87843
470.039
469.13553
468.16964
467.14247
466.05517
464.90897
463.70517
462.44516
461.13038
459.76237
458.34269
456.87298
455.35493
453.79025
452.1807
450.52807
448.83416
447.10081
445.32984
443.5231
441.68242
439.80964
437.90658
435.97504
434.01681
432.03366
430.02731
427.99947
425.95183
423.88601
421.80361
419.70621
417.59533
415.47245
413.33901
411.19643
409.04606
406.88922
404.72719
402.56122
400.3925
398.22213
396.05089
473.15995
472.30883
471.39274
470.41323
469.37141
468.2684
467.10542
465.88374
464.60474
463.26986
461.88062
460.43861
458.94547
457.4029
455.81264
454.17647
452.49621
450.77371
449.01083
447.20945
445.37145
443.49871
441.59314
439.65659
437.69093
435.698
433.67963
431.63761
429.5737
427.48964
425.38713
423.26782
421.13334
418.98527
416.82515
414.65449
412.47474
410.2873
408.09357
405.89485
403.69245
401.48759
399.28142
397.07477
475.79648
474.93309
474.00364
473.00962
471.95209
470.83213
469.65092
468.40972
467.10988
465.75283
464.3401
462.87326
461.35398
459.78396
458.16497
456.49882
454.78736
453.03247
451.23607
449.40008
447.52643
445.61708
443.67396
441.69901
439.69417
437.66134
435.60241
433.51924
431.41367
429.28751
427.14252
424.98044
422.80296
420.61173
418.40835
416.1944
413.97139
411.74081
409.50408
407.26258
405.01767
402.77063
400.52267
398.27464
478.71688
477.84126
476.8984
475.88967
474.81609
473.67869
472.4786
471.21704
469.89536
468.51496
467.07735
465.58411
464.03691
462.43748
460.78759
459.08908
457.34385
455.55383
453.72095
451.84721
449.93461
447.98514
446.00082
443.98366
441.93567
439.85882
437.75508
435.6264
433.47469
431.30185
429.10971
426.9001
424.67478
422.43549
420.18392
417.9217
415.65043
413.37166
411.08688
408.79757
406.50511
404.21086
401.9161
399.62175
481.85724
480.96986
480.01404
478.99099
477.90162
476.74692
475.52795
474.2459
472.90208
471.49786
470.03475
468.51432
466.93823
465.30823
463.62611
461.89375
460.11306
458.28602
456.41464
454.50094
452.54699
450.55487
448.52665
446.46442
444.37028
442.24627
440.09447
437.91689
435.71555
433.49243
431.24946
428.98855
426.71156
424.4203
422.11656
419.80207
417.47849
415.14746
412.81056
410.46932
408.12522
405.77968
403.43403
401.08929
485.16084
484.26218
483.29426
482.25771
481.15331
479.98195
478.74464
477.44251
476.07683
474.64895
473.16034
471.61257
470.0073
468.34627
466.63131
464.86431
463.04724
461.18209
459.27094
457.31587
455.31901
453.28251
451.20852
449.09923
446.95678
444.78335
442.58109
440.35211
438.09853
435.82242
433.52581
431.21071
428.87909
426.53285
424.17387
421.80397
419.42492
417.03844
414.64619
412.24979
409.8508
407.45071
405.05094
402.65259
490.1758
489.41197
488.57547
487.66762
486.689
485.6402
484.52191
483.33493
482.08023
480.75889
479.37209
477.92118
476.40759
474.83287
473.19867
471.50674
469.75893
467.95714
466.10338
464.19969
462.24818
460.25101
458.21037
456.12849
454.0076
451.84996
449.65783
447.43346
445.17911
442.897
440.58934
438.25831
435.90605
433.53468
431.14625
428.7428
426.32629
423.89866
421.46176
419.01741
416.56738
414.11336
411.65699
409.19988
406.7435
404.28907
493.67044
492.90076
492.05784
491.14225
490.15442
489.0948
487.964
486.76275
485.49193
484.15255
482.74576
481.27283
479.73518
478.13433
476.47191
474.74968
472.96949
471.13327
469.24305
467.30092
465.30904
463.26963
461.18494
459.05728
456.88898
454.68237
452.43981
450.16365
447.85626
445.51996
443.15707
440.76988
438.36065
435.9316
433.48492
431.02273
428.54712
426.06011
423.56369
421.05978
418.55022
416.03682
413.52132
411.00538
408.4906
405.97828
497.1906
496.41721
495.56947
494.64774
493.65227
492.58342
491.44168
490.22769
488.94223
487.58626
486.16084
484.66721
483.10672
481.48089
479.79132
478.03976
476.22806
474.35818
472.43217
470.45216
468.42036
466.33905
464.21055
462.03725
459.82155
457.56589
455.27272
452.94449
450.58368
448.19272
445.77405
443.33007
440.86317
438.37567
435.86989
433.34806
430.81239
428.26502
425.70804
423.14347
420.57328
417.99937
415.42357
412.84764
410.27327
407.70188
500.70355
499.92812
499.07721
498.15099
497.14957
496.07316
494.92214
493.69706
492.3986
491.02763
489.58515
488.07233
486.49047
484.84105
483.12566
481.34603
479.50401
477.60157
475.64078
473.62382
471.55295
469.43048
467.25883
465.04045
462.77783
460.47349
458.13
455.74991
453.3358
450.89023
448.41574
445.91487
443.39012
440.84394
438.27875
435.69694
433.10081
430.49263
427.8746
425.24886
422.61749
419.98248
417.34577
414.70924
412.07465
409.44354
504.18121
503.40535
502.55292
501.62387
500.61817
499.5359
498.37733
497.14287
495.83313
494.44886
492.99099
491.46063
489.85902
488.18759
486.4479
484.64167
482.77074
480.8371
478.84283
476.79013
474.68132
472.51878
470.30497
468.04243
465.73372
463.38148
460.98836
458.55703
456.09017
453.59046
451.06058
448.50316
445.92084
443.31621
440.6918
438.05012
435.39361
432.72466
430.04558
427.35864
424.66602
421.96982
419.2721
416.57482
413.87985
411.18885
507.60012
506.82537
505.97299
505.04274
504.03441
502.94798
501.78355
500.54145
499.22215
497.82632
496.35481
494.80862
493.18897
491.49722
489.73489
487.90368
486.00543
484.04212
482.01585
479.92887
477.78351
475.58221
473.32752
471.02201
468.66838
466.26932
463.82759
461.34598
458.82727
456.27427
453.68976
451.07653
448.43733
445.77487
443.09182
440.39082
437.67443
434.94516
432.20546
429.45771
426.70419
423.94715
421.18872
418.43098
415.6759
412.92528
510.94102
510.16882
509.31799
508.38807
507.37871
506.28973
505.12112
503.87306
502.54592
501.14026
499.65683
498.09658
496.46063
494.75029
492.96706
491.11259
489.1887
487.19739
485.14076
483.02108
480.84074
478.60221
476.3081
473.96108
471.5639
469.11936
466.63031
464.09966
461.5303
458.92515
456.28713
453.61914
450.92406
448.20474
445.46398
442.70454
439.92913
437.14037
434.34083
431.53302
428.71935
425.90216
423.08371
420.26616
417.45161
414.64197
514.18842
513.42011
512.5722
511.64405
510.63514
509.54514
508.37392
507.12152
505.78819
504.37439
502.88076
501.30817
499.65766
497.93049
496.12811
494.25213
492.30437
490.28679
488.20153
486.05087
483.83722
481.56313
479.23124
476.84431
474.40515
471.91666
469.38181
466.80358
464.18499
461.52909
458.83891
456.11748
453.36782
450.59289
447.79564
444.97895
442.14566
439.29853
436.44026
433.57346
430.70068
427.82436
424.94688
422.07051
419.19743
416.32971
517.33014
516.56693
515.7232
514.79812
513.79103
512.70144
511.52908
510.27386
508.93591
507.51557
506.01339
504.43013
502.76677
501.02451
499.20472
497.30899
495.33912
493.29706
491.18494
489.00507
486.7599
484.45199
482.08407
479.65894
477.17952
474.64878
472.06977
469.44561
466.77942
464.07435
461.33358
458.56025
455.7575
452.92845
450.07617
447.20367
444.31391
441.40979
438.49413
435.56968
432.63909
429.70493
426.76968
423.83572
420.90534
417.98073
521.03408
520.35705
519.59997
518.76152
517.84068
516.83663
515.74874
514.57659
513.31995
511.97884
510.55347
509.04429
507.45197
505.7774
504.02171
502.18622
500.27249
498.28226
496.21749
494.08031
491.87303
489.59813
487.25823
484.85609
482.39458
479.87669
477.30549
474.68412
472.0158
469.30375
466.55127
463.76162
460.9381
458.08397
455.20246
452.29679
449.3701
446.42549
443.46597
440.4945
437.51394
434.52707
431.53657
428.54504
425.55495
422.56871
419.58862
523.93179
523.26246
522.51244
521.68022
520.76464
519.76472
518.67968
517.50894
516.25217
514.90923
513.48023
511.9655
510.36562
508.6814
506.91388
505.06434
503.13428
501.12541
499.03968
496.87921
494.64632
492.34352
489.97345
487.53893
485.04289
482.4884
479.87861
477.21675
474.50612
471.75009
468.95204
466.11538
463.2435
460.3398
457.40766
454.45041
451.47132
448.47362
445.46045
442.43491
439.39996
436.35852
433.31337
430.26721
427.22265
424.18216
421.14821
526.70287
526.04199
525.29976
524.47458
523.56514
522.57028
521.4891
520.32086
519.06509
517.72154
516.29017
514.77123
513.16519
511.47276
509.69492
507.83289
505.88811
503.86226
501.75727
499.57524
497.31851
494.9896
492.5912
490.12615
487.59746
485.00826
482.36177
479.66133
476.91034
474.11225
471.27057
468.38881
465.47051
462.51918
459.53833
456.5314
453.50182
450.45293
447.38802
444.31027
441.2228
438.12862
435.03065
431.93168
428.83442
425.74146
422.65539
529.34486
528.69307
527.95926
527.14179
526.2392
525.25021
524.17374
523.00894
521.75518
520.41208
518.9795
517.45756
515.84663
514.14734
512.36059
510.48753
508.52955
506.4883
504.36567
502.16377
499.88492
497.53167
495.10672
492.61299
490.05352
487.4315
484.75024
482.01315
479.22374
476.38556
473.50223
470.57737
467.61464
464.61768
461.59011
458.53552
455.45745
452.35937
449.24468
446.1167
442.97867
439.83371
436.68485
433.535
430.38695
427.24339
424.10705
532.41989
531.85739
531.21484
530.48986
529.68062
528.78547
527.80301
526.73198
525.57141
524.32053
522.97882
521.54604
520.02218
518.40752
516.70261
514.90824
513.02551
511.05577
509.0006
506.86189
504.64171
502.34241
499.96652
497.5168
494.99617
492.40775
489.75479
487.04066
484.26887
481.443
478.56672
475.64373
472.6778
469.67267
466.63212
463.55989
460.45969
457.33518
454.18996
451.02755
447.85139
444.66484
441.47113
438.2734
435.07465
431.8778
428.68562
425.50095
534.79323
534.2406
533.60762
532.89181
532.09118
531.20394
530.22852
529.16354
528.00786
526.76059
525.4211
523.989
522.46419
520.84684
519.1374
517.33661
515.44547
513.46528
511.3976
509.24426
507.00733
504.68916
502.29228
499.81947
497.27371
494.65813
491.97606
489.23095
486.42637
483.56599
480.65358
477.69296
474.68797
471.6425
468.56042
465.4456
462.30187
459.13302
455.94275
452.73471
449.51247
446.27949
443.0391
439.79457
436.54899
433.30538
430.06659
426.8356
537.03856
536.49606
535.87285
535.16644
534.37471
533.49572
532.52774
531.46927
530.31903
529.076
527.7394
526.30875
524.78382
523.1647
521.45174
519.64558
517.74719
515.75778
513.67888
511.51228
509.26005
506.9245
504.5082
502.01394
499.44472
496.80373
494.09435
491.32009
488.48459
485.59164
482.64506
479.64878
476.60675
473.52298
470.40143
467.24611
464.06095
460.84984
457.61664
454.3651
451.09889
447.82158
444.53664
441.2474
437.95709
434.66878
431.38545
428.11017
539.15841
538.62621
538.01287
537.31599
536.53334
535.66282
534.70259
533.65099
532.50661
531.2683
529.93517
528.50662
526.98231
525.36222
523.64661
521.83606
519.93145
517.93395
515.84502
513.66644
511.40024
509.04874
506.61451
504.10035
501.50929
498.84456
496.1096
493.30797
490.4434
487.51973
484.54091
481.51093
478.43386
475.3138
472.15484
468.96107
465.73656
462.48531
459.21129
455.91836
452.61029
449.29079
445.9634
442.63157
439.29862
435.96772
432.64191
429.3244
541.60109
541.15662
540.63429
540.03076
539.34343
538.56992
537.70802
536.75572
535.71124
534.57304
533.33985
532.01066
530.58474
529.06166
527.44129
525.72382
523.90974
521.99984
519.99526
517.89741
515.70802
513.42912
511.063
508.61223
506.07964
503.46828
500.78143
498.02254
495.19527
492.30341
489.35086
486.34165
483.27989
480.16973
477.01536
473.821
470.59083
467.32903
464.03973
460.72697
457.39474
454.04694
450.68735
447.31962
443.94731
440.57382
437.20241
433.8362
430.47851
543.47119
543.03644
542.52391
541.93009
541.25226
540.48789
539.63464
538.69037
537.65317
536.52138
535.2936
533.96871
532.54586
531.02453
529.40449
527.68582
525.86896
523.95462
521.94388
519.83811
517.639
515.34855
512.96905
510.50307
507.95344
505.32325
502.61579
499.83458
496.98333
494.06587
491.08621
488.04844
484.95676
481.8154
478.62868
475.40088
472.13631
468.83925
465.51393
462.1645
458.79506
455.4096
452.012
448.60603
445.19533
441.78338
438.37353
434.96897
431.57312
545.22713
544.80199
544.2991
543.71485
543.0464
542.29109
541.44646
540.51024
539.48041
538.35517
537.133
535.81268
534.39326
532.87409
531.25487
529.5356
527.71662
525.79859
523.78252
521.66973
519.4619
517.16097
514.76925
512.28928
509.72392
507.07627
504.34966
501.54766
498.674
495.7326
492.72752
489.66294
486.54314
483.37244
480.15523
476.89593
473.59891
470.26857
466.90923
463.52515
460.12053
456.69946
453.26591
449.82375
446.3767
442.92835
439.4821
436.04122
432.60916
546.87352
546.4577
545.96423
545.38935
544.73009
543.9837
543.1476
542.21938
541.19691
540.07828
538.86186
537.54631
536.13057
534.61391
532.99593
531.27654
529.45602
527.53495
525.51429
523.39531
521.17965
518.86925
516.46636
513.97356
511.3937
508.72989
505.9855
503.16414
500.26958
497.30581
494.27695
491.18725
488.04106
484.8428
481.59694
478.30798
474.98042
471.61872
468.22731
464.81055
461.37274
457.91805
454.45056
450.97422
447.49284
444.01009
440.52946
437.05426
433.58787
548.41499
548.00819
547.52385
546.95806
546.30777
545.57011
544.74237
543.82205
542.80688
541.69486
540.48424
539.17358
537.76172
536.24784
534.63143
532.91235
531.09077
529.16724
527.14264
525.01822
522.79556
520.47657
518.06352
515.55895
512.96572
510.28698
507.52611
504.68675
501.77274
498.78809
495.73701
492.62379
489.45288
486.22878
482.95603
479.63922
476.28294
472.89175
469.47016
466.02264
462.55356
459.0672
455.56772
452.05915
448.5454
445.03022
441.51717
438.00965
434.51104
431.02498
549.85625
549.45813
548.9826
548.42561
547.78401
547.05483
546.23525
545.32266
544.31469
543.20922
542.00441
540.6987
539.29084
537.77993
536.16537
534.44693
532.62472
530.69923
528.67128
526.54207
524.31315
521.98642
519.5641
517.04875
514.44323
511.7507
508.97457
506.1185
503.18638
500.18229
497.11046
493.97528
490.78125
487.53294
484.23499
480.89207
477.50883
474.08995
470.64002
467.16358
463.66511
460.14896
456.61938
453.08049
449.53626
445.99053
442.44695
438.90898
435.37995
431.86369
551.20205
550.81225
550.34517
549.79665
549.16344
548.44246
547.6308
546.72574
545.72481
544.62579
543.42672
542.12597
540.72219
539.21438
537.60187
535.88435
534.06188
532.13485
530.10407
527.97067
525.73616
523.40243
520.97168
518.44646
515.82964
513.12439
510.33413
507.46258
504.51364
501.49144
498.40028
495.24461
492.02898
488.75804
485.43651
482.06913
478.66065
475.2158
471.73928
468.23572
464.70965
461.16553
457.60769
454.0403
450.46744
446.893
443.32071
439.75409
436.19648
432.65173
552.4571
552.07524
551.61624
551.07582
550.45067
549.73759
548.93357
548.03581
547.04173
545.949
544.75559
543.45975
542.06007
540.55545
538.94515
537.22878
535.40633
533.47815
531.44497
529.3079
527.06842
524.72837
522.28996
519.75571
517.12852
514.41154
511.60823
508.72232
505.75778
502.71875
499.6096
496.43483
493.19905
489.90699
486.56342
483.17317
479.74107
476.27193
472.77051
469.24153
465.68961
462.11927
458.53492
454.94082
451.3411
447.73972
444.14047
440.54695
436.96254
433.39107
553.62605
553.25173
552.80042
552.26774
551.65029
550.94478
550.14811
549.25738
548.26992
547.18331
545.99542
544.70443
543.30882
541.80743
540.19944
538.48439
536.66221
534.73318
532.698
530.55774
528.31382
525.96808
523.5227
520.98022
518.34349
515.61571
512.80036
509.90117
506.92215
503.86751
500.74163
497.54908
494.29453
490.98277
487.61865
484.20706
480.75289
477.26103
473.73634
470.18359
466.60748
463.01261
459.40345
455.78433
452.15946
448.53284
444.90835
441.28961
437.68009
434.08362
554.71345
554.34627
553.90226
553.37692
552.7668
552.06852
551.27889
550.39491
549.41382
548.33312
547.15059
545.86433
544.47274
542.97459
541.36897
539.65537
537.83365
535.90405
533.86721
531.72416
529.4763
527.12543
524.67373
522.12371
519.47825
516.74053
513.91406
511.0026
508.01018
504.94105
501.79964
498.59056
495.31856
491.98846
488.60518
485.17369
481.69894
478.18589
474.63947
471.06452
467.46582
463.84802
460.21567
456.57318
452.92479
449.27459
445.62649
441.98418
438.35115
434.73132
555.72373
555.36328
554.92614
554.40777
553.8046
553.1132
552.33028
551.45275
550.47777
549.40276
548.22541
546.94374
545.55609
544.06113
542.45791
540.74585
538.92475
536.9948
534.9566
532.81112
530.55976
528.20427
525.74683
523.18994
520.53646
517.78961
514.9529
512.0301
509.02529
505.94273
502.78692
499.56251
496.27428
492.92713
489.52603
486.07601
482.58209
479.0493
475.48263
471.88698
468.2672
464.62802
460.97404
457.30973
453.6394
449.96718
446.29705
442.63273
438.97777
435.33612
556.66116
556.30703
555.87636
555.36455
554.76797
554.08309
553.30654
552.43516
551.46601
550.39644
549.22407
547.94683
546.563
545.07119
543.47037
541.75991
539.93955
538.00943
535.97011
533.82253
531.56805
529.20842
526.74576
524.1826
521.52179
518.76655
515.9204
512.98715
509.97088
506.87591
503.70676
500.46813
497.16484
493.80186
490.38421
486.91696
483.40522
479.85406
476.26853
472.65362
469.01422
465.35513
461.681
457.99637
454.30559
450.61286
446.92219
443.23738
439.56197
435.89998
557.52984
557.18165
556.75702
556.25138
555.66102
554.98231
554.21181
553.34625
552.38265
551.31827
550.15066
548.87768
547.49755
546.0088
544.41035
542.70152
540.88199
538.95186
536.91163
534.76223
532.50499
530.14161
527.67423
525.10535
522.43784
519.67489
516.82006
513.87718
510.85034
507.7439
504.5624
501.3106
497.99337
494.61571
491.1827
487.69947
484.17117
480.60295
476.9999
473.36708
469.70944
466.03183
462.33897
458.63543
454.92564
451.21384
447.50407
443.80018
440.10575
436.42484
558.33369
557.99107
557.57208
557.07224
556.48774
555.81485
555.05005
554.19001
553.23167
552.17221
551.00913
549.74023
548.36364
546.87786
545.28174
543.57454
541.7559
539.82587
537.78494
535.63396
533.37426
531.00752
528.53586
525.96177
523.28812
520.51812
517.65531
514.70355
511.66697
508.54994
505.35704
502.09307
498.76293
495.37167
491.92443
488.42639
484.88274
481.2987
477.6794
474.02997
470.3554
466.6606
462.95034
459.22926
455.50181
451.77229
448.0448
444.3232
440.6111
436.91261
559.07634
558.73902
558.32531
557.83093
557.25193
556.58452
555.82509
554.97026
554.01688
552.96209
551.80331
550.53829
549.16509
547.68216
546.0883
544.38272
542.56501
540.63519
538.59369
536.44136
534.17947
531.80971
529.33418
526.75535
524.07608
521.29961
518.42949
515.46957
512.42401
509.29722
506.09381
502.81859
499.47652
496.0727
492.6123
489.10055
485.5427
481.94399
478.30965
474.64482
470.95457
467.24384
463.51746
459.78012
456.03631
452.29038
448.54645
444.80844
441.07998
437.36519
559.76124
559.429
559.02033
558.53109
557.95727
557.295
556.54061
555.69067
554.74197
553.69158
552.53686
551.27551
549.90554
548.42534
546.83367
545.12967
543.31291
541.38337
539.34143
537.18793
534.92411
532.55164
530.07259
527.48945
524.80507
522.02268
519.14584
516.17843
513.12462
509.98884
506.77574
503.49015
500.13709
496.72167
493.24911
489.72469
486.15371
482.54146
478.89321
475.21414
471.50937
467.78391
464.04262
460.29023
456.53129
452.77018
449.01106
445.25787
441.51426
437.7844
560.96183
560.83715
560.64811
560.39222
560.06455
559.66061
559.1762
558.60723
557.94977
557.20012
556.35476
555.41044
554.36418
553.2133
551.95541
550.5885
549.1109
547.52132
545.81887
544.00307
542.07385
540.03159
537.87709
535.61155
533.23664
530.75441
528.16735
525.4783
522.6905
519.80751
516.83323
513.77185
510.62781
507.40579
504.11066
500.74746
497.32136
493.83759
490.30149
486.7184
483.09365
479.43254
475.74033
472.02217
468.2831
464.52805
460.76177
456.98885
453.21372
449.44058
445.67339
441.91581
438.17203
561.59119
561.52892
561.40833
561.22396
560.97232
560.64898
560.24949
559.76959
559.20515
558.55219
557.80695
556.96587
556.02566
554.98327
553.83598
552.58135
551.21733
549.74218
548.1546
546.45364
544.63879
542.70994
540.66745
538.51208
536.24502
533.86792
531.38282
528.7922
526.0989
523.30615
520.41754
517.43697
514.36864
511.21702
507.98681
504.68292
501.3104
497.87446
494.38038
490.83353
487.23928
483.60301
479.93007
476.22575
472.49525
468.74364
464.9759
461.19681
457.41102
453.62298
449.83693
446.05684
442.2864
438.5298
562.10852
562.04961
561.93267
561.75236
561.50473
561.18545
560.79012
560.31442
559.75419
559.10542
558.36429
557.5272
556.59082
555.55204
554.4081
553.15654
551.79522
550.3224
548.73671
547.03717
545.22325
543.2948
541.25215
539.09603
536.82763
534.44857
531.96088
529.36702
526.66985
523.8726
520.97885
517.99253
514.91784
511.75928
508.52156
505.20962
501.82855
498.38358
494.88003
491.32329
487.71879
484.07194
480.38812
476.67266
472.9308
469.16766
465.38824
461.59739
457.79976
453.99985
450.20193
446.41001
442.62775
438.85939
562.58247
562.52662
562.41302
562.23635
561.99244
561.67696
561.28549
560.8137
560.25737
559.61248
558.87517
558.04179
557.10896
556.07355
554.93274
553.68402
552.32524
550.85459
549.27069
547.57251
545.75949
543.83146
541.7887
539.63195
537.36236
534.98153
532.4915
529.89472
527.19404
524.39268
521.49425
518.50268
515.42218
512.25726
509.01268
505.69337
502.30447
498.85122
495.33898
491.77319
488.15928
484.50271
480.80891
477.08323
473.33095
469.55723
465.7671
461.96544
458.15696
454.34616
450.53737
446.7346
442.94154
439.16241
563.0158
562.96271
562.85217
562.67879
562.43831
562.12634
561.73844
561.27025
560.71755
560.07624
559.34246
558.51251
557.58297
556.55068
555.41278
554.16671
552.81029
551.34168
549.75945
548.06256
546.2504
544.32279
542.27998
540.12268
537.85204
535.46964
532.9775
530.37807
527.6742
524.86912
521.96643
518.97006
515.88426
512.71355
509.46269
506.13666
502.74059
499.27977
495.75959
492.18551
488.56299
484.89753
481.19459
477.45955
473.69773
469.91432
466.11438
462.30283
458.48441
454.66366
450.84492
447.03225
443.22933
439.44038
563.41109
563.36049
563.25273
563.08235
562.845
562.53625
562.15164
561.68678
561.13741
560.49941
559.76888
558.9421
558.0156
556.98619
555.85097
554.60736
553.25313
551.78642
550.20576
548.51008
546.69875
544.77155
542.72873
540.57096
538.29938
535.91557
533.42154
530.81972
528.11296
525.3045
522.39794
519.39722
516.3066
513.13061
509.87403
506.54186
503.13926
499.67154
496.14412
492.56246
488.93209
485.25851
481.54722
477.80364
474.0331
470.24084
466.43194
462.61136
458.78386
454.95403
451.12622
447.30454
443.49266
439.69479
563.77076
563.72242
563.61718
563.44952
563.21503
562.90923
562.52763
562.06582
561.51951
560.88456
560.15702
559.33315
558.40945
557.38269
556.24994
555.0086
553.6564
552.19144
550.61224
548.91769
547.10713
545.18035
543.13754
540.97938
538.70698
536.32191
533.82617
531.22219
528.51283
525.7013
522.79123
519.78657
516.69157
513.51079
510.24901
506.91126
503.50272
500.02872
496.4947
492.90615
489.26862
485.58766
481.86876
478.11739
474.33892
470.53859
466.72154
462.89273
459.05696
455.21886
451.38282
447.55295
443.73297
439.92705
564.0971
564.05081
563.94785
563.78265
563.55076
563.24766
562.86881
562.40979
561.86627
561.2341
560.5093
559.68809
558.76696
557.74263
556.61216
555.3729
554.02256
552.55923
550.98137
549.28788
547.47806
545.55166
543.50889
541.35039
539.07727
536.69108
534.19381
531.5879
528.87618
526.06189
523.14865
520.14042
517.04145
513.85633
510.58985
507.24704
503.83311
500.35341
496.8134
493.2186
489.57457
485.88689
482.16109
478.40266
474.61697
470.80932
466.98485
463.14857
459.3053
455.45969
451.61618
447.77892
443.95164
440.1385
564.39226
564.34782
564.24693
564.08396
563.85442
563.55376
563.17742
562.72093
562.17997
561.55033
560.82802
560.00925
559.09046
558.06836
556.93997
555.70261
554.35398
552.89214
551.31552
549.623
547.81387
545.88785
543.84513
541.68635
539.41259
537.0254
534.52677
531.91911
529.20528
526.38851
523.47241
520.46095
517.35841
514.16936
510.89863
507.55125
504.13245
500.64759
497.10216
493.50171
489.85181
486.15805
482.426
478.66116
474.86895
471.05467
467.22349
463.38045
459.53038
455.67798
451.82772
447.9838
444.14997
440.33041
564.65827
564.61551
564.51649
564.35552
564.12811
563.82966
563.45559
563.0014
562.46275
561.83541
561.11537
560.29881
559.38215
558.36207
557.23557
555.99996
554.65289
553.1924
551.61693
549.9253
548.1168
546.19114
544.14849
541.98946
539.71515
537.32707
534.82722
532.21801
529.50229
526.68328
523.76462
520.75026
517.64451
514.45193
511.17736
507.82586
504.40267
500.91318
497.36286
493.7573
490.1021
486.40287
482.66519
478.89458
475.09648
471.27621
467.43898
463.58983
459.73365
455.87512
452.01877
448.16886
444.32919
440.50395
564.89706
564.85581
564.75845
564.59929
564.3738
564.07735
563.70532
563.25321
562.71664
562.09138
561.37339
560.55883
559.64409
558.62585
557.50107
556.26703
554.92138
553.46213
551.88769
550.19689
548.38897
546.46365
544.42107
542.26184
539.98703
537.59817
535.09724
532.48665
529.76923
526.94824
524.02728
521.01033
517.90169
514.70594
511.42794
508.07275
504.64562
501.15196
497.59726
493.98712
490.32717
486.62301
482.88027
479.10447
475.30108
471.47544
467.63278
463.77814
459.91645
456.05242
452.1906
448.33531
444.49046
440.6602
565.11041
565.07053
564.97467
564.81713
564.59336
564.2987
563.92851
563.47826
562.94356
562.32017
561.60402
560.79126
559.87825
558.86166
557.73843
556.50581
555.16144
553.70331
552.12982
550.43976
548.63238
546.70737
544.66486
542.50547
540.23023
537.84068
535.33879
532.72697
530.00805
527.18528
524.26228
521.24302
518.1318
514.93324
511.65217
508.29368
504.86304
501.36565
497.80704
494.19281
490.5286
486.82005
483.07278
479.29235
475.48423
471.65378
467.80625
463.94672
460.0801
456.21114
452.34442
448.48432
444.63483
440.80009
565.30005
565.26138
565.16686
565.01076
564.78853
564.49547
564.12691
563.67832
563.14529
562.52357
561.80907
560.99792
560.08647
559.07136
557.94951
556.71818
555.37496
553.91783
552.34518
550.6558
548.84891
546.92419
544.88176
542.72222
540.44662
538.05647
535.55373
532.94082
530.22058
527.39623
524.47142
521.45011
518.33661
515.13554
511.85175
508.49033
505.05656
501.55587
497.99378
494.37591
490.70792
486.99546
483.24417
479.45962
475.64729
471.81258
467.96072
464.09682
460.22581
456.35247
452.48138
448.61697
444.76332
440.92428
437.10477
565.46757
565.42997
565.33664
565.18182
564.96096
564.66932
564.30221
563.85509
563.32354
562.7033
561.99027
561.18055
560.27049
559.25669
558.13608
556.90588
555.56369
554.10747
552.53558
550.8468
549.04035
547.11589
545.07354
542.91388
540.63796
538.24728
535.74381
533.12995
530.40854
527.58281
524.65639
521.63328
518.51777
515.31449
512.0283
508.6643
505.22777
501.72415
498.15899
494.53791
490.86658
487.15067
483.39583
479.60763
475.79159
471.9531
468.09742
464.22966
460.35477
456.47754
452.60257
448.73431
444.87692
441.03406
437.20999
565.61448
565.57782
565.48553
565.33185
565.1122
564.82181
564.45598
564.01015
563.4799
562.86097
562.14923
561.34077
560.43193
559.4193
558.29978
557.0706
555.72931
554.27389
552.70267
551.01443
549.20838
547.28416
545.24188
543.08213
540.80593
538.4148
535.91068
533.29599
530.57356
527.74662
524.81881
521.79412
518.67685
515.47164
512.18334
508.81708
505.37813
501.87195
498.3041
494.68021
491.00595
487.28701
483.52905
479.73766
475.91836
472.07656
468.21752
464.34637
460.46808
456.58742
452.70903
448.83735
444.97659
441.13033
437.30257
565.7422
565.70635
565.61496
565.46228
565.24369
564.95441
564.58969
564.14497
563.61586
562.99807
562.28746
561.48011
560.57235
559.56074
558.44218
557.21388
555.87339
554.41867
552.84805
551.16028
549.35458
547.43057
545.38837
543.22854
540.95211
538.56058
536.05592
533.44051
530.7172
527.88921
524.96019
521.93413
518.81534
515.60844
512.31832
508.95009
505.50904
502.00064
498.43045
494.80411
491.12731
487.40574
483.64507
479.8509
476.02877
472.18409
468.32213
464.44803
460.56677
456.68313
452.80175
448.92706
445.06329
441.21405
437.38293
433.57381
565.85206
565.8169
565.72628
565.57447
565.35682
565.06849
564.70472
564.26097
563.73283
563.11602
562.40639
561.60001
560.69317
559.68245
558.56473
557.33719
555.9974
554.54329
552.97319
551.28584
549.48044
547.55662
545.51449
543.35459
541.07797
538.68612
536.18098
533.56496
530.84089
528.01201
525.08196
522.05471
518.93461
515.72627
512.43459
509.06467
505.62182
502.11151
498.5393
494.91086
491.23188
487.50805
483.74505
479.94849
476.12392
472.27676
468.41229
464.53566
460.65184
456.76563
452.88165
449.00434
445.13793
441.28607
437.45214
433.63952
565.94532
565.91071
565.82074
565.66968
565.45285
565.16535
564.80238
564.35943
563.83212
563.21615
562.50736
561.7018
560.79576
559.7858
558.66879
557.44192
556.10272
554.64914
553.07948
551.39249
549.58735
547.6637
545.62163
543.46169
541.18491
538.79277
536.28724
533.67071
530.946
528.11636