/*--------------------------------*- C++ -*----------------------------------*\
| =========                 |                                                 |
| \\      /  F ield         | OpenFOAM: The Open Source CFD Toolbox           |
|  \\    /   O peration     | Version:  2312                                  |
|   \\  /    A nd           | Website:  www.openfoam.com                      |
|    \\/     M anipulation  |                                                 |
\*---------------------------------------------------------------------------*/
FoamFile
{
    version     2.0;
    format      ascii;
    arch        "LSB;label=32;scalar=64";
    class       volScalarField;
    location    "0.06";
    object      alphat;
}
// * * * * * * * * * * * * * * * * * * * * * * * * * * * * * * * * * * * * * //

dimensions      [1 -1 -1 0 0 0 0];

internalField   nonuniform List<scalar> 
3224
(
0.044863225
0.045594345
0.046332613
0.047077832
0.047829795
0.048588282
0.04935313
0.050124177
0.050901268
0.051684251
0.052472985
0.053267333
0.054067172
0.054872384
0.055682863
0.056498509
0.057319235
0.058144958
0.058975608
0.059811121
0.06065144
0.061496517
0.06234631
0.063200784
0.064059911
0.064923667
0.065792036
0.066665006
0.06754257
0.068424725
0.069311475
0.070202824
0.071098783
0.071999363
0.072904578
0.073814442
0.074728965
0.075648161
0.076572011
0.077500576
0.078433549
0.044865483
0.045596824
0.046335231
0.047080527
0.047832535
0.048591048
0.049355909
0.050126961
0.05090405
0.051687026
0.052475747
0.053270081
0.054069901
0.054875091
0.055685545
0.056501164
0.05732186
0.058147552
0.058978168
0.059813644
0.060653925
0.061498961
0.062348712
0.063203141
0.064062222
0.06492593
0.065794249
0.066667167
0.067544677
0.068426777
0.06931347
0.070204762
0.071100661
0.07200118
0.072906333
0.073816133
0.07473059
0.075649719
0.076573498
0.077501985
0.078434835
0.044869264
0.045600807
0.0463393
0.047084631
0.047836645
0.048595147
0.049359986
0.050131006
0.050908056
0.051690988
0.05247966
0.053273939
0.054073701
0.054878829
0.055689218
0.056504768
0.057325392
0.058151008
0.058981546
0.059816941
0.060657137
0.061502086
0.062351747
0.063206085
0.064065071
0.064928682
0.065796901
0.066669718
0.067547124
0.06842912
0.069315705
0.070206888
0.071102677
0.072003085
0.072908125
0.073817811
0.074732152
0.075651163
0.076574824
0.07750319
0.078435854
0.044874592
0.045606284
0.0463448
0.047090117
0.047842098
0.048600551
0.04936533
0.050136283
0.050913257
0.051696107
0.052484691
0.053278878
0.054078542
0.054883568
0.055693849
0.056509289
0.057329798
0.058155295
0.05898571
0.059820979
0.060661045
0.061505862
0.062355386
0.063209584
0.064068427
0.064931892
0.065799964
0.066672629
0.067549883
0.068431722
0.069318151
0.070209174
0.071104803
0.072005049
0.072909926
0.073819447
0.074733622
0.075652465
0.076575958
0.077504161
0.078436593
0.044156805
0.044881631
0.045613251
0.046351716
0.047096969
0.047848874
0.04860724
0.049371923
0.05014277
0.050919632
0.051702362
0.052490821
0.053284875
0.054084402
0.054889285
0.055699419
0.056514706
0.057335057
0.058160392
0.05899064
0.059825738
0.060665629
0.061510266
0.062359607
0.063213618
0.06407227
0.064935542
0.065803416
0.066675881
0.067552932
0.068434566
0.069320787
0.070211602
0.07110702
0.072007053
0.072911717
0.073821023
0.074734983
0.07565361
0.076576885
0.077504879
0.07843704
0.044165471
0.044889751
0.04562121
0.046359563
0.047104709
0.047856503
0.048614752
0.049379308
0.050150021
0.050926741
0.051709324
0.052497628
0.053291521
0.054090881
0.054895592
0.055705548
0.056520651
0.057340813
0.058165954
0.058996004
0.059830898
0.060670581
0.061515005
0.06236413
0.063217919
0.064076347
0.06493939
0.065807032
0.066679262
0.067556075
0.068437469
0.069323448
0.070214018
0.07110919
0.072008977
0.072913392
0.07382245
0.07473616
0.075654537
0.07657756
0.077505314
0.07843718
0.044174655
0.044898686
0.045629956
0.046368158
0.047113164
0.04786482
0.048622925
0.049387331
0.050157887
0.050934443
0.051716855
0.052504981
0.053298691
0.05409786
0.054902375
0.055712128
0.056527023
0.057346971
0.058171894
0.059001719
0.059836384
0.060675833
0.061520018
0.062368899
0.063222441
0.064080617
0.064943404
0.065810786
0.066682754
0.067559301
0.068440427
0.069326134
0.070216432
0.07111133
0.072010842
0.072914982
0.073823764
0.074737197
0.075655297
0.076578041
0.07750552
0.078437087
0.044185249
0.04490912
0.045640161
0.046378166
0.047122989
0.047874469
0.048632394
0.049396615
0.050166978
0.050943335
0.051725539
0.052513451
0.053306939
0.05410588
0.054910158
0.055719669
0.056534315
0.057354008
0.058178669
0.059008227
0.059842619
0.060681789
0.06152569
0.062374282
0.063227529
0.064085406
0.06494789
0.065814965
0.066686621
0.067562854
0.068443662
0.06932905
0.070219026
0.071113601
0.072012788
0.072916603
0.07382506
0.074738168
0.075655942
0.07657836
0.077505508
0.078436744
0.043481289
0.044197592
0.044921161
0.045651925
0.046389685
0.047134283
0.047885546
0.048643253
0.04940725
0.050177383
0.050953501
0.051735458
0.052523116
0.053316342
0.054115012
0.054919013
0.055728238
0.056542591
0.057361984
0.058186338
0.059015582
0.059849654
0.060688497
0.061532066
0.062380318
0.063233222
0.064090749
0.064952878
0.065819594
0.066690887
0.067566753
0.06844719
0.069332205
0.070221806
0.071116004
0.072014815
0.072918252
0.073826331
0.074739062
0.075656457
0.076578498
0.077505261
0.078436121
0.043496087
0.044211735
0.044934918
0.045665353
0.046402823
0.04714715
0.047898154
0.048655601
0.049419333
0.050189194
0.050965033
0.051746702
0.052534062
0.053326981
0.054125337
0.054929014
0.055737908
0.056551921
0.057370966
0.058194963
0.059023844
0.059857544
0.060696009
0.061539192
0.062387053
0.063239559
0.064096682
0.064958401
0.065824703
0.066695576
0.067571017
0.068451028
0.069335612
0.070224781
0.071118545
0.072016921
0.072919924
0.073827569
0.074739866
0.075656827
0.076578436
0.077504758
0.078435191
0.042806141
0.043512688
0.044227756
0.044950499
0.045680559
0.046417692
0.047161702
0.047912402
0.048669545
0.049432968
0.050202514
0.050978028
0.051759363
0.05254638
0.053338946
0.054136939
0.054940244
0.055748755
0.056562377
0.057381022
0.058204611
0.059033073
0.059866348
0.060704379
0.061547121
0.062394533
0.063246583
0.064103243
0.064964493
0.06583032
0.066700713
0.067575669
0.068455191
0.069339284
0.070227958
0.071121228
0.072019108
0.072921615
0.073828764
0.074740568
0.075657035
0.076578153
0.077503974
0.078433927
0.042825127
0.043531236
0.044245755
0.044968022
0.045697662
0.046434413
0.047178059
0.047928406
0.048685199
0.049448267
0.050217449
0.050992591
0.051773543
0.052560167
0.053352329
0.054149908
0.054952787
0.055760863
0.056574039
0.057392228
0.058215351
0.059043338
0.059876128
0.060713666
0.061555906
0.062402808
0.063254339
0.064110473
0.06497119
0.065836477
0.066706325
0.067580731
0.068459698
0.069343233
0.070231347
0.071124055
0.072021373
0.072923319
0.073829908
0.074741154
0.075657064
0.076577628
0.077502886
0.078432298
0.042149425
0.042846232
0.043551876
0.044265849
0.044987611
0.045716791
0.046453112
0.047196347
0.04794629
0.048702684
0.049465347
0.050234115
0.051008833
0.05178935
0.052575527
0.053367231
0.054164339
0.054966737
0.05577432
0.056586991
0.057404664
0.05822726
0.05905471
0.059886952
0.060723932
0.061565604
0.062411929
0.063262875
0.064118416
0.064978531
0.065843209
0.066712441
0.067586226
0.068464567
0.069347472
0.070234955
0.07112703
0.072023715
0.07292503
0.07383099
0.074741608
0.075656894
0.076576837
0.077501465
0.078430271
0.042173184
0.042869604
0.043574754
0.044288174
0.045009404
0.045738083
0.046473929
0.047216701
0.047966187
0.04872213
0.049484334
0.050252634
0.051026872
0.051806899
0.052592572
0.053383759
0.054180337
0.054982192
0.055789219
0.056601322
0.057418414
0.058240418
0.059067263
0.059898889
0.060735243
0.061576278
0.062421955
0.063272243
0.064127117
0.064986557
0.06585055
0.066719092
0.067592179
0.068469818
0.069352017
0.07023879
0.071130156
0.072026133
0.07292674
0.073831996
0.074741915
0.075656503
0.076575753
0.077499682
0.078427814
0.041512517
0.042199423
0.042895402
0.043600029
0.044312881
0.045033549
0.045761686
0.046497007
0.047239265
0.047988239
0.048743674
0.049505363
0.050273137
0.051046837
0.051826312
0.052611419
0.053402026
0.05419801
0.054999257
0.055805661
0.056617128
0.05743357
0.05825491
0.05908108
0.059912017
0.06074767
0.061587992
0.062432945
0.063282497
0.064136625
0.06499531
0.065858539
0.066726308
0.067598616
0.06847547
0.06935688
0.070242862
0.071133436
0.072028622
0.072928442
0.073832915
0.074742054
0.075655869
0.07657435
0.077497505
0.078424889
0.041541791
0.042228302
0.042923797
0.04362787
0.044340132
0.045060205
0.045787759
0.046522505
0.047264193
0.048012596
0.048767465
0.049528578
0.050295764
0.051068862
0.05184772
0.052632196
0.053422156
0.054217477
0.055018044
0.055823754
0.056634511
0.057450229
0.05827083
0.059096246
0.059926416
0.060761288
0.061600816
0.062444962
0.063293696
0.064146993
0.065004837
0.065867215
0.066734124
0.067605564
0.068481544
0.069362076
0.070247178
0.071136872
0.07203118
0.072930125
0.073833729
0.074742007
0.075654965
0.076572598
0.0774949
0.078421459
0.040897304
0.041573949
0.042260004
0.042954974
0.043658463
0.044370104
0.045089547
0.04581647
0.046550589
0.047291649
0.048039422
0.048793661
0.049554133
0.050320665
0.051093093
0.051871265
0.052655038
0.053444278
0.054238861
0.055038675
0.055843613
0.056653582
0.057468495
0.058288275
0.059112855
0.059942173
0.060776178
0.061614825
0.062458076
0.063305901
0.064158277
0.065015187
0.065876621
0.066742575
0.067613052
0.068488062
0.069367621
0.070251747
0.071140465
0.072033801
0.072931779
0.073834423
0.074741749
0.075653764
0.076570464
0.077491831
0.078417481
0.040932944
0.04160915
0.042294722
0.042989132
0.043692002
0.044402989
0.045121759
0.045848004
0.046581439
0.047321811
0.048068887
0.04882243
0.049582192
0.050347999
0.051119685
0.051897096
0.05268009
0.053468532
0.054262299
0.055061276
0.055865361
0.056674457
0.057488479
0.058307351
0.059131005
0.059959381
0.060792427
0.061630099
0.06247236
0.06331918
0.064170536
0.065026413
0.065886801
0.066751699
0.06762111
0.068495048
0.069373529
0.070256576
0.071144216
0.072036478
0.072933391
0.073834977
0.074741257
0.075652237
0.076567912
0.077488256
0.078412911
0.04097169
0.041647603
0.042332675
0.043026487
0.043728701
0.044438992
0.045157044
0.045882555
0.046615249
0.047354868
0.048101179
0.048853953
0.049612932
0.050377937
0.051148803
0.051925374
0.052707507
0.053495068
0.054287933
0.055085988
0.055889129
0.056697262
0.057510301
0.058328171
0.059150803
0.059978139
0.060810127
0.061646723
0.062487892
0.063333602
0.064183834
0.06503857
0.065897804
0.066761536
0.067629771
0.068502525
0.069379817
0.070261674
0.071148126
0.072039206
0.072934945
0.073835371
0.074740503
0.07565035
0.076564905
0.077484135
0.078407704
0.04101395
0.041689576
0.042374105
0.043067274
0.043768787
0.044478335
0.045195616
0.045920337
0.046652224
0.047391021
0.048136495
0.048888422
0.04964654
0.050410663
0.051180626
0.051956272
0.052737457
0.053524047
0.054315918
0.055112957
0.05591506
0.056722132
0.057534089
0.058350855
0.059172364
0.059998555
0.060829379
0.061664791
0.062504756
0.063349246
0.064198238
0.065051719
0.065909682
0.066772129
0.067639069
0.068510518
0.069386501
0.070267047
0.071152193
0.072041974
0.072936425
0.073835579
0.074739457
0.075648067
0.076561402
0.07747942
0.078401808
0.040394113
0.041060263
0.041735366
0.042419273
0.043111745
0.043812503
0.044521255
0.045237707
0.045961574
0.046692586
0.047430489
0.048175048
0.048926044
0.049683218
0.050446374
0.051215344
0.051989973
0.052770117
0.05355564
0.05434642
0.055142342
0.055943304
0.056749211
0.05755998
0.058375535
0.059195809
0.060020743
0.060850288
0.0616844
0.062523045
0.063366192
0.064213823
0.065065924
0.06592249
0.066783524
0.067649038
0.068519053
0.069393596
0.070272703
0.071156414
0.072044771
0.072937813
0.073835576
0.074738085
0.075645348
0.076557358
0.077474062
0.078395169
0.040445348
0.041110805
0.041785253
0.042468456
0.043160167
0.043860112
0.044568007
0.045283567
0.046006511
0.046736574
0.047473504
0.048217066
0.048967042
0.049723182
0.050485278
0.051253161
0.052026676
0.052805678
0.053590032
0.054379615
0.055174314
0.055974025
0.056778656
0.057588122
0.058402349
0.05922127
0.060044827
0.060872971
0.061705657
0.062542853
0.063384529
0.064230666
0.065081253
0.065936285
0.066795768
0.067659717
0.068528157
0.069401121
0.070278648
0.071160787
0.072047583
0.072939085
0.073835331
0.074736349
0.07564215
0.076552723
0.077468007
0.07838773
0.039201186
0.039845858
0.040501155
0.041165832
0.041839525
0.042521945
0.043212826
0.043911892
0.044618864
0.045333461
0.046055408
0.046784443
0.047520315
0.048262792
0.049011654
0.049766665
0.050527602
0.051294296
0.052066592
0.052844345
0.05362742
0.054415694
0.055209054
0.056007397
0.056810632
0.057618673
0.058431447
0.059248888
0.060070939
0.060897549
0.061728676
0.062564286
0.063404351
0.064248853
0.065097779
0.06595113
0.066808913
0.067671146
0.068537859
0.06940909
0.070284887
0.071165304
0.072050396
0.072940216
0.07383481
0.074734208
0.075638423
0.076547443
0.077461196
0.078379426
0.038628857
0.039263029
0.039907345
0.040561779
0.041225623
0.041898486
0.042580049
0.043270027
0.043968144
0.04467412
0.045387677
0.046108546
0.046836467
0.047571192
0.048312488
0.049060137
0.049813915
0.050573587
0.051338984
0.052109949
0.052886338
0.053668016
0.05445486
0.055246758
0.056043608
0.056845318
0.057651803
0.058462992
0.059278817
0.060099222
0.060924156
0.06175358
0.062587456
0.06342576
0.064268472
0.065115582
0.065967092
0.066823012
0.067683365
0.068548186
0.06941752
0.070291423
0.071169957
0.072053187
0.072941175
0.073833972
0.074731615
0.075634115
0.076541459
0.077453565
0.07837019
0.038696491
0.039330131
0.039973895
0.040627517
0.041290495
0.041962463
0.042643095
0.043332097
0.044029187
0.044734087
0.045446522
0.046166225
0.04689294
0.047626421
0.048366435
0.049112765
0.049865199
0.050623493
0.051387476
0.052156991
0.052931893
0.053712048
0.054497334
0.055287638
0.05608286
0.056882907
0.057687696
0.058497155
0.059311218
0.060129828
0.060952936
0.061780499
0.062612484
0.063448864
0.06428962
0.065134746
0.065984242
0.066838124
0.067696419
0.068559168
0.069426426
0.070298257
0.071174734
0.072055933
0.072941926
0.073832773
0.074728514
0.075629163
0.076534703
0.077445043
0.078359946
0.038769688
0.039402807
0.040045924
0.040698724
0.041360798
0.042031809
0.042711438
0.043399384
0.044095365
0.044799103
0.045510326
0.04622877
0.046954179
0.047686311
0.048424935
0.049169834
0.049920802
0.050677599
0.051440044
0.05220798
0.052981264
0.053759761
0.05454335
0.05533192
0.056125369
0.056923606
0.057726549
0.058534124
0.059346268
0.060162924
0.060984041
0.061809577
0.062639499
0.06347378
0.064312402
0.065155359
0.066002655
0.066854308
0.067710352
0.068570835
0.069435821
0.070305387
0.071179619
0.072058604
0.072942427
0.073831158
0.074724844
0.075623499
0.076527102
0.077435549
0.078348612
0.038848918
0.039481458
0.040123856
0.040775796
0.041436916
0.042106907
0.042785455
0.043472263
0.044167047
0.044869531
0.045579444
0.046296526
0.047020523
0.047751195
0.048488313
0.049231659
0.049981033
0.050736203
0.051496977
0.052263198
0.053034723
0.053811418
0.054593163
0.055379847
0.056171368
0.056967637
0.057768572
0.058574101
0.059384158
0.060198686
0.061017637
0.061840967
0.062668642
0.063500635
0.06433693
0.065177519
0.066022411
0.066871628
0.067725211
0.068583216
0.069445719
0.07031281
0.07118459
0.072061164
0.07294263
0.073829068
0.074720534
0.075617044
0.07651857
0.077424997
0.078336097
0.038934653
0.039566534
0.040208141
0.040859164
0.041519271
0.042188168
0.042865555
0.043551135
0.044244627
0.044945757
0.045654257
0.046369867
0.047092338
0.04782143
0.048556916
0.049298581
0.050046223
0.050799629
0.051558588
0.052322948
0.053092563
0.053867302
0.054647045
0.055431681
0.05622111
0.057015242
0.057813996
0.058617301
0.05942509
0.060237308
0.061053903
0.061874833
0.062700063
0.063529565
0.064363322
0.065201329
0.066043597
0.066890153
0.067741044
0.06859634
0.069456128
0.070320516
0.071189622
0.07206357
0.072942474
0.073826431
0.074715503
0.075609709
0.076509014
0.077413286
0.078322299
0.039027385
0.039658521
0.040299258
0.040949295
0.041608316
0.042276039
0.042952175
0.043636432
0.044328531
0.045028199
0.045735173
0.046449194
0.047170015
0.047897399
0.04863112
0.049370964
0.050116731
0.050868221
0.051625215
0.052387555
0.0531551
0.053927719
0.05470529
0.055487705
0.056274864
0.057066678
0.057863067
0.058663958
0.059469287
0.060278995
0.061093033
0.061911355
0.062733925
0.063560715
0.064391708
0.0652269
0.066066304
0.066909953
0.067757903
0.068610236
0.069467057
0.070328491
0.07119468
0.072065768
0.072941893
0.073823165
0.074709657
0.075601391
0.076498324
0.077400306
0.078307104
0.039127639
0.039757937
0.04039772
0.041046689
0.04170454
0.042371
0.043045789
0.043728619
0.044419214
0.045117306
0.045822632
0.046534938
0.047253977
0.047979516
0.048711328
0.049449204
0.050192941
0.050942353
0.051697218
0.052457373
0.053222675
0.053992996
0.054768214
0.055548223
0.056332923
0.057122226
0.057916051
0.058714327
0.059516987
0.060323974
0.061135234
0.061950724
0.062770404
0.063594244
0.064422227
0.06525435
0.066090629
0.066931103
0.06777584
0.068624934
0.06947851
0.070336718
0.071199723
0.072067699
0.072940805
0.073819174
0.074702889
0.075591975
0.076486379
0.077385931
0.078290385
0.039235972
0.039865336
0.040504071
0.041151881
0.041808469
0.042473567
0.043146903
0.043828195
0.044517169
0.04521356
0.045917109
0.046627563
0.047344679
0.048068224
0.048797975
0.049533723
0.050275268
0.051022427
0.051774989
0.052532778
0.053295654
0.054063488
0.054836161
0.055613565
0.056395604
0.057182187
0.057973237
0.058768679
0.059568448
0.060372484
0.061180734
0.06199315
0.06280969
0.063630323
0.06445503
0.065283808
0.066116678
0.066953685
0.067794909
0.068640461
0.06949049
0.070345172
0.071204704
0.07206929
0.07293912
0.073814349
0.074695076
0.075581327
0.076473039
0.077370017
0.078271999
0.03935298
0.03998131
0.040618897
0.041265447
0.041920669
0.042584296
0.043256066
0.043935698
0.044622924
0.045317481
0.046019113
0.046727569
0.047442609
0.048164003
0.048891529
0.049624979
0.050364156
0.051108877
0.051858949
0.052614181
0.053374434
0.054139579
0.054909499
0.055684087
0.056463246
0.057246889
0.058034934
0.05882731
0.059623949
0.06042479
0.061229777
0.062038858
0.062851989
0.063669137
0.064490279
0.065315414
0.066144564
0.066977785
0.067815168
0.068656847
0.069502996
0.070353823
0.071209564
0.072070458
0.072936731
0.073808566
0.074686078
0.075569297
0.076458146
0.077352404
0.078251785
0.0394793
0.040106492
0.040742825
0.041388005
0.042041748
0.042703787
0.043373866
0.044051708
0.044737049
0.045429628
0.046129192
0.046835495
0.047548296
0.048267369
0.048992494
0.049723465
0.050460085
0.051202173
0.051949553
0.052702023
0.053459442
0.054221682
0.054988628
0.055760173
0.056536221
0.057316684
0.058101482
0.058890542
0.059683795
0.060481177
0.061282629
0.062088095
0.062897527
0.063710887
0.064528151
0.065349316
0.06617441
0.067003495
0.067836681
0.068674122
0.069516026
0.070362639
0.071214239
0.07207111
0.07293352
0.073801684
0.074675739
0.075555717
0.076441526
0.077332914
0.078229562
0.039615618
0.04024156
0.040876525
0.041520218
0.042172359
0.042832682
0.043500936
0.044176849
0.044860157
0.045550605
0.046247941
0.046951922
0.047662311
0.048378881
0.049101418
0.049829714
0.050563577
0.051302826
0.052047292
0.052796782
0.053551142
0.054310246
0.055073981
0.05584224
0.056614927
0.057391957
0.058173247
0.058958723
0.059748314
0.060541954
0.061339579
0.062141127
0.062946547
0.063755793
0.064568839
0.065385681
0.06620635
0.067030919
0.067859514
0.06869232
0.069529578
0.070371581
0.071218657
0.072071145
0.072929357
0.073793551
0.074663885
0.075540399
0.076422982
0.077311345
0.078205132
0.039762667
0.040387245
0.041020719
0.0416628
0.042313208
0.042971676
0.043637962
0.044311794
0.044992912
0.045681063
0.046375999
0.047077479
0.047785268
0.048499143
0.049218889
0.049944303
0.050675194
0.051411383
0.052152702
0.052898976
0.053650036
0.054405757
0.055166027
0.05593074
0.056699801
0.057473124
0.058250626
0.059032231
0.059817866
0.060607459
0.061400942
0.062198247
0.062999316
0.063804096
0.064612555
0.06542469
0.066240532
0.067060169
0.067883745
0.068711478
0.069543652
0.070380612
0.071222745
0.072070451
0.072924102
0.073783998
0.07465033
0.07552314
0.076402302
0.077287483
0.078178278
0.039921239
0.040544329
0.041176185
0.041816517
0.042465052
0.043121519
0.043785682
0.044457271
0.04513603
0.045821707
0.046514059
0.047212844
0.047917834
0.048628805
0.049345547
0.050067857
0.050795546
0.051528436
0.052266363
0.053009167
0.053756668
0.054508742
0.055265275
0.056026164
0.056791314
0.057560638
0.058334052
0.059111478
0.059892839
0.060678059
0.061467062
0.062259774
0.063056125
0.063856058
0.064659532
0.065466541
0.066277122
0.067091372
0.067909462
0.068731645
0.069558254
0.070389695
0.071226426
0.072068918
0.072917608
0.073772853
0.074634876
0.075503727
0.07637926
0.077261095
0.078148768
0.040092186
0.040713658
0.041343759
0.0419822
0.04262871
0.043283018
0.043944893
0.044614066
0.045290284
0.045973299
0.046662868
0.047358755
0.048060731
0.048768577
0.049482083
0.050201051
0.050925292
0.051654632
0.052388905
0.053127962
0.053871631
0.054619774
0.05537228
0.056129047
0.05688998
0.057654991
0.058423996
0.059196912
0.059973659
0.060754155
0.061538314
0.062326055
0.063117296
0.063911969
0.064710026
0.065511458
0.066316304
0.067124675
0.06793677
0.068752881
0.069573401
0.070398806
0.071229633
0.072066436
0.072909733
0.07375994
0.074617322
0.07548194
0.076353624
0.077231942
0.078116362
0.040276427
0.040896145
0.041524346
0.042160744
0.042805069
0.04345705
0.04411646
0.044783032
0.045456515
0.046136665
0.04682324
0.047516008
0.048214742
0.048919225
0.049629251
0.050344622
0.051065152
0.051790669
0.05252101
0.053256026
0.053995566
0.054739475
0.055487643
0.056239969
0.056996358
0.05775672
0.05852097
0.059289023
0.060060791
0.060836185
0.06161511
0.062397472
0.063183179
0.063972148
0.064764324
0.065559689
0.066358288
0.067160247
0.067965793
0.068775268
0.069589128
0.070407932
0.07123231
0.072062911
0.072900341
0.073745093
0.074597475
0.075457565
0.076325166
0.07719979
0.07808082
0.040474957
0.041092777
0.041718926
0.042353118
0.042995087
0.043644563
0.044301318
0.044965091
0.045635633
0.046312701
0.046996057
0.04768547
0.048380717
0.049081584
0.049787865
0.050499367
0.051215905
0.051937308
0.052663417
0.053394084
0.054129172
0.054868522
0.055612018
0.056359561
0.057111054
0.057866408
0.058625534
0.059388343
0.06015474
0.060924626
0.061697898
0.062474445
0.063254161
0.06403695
0.064822742
0.065611514
0.066403313
0.067198283
0.067996684
0.068798911
0.069605495
0.070417089
0.071234426
0.072058267
0.072889321
0.073728165
0.074575163
0.075430407
0.076293677
0.077164417
0.078041917
0.040688853
0.041304624
0.041928559
0.042560375
0.043199806
0.043846587
0.044500485
0.045161248
0.045828627
0.046502382
0.047182276
0.047868083
0.048559582
0.049256559
0.049958814
0.050666154
0.051378398
0.052095377
0.052816933
0.053542921
0.054273208
0.055007651
0.055746118
0.05648851
0.057234731
0.057984691
0.058738296
0.059495451
0.060256056
0.061020002
0.061787169
0.062557433
0.063330669
0.064106764
0.064885634
0.065667248
0.066451656
0.067239017
0.068029631
0.068823953
0.069622599
0.070426324
0.071235985
0.072052468
0.072876599
0.07370905
0.074550248
0.075400308
0.07625898
0.077125637
0.077999458
0.040919288
0.041532849
0.0421544
0.042783658
0.043420359
0.044064241
0.044715068
0.045372595
0.046036574
0.046706767
0.047382941
0.048064872
0.04875234
0.049445137
0.050143063
0.050845928
0.051553554
0.052265774
0.052982433
0.053703387
0.054428505
0.055157661
0.055890715
0.056627562
0.057368107
0.058112257
0.058859914
0.059610979
0.060365342
0.061122879
0.061883459
0.062646937
0.06341317
0.064182023
0.064953396
0.065727248
0.06650363
0.067282722
0.068064864
0.068850579
0.069640577
0.070435734
0.071237042
0.072045527
0.072862149
0.07368769
0.074522649
0.075367163
0.076220955
0.077083316
0.077953299
0.041167536
0.041778719
0.042397706
0.043024213
0.043657979
0.044298744
0.04494627
0.045600318
0.046260643
0.046927009
0.047599185
0.048276949
0.048960085
0.049648388
0.050341659
0.051039713
0.051742373
0.052449474
0.053160865
0.053876405
0.054595963
0.055319418
0.056046646
0.056777525
0.05751196
0.058249853
0.058991107
0.059735611
0.060483246
0.061233876
0.061987351
0.062743507
0.063502176
0.064263203
0.065026466
0.065791913
0.066559596
0.067329717
0.068102661
0.068879026
0.069659627
0.070445474
0.07123771
0.072037521
0.072846017
0.073664102
0.074492355
0.075330942
0.076179553
0.077037392
0.077903364
0.041434985
0.042043615
0.042659846
0.043283398
0.043914009
0.044551425
0.045195402
0.045845713
0.04650211
0.047164361
0.047832239
0.048505524
0.049184003
0.049867473
0.050555739
0.051248618
0.051945937
0.052647533
0.053353257
0.054062971
0.054776547
0.055493866
0.056214816
0.056939272
0.057667128
0.058398287
0.059132644
0.059870083
0.060610472
0.061353661
0.062099478
0.062847738
0.063598248
0.064350826
0.06510533
0.065861692
0.066619967
0.067380376
0.068143357
0.06890959
0.069680006
0.070455764
0.071238176
0.072028606
0.072828329
0.073638386
0.074459446
0.075291704
0.076134818
0.076987891
0.077849663
0.041723152
0.042329042
0.042942316
0.043562692
0.044189912
0.044823727
0.04546389
0.046110181
0.046762355
0.047420182
0.048083438
0.048751906
0.049425376
0.050103648
0.05078653
0.051473842
0.052165413
0.052861086
0.053560713
0.054264158
0.054971297
0.055682012
0.056396195
0.057113736
0.057834511
0.058558421
0.059285354
0.060015186
0.060747773
0.061482948
0.062220518
0.062960272
0.06370199
0.064445462
0.06519052
0.065937083
0.066685203
0.067435128
0.068187348
0.068942633
0.069702045
0.070466904
0.07123871
0.072019023
0.072809302
0.073610738
0.074424098
0.07524961
0.076086892
0.076934938
0.077792299
0.042033686
0.042636642
0.043246743
0.043863706
0.044487278
0.045117218
0.045753277
0.046395242
0.047042871
0.047695938
0.048354219
0.049017503
0.049685582
0.050358259
0.051035346
0.051716665
0.052402051
0.053091347
0.05378441
0.054481108
0.055181317
0.055884925
0.056591823
0.057301907
0.058015062
0.058731168
0.059450111
0.060171756
0.060895946
0.061622495
0.06235119
0.063081791
0.063814048
0.06454772
0.065282614
0.066018629
0.066755819
0.067494455
0.068235087
0.068978583
0.069726145
0.070479271
0.071239667
0.072009107
0.072789252
0.073581456
0.074386593
0.075204926
0.076036025
0.076878761
0.077731477
0.042368383
0.042968207
0.043574898
0.044188183
0.044807824
0.045433585
0.046065224
0.046702526
0.047345259
0.047993195
0.048646118
0.049303817
0.049966088
0.050632737
0.051303581
0.051978446
0.052657168
0.053339596
0.05402559
0.054715021
0.055407769
0.056103724
0.056802779
0.057504832
0.058209773
0.058917483
0.059627827
0.060340663
0.061055821
0.061773094
0.062492247
0.063213009
0.0639351
0.064658246
0.065382223
0.066106914
0.066832371
0.067558891
0.068287087
0.069017931
0.069752778
0.070493319
0.071241483
0.071999279
0.072768585
0.073550933
0.074347312
0.075158016
0.075982563
0.076819685
0.077667489
0.042729211
0.043325691
0.043928687
0.044537992
0.045153381
0.045774627
0.046401495
0.047033763
0.047671211
0.048313612
0.048960753
0.049612426
0.050268432
0.050928581
0.051592693
0.052260598
0.052932136
0.053607162
0.054285538
0.05496714
0.05565185
0.056339562
0.057030172
0.057723578
0.058419673
0.059118337
0.059819433
0.060522797
0.061228244
0.061935551
0.062644455
0.063354658
0.064065843
0.064777703
0.065489985
0.06620255
0.06691545
0.067629009
0.068343904
0.069061222
0.069782477
0.070509569
0.07124467
0.071990039
0.072747791
0.073519649
0.074306719
0.075109329
0.075926934
0.076758107
0.077600699
0.042532301
0.0431185
0.043711186
0.044310126
0.044915098
0.045525875
0.04614223
0.046763932
0.047390754
0.048022485
0.048658902
0.049299793
0.049944956
0.050594194
0.051247323
0.051904167
0.05256456
0.053228348
0.053895388
0.054565549
0.055238711
0.05591476
0.056593592
0.057275108
0.057959205
0.058645778
0.059334706
0.060025848
0.060719033
0.061414052
0.062110662
0.062808573
0.063507459
0.064206967
0.064906756
0.06560654
0.06630616
0.067005663
0.067705404
0.068406126
0.069109036
0.069815819
0.070528596
0.071249796
0.071981949
0.072727424
0.073488145
0.074265343
0.075059375
0.075869624
0.076694484
0.077531522
0.042380128
0.042955914
0.043538219
0.044126752
0.044721262
0.045321513
0.045927273
0.046538313
0.047154407
0.047775323
0.048400855
0.049030788
0.049664911
0.050303025
0.050944942
0.051590479
0.052239466
0.052891742
0.05354716
0.054205581
0.054866879
0.055530939
0.056197652
0.056866918
0.057538641
0.05821272
0.05888905
0.059567509
0.060247951
0.060930197
0.061614027
0.062299171
0.062985313
0.063672094
0.064359128
0.065046037
0.065732503
0.066418343
0.067103604
0.067788667
0.068474346
0.069161969
0.069853402
0.070550998
0.07125746
0.071975607
0.072708074
0.073457
0.074223748
0.0750087
0.07581115
0.076629297
0.077460398
0.042275063
0.042840454
0.043412349
0.04399044
0.044574448
0.045164122
0.04575922
0.046359508
0.046964757
0.047574742
0.048189237
0.04880803
0.049430919
0.050057697
0.050688168
0.05132215
0.051959466
0.052599951
0.053243451
0.053889823
0.054538936
0.055190669
0.055844912
0.056501563
0.057160526
0.057821707
0.05848501
0.059150331
0.059817545
0.060486502
0.061157016
0.061828852
0.062501723
0.063175289
0.063849153
0.064522896
0.065196101
0.06586842
0.066539645
0.067209819
0.067879351
0.068549127
0.069220598
0.069895815
0.070577375
0.071268268
0.071971616
0.07269034
0.073426806
0.074182509
0.074957854
0.075752037
0.076563035
0.077387772
0.042774415
0.043335997
0.043903674
0.044477173
0.045056235
0.045640612
0.046230067
0.046824367
0.047423283
0.048026595
0.048634085
0.049245536
0.049860757
0.050479548
0.051101718
0.051727089
0.052355492
0.05298677
0.053620774
0.054257368
0.054896428
0.05553784
0.0561815
0.056827311
0.057475184
0.05812503
0.058776755
0.059430256
0.06008541
0.060742063
0.061400019
0.062059033
0.0627188
0.063378953
0.06403907
0.064698696
0.065357373
0.066014718
0.066670501
0.06732476
0.067977929