/*--------------------------------*- C++ -*----------------------------------*\
| =========                 |                                                 |
| \\      /  F ield         | OpenFOAM: The Open Source CFD Toolbox           |
|  \\    /   O peration     | Version:  2312                                  |
|   \\  /    A nd           | Website:  www.openfoam.com                      |
|    \\/     M anipulation  |                                                 |
\*---------------------------------------------------------------------------*/
FoamFile
{
    version     2.0;
    format      ascii;
    arch        "LSB;label=32;scalar=64";
    class       volScalarField;
    location    "0.06";
    object      CH4;
}
// * * * * * * * * * * * * * * * * * * * * * * * * * * * * * * * * * * * * * //

dimensions      [0 0 0 0 0 0 0];

internalField   nonuniform List<scalar> 
3224
(
0.0052719211
0.0049959344
0.0047325553
0.0044812858
0.0042416232
0.0040130632
0.0037951072
0.0035872678
0.0033890702
0.0032000543
0.0030197748
0.0028478016
0.00268372
0.0025271304
0.0023776483
0.0022349038
0.0020985415
0.00196822
0.0018436115
0.0017244016
0.0016102885
0.0015009831
0.0013962079
0.0012956973
0.0011991965
0.0011064615
0.0010172586
0.0009313637
0.00084856229
0.00076864872
0.00069142599
0.00061670529
0.0005443057
0.00047405387
0.00040578372
0.00033933626
0.00027455932
0.00021130739
0.00014944142
8.8828533e-05
2.9341198e-05
0.005271919
0.0049960867
0.004732788
0.00448156
0.0042419202
0.0040133729
0.0037954237
0.003587587
0.0033893895
0.0032003716
0.0030200885
0.0028481105
0.0026840231
0.0025274268
0.0023779372
0.0022351847
0.0020988138
0.0019684832
0.0018438653
0.0017246456
0.0016105224
0.0015012067
0.0013964209
0.0012958995
0.0011993878
0.0011066417
0.0010174276
0.00093152139
0.00084870855
0.00076878347
0.00069154913
0.00061681676
0.00054440544
0.00047414182
0.00040585987
0.0003394006
0.00027461187
0.00021134817
0.00014947047
8.884592e-05
2.9347069e-05
0.0052714672
0.0049958137
0.0047326096
0.0044814422
0.004241846
0.0040133324
0.0037954104
0.0035875964
0.0033894179
0.0032004161
0.0030201467
0.0028481803
0.0026841025
0.0025275143
0.0023780313
0.0022352839
0.002098917
0.0019685894
0.0018439733
0.0017247545
0.0016106315
0.001501315
0.0013965279
0.0012960044
0.00119949
0.0011067406
0.0010175227
0.00093161225
0.00084879469
0.00076886446
0.00069162459
0.0006168863
0.00054446872
0.00047419852
0.0004059097
0.0003394433
0.00027464721
0.00021137595
0.00014949049
8.8858003e-05
2.9351216e-05
0.0052705834
0.0049951135
0.0047320124
0.0044809231
0.0042413909
0.004012932
0.0037950581
0.0035872868
0.0033891467
0.0032001795
0.0030199414
0.0028480033
0.0026839512
0.0025273862
0.0023779241
0.0022351957
0.0020988457
0.0019685332
0.0018439306
0.0017247238
0.0016106114
0.0015013041
0.001396525
0.0012960084
0.0011994998
0.0011067553
0.0010175413
0.00093163388
0.00084881854
0.00076888977
0.00069165062
0.00061691238
0.00054449421
0.00047422282
0.00040593225
0.00033946357
0.00027466472
0.00021139027
0.00014950118
8.886464e-05
2.9353583e-05
0.0055574689
0.0052693779
0.0049939922
0.0047309951
0.00448
0.0042405518
0.0040121687
0.0037943635
0.0035866552
0.0033885729
0.0031996589
0.0030194699
0.002847577
0.0026835666
0.00252704
0.0023776133
0.0022349175
0.0020985975
0.0019683125
0.0018437353
0.0017245516
0.0016104603
0.0015011724
0.0013964108
0.0012959102
0.001199416
0.0011066845
0.0010174822
0.00093158519
0.0008487791
0.00076885847
0.00069162642
0.00061689428
0.00054448127
0.00047421416
0.00040592703
0.00033946101
0.00027466409
0.00021139088
0.00014950237
8.8865757e-05
2.9354153e-05
0.0055561282
0.005267855
0.0049925362
0.0047296432
0.0044787522
0.0042394018
0.0040111094
0.0037933885
0.0035857584
0.0033877487
0.0031989023
0.003018776
0.0028469416
0.0026829855
0.0025265094
0.0023771298
0.0022344775
0.002098198
0.0019679506
0.0018434082
0.0017242568
0.0016101954
0.0015009351
0.001396199
0.0012957219
0.0011992494
0.0011065379
0.0010173538
0.00093147356
0.00084868278
0.00076877608
0.00069155667
0.00061683594
0.00054443317
0.00047417521
0.00040589618
0.00033943729
0.00027464656
0.00021137866
0.00014949464
8.8861674e-05
2.9353037e-05
0.0055542771
0.0052660521
0.0049908141
0.00472803
0.0044772519
0.0042380102
0.0040098206
0.0037921959
0.0035846559
0.0033867305
0.0031979628
0.0030179101
0.0028461444
0.0026822526
0.0025258365
0.0023765127
0.0022339127
0.0020976819
0.0019674799
0.0018429797
0.0017238677
0.0016098429
0.0015006166
0.0013959122
0.0012954645
0.0011990193
0.001106333
0.0010171724
0.00093131374
0.00084854292
0.00076865461
0.0006914521
0.00061674687
0.00054435825
0.00047411316
0.0004058458
0.00033939743
0.00027461614
0.00021135665
0.00014948007
8.8853607e-05
2.9350627e-05
0.0055518913
0.0052638178
0.0049886856
0.0047260273
0.0044753805
0.0042362674
0.0040082003
0.0037906916
0.0035832606
0.0033854376
0.0031967661
0.0030168035
0.0028451223
0.0026813096
0.0025249675
0.0023757131
0.002233178
0.0020970079
0.0019668626
0.0018424155
0.001723353
0.0016093744
0.0015001914
0.0013955273
0.0012951171
0.0011987069
0.0011060533
0.001016923
0.00093109265
0.00084834806
0.00076848409
0.0006913041
0.00061661969
0.00054425026
0.00047402282
0.00040577165
0.00033933807
0.00027457025
0.00021132298
0.00014945743
8.884086e-05
2.9346717e-05
0.0058503906
0.0055490928
0.0052611228
0.0049861165
0.0047236043
0.0044731098
0.0042341468
0.004006224
0.0037888523
0.0035815507
0.0033838497
0.0031952929
0.0030154382
0.0028438583
0.0026801406
0.0025238878
0.0023747172
0.0022322605
0.002096164
0.0019660876
0.0018417051
0.0017227031
0.0016087812
0.0014996512
0.0013950367
0.0012946729
0.0011983061
0.001105693
0.0010166006
0.00093080557
0.00084809396
0.0007682607
0.0006911093
0.00061645144
0.00054410665
0.00047390201
0.00040567188
0.00033925769
0.00027450768
0.00021127672
0.00014942607
8.8823049e-05
2.9341179e-05
0.0058471725
0.0055457918
0.0052579277
0.0049830701
0.0047207277
0.0044704092
0.0042316201
0.0040038649
0.0037866529
0.0035795027
0.0033819446
0.0031935226
0.0030137948
0.0028423343
0.0026787289
0.0025225816
0.0023735101
0.0022311466
0.0020951375
0.0019651432
0.0018408377
0.001721908
0.0016080538
0.0014989873
0.0013944324
0.0012941245
0.00119781
0.001105246
0.0010161995
0.00093044746
0.00084777606
0.00076798039
0.00069086409
0.00061623897
0.00054392466
0.00047374835
0.00040554451
0.00033915466
0.00027442713
0.0002112169
0.00014938531
8.8799769e-05
2.9333877e-05
0.006159156
0.005843272
0.0055419177
0.0052541868
0.0049795066
0.0047173613
0.0044672455
0.0042286563
0.0040010941
0.0037840664
0.0035770912
0.0033796986
0.0031914329
0.0030118525
0.0028405308
0.0026770562
0.0025210319
0.0023720761
0.0022298213
0.0020939145
0.0019640164
0.0018398012
0.0017209564
0.001607182
0.0014981904
0.0013937058
0.0012934639
0.0011972115
0.0011047056
0.0010157137
0.00093001287
0.00084738948
0.0007676388
0.00069056462
0.00061597888
0.00054370135
0.00047355934
0.00040538742
0.00033902723
0.00027432722
0.00021114247
0.00014933442
8.8770587e-05
2.932467e-05
0.0061543408
0.0058386435
0.005537406
0.0052498505
0.0049753825
0.004713466
0.0044635827
0.004225222
0.0039978804
0.0037810636
0.0035742887
0.003377086
0.0031889997
0.0030095887
0.0028384267
0.0026751027
0.0025192202
0.0023703979
0.0022282689
0.0020924803
0.0019626935
0.001838583
0.0017198366
0.0016061548
0.0014972503
0.0013928476
0.0012926827
0.0011965025
0.0011040647
0.0010151367
0.00092949593
0.00084692894
0.00076723122
0.00069020671
0.00061566751
0.00054343355
0.00047333225
0.00040519834
0.00033887355
0.00027420647
0.0002110523
0.00014927261
8.8735048e-05
2.9313409e-05
0.0064792811
0.006148703
0.0058332392
0.0055321957
0.0052448667
0.0049706514
0.0047089994
0.0044593817
0.0042212809
0.0039941899
0.0037776127
0.0035710657
0.003374079
0.0031861971
0.0030069791
0.0028359994
0.0026728472
0.0025171267
0.0023684571
0.0022264719
0.0020908188
0.0019611595
0.0018371691
0.0017185358
0.0016049604
0.001496156
0.0013918476
0.0012917714
0.0011956748
0.0011033155
0.0010144615
0.00092889029
0.00084638876
0.00076675256
0.00068978586
0.00061530092
0.00054311783
0.00047306418
0.00040497481
0.0003386916
0.00027406328
0.00021094519
0.00014919906
8.8692664e-05
2.9299938e-05
0.006472391
0.0061421705
0.0058270026
0.0055262265
0.0052391803
0.0049652633
0.0047039158
0.0044546002
0.0042167937
0.0039899861
0.0037736796
0.0035673901
0.0033706476
0.0031829969
0.0030039975
0.0028332241
0.0026702667
0.00251473
0.0023662336
0.0022244117
0.0020889125
0.0019593983
0.0018355446
0.00171704
0.0016035858
0.0014948957
0.0013906949
0.0012907201
0.001194719
0.0011024497
0.0010136805
0.00092818911
0.00084576276
0.00076619734
0.00068929721
0.00061487486
0.00054275053
0.00047275198
0.0004047142
0.00033847923
0.00027389595
0.00021081987
0.00014911287
8.8642915e-05
2.9284089e-05
0.0068100105
0.0064644991
0.0061346794
0.0058198733
0.0055194369
0.0052327335
0.0049591652
0.0046981661
0.0044491929
0.0042117182
0.0039852293
0.0037692272
0.0035632273
0.0033667595
0.0031793688
0.0030006153
0.0028300744
0.0026673364
0.0025120068
0.0023637058
0.0022220682
0.0020867428
0.0019573925
0.0018336932
0.0017153342
0.0016020174
0.0014934566
0.0013893778
0.001289518
0.0011936253
0.0011014583
0.0010127854
0.00092738498
0.00084504432
0.00076555963
0.00068873555
0.00061438475
0.00054232769
0.00047239228
0.00040441369
0.00033823414
0.00027370266
0.00021067495
0.0001490131
8.858525e-05
2.9265683e-05
0.0068004906
0.0064555087
0.0061261585
0.0058117867
0.0055117627
0.0052254655
0.0049523001
0.0046916977
0.0044431106
0.0042060087
0.003979877
0.0037642158
0.0035585399
0.0033623796
0.0031752801
0.0029968022
0.0028265216
0.0026640296
0.0025089322
0.0023608504
0.0022194197
0.0020842895
0.0019551232
0.0018315975
0.0017134023
0.00160024
0.0014918249
0.0013878835
0.0012881534
0.0011923831
0.0011003315
0.0010117676
0.00092646992
0.00084422625
0.00076483306
0.00068809523
0.00061382567
0.00054184504
0.00047198145
0.00040407026
0.00033795385
0.00027348146
0.00021050898
0.00014889872
8.8519078e-05
2.9244531e-05
0.0071505158
0.0067897362
0.0064453385
0.0061165338
0.0058026736
0.0055031366
0.0052173119
0.0049446077
0.004684454
0.0044363009
0.0041996161
0.0039738834
0.0037586024
0.003553288
0.0033574705
0.0031706957
0.002992525
0.002822535
0.0026603174
0.0025054793
0.0023576424
0.0022164427
0.0020815306
0.0019525702
0.0018292388
0.0017112269
0.0015982375
0.0014899857
0.0013861984
0.0012866137
0.0011909807
0.0010990588
0.0010106173
0.00092543532
0.00084330086
0.00076401076
0.00068737019
0.00061319232
0.00054129804
0.00047151564
0.00040368069
0.00033763575
0.00027323028
0.00021032041
0.00014876869
8.8443775e-05
2.922043e-05
0.0071376819
0.0067776175
0.0064339001
0.0061057268
0.00579246
0.005493487
0.0052082042
0.0049360234
0.0046763748
0.0044287073
0.0041924877
0.0039671991
0.003752341
0.0035474282
0.0033519917
0.0031655778
0.0029877485
0.0028180814
0.002656169
0.0025016193
0.0023540547
0.0022131122
0.0020784429
0.0019497117
0.0018265967
0.0017087892
0.0015959926
0.001487923
0.0013843076
0.0012848854
0.0011894058
0.0010976289
0.0010093244
0.00092427193
0.00084225985
0.00076308536
0.00068655395
0.00061247907
0.00054068181
0.00047099072
0.00040324153
0.00033727705
0.00027294694
0.00021010759
0.00014862185
8.8358684e-05
2.9193166e-05
0.0071231074
0.0067640273
0.0064211041
0.0060936548
0.0057810669
0.0054827376
0.0051980698
0.0049264785
0.0046673954
0.0044202693
0.0041845669
0.0039597713
0.0037453819
0.0035409143
0.0033458998
0.0031598856
0.0029824346
0.0028131252
0.0026515511
0.002497321
0.0023500583
0.002209401
0.0020750012
0.0019465243
0.0018236496
0.0017060689
0.0015934867
0.0014856194
0.0013821953
0.0012829538
0.0011876451
0.0010960296
0.0010078779
0.00092296982
0.00084109432
0.00076204897
0.00068563957
0.00061167985
0.00053999118
0.0004704023
0.00040274917
0.00033687481
0.00027262913
0.00020986881
0.00014845702
8.8263115e-05
2.9162516e-05
0.0071068417
0.0067488873
0.0064068616
0.0060802303
0.00576841
0.0054708074
0.0051868311
0.0049158997
0.0046574468
0.0044109223
0.0041757932
0.0039515431
0.0037376721
0.0035336964
0.0033391481
0.0031535755
0.0029765424
0.0028076282
0.0026464278
0.002492551
0.0023456221
0.0022052802
0.0020711782
0.0019429829
0.001820374
0.0017030445
0.0015906996
0.0014830565
0.0013798444
0.0012808033
0.0011856841
0.0010942479
0.0010062658
0.00092151832
0.00083979475
0.00076089313
0.00068461962
0.00061078825
0.00053922064
0.00046974575
0.00040219978
0.00033642594
0.00027227445
0.00020960227
0.00014827299
8.8156352e-05
2.9128247e-05
0.0074622451
0.0070890351
0.0067321292
0.0063910797
0.0060653601
0.0057543988
0.0054576094
0.0051744052
0.0049042086
0.0046464554
0.004400597
0.0041661016
0.0039424538
0.0037291546
0.0035257211
0.0033316867
0.0031466007
0.002970028
0.0028015495
0.002640761
0.0024872735
0.0023407126
0.0022007185
0.0020669451
0.0019390603
0.0018167448
0.0016996926
0.0015876097
0.0014802144
0.0013772366
0.001278417
0.0011835075
0.0010922698
0.0010044756
0.00091990601
0.00083835094
0.00075960882
0.0006834862
0.00060979743
0.00053836436
0.0004690162
0.00040158933
0.00033592724
0.00027188039
0.00020930614
0.00014806847
8.8037663e-05
2.9090119e-05
0.0074415832
0.0070694459
0.0067136415
0.0063736545
0.0060489429
0.005738936
0.0054430506
0.0051607039
0.0048913216
0.0046343422
0.0043892194
0.0041554227
0.0039324382
0.0037197682
0.0035169312
0.0033234619
0.0031389109
0.0029628445
0.0027948449
0.0026345093
0.00248145
0.0023352939
0.0021956824
0.0020622706
0.0019347275
0.0018127351
0.0016959882
0.001584194
0.0014770717
0.0013743521
0.001275777
0.0011810988
0.0010900802
0.0010024936
0.00091812068
0.000836752
0.00075818643
0.00068223094
0.00060870016
0.00053741622
0.00046820853
0.00040091367
0.00033537537
0.0002714444
0.00020897851
0.00014784219
8.7906304e-05
2.904789e-05
0.0082136244
0.0078069212
0.0074188887
0.0070479104
0.0066932958
0.0063544703
0.0060308694
0.0057219171
0.0054270314
0.0051456325
0.0048771493
0.0046210231
0.0043767101
0.0041436819
0.0039214263
0.0037094474
0.0035072653
0.0033144162
0.0031304522
0.0029549414
0.0027874673
0.0026276287
0.0024750394
0.0023293276
0.002190136
0.0020571213
0.0019299535
0.0018083159
0.0016919045
0.0015804276
0.0014736055
0.0013711699
0.0012728637
0.0011784402
0.001087663
0.0010003052
0.00091614928
0.00083498632
0.00075661575
0.00068084493
0.00060748882
0.00053636978
0.0004673174
0.00040016847
0.00033476692
0.00027096387
0.0002086175
0.00014759286
8.7761537e-05
2.9001321e-05
0.0086089037
0.0081855334
0.0077806759
0.0073939239
0.0070242555
0.0066709508
0.0063334004
0.0060110208
0.0057032298
0.0054094453
0.0051290901
0.0048615962
0.0046064082
0.0043629847
0.0041307998
0.0039093437
0.0036981224
0.0034966578
0.003304488
0.0031211671
0.0029462647
0.0027793662
0.002620072
0.0024679973
0.0023227723
0.0021840409
0.0020514613
0.0019247048
0.0018034562
0.0016874127
0.0015762839
0.0014697912
0.0013676674
0.0012696565
0.0011755129
0.001085001
0.00099789496
0.00091397787
0.00083304154
0.00075488592
0.00067931878
0.0006061554
0.00053521832
0.0004663373
0.00039934929
0.00033409844
0.00027043619
0.00020822121
0.00014731923
8.7602644e-05
2.8950179e-05
0.0085761743
0.0081546872
0.007751681
0.007366486
0.0069983081
0.0066464559
0.0063103079
0.0059892694
0.0056827534
0.0053901781
0.0051109688
0.0048445605
0.0045904012
0.0043479526
0.0041166915
0.0038961105
0.0036857179
0.0034850382
0.0032936114
0.0031109936
0.0029367566
0.0027704873
0.0026117883
0.0024602766
0.0023155838
0.0021773557
0.0020452521
0.0019189457
0.0017981229
0.0016824821
0.0015717343
0.0014656023
0.0013638203
0.0012661331
0.0011722965
0.0010820758
0.00099524622
0.00091159162
0.00083090453
0.00075298546
0.0006776426
0.00060469149
0.00053395486
0.00046526257
0.00039845165
0.00033336647
0.00026985879
0.00020778783
0.00014702009
8.7428944e-05
2.8894243e-05
0.0085401834
0.0081208357
0.0077198114
0.007336396
0.0069698958
0.0066196527
0.0062850464
0.005965478
0.0056603587
0.0053691078
0.0050911532
0.0048259335
0.0045728998
0.0043315173
0.004101266
0.0038816412
0.0036721541
0.0034723315
0.0032817159
0.0030998658
0.002926355
0.0027607728
0.0026027236
0.0024518264
0.0023077148
0.0021700364
0.0020384525
0.0019126379
0.0017922801
0.0016770795
0.0015667483
0.0014610108
0.0013596025
0.0012622697
0.0011687693
0.0010788678
0.00099234128
0.00090897473
0.00082856135
0.00075090224
0.00067580599
0.00060308837
0.00053257221
0.0004640874
0.00039747103
0.00033256758
0.00026922917
0.00020731562
0.00014669432
8.723982e-05
2.8833317e-05
0.0085007957
0.0080837791
0.0076849087
0.0073034774
0.0069388432
0.0065903749
0.00625746
0.0059395002
0.0056359078
0.0053461042
0.0050695205
0.0048055989
0.0045537944
0.0043135758
0.0040844265
0.0038658449
0.0036573453
0.0034584573
0.0032687262
0.0030877129
0.0029149938
0.0027501606
0.0025928197
0.0024425926
0.0022991147
0.0021620356
0.0020310187
0.0019057403
0.00178589
0.0016711696
0.0015612932
0.0014559865
0.0013549864
0.0012580409
0.0011649081
0.0010753558
0.00098916128
0.00090611042
0.00082599725
0.00074862348
0.00067379807
0.00060133695
0.00053106298
0.00046280597
0.00039640294
0.00033169847
0.00026854501
0.00020680302
0.00014634095
8.7034741e-05
2.8767233e-05
0.0084578245
0.0080433225
0.0076467938
0.0072675464
0.0069049679
0.0065584479
0.0062273833
0.0059111801
0.0056092535
0.0053210283
0.0050459394
0.0047834331
0.0045329686
0.0042940183
0.0040660695
0.0038486243
0.0036412001
0.0034433298
0.0032545617
0.0030744595
0.0029026023
0.0027385844
0.0025820148
0.0024325171
0.0022897292
0.0021533028
0.0020229032
0.0018982091
0.0017789116
0.0016647146
0.0015553339
0.0014504969
0.0013499423
0.0012534195
0.0011606881
0.0010715175
0.00098568612
0.00090298085
0.00082319663
0.00074613573
0.00067160746
0.00059942785
0.00052941963
0.0004614124
0.00039524301
0.00033075602
0.00026780417
0.00020624867
0.00014595918
8.6813294e-05
2.8695863e-05
0.0084110515
0.0079992574
0.0076052688
0.0072284068
0.0068680778
0.0065236871
0.0061946411
0.0058803518
0.0055802392
0.0052937322
0.0050202704
0.0047593045
0.0045102979
0.0042727277
0.004046085
0.0038298757
0.0036236211
0.0034268575
0.0032391365
0.0030600249
0.0028891049
0.0027259735
0.0025702425
0.002421538
0.0022795004
0.0021437839
0.0020140559
0.0018899973
0.0017713014
0.001657674
0.001548833
0.0014445076
0.0013444383
0.0012483764
0.001156083
0.0010673291
0.00098189445
0.00089956715
0.000820143
0.00074342488
0.00066922235
0.00059735141
0.00052763453
0.00045990091
0.00039398705
0.00032973735
0.00026700483
0.0002056515
0.00014554843
8.6575218e-05
2.8619133e-05
0.008360234
0.0079513563
0.0075601172
0.0071858484
0.0068279691
0.0064858968
0.0061590471
0.005846839
0.0055486981
0.0052640585
0.0049923648
0.0047330726
0.0044856502
0.0042495793
0.0040243554
0.0038094888
0.0036045046
0.0034089429
0.003222359
0.0030443233
0.0028744211
0.0027122524
0.0025574321
0.0024095892
0.0022683666
0.0021334212
0.0020044229
0.0018810549
0.0017630128
0.0016500047
0.0015417505
0.0014379817
0.0013384406
0.0012428806
0.0011510645
0.0010627651
0.00097776357
0.0008958493
0.00081681901
0.00074047614
0.00066663045
0.00059509774
0.0005257
0.00045826581
0.00039263107
0.0003286399
0.00026614549
0.00020501075
0.0001451084
8.6320428e-05
2.8537028e-05
0.0083051082
0.0078993721
0.0075111041
0.0071396456
0.0067844249
0.0064448697
0.0061204043
0.0058104549
0.0055144535
0.0052318401
0.0049620647
0.0047045885
0.004458885
0.0042244407
0.0040007561
0.003787346
0.0035837399
0.0033894821
0.0032041318
0.0030272631
0.0028584648
0.0026973406
0.0025435082
0.0023966
0.0022562617
0.0021221531
0.0019939467
0.0018713283
0.001753996
0.0016416604
0.0015340438
0.0014308797
0.0013319131
0.001236899
0.0011456026
0.0010577985
0.00097326938
0.00089180611
0.00081320632
0.00073727402
0.000663819
0.00059265668
0.00052360832
0.00045650155
0.00039117141
0.00032746149
0.00026522509
0.00020432609
0.00014463913
8.6049052e-05
2.8449606e-05
0.0082453901
0.0078430379
0.0074579768
0.0070895569
0.0067372145
0.0064003859
0.0060785035
0.0057710012
0.0054773177
0.0051968995
0.0049292026
0.004673694
0.0044298528
0.0041971711
0.0039751544
0.0037633225
0.0035612096
0.0033683646
0.0031843508
0.0030087466
0.0028411447
0.0026811522
0.0025283905
0.0023824953
0.0022431155
0.0021099139
0.001982566
0.0018607604
0.0017441981
0.001632592
0.0015256672
0.0014231598
0.001324817
0.0012303964
0.0011396654
0.0010524004
0.0009683863
0.00088741514
0.00080928565
0.00073380228
0.00066077476
0.00059001787
0.00052135176
0.00045460278
0.00038960473
0.00032620038
0.00026424304
0.0002035976
0.00014414099
8.5761445e-05
2.8357005e-05
0.0081807769
0.0077820686
0.0074004651
0.0070353254
0.0066860931
0.0063522122
0.0060331234
0.0057282681
0.0054370922
0.0051590489
0.0048936008
0.0046402213
0.0043983955
0.0041676211
0.0039474095
0.0037372856
0.0035367889
0.0033454729
0.0031629059
0.0029886704
0.0028223634
0.002663596
0.0025119935
0.002367195
0.0022288531
0.0020966336
0.0019702156
0.0018492905
0.0017335623
0.001622747
0.0015165722
0.001414777
0.0013171113
0.0012233352
0.0011332186
0.0010465404
0.00096308715
0.00088265264
0.0008050366
0.00073004391
0.00065748397
0.00058717063
0.00051892255
0.0004525643
0.00038792799
0.00032485525
0.00026319918
0.00020282583
0.00014361474
8.5458203e-05
2.8259443e-05
0.0081109475
0.0077161606
0.0073382814
0.0069766781
0.0066308011
0.0063001022
0.00598403
0.0056820337
0.0053935667
0.0051180894
0.0048550714
0.0046039928
0.0043643452
0.0041356325
0.0039173721
0.0037090948
0.0035103453
0.0033206825
0.0031396797
0.0029669242
0.0028020174
0.002644575
0.0024942261
0.0023506139
0.0022133946
0.0020822379
0.001956826
0.0018368538
0.0017220286
0.0016120694
0.0015067071
0.0014056837
0.0013087521
0.0012156754
0.0011262262
0.0010401858
0.00095734305
0.0008774934
0.00080043765
0.00072598096
0.00065393223
0.00058410395
0.0005163128
0.00045038101
0.00038613846
0.00032342517
0.00026209384
0.00020201175
0.00014306147
8.5140152e-05
2.8157217e-05
0.0080355627
0.0076449931
0.0072711216
0.0069133262
0.0065710644
0.0062437956
0.0059309763
0.0056320638
0.0053465193
0.0050738109
0.0048134157
0.0045648207
0.0043275245
0.0041010378
0.0038848843
0.0036786009
0.0034817384
0.0032938613
0.003114548
0.0029433912
0.0027799972
0.0026239861
0.0024749918
0.0023326614
0.0021966555
0.0020666474
0.0019423232
0.0018233813
0.0017095327
0.0016004997
0.0014960167
0.001395829
0.0012996929
0.0012073745
0.0011186495
0.001033302
0.00095112331
0.00087191065
0.00079546591
0.00072159445
0.00065010434
0.00058080627
0.00051351434
0.00044804775
0.00038423349
0.00032190945
0.00026092765
0.00020115664
0.00014248257
8.4808307e-05
2.8050693e-05
0.0079542654
0.0075682277
0.007198665
0.0068449655
0.006506594
0.0061830179
0.0058737019
0.0055781115
0.0052957161
0.005025992
0.0047684239
0.0045225066
0.004287746
0.0040636599
0.003849779
0.0036456466
0.0034508198
0.0032648692
0.0030873792
0.0029179476
0.0027561862
0.0026017202
0.002454188
0.0023132416
0.0021785458
0.002049778
0.0019266286
0.0018087999
0.0016960065
0.0015879747
0.0014844425
0.001385159
0.0012898839
0.001198387
0.0011104473
0.0010258521
0.0009443952
0.00086587584
0.00079009703
0.00071686415
0.00064598411
0.0005772653
0.00051051848
0.00044555907
0.00038221034
0.00032030745
0.00025970135
0.00020026199
0.0001418796
8.4463802e-05
2.7940273e-05
0.0078666811
0.0074855092
0.0071205743
0.0067712757
0.006437086
0.0061174806
0.0058119329
0.0055199169
0.0052409108
0.0049743992
0.0047198751
0.0044768415
0.0042448121
0.0040233122
0.0038118798
0.0036100653
0.0034174325
0.0032335585
0.0030580338
0.0028904623
0.0027304613
0.0025776613
0.0024317062
0.0022922526
0.00215897
0.0020315406
0.001909659
0.0017930317
0.0016813776
0.0015744272
0.0014719223
0.0013736161
0.0012792723
0.0011886647
0.001101576
0.0010177968
0.0009371238
0.00085935846
0.00078430487
0.00071176828
0.00064155406
0.00057346763
0.00050731568
0.00044290886
0.00038006583
0.00031861823
0.00025841556
0.00019932919
0.00014125408
8.4107769e-05
2.7826366e-05
0.0077724184
0.0073964655
0.0070364962
0.0066919213
0.0063622215
0.0060468809
0.0057453819
0.0054572074
0.0051818447
0.0049187873
0.0046675371
0.0044276056
0.0041985146
0.0039797978
0.0037710008
0.0035716815
0.0033814109
0.003199773
0.0030263649
0.0028607968
0.0027026921
0.0025516872
0.0024074313
0.0022695864
0.0021378272
0.0020118406
0.0018913259
0.0017759944
0.0016655694
0.0015597858
0.0014583899
0.0013611394
0.0012678022
0.0011781565
0.001091989
0.0010090941
0.00092927177
0.00085232575
0.00077806125
0.0007062832
0.00063679499
0.00056939839
0.00050389506
0.00044008987
0.0003777958
0.00031684008
0.00025707028
0.00019835922
0.00014060726
8.3741173e-05
2.7709321e-05
0.0076710688
0.0073007084
0.0069460615
0.0066065512
0.0062816669
0.0059709019
0.0056737477
0.005389697
0.0051182464
0.004858899
0.0046111659
0.0043745676
0.0041486349
0.0039329099
0.0037269463
0.0035303103
0.0033425804
0.003163348
0.0029922172
0.002828805
0.0026727412
0.0025236685
0.0023812419
0.0022451292
0.0021150105
0.0019905779
0.0018715359
0.0017576008
0.0016485005
0.001543975
0.0014437755
0.0013476641
0.0012554139
0.0011668076
0.0010816365
0.00099969919
0.00092079909
0.00084474241
0.00077133558
0.00070038298
0.00063168553
0.00056504061
0.00050024384
0.0004370931
0.00037539452
0.00031496994
0.00025566439
0.00019735215
0.00013993974
8.3364597e-05
2.7589363e-05
0.0075622075
0.0071978334
0.0068488855
0.0065147995
0.0061950742
0.0058892124
0.0055967156
0.0053170866
0.005049832
0.0047944648
0.0045505058
0.0043174853
0.0040949433
0.0038824309
0.0036795108
0.0034857575
0.0033007576
0.0031241103
0.0029554273
0.0027943328
0.0026404636
0.0024934688
0.0023530099
0.0022187608
0.0020904072
0.0019676471
0.0018501904
0.0017377586
0.0016300852
0.0015269151
0.0014280048
0.0013331218
0.0012420444
0.0011545603
0.0010704659
0.00098956431
0.0009116628
0.00083657033
0.00076409449
0.00069403893
0.00062620161
0.00056037468
0.00049634664
0.00043390708
0.00037285398
0.00031300267
0.00025419496
0.00019630661
0.00013925106
8.2977979e-05
2.7466502e-05
0.0074453939
0.0070874208
0.0067445682
0.0064162852
0.0061020806
0.0058014673
0.0055139574
0.0052390641
0.0049763047
0.0047252027
0.0044852894
0.0042561049
0.0040371993
0.0038281333
0.0036284787
0.003437819
0.0032557496
0.0030818779
0.0029158236
0.0027572185
0.0026057068
0.0024609447
0.0023226005
0.0021903544
0.0020638985
0.0019429369
0.0018271852
0.0017163708
0.0016102328
0.0015085218
0.0014109999
0.0013174403
0.0012276269
0.0011413532
0.001058421
0.0009786384
0.00090181683
0.00082776822
0.00075630143
0.00068721916
0.00062031588
0.00055537769
0.00049218477
0.0004305171
0.00037016308
0.00031093029
0.00025265661
0.00019521921
0.00013853925
8.2580328e-05
2.7340433e-05
0.0073201719
0.0069690354
0.0066326947
0.0063106129
0.0060023094
0.0057073078
0.0054251312
0.0051553042
0.0048973553
0.004650819
0.0044152374
0.0041901615
0.0039751517
0.0037697787
0.0035736243
0.0033862814
0.0032073546
0.0030364601
0.002873226
0.0027172924
0.0025683111
0.0024259459
0.0022898722
0.0021597774
0.0020353601
0.0019163307
0.0018024114
0.0016933356
0.0015888484
0.0014887067
0.0013926785
0.0013005433
0.0012120911
0.0011271216
0.0010454425
0.00096686715
0.00089121177
0.00081829146
0.00074791641
0.00067988816
0.00061399724
0.0005500228
0.00048773557
0.00042690446
0.00036730681
0.0003087412
0.00025104071
0.00019408387
0.00013780036
8.2169427e-05
2.7210442e-05
0.00718607
0.0068422275
0.006512836
0.0061973734
0.0058953701
0.0056063614
0.0053298823
0.005065469
0.004812662
0.0045710075
0.0043400591
0.0041193789
0.0039085383
0.0037071188
0.0035147124
0.0033309221
0.0031553621
0.0029876579
0.0028274468
0.0026743772
0.0025281094
0.0023883151
0.0022546774
0.002126891
0.0020046616
0.0018877067
0.0017757549
0.0016685463
0.0015658327
0.0014673774
0.0013729549
0.0012823514
0.0011953635
0.0011117975
0.0010314676
0.00095419302
0.00087979493
0.00080809196
0.00073889572
0.00067200651
0.00060721038
0.00054427876
0.00048297176
0.0004230458
0.00036426565
0.00030641952
0.00024933484
0.00019289133
0.00013702802
8.1741579e-05
2.7075315e-05
0.007042601
0.006706533
0.0063845494
0.0060761438
0.005780859
0.005498243
0.0052278431
0.0049692083
0.0047218914
0.004485451
0.0042594527
0.0040434704
0.0038370871
0.0036398955
0.0034514984
0.0032715095
0.0030995531
0.0029352646
0.0027782906
0.0026282889
0.0024849284
0.0023478892
0.0022168627
0.0020915511
0.0019716681
0.0018569382
0.0017470973
0.0016418926
0.0015410828
0.0014444379
0.0013517399
0.0012627818
0.0011773674
0.00109531
0.0010164308
0.00094055549
0.00086751047
0.00079711828
0.00072919207
0.0006635308
0.00059991569
0.00053810971
0.00047786121
0.00041891276
0.00036101506
0.00030394462
0.00024752227
0.00019162874
0.00013621318
8.1291415e-05
2.6933277e-05
0.0068892617
0.0065614755
0.0062473802
0.0059464893
0.0056583604
0.0053825551
0.0051186343
0.0048661603
0.0046246989
0.0043938215
0.0041731064
0.0039621399
0.003760517
0.0035678422
0.0033837299
0.0032078047
0.0030397016
0.0028790666
0.0027255561
0.0025788376
0.0024385892
0.0023045001
0.00217627
0.0020536097
0.0019362407
0.0018238954
0.0017163173
0.001613261
0.0015144927
0.00141979
0.001328942
0.0012417495
0.0011580238
0.001077586
0.0010002644
0.00092589163
0.00085429997
0.00078531606
0.00071875487
0.00065441396
0.00059206945
0.00053147521
0.00047236687
0.00041447189
0.00035752546
0.00030129103
0.0002455819
0.00019027957
0.00013534399
8.0811825e-05
2.6781965e-05
0.0067255333
0.0064065699
0.0061008646
0.0058079651
0.005527448
0.0052588903
0.0050018669
0.004755954
0.004520731
0.0042957827
0.0040807005
0.0038750837
0.00367854
0.0034906862
0.0033111485
0.0031395633
0.002975577
0.0028188462
0.002669038
0.0025258299
0.00238891
0.0022579766
0.0021327388
0.0020129161
0.0018982383
0.0017884463
0.0016832915
0.0015825366
0.0014859556
0.0013933339
0.0013044686
0.0012191685
0.001137253
0.0010585512
0.00098289933
0.00091013717
0.00084010331
0.00077262894
0.00070753105
0.00064460594
0.00058362446
0.00052433091
0.00046644742
0.00040968517
0.00035376258
0.00029842874
0.00024348847
0.00018882377
0.00013440593
8.0294044e-05
2.6618457e-05
0.0065509014
0.0062413346
0.0059445354
0.0056601199
0.0053876886
0.0051268339
0.0048771452
0.0046382124
0.004409629
0.0041909936
0.0039819114