/*--------------------------------*- C++ -*----------------------------------*\
| =========                 |                                                 |
| \\      /  F ield         | OpenFOAM: The Open Source CFD Toolbox           |
|  \\    /   O peration     | Version:  2312                                  |
|   \\  /    A nd           | Website:  www.openfoam.com                      |
|    \\/     M anipulation  |                                                 |
\*---------------------------------------------------------------------------*/
FoamFile
{
    version     2.0;
    format      ascii;
    arch        "LSB;label=32;scalar=64";
    class       volScalarField;
    location    "0.06";
    object      CO2;
}
// * * * * * * * * * * * * * * * * * * * * * * * * * * * * * * * * * * * * * //

dimensions      [0 0 0 0 0 0 0];

internalField   nonuniform List<scalar> 
3224
(
0.0089852535
0.0086229775
0.0082705602
0.00792782
0.0075945637
0.007270589
0.0069556863
0.0066496397
0.0063522281
0.0060632264
0.005782406
0.0055095362
0.0052443848
0.0049867187
0.0047363048
0.0044929107
0.0042563048
0.0040262576
0.0038025412
0.0035849307
0.0033732038
0.0031671414
0.002966528
0.0027711517
0.0025808045
0.0023952826
0.0022143862
0.0020379198
0.0018656925
0.0016975175
0.0015332128
0.0013726007
0.0012155084
0.0010617677
0.00091121549
0.0007636938
0.00061905003
0.00047713721
0.00033781409
0.00020094522
6.6400422e-05
0.0089844456
0.0086222059
0.008269827
0.0079271263
0.0075939093
0.007269973
0.0069551075
0.0066490968
0.0063517197
0.006062751
0.0057819623
0.0055091228
0.0052440002
0.0049863616
0.0047359739
0.0044926046
0.0042560223
0.0040259974
0.0038023022
0.0035847117
0.0033730037
0.0031669592
0.0029663625
0.002771002
0.0025806697
0.0023951617
0.0022142783
0.002037824
0.001865608
0.0016974435
0.0015331485
0.0013725454
0.0012154613
0.0010617282
0.00091118297
0.00076366767
0.00061902977
0.00047712233
0.00033780413
0.00020093972
6.6398813e-05
0.0089828348
0.0086206687
0.0082683656
0.0079257402
0.0075925968
0.0072687321
0.0069539358
0.0066479917
0.0063506788
0.0060617718
0.0057810423
0.0055082596
0.0052431915
0.004985605
0.0047352671
0.0044919454
0.0042554087
0.0040254272
0.0038017736
0.0035842226
0.0033725523
0.0031665436
0.0029659811
0.002770653
0.0025803515
0.0023948727
0.002214017
0.0020375891
0.0018653979
0.0016972569
0.001532984
0.0013724017
0.0012153373
0.0010616227
0.00091109474
0.0007635957
0.00061897304
0.00047707988
0.00033777503
0.00020092307
6.6393602e-05
0.0089804195
0.0086183653
0.0082661757
0.0079236615
0.0075906261
0.0072668659
0.0069521706
0.0066463239
0.0063491048
0.006060288
0.0057796452
0.0055069458
0.0052419576
0.0049844477
0.0047341834
0.0044909322
0.0042544629
0.004024546
0.0038009541
0.0035834622
0.0033718484
0.0031658936
0.0029653826
0.0027701037
0.002579849
0.0023944149
0.0022136017
0.0020372142
0.0018650614
0.0016969569
0.0015327187
0.0013721692
0.0012151359
0.0010614506
0.00091095042
0.00076347755
0.00061887957
0.00047700964
0.00033772664
0.00020089516
6.6384762e-05
0.0093491325
0.0089771925
0.0086152952
0.0082632571
0.0079208897
0.0075879966
0.0072643739
0.0069498113
0.0066440926
0.0063469967
0.0060582986
0.0057777699
0.0055051802
0.0052402974
0.0049828888
0.0047327216
0.0044895636
0.0042531838
0.0040233526
0.0037998428
0.0035824295
0.0033708909
0.0031650081
0.002964566
0.0027693529
0.0025791611
0.0023937871
0.0022130312
0.0020366984
0.0018645977
0.0016965428
0.0015323518
0.0013718472
0.0012148564
0.0010612115
0.00091074955
0.00076331285
0.00061874905
0.00047691139
0.00033765879
0.0002008559
6.6372258e-05
0.0093451229
0.0089733898
0.008611678
0.0082598181
0.0079176229
0.0075848961
0.007261434
0.0069470264
0.0066414571
0.0063445052
0.0060559457
0.0057755505
0.0055030891
0.0052383297
0.0049810396
0.0047309863
0.0044879377
0.0042516628
0.0040219323
0.003798519
0.0035811983
0.0033697484
0.0031639506
0.0029635898
0.0027684545
0.0025783372
0.0023930344
0.0022123466
0.0020360787
0.0018640401
0.0016960444
0.0015319097
0.0013714588
0.001214519
0.0010609226
0.0009105066
0.00076311346
0.00061859089
0.0004767922
0.00033757638
0.00020080814
6.6356998e-05
0.0093406454
0.0089691282
0.0086076237
0.0082559632
0.0079139603
0.007581419
0.007258136
0.0069439012
0.0066384985
0.0063417071
0.0060533022
0.0057730558
0.0055007376
0.005236116
0.0049789584
0.0047290323
0.0044861059
0.0042499484
0.0040203305
0.0037970254
0.0035798084
0.0033684579
0.0031627554
0.0029624859
0.0027674381
0.0025774045
0.0023921818
0.0022115706
0.002035376
0.0018634074
0.0016954785
0.0015314075
0.0013710173
0.0012141353
0.0010605938
0.00091023
0.00076288633
0.00061841062
0.00047665626
0.00033748232
0.00020075356
6.6339532e-05
0.009335339
0.0089640718
0.0086028126
0.0082513883
0.0079096128
0.0075772909
0.0072542196
0.0069401889
0.006634983
0.0063383814
0.0060501592
0.0057700888
0.00549794
0.0052334812
0.0049764803
0.0047267049
0.0044839233
0.0042479048
0.0040184205
0.0037952435
0.0035781496
0.0033669171
0.0031613277
0.0029611667
0.0027662229
0.0025762889
0.0023911616
0.0022106417
0.0020345344
0.0018626493
0.0016948001
0.0015308053
0.0013704876
0.0012136748
0.001060199
0.00090989771
0.00076261336
0.00061819387
0.00047649273
0.0003373691
0.00020068782
6.6318463e-05
0.0097102638
0.0093291291
0.0089581594
0.0085971868
0.008246038
0.0079045277
0.0075724616
0.007249637
0.0069358442
0.0066308678
0.0063344872
0.0060464781
0.0057666128
0.0054946615
0.0052303929
0.0049735748
0.0047239752
0.0044813625
0.0042455065
0.0040161782
0.003793151
0.0035762009
0.0033651064
0.0031596495
0.0029596155
0.0027647934
0.0025749761
0.0023899605
0.0022095477
0.0020335429
0.0018617558
0.0016940003
0.001530095
0.0013698627
0.0012131312
0.001059733
0.00090950531
0.00076229089
0.00061793772
0.00047629939
0.00033723517
0.00020060999
6.629349e-05
0.0097027134
0.0093219505
0.0089513261
0.0085906843
0.0082398532
0.0078986488
0.0075668776
0.0072443373
0.0069308188
0.0066261068
0.0063299812
0.0060422177
0.0057625889
0.0054908654
0.005226816
0.0049702088
0.0047208121
0.0044783946
0.004242726
0.0040135779
0.0037907238
0.0035739399
0.0033630049
0.0031577012
0.0029578141
0.0027631329
0.0025734507
0.0023885647
0.0022082759
0.0020323899
0.0018607165
0.0016930697
0.0015292683
0.0013691352
0.0012124983
0.0010591901
0.00090904811
0.00076191507
0.00061763909
0.00047607391
0.0003370789
0.00020051911
6.6264297e-05
0.010084645
0.0096940778
0.0093137321
0.0089435027
0.0085832388
0.0082327707
0.0078919159
0.0075604815
0.0072382661
0.0069250609
0.0066206511
0.0063248166
0.0060373338
0.0057579754
0.0054865122
0.0052227133
0.0049663474
0.0047171827
0.0044749883
0.0042395342
0.0040105923
0.0037879363
0.0035713426
0.0033605904
0.0031554621
0.0029557433
0.0027612237
0.0025716964
0.0023869589
0.0022068125
0.0020310629
0.00185952
0.0016919982
0.0015283162
0.0013682971
0.001211769
0.0010585645
0.0009085211
0.00076148176
0.0006172947
0.00047581379
0.00033689855
0.00020041418
6.6230552e-05
0.010074362
0.0096842754
0.0093043977
0.0089346151
0.0085747795
0.008224723
0.0078842645
0.0075532122
0.0072313652
0.0069185153
0.006614448
0.0063189438
0.0060317792
0.0057527275
0.0054815596
0.0052180451
0.0049619528
0.0047130515
0.0044711103
0.0042358998
0.004007192
0.003784761
0.0035683835
0.003357839
0.00315291
0.0029533826
0.0027590467
0.0025696956
0.0023851271
0.0022051427
0.0020295484
0.0018581543
0.0016907749
0.001527229
0.0013673401
0.0012109361
0.0010578498
0.00090791897
0.0007609866
0.00061690108
0.0004755164
0.00033669229
0.00020029411
6.6191909e-05
0.010462598
0.010062766
0.009673219
0.0092938647
0.0089245843
0.0085652306
0.0082156378
0.0078756259
0.007545004
0.0072235721
0.0069111226
0.0066074414
0.0063123095
0.0060255037
0.0057467976
0.0054759626
0.0052127687
0.004956985
0.0047083806
0.0044667251
0.0042317894
0.0040033458
0.0037811687
0.0035650352
0.003354725
0.0031500212
0.00295071
0.0027565815
0.0025674296
0.0023830522
0.0022032511
0.0020278324
0.0018566066
0.0016893883
0.0015259966
0.001366255
0.0012099916
0.0010570393
0.00090723608
0.00076042497
0.00061645454
0.00047517898
0.00033645821
0.00020015779
6.6148005e-05
0.010448974
0.01004976
0.0096608157
0.0092820449
0.0089133255
0.0085545114
0.0082054379
0.0078659263
0.0075357869
0.0072148205
0.0069028197
0.0065995714
0.0063048567
0.0060184531
0.0057401346
0.0054696729
0.0052068385
0.0049514009
0.0047031296
0.0044617947
0.0042271672
0.00399902
0.0037771279
0.0035612683
0.0033512213
0.0031467702
0.0029477019
0.0027538065
0.0025648784
0.0023807157
0.0022011207
0.0020258996
0.0018548631
0.0016878262
0.001524608
0.0013650323
0.0012089272
0.0010561259
0.00090646644
0.00075979195
0.00061595119
0.00047479857
0.00033619424
0.00020000402
6.6098458e-05
0.010842615
0.010433766
0.010035241
0.0096469662
0.0092688433
0.0089007482
0.0085425351
0.0081940406
0.0078550873
0.0075254862
0.0072050389
0.006893539
0.0065907736
0.0062965246
0.0060105698
0.0057326839
0.0054626389
0.0052002059
0.0049451546
0.0046972552
0.0044562781
0.0042219949
0.0039941788
0.0037726051
0.0035570514
0.0033472985
0.00314313
0.002944333
0.0027506984
0.0025620206
0.0023780981
0.0021987336
0.0020237336
0.0018529092
0.0016860754
0.0015230516
0.0013636617
0.0012077342
0.0010551021
0.0009056037
0.00075908233
0.00061538691
0.00047437208
0.00033589826
0.00019983155
6.6042865e-05
0.010824924
0.010416859
0.010019097
0.0096315642
0.0092541586
0.0088867555
0.0085292094
0.0081813579
0.0078430246
0.0075140217
0.0071941514
0.006883208
0.0065809794
0.006287248
0.0060017922
0.0057243871
0.0054548054
0.0051928185
0.0049381969
0.0046907111
0.004450132
0.0042162317
0.0039887838
0.0037675642
0.0035523511
0.0033429254
0.0031390714
0.0029405766
0.0027472321
0.0025588331
0.0023751782
0.0021960706
0.0020213172
0.0018507291
0.0016841218
0.0015213149
0.0013621324
0.0012064029
0.0010539597
0.00090464111
0.00075829061
0.00061475735
0.00047389623
0.00033556798
0.00019963907
6.59808e-05
0.011222841
0.010805326
0.010398128
0.01000121
0.0096144959
0.0092378823
0.0088712437
0.0085144352
0.0081672953
0.0078296485
0.0075013078
0.0071820764
0.0068717495
0.0065701154
0.0062769573
0.0059920542
0.0057151817
0.0054461133
0.0051846207
0.0049304752
0.0046834476
0.0044433095
0.0042098336
0.003982794
0.003761967
0.0035471313
0.0033380685
0.0031345632
0.0029364036
0.0027433811
0.0025552914
0.0023719337
0.0021931113
0.0020186316
0.0018483062
0.0016819506
0.0015193847
0.0013604328
0.0012049235
0.0010526903
0.00090357155
0.00075741098
0.00061405793
0.00047336758
0.00033520104
0.0001994252
6.5911814e-05
0.011200219
0.010783686
0.010377443
0.0099814531
0.0095956398
0.0092198981
0.008854102
0.0084981069
0.008151752
0.0078148628
0.0074872532
0.0071687272
0.0068590808
0.0065581032
0.0062655781
0.0059812853
0.0057050011
0.0054364994
0.0051755529
0.0049219331
0.0046754117
0.0044357609
0.0042027538
0.0039761653
0.0037557721
0.0035413536
0.0033326919
0.0031295722
0.0029317832
0.0027391168
0.0025513693
0.0023683403
0.0021898336
0.002015657
0.0018456224
0.0016795457
0.0015172469
0.0013585505
0.0012032853
0.0010512848
0.00090238751
0.00075643733
0.00061328383
0.00047278253
0.00033479494
0.00019918847
6.5835438e-05
0.011175333
0.010759858
0.01035466
0.0099596897
0.0095748658
0.009200082
0.008835212
0.0084801114
0.0081346203
0.0077985648
0.0074717599
0.0071540106
0.0068451135
0.0065448587
0.0062530308
0.0059694101
0.0056937737
0.0054258963
0.0051655511
0.0049125105
0.0046665468
0.0044274327
0.0041949422
0.0039688507
0.0037489356
0.0035349769
0.0033267573
0.0031240627
0.0029266822
0.0027344087
0.0025470386
0.0023643723
0.0021862141
0.0020123722
0.0018426588
0.0016768901
0.0015148865
0.0013564725
0.0012014771
0.0010497337
0.00090108109
0.00075536326
0.00061243005
0.00047213733
0.00033434711
0.00019892739
6.5751183e-05
0.011147998
0.010733679
0.010329627
0.0099357742
0.0095520349
0.0091783012
0.0088144469
0.0084603279
0.0081157848
0.0077806448
0.0074547236
0.0071378272
0.0068297532
0.0065302924
0.0062392303
0.0059563479
0.0056814232
0.0054142317
0.0051545472
0.004902143
0.0046567921
0.0044182679
0.0041863451
0.0039607999
0.0037414103
0.0035279571
0.0033202236
0.0031179965
0.0029210654
0.002729224
0.0025422693
0.0023600023
0.0021822277
0.0020087544
0.0018393949
0.0016739658
0.0015122876
0.001354185
0.0011994869
0.001048027
0.000899644
0.00075418211
0.00061149138
0.0004714281
0.00033385488
0.00019864042
6.5658545e-05
0.011541329
0.011118005
0.010704974
0.01030218
0.0099095509
0.0095269982
0.0091544139
0.0087916713
0.0084386271
0.0080951224
0.0077609854
0.0074360326
0.0071200708
0.0068128988
0.0065143083
0.0062240855
0.0059420125
0.005667868
0.0054014283
0.0051424682
0.0048907618
0.0046460827
0.0044082054
0.0041769051
0.003951959
0.0037331458
0.0035202471
0.0033130469
0.0031113326
0.0029148949
0.0027235278
0.0025370292
0.0023552007
0.0021778477
0.0020047796
0.0018358092
0.0016707535
0.0015094333
0.0013516732
0.0011973023
0.0010461542
0.00089806764
0.00075288695
0.00061046244
0.00047065088
0.00033331554
0.00019832597
6.5557011e-05
0.01150703
0.011085174
0.010673562
0.010272145
0.0098808534
0.0094995971
0.0091282683
0.0087667407
0.0084148711
0.0080725017
0.0077394612
0.0074155674
0.0071006279
0.0067944425
0.0064968039
0.0062074993
0.0059263117
0.0056530207
0.0053874036
0.0051292361
0.0048782931
0.0046343492
0.0043971797
0.0041665608
0.0039422704
0.0037240881
0.0035117964
0.0033051802
0.0031040276
0.0029081301
0.0027172826
0.0025312839
0.0023499361
0.0021730455
0.0020004219
0.0018318786
0.0016672329
0.0015063057
0.0013489218
0.0011949102
0.0010441044
0.00089634309
0.00075147069
0.00060933779
0.00046980165
0.00033272635
0.00019798247
6.5446066e-05
0.012340477
0.011899999
0.011469558
0.01104931
0.01063925
0.010239337
0.0098495043
0.009469662
0.0090997026
0.0087395003
0.0083889124
0.0080477819
0.0077159384
0.0073932005
0.0070793771
0.0067742689
0.0064776697
0.0061893677
0.0059091469
0.0056367881
0.0053720694
0.0051147675
0.0048646583
0.0046215175
0.0043851212
0.0041552466
0.0039316725
0.0037141796
0.0035025512
0.0032965731
0.0030960345
0.0029007277
0.0027104486
0.0025249967
0.0023441751
0.0021677907
0.0019956538
0.0018275785
0.0016633822
0.001502886
0.0013459146
0.0011922969
0.0010418663
0.0008944612
0.00074992613
0.0006081119
0.00046887639
0.00033208461
0.00019760837
6.5325205e-05
0.01274469
0.012296
0.011857327
0.0114287
0.0110102
0.010601832
0.010203558
0.0098153142
0.0094370118
0.0090685439
0.0087097851
0.0083605936
0.0080208129
0.0076902738
0.0073687958
0.0070561888
0.0067522548
0.0064567886
0.0061695797
0.005890413
0.0056190704
0.0053553312
0.0050989732
0.0048497732
0.0046075081
0.004371955
0.0041428922
0.0039200994
0.0037033585
0.0034924537
0.003287172
0.0030873035
0.0028926415
0.002702983
0.0025181284
0.0023378817
0.0021620507
0.0019904463
0.0018228831
0.0016591787
0.0014991544
0.0013426347
0.0011894483
0.0010394282
0.00089241265
0.00074824599
0.00060677933
0.00046787119
0.0003313877
0.00019720216
6.5193946e-05
0.012694244
0.012247589
0.011810896
0.011384221
0.010967618
0.010561088
0.010164597
0.0097780811
0.0094014534
0.0090346076
0.008677419
0.0083297464
0.0079914344
0.0076623146
0.0073422077
0.0070309247
0.0067282687
0.0064340358
0.0061480167
0.0058699975
0.0055997612
0.0053370884
0.005081758
0.004833548
0.0045922363
0.0043576014
0.0041294226
0.0039074808
0.0036915589
0.0034814424
0.0032769194
0.003077781
0.002883822
0.0026948401
0.0025106371
0.0023310179
0.0021557911
0.0019847684
0.0018177648
0.0016545984
0.0014950901
0.0013390646
0.0011863498
0.0010367783
0.00089018806
0.00074642308
0.00060533474
0.00046678229
0.00033063315
0.00019676248
6.5051841e-05
0.012639436
0.012194975
0.011760434
0.011335869
0.01092132
0.010516785
0.010122229
0.0097375895
0.0093627807
0.0089976967
0.0086422137
0.0082961914
0.0079594752
0.0076318978
0.0073132809
0.0070034369
0.0067021701
0.0064092778
0.006124552
0.0058477803
0.0055787467
0.0053172333
0.00506302
0.0048158864
0.0045756115
0.004341975
0.0041147576
0.0038937412
0.0036787103
0.0034694513
0.0032657538
0.0030674102
0.0028742162
0.0026859713
0.0025024781
0.0023235429
0.002148975
0.0019785871
0.0018121946
0.0016496157
0.0014906715
0.0013351859
0.0011829863
0.0010339047
0.0008877781
0.0007444504
0.00060377308
0.00046560621
0.00032981876
0.00019628809
6.4898499e-05
0.012579944
0.012137863
0.011705654
0.011283372
0.010871046
0.010468672
0.010076214
0.0096936097
0.0093207738
0.0089576013
0.0086039689
0.0082597373
0.0079247528
0.0075988493
0.0072818498
0.0069735678
0.006673809
0.0063823721
0.0060990505
0.0058236331
0.0055559055
0.0052956508
0.0050426507
0.004796686
0.004557537
0.0043249848
0.0040988114
0.0038788004
0.0036647373
0.0034564101
0.0032536096
0.0030561298
0.0028637679
0.0026763246
0.0024936039
0.0023154134
0.0021415635
0.0019718676
0.0018061417
0.0016442042
0.0014858758
0.0013309797
0.0011793426
0.0010307951
0.00088517361
0.00074232127
0.0006020897
0.00046433988
0.00032894262
0.00019577798
6.4733604e-05
0.012515434
0.012075933
0.01164625
0.011226437
0.010816517
0.010416483
0.010026297
0.0096458968
0.0092751985
0.0089140973
0.0085624705
0.0082201798
0.0078870725
0.0075629838
0.0072477377
0.0069411493
0.0066430256
0.0063531668
0.0060713679
0.0057974192
0.0055311078
0.0052722184
0.005020534
0.004775837
0.0045379093
0.0043065334
0.0040814927
0.0038625724
0.0036495594
0.0034422434
0.0032404167
0.0030438749
0.0028524167
0.0026658444
0.0024839637
0.0023065833
0.002133515
0.001964573
0.0017995739
0.001638336
0.0014806795
0.0013264268
0.0011754031
0.0010274378
0.00088236582
0.00074002952
0.0006002805
0.00046298077
0.00032800331
0.00019523145
6.4556943e-05
0.012445552
0.012008845
0.011581897
0.011164754
0.010757436
0.010359932
0.0099722038
0.0095941899
0.0092258054
0.0088669463
0.0085174908
0.0081773016
0.007846227
0.0075241033
0.0072107562
0.0069060021
0.0066096493
0.0063215
0.0060413504
0.0057689926
0.0055042154
0.005246805
0.0049965462
0.0047532227
0.0045166182
0.0042865169
0.0040627037
0.0038449654
0.0036330908
0.0034268711
0.0032261003
0.0030305759
0.0028400984
0.0026544717
0.0024735034
0.0022970036
0.0021247855
0.0019566643
0.001792457
0.0016319818
0.0014750582
0.0013215072
0.0011711524
0.0010238211
0.00087934641
0.00073756963
0.00059834212
0.00046152704
0.00032699995
0.00019464814
6.4368423e-05
0.012369922
0.01193624
0.011512249
0.011097992
0.010693485
0.010298716
0.0099136457
0.0095382114
0.0091723288
0.0088158945
0.0084687874
0.0081308711
0.0078019952
0.0074819975
0.0071707048
0.0068679351
0.0065734986
0.0062871989
0.006008834
0.0057381979
0.005475081
0.0052192712
0.0049705551
0.0047287183
0.0044935461
0.0042648244
0.0040423401
0.0038258817
0.0036152397
0.0034102073
0.0032105805
0.0030161587
0.0028267443
0.0026421434
0.0024621654
0.0022866222
0.0021153284
0.0019481003
0.0017847553
0.0016251112
0.0014689867
0.0013162009
0.0011665749
0.0010199336
0.00087610775
0.00073493692
0.00059627209
0.00045997768
0.00032593233
0.00019402815
6.4168105e-05
0.012288146
0.011857736
0.01143694
0.0110258
0.010624329
0.010232514
0.009850314
0.0094776662
0.0091144865
0.0087606719
0.0084161023
0.0080806421
0.0077541424
0.0074364421
0.0071273699
0.0068267452
0.00653438
0.0062500797
0.0059736443
0.0057048694
0.0054435474
0.0051894682
0.0049424202
0.0047021908
0.0044685674
0.0042413378
0.0040202907
0.0038052167
0.0035959082
0.0033921607
0.0031937721
0.0030005441
0.0028122814
0.0026287924
0.0024498884
0.0022753836
0.0021050942
0.0019388374
0.001776431
0.0016176925
0.001462439
0.0013104872
0.0011616553
0.0010157647
0.00087264302
0.00073212768
0.00059406897
0.00045833265
0.00032480104
0.00019337207
6.3956222e-05
0.012199803
0.011772926
0.011355581
0.010947805
0.010549611
0.010160983
0.0097818812
0.0094122409
0.0090519786
0.0087009918
0.0083591614
0.0080263529
0.0077024186
0.0073871991
0.0070805245
0.0067822162
0.0064920879
0.0062099469
0.0059355952
0.0056688306
0.0054094474
0.0051572375
0.0049119914
0.0046734987
0.0044415486
0.004215931
0.003996437
0.0037828591
0.0035749921
0.0033726336
0.0031755842
0.0029836477
0.0027966317
0.0026143469
0.0024366073
0.0022632291
0.0020940303
0.0019288294
0.0017674446
0.0016096925
0.0014553881
0.0013043453
0.0011563783
0.001011304
0.00086894626
0.00072913932
0.00059173248
0.000456593
0.00032360754
0.00019268106
6.3733198e-05
0.012104447
0.011681384
0.01126776
0.010863612
0.010468952
0.010083762
0.0097080002
0.009341603
0.0089844869
0.00863655
0.008297674
0.0079677257
0.0076465588
0.0073340154
0.0070299275
0.0067341183
0.0064464035
0.0061665924
0.0058944893
0.005629894
0.005372603
0.0051224106
0.0048791094
0.004642491
0.0044123471
0.00418847
0.0039706527
0.0037586903
0.0035523802
0.0033515223
0.0031559199
0.0029653798
0.0027797122
0.0025987309
0.0024222525
0.0022500959
0.0020820811
0.0019180278
0.0017577543
0.0016010762
0.0014478061
0.0012977539
0.0011507287
0.001006542
0.0008650124
0.00072597031
0.00058926352
0.00045476088
0.00032235418
0.00019195685
6.3499661e-05
0.012001608
0.011582655
0.011173043
0.010772806
0.010381953
0.010000466
0.0096283033
0.0092654005
0.0089116744
0.008567024
0.0082313318
0.0079044659
0.0075862816
0.0072766226
0.0069753229
0.0066822076
0.0063970946
0.0061197954
0.0058501165
0.0055878601
0.0053328252
0.0050848082
0.0048436042
0.0046090073
0.0043808116
0.0041588116
0.0039428032
0.003732584
0.0035279539
0.0033287159
0.0031346761
0.0029456445
0.0027614345
0.0025818632
0.0024067503
0.0022359176
0.0020691873
0.0019063807
0.001747316
0.0015918073
0.001439664
0.0012906911
0.0011446913
0.0010014694
0.00086083715
0.00072262018
0.0005866641
0.0004528395
0.00032104419
0.00019120177
6.3256433e-05
0.011890789
0.011476264
0.011070972
0.010674944
0.01028819
0.0099106904
0.0095424019
0.009183261
0.0088331847
0.0084920726
0.0081598084
0.0078362616
0.007521289
0.0072147364
0.0069164394
0.0066262256
0.006343915
0.0060693215
0.005802254
0.0055425174
0.005289913
0.0050442399
0.0048052957
0.0045728771
0.0043467808
0.0041268042
0.0039127457
0.0037044057
0.0035015874
0.0033040966
0.003111743
0.0029243399
0.0027417044
0.0025636573
0.0023900219
0.0022206233
0.0020552862
0.0018938333
0.0017360829
0.0015818471
0.0014309311
0.001283134
0.0011382505
0.00099607689
0.00085641666
0.00071908916
0.00058393713
0.00045083296
0.00031968153
0.0001904186
6.3004502e-05
0.011771469
0.011361708
0.010961062
0.010569563
0.010187218
0.009814007
0.0094498859
0.0090947914
0.008748641
0.0084113352
0.0080827588
0.0077627829
0.0074512659
0.0071480555
0.0068529897
0.0065658982
0.0062866035
0.0060149222
0.0057506655
0.0054936411
0.0052436531
0.0050005034
0.0047639922
0.0045339191
0.0043100836
0.004092286
0.0038803278
0.0036740125
0.0034731464
0.003277539
0.0030870036
0.0029013573
0.0027204216
0.0025440212
0.0023719836
0.0022041376
0.0020403107
0.0018803272
0.0017240051
0.0015711543
0.0014215749
0.0012750582
0.0011313897
0.00099035482
0.00085174704
0.00071537775
0.00058108595
0.00044874587
0.00031827065
0.00018961048
6.2744975e-05
0.0116431
0.011238458
0.010842807
0.010456175
0.010078569
0.0097099657
0.0093503231
0.0089995772
0.0086576462
0.0083244313
0.0079998188
0.0076836812
0.0073758789
0.0070762618
0.00678467
0.0065009357
0.0062248841
0.0059563343
0.0056951007
0.0054409934
0.0051938197
0.0049533843
0.0047194906
0.004491941
0.0042705383
0.0040550858
0.0038453882
0.0036412525
0.0034424886
0.0032489099
0.0030603336
0.0028765815
0.0026974794
0.0025228569
0.0023525461
0.0021863799
0.002024189
0.0018657996
0.0017110292
0.0015596846
0.0014115598
0.0012664372
0.0011240905
0.00098429223
0.0008468235
0.00071148594
0.00057811366
0.00044658279
0.00031681602
0.00018878057
6.2478978e-05
0.011505106
0.011105962
0.010715674
0.010334268
0.0099617482
0.0095980932
0.009243259
0.0088971824
0.008559782
0.0082309601
0.0079106044
0.0075985891
0.0072947767
0.0069990192
0.0067111593
0.0064310318
0.0061584646
0.0058932798
0.0056352946
0.0053843224
0.0051401734
0.0049026557
0.0046715757
0.0044467393
0.0042279523
0.0040150216
0.0038077554
0.0036059646
0.0034094628
0.0032180676
0.0030316011
0.0028498897
0.0026727644
0.0025000601
0.0023316142
0.0021672642
0.0020068445
0.0018501831
0.0016970971
0.0015473895
0.0014008471
0.0012572411
0.0011163317
0.00097787572
0.0008416393
0.00070741213
0.00057502219
0.00044434742
0.00031532157
0.00018793175
6.2207539e-05
0.011356887
0.01096364
0.010579104
0.010203303
0.0098362403
0.0094778926
0.0091282164
0.0087871486
0.0084546086
0.0081304998
0.0078147114
0.0075071196
0.0072075888
0.0069159736
0.0066321192
0.0063558633
0.0060870367
0.0058254646
0.0055709674
0.0053233618
0.0050824613
0.0048480773
0.0046200198
0.0043980981
0.0041821216
0.0039719009
0.0037672481
0.003567978
0.0033739086
0.0031848623
0.0030006659
0.0028211515
0.0026461559
0.0024755198
0.0023090864
0.0021466985
0.0019881948
0.0018334051
0.0016821459
0.0015342158
0.001389393
0.0012474358
0.001108088
0.00097108813
0.00083618429
0.00070315181
0.00057181101
0.00044204157
0.00031378983
0.00018706606
6.1931414e-05
0.011197816
0.010810888
0.010432515
0.01006272
0.0097015043
0.0093488438
0.009004695
0.0086689951
0.0083416644
0.0080226075
0.0077117152
0.0074088656
0.0071139256
0.0068267521
0.0065471933
0.0062750897
0.0060102755
0.005752579
0.005501824
0.0052578307
0.0050204162
0.0047893955
0.0045645823
0.0043457896
0.0041328308
0.0039255202
0.0037236743
0.0035271121
0.0033356565
0.0031491349
0.0029673798
0.0027902291
0.0026175259
0.0024491178
0.0022848545
0.0021245845
0.0019681511
0.0018153866
0.0016661065
0.0015201041
0.0013771479
0.0012369812
0.0010993285
0.00096390684
0.00083044324
0.00069869587
0.00056847566
0.00043966387
0.00031222105
0.00018618414
6.1650887e-05
0.01102724
0.010647076
0.0102753
0.0099119327
0.009556975
0.0092104026
0.0088721713
0.0085422186
0.0082204657
0.0079068187
0.00760117
0.0073033998
0.0070133775
0.0067309628
0.0064560066
0.0061883529
0.0059278389
0.0056742966
0.0054275535
0.0051874332
0.0049537568
0.0047263431
0.0045050097
0.0042895736
0.0040798524
0.0038756648
0.0036768314
0.0034831764
0.0032945276
0.0031107179
0.002931586
0.0027569762
0.002586739
0.002420729
0.0022588032
0.0021008167
0.001946618
0.0017960419
0.0016489027
0.0015049882
0.0013640551
0.0012258298
0.0010900147
0.00095630198
0.00082439402
0.00069402886
0.00056500613
0.00043720835
0.00031061205
0.00018528454
6.1365544e-05
0.010844481
0.010471547
0.010106823
0.0097503289
0.009402063
0.0090620008
0.008730098
0.0084062925
0.0080905063
0.0077826471
0.007482609
0.0071902745
0.0069055156
0.0066281947
0.0063581661
0.0060952769
0.005839368
0.0055902751
0.0053478293
0.0051118584
0.0048821873
0.0046586391
0.0044410354
0.0042291977
0.0040229477
0.0038221089
0.0036265068
0.0034359705
0.0032503335
0.0030694347
0.0028931194
0.0027212392
0.002553652
0.0023902207
0.0022308102
0.002075283
0.0019234929
0.0017752779
0.001630451
0.0014887935
0.0013500493
0.0012139254
0.0010800993
0.0009482347
0.00081800576
0.00068912715
0.00056138512
0.00043466306
0.00030895518
0.00018436305
6.107404e-05
0.010648836
0.010283621
0.009926427
0.0095772724
0.009236154
0.0089030462
0.0085779045
0.0082606674
0.0079512578
0.0076495847
0.0073555444
0.0070690215
0.0067898908
0.0065180178
0.0062532601
0.0059954683
0.0057444869
0.0055001556
0.0052623097
0.0050307808
0.0048053983
0.0045859895
0.0043723805
0.0041643974
0.0039618666
0.0037646164
0.0035724776
0.0033852847
0.0032028773
0.0030251006
0.0028518072
0.0026828564
0.0025181147
0.0023574534
0.0022007463
0.0020478637
0.0018986659
0.0017529939
0.0016106595
0.0014714369
0.0013350558
0.0012012019
0.0010695246
0.00093965563
0.00081123723
0.00068395738
0.00055758662
0.00043200875
0.00030723731
0.00018341207
6.0773892e-05
0.010439574
0.01008259
0.0097334272
0.0093921019
0.0090586091
0.0087329224
0.0084149969
0.0081047713
0.0078021696
0.0075071023
0.0072194676
0.0069391529
0.0066660355
0.0063999841
0.0061408599
0.005888517
0.0056428041
0.0054035647
0.0051706385
0.0049438615
0.0047230674
0.0045080882
0.0042987547
0.0040948978
0.003896349
0.0037029417
0.0035145123
0.0033309011
0.0031519541
0.0029775236
0.0028074697
0.0026416601
0.0024799703
0.0023222812
0.0021684757
0.002018433
0.0018720201
0.0017290816
0.0015894282
0.0014528263
0.0013189904
0.0011875826
0.0010582216
0.0009305039
0.00080403583
0.00067847531
0.00055357486
0.00042921798
0.00030543913
0.00018242017
6.0461324e-05
0.010215941
0.0098677225
0.009527114
0.009194131
0.0088687658
0.0085509902
0.0082407589
0.0079380107
0.0076426707
0.0073546509
0.0070738517
0.0068001628
0.0065334646
0.0062736291
0.006020521
0.0057739985
0.0055339141
0.0053001158
0.0050724475
0.00485075
0.0046348617
0.0044246192
0.0042198585
0.0040204154
0.0038261269
0.0036368319
0.0034523725
0.0032725954
0.0030973533
0.0029265061
0.0027599219
0.0025974774
0.0024390575
0.0022845533
0.0021338579
0.0019868596
0.0018434328
0.0017034263
0.0015666496
0.0014328611
0.0013017591
0.0011729804
0.0010461105
0.00092070703
0.00079633726
0.00067262554
0.0005493039
0.00042625476
0.00030353486
0.00018137189
6.0131204e-05
0.0099771564
0.0096382591
0.0093067529
0.0089826505
0.0086659396
0.0083565898
0.0080545547
0.0077597736
0.0074721725
0.007191665
0.0069181536
0.0066515306
0.0063916795
0.0061384758
0.0058917876
0.0056514774
0.0054174018
0.0051894133
0.0049673604
0.0047510886
0.0045404414
0.0043352604
0.0041353868
0.0039406618
0.0037509279
0.00356603
0.0033858163
0.0032101403
0.0030388617
0.0028718482
0.0027089766
0.0025501329
0.0023952124
0.0022441166
0.0020967493
0.0019530088
0.0018127774
0.0016759084
0.0015422105
0.0014114339
0.00128326
0.001157299
0.001033101
0.00091018189
0.00078806641
0.00066634216
0.00054471821
0.00042307494
0.00030149253
0.00018024794
5.9777094e-05
0.0097224102
0.0093934114
0.0090715869
0.0087569322
0.0084494293
0.0081490456
0.0078557344
0.0075694351
0.0072900748
0.0070175686
0.0067518212
0.0064927278
0.0062401747
0.0059940409
0.0057541986
0.005520514
0.0052928484
0.0050710588
0.0048549985
0.0046445182
0.0044394661
0.0042396895
0.004045035
0.0038553493
0.003670481
0.0034902809
0.0033146039
0.0031433104
0.0029762678
0.002813352
0.0026544486
0.0024994537
0.002348273
0.0022008192
0.0020570074
0.0019167461
0.0017799265
0.0016464066
0.0015159948
0.0013884333
0.0012633861
0.0011404359
0.0010190955
0.00089883699
0.00077913942
0.00065955063
0.00053975427
0.00041962757
0.00029927496