/*--------------------------------*- C++ -*----------------------------------*\
| =========                 |                                                 |
| \\      /  F ield         | OpenFOAM: The Open Source CFD Toolbox           |
|  \\    /   O peration     | Version:  2312                                  |
|   \\  /    A nd           | Website:  www.openfoam.com                      |
|    \\/     M anipulation  |                                                 |
\*---------------------------------------------------------------------------*/
FoamFile
{
    version     2.0;
    format      ascii;
    arch        "LSB;label=32;scalar=64";
    class       volScalarField;
    location    "0.06";
    object      H2O;
}
// * * * * * * * * * * * * * * * * * * * * * * * * * * * * * * * * * * * * * //

dimensions      [0 0 0 0 0 0 0];

internalField   nonuniform List<scalar> 
3224
(
0.007356148
0.0070595558
0.0067710349
0.0064904366
0.0062176025
0.0059523673
0.0056945592
0.0054440016
0.0052005133
0.0049639101
0.0047340049
0.0045106089
0.0042935317
0.0040825828
0.0038775711
0.0036783065
0.0034845993
0.0032962617
0.0031131071
0.0029349513
0.0027616123
0.0025929108
0.0024286704
0.0022687175
0.002112882
0.0019609968
0.0018128985
0.001668427
0.001527426
0.0013897427
0.0012552278
0.0011237361
0.00099512601
0.00086925986
0.00074600411
0.0006252294
0.00050681082
0.00039062804
0.00027656542
0.00016451208
5.4361441e-05
0.0073554866
0.0070589242
0.0067704347
0.0064898686
0.0062170667
0.005951863
0.0056940854
0.0054435571
0.0052000971
0.004963521
0.0047336417
0.0045102704
0.0042932169
0.0040822904
0.0038773002
0.0036780559
0.003484368
0.0032960487
0.0031129114
0.002934772
0.0027614485
0.0025927616
0.0024285349
0.002268595
0.0021127716
0.0019608978
0.0018128101
0.0016683486
0.0015273569
0.0013896821
0.0012551752
0.0011236908
0.00099508747
0.00086922753
0.00074597748
0.00062520801
0.00050679423
0.00039061586
0.00027655727
0.00016450759
5.4360124e-05
0.0073541679
0.0070576657
0.0067692382
0.0064887338
0.0062159923
0.005950847
0.0056931261
0.0054426524
0.0051992449
0.0049627193
0.0047328885
0.0045095637
0.0042925548
0.0040816709
0.0038767215
0.0036775162
0.0034838657
0.0032955819
0.0031124786
0.0029343715
0.0027610789
0.0025924214
0.0024282226
0.0022683093
0.0021125111
0.0019606612
0.0018125963
0.0016681563
0.0015271849
0.0013895293
0.0012550405
0.0011235732
0.00099498596
0.00086914113
0.00074590526
0.00062514909
0.00050674779
0.0003905811
0.00027653345
0.00016449395
5.4355859e-05
0.0073521904
0.0070557799
0.0067674454
0.006487032
0.0062143789
0.0059493192
0.0056916809
0.005441287
0.0051979563
0.0049615045
0.0047317447
0.0045084881
0.0042915446
0.0040807235
0.0038758343
0.0036766867
0.0034830914
0.0032948604
0.0031118077
0.002933749
0.0027605026
0.0025918893
0.0024277327
0.0022678595
0.0021120997
0.0019602864
0.0018122562
0.0016678493
0.0015269094
0.0013892837
0.0012548233
0.0011233829
0.00099482104
0.00086900026
0.0007457871
0.00062505236
0.00050667126
0.0003905236
0.00027649383
0.0001644711
5.4348621e-05
0.0076540526
0.0073495486
0.0070532664
0.0067650559
0.0064847628
0.0062122261
0.005947279
0.0056897494
0.0054394602
0.0051962304
0.0049598758
0.0047302094
0.0045070426
0.0042901854
0.0040794472
0.0038746376
0.0036755663
0.0034820441
0.0032938834
0.0031108979
0.0029329035
0.0027597187
0.0025911643
0.0024270641
0.0022672449
0.0021115365
0.0019597724
0.0018117892
0.0016674271
0.0015265298
0.0013889447
0.0012545229
0.0011231192
0.00099459225
0.00086880451
0.00074562265
0.00062491752
0.00050656441
0.00039044316
0.00027643828
0.00016443896
5.4338384e-05
0.00765077
0.0073464353
0.007050305
0.0067622405
0.0064820883
0.0062096877
0.0059448722
0.0056874694
0.0054373025
0.0051941906
0.0049579495
0.0047283924
0.0045053306
0.0042885744
0.0040779334
0.0038732169
0.0036742351
0.0034807989
0.0032927206
0.0031098141
0.0029318956
0.0027587834
0.0025902985
0.0024262649
0.0022665094
0.002110862
0.0019591562
0.0018112287
0.0016669198
0.0015260733
0.0013885366
0.001254161
0.0011228013
0.00099431604
0.00086856797
0.00074542375
0.00062475428
0.00050643492
0.00039034558
0.00027637082
0.00016439986
5.4325891e-05
0.0076471042
0.0073429464
0.0070469858
0.0067590845
0.0064790897
0.0062068411
0.0059421722
0.0056849108
0.0054348803
0.0051918999
0.0049557853
0.00472635
0.0045034055
0.0042867621
0.0040762294
0.0038716172
0.0036727355
0.0034793954
0.0032914093
0.0031085913
0.0029307576
0.0027577268
0.00258932
0.0024253611
0.0022656772
0.0021100984
0.0019584582
0.0018105934
0.0016663445
0.0015255553
0.0013880733
0.0012537499
0.0011224398
0.00099400191
0.00086829882
0.00074519729
0.00062456833
0.00050628734
0.00039023429
0.00027629381
0.00016435518
5.4311592e-05
0.00764276
0.0073388068
0.0070430471
0.006755339
0.0064755304
0.0062034614
0.0059389658
0.0056818716
0.0054320023
0.0051891771
0.0049532122
0.004723921
0.0045011151
0.0042846051
0.0040742007
0.0038697118
0.0036709486
0.0034777223
0.0032898455
0.0031071325
0.0029293996
0.0027564654
0.0025881512
0.0024242812
0.0022646824
0.0021091851
0.0019576229
0.0018098329
0.0016656554
0.0015249346
0.0013875179
0.0012532568
0.0011220062
0.00099362485
0.00086797561
0.00074492525
0.00062434485
0.00050610988
0.00039010041
0.00027620111
0.00016430135
5.4294343e-05
0.0079497076
0.007637676
0.0073339664
0.0070384413
0.0067509588
0.0064713673
0.0061995077
0.005935214
0.0056783147
0.0054286331
0.005185989
0.0049501985
0.0047210752
0.0044984311
0.0042820766
0.0040718219
0.0038674769
0.0036688521
0.0034757588
0.0032880098
0.0031054194
0.0029278042
0.002754983
0.0025867772
0.0024230112
0.002263512
0.0021081103
0.0019566397
0.0018089373
0.0016648437
0.0015242031
0.0013868632
0.0012526753
0.0011214946
0.00099317989
0.00086759406
0.000744604
0.00062408085
0.00050590018
0.00038994212
0.00027609147
0.00016423763
5.4273898e-05
0.0079435261
0.0076317989
0.007328372
0.0070331177
0.0067458954
0.0064665544
0.0061949361
0.0059308753
0.0056742004
0.0054247354
0.0051822999
0.0049467105
0.0047177809
0.0044953232
0.0042791483
0.0040690663
0.0038648874
0.0036664223
0.0034734825
0.0032858809
0.0031034323
0.0029259531
0.0027532626
0.0025851822
0.0024215364
0.0022621526
0.0021068615
0.0019554969
0.0018078961
0.0016638997
0.0015233522
0.0013861013
0.0012519985
0.001120899
0.0009926617
0.00086714962
0.00074422969
0.00062377316
0.00050565569
0.00038975752
0.00027596353
0.00016416323
5.4249997e-05
0.0082562102
0.0079364562
0.0076250706
0.007321967
0.0070270221
0.006740097
0.0064610422
0.0061896997
0.0059259048
0.0056694865
0.0054202688
0.0051780718
0.0049427121
0.0047140038
0.0044917593
0.0042757895
0.0040659049
0.003861916
0.0036636335
0.0034708694
0.0032834366
0.0031011501
0.0029238268
0.0027512858
0.002583349
0.0024198411
0.0022605895
0.0021054252
0.0019541822
0.001806698
0.0016628133
0.0015223727
0.001385224
0.001251219
0.0011202128
0.00099206464
0.00086663742
0.00074379823
0.00062341842
0.00050537374
0.00038954456
0.00027581588
0.00016407732
5.4222371e-05
0.0082477913
0.0079284311
0.0076174286
0.0073146908
0.0070200966
0.0067335084
0.006454778
0.0061837484
0.0059202551
0.0056641276
0.0054151904
0.0051732637
0.0049381646
0.0047097074
0.0044877047
0.0042719677
0.0040623071
0.0038585338
0.0036604587
0.0034678939
0.0032806529
0.0030985506
0.0029214042
0.0027490332
0.0025812597
0.0024179084
0.0022588072
0.0021037872
0.0019526826
0.001805331
0.0016615735
0.0015212546
0.0013842225
0.001250329
0.0011194293
0.0009913827
0.0008660523
0.00074330527
0.00062301304
0.00050505149
0.0003893011
0.00027564702
0.00016397903
5.4190734e-05
0.0085656366
0.0082382976
0.0079193793
0.0076088053
0.0073064787
0.007012279
0.0067260704
0.0064477056
0.0061770284
0.005913875
0.0056580753
0.0054094542
0.0051678323
0.0049330269
0.0047048526
0.0044831225
0.0042676479
0.00405824
0.0038547098
0.0036568686
0.0034645288
0.003277504
0.0030956096
0.002918663
0.0027464839
0.0025788946
0.0024157203
0.0022567891
0.0021019321
0.0019509839
0.0018037823
0.0016601686
0.0015199875
0.0013830874
0.00124932
0.0011185409
0.00099060945
0.00086538879
0.0007427462
0.00062255324
0.00050468591
0.00038902485
0.00027545537
0.00016386742
5.415479e-05
0.0085544833
0.00822765
0.0079092248
0.0075991285
0.0072972612
0.0070035032
0.0067177198
0.0064397647
0.0061694825
0.0059067101
0.0056512778
0.005403011
0.0051617308
0.0049272546
0.0046993977
0.0044779731
0.0042627929
0.0040536684
0.0038504109
0.0036528321
0.0034607446
0.0032739625
0.0030923014
0.002915579
0.0027436154
0.0025762331
0.0024132576
0.0022545172
0.0020998434
0.001949071
0.0018020381
0.0016585862
0.0015185601
0.0013818085
0.0012481832
0.0011175399
0.00098973809
0.00086464103
0.0007421161
0.00062203498
0.00050427382
0.00038871342
0.00027523927
0.00016374153
5.4114227e-05
0.0088767536
0.0085420326
0.0082157632
0.0078978864
0.0075883205
0.0072869643
0.0069936984
0.006708389
0.0064308909
0.0061610494
0.005898702
0.0056436797
0.0053958084
0.0051549093
0.0049208007
0.0046932979
0.0044722145
0.0042573628
0.0040485546
0.0038456016
0.0036483157
0.0034565101
0.0032699991
0.0030885986
0.0029121267
0.0027404039
0.0025732529
0.0024104996
0.0022519726
0.0020975037
0.001946928
0.0018000838
0.0016568129
0.0015169605
0.0013803751
0.0012469089
0.0011164179
0.00098876134
0.00086380282
0.00074140978
0.00062145402
0.00050381185
0.00038836425
0.00027499695
0.00016360034
5.4068713e-05
0.0088622702
0.0085281907
0.0082025465
0.0078852769
0.0075762983
0.0072755086
0.0069827887
0.0066980058
0.0064210153
0.0061516635
0.0058897884
0.0056352219
0.00538779
0.0051473147
0.0049136145
0.0046865053
0.0044658012
0.0042513149
0.0040428584
0.0038402439
0.0036432839
0.0034517918
0.0032655822
0.0030844717
0.0029082786
0.0027368236
0.0025699301
0.0024074242
0.0022491348
0.0020948941
0.0019445375
0.0017979037
0.0016548346
0.0015151757
0.0013787757
0.0012454871
0.0011151658
0.00098767148
0.00086286757
0.00074062172
0.00062080585
0.00050329644
0.00038797468
0.00027472656
0.00016344275
5.40179e-05
0.0091880414
0.0088462251
0.0085128562
0.0081879028
0.0078713033
0.007562973
0.0072628092
0.0069706933
0.0066864929
0.0064100644
0.0061412547
0.0058799028
0.0056258409
0.0053788957
0.0051388898
0.0049056421
0.004678969
0.0044586851
0.0042446034
0.0040365367
0.0038342974
0.0036376984
0.0034465537
0.0032606784
0.0030798893
0.0029040052
0.0027328473
0.0025662394
0.0024040078
0.002245982
0.0020919946
0.0019418812
0.0017954809
0.0016526359
0.001513192
0.0013769981
0.0012439069
0.0011137744
0.00098646031
0.0008618283
0.00073974608
0.00062008571
0.00050272383
0.00038754187
0.00027442614
0.00016326765
5.3961423e-05
0.0091695207
0.008828509
0.008495921
0.0081717279
0.007855866
0.0075482495
0.0072487755
0.0069573254
0.0066737677
0.0063979595
0.0061297483
0.0058689739
0.0056154691
0.0053690614
0.0051295737
0.0048968257
0.0046706342
0.0044508143
0.0042371796
0.0040295434
0.0038277185
0.0036315185
0.0034407576
0.0032552515
0.0030748176
0.0028992751
0.0027284456
0.0025621533
0.0024002251
0.0022424909
0.0020887836
0.0019389393
0.0017927975
0.0016502007
0.0015109948
0.0013750293
0.0012421567
0.0011122334
0.00098511912
0.00086067763
0.00073877672
0.00061928859
0.00050209008
0.0003870629
0.00027409368
0.00016307385
5.3898894e-05
0.0091491466
0.0088090013
0.0084772689
0.0081539104
0.0078388585
0.0075320263
0.0072333104
0.0069425927
0.0066597421
0.0063846165
0.0061170642
0.0058569256
0.0056040343
0.0053582183
0.0051193013
0.0048871036
0.0046614425
0.0044421336
0.0042289913
0.0040218292
0.0038204608
0.0036247003
0.0034343623
0.0032492632
0.0030692206
0.0028940545
0.002723587
0.0025576427
0.002396049
0.0022386364
0.0020852381
0.0019356908
0.0017898343
0.0016475114
0.0015085685
0.0013728552
0.0012402243
0.0011105321
0.0009836387
0.00085940775
0.00073770716
0.00061840926
0.0005013911
0.00038653468
0.00027372704
0.00016286011
5.3829915e-05
0.009126768
0.0087875687
0.0084567746
0.008134331
0.0078201669
0.0075141945
0.0072163102
0.006926396
0.0066443216
0.0063699455
0.0061031167
0.0058436764
0.0055914589
0.005346293
0.0051080029
0.0048764096
0.0046513312
0.0044325839
0.0042199825
0.0040133414
0.0038124747
0.0036171971
0.0034273239
0.003242672
0.0030630597
0.0028883074
0.0027182379
0.0025526763
0.0023914506
0.0022343917
0.0020813335
0.0019321131
0.0017865707
0.0016445496
0.0015058965
0.0013704611
0.0012380966
0.0011086593
0.00098200935
0.00085801047
0.00073653063
0.00061744226
0.00050062261
0.00038595404
0.00027332406
0.00016262516
5.3754073e-05
0.0094487849
0.0091022127
0.0087640685
0.0084343042
0.0081128622
0.0077996697
0.0074946381
0.007197664
0.0069086298
0.0066274056
0.0063538505
0.0060878145
0.0058291394
0.0055776604
0.0053332069
0.0050956041
0.0048646734
0.0046402337
0.0044221018
0.0042100935
0.0040040236
0.003803707
0.003608959
0.0034195955
0.003235434
0.0030562936
0.0028819953
0.0027123624
0.0025472207
0.0023863988
0.0022297282
0.0020770435
0.0019281821
0.0017829848
0.0016412954
0.0015029609
0.0013678312
0.0012357597
0.0011066029
0.00098022083
0.00085647722
0.00073524008
0.00061638192
0.00049978023
0.00038531774
0.0002728825
0.00016236773
5.3670948e-05
0.0094207045
0.0090753348
0.0087383518
0.0084097152
0.0080893678
0.0077772366
0.007473233
0.0071772535
0.006889181
0.0066088861
0.0063362289
0.0060710598
0.0058132216
0.0055625503
0.0053188762
0.0050820251
0.0048518192
0.0046280783
0.00441062
0.0041992605
0.0039938157
0.003794101
0.0035999324
0.0034111267
0.0032275021
0.0030488782
0.0028750768
0.0027059219
0.0025412401
0.0023808605
0.0022246154
0.0020723398
0.0019238721
0.0017790533
0.0016377278
0.0014997429
0.0013649489
0.0012331992
0.0011043504
0.00097826243
0.00085479906
0.00073382821
0.00061522245
0.00049885949
0.00038462248
0.00027240013
0.00016208651
5.3580119e-05
0.01010304
0.0097424243
0.0093900266
0.0090459727
0.0087102605
0.0083828556
0.0080637026
0.007752729
0.0074498465
0.007154952
0.0068679288
0.0065886482
0.0063169709
0.0060527482
0.0057958238
0.0055460344
0.0053032112
0.0050671809
0.0048377666
0.0046147888
0.004398066
0.0041874152
0.003982653
0.0037835957
0.0035900601
0.0034018638
0.0032188257
0.0030407662
0.0028675078
0.0026988754
0.0025346962
0.0023748003
0.0022190204
0.0020671926
0.0019191555
0.0017747512
0.0016338242
0.0014962225
0.0013617964
0.0012303995
0.0011018884
0.00097612299
0.00085296674
0.00073228752
0.00061395792
0.00049785587
0.00038386498
0.00027187475
0.00016178023
5.3481171e-05
0.010433965
0.010066627
0.0097074892
0.0093565758
0.0090139538
0.0086796265
0.0083535635
0.0080357114
0.0077259986
0.0074243372
0.0071306245
0.0068447444
0.006566569
0.0062959595
0.0060327683
0.0057768398
0.0055280116
0.0052861161
0.0050509806
0.0048224294
0.0046002836
0.0043843626
0.0041744845
0.0039704667
0.0037721264
0.0035792811
0.0033917494
0.0032093509
0.0030319071
0.0028592412
0.0026911788
0.0025275482
0.0023681802
0.0022129084
0.0020615695
0.0019140032
0.0017700519
0.0016295609
0.0014923784
0.001358355
0.0012273445
0.0010992033
0.00097379088
0.00085097073
0.00073061039
0.00061258241
0.0004967649
0.00038304203
0.00027130419
0.00016144768
5.337371e-05
0.010392666
0.010026994
0.0096694764
0.0093201616
0.0089790923
0.0086462702
0.0083216664
0.008005229
0.0076968872
0.0073965538
0.0071041266
0.0068194901
0.006542517
0.0062730696
0.0060110008
0.0057561562
0.0055083744
0.0052674886
0.0050333272
0.0048057153
0.0045844753
0.0043694274
0.0041603906
0.0039571832
0.0037596235
0.0035675299
0.0033807219
0.0031990201
0.0030222468
0.0028502263
0.0026827851
0.0025197523
0.0023609597
0.0022062419
0.0020554365
0.0019083838
0.0017649272
0.0016249124
0.0014881881
0.0013546051
0.0012240172
0.0010962804
0.00097125415
0.00084880131
0.00072878914
0.00061109001
0.00049558223
0.00038215056
0.00027068645
0.00016108771
5.325737e-05
0.010347795
0.0099839191
0.0096281637
0.0092805765
0.008941189
0.0086099997
0.00828698
0.0079720789
0.0076652262
0.0073663352
0.0070753044
0.006792019
0.0065163523
0.0062481676
0.0059873188
0.0057336522
0.0054870077
0.0052472194
0.0050141169
0.0047875263
0.0045672709
0.0043531721
0.00414505
0.0039427239
0.0037460129
0.0035547368
0.0033687158
0.0031877717
0.0030117278
0.0028404093
0.0026736439
0.0025112617
0.0023530956
0.0021989811
0.0020487568
0.0019022641
0.0017593469
0.0016198518
0.0014836278
0.0013505259
0.0012203996
0.0010931049
0.00096850049
0.00084644865
0.00072681612
0.000609475
0.00049430371
0.00038118771
0.00027001972
0.00016069933
5.313183e-05
0.01029909
0.0099371615
0.0095833159
0.0092375973
0.0089000301
0.0085706101
0.008249308
0.007936073
0.0076308355
0.0073335094
0.0070439937
0.0067621743
0.0064879254
0.0062211111
0.0059615864
0.0057091987
0.0054637887
0.0052251919
0.004993239
0.0047677572
0.0045485709
0.0043355028
0.0041283738
0.0039270046
0.0037312155
0.003540827
0.0033556609
0.0031755398
0.0030002882
0.0028297325
0.0026637016
0.0025020266
0.0023445416
0.0021910834
0.0020414916
0.0018956086
0.0017532792
0.0016143506
0.0014786723
0.0013460955
0.0012164734
0.0010896614
0.00096551739
0.0008439029
0.00072468385
0.0006077319
0.00049292554
0.00038015098
0.00026930243
0.00016028171
5.2996833e-05
0.010246276
0.0098864598
0.0095346826
0.0091909852
0.0088553876
0.0085278829
0.0082084409
0.0078970109
0.0075935235
0.007297893
0.0070100193
0.0067297889
0.0064570769
0.0061917483
0.0059336591
0.0056826579
0.0054385866
0.0052012818
0.0049705755
0.0047462961
0.0045282693
0.0043163188
0.0041102671
0.0039099358
0.0037151464
0.003525721
0.0033414822
0.003162254
0.0029878622
0.0028181344
0.0026529007
0.0024919936
0.0023352485
0.0021825034
0.0020335992
0.0018883795
0.0017466899
0.0016083786
0.0014732953
0.0013412912
0.0012122193
0.0010859339
0.00096229219
0.0008411543
0.00072238513
0.00060585566
0.00049144437
0.00037903829
0.00026853343
0.00015983427
5.2852201e-05
0.010189064
0.009831536
0.0094819974
0.0091404858
0.008807018
0.0084815849
0.0081641556
0.0078546789
0.0075530857
0.007259291
0.0069731949
0.0066946849
0.006423637
0.0061599172
0.0059033827
0.0056538832
0.0054112618
0.0051753564
0.0049460004
0.0047230235
0.0045062528
0.0042955131
0.0040906284
0.0038914216
0.0036977156
0.0035093337
0.0033260998
0.0031478394
0.0029743795
0.0028055492
0.00264118
0.0024811058
0.0023251636
0.0021731927
0.0020250354
0.0018805366
0.0017395432
0.0016019039
0.0014674688
0.0013360891
0.0012076172
0.0010819063
0.00095881217
0.0008381933
0.00071991317
0.00060384177
0.00048985743
0.00037784813
0.00026771198
0.00015935672
5.2697862e-05
0.010127146
0.0097720951
0.0094249773
0.0090858283
0.0087546622
0.0084314683
0.0081162146
0.0078088498
0.007509305
0.0072174953
0.0069333218
0.0066566727
0.0063874249
0.0061254455
0.0058705929
0.0056227181
0.0053816655
0.0051472744
0.0049193796
0.0046978122
0.0044824006
0.0042729715
0.0040693498
0.0038713601
0.0036788267
0.0034915742
0.0033094283
0.0031322157
0.0029597649
0.0027919067
0.0026284741
0.0024693026
0.0023142307
0.0021630996
0.0020157531
0.0018720375
0.0017318008
0.0015948926
0.0014611634
0.0013304643
0.0012026465
0.0010775621
0.00095506463
0.00083501068
0.00071726171
0.00060168639
0.00048816272
0.00037657968
0.00026683793
0.00015884914
5.2533863e-05
0.010060197
0.009707824
0.0093633223
0.0090267252
0.0086980448
0.0083772692
0.0080643655
0.007759282
0.00746195
0.0071722851
0.0068901889
0.0066155506
0.0063482482
0.0060881498
0.005835115
0.0055889963
0.0053496395
0.0051168853
0.00489057
0.0046705264
0.0044565844
0.004248572
0.0040463159
0.0038496423
0.0036583769
0.003472346
0.0032913767
0.0031152974
0.0029439385
0.0027771321
0.0026147131
0.002456519
0.00230239
0.0021521692
0.0020057021
0.0018628366
0.0017234221
0.0015873091
0.0014543484
0.0013243907
0.0011972859
0.0010728843
0.00095103697
0.00083159761
0.00071442517
0.0005993865
0.00048635904
0.00037523291
0.00026591176
0.00015831201
5.2360396e-05
0.0099878711
0.0096383912
0.0092967141
0.0089628714
0.0086368737
0.0083187078
0.0080083401
0.0077057188
0.0074107753
0.0071234255
0.0068435719
0.0065711045
0.0063059024
0.0060478349
0.0057967632
0.0055525408
0.0053150152
0.0050840289
0.0048594196
0.0046410217
0.004428667
0.004222185
0.0040214042
0.0038261523
0.0036362568
0.0034515457
0.0032718478
0.0030969935
0.0029268146
0.0027611455
0.0025998228
0.0024426862
0.0022895778
0.0021403428
0.0019948289
0.0018528857
0.0017143642
0.0015791157
0.0014469914
0.0013178411
0.0011915134
0.001067856
0.00094671672
0.00082794572
0.00071139866
0.00059693995
0.00048444617
0.00037380868
0.00026493465
0.00015774629
5.2177809e-05
0.0099098041
0.009563446
0.009224816
0.008893944
0.0085708392
0.0082554874
0.0079478544
0.0076478882
0.0073555204
0.0070706676
0.0067932327
0.006523107
0.0062601704
0.0060042939
0.0057553398
0.0055131634
0.0052776138
0.005048535
0.0048257665
0.0046091447
0.0043985029
0.0041936725
0.0039944839
0.0038007666
0.0036123498
0.0034290635
0.0032507384
0.0030772067
0.0029083024
0.0027438618
0.0025837239
0.0024277304
0.002275726
0.0021275582
0.0019830768
0.0018421337
0.0017045815
0.0015702725
0.001439058
0.001310787
0.0011853061
0.0010624597
0.00094209146
0.00082404712
0.00070817805
0.00059434551
0.00048242486
0.00037230873
0.00026390853
0.00015715339
5.1986614e-05
0.0098256106
0.0094826181
0.0091472722
0.0088196014
0.0084996136
0.0081872937
0.0078826072
0.0075855019
0.0072959095
0.0070137472
0.006738919
0.0064713167
0.006210822
0.005957307
0.0057106355
0.0054706646
0.0052372451
0.0050102227
0.0047894389
0.004574732
0.0043659371
0.0041628878
0.0039654162
0.0037733538
0.0035865319
0.0034047825
0.0032279383
0.0030558337
0.0028883049
0.0027251904
0.0025663318
0.0024115733
0.0022607622
0.0021137487
0.0019703853
0.0018305261
0.0016940255
0.0015607371
0.0014305122
0.0013031986
0.0011786403
0.0010566774
0.00093714873
0.00081989419
0.0007047598
0.00059160279
0.00048029674
0.00037073572
0.00026283605
0.00015653521
5.1787485e-05
0.0097348846
0.0093955166
0.009063707
0.0087394829
0.0084228509
0.0081137951
0.0078122805
0.007518255
0.0072316506
0.0069523852
0.0066803634
0.0064154785
0.0061576132
0.0059066412
0.0056624281
0.0054248326
0.0051937074
0.0049689001
0.0047502544
0.0045376103
0.0043308052
0.0041296748
0.0039340533
0.0037437742
0.0035586712
0.0033785783
0.0032033305
0.0030327644
0.0028667188
0.0027050348
0.0025475566
0.0023941313
0.0022446093
0.0020988437
0.0019566899
0.0018180048
0.0016826448
0.0015504647
0.0014213158
0.0012950443
0.0011714907
0.0010504905
0.00093187571
0.00081547939
0.00070114079
0.00058871197
0.00047806419
0.00036909298
0.00026172046
0.00015589404
5.1581232e-05
0.0096371984
0.0093017302
0.0089737252
0.0086532086
0.0083401862
0.0080346412
0.0077365384
0.0074458257
0.0071624355
0.0068862862
0.0066172836
0.0063553221
0.0061002858
0.0058520502
0.0056104824
0.0053754431
0.005146787
0.0049243639
0.0047080193
0.0044975957
0.0042929327
0.0040938681
0.0039002385
0.0037118797
0.0035286276
0.0033503186
0.0031767902
0.0030078817
0.0028434344
0.0026832924
0.0025273027
0.0023753157
0.0022271852
0.0020827678
0.0019419221
0.001804508
0.0016703844
0.0015394073
0.0014114278
0.0012862902
0.0011638308
0.0010438789
0.00092625881
0.00081079479
0.00069731781
0.00058567347
0.00047572996
0.0003673843
0.00026056538
0.00015523243
5.1368759e-05
0.0095321034
0.0092008269
0.0088769108
0.0085603789
0.0082512356
0.0079494635
0.0076550273
0.0073678747
0.0070879388
0.0068151387
0.0065493813
0.0062905622
0.0060385672
0.0057932733
0.0055545496
0.0053222589
0.0050962579
0.0048763985
0.0046625288
0.0044544935
0.0042521345
0.0040552922
0.0038638054
0.0036775126
0.0034962522
0.0033198631
0.0031481855
0.0029810614
0.0028183352
0.0026598539
0.0025054682
0.002355032
0.0022084027
0.0020654408
0.0019260088
0.00178997
0.0016571857
0.0015275137
0.0014008045
0.0012769
0.0011556316
0.001036821
0.00092028299
0.00080583139
0.00069328696
0.00058248728
0.00047329657
0.0003656134
0.00025937449
0.000154553
5.115099e-05
0.0094191289
0.0090923535
0.0087728278
0.0084605741
0.0081555956
0.0078578745
0.0075673749
0.007284045
0.0070078182
0.0067386146
0.0064763422
0.0062208981
0.0059721696
0.0057300355
0.0054943671
0.0052650292
0.0050418808
0.0048247763
0.0046135661
0.0044080974
0.0042082148
0.0040137611
0.003824578
0.0036405063
0.0034613874
0.0032870629
0.0031173759
0.0029521715
0.0027912972
0.0026346037
0.0024819452
0.0023331796
0.0021881687
0.0020467772
0.0019088721
0.0017743201
0.001642986
0.0015147287
0.0013893985
0.0012668342
0.0011468612
0.0010292923
0.00091393094
0.00080057825
0.0006890427
0.00057915209
0.00047076561
0.00036378333
0.00025815099
0.00015385807
5.0928765e-05
0.0092977832
0.0089758359
0.0086610196
0.0083533547
0.0080528434
0.0077594674
0.0074731905
0.0071939613
0.0069217137
0.0066563687
0.0063978355
0.0061460128
0.0059007896
0.0056620468
0.0054296577
0.0052034894
0.0049834034
0.0047692567
0.0045609021
0.0043581895
0.0041609664
0.0039690783
0.0037823696
0.0036006842
0.0034238662
0.0032517604
0.0030842129
0.0029210722
0.0027621893
0.0026074187
0.0024566188
0.0023096519
0.0021663845
0.0020266863
0.0018904287
0.0017574832
0.0016277176
0.0015009926
0.0013771581
0.001256049
0.0011374838
0.0010212648
0.00090718193
0.00079502131
0.00068457672
0.0005756642
0.00046813664
0.00036189555
0.00025689698
0.00015314934
5.0702704e-05
0.0091675531
0.0088507792
0.0085410087
0.0082382607
0.0079425362
0.0076538162
0.0073720646
0.0070972301
0.0068292473
0.0065680382
0.0063135134
0.0060655731
0.0058241083
0.0055890019
0.0053601296
0.0051373608
0.0049205597
0.0047095858
0.0045042949
0.0043045398
0.0041101706
0.003921036
0.0037369834
0.0035578597
0.0033835122
0.0032137889
0.0030485394
0.0028876157
0.0027308727
0.0025781691
0.0024293677
0.002284336
0.0021429455
0.0020050712
0.0018705903
0.0017393786
0.001611308
0.001486241
0.0013640267
0.0012444959
0.0011274589
0.0010127056
0.00090001057
0.00078914205
0.00067987658
0.00057201617
0.00046540603
0.00035994894
0.00025561263
0.00015242732
5.0473039e-05
0.0090279043
0.0087166673
0.0084122974
0.0081148122
0.0078242114
0.0075404756
0.0072635686
0.0069934392
0.006730023
0.0064732429
0.006223011
0.0059792292
0.0057417905
0.00551058
0.0052854759
0.0050663501
0.0048530696
0.0046454968
0.0044434903
0.004246906
0.0040555971
0.0038694155
0.0036882118
0.0035118362
0.0033401393
0.0031729727
0.0030101896
0.0028516459
0.0026972008
0.0025467174
0.0024000636
0.0022571122
0.0021177405
0.0019818296
0.0018492623
0.0017199202
0.0015936791
0.0014704037
0.0013499422
0.0012321206
0.0011167399
0.0010035761
0.00089238545
0.00078291602
0.00067492414
0.00056819533
0.00046256555
0.00035793863
0.00025429536
0.00015169083
5.0239431e-05
0.0088782814
0.0085729634
0.0082743671
0.0079825085
0.0076973863
0.0074189804
0.0071472544
0.0068821577
0.0066236264
0.0063715847
0.0061259462
0.0058866145
0.0056534849
0.0054264447
0.0052053747
0.0049901496
0.0047806392
0.004576709
0.0043782208
0.0041850335
0.0039970038
0.0038139868
0.0036358366
0.0034624069
0.0032935519
0.003129127
0.0029689892
0.0028129988
0.0026610195
0.0025129192
0.0023685714
0.0022278546
0.0020906524
0.0019568527
0.0018263447
0.0016990159
0.0015747468
0.0014534044
0.0013348359
0.0012188621
0.0011052735
0.00099383004
0.0008842678
0.00077631141
0.00066969412
0.00056418234
0.00045960106
0.00035585483
0.00025293889
0.00015093641
5.0000779e-05
0.008718108
0.0084191098
0.0081266785
0.0078408287
0.007561558
0.0072888456
0.007022655
0.0067629357
0.0065096248
0.0062626477
0.0060219195
0.0057873458
0.0055588239
0.0053362439
0.0051194891
0.0049084371
0.0047029609
0.0045029291
0.0043082066
0.004118656
0.0039341374
0.0037545093
0.0035796295
0.0034093555
0.0032435454
0.0030820584
0.002924756
0.0027715028
0.0026221674
0.0024766233
0.0023347495
0.002196431
0.0020615583
0.0019300264
0.0018017316
0.001676568
0.0015544211
0.0014351607
0.0013186328
0.0012046525
0.0010929985
0.00098341342
0.00087561037
0.0007692878
0.00066415279
0.00055994989
0.00045649126
0.00035368177
0.00025153248
0.00015015785
4.9755051e-05
0.0085467871
0.0082545278
0.0079686713
0.0076892312
0.0074162036
0.0071495668
0.0068892839
0.006635305
0.0063875676
0.0061459986
0.0059105147
0.0056810235
0.0054574246
0.0052396107
0.005027468
0.0048208771
0.0046197141
0.0044238509
0.0042331563
0.0040474959
0.0038667338
0.0036907322
0.0035193527
0.0033524568
0.0031899067
0.0030315658
0.0028773003
0.0027269794
0.0025804771
0.0024376724
0.0022984507
0.0021627039
0.0020303299
0.0019012312
0.001775312
0.0016524734
0.0015326064
0.0014155839
0.0013012509
0.0011894161
0.0010798458
0.00097226341
0.00086635675
0.00076179536
0.00065825706
0.00055546177
0.00045320687
0.00035139699
0.00025006033
0.00014934579
4.9499155e-05
0.0083637007
0.0080786176
0.0077997645
0.0075271542
0.0072607806
0.0070006205
0.0067466368
0.0064987796
0.0062569873
0.006021188
0.0057913002
0.0055672334
0.00534889
0.005136165
0.0049289476
0.0047271218
0.0045305668
0.0043391582
0.0041527682
0.0039712664
0.0037945205
0.0036223968
0.003454761
0.0032914788
0.0031324165
0.0029774423
0.002826427
0.0026792451
0.0025357759
0.0023959048
0.0022595238
0.0021265319
0.0019968349
0.0018703437
0.0017469707
0.0016266245
0.0015092023
0.0013945801
0.0012826023
0.0011730708
0.0010657387
0.0009603087
0.00085644144
0.00075377475
0.00065195431
0.00055067261
0.00044971027
0.00034897102
0.00024850132
0.00014848757
4.9228888e-05
0.0081682102
0.007890758
0.0076193567
0.007354017
0.0070947286
0.0068414666
0.0065941931
0.0063528584
0.0061174019
0.0058877529
0.0056638315
0.0054455496
0.0052328118
0.0050255161
0.0048235547
0.0046268148
0.0044351792
0.004248527
0.0040667342
0.0038896745
0.0037172194
0.0035492396
0.0033856048
0.0032261852
0.0030708517
0.0029194774
0.0027719381
0.0026281136
0.0024878893
0.0023511569
0.0022178153
0.0020877714
0.0019609393
0.0018372385
0.0017165902
0.0015989111
0.0014841049
0.0013720514
0.0012625942
0.0011555286
0.0010505937
0.00094747054
0.00084579067
0.00074515791
0.00064518304
0.00054552847
0.00044595601
0.00034636774
0.00024682929
0.00014756741
4.8938981e-05
0.0079596517
0.0076903033
0.0074268284
0.0071692234
0.0069174734
0.006671552
0.0064314207
0.00619703
0.0059683201
0.0057452217
0.0055276567
0.0053155391
0.0051087761
0.0049072686
0.0047109118
0.0045195963
0.0043332085
0.0041516313
0.0039747446
0.0038024262
0.0036345519
0.0034709966
0.0033116345
0.0031563406
0.0030049905
0.0028574622
0.0027136371
0.0025734006
0.0024366443
0.0023032665