/*--------------------------------*- C++ -*----------------------------------*\
| =========                 |                                                 |
| \\      /  F ield         | OpenFOAM: The Open Source CFD Toolbox           |
|  \\    /   O peration     | Version:  2312                                  |
|   \\  /    A nd           | Website:  www.openfoam.com                      |
|    \\/     M anipulation  |                                                 |
\*---------------------------------------------------------------------------*/
FoamFile
{
    version     2.0;
    format      ascii;
    arch        "LSB;label=32;scalar=64";
    class       volScalarField;
    location    "0.06";
    object      k;
}
// * * * * * * * * * * * * * * * * * * * * * * * * * * * * * * * * * * * * * //

dimensions      [0 2 -2 0 0 0 0];

internalField   nonuniform List<scalar> 
3224
(
9.059154
9.0756219
9.0939504
9.1141175
9.1361023
9.1598821
9.1854331
9.2127312
9.2417521
9.2724716
9.304866
9.3389121
9.3745872
9.4118691
9.4507365
9.4911685
9.5331451
9.5766467
9.6216547
9.6681509
9.7161178
9.7655384
9.8163967
9.8686769
9.9223639
9.9774431
10.033901
10.091723
10.150897
10.21141
10.27325
10.336405
10.400863
10.466611
10.533639
10.601935
10.671486
10.742282
10.814312
10.887566
10.962028
9.0594326
9.075918
9.0942555
9.1144251
9.1364087
9.1601853
9.1857317
9.2130243
9.242039
9.2727517
9.3051389
9.3391774
9.3748444
9.4121181
9.450977
9.4914003
9.533368
9.5768606
9.6218594
9.6683462
9.7163037
9.7657149
9.8165637
9.8688344
9.9225118
9.9775816
10.03403
10.091843
10.151007
10.211511
10.273342
10.336488
10.400936
10.466676
10.533695
10.601981
10.671524
10.742312
10.814333
10.887579
10.962032
9.0598884
9.0763891
9.0947296
9.1148966
9.1368745
9.1606434
9.1861809
9.2134636
9.2424676
9.273169
9.3055444
9.3395706
9.3752251
9.4124858
9.4513314
9.4917412
9.5336952
9.5771739
9.6221586
9.6686314
9.7165746
9.7659716
9.8168061
9.8690624
9.9227257
9.9777812
10.034215
10.092014
10.151165
10.211655
10.273472
10.336605
10.40104
10.466766
10.533773
10.602047
10.671577
10.742353
10.814362
10.887596
10.962038
9.0605248
9.077035
9.0953716
9.1155306
9.137498
9.1612548
9.186779
9.2140474
9.2430362
9.2737219
9.3060809
9.3400903
9.3757275
9.4129705
9.4517982
9.4921897
9.5341252
9.5775852
9.6225511
9.6690049
9.7169292
9.7663071
9.8171225
9.8693599
9.9230042
9.9780409
10.034456
10.092237
10.151369
10.211841
10.273641
10.336755
10.401173
10.466883
10.533872
10.60213
10.671645
10.742405
10.814398
10.887618
10.962045
9.046681
9.061359
9.0778558
9.0961804
9.1163258
9.138278
9.1620182
9.1875246
9.2147743
9.2437436
9.2744091
9.3067472
9.3407352
9.3763504
9.4135712
9.4523761
9.4927446
9.5346569
9.5780934
9.6230358
9.6694658
9.7173663
9.7667204
9.8175121
9.8697257
9.9233464
9.9783597
10.034752
10.092509
10.151619
10.212069
10.273846
10.336939
10.401335
10.467024
10.533993
10.602231
10.671726
10.742467
10.814443
10.887644
10.962053
9.0477043
9.062319
9.0787933
9.0970998
9.1172272
9.1391606
9.1628809
9.1883664
9.2155943
9.244541
9.2751832
9.3074974
9.3414608
9.377051
9.4142463
9.4530254
9.4933678
9.5352536
9.5786636
9.6235791
9.6699823
9.7178559
9.7671831
9.8179479
9.8701348
9.9237288
9.9787157
10.035082
10.092813
10.151897
10.212322
10.274074
10.337143
10.401515
10.467181
10.534127
10.602343
10.671817
10.742537
10.814491
10.887673
10.962063
9.0487922
9.063375
9.0798238
9.0981082
9.1182143
9.1401259
9.1638237
9.1892858
9.2164894
9.2454111
9.2760274
9.3083152
9.3422516
9.3778143
9.4149816
9.4537323
9.494046
9.5359028
9.5792836
9.6241699
9.6705436
9.7183878
9.7676855
9.818421
9.8705786
9.9241436
9.9791016
10.035439
10.093142
10.152198
10.212595
10.274321
10.337363
10.40171
10.46735
10.534272
10.602463
10.671914
10.742611
10.814544
10.887704
10.962073
9.0500484
9.0646085
9.0810272
9.0992843
9.1193642
9.1412496
9.1649205
9.1903549
9.2175298
9.246422
9.2770081
9.3092649
9.3431696
9.3787001
9.4158347
9.4545522
9.4948324
9.5366554
9.5800022
9.6248542
9.6711937
9.7190035
9.768267
9.8189683
9.8710919
9.924623
9.9795475
10.035851
10.093522
10.152546
10.212911
10.274605
10.337616
10.401933
10.467544
10.534437
10.602601
10.672025
10.742696
10.814604
10.887739
10.962085
9.0388507
9.0515103
9.0660327
9.0824156
9.1006402
9.1206891
9.1425434
9.1661827
9.1915847
9.2187263
9.2475843
9.2781353
9.3103562
9.3442243
9.3797175
9.4168143
9.4554935
9.495735
9.537519
9.5808265
9.6256391
9.6719391
9.7197094
9.7689334
9.8195953
9.8716797
9.9251719
9.9800578
10.036324
10.093956
10.152943
10.213271
10.274929
10.337905
10.402188
10.467765
10.534626
10.602758
10.672151
10.742793
10.814672
10.887779
10.962098
9.040602
9.053185
9.0676602
9.0840019
9.1021887
9.1222013
9.1440197
9.1676224
9.192987
9.2200903
9.248909
9.2794197
9.3115994
9.3454257
9.3808762
9.4179297
9.4565652
9.4967624
9.5385018
9.5817645
9.6265321
9.672787
9.7205121
9.769691
9.820308
9.8723477
9.9257954
9.9806372
10.036859
10.094449
10.153393
10.21368
10.275297
10.338233
10.402476
10.468015
10.534839
10.602936
10.672294
10.742902
10.814748
10.887824
10.962113
9.0320463
9.0425674
9.0550821
9.0695042
9.0857993
9.103943
9.1239142
9.1456913
9.1692522
9.1945742
9.2216338
9.2504077
9.2808727
9.3130057
9.3467843
9.3821865
9.4191909
9.4577767
9.4979237
9.5396126
9.5828244
9.6275409
9.6737446
9.7214186
9.7705465
9.8211125
9.8731015
9.926499
9.9812908
10.037464
10.095004
10.1539
10.21414
10.27571
10.338601
10.4028
10.468296
10.535078
10.603134
10.672453
10.743024
10.814834
10.887875
10.962129
9.0342973
9.044764
9.0572135
9.0715785
9.087822
9.1059175
9.1258418
9.1475721
9.1710857
9.1963594
9.2233696
9.252093
9.2825063
9.3145866
9.3483115
9.3836592
9.4206082
9.459138
9.4992285
9.5408604
9.5840149
9.628674
9.6748201
9.7224364
9.7715068
9.8220155
9.8739474
9.9272882
9.9820239
10.038141
10.095627
10.154469
10.214655
10.276173
10.339013
10.403162
10.46861
10.535345
10.603356
10.672631
10.743159
10.814929
10.887931
10.962148
9.0284148
9.0367984
9.0472086
9.0595934
9.0738979
9.0900852
9.1081272
9.1279989
9.1496767
9.1731372
9.1983566
9.2253113
9.253978
9.2843333
9.3163545
9.3500192
9.3853056
9.4221927
9.4606597
9.5006869
9.542255
9.5853454
9.62994
9.6760216
9.7235735
9.7725794
9.8230239
9.874892
9.9281692
9.9828419
10.038897
10.096321
10.155102
10.215229
10.276689
10.339472
10.403565
10.468959
10.535642
10.603602
10.672829
10.74331
10.815035
10.887993
10.962168
9.0312314
9.0395672
9.0499182
9.0622375
9.0764784
9.092605
9.110588
9.1304014
9.1520207
9.1754217
9.2005804
9.2274733
9.2560766
9.2863672
9.3183224
9.3519199
9.3871382
9.423956
9.4623531
9.5023097
9.5438067
9.5868255
9.6313484
9.6773581
9.724838
9.7737722
9.8241451
9.8759419
9.9291484
9.9837509
10.039736
10.097092
10.155806
10.215866
10.277261
10.33998
10.404012
10.469345
10.53597
10.603875
10.673047
10.743477
10.815152
10.888062
10.962191
9.0281059
9.0343393
9.0426223
9.0529112
9.0651633
9.0793373
9.0953984
9.1133169
9.133066
9.1546203
9.1779553
9.2030467
9.2298707
9.2584036
9.2886223
9.3205042
9.3540271
9.3891696
9.4259107
9.4642301
9.5041083
9.5455263
9.5884658
9.632909
9.6788389
9.7262389
9.7750933
9.8253868
9.8771045
9.9302324
9.9847569
10.040665
10.097944
10.156583
10.216569
10.277892
10.34054
10.404504
10.469771
10.536331
10.604174
10.673287
10.743659
10.81528
10.888137
10.962215
9.0315705
9.0377573
9.0459834
9.0562072
9.0683897
9.0824931
9.0984839
9.1163322
9.1360106
9.1574933
9.1807553
9.2057722
9.2325199
9.2609748
9.291114
9.3229147
9.3563551
9.3914137
9.4280698
9.4663034
9.5060948
9.5474255
9.5902771
9.6346322
9.6804738
9.7277856
9.7765518
9.8267572
9.8783874
9.9314283
9.9858665
10.041689
10.098884
10.157439
10.217344
10.278587
10.341157
10.405044
10.470238
10.536728
10.604502
10.67355
10.743859
10.81542
10.88822
10.962243
9.0313195
9.0353716
9.0415062
9.0496714
9.0598272
9.071937
9.0859658
9.1018811
9.119653
9.1392541
9.1606581
9.1838398
9.2087744
9.235438
9.263807
9.2938583
9.3255696
9.3589189
9.3938851
9.4304475
9.4685863
9.5082822
9.5495165
9.5922713
9.6365292
9.6822734
9.7294878
9.7781567
9.8282651
9.8797987
9.9327435
9.9870864
10.042815
10.099916
10.15838
10.218194
10.279348
10.341832
10.405636
10.470749
10.53716
10.60486
10.673836
10.744077
10.815572
10.88831
10.962272
9.0355233
9.0395274
9.045608
9.0537092
9.0637936
9.0758271
9.0897767
9.1056108
9.1233001
9.1428168
9.1641347
9.1872281
9.2120725
9.2386436
9.266918
9.2968728
9.3284856
9.3617347
9.3965992
9.4330586
9.4710932
9.510684
9.5518124
9.5944608
9.6386118
9.6842489
9.7313562
9.7799181
9.8299198
9.881347
9.9341861
9.988424
10.044048
10.101047
10.159409
10.219124
10.280181
10.34257
10.406282
10.471306
10.537632
10.605249
10.674147
10.744314
10.815738
10.888407
10.962304
9.0400864
9.0440616
9.0500873
9.0581212
9.0681304
9.0800833
9.0939485
9.1096954
9.1272952
9.1467202
9.167944
9.1909409
9.2156863
9.242156
9.2703268
9.3001756
9.3316804
9.3648198
9.3995727
9.4359191
9.4738395
9.5133149
9.5543272
9.5968588
9.6408926
9.6864123
9.733402
9.7818464
9.8317309
9.8830413
9.9357642
9.9898868
10.045397
10.102283
10.160533
10.220139
10.281089
10.343374
10.406984
10.471911
10.538143
10.605671
10.674484
10.744569
10.815916
10.888512
10.962338
9.0450557
9.0490042
9.0549713
9.0629336
9.0728632
9.0847305
9.0985055
9.1141589
9.1316619
9.1509872
9.1721084
9.195
9.2196373
9.2459962
9.2740534
9.3037864
9.3351731
9.3681922
9.4028231
9.4390459
9.4768413
9.5161905
9.5570757
9.5994795
9.643385
9.6887761
9.7356371
9.7839529
9.833709
9.8848914
9.9374869
9.9914829
10.046867
10.103629
10.161758
10.221243
10.282076
10.344246
10.407746
10.472566
10.538696
10.606127
10.674847
10.744845
10.816108
10.888625
10.962375
9.0486109
9.0504927
9.0543885
9.0602892
9.0681745
9.0780191
9.0897952
9.1034738
9.1190264
9.1364249
9.1556422
9.1766519
9.1994288
9.2239481
9.2501861
9.2781195
9.307726
9.3389837
9.3718716
9.4063693
9.442457
9.4801159
9.5193274
9.5600738
9.602338
9.6461034
9.691354
9.7380743
9.7862495
9.8358651
9.8869076
9.9393637
9.993221
10.048468
10.105094
10.163088
10.222442
10.283146
10.345192
10.40857
10.473274
10.539293
10.606617
10.675237
10.74514
10.816314
10.888745
10.962415
9.0546034
9.0564161
9.0602453
9.0660714
9.0738735
9.0836273
9.0953057
9.108881
9.1243252
9.1416108
9.160711
9.1815998
9.204252
9.228643
9.2547493
9.2825479
9.3120166
9.3431337
9.3758786
9.4102311
9.4461717
9.4836818
9.5227432
9.5633383
9.6054504
9.649063
9.6941604
9.7407273
9.788749
9.8382113
9.8891007
9.9414044
9.9951102
10.050207
10.106684
10.164532
10.223741
10.284304
10.346213
10.40946
10.474037
10.539935
10.607145
10.675656
10.745457
10.816534
10.888874
10.962457
9.0639336
9.0614296
9.0611179
9.0628534
9.0666059
9.0723498
9.0800621
9.0897183
9.1012921
9.1147565
9.1300841
9.1472479
9.1662215
9.1869792
9.209496
9.2337477
9.259711
9.287363
9.3166817
9.347646
9.3802354
9.4144299
9.4502105
9.4875587
9.5264567
9.5668873
9.6088338
9.6522801
9.6972107
9.7436104
9.7914649
9.84076
9.8914825
9.9436198
9.9971601
10.052092
10.108407
10.166094
10.225146
10.285555
10.347315
10.410418
10.474856
10.540623
10.607709
10.676103
10.745795
10.816769
10.889011
10.962501
9.0757343
9.0710946
9.0685742
9.06818
9.0698343
9.0735032
9.0791579
9.0867734
9.0963249
9.1077865
9.1211316
9.1363336
9.1533661
9.1722029
9.1928187
9.2151889
9.2392896
9.2650976
9.2925905
9.3217466
9.352545
9.3849654
9.4189885
9.4545953
9.4917677
9.5304882
9.57074
9.6125066
9.6557721
9.7005213
9.7467393
9.7944117
9.8435248
9.8940655
9.9460213
9.9993809
10.054134
10.11027
10.167782
10.226662
10.286903
10.3485
10.411446
10.475735
10.54136
10.608312
10.676581
10.746154
10.817018
10.889157
10.962549
9.0835149
9.078845
9.0762876
9.0758205
9.0773924
9.0809723
9.086531
9.0940424
9.1034815
9.1148226
9.1280397
9.1431066
9.1599974
9.1786865
9.1991491
9.2213607
9.2452979
9.2709377
9.2982582
9.327238
9.3578565
9.3900939
9.4239309
9.4593493
9.4963311
9.5348592
9.5749169
9.6164883
9.6595577
9.7041099
9.7501304
9.797605
9.8465201
9.8968627
9.9486209
10.001783
10.05634
10.112283
10.169603
10.228295
10.288354
10.349773
10.412549
10.476675
10.542146
10.608954
10.677088
10.746536
10.817283
10.889311
10.962599
9.0919113
9.0872169
9.0846146
9.0840768
9.0855645
9.0890506
9.0945067
9.1019066
9.111225
9.1224367
9.1355162
9.1504377
9.167176
9.1857058
9.2060028
9.2280431
9.2518035
9.2772616
9.3043955
9.3331845
9.3636083
9.3956475
9.4292832
9.4644975
9.5012729
9.5395925
9.5794401
9.6208
9.6636567
9.7079953
9.7538015
9.8010612
9.8497611
9.8998885
9.9514314
10.004379
10.058723
10.114453
10.171565
10.230052
10.289911
10.351137
10.413728
10.477678
10.542984
10.609636
10.677626
10.74694
10.817562
10.889474
10.962652
9.1009736
9.096252
9.0935998
9.0929903
9.094391
9.0977782
9.103125
9.1104053
9.1195943
9.1306672
9.1435987
9.1583639
9.1749379
9.1932962
9.2134147
9.2352701
9.2588397
9.2841013
9.3110338
9.3396166
9.36983
9.4016549
9.4350729
9.4700666
9.5066187
9.5447128
9.5843331
9.6254639
9.6680904
9.7121976
9.7577715
9.8047982
9.8532644
9.9031576
9.9544665
10.007181
10.061291
10.116791
10.173675
10.231939
10.29158
10.352596
10.414986
10.478746
10.543873
10.61036
10.678195
10.747366
10.817856
10.889645
10.962707
9.1107513
9.105997
9.1032901
9.1026058
9.1039156
9.107198
9.1124282
9.1195806
9.1286309
9.1395547
9.1523274
9.1669246
9.1833219
9.2014955
9.2214218
9.2430779
9.2664416
9.2914914
9.3182065
9.3465668
9.376553
9.4081466
9.4413296
9.4760849
9.5123959
9.5502464
9.5896209
9.6305042
9.6728815
9.7167384
9.7620606
9.8088346
9.8570473
9.9066863
9.9577405
10.0102
10.064057
10.119305
10.175941
10.233961
10.293365
10.354154
10.416326
10.479881
10.544816
10.611124
10.678796
10.747816
10.818166
10.889825
10.962765
9.1212948
9.1165017
9.113735
9.1129713
9.1141849
9.1173561
9.1224618
9.1294773
9.1383789
9.1491428
9.161745
9.1761616
9.1923691
9.210344
9.2300633
9.2515049
9.274647
9.2994686
9.3259493
9.3540698
9.3838111
9.4151552
9.4480848
9.482583
9.5186337
9.5562213
9.5953305
9.6359465
9.6780546
9.7216406
9.7666906
9.8131909
9.8611286
9.9104916
9.961269
10.013452
10.067033
10.122006
10.178371
10.236126
10.295273
10.355814
10.417751
10.481085
10.545813
10.611931
10.679428
10.748288
10.818492
10.890014
10.962826
9.1326571
9.1278187
9.1249862
9.1241374
9.1252486
9.1283012
9.1332739
9.1401429
9.1488852
9.1594775
9.1718968
9.1861197
9.2021232
9.2198846
9.2393816
9.2605924
9.2834961
9.308072
9.3343006
9.3621628
9.3916404
9.4227158
9.4553723
9.4895935
9.5253638
9.5626679
9.6014909
9.6418183
9.6836358
9.7269292
9.7716846
9.8178886
9.8655283
9.9145917
9.9650684
10.01695
10.07023
10.124905
10.180974
10.23844
10.297307
10.357579
10.419262
10.482358
10.546866
10.612781
10.680093
10.748784
10.818833
10.890212
10.96289
9.1448935
9.1400033
9.1370986
9.1361581
9.1371597
9.1400855
9.144916
9.1516281
9.1601997
9.1706083
9.1828313
9.1968464
9.2126311
9.2301633
9.2494214
9.2703844
9.2930318
9.3173437
9.3433011
9.3708856
9.4000795
9.4308658
9.4632284
9.4971514
9.5326197
9.5696184
9.608133
9.6481494
9.6896533
9.7326307
9.7770678
9.8229511
9.8702679
9.9190063
9.9691563
10.02071
10.073662
10.128012
10.18376
10.240911
10.299474
10.359455
10.420862
10.483702
10.547974
10.613674
10.68079
10.749304
10.81919
10.890419
10.962957
9.1580623
9.1531136
9.1501299
9.1490904
9.1499743
9.1527644
9.1574427
9.1639869
9.1723757
9.1825875
9.1946004
9.2083927
9.2239427
9.2412291
9.260231
9.280928
9.3033003
9.3273287
9.3529948
9.3802809
9.4091699
9.4396455
9.471692
9.5052943
9.5404377
9.5771077
9.6152904
9.6549715
9.6961373
9.7387737
9.7828669
9.8284034
9.8753704
9.9237563
9.9735513
10.024748
10.077344
10.131339
10.186737
10.243546
10.301777
10.361443
10.422555
10.485119
10.54914
10.614611
10.681521
10.749847
10.819564
10.890636
10.963026
9.1722252
9.1672114
9.1641412
9.1629948
9.1637524
9.1663971
9.1709125
9.1772771
9.1854703
9.1954713
9.2072592
9.220813
9.2361117
9.2531347
9.271862
9.2922738
9.3143511
9.3380753
9.3634289
9.3903946
9.4189563
9.4490982
9.4808052
9.5140629
9.5488569
9.5851735
9.6229988
9.6623191
9.7031205
9.7453891
9.789111
9.8342725
9.8808608
9.9288643
9.9782738
10.029083
10.081291
10.134899
10.189915
10.246352
10.304224
10.363549
10.424341
10.486611
10.550364
10.615593
10.682285
10.750416
10.819954
10.890862
10.963099
9.1874474
9.1823616
9.1791975
9.1779358
9.1785578
9.1810466
9.1853878
9.1915602
9.1995442
9.20932
9.2208672
9.2341657
9.2491955
9.2659366
9.2843698
9.3044762
9.3262373
9.3496356
9.374654
9.4012762
9.4294867
9.4592705
9.4906132
9.5235007
9.5579196
9.5938563
9.6312973
9.6702293
9.7106383
9.7525103
9.7958314
9.8405875
9.8867658
9.9343547
9.9833454
10.033733
10.085518
10.138705
10.193306
10.249337
10.30682
10.365776
10.426225
10.48818
10.551647
10.616621
10.683085
10.75101
10.820362
10.891098
10.963175
9.2037983
9.1986338
9.1953678
9.1939819
9.1944585
9.1967806
9.2009355
9.2069026
9.2146631
9.2241981
9.2354881
9.2485139
9.263256
9.2796957
9.2978143
9.3175936
9.3390163
9.3620655
9.3867249
9.4129791
9.4408132
9.470213
9.5011648
9.5336552
9.5676712
9.6031998
9.640228
9.6787422
9.7187287
9.7601734
9.8030619
9.84738
9.8931144
9.9402538
9.9887899
10.038719
10.090043
10.142772
10.19692
10.252512
10.309572
10.36813
10.428209
10.489828
10.552993
10.617697
10.683921
10.751632
10.820789
10.891345
10.963254
9.2213522
9.2161019
9.212726
9.2112067
9.2115276
9.2136716
9.2176275
9.2233753
9.2308974
9.2401753
9.2511908
9.2639252
9.2783602
9.2944776
9.3122599
9.3316896
9.3527503
9.3754259
9.399701
9.4255611
9.4529919
9.4819802
9.512513
9.5445775
9.5781613
9.6132518
9.6498362
9.6879013
9.7274332
9.7684174
9.8108393
9.8546841
9.8999383
9.9465904
9.9946328
10.044063
10.094887
10.147116
10.200772
10.255885
10.312487
10.370615
10.430297
10.491557
10.554402
10.618823
10.684796
10.752282
10.821236
10.891605
10.963338
9.2401885
9.2348455
9.2313515
9.2296894
9.2298439
9.2317978
9.2355414
9.2410555
9.2483232
9.2573271
9.2680496
9.2804731
9.2945802
9.3103537
9.3277766
9.3468328
9.3675065
9.3897826
9.4136466
9.4390848
9.466084
9.4946315
9.5247152
9.5563231
9.5894433
9.6240637
9.6601716
9.697754
9.7367967
9.7772849
9.8192035
9.862537
9.9072716
9.9533957
10.000902
10.049791
10.100069
10.151755
10.204875
10.259468
10.315574
10.373238
10.432495
10.493372
10.555879
10.620002
10.685713
10.752965
10.821705
10.891877
10.963425
9.260393
9.2549505
9.2513301
9.2495155
9.2494925
9.2512439
9.2547614
9.2600266
9.2670233
9.2757352
9.2861455
9.2982376
9.3119949
9.3274012
9.3444407
9.3630979
9.3833581
9.4052071
9.4286315
9.4536184
9.4801556
9.5082312
9.5378339
9.5689525
9.6015756
9.6356914
9.6712878
9.7083514
9.7468679
9.786822
9.8281978
9.8709794
9.9151519
9.9607039
10.007629
10.055929
10.105614
10.156708
10.209247
10.263274
10.318844
10.376006
10.434808
10.495278
10.557426
10.621237
10.686674
10.753682
10.822199
10.892163
10.963517
9.282059
9.2765102
9.2727551
9.2707782
9.270566
9.2721025
9.2753792
9.2803795
9.2870879
9.2954888
9.3055666
9.3173055
9.3306899
9.3457047
9.3623349
9.3805661
9.4003847
9.4217774
9.4447318
9.4692361
9.4952789
9.5228493
9.5519369
9.5825311
9.6146212
9.6481959
9.683243
9.7197492
9.7576998
9.7970789
9.8378696
9.8800551
9.92362
9.9685525
10.014847
10.062507
10.111548
10.161999
10.213904
10.267319
10.322307
10.37893
10.437243
10.49728
10.55905
10.622534
10.687684
10.754436
10.82272
10.892466
10.963614
9.3052885
9.2996267
9.2957286
9.2935794
9.2931663
9.2944744
9.2974952
9.3022139
9.3086155
9.3166855
9.3264092
9.3377719
9.3507589
9.3653561
9.3815496
9.3993262
9.4186731
9.4395782
9.4620303
9.4860183
9.5115321
9.5385619
9.5670978
9.5971302
9.6286489
9.661643
9.6961004
9.7320078
9.7693498
9.8081098
9.8482699
9.8898121
9.9327203
9.9769822
10.022593
10.069559
10.1179
10.167652
10.218869
10.271619
10.325977
10.382019
10.439808
10.499384
10.560756
10.623895
10.688746
10.755232
10.82327
10.892786
10.963716
9.330194
9.3244127
9.320363
9.3180311
9.3174049
9.3184708
9.3212197
9.325639
9.3317144
9.3394323
9.348779
9.3597407
9.3723041
9.3864559
9.4021835
9.4194746
9.4383177
9.4587018
9.4806167
9.5040526
9.5290004
9.5554512
9.5833962
9.6128265
9.6437325
9.6761037
9.7099281
9.7451921
9.7818797
9.8199734
9.859454
9.9003023
9.9425011
9.9860377
10.030908
10.077122
10.124703
10.173697
10.224167
10.276196
10.329873
10.385288
10.442515
10.501599
10.562549
10.625328
10.689866
10.756072
10.823853
10.893125
10.963825
9.3569
9.3509926
9.3467829
9.3442575
9.3434053
9.344214
9.346674
9.350775
9.3565033
9.3638462
9.3727912
9.3833256
9.3954371
9.4091137
9.4243438
9.4411163
9.459421
9.4792481
9.5005884
9.5234335
9.5477753
9.5736061
9.6009179
9.6297028
9.6599517
9.6916545
9.7247992
9.7593719
9.7953559
9.8327325
9.8714812
9.9115814
9.9530145
9.9957675
10.039837
10.085236
10.131993
10.180164
10.229825
10.281072
10.334012
10.38875
10.445374
10.503934
10.564436
10.626835
10.691046
10.75696
10.824471
10.893486
10.963941
9.3855452
9.379505
9.375126
9.3723956
9.3713034
9.3718387
9.3739914
9.3777535
9.3831119
9.3900552
9.3985717
9.4086501
9.4202792
9.4334481
9.4481465
9.4643646
9.4820934
9.5013244
9.5220498
9.5442623
9.567955
9.5931213
9.6197544
9.6478471
9.677391
9.7083764
9.7407912
9.7746211
9.8098487
9.8464539
9.8844147
9.9237088
9.9643162
10.006223
10.049428
10.093945
10.139812
10.187091
10.235874
10.286274
10.338416
10.392425
10.448399
10.506399
10.566426
10.628424
10.692291
10.757899
10.825124
10.893868
10.964064
9.4162838
9.4101033
9.4055449
9.4025966
9.4012489
9.4014928
9.4033177
9.4067181
9.4116815
9.4181978
9.4262565
9.4358473
9.4469604
9.4595862
9.4737156
9.4893403
9.5064525
9.5250451
9.5451116
9.5666461
9.589643
9.6140968
9.6400019
9.667352
9.6961392
9.7263543
9.7579852
9.7910171
9.8254315
9.8612072
9.8983202
9.9367466
9.9764646
10.01746
10.059732
10.103297
10.148201
10.194517
10.242351
10.291834
10.343113
10.396332
10.451607
10.509005
10.568525
10.630099
10.693604
10.75889
10.825816
10.894273
10.964194
9.4492859
9.4429569
9.4382073
9.4350259
9.4334047
9.4333363
9.4348103
9.4378231
9.4423634
9.4484221
9.4559902
9.4650585
9.4756186
9.4876622
9.5011817
9.5161701
9.5326211
9.550529
9.5698888
9.590696
9.6129464
9.6366357
9.6617595
9.6883124
9.7162873
9.7456752
9.7764642
9.8086386
9.8421794
9.8770634
9.9132652
9.9507584
9.98952
10.029535
10.070802
10.113342
10.157208
10.202484
10.249292
10.297784
10.34813
10.400496
10.455016
10.511766
10.570744
10.631867
10.694989
10.759936
10.826547
10.894701
10.964332
9.4847374
9.4782502
9.4732945
9.4698612
9.4679448
9.4675392
9.4686359
9.471231
9.4753161
9.4808828
9.4879233
9.4964301
9.5063959
9.517814
9.5306783
9.5449833
9.5607241
9.5778968
9.5964977
9.6165239
9.6379727
9.6608412
9.6851261
9.7108229
9.7379255
9.7664252
9.7963099
9.8275637
9.8601662
9.8940928
9.929316
9.9658075
10.003542
10.042503
10.082691
10.124131
10.16688
10.211037
10.25674
10.304162
10.3535
10.404943
10.458646
10.514697
10.573092
10.633733
10.696449
10.761038
10.827317
10.895153
10.964478
9.5228391
9.5161807
9.5109974
9.5072879
9.5050492
9.5042768
9.5049644
9.5071072
9.5107001
9.5157353
9.5222065
9.5301077
9.5394331
9.5501775
9.5623365
9.575906
9.5908831
9.6072651
9.6250504
9.6442374
9.6648249
9.6868117
9.7101956
9.7349732
9.7611393
9.7886855
9.8175997
9.8478654
9.8794613
9.9123611
9.9465352
9.981953
10.018587
10.05642
10.095453
10.135713
10.177265
10.22022
10.264735
10.311006
10.359255
10.409701
10.462522
10.517817
10.575582
10.635705
10.697988
10.762199
10.828128
10.89563
10.964632
9.5721225
9.5638207
9.5569498
9.5515065
9.547489
9.5448947
9.5437201
9.5439606
9.5456108
9.5486684
9.553127
9.5589815
9.5662276
9.574861
9.5848782
9.5962765
9.6090536
9.6232082
9.6387395
9.6556474
9.6739322
9.6935944
9.7146341
9.7370506
9.7608417
9.7860029
9.8125263
9.8403999
9.8696068
9.9001244
9.9319249
9.9649766
9.9992464
10.034705
10.071333
10.109132
10.148132
10.188406
10.230077
10.273318
10.318353
10.365431
10.414801
10.466666
10.521143
10.578228
10.637793
10.699612
10.763421
10.828982
10.896131
10.964794
9.6262394
9.6163497
9.6078502
9.6007328
9.5949935
9.59063
9.58764
9.5860208
9.5857693
9.5868803
9.5893533
9.5931838
9.5983682
9.6049037
9.6127879
9.622019
9.632596
9.6445185
9.6577871
9.6724027
9.6883672
9.7056826
9.7243511
9.7443744
9.7657533
9.7884868
9.8125713
9.8379996
9.8647596
9.8928339
9.9221991
9.9528256
9.9846796
10.017726
10.051932
10.087278
10.123765
10.161426
10.20034
10.240642
10.282526
10.326238
10.37206
10.420271
10.471104
10.524695
10.581043
10.640005
10.701327
10.764708
10.829879
10.896658
10.964965
9.6852672
9.6738633
9.663801
9.6550714
9.6476694
9.6415921
9.6368378
9.6334049
9.6312914
9.6304956
9.6310145
9.6328466
9.6359915
9.6404464
9.6462104
9.6532828
9.6616639
9.6713543
9.6823557
9.6946705
9.7083016
9.7232529
9.7395282
9.7571314
9.776066
9.7963344
9.8179367
9.8408705
9.865129
9.8907004
9.9175671
9.9457044
9.9750813
10.005662
10.037409
10.070287
10.104275
10.139372
10.175615
10.21309
10.251942
10.292384
10.334688
10.379167
10.426136
10.475858
10.528491
10.584041
10.642351
10.703138
10.766062
10.830822
10.897212
10.965145
9.7363858
9.7248402
9.7145683
9.7055669
9.6978343
9.6913697
9.6861723
9.6822418
9.6795776
9.678179
9.6780457
9.6791759
9.681572
9.6852332
9.6901602
9.6963543
9.7038176
9.7125527
9.7225635
9.733854
9.7464296
9.7602957
9.7754583
9.7919231
9.8096955
9.8287792
9.849176
9.8708843
9.8938982
9.9182063
9.9437904
9.9706251
9.9986782
10.027911
10.058285
10.089762
10.122317
10.155952
10.190704
10.226663
10.263987
10.302907
10.34372
10.386771
10.432413
10.480942
10.532544
10.587232
10.644839
10.70505
10.767488
10.831811
10.897792
10.965334
9.7909111
9.7791736
9.7686418
9.7593165
9.7511988
9.7442898
9.7385906
9.7341021
9.7308252
9.728761
9.7279106
9.7282748
9.7298556
9.7326562
9.7366786
9.7419259
9.7484024
9.7561127
9.7650625
9.7752582
9.7867069
9.7994163
9.8133943
9.8286485
9.8451861
9.8630126
9.8821311
9.9025414
9.9242383
9.9472107
9.9714404
9.9969013
10.02356
10.051376
10.080307
10.110313
10.14137
10.173474
10.206665
10.24104
10.276765
10.314088
10.353332
10.394876
10.439108
10.486365
10.53686
10.59062
10.647469
10.707063
10.768983
10.832847
10.8984
10.965531
9.8486981
9.8367089
9.8258578
9.816149
9.8075857
9.8001711
9.7939077
9.7887981
9.7848449
9.7820507
9.7804183
9.779951
9.7806515
9.7825251
9.7855765
9.7898106
9.7952333
9.8018517
9.8096733
9.8187066
9.8289608
9.8404456
9.853171
9.8671466
9.8823814
9.8988827
9.9166554
9.9357002
9.9560133
9.9775838
10.000394
10.024416
10.049617
10.075953
10.10338
10.131857
10.161355
10.19187
10.223443
10.256173
10.290237
10.325898
10.363504
10.403466
10.446213
10.49212
10.541435
10.594202
10.650239
10.709174
10.770544
10.833926
10.899032
10.965737
9.9093861
9.8970823
9.8858501
9.8756966
9.8666273
9.8586466
9.8517588
9.8459679
9.841278
9.8376934
9.8352188
9.8338592
9.83362
9.8345064
9.8365264
9.839687
9.843996
9.8494623
9.8560956
9.8639065
9.8729061
9.8831064
9.8945193
9.9071565
9.9210291
9.9361461
9.9525142
9.9701358
9.9890079
10.009121
10.030456
10.052987
10.076677
10.101483
10.127358
10.154258
10.18215
10.211031
10.24094
10.271979
10.304334
10.338281
10.374192
10.412509
10.453702
10.498189
10.546254
10.597965
10.653138
10.711372
10.772164
10.835042
10.899685
10.96595
9.9723594
9.9596834
9.9480141
9.937362
9.927734
9.9191357
9.9115725
9.9050497
9.899573
9.8951483
9.891782
9.8894809
9.8882522
9.8881039
9.8890438
9.8910825
9.8942296
9.8984958
9.903893
9.9104337
9.9181312
9.9269995
9.9370526
9.9483045
9.9607682
9.974455
9.9893735
10.005528
10.022916
10.04153
10.061352
10.082354
10.104499
10.127742
10.152033
10.177326
10.203585
10.230805
10.259023
10.288344
10.318958
10.351156
10.385331
10.421956
10.461539
10.504546
10.551301
10.601898
10.656156
10.713652
10.773837
10.836192
10.900357
10.966168
10.036738
10.023645
10.011498
10.00031
9.9900879
9.9808373
9.9725646
9.9652764
9.9589797
9.9536822
9.9493917
9.9461169
9.9438668
9.9426513
9.9424808
9.9433659
9.9453199
9.9483552
9.9524854
9.9577252
9.96409
9.9715958
9.9802589
9.9900956
10.001121
10.01335
10.026792
10.041454
10.057336
10.074431
10.092722
10.112181
10.132769
10.154439
10.17714
10.20082
10.225443
10.250999
10.277525
10.305125
10.333995
10.364435
10.396857
10.431764
10.469703
10.511185
10.556579
10.606012
10.65931
10.716029
10.775576
10.837384
10.901051
10.966394
10.101401
10.087866
10.075229
10.063494
10.052666
10.042752
10.033758
10.025693
10.018565
10.012384
10.007158
10.002899
9.9996167
9.9973234
9.9960314
9.9957539
9.9965044
9.9982985
10.001152
10.005081
10.010103
10.016237
10.023501
10.031913
10.041493
10.052256
10.064218
10.077387
10.091766
10.10735
10.124122
10.142054
10.161106
10.181228
10.202366
10.224464
10.247484
10.271411
10.29628
10.322197
10.349356
10.378068
10.408759
10.441957
10.478247
10.518184
10.562184
10.610409
10.662698
10.718591
10.777455
10.838671
10.9018
10.966637
10.17973
10.165004
10.151079
10.137978
10.125714
10.114295
10.10373
10.094027
10.085198
10.07725
10.070196
10.064047
10.058815
10.054513
10.051154
10.048753
10.047325
10.046886
10.047452
10.049042
10.051674
10.055367
10.060143
10.066021
10.073025
10.081175
10.090493
10.100998
10.112704
10.125617
10.139735
10.155043
10.17151
10.189095
10.207744
10.227399
10.248002
10.269508
10.291902
10.315214
10.339548
10.3651
10.392181
10.421227
10.452785
10.487469
10.525876
10.568465
10.615437
10.66665
10.721631
10.779711
10.840228
10.902707
10.966931
10.241314
10.226287
10.211994
10.198458
10.185694
10.173714
10.162529
10.152148
10.142584
10.133848
10.125953
10.118912
10.11274
10.107451
10.103061
10.099586
10.097044
10.095451
10.094828
10.095192
10.096565
10.098968
10.102424
10.106957
10.112593
10.119358
10.127281
10.136388
10.146701
10.158236
10.170993
10.184958
10.200099
10.216369
10.233711
10.252061
10.271356
10.291549
10.31262
10.334597
10.357577
10.38175
10.407422
10.435026
10.465113
10.498313
10.535249
10.576418
10.622056
10.672046
10.725915
10.782968
10.842511
10.904053
10.967374
10.299219
10.283916
10.269281
10.255342
10.242114
10.22961
10.217843
10.206825
10.196569
10.187088
10.178398
10.170514
10.163452
10.157228
10.151861
10.147369
10.143771
10.141086
10.139335
10.138538
10.138718
10.139896
10.142099
10.145354
10.149692
10.15515
10.161767
10.169588
10.178653
10.18899
10.200609
10.213491
10.227601
10.242884
10.259276
10.276706
10.295107
10.314427
10.334638
10.355758
10.37787
10.401143
10.425858
10.45242
10.481357
10.513282
10.548822
10.588494
10.632568