/*--------------------------------*- C++ -*----------------------------------*\
| =========                 |                                                 |
| \\      /  F ield         | OpenFOAM: The Open Source CFD Toolbox           |
|  \\    /   O peration     | Version:  2312                                  |
|   \\  /    A nd           | Website:  www.openfoam.com                      |
|    \\/     M anipulation  |                                                 |
\*---------------------------------------------------------------------------*/
FoamFile
{
    version     2.0;
    format      ascii;
    arch        "LSB;label=32;scalar=64";
    class       volScalarField;
    location    "0.06";
    object      N2;
}
// * * * * * * * * * * * * * * * * * * * * * * * * * * * * * * * * * * * * * //

dimensions      [0 0 0 0 0 0 0];

internalField   nonuniform List<scalar> 
3224
(
0.76342102
0.76373507
0.76403668
0.76432627
0.76460426
0.7648711
0.76512724
0.7653731
0.76560912
0.76583571
0.76605327
0.76626222
0.76646292
0.76665575
0.76684107
0.76701924
0.76719059
0.76735545
0.76751414
0.76766695
0.76781419
0.76795614
0.76809308
0.76822526
0.76835294
0.76847637
0.76859578
0.76871141
0.76882346
0.76893215
0.76903768
0.76914026
0.76924005
0.76933726
0.76943204
0.76952457
0.76961501
0.7697035
0.76979021
0.76987526
0.76995879
0.76342119
0.76373511
0.76403664
0.76432618
0.76460414
0.76487097
0.76512709
0.76537294
0.76560895
0.76583554
0.7660531
0.76626204
0.76646274
0.76665557
0.7668409
0.76701907
0.76719042
0.76735528
0.76751397
0.76766679
0.76781403
0.76795599
0.76809293
0.76822512
0.7683528
0.76847624
0.76859566
0.76871129
0.76882335
0.76893205
0.76903759
0.76914017
0.76923998
0.76933719
0.76943198
0.76952452
0.76961497
0.76970347
0.76979018
0.76987524
0.76995878
0.76342194
0.76373569
0.76403712
0.76432659
0.76460451
0.76487129
0.76512737
0.76537319
0.76560917
0.76583572
0.76605326
0.76626218
0.76646286
0.76665567
0.76684098
0.76701914
0.76719047
0.76735532
0.767514
0.76766681
0.76781405
0.76795599
0.76809293
0.76822511
0.76835279
0.76847622
0.76859564
0.76871127
0.76882333
0.76893202
0.76903757
0.76914015
0.76923995
0.76933717
0.76943196
0.7695245
0.76961495
0.76970346
0.76979017
0.76987524
0.76995878
0.76342326
0.76373681
0.76403814
0.76432752
0.76460535
0.76487206
0.76512808
0.76537384
0.76560977
0.76583628
0.76605377
0.76626264
0.76646328
0.76665606
0.76684133
0.76701945
0.76719076
0.76735558
0.76751423
0.76766702
0.76781423
0.76795616
0.76809307
0.76822524
0.7683529
0.76847632
0.76859573
0.76871134
0.76882339
0.76893208
0.76903761
0.76914018
0.76923998
0.76933719
0.76943198
0.76952451
0.76961496
0.76970346
0.76979018
0.76987524
0.76995878
0.76309907
0.76342503
0.76373849
0.76403969
0.76432896
0.76460669
0.7648733
0.76512923
0.76537491
0.76561076
0.76583719
0.76605462
0.76626343
0.76646401
0.76665673
0.76684195
0.76702002
0.76719128
0.76735606
0.76751467
0.76766742
0.7678146
0.76795649
0.76809337
0.7682255
0.76835314
0.76847654
0.76859592
0.76871151
0.76882353
0.7689322
0.76903772
0.76914028
0.76924006
0.76933725
0.76943203
0.76952456
0.76961499
0.76970349
0.76979019
0.76987525
0.76995878
0.76310113
0.76342722
0.76374058
0.76404165
0.76433079
0.7646084
0.7648749
0.76513073
0.76537631
0.76561206
0.7658384
0.76605574
0.76626447
0.76646498
0.76665762
0.76684278
0.76702079
0.76719199
0.76735671
0.76751527
0.76766797
0.7678151
0.76795695
0.76809379
0.76822588
0.76835349
0.76847685
0.76859619
0.76871176
0.76882375
0.7689324
0.76903789
0.76914042
0.76924018
0.76933736
0.76943212
0.76952463
0.76961505
0.76970353
0.76979022
0.76987526
0.76995879
0.76310375
0.76342975
0.763743
0.76404393
0.76433294
0.76461041
0.76487679
0.76513249
0.76537795
0.7656136
0.76583984
0.76605708
0.76626572
0.76646614
0.7666587
0.76684378
0.76702172
0.76719285
0.76735751
0.767516
0.76766864
0.76781572
0.76795751
0.76809431
0.76822635
0.76835391
0.76847723
0.76859654
0.76871207
0.76882403
0.76893264
0.7690381
0.76914061
0.76924034
0.76933749
0.76943223
0.76952472
0.76961512
0.76970358
0.76979026
0.76987528
0.7699588
0.76310702
0.76343284
0.76374594
0.76404672
0.76433556
0.76461288
0.7648791
0.76513466
0.76537998
0.76561549
0.76584161
0.76605874
0.76626726
0.76646758
0.76666004
0.76684502
0.76702287
0.76719392
0.7673585
0.76751692
0.76766948
0.76781649
0.76795823
0.76809496
0.76822695
0.76835446
0.76847772
0.76859698
0.76871246
0.76882438
0.76893295
0.76903838
0.76914085
0.76924055
0.76933767
0.76943237
0.76952483
0.76961521
0.76970365
0.7697903
0.76987531
0.7699588
0.76277215
0.76311085
0.76343652
0.76374946
0.76405005
0.7643387
0.76461583
0.76488187
0.76513726
0.76538242
0.76561778
0.76584375
0.76606074
0.76626913
0.76646932
0.76666167
0.76684653
0.76702427
0.76719522
0.7673597
0.76751803
0.76767051
0.76781744
0.7679591
0.76809576
0.76822768
0.76835512
0.76847832
0.76859753
0.76871295
0.76882482
0.76893334
0.76903872
0.76914114
0.76924081
0.76933789
0.76943256
0.76952498
0.76961533
0.76970374
0.76979036
0.76987534
0.76995882
0.76277663
0.76311533
0.76344085
0.76375358
0.76405396
0.76434239
0.76461931
0.76488514
0.76514033
0.7653853
0.76562048
0.76584628
0.76606311
0.76627135
0.76647138
0.76666359
0.76684833
0.76702594
0.76719677
0.76736114
0.76751936
0.76767174
0.76781858
0.76796014
0.76809671
0.76822855
0.76835592
0.76847905
0.76859818
0.76871354
0.76882535
0.76893381
0.76903913
0.76914151
0.76924112
0.76933815
0.76943278
0.76952516
0.76961547
0.76970384
0.76979044
0.76987539
0.76995883
0.76242932
0.76278196
0.76312055
0.76344587
0.76375837
0.7640585
0.76434668
0.76462335
0.76488895
0.76514391
0.76538866
0.76562363
0.76584923
0.76606587
0.76627393
0.7664738
0.76666585
0.76685043
0.7670279
0.76719859
0.76736283
0.76752093
0.76767319
0.76781991
0.76796137
0.76809784
0.76822958
0.76835686
0.7684799
0.76859895
0.76871424
0.76882597
0.76893437
0.76903962
0.76914193
0.76924149
0.76933847
0.76943304
0.76952538
0.76961564
0.76970397
0.76979053
0.76987544
0.76995884
0.7624358
0.76278818
0.76312658
0.76345165
0.76376388
0.76406372
0.76435161
0.764628
0.76489332
0.76514802
0.76539253
0.76562726
0.76585264
0.76606906
0.76627691
0.76647659
0.76666845
0.76685286
0.76703016
0.7672007
0.76736478
0.76752274
0.76767486
0.76782146
0.76796279
0.76809915
0.76823078
0.76835795
0.7684809
0.76859986
0.76871505
0.7688267
0.76893502
0.7690402
0.76914244
0.76924192
0.76933884
0.76943335
0.76952563
0.76961584
0.76970412
0.76979063
0.7698755
0.76995886
0.76207672
0.76244329
0.76279535
0.76313348
0.76345825
0.76377015
0.76406966
0.76435723
0.7646333
0.76489832
0.76515272
0.76539695
0.76563141
0.76585653
0.76607271
0.76628033
0.76647978
0.76667143
0.76685564
0.76703276
0.76720311
0.76736702
0.76752482
0.76767679
0.76782323
0.76796443
0.76810065
0.76823216
0.76835921
0.76848205
0.7686009
0.76871599
0.76882754
0.76893577
0.76904086
0.76914302
0.76924243
0.76933927
0.76943371
0.76952593
0.76961607
0.7697043
0.76979075
0.76987557
0.76995889
0.76208573
0.76245186
0.76280355
0.76314133
0.76346573
0.76377726
0.7640764
0.7643636
0.76463931
0.76490398
0.76515805
0.76540196
0.76563612
0.76586094
0.76607684
0.76628421
0.76648341
0.76667482
0.76685881
0.76703571
0.76720585
0.76736957
0.76752718
0.76767898
0.76782526
0.7679663
0.76810237
0.76823374
0.76836065
0.76848336
0.76860209
0.76871706
0.76882851
0.76893662
0.76904162
0.76914368
0.769243
0.76933976
0.76943413
0.76952627
0.76961634
0.7697045
0.76979089
0.76987565
0.76995891
0.76171535
0.76209596
0.76246161
0.76281285
0.76315019
0.76347417
0.76378527
0.76408398
0.76437076
0.76464607
0.76491035
0.76516405
0.7654076
0.76564142
0.76586592
0.76608151
0.76628858
0.7664875
0.76667865
0.76686238
0.76703904
0.76720895
0.76737246
0.76752986
0.76768146
0.76782755
0.76796841
0.76810432
0.76823552
0.76836229
0.76848484
0.76860343
0.76871828
0.7688296
0.7689376
0.76904248
0.76914444
0.76924366
0.76934032
0.76943459
0.76952665
0.76961664
0.76970473
0.76979105
0.76987574
0.76995894
0.76172752
0.76210751
0.76247261
0.76282332
0.76316016
0.76348364
0.76379425
0.76409248
0.76437879
0.76465364
0.76491749
0.76517077
0.76541392
0.76564736
0.7658715
0.76608675
0.76629348
0.76649209
0.76668294
0.76686639
0.76704278
0.76721244
0.7673757
0.76753287
0.76768425
0.76783013
0.76797079
0.76810651
0.76823753
0.76836412
0.76848652
0.76860495
0.76871965
0.76883083
0.7689387
0.76904345
0.76914529
0.7692444
0.76934095
0.76943512
0.76952708
0.76961699
0.76970499
0.76979123
0.76987584
0.76995898
0.76134635
0.76174118
0.7621205
0.76248495
0.76283505
0.76317131
0.76349421
0.76380427
0.76410196
0.76438775
0.7646621
0.76492546
0.76517828
0.76542098
0.765654
0.76587773
0.76609259
0.76629897
0.76649723
0.76668774
0.76687087
0.76704696
0.76721634
0.76737933
0.76753624
0.76768737
0.76783302
0.76797346
0.76810896
0.76823979
0.76836618
0.7684884
0.76860666
0.76872119
0.76883221
0.76893993
0.76904454
0.76914625
0.76924523
0.76934166
0.76943572
0.76952757
0.76961737
0.76970528
0.76979143
0.76987596
0.76995901
0.76136245
0.76175647
0.76213501
0.76249873
0.76284813
0.76318372
0.76350598
0.76381541
0.76411249
0.7643977
0.76467149
0.76493431
0.76518662
0.76542883
0.76566138
0.76588467
0.7660991
0.76630506
0.76650294
0.76669309
0.76687587
0.76705162
0.76722068
0.76738337
0.76753999
0.76769085
0.76783624
0.76797643
0.7681117
0.7682423
0.76836848
0.76849049
0.76860856
0.76872291
0.76883376
0.76894131
0.76904576
0.76914732
0.76924615
0.76934245
0.76943639
0.76952812
0.76961781
0.7697056
0.76979165
0.76987609
0.76995905
0.76138056
0.76177351
0.76215116
0.76251405
0.76286267
0.76319749
0.76351903
0.76382776
0.76412417
0.76440872
0.76468189
0.76494412
0.76519586
0.76543753
0.76566955
0.76589235
0.76610631
0.76631182
0.76650927
0.76669901
0.76688141
0.76705679
0.7672255
0.76738785
0.76754416
0.76769471
0.76783981
0.76797973
0.76811474
0.76824509
0.76837104
0.76849283
0.76861068
0.76872482
0.76883548
0.76894284
0.76904712
0.76914851
0.76924719
0.76934333
0.76943713
0.76952872
0.76961829
0.76970597
0.7697919
0.76987624
0.7699591
0.76140067
0.76179242
0.76216907
0.76253102
0.76287875
0.76321273
0.76353345
0.7638414
0.76413706
0.7644209
0.76469338
0.76495496
0.76520606
0.76544713
0.76567859
0.76590084
0.76611428
0.7663193
0.76651627
0.76670557
0.76688753
0.76706251
0.76723083
0.76739281
0.76754877
0.76769899
0.76784377
0.76798339
0.76811811
0.76824819
0.76837387
0.76849541
0.76861303
0.76872695
0.76883738
0.76894454
0.76904863
0.76914983
0.76924833
0.76934431
0.76943795
0.7695294
0.76961882
0.76970637
0.76979218
0.7698764
0.76995915
0.76101671
0.76142268
0.76181328
0.76218883
0.76254975
0.76289649
0.76322953
0.76354935
0.76385644
0.76415128
0.76443432
0.76470605
0.76496689
0.76521731
0.76545772
0.76568855
0.7659102
0.76612306
0.76632754
0.766524
0.7667128
0.76689429
0.76706882
0.76723671
0.76739829
0.76755386
0.76770372
0.76784815
0.76798743
0.76812183
0.76825161
0.768377
0.76849827
0.76861562
0.76872929
0.76883949
0.76894642
0.76905029
0.76915129
0.7692496
0.76934539
0.76943885
0.76953014
0.76961941
0.76970681
0.76979249
0.76987658
0.76995921
0.7610421
0.76144687
0.76183623
0.7622106
0.76257037
0.76291602
0.76324801
0.76356684
0.76387298
0.7641669
0.76444907
0.76471996
0.76498002
0.76522967
0.76546936
0.76569949
0.76592048
0.76613273
0.7663366
0.76653249
0.76672075
0.76690173
0.76707576
0.76724319
0.76740432
0.76755946
0.76770892
0.76785296
0.76799188
0.76812593
0.76825537
0.76838046
0.76850141
0.76861848
0.76873188
0.76884181
0.7689485
0.76905213
0.7691529
0.76925099
0.76934658
0.76943985
0.76953096
0.76962006
0.7697073
0.76979283
0.76987677
0.76995927
0.76021377
0.76065051
0.76106994
0.7614734
0.76186143
0.76223449
0.76259301
0.76293745
0.7632683
0.76358603
0.76389112
0.76418404
0.76446526
0.76473523
0.76499441
0.76524324
0.76548213
0.76571151
0.76593178
0.76614333
0.76634655
0.76654182
0.76672948
0.76690989
0.76708339
0.7672503
0.76741094
0.76756562
0.76771463
0.76785826
0.76799677
0.76813044
0.76825952
0.76838425
0.76850488
0.76862163
0.76873472
0.76884437
0.76895077
0.76905414
0.76915466
0.76925252
0.76934789
0.76944095
0.76953185
0.76962077
0.76970783
0.76979319
0.76987699
0.76995934
0.75979584
0.76024771
0.7606825
0.76110048
0.76150247
0.76188904
0.76226067
0.76261781
0.76296093
0.76329052
0.76360704
0.76391098
0.7642028
0.76448297
0.76475195
0.76501018
0.76525809
0.76549611
0.76572466
0.76594414
0.76615494
0.76635745
0.76655203
0.76673904
0.76691884
0.76709175
0.7672581
0.76741821
0.76757238
0.7677209
0.76786406
0.76800214
0.76813538
0.76826406
0.76838841
0.76850868
0.76862508
0.76873784
0.76884717
0.76895327
0.76905636
0.7691566
0.7692542
0.76934932
0.76944215
0.76953284
0.76962154
0.76970842
0.7697936
0.76987722
0.76995942
0.75983503
0.76028489
0.76071769
0.76113395
0.76153429
0.76191924
0.7622893
0.76264493
0.76298661
0.76331481
0.76363001
0.76393269
0.76422331
0.76450234
0.76477022
0.7650274
0.76527432
0.7655114
0.76573904
0.76595766
0.76616764
0.76636937
0.7665632
0.76674951
0.76692863
0.76710089
0.76726663
0.76742615
0.76757977
0.76772776
0.76787042
0.76800801
0.7681408
0.76826904
0.76839298
0.76851284
0.76862886
0.76874125
0.76885024
0.76895601
0.76905878
0.76915872
0.76925603
0.76935089
0.76944346
0.7695339
0.76962239
0.76970905
0.76979404
0.76987748
0.7699595
0.75987798
0.76032557
0.76075625
0.76117057
0.76156905
0.76195222
0.76232055
0.76267453
0.76301463
0.76334132
0.76365508
0.76395639
0.7642457
0.76452347
0.76479016
0.76504621
0.76529204
0.76552808
0.76575474
0.76597242
0.76618151
0.76638238
0.7665754
0.76676093
0.76693932
0.76711088
0.76727595
0.76743484
0.76758785
0.76773526
0.76787737
0.76801443
0.76814672
0.76827448
0.76839796
0.76851739
0.76863299
0.76874499
0.76885359
0.768959
0.76906142
0.76916103
0.76925803
0.76935259
0.76944488
0.76953507
0.76962331
0.76970974
0.76979452
0.76987776
0.76995959
0.75992488
0.76037
0.76079837
0.76121053
0.76160697
0.76198817
0.76235462
0.76270679
0.76304517
0.76337021
0.76368241
0.76398221
0.76427009
0.7645465
0.76481189
0.7650667
0.76531135
0.76554627
0.76577185
0.76598851
0.76619662
0.76639657
0.76658871
0.7667734
0.76695097
0.76712177
0.76728612
0.76744431
0.76759666
0.76774344
0.76788495
0.76802145
0.76815319
0.76828043
0.76840341
0.76852236
0.7686375
0.76874906
0.76885725
0.76896226
0.7690643
0.76916355
0.76926021
0.76935444
0.76944643
0.76953633
0.7696243
0.76971049
0.76979503
0.76987806
0.76995969
0.75997595
0.76041842
0.76084427
0.76125407
0.76164825
0.76202731
0.7623917
0.76274191
0.7630784
0.76340166
0.76371214
0.76401031
0.76429664
0.76457157
0.76483554
0.765089
0.76533237
0.76556606
0.76579048
0.76600603
0.76621308
0.76641202
0.76660319
0.76678697
0.76696367
0.76713364
0.76729719
0.76745463
0.76760626
0.76775236
0.76789322
0.76802909
0.76816023
0.7682869
0.76840934
0.76852777
0.76864242
0.76875351
0.76886123
0.76896581
0.76906743
0.76916629
0.76926257
0.76935645
0.7694481
0.76953769
0.76962537
0.76971129
0.76979559
0.76987838
0.76995979
0.76003147
0.76047106
0.7608942
0.76130141
0.76169314
0.76206985
0.76243201
0.76278008
0.76311453
0.76343583
0.76374446
0.76404086
0.76432549
0.76459881
0.76486125
0.76511324
0.76535521
0.76558758
0.76581073
0.76602507
0.76623097
0.76642881
0.76661895
0.76680173
0.76697749
0.76714655
0.76730924
0.76746587
0.76761671
0.76776207
0.76790221
0.7680374
0.7681679
0.76829396
0.7684158
0.76853367
0.76864777
0.76875834
0.76886557
0.76896967
0.76907083
0.76916926
0.76926513
0.76935862
0.76944991
0.76953916
0.76962653
0.76971216
0.76979618
0.76987872
0.7699599
0.76009171
0.76052821
0.7609484
0.76135281
0.76174187
0.76211604
0.76247576
0.76282151
0.76315374
0.76347293
0.76377954
0.76407402
0.76435682
0.76462838
0.76488916
0.76513956
0.76538002
0.76561094
0.76583272
0.76604575
0.76625041
0.76644706
0.76663606
0.76681776
0.76699249
0.76716058
0.76732234
0.76747807
0.76762807
0.76777262
0.76791199
0.76804645
0.76817625
0.76830163
0.76842283
0.76854007
0.76865359
0.76876359
0.76887027
0.76897385
0.76907452
0.76917247
0.76926789
0.76936096
0.76945185
0.76954074
0.76962776
0.76971308
0.76979682
0.76987909
0.76996002
0.760157
0.76059016
0.76100717
0.76140855
0.76179471
0.76216611
0.7625232
0.76286643
0.76319626
0.76351316
0.76381758
0.76410997
0.76439079
0.76466046
0.76491943
0.76516811
0.76540693
0.76563629
0.76585658
0.76606819
0.7662715
0.76646686
0.76665464
0.76683517
0.76700878
0.76717581
0.76733656
0.76749133
0.76764041
0.76778408
0.76792261
0.76805627
0.76818531
0.76830995
0.76843045
0.76854703
0.7686599
0.76876928
0.76887537
0.76897838
0.76907851
0.76917594
0.76927087
0.76936348
0.76945394
0.76954243
0.76962909
0.76971406
0.76979749
0.76987948
0.76996015
0.76022767
0.76065724
0.76107081
0.76146891
0.76185194
0.76222035
0.76257458
0.76291508
0.76324232
0.76355674
0.76385879
0.76414892
0.76442759
0.76469521
0.76495222
0.76519904
0.76543609
0.76566375
0.76588243
0.76609251
0.76629435
0.76648832
0.76667477
0.76685404
0.76702645
0.76719233
0.76735198
0.7675057
0.76765379
0.76779651
0.76793414
0.76806693
0.76819513
0.76831899
0.76843873
0.76855458
0.76866675
0.76877545
0.7688809
0.76898329
0.76908282
0.76917968
0.76927408
0.76936618
0.76945618
0.76954423
0.76963049
0.76971511
0.76979821
0.7698799
0.76996028
0.76030408
0.76072977
0.76113964
0.76153419
0.76191384
0.76227902
0.76263017
0.76296773
0.76329215
0.76360389
0.76390338
0.76419108
0.76446741
0.76473282
0.76498772
0.76523253
0.76546765
0.76569349
0.76591043
0.76611884
0.7663191
0.76651157
0.76669658
0.76687447
0.76704558
0.76721022
0.76736869
0.76752128
0.76766829
0.76780998
0.76794663
0.76807848
0.76820579
0.76832879
0.7684477
0.76856275
0.76867416
0.76878213
0.76888687
0.76898858
0.76908747
0.76918371
0.76927752
0.76936908
0.76945856
0.76954615
0.76963198
0.76971621
0.76979896
0.76988033
0.76996042
0.7603866
0.76080812
0.761214
0.76160474
0.76198074
0.76234243
0.76269025
0.76302463
0.76334602
0.76365486
0.76395159
0.76423665
0.76451048
0.76477349
0.76502611
0.76526874
0.76550179
0.76572565
0.76594071
0.76614733
0.76634588
0.76653671
0.76672018
0.76689659
0.76706629
0.76722959
0.76738677
0.76753815
0.76768399
0.76782457
0.76796016
0.768091
0.76821733
0.76833939
0.76845741
0.7685716
0.76868218
0.76878935
0.76889333
0.7689943
0.76909247
0.76918804
0.76928121
0.76937217
0.7694611
0.76954818
0.76963356
0.76971737
0.76979975
0.76988079
0.76996057
0.76047564
0.76089267
0.76129426
0.76168088
0.76205295
0.76241089
0.76275511
0.76308607
0.76340419
0.7637099
0.76400366
0.76428588
0.76455699
0.76481742
0.76506758
0.76530786
0.76553868
0.76576041
0.76597343
0.76617812
0.76637483
0.7665639
0.76674569
0.76692051
0.76708869
0.76725053
0.76740634
0.76755639
0.76770098
0.76784036
0.76797479
0.76810453
0.76822981
0.76835087
0.76846791
0.76858117
0.76869085
0.76879716
0.76890029
0.76900045
0.76909785
0.76919269
0.76928516
0.76937547
0.7694638
0.76955033
0.76963521
0.76971859
0.76980058
0.76988126
0.76996072
0.76057162
0.76098383
0.7613808
0.761763
0.76213084
0.76248473
0.76282509
0.76315235
0.76346695
0.7637693
0.76405985
0.76433901
0.7646072
0.76486485
0.76511235
0.7653501
0.76557851
0.76579794
0.76600877
0.76621137
0.76640609
0.76659327
0.76677325
0.76694635
0.76711289
0.76727317
0.76742748
0.76757611
0.76771934
0.76785742
0.76799062
0.76811917
0.76824331
0.76836327
0.76847927
0.76859151
0.76870021
0.76880557
0.76890779
0.76900708
0.76910364
0.76919767
0.76928938
0.76937898
0.76946666
0.7695526
0.76963695
0.76971986
0.76980143
0.76988175
0.76996088
0.76067498
0.76108201
0.76147401
0.76185146
0.76221476
0.7625643
0.7629005
0.7632238
0.7635346
0.76383333
0.76412043
0.76439629
0.76466134
0.76491599
0.76516063
0.76539567
0.76562147
0.76583843
0.7660469
0.76624725
0.76643983
0.76662497
0.766803
0.76697425
0.76713902
0.76729761
0.76745031
0.76759741
0.76773917
0.76787585
0.76800771
0.76813498
0.76825789
0.76837667
0.76849153
0.76860268
0.76871032
0.76881465
0.76891588
0.76901421
0.76910984
0.769203
0.76929389
0.76938271
0.76946968
0.76955498
0.76963877
0.76972118
0.76980232
0.76988225
0.76996104
0.76078618
0.76118765
0.76157433
0.76194668
0.76230509
0.76264996
0.76298171
0.76330073
0.76360746
0.76390231
0.76418568
0.76445801
0.76471968
0.7649711
0.76521267
0.76544478
0.76566779
0.76588208
0.76608802
0.76628595
0.76647621
0.76665915
0.76683509
0.76700434
0.7671672
0.76732398
0.76747495
0.76762039
0.76776057
0.76789575
0.76802616
0.76815205
0.76827363
0.76839113
0.76850476
0.76861472
0.76872121
0.76882443
0.76892458
0.76902186
0.7691165
0.7692087
0.76929869
0.76938668
0.76947288
0.76955749
0.76964067
0.76972255
0.76980323
0.76988277
0.7699612
0.76090571
0.76130122
0.7616822
0.76204908
0.76240225
0.76274211
0.76306906
0.76338351
0.76368586
0.76397653
0.76425592
0.76452444
0.76478248
0.76503044
0.76526871
0.76549766
0.76571767
0.7659291
0.7661323
0.76632763
0.76651542
0.76669599
0.76686968
0.76703677
0.76719759
0.76735241
0.76750152
0.76764518
0.76778366
0.76791721
0.76804606
0.76817046
0.76829061
0.76840673
0.76851903
0.7686277
0.76873294
0.76883495
0.76893393
0.76903009
0.76912363
0.76921479
0.7693038
0.76939088
0.76947625
0.76956011
0.76964264
0.76972397
0.76980417
0.7698833
0.76996137
0.76103407
0.76142321
0.76179806
0.76215908
0.76250665
0.76284114
0.76316296
0.7634725
0.76377016
0.76405635
0.76433146
0.76459589
0.76485004
0.76509428
0.765329
0.76555457
0.76577135
0.76597971
0.76617998
0.76637251
0.76655763
0.76673567
0.76690692
0.76707171
0.76723032
0.76738304
0.76753014
0.76767189
0.76780854
0.76794034
0.76806752
0.7681903
0.76830891
0.76842354
0.76853441
0.76864169
0.76874558
0.76884628
0.76894399
0.76903891
0.76913128
0.76922131
0.76930924
0.76939533
0.76947981
0.76956287
0.7696447
0.76972543
0.76980514
0.76988385
0.76996155
0.76117179
0.7615541
0.76192242
0.76227717
0.76261872
0.76294747
0.76326379
0.76356807
0.76386071
0.7641421
0.76441263
0.76467268
0.76492265
0.76516291
0.76539382
0.76561576
0.76582908
0.76603414
0.76623126
0.76642079
0.76660305
0.76677835
0.76694701
0.76710932
0.76726556
0.76741602
0.76756096
0.76770065
0.76783533
0.76796525
0.76809062
0.76821168
0.76832862
0.76844165
0.76855097
0.76865675
0.76875918
0.76885847
0.7689548
0.76904839
0.76913947
0.76922827
0.76931505
0.76940007
0.76948357
0.76956577
0.76964685
0.76972695
0.76980613
0.7698844
0.76996172
0.7613194
0.76169442
0.76205575
0.7624038
0.76273894
0.76306154
0.76337197
0.76367063
0.76395789
0.76423414
0.76449977
0.76475514
0.76500063
0.76523661
0.76546345
0.7656815
0.76589112
0.76609263
0.76628638
0.76647269
0.76665188
0.76682426
0.76699012
0.76714976
0.76730346
0.76745149
0.76759412
0.7677316
0.76786416
0.76799206
0.76811549
0.76823469
0.76834984
0.76846115
0.76856879
0.76867295
0.76877382
0.76887157
0.76896642
0.76905856
0.76914825
0.76923572
0.76932125
0.7694051
0.76948755
0.76956882
0.76964911
0.76972854
0.76980716
0.76988497
0.7699619
0.76147747
0.76184471
0.76219858
0.76253947
0.76286776
0.76318379
0.76348795
0.7637806
0.76406211
0.76433287
0.76459324
0.7648436
0.7650843
0.76531572
0.76553819
0.76575208
0.76595772
0.76615544
0.76634558
0.76652844
0.76670434
0.76687357
0.76703644
0.76719322
0.7673442
0.76748963
0.76762977
0.76776487
0.76789517
0.76802089
0.76814224
0.76825944
0.76837267
0.76848212
0.76858796
0.76869038
0.76878956
0.76888566
0.7689789
0.76906949
0.76915767
0.7692437
0.76932787
0.76941047
0.76949178
0.76957205
0.76965148
0.7697302
0.76980824
0.76988557
0.76996209
0.76164658
0.76200553
0.76235144
0.7626847
0.76300568
0.76331471
0.76361216
0.76389839
0.76417377
0.76443866
0.76469343
0.76493843
0.76517402
0.76540054
0.76561835
0.76582779
0.76602917
0.76622284
0.7664091
0.76658827
0.76676064
0.76692652
0.76708618
0.7672399
0.76738795
0.76753059
0.76766807
0.76780062
0.76792849
0.76805187
0.76817099
0.76828604
0.7683972
0.76850466
0.76860858
0.76870912
0.76880647
0.7689008
0.76899231
0.76908122
0.76916778
0.76925226
0.76933496
0.76941621
0.76949629
0.76957549
0.769654
0.76973195
0.76980937
0.76988619
0.76996229
0.76182733
0.76217744
0.76251488
0.76284002
0.7631532
0.76345477
0.76374508
0.76402447
0.76429331
0.76455194
0.76480072
0.76504
0.76527012
0.76549143
0.76570425
0.76590892
0.76610577
0.76629509
0.76647721
0.76665243
0.76682103
0.76698331
0.76713953
0.76728998
0.7674349
0.76757455
0.76770917
0.767839
0.76796425
0.76808514
0.76820186
0.76831461
0.76842355
0.76852887
0.76863072
0.76872925
0.76882465
0.76891707
0.76900672
0.76909383
0.76917864
0.76926145
0.76934258
0.76942237
0.76950113
0.76957917
0.76965668
0.76973381
0.76981057
0.76988685
0.7699625
0.76202034
0.76236104
0.76268946
0.76300596
0.76331086
0.76360448
0.76388718
0.76415929
0.76442115
0.76467311
0.76491551
0.76514868
0.76537298
0.76558871
0.76579621
0.7659958
0.76618779
0.76637248
0.76655018
0.76672117
0.76688574
0.76704417
0.76719672
0.76734365
0.76748523
0.76762168
0.76775325
0.76788015
0.76800261
0.76812082
0.76823498
0.76834526
0.76845183
0.76855485
0.76865448
0.76875086
0.76884416
0.76893455
0.76902221
0.76910738
0.76919032
0.76927134
0.76935078
0.769429
0.76950634
0.76958313
0.76965958
0.76973582
0.76981186
0.76988757
0.76996272
0.76222624
0.76255691
0.76287577
0.76318308
0.76347917
0.76376435
0.76403895
0.7643033
0.76455774
0.7648026
0.7650382
0.76526488
0.76548295
0.76569275
0.76589457
0.76608874
0.76627554
0.76645529
0.76662826
0.76679474
0.766955
0.76710932
0.76725794
0.76740113
0.76753912
0.76767216
0.76780045
0.76792424
0.7680437
0.76815905
0.76827046
0.7683781
0.76848213
0.7685827
0.76867996
0.76877404
0.7688651
0.7689533
0.76903884
0.76912194
0.76920289
0.76928199
0.76935962
0.76943616
0.76951198
0.76958742
0.76966272
0.76973801
0.76981327
0.76988834
0.76996297
0.76211356
0.76244547
0.76276563
0.76307436
0.76337194
0.76365867
0.76393488
0.76420088
0.76445699
0.76470353
0.76494083
0.7651692
0.76538895
0.76560041
0.76580387
0.76599965
0.76618803
0.76636932
0.76654379
0.76671172
0.76687338
0.76702905
0.76717897
0.76732341
0.76746259
0.76759676
0.76772614
0.76785095
0.76797139
0.76808766
0.76819995
0.76830843
0.76841325
0.76851457
0.76861252
0.76870724
0.76879887
0.76888754
0.76897342
0.76905669
0.76913759
0.76921641
0.76929347
0.76936917
0.76944391
0.76951809
0.76959209
0.76966615
0.7697404
0.76981482
0.7698892
0.76996324
0.76202647
0.76235847
0.76267882
0.76298784
0.76328583
0.76357308
0.7638499
0.76411659
0.76437345
0.7646208
0.76485896
0.76508822
0.76530889
0.76552128
0.7657257
0.76592242
0.76611176
0.76629399
0.76646939
0.76663823
0.76680079
0.76695733
0.76710809
0.76725334
0.7673933
0.76752821
0.7676583
0.76778379
0.76790487
0.76802175
0.76813461
0.76824364
0.76834898
0.7684508
0.76854922
0.76864439
0.76873641
0.76882542
0.76891156
0.76899496
0.76907583
0.76915439
0.76923095
0.76930584
0.76937948
0.7694523
0.76952474
0.76959719
0.76966991
0.76974304
0.76981653
0.76989016
0.76996354
0.76196887
0.76229962
0.76261886
0.76292693
0.76322413
0.76351073
0.76378704
0.76405334
0.76430993
0.7645571
0.76479516
0.7650244
0.76524513
0.76545763
0.7656622
0.76585912
0.76604869
0.76623117
0.76640685
0.76657598
0.76673885
0.76689569
0.76704676
0.76719231
0.76733257
0.76746777
0.76759814
0.76772389
0.76784522
0.76796233
0.76807542
0.76818465
0.7682902
0.76839221
0.76849082
0.76858617
0.76867837
0.76876753
0.76885377
0.76893721
0.76901799
0.76909631
0.7691724
0.76924656
0.76931916
0.76939062
0.76946141
0.76953199
0.76960277
0.76967405
0.76974596
0.76981844
0.76989122
0.76996388
0.76227291
0.76258958
0.7628953
0.76319035
0.76347501
0.76374956
0.76401426
0.76426941
0.7645153
0.7647522
0.7649804
0.76520019
0.76541186
0.76561569
0.76581195
0.76600092
0.76618288
0.76635809
0.76652681
0.76668929
0.76684579
0.76699656
0.76714183
0.76728183
0.76741679
0.76754693
0.76767246
0.76779359
0.76791051
0.76802341
0.76813246
0.76823784
0.76833969
0.76843816
0.76853338
0.76862546
0.76871451
0.76880063
0.76888393
0.76896453
0.76904255
0.76911818
0.76919167
0.7692633
0.76933347
0.76940263
0.76947126
0.76953986
0.76960887
0.7696786
0.76974919
0.76982056
0.76989242
0.76996426
0.76259499
0.7628968
0.76318821
0.76346947
0.76374087
0.76400264
0.76425507
0.76449842
0.76473297
0.76495899
0.76517675
0.76538653
0.7655886
0.76578323
0.76597069
0.76615123
0.76632512
0.76649261
0.76665395
0.76680938
0.76695914
0.76710346
0.76724257
0.76737669
0.76750603
0.76763081
0.76775121
0.76786744
0.76797968
0.76808811
0.76819289
0.76829417
0.76839211
0.76848683
0.76857845
0.76866708
0.76875281
0.76883573
0.76891593
0.76899352
0.76906864
0.76914145
0.76921219
0.76928118
0.76934881
0.76941554
0.76948189
0.7695484
0.76961552
0.76968359
0.76975275
0.76982292
0.76989374
0.76996469
0.76293537
0.76322149
0.76349777
0.76376446
0.76402183
0.76427011
0.76450955
0.76474043
0.76496299
0.7651775
0.76538422
0.76558341
0.76577533
0.76596023
0.76613837
0.76631
0.76647535
0.76663468
0.76678821
0.76693618
0.7670788
0.76721631
0.76734891
0.76747681
0.76760021
0.76771931
0.7678343
0.76794535
0.76805265
0.76815635
0.76825662
0.76835359
0.76844739
0.76853816
0.76862599
0.76871098
0.7687932
0.76887276
0.76894971
0.76902416
0.76909623
0.76916609
0.76923397
0.76930019
0.76936516
0.76942935
0.76949332
0.76955761
0.76962273
0.76968903
0.76975666
0.76982552
0.76989521
0.76996516
0.7632939
0.76356346
0.76382378
0.7640751
0.76431766
0.7645517
0.76477745
0.76499515
0.76520507
0.76540743
0.7656025
0.76579052
0.76597173
0.76614637
0.76631469
0.76647691
0.76663327
0.76678399
0.76692929
0.76706939
0.7672045
0.76733483
0.76746057
0.76758192
0.76769907
0.7678122
0.76792148
0.76802709
0.76812919
0.76822793
0.76832345
0.76841589
0.76850536
0.76859198
0.76867583
0.768757
0.76883557
0.7689116
0.76898516
0.76905633
0.76912524
0.76919203
0.76925694
0.76932029
0.76938248
0.76944403
0.76950551
0.76956748
0.76963049
0.76969492
0.76976091
0.76982835
0.76989683
0.76996568
0.7636698
0.76392193
0.76416544
0.76440058
0.76462756
0.76484661
0.76505795
0.76526181
0.76545842
0.76564802
0.76583085
0.76600712
0.76617708
0.76634095
0.76649895
0.76665129
0.76679821
0.7669399
0.76707657
0.76720843
0.76733566
0.76745847
0.76757703
0.76769152
0.76780212
0.76790901
0.76801233
0.76811225
0.76820892
0.76830247
0.76839304
0.76848075
0.7685657
0.76864799
0.7687277
0.76880491
0.76887968
0.76895205
0.76902209
0.76908988
0.7691555
0.76921913
0.76928097
0.76934136
0.7694007
0.76945952
0.76951841
0.76957798
0.76963878
0.76970123