/*--------------------------------*- C++ -*----------------------------------*\
| =========                 |                                                 |
| \\      /  F ield         | OpenFOAM: The Open Source CFD Toolbox           |
|  \\    /   O peration     | Version:  2312                                  |
|   \\  /    A nd           | Website:  www.openfoam.com                      |
|    \\/     M anipulation  |                                                 |
\*---------------------------------------------------------------------------*/
FoamFile
{
    version     2.0;
    format      ascii;
    arch        "LSB;label=32;scalar=64";
    class       volScalarField;
    location    "0.06";
    object      nut;
}
// * * * * * * * * * * * * * * * * * * * * * * * * * * * * * * * * * * * * * //

dimensions      [0 2 -1 0 0 0 0];

internalField   nonuniform List<scalar> 
3224
(
0.049966322
0.050402203
0.050839371
0.051277717
0.051717117
0.052157436
0.052598605
0.053040559
0.053483239
0.053926593
0.054370576
0.054815154
0.055260298
0.055705988
0.056152211
0.056598961
0.05704624
0.057494055
0.057942417
0.058391344
0.058840859
0.059290987
0.059741757
0.060193201
0.060645355
0.061098256
0.061551941
0.06200645
0.062461826
0.062918108
0.063375339
0.063833561
0.064292813
0.064753138
0.065214573
0.065677156
0.066140921
0.0666059
0.067072117
0.067539594
0.068008356
0.049967612
0.050403679
0.050840961
0.051279373
0.051718814
0.05215916
0.052600347
0.053042312
0.053484999
0.053928357
0.054372342
0.054816918
0.055262059
0.055707743
0.05615396
0.056600702
0.057047971
0.057495774
0.057944124
0.058393038
0.058842538
0.05929265
0.059743403
0.060194829
0.060646963
0.061099843
0.061553506
0.062007993
0.062463344
0.062919602
0.063376807
0.063835001
0.064294226
0.064754522
0.065215927
0.065678479
0.066142212
0.066607157
0.067073339
0.067540773
0.068009455
0.04996958
0.050405817
0.050843175
0.051281622
0.051721078
0.052161427
0.052602608
0.053044563
0.053487235
0.053930575
0.054374539
0.054819093
0.055264208
0.055709866
0.056156054
0.056602766
0.057050004
0.057497775
0.05794609
0.058394968
0.058844431
0.059294504
0.059745217
0.060196603
0.060648695
0.061101531
0.061555149
0.06200959
0.062464895
0.062921105
0.063378261
0.063836406
0.06429558
0.064755824
0.065217177
0.065679676
0.066143354
0.066608244
0.067074369
0.067541745
0.068010313
0.049972246
0.05040861
0.050845995
0.051284443
0.051723885
0.052164212
0.052605365
0.053047286
0.053489922
0.053933221
0.054377143
0.054821652
0.055266721
0.05571233
0.056158468
0.056605128
0.057052313
0.057500028
0.057948287
0.058397108
0.058846511
0.059296524
0.059747174
0.060198496
0.060650523
0.061103293
0.061556845
0.062011217
0.062466452
0.062922591
0.063379676
0.063837749
0.06429685
0.06475702
0.065218299
0.065680722
0.066144324
0.066609136
0.067075183
0.067542484
0.068010918
0.049540376
0.049975741
0.050412053
0.050849409
0.05128782
0.051727221
0.0521675
0.052608601
0.053050466
0.053493042
0.053936279
0.054380136
0.054824579
0.055269579
0.055715118
0.056161184
0.056607771
0.05705488
0.057502518
0.057950699
0.058399439
0.058848761
0.05929869
0.059749256
0.060200492
0.060652432
0.061105113
0.061558575
0.062012856
0.062467999
0.062924045
0.063381036
0.063839014
0.06429802
0.064758094
0.065219276
0.065681601
0.066145105
0.066609818
0.067075766
0.067542971
0.068011263
0.049544787
0.04997971
0.050415901
0.050853181
0.051291525
0.051730859
0.052171069
0.052612097
0.053053887
0.053496386
0.053939544
0.05438332
0.054827679
0.055272594
0.055718046
0.056164023
0.05661052
0.057057537
0.057505082
0.057953168
0.058401812
0.058851036
0.059300866
0.059751331
0.060202465
0.060654301
0.061106878
0.061560233
0.062014408
0.062469443
0.06292538
0.063382261
0.063840128
0.064299024
0.064758987
0.065220057
0.06568227
0.066145662
0.066610261
0.067076095
0.067543191
0.06801134
0.049549294
0.049984019
0.050420066
0.050857241
0.051295493
0.051734741
0.052174865
0.052615806
0.053057507
0.053499914
0.053942979
0.054386659
0.054830922
0.055275738
0.055721091
0.056166966
0.056613359
0.057060272
0.057507711
0.057955689
0.058404223
0.058853337
0.059303054
0.059753407
0.060204425
0.060656145
0.061108604
0.061561841
0.062015896
0.06247081
0.062926626
0.063383385
0.06384113
0.064299902
0.064759742
0.065220688
0.065682778
0.066146045
0.06661052
0.067076227
0.067543198
0.068011202
0.04955439
0.049988989
0.050424866
0.050861902
0.051300031
0.051739168
0.052179182
0.052620013
0.053061603
0.053503897
0.053946848
0.054390412
0.054834557
0.055279254
0.055724485
0.056170238
0.056616507
0.057063293
0.057510605
0.057958453
0.058406857
0.058855838
0.059305422
0.059755639
0.06020652
0.060658102
0.061110422
0.061563518
0.06201743
0.062472202
0.062927874
0.063384488
0.063842088
0.064300716
0.06476041
0.065221212
0.065683157
0.066146278
0.066610607
0.067076167
0.06754299
0.068010833
0.049127267
0.049560306
0.049994669
0.050430338
0.050867201
0.051305178
0.051744176
0.052184055
0.052624752
0.053066207
0.053508366
0.05395118
0.054394606
0.05483861
0.055283165
0.055728252
0.05617386
0.056619981
0.057066619
0.057513779
0.057961476
0.058409725
0.05885855
0.059307977
0.059758035
0.060208756
0.060660176
0.061112331
0.061565263
0.062019009
0.062473614
0.062929118
0.063385565
0.063842996
0.064301455
0.064760981
0.065221614
0.065683391
0.066146344
0.066610505
0.067075895
0.067542546
0.068010211
0.049134525
0.049567036
0.050001098
0.050436523
0.05087318
0.051310973
0.051749804
0.052189521
0.052630058
0.053071354
0.053513353
0.053956005
0.054399268
0.054843107
0.055287496
0.055732415
0.056177852
0.056623802
0.057070266
0.057517251
0.05796477
0.05841284
0.058861485
0.059310728
0.059760602
0.060211137
0.060662369
0.061114336
0.061567076
0.062020631
0.062475043
0.062930353
0.063386606
0.063843844
0.064302108
0.064761441
0.065221881
0.065683465
0.066146226
0.066610194
0.06707539
0.067541845
0.068009312
0.048712834
0.049142546
0.049574593
0.050008315
0.050443462
0.05087988
0.051317458
0.051756091
0.052195619
0.052635969
0.053077079
0.053518891
0.053961355
0.054404429
0.054848078
0.055292274
0.055736999
0.056182239
0.056627991
0.057074254
0.057521037
0.057968352
0.058416216
0.058864652
0.059313686
0.059763348
0.060213669
0.060664686
0.061116436
0.061568958
0.062022293
0.062476484
0.062931574
0.063387605
0.06384462
0.064302664
0.064761776
0.065221996
0.065683361
0.066145904
0.066609653
0.067074631
0.067540864
0.06800811
0.048722036
0.049151392
0.049583004
0.050016362
0.0504512
0.050887347
0.051324677
0.051763081
0.052202389
0.052642524
0.053083419
0.053525016
0.053967265
0.054410121
0.054853551
0.055297527
0.055742028
0.056187044
0.056632569
0.057078604
0.057525156
0.057972238
0.058419867
0.058868066
0.059316861
0.059766281
0.060216359
0.060667131
0.061118634
0.061570908
0.062023994
0.062477934
0.062932772
0.063388551
0.063845316
0.064303108
0.064761971
0.065221942
0.06568306
0.066145357
0.066608862
0.067073594
0.067539578
0.068006578
0.048305754
0.048732143
0.049161124
0.049592308
0.050025282
0.050459783
0.050895628
0.051332678
0.051770818
0.052209877
0.052649765
0.053090415
0.053531767
0.053973769
0.054416378
0.054859559
0.055303284
0.055747533
0.056192294
0.056637561
0.057083337
0.057529627
0.057976445
0.058423808
0.058871739
0.059320263
0.05976941
0.060219213
0.060669708
0.061120932
0.061572925
0.062025729
0.062479386
0.062933941
0.063389436
0.063845917
0.064303428
0.064762009
0.065221702
0.065682543
0.066144565
0.066607795
0.067072254
0.067537962
0.068004688
0.048317144
0.048743212
0.049171799
0.049602552
0.050035125
0.050469262
0.050904772
0.051341509
0.051779351
0.052218126
0.052657735
0.053098108
0.053539182
0.053980906
0.054423236
0.054866135
0.055309577
0.055753541
0.056198014
0.056642992
0.057088475
0.05753447
0.057980991
0.058428055
0.058875683
0.059323903
0.059772743
0.060222237
0.06067242
0.061123331
0.061575009
0.062027496
0.062480835
0.062935071
0.063390248
0.063846412
0.064303606
0.064761873
0.065221254
0.065681786
0.066143501
0.066606427
0.067070582
0.067535985
0.06800241
0.047906701
0.048329602
0.048755307
0.049183477
0.049613792
0.050045945
0.050479689
0.050914833
0.051351222
0.051788729
0.052227187
0.052666482
0.053106542
0.053547305
0.053988716
0.054430732
0.054873316
0.05531644
0.055760083
0.056204234
0.056648887
0.057094042
0.057539708
0.057985895
0.058432624
0.058879914
0.059327793
0.05977629
0.060225437
0.060675272
0.061125832
0.061577157
0.062029289
0.062482273
0.062936153
0.063390975
0.063846784
0.064303626
0.064761543
0.065220578
0.065680766
0.066142142
0.06660473
0.067068551
0.067533617
0.067999711
0.047920618
0.048343182
0.048768491
0.049196225
0.049626087
0.050057798
0.050491122
0.050925866
0.051361871
0.051799006
0.05223711
0.052676055
0.053115766
0.05355618
0.053997242
0.054438907
0.054881138
0.055323907
0.055767193
0.056210984
0.056655274
0.057100064
0.057545361
0.057991178
0.058437532
0.058884446
0.059331945
0.059780059
0.060228821
0.060678267
0.061128436
0.061579368
0.062031106
0.062483694
0.062937177
0.063391604
0.063847019
0.064303468
0.064760998
0.065219648
0.065679457
0.066140457
0.066602675
0.067066127
0.067530825
0.067996557
0.047516704
0.047935775
0.048357954
0.048782836
0.049210112
0.049639502
0.050070747
0.050503621
0.05093793
0.051373515
0.05181024
0.05224795
0.052686505
0.053125829
0.053565855
0.054006528
0.054447803
0.054889642
0.055332016
0.055774905
0.056218296
0.056662184
0.057106568
0.057551456
0.057996861
0.0584428
0.058889295
0.059336372
0.059784061
0.060232395
0.06068141
0.061131144
0.06158164
0.062032939
0.062485087
0.062938131
0.063392119
0.063847097
0.064303113
0.064760212
0.065218438
0.065677829
0.066138417
0.066600228
0.067063278
0.067527574
0.06799291
0.047533526
0.047952215
0.048373989
0.048798419
0.049225213
0.049654108
0.05008486
0.050517251
0.05095109
0.051386216
0.051822489
0.052259765
0.052697889
0.053136784
0.05357638
0.054016623
0.054457466
0.054898871
0.055340808
0.055783257
0.056226205
0.056669647
0.057113582
0.057558017
0.058002966
0.058448445
0.058894477
0.059341087
0.059788306
0.060236166
0.060684703
0.061133957
0.061583969
0.062034783
0.062486445
0.062939002
0.063392504
0.063846999
0.064302536
0.064759162
0.065216922
0.065675853
0.066135989
0.066597355
0.067059966
0.067523826
0.067988732
0.047551594
0.047970015
0.04839137
0.048815322
0.049241607
0.04966998
0.050100209
0.050532082
0.050965413
0.051400038
0.051835817
0.052272615
0.052710266
0.053148686
0.05358781
0.054027578
0.054467944
0.054908869
0.055350324
0.055792288
0.056234748
0.056677697
0.057121136
0.057565073
0.058009518
0.058454491
0.058900011
0.059346107
0.059792806
0.060240143
0.060688153
0.061136876
0.061586354
0.062036631
0.062487756
0.062939775
0.063392741
0.063846704
0.064301714
0.064757819
0.065215066
0.065673495
0.066133137
0.066594019
0.067056153
0.067519539
0.06798398
0.047571133
0.04798929
0.048410193
0.048833634
0.04925938
0.049687199
0.05011687
0.050548189
0.050980971
0.051415053
0.051850294
0.052286565
0.052723696
0.053161597
0.0536002
0.054039447
0.054479288
0.054919686
0.055360611
0.055802041
0.056243963
0.056686371
0.057129265
0.057572652
0.058016544
0.058460958
0.058905917
0.059351445
0.059797573
0.060244333
0.060691763
0.061139901
0.06158879
0.062038477
0.062489008
0.062940436
0.063392811
0.063846188
0.064300618
0.064756153
0.065212839
0.065670718
0.066129823
0.066590178
0.067051795
0.067514671
0.067978611
0.047177584
0.047592464
0.048010167
0.04843056
0.04885345
0.04927862
0.049705849
0.050134926
0.050565649
0.050997839
0.051431334
0.05186599
0.052301683
0.052738246
0.053175579
0.053613612
0.054052286
0.054491553
0.054931372
0.055371715
0.05581256
0.056253892
0.056695706
0.057138002
0.057580787
0.058024071
0.058467873
0.058912214
0.05935712
0.05980262
0.060248747
0.060695538
0.061143032
0.061591275
0.062040311
0.06249019
0.062940966
0.063392693
0.063845426
0.064299221
0.06475413
0.065210203
0.065667483
0.066126004
0.066585789
0.067046848
0.067509174
0.067972575
0.047201329
0.047615605
0.048032754
0.048452575
0.048874868
0.049299422
0.049726022
0.050154463
0.050584548
0.0510161
0.051448959
0.051882981
0.052318043
0.052753988
0.0531907
0.05362811
0.054066159
0.054504796
0.054943983
0.05538369
0.055823893
0.056264581
0.056705745
0.057147386
0.05758951
0.05803213
0.058475261
0.058918926
0.059363149
0.059807961
0.060253393
0.060699483
0.061146272
0.061593803
0.062042125
0.062491288
0.062941349
0.063392363
0.06384439
0.064297489
0.064751714
0.065207119
0.065663748
0.066121635
0.066580804
0.067041262
0.067502998
0.067965822
0.046410506
0.046816644
0.04722703
0.047640634
0.048057153
0.048476345
0.048897993
0.049321886
0.049747814
0.050175573
0.050604974
0.05103584
0.051468012
0.051901348
0.052335724
0.052770994
0.053207031
0.053643763
0.054081129
0.054519081
0.054957578
0.055396589
0.055836094
0.056276076
0.056716531
0.057157457
0.05759886
0.058040753
0.058483151
0.058926076
0.059369553
0.059813611
0.060258283
0.060703605
0.06114962
0.061596371
0.062043909
0.062492287
0.062941562
0.063391796
0.06384305
0.064295386
0.064748866
0.065203543
0.065659465
0.066116667
0.066575171
0.067034984
0.067496088
0.067958295
0.046037466
0.046439333
0.04684511
0.047254742
0.047667637
0.048083471
0.048501979
0.048922933
0.049346118
0.049771325
0.050198356
0.050627022
0.051057149
0.051488581
0.051921176
0.052354808
0.052789346
0.053224648
0.053660642
0.054097267
0.054534472
0.054972218
0.055410473
0.055849215
0.056288431
0.056728112
0.057168258
0.057608876
0.058049976
0.058491575
0.058933692
0.059376354
0.059819588
0.060263428
0.060707911
0.061153078
0.061598975
0.062045653
0.062493169
0.062941584
0.063390963
0.063841371
0.064292876
0.064745542
0.065199428
0.065654583
0.066111045
0.066568834
0.067027955
0.067488384
0.067949935
0.046069037
0.046470377
0.046875632
0.047284553
0.047696715
0.048111818
0.048529592
0.0489498
0.049372227
0.049796664
0.050222914
0.050650792
0.051080127
0.051510762
0.051942556
0.052375383
0.052809127
0.053243633
0.053678827
0.054114646
0.054551041
0.054987971
0.055425404
0.055863318
0.056301699
0.056740539
0.057179837
0.0576196
0.058059837
0.058500564
0.058941802
0.059383575
0.059825911
0.060268843
0.060712407
0.061156646
0.061601608
0.062047346
0.062493919
0.062941392
0.063389833
0.063839317
0.064289914
0.064741694
0.06519472
0.065649047
0.06610471
0.066561732
0.067020112
0.067479821
0.067940674
0.046102907
0.046503723
0.046908377
0.047316581
0.047727984
0.048142314
0.048559303
0.048978715
0.04940033
0.049823943
0.050249357
0.050676391
0.051104875
0.051534653
0.051965585
0.052397547
0.052830426
0.053264072
0.0536984
0.054133347
0.054568864
0.055004908
0.05544145
0.055878466
0.056315941
0.056753867
0.057192245
0.057631078
0.058070377
0.058510157
0.058950438
0.059391243
0.059832599
0.06027454
0.060717102
0.061160328
0.061604267
0.062048975
0.062494515
0.062940957
0.063388374
0.063836847
0.064286453
0.06473727
0.065189364
0.065642794
0.066097598
0.066553796
0.067011386
0.06747033
0.067930442
0.046139262
0.046539506
0.046943502
0.047350961
0.047761574
0.048175086
0.048591241
0.049009802
0.04943055
0.049853282
0.050277803
0.050703933
0.051131503
0.051560362
0.051990368
0.052421397
0.05285334
0.053286058
0.05371945
0.054153454
0.054588021
0.055023108
0.055458684
0.055894727
0.056331221
0.056768158
0.057205537
0.057643362
0.058081643
0.058520394
0.058959634
0.059399386
0.059839676
0.060280537
0.060722005
0.061164124
0.061606945
0.062050527
0.062494937
0.06294025
0.063386548
0.063833917
0.064282444
0.064732211
0.065183295
0.065635756
0.066089636
0.066544952
0.067001698
0.06745983
0.067919158
0.046178276
0.046577885
0.046981168
0.047387843
0.047797624
0.048210271
0.048625539
0.049043193
0.049463017
0.049884807
0.050308374
0.050733536
0.05116013
0.051588001
0.052017012
0.052447039
0.052877973
0.053309689
0.053742072
0.054175059
0.0546086
0.055042652
0.055477186
0.055912176
0.056347609
0.056783475
0.057219772
0.057656506
0.058093683
0.058531318
0.058969429
0.059408036
0.059847167
0.060286851
0.060727127
0.061168038
0.061609638
0.062051989
0.062495162
0.062939241
0.063384314
0.063830478
0.064277827
0.064726455
0.065176444
0.065627859
0.066080745
0.066535118
0.066990965
0.067448234
0.067906733
0.04622012
0.046619026
0.047021539
0.047427382
0.047836284
0.048248015
0.048662341
0.049079029
0.049497867
0.049918654
0.050341201
0.05076533
0.051190877
0.051617692
0.052045637
0.052474588
0.052904436
0.053335073
0.053766368
0.054198259
0.054630694
0.055063631
0.055497039
0.055930894
0.05636518
0.056799889
0.057235018
0.05767057
0.058106553
0.058542979
0.058979864
0.059417229
0.059855099
0.060293504
0.06073248
0.061172073
0.061612339
0.062053344
0.062495165
0.062937894
0.063381628
0.063826475
0.064272542
0.064719931
0.065168732
0.065619019
0.066070837
0.0665242
0.066979091
0.067435447
0.067893071
0.046264969
0.046663104
0.047064785
0.047469741
0.047877711
0.048288471
0.048701796
0.049117457
0.049535246
0.049954963
0.050376423
0.050799449
0.051223879
0.051649564
0.052076367
0.052504165
0.052932848
0.05336232
0.053792448
0.05422316
0.054654405
0.055086142
0.055518337
0.055950968
0.056384017
0.056817477
0.057251344
0.05768562
0.058120311
0.058555429
0.058990987
0.059427005
0.059863505
0.060300518
0.060738079
0.061176235
0.061615043
0.062054577
0.062494919
0.062936171
0.063378442
0.063821851
0.064266519
0.06471256
0.065160076
0.065609144
0.066059814
0.066512098
0.066965971
0.06742136
0.06787806
0.046313001
0.046710297
0.047111084
0.047515094
0.047922073
0.048331802
0.048744064
0.049158634
0.049575307
0.049993886
0.050414187
0.050836038
0.051259276
0.051683754
0.052109336
0.0525359
0.052963338
0.053391555
0.05382043
0.054249877
0.054679843
0.055110288
0.055541179
0.055972492
0.056404211
0.056836325
0.057268831
0.057701729
0.058135025
0.058568728
0.05900285
0.059437407
0.059872421
0.06030792
0.06074394
0.061180529
0.061617747
0.062055671
0.062494396
0.062934032
0.063374702
0.063816541
0.064259684
0.06470426
0.065150381
0.065598134
0.066047569
0.066498698
0.066951488
0.067405852
0.067861579
0.0463644
0.04676079
0.047160618
0.047563619
0.047969545
0.04837818
0.048789314
0.049202726
0.049618213
0.050035583
0.050454652
0.050875251
0.051297219
0.051720409
0.052144688
0.052569935
0.052996041
0.053422912
0.053850443
0.054278532
0.054707127
0.055136185
0.055565675
0.055995572
0.056425859
0.056856524
0.057287564
0.057718978
0.058150768
0.058582942
0.05901551
0.059448485
0.059881887
0.060315742
0.060750084
0.061184964
0.061620445
0.062056611
0.062493567
0.062931434
0.063370353
0.063810476
0.064251955
0.064694936
0.065139544
0.065585875
0.066033983
0.066483875
0.06693551
0.067388788
0.067843488
0.046419357
0.046814773
0.047213575
0.047615503
0.048020312
0.048427787
0.048837726
0.04924991
0.049664139
0.050080224
0.050497985
0.050917253
0.051337869
0.051759689
0.05218258
0.05260642
0.053031104
0.053456535
0.053882626
0.05430926
0.054736385
0.055163957
0.055591944
0.056020321
0.056449069
0.056878178
0.05730764
0.057737455
0.058167622
0.058598146
0.059029034
0.059460297
0.059891951
0.060324019
0.060756536
0.061189553
0.061623138
0.062057382
0.0624924
0.062928332
0.063365335
0.063803582
0.064243245
0.064684489
0.065127455
0.065572248
0.066018925
0.06646749
0.066917892
0.067370019
0.067823634
0.046478069
0.046872445
0.047270156
0.047670943
0.048074568
0.048480815
0.048889488
0.049300371
0.049713269
0.050127993
0.050544366
0.050962221
0.051381402
0.051801764
0.052223177
0.05264552
0.053068687
0.053492583
0.053917127
0.054342208
0.05476776
0.055193741
0.055620117
0.056046864
0.056473961
0.056901398
0.057329165
0.057757259
0.058185677
0.058614422
0.059043496
0.059472906
0.059902665
0.060332793
0.060763325
0.061194311
0.061625826
0.062057969
0.062490868
0.062924681
0.063359587
0.063795781
0.064233461
0.064672812
0.065113994
0.065557121
0.066002254
0.066449393
0.066898478
0.067349379
0.067801848
0.046540744
0.046934013
0.047330566
0.047730146
0.048132519
0.048537466
0.048944802
0.049354312
0.049765801
0.050179085
0.050593988
0.051010346
0.051428004
0.051846819
0.052266662
0.052687412
0.053108965
0.053531225
0.053954114
0.054377536
0.054801407
0.055225686
0.055650339
0.056075339
0.056500667
0.05692631
0.057352256
0.0577785
0.058205037
0.058631864
0.059058979
0.059486386
0.059914092
0.060342115
0.060770488
0.061199261
0.061628516
0.062058362
0.062488942
0.062920435
0.063353045
0.063786994
0.064222507
0.064659795
0.065099035
0.065540354
0.065983818
0.066429422
0.066877094
0.067326689
0.067777945
0.046607597
0.046999695
0.047395023
0.047793328
0.04819438
0.048597959
0.049003885
0.049411945
0.049821947
0.05023371
0.05064706
0.051061834
0.051477879
0.051895055
0.052313231
0.05273229
0.053152126
0.053572647
0.05399377
0.05441542
0.054837497
0.055259958
0.055682768
0.0561059
0.056529333
0.056953053
0.057377046
0.057801303
0.058225816
0.058650576
0.059075579
0.059500821
0.059926305
0.060352044
0.060778068
0.061204432
0.06163122
0.062058555
0.062486599
0.062915552
0.063345648
0.06377714
0.064210285
0.064645321
0.065082447
0.065521803
0.065963459
0.066407406
0.06685356
0.067301759
0.067751727
0.046678854
0.047069718
0.047463758
0.047860723
0.048260385
0.048662524
0.049066967
0.0494735
0.049881937
0.050292096
0.050703807
0.051116908
0.051531248
0.051946689
0.0523631
0.052780365
0.05319838
0.053617051
0.054036298
0.054456051
0.054876217
0.055296738
0.05571758
0.056138716
0.056560122
0.056981782
0.05740368
0.057825805
0.058248142
0.058670679
0.059093404
0.059516308
0.059939386
0.060362648
0.060786121
0.061209861
0.061633959
0.062058552
0.062483821
0.062909994
0.063337339
0.063766144
0.0641967
0.064629278
0.0650641
0.065501322
0.065941017
0.066383171
0.06682769
0.067274393
0.067722991
0.046754755
0.047144327
0.047537017
0.047932575
0.048330781
0.04873141
0.049134295
0.049539226
0.049946017
0.050354489
0.050764474
0.051175811
0.051588352
0.052001959
0.052416503
0.052831869
0.053247953
0.053664662
0.054081916
0.054499645
0.054917775
0.055336228
0.055754971
0.056173974
0.056593213
0.057012669
0.057432324
0.057852161
0.058272161
0.058692307
0.059112578
0.059532957
0.059953434
0.060374011
0.060794714
0.061215598
0.061636765
0.062058363
0.0624806
0.062903734
0.063328068
0.063753934
0.064181662
0.064611557
0.065043869
0.065478769
0.065916334
0.066356547
0.066799299
0.067244396
0.067691531
0.046835555
0.047223779
0.047615059
0.04800915
0.048405833
0.048804886
0.04920614
0.049609392
0.050014457
0.050421158
0.050829328
0.051238809
0.051649454
0.052061126
0.052473698
0.052887056
0.053301095
0.053715724
0.054130863
0.054546441
0.054962398
0.05537865
0.055795155
0.056211882
0.056628807
0.057045906
0.057463159
0.057880544
0.058298036
0.058715611
0.059133239
0.059550895
0.059968561
0.060386232
0.060803928
0.061221709
0.061639683
0.062058016
0.062476941
0.062896753
0.063317798
0.063740452
0.064165092
0.064592061
0.065021639
0.065454013
0.065889266
0.066327374
0.066768217
0.067211585
0.067657156
0.046921527
0.047308353
0.047698169
0.048090734
0.04848583
0.04888324
0.049282792
0.04968429
0.050087548
0.050492394
0.05089866
0.051306192
0.051714842
0.052124476
0.052534968
0.052946204
0.053358081
0.053770508
0.054183405
0.054596702
0.05501034
0.05542425
0.055838371
0.056252672
0.056667125
0.057081706
0.057496389
0.057911148
0.05832595
0.058740762
0.059155547
0.059570269
0.059984899
0.060399425
0.060813864
0.061228275
0.061642776
0.062057553
0.062472868
0.062889056
0.06330651
0.06372566
0.064146932
0.064570714
0.064997317
0.065426946
0.065859689
0.066295516
0.066734296
0.067175803
0.067619699
0.047012966
0.047398348
0.047786652
0.048177636
0.048571086
0.04896679
0.049364569
0.049764238
0.050165611
0.050568516
0.050972789
0.051378275
0.051784831
0.052192321
0.052600621
0.053009619
0.053419212
0.05382931
0.054239832
0.05465071
0.055061883
0.055473297
0.055884881
0.056296596
0.056708414
0.057120305
0.057532241
0.057944187
0.058356105
0.058767952
0.059179681
0.059591243
0.060002599
0.060413728
0.060824641
0.061235399
0.061646129
0.062057039
0.062468424
0.062880664
0.063294208
0.06370954
0.064127147
0.064547464
0.064970836
0.065397488
0.065827513
0.066260873
0.066697426
0.067136931
0.067579034
0.04711019
0.047494091
0.047880838
0.048270192
0.048661941
0.049055877
0.049451817
0.049849584
0.050248993
0.050649872
0.05105206
0.051455405
0.051859763
0.052265
0.052670994
0.053077633
0.053484816
0.053892452
0.054300462
0.054708776
0.055117335
0.055526086
0.055934971
0.056343933
0.05675294
0.057161961
0.05757096
0.057979898
0.058388727
0.058797395
0.05920584
0.059614004
0.060021833
0.060429297
0.0608364
0.061243204
0.061649848
0.062056563
0.06246368
0.062871631
0.063280923
0.063692109
0.064105736
0.064522295
0.064942169
0.065365603
0.065792693
0.066223394
0.066657551
0.067094907
0.067535093
0.047213546
0.047595935
0.047981088
0.048368767
0.048758764
0.049150874
0.04954491
0.049940704
0.050338069
0.050736838
0.05113685
0.051537955
0.051940009
0.052342882
0.052746452
0.053150608
0.053555248
0.053960284
0.054365636
0.054771236
0.055177022
0.055582944
0.055988952
0.056394984
0.056800997
0.057206955
0.057612819
0.058018541
0.058424064
0.058829323
0.059234247
0.05963876
0.060042796
0.060446313
0.060849307
0.061251842
0.061654069
0.062056242
0.062458737
0.062862039
0.063266723
0.063673416
0.064082736
0.064495234
0.064911334
0.065331303
0.065755238
0.066183087
0.066614678
0.067049737
0.067487879
0.047323405
0.047704262
0.04808779
0.048473756
0.048861952
0.049252181
0.04964425
0.050037999
0.050433244
0.050829817
0.05122756
0.051626324
0.052025968
0.052426361
0.052827384
0.053228926
0.053630887
0.054033178
0.054435721
0.054838448
0.055241297
0.055644216
0.056047158
0.056450071
0.056852895
0.057255589
0.057658107
0.058060393
0.058462381
0.058863993
0.059265142
0.05966574
0.060065704
0.060464978
0.060863552
0.061261489
0.061658953
0.062056227
0.062453729
0.062852008
0.063251715
0.063653556
0.064058231
0.064466356
0.064878402
0.065294657
0.065715221
0.066140027
0.066568884
0.067001502
0.067437473
0.047440163
0.047819477
0.048201359
0.048585577
0.048971927
0.049360221
0.049750262
0.050141896
0.050534941
0.050929232
0.051324611
0.051720932
0.052118054
0.052515849
0.052914198
0.05331299
0.053712129
0.054111525
0.054511101
0.054910788
0.055310526
0.055710261
0.056109946
0.056509532
0.056908963
0.05730818
0.05770713
0.058105749
0.05850396
0.058901673
0.059298786
0.059695191
0.060090792
0.060485516
0.060879347
0.061272347
0.061664691
0.062056695
0.062448825
0.062841696
0.063236044
0.063632667
0.06403235
0.064435786
0.064843497
0.065255795
0.065672775
0.066094356
0.066520323
0.066950361
0.067384039
0.047564233
0.04794201
0.048322226
0.048704662
0.049089124
0.049475427
0.049863382
0.050252829
0.050643596
0.051035516
0.051428435
0.051822207
0.052216693
0.052611766
0.053007308
0.053403211
0.053799378
0.054195722
0.054592164
0.054988638
0.055385082
0.055781443
0.056177672
0.05657372
0.056969534
0.057365051
0.057760201
0.058154912
0.058549095
0.058942646
0.059335447
0.059727373
0.06011831
0.06050817
0.060896925
0.06128464
0.061671501
0.062057857
0.062444226
0.062831299
0.0632199
0.063610929
0.064005272
0.064403703
0.064806801
0.065214902
0.065628098
0.066046284
0.066469216
0.066896546
0.067327814
0.047696047
0.048072302
0.048450825
0.048831441
0.049213969
0.049598229
0.049984037
0.050371225
0.050759633
0.051149093
0.051539453
0.051930566
0.052322298
0.052714522
0.053107121
0.053499989
0.053893029
0.054286156
0.054679292
0.055072371
0.055465332
0.05585812
0.056250686
0.056642979
0.057034945
0.057426521
0.05781763
0.058208181
0.058598075
0.058987193
0.059375399
0.059762552
0.060148516
0.06053319
0.060916534
0.06129861
0.061679622
0.062059949
0.062440167
0.062821045
0.063203509
0.063588569
0.06397722
0.06437033
0.064768541
0.065172215
0.065581439
0.065996074
0.066415839
0.066840346
0.067269094
0.047463907
0.047836159
0.048210773
0.04858755
0.048966304
0.049346852
0.049729015
0.050112613
0.050497471
0.050883439
0.051270347
0.051658045
0.052046389
0.052435246
0.052824489
0.053214004
0.053603686
0.05399344
0.054383181
0.054772833
0.055162329
0.05555161
0.05594062
0.056329309
0.056717624
0.057105509
0.057492896
0.057879706
0.05826584
0.058651176
0.059035583
0.059418906
0.059800985
0.060181665
0.060560829
0.060938423
0.06131451
0.061689306
0.062063225
0.062436903
0.062811194
0.06318713
0.063565845
0.063948455
0.064335931
0.064728987
0.065128014
0.065533087
0.065944031
0.066360512
0.066782092
0.067208217
0.047245831
0.047614039
0.047984738
0.048357691
0.048732692
0.049109549
0.049488074
0.049868088
0.050249414
0.050631874
0.051015318
0.051399583
0.051784517
0.052169979
0.052555837
0.052941967
0.053328256
0.053714599
0.054100904
0.054487086
0.054873072
0.055258794
0.055644194
0.056029216
0.056413809
0.056797918
0.057181484
0.057564436
0.057946687
0.05832813
0.058708637
0.059088052
0.059466201
0.059842906
0.060217993
0.060591324
0.060962836
0.061332587
0.061700809
0.062067949
0.062434706
0.062802022
0.063171047
0.063543045
0.063919267
0.0643008
0.064688438
0.065082604
0.065483359
0.065890482
0.066303575
0.066722135
0.067145542
0.047041595
0.047405846
0.047772688
0.048141871
0.048513173
0.048886389
0.049261324
0.049637791
0.05001561
0.050394604
0.050774601
0.05115544
0.051536971
0.051919042
0.052301511
0.052684249
0.053067134
0.053450054
0.053832906
0.0542156
0.054598052
0.054980189
0.055361946
0.055743265
0.056124089
0.056504367
0.056884042
0.057263051
0.057641321
0.058018757
0.058395245
0.058770642
0.059144781
0.059517472
0.059888509
0.060257698
0.060624884
0.060989991
0.061353073
0.061714374
0.062074379
0.062433846
0.062793814
0.063155554
0.063520472
0.063889966
0.064265251
0.064647212
0.065036309
0.065432588
0.06583577
0.066245381
0.066660835
0.067081432
0.047211033
0.047574185
0.04793973
0.048307444
0.048677118
0.049048551
0.049421553
0.049795936
0.050171522
0.050548135
0.050925607
0.051303771
0.051682486
0.052061599
0.052440971
0.052820475
0.053199989
0.053579404
0.05395862
0.054337546
0.054716102
0.055094215
0.055471822
0.055848863
0.056225286
0.056601034
0.056976053
0.057350275
0.057723622
0.058095995
0.058467269
0.058837293
0.059205882
0.05957283
0.059937913
0.060300918
0.060661663
0.06102006
0.06137616
0.061730217
0.062082751