/*--------------------------------*- C++ -*----------------------------------*\
| =========                 |                                                 |
| \\      /  F ield         | OpenFOAM: The Open Source CFD Toolbox           |
|  \\    /   O peration     | Version:  2312                                  |
|   \\  /    A nd           | Website:  www.openfoam.com                      |
|    \\/     M anipulation  |                                                 |
\*---------------------------------------------------------------------------*/
FoamFile
{
    version     2.0;
    format      ascii;
    arch        "LSB;label=32;scalar=64";
    class       volScalarField;
    location    "0.06";
    object      O2;
}
// * * * * * * * * * * * * * * * * * * * * * * * * * * * * * * * * * * * * * //

dimensions      [0 0 0 0 0 0 0];

internalField   nonuniform List<scalar> 
3224
(
0.21496566
0.21558646
0.21618917
0.21677419
0.21734195
0.21789288
0.21842741
0.21894599
0.21944907
0.2199371
0.22041054
0.22086984
0.22131545
0.22174782
0.2221674
0.22257464
0.22296996
0.22335381
0.2237266
0.22408876
0.2244407
0.22478282
0.22511552
0.22543918
0.22575418
0.22606089
0.22635967
0.22665088
0.22693486
0.22721194
0.22748245
0.2277467
0.22800501
0.22825766
0.22850496
0.22874717
0.22898457
0.22921742
0.22944597
0.22967046
0.22989111
0.21496696
0.21558768
0.21619031
0.21677527
0.21734296
0.21789382
0.21842829
0.21894682
0.21944984
0.21993782
0.22041121
0.22087046
0.22131602
0.22174835
0.22216789
0.22257509
0.22297038
0.22335419
0.22372695
0.22408908
0.22444099
0.22478308
0.22511575
0.22543939
0.22575437
0.22606106
0.22635982
0.22665102
0.22693498
0.22721204
0.22748254
0.22774678
0.22800507
0.22825771
0.228505
0.2287472
0.2289846
0.22921744
0.22944598
0.22967046
0.22989111
0.21496959
0.21559017
0.21619267
0.21677749
0.21734506
0.2178958
0.21843016
0.21894857
0.21945149
0.21993937
0.22041266
0.22087182
0.22131729
0.22174954
0.222169
0.22257612
0.22297133
0.22335508
0.22372777
0.22408984
0.22444169
0.22478373
0.22511634
0.22543993
0.22575486
0.2260615
0.22636022
0.22665137
0.2269353
0.22721233
0.22748278
0.22774699
0.22800526
0.22825787
0.22850513
0.22874731
0.22898468
0.2292175
0.22944603
0.22967049
0.22989112
0.21497355
0.21559393
0.21619623
0.21678086
0.21734825
0.21789882
0.21843301
0.21895126
0.21945402
0.21994175
0.2204149
0.22087392
0.22131927
0.22175139
0.22217073
0.22257773
0.22297284
0.22335648
0.22372907
0.22409105
0.2244428
0.22478475
0.22511729
0.22544079
0.22575565
0.22606222
0.22636088
0.22665196
0.22693582
0.22721279
0.2274832
0.22774735
0.22800557
0.22825814
0.22850535
0.22874749
0.22898483
0.22921761
0.2294461
0.22967053
0.22989113
0.21434028
0.21497885
0.21559896
0.216201
0.21678539
0.21735254
0.21790288
0.21843684
0.21895488
0.21945744
0.21994497
0.22041793
0.22087677
0.22132194
0.2217539
0.22217308
0.22257993
0.22297489
0.22335839
0.22373085
0.2240927
0.22444433
0.22478617
0.22511859
0.22544199
0.22575674
0.22606322
0.22636178
0.22665278
0.22693656
0.22721345
0.22748378
0.22774786
0.22800601
0.22825852
0.22850567
0.22874775
0.22898503
0.22921777
0.22944621
0.22967059
0.22989115
0.21434685
0.2149851
0.2156049
0.21620665
0.21679075
0.21735761
0.21790768
0.21844139
0.21895918
0.2194615
0.2199488
0.22042154
0.22088017
0.22132513
0.22175689
0.22217589
0.22258256
0.22297735
0.22336068
0.22373299
0.22409468
0.22444617
0.22478787
0.22512016
0.22544343
0.22575806
0.22606443
0.22636288
0.22665377
0.22693745
0.22721425
0.22748448
0.22774848
0.22800655
0.22825898
0.22850606
0.22874807
0.22898528
0.22921796
0.22944634
0.22967067
0.22989117
0.21435423
0.21499212
0.21561158
0.21621299
0.21679676
0.21736332
0.21791309
0.2184465
0.21896401
0.21946607
0.21995311
0.2204256
0.22088399
0.22132873
0.22176027
0.22217906
0.22258553
0.22298013
0.22336328
0.2237354
0.22409693
0.22444826
0.22478979
0.22512194
0.22544507
0.22575956
0.2260658
0.22636412
0.2266549
0.22693846
0.22721515
0.22748529
0.22774919
0.22800716
0.2282595
0.2285065
0.22874843
0.22898557
0.22921817
0.22944649
0.22967075
0.2298912
0.21436299
0.21500047
0.21561951
0.21622053
0.21680392
0.2173701
0.21791952
0.21845259
0.21896977
0.21947151
0.21995825
0.22043045
0.22088856
0.22133303
0.22176431
0.22218285
0.22258908
0.22298345
0.22336637
0.22373829
0.22409961
0.22445075
0.2247921
0.22512407
0.22544703
0.22576136
0.22606744
0.22636562
0.22665626
0.22693968
0.22721624
0.22748626
0.22775004
0.2280079
0.22826013
0.22850703
0.22874887
0.22898592
0.22921843
0.22944667
0.22967086
0.22989124
0.21371749
0.21437325
0.21501023
0.2156288
0.21622935
0.2168123
0.21737806
0.21792705
0.21845973
0.21897653
0.21947789
0.21996428
0.22043614
0.22089392
0.22133807
0.22176905
0.2221873
0.22259325
0.22298735
0.22337002
0.22374169
0.22410278
0.22445369
0.22479482
0.22512658
0.22544934
0.22576349
0.22606938
0.22636739
0.22665786
0.22694113
0.22721753
0.2274874
0.22775105
0.22800878
0.22826088
0.22850766
0.22874939
0.22898633
0.22921874
0.22944688
0.22967098
0.22989128
0.21372996
0.21438512
0.21502153
0.21563954
0.21623956
0.216822
0.21738726
0.21793578
0.218468
0.21898435
0.21948529
0.21997127
0.22044273
0.22090013
0.22134392
0.22177455
0.22219246
0.22259809
0.22299188
0.22337426
0.22374564
0.22410645
0.2244571
0.22479799
0.2251295
0.22545204
0.22576596
0.22607164
0.22636945
0.22665972
0.22694281
0.22721904
0.22748874
0.22775222
0.2280098
0.22826176
0.2285084
0.22874999
0.22898681
0.22921911
0.22944714
0.22967113
0.22989132
0.21307067
0.21374424
0.21439873
0.21503448
0.21565186
0.21625127
0.21683312
0.21739781
0.21794579
0.21847748
0.21899333
0.21949378
0.21997929
0.2204503
0.22090727
0.22135064
0.22178087
0.22219839
0.22260366
0.22299709
0.22337913
0.22375019
0.22411069
0.22446103
0.22480163
0.22513287
0.22545514
0.22576881
0.22607425
0.22637182
0.22666187
0.22694475
0.22722077
0.22749028
0.22775358
0.22801098
0.22826277
0.22850925
0.22875069
0.22898737
0.22921953
0.22944743
0.2296713
0.22989138
0.21308771
0.21376047
0.21441419
0.2150492
0.21566586
0.21626459
0.21684576
0.21740982
0.21795717
0.21848827
0.21900354
0.21950344
0.21998842
0.22045892
0.22091539
0.2213583
0.22178807
0.22220516
0.22261
0.22300303
0.22338468
0.22375537
0.22411551
0.22446552
0.22480579
0.22513671
0.22545868
0.22577206
0.22607723
0.22637453
0.22666433
0.22694696
0.22722276
0.22749204
0.22775513
0.22801232
0.22826393
0.22851022
0.22875149
0.228988
0.22922001
0.22944776
0.22967149
0.22989144
0.21241576
0.21310695
0.21377881
0.21443166
0.21506582
0.21568169
0.21627963
0.21686006
0.21742339
0.21797004
0.21850046
0.21901509
0.21951437
0.21999874
0.22046867
0.22092459
0.22136695
0.22179621
0.22221281
0.22261718
0.22300975
0.22339097
0.22376124
0.22412098
0.2244706
0.2248105
0.22514107
0.22546269
0.22577575
0.2260806
0.22637761
0.22666712
0.22694947
0.22722501
0.22749404
0.22775689
0.22801385
0.22826524
0.22851133
0.2287524
0.22898872
0.22922055
0.22944814
0.22967171
0.22989151
0.21243842
0.21312856
0.21379941
0.21445127
0.2150845
0.21569946
0.21629653
0.21687611
0.21743863
0.2179845
0.21851417
0.21902807
0.21952665
0.22001035
0.22047963
0.22093492
0.22137669
0.22180538
0.22222142
0.22262526
0.22301732
0.22339804
0.22376784
0.22412713
0.22447632
0.2248158
0.22514597
0.22546722
0.2257799
0.22608441
0.22638107
0.22667026
0.22695231
0.22722755
0.22749629
0.22775887
0.22801558
0.22826672
0.22851258
0.22875343
0.22898954
0.22922117
0.22944857
0.22967196
0.22989159
0.21175527
0.21246375
0.21315271
0.21382243
0.21447321
0.21510538
0.21571933
0.21631542
0.21689407
0.21745568
0.21800068
0.2185295
0.21904259
0.21954039
0.22002334
0.22049189
0.22094649
0.22138759
0.22181563
0.22223106
0.2226343
0.2230258
0.22340597
0.22377524
0.22413403
0.22448273
0.22482175
0.22515147
0.22547229
0.22578456
0.22608867
0.22638496
0.22667379
0.22695549
0.22723039
0.22749883
0.2277611
0.22801752
0.22826838
0.22851398
0.22875458
0.22899045
0.22922186
0.22944905
0.22967224
0.22989168
0.2117848
0.21249193
0.21317959
0.21384805
0.21449762
0.21512863
0.21574145
0.21633646
0.21691406
0.21747466
0.21801869
0.21854658
0.21905877
0.2195557
0.22003781
0.22050556
0.22095939
0.22139974
0.22182707
0.2222418
0.22264439
0.22303525
0.22341481
0.2237835
0.22414172
0.22448988
0.22482838
0.22515761
0.22547795
0.22578977
0.22609343
0.2263893
0.22667773
0.22695904
0.22723357
0.22750165
0.22776359
0.22801969
0.22827024
0.22851554
0.22875587
0.22899148
0.22922263
0.22944958
0.22967255
0.22989178
0.21109225
0.21181754
0.21252318
0.2132094
0.21387648
0.2145247
0.21515442
0.21576599
0.2163598
0.21693624
0.21749573
0.21803868
0.21856553
0.21907672
0.21957268
0.22005387
0.22052073
0.2209737
0.22141323
0.22183976
0.22225374
0.22265559
0.22304574
0.22342463
0.22379267
0.22415027
0.22449783
0.22483575
0.22516443
0.22548424
0.22579555
0.22609873
0.22639413
0.22668211
0.22696299
0.22723711
0.2275048
0.22776635
0.22802209
0.22827231
0.22851728
0.2287573
0.22899261
0.22922349
0.22945018
0.2296729
0.22989189
0.21113013
0.21185372
0.21255773
0.21324236
0.2139079
0.21455465
0.21518294
0.21579313
0.21638561
0.21696077
0.21751902
0.21806079
0.21858649
0.21909658
0.21959148
0.22007165
0.22053752
0.22098954
0.22142816
0.22185382
0.22226695
0.22266799
0.22305737
0.22343551
0.22380282
0.22415973
0.22450663
0.22484392
0.22517199
0.22549121
0.22580196
0.2261046
0.22639948
0.22668696
0.22696737
0.22724103
0.22750828
0.22776942
0.22802476
0.22827459
0.22851921
0.22875888
0.22899387
0.22922444
0.22945084
0.22967329
0.22989202
0.21117186
0.2118936
0.2125958
0.21327869
0.21394254
0.21458766
0.21521438
0.21582306
0.21641407
0.21698782
0.21754472
0.21808517
0.21860962
0.21911848
0.21961222
0.22009125
0.22055604
0.22100702
0.22144464
0.22186933
0.22228153
0.22268168
0.2230702
0.22344751
0.22381404
0.22417019
0.22451636
0.22485294
0.22518034
0.22549891
0.22580904
0.22611108
0.22640539
0.22669232
0.2269722
0.22724536
0.22751213
0.22777281
0.22802771
0.22827712
0.22852134
0.22876063
0.22899526
0.22922549
0.22945157
0.22967371
0.22989215
0.21121773
0.21193745
0.21263767
0.21331864
0.21398064
0.21462397
0.21524896
0.21585597
0.21644538
0.21701758
0.21757298
0.218112
0.21863505
0.21914259
0.21963503
0.22011283
0.22057642
0.22102626
0.22146277
0.2218864
0.22229758
0.22269675
0.22308432
0.22346073
0.22382639
0.2241817
0.22452707
0.22486288
0.22518953
0.2255074
0.22581684
0.22611823
0.22641191
0.22669823
0.22697753
0.22725014
0.22751637
0.22777654
0.22803095
0.2282799
0.22852368
0.22876255
0.22899679
0.22922665
0.22945237
0.22967418
0.22989231
0.21053093
0.21126806
0.21198555
0.2126836
0.21336247
0.21402244
0.21466381
0.21528691
0.21589209
0.21647974
0.21705024
0.217604
0.21814144
0.21866298
0.21916904
0.21966008
0.22013652
0.22059881
0.22104738
0.22148268
0.22190515
0.22231521
0.2227133
0.22309984
0.22347526
0.22383996
0.22419435
0.22453883
0.2248738
0.22519964
0.22551672
0.22582542
0.22612608
0.22641907
0.22670473
0.22698339
0.22725538
0.22752103
0.22778064
0.22803452
0.22828296
0.22852625
0.22876466
0.22899847
0.22922792
0.22945325
0.22967469
0.22989247
0.21058858
0.21132318
0.21203821
0.21273389
0.21341047
0.21406821
0.21470743
0.21532846
0.21593165
0.21651737
0.21708602
0.21763799
0.21817369
0.21869357
0.21919803
0.21968752
0.22016247
0.22062333
0.22107053
0.2215045
0.22192569
0.22233453
0.22273144
0.22311685
0.22349118
0.22385483
0.22420822
0.22455174
0.22488578
0.22521073
0.22552695
0.22583482
0.2261347
0.22642693
0.22671185
0.22698982
0.22726114
0.22752614
0.22778513
0.22803842
0.2282863
0.22852906
0.22876697
0.2290003
0.2292293
0.22945421
0.22967525
0.22989265
0.20912909
0.20990015
0.21065159
0.21138341
0.21209576
0.21278885
0.21346292
0.21411824
0.21475512
0.21537389
0.21597489
0.21655851
0.21712512
0.21767514
0.21820896
0.21872701
0.21922972
0.21971753
0.22019086
0.22065015
0.22109584
0.22152837
0.22194817
0.22235567
0.22275129
0.22313547
0.2235086
0.22387111
0.2242234
0.22456587
0.22489889
0.22522286
0.22553815
0.22584512
0.22614413
0.22643553
0.22671965
0.22699685
0.22726743
0.22753173
0.22779004
0.22804269
0.22828996
0.22853213
0.22876949
0.2290023
0.22923081
0.22945525
0.22967586
0.22989285
0.2084166
0.20920413
0.20997201
0.21072032
0.21144912
0.21215855
0.21284881
0.21352015
0.21417283
0.21480716
0.21542346
0.21602209
0.21660341
0.21716781
0.21771569
0.21824745
0.21876352
0.21926433
0.21975029
0.22022185
0.22067944
0.22112349
0.22155444
0.22197272
0.22237876
0.22277298
0.2231558
0.22352764
0.2238889
0.22423999
0.2245813
0.22491322
0.22523613
0.22555039
0.22585637
0.22615444
0.22644492
0.22672818
0.22700453
0.22727431
0.22753783
0.22779541
0.22804734
0.22829394
0.22853548
0.22877224
0.22900448
0.22923245
0.22945639
0.22967652
0.22989306
0.20850189
0.20928584
0.21005026
0.21079518
0.21152069
0.21222694
0.21291413
0.21358249
0.2142323
0.21486385
0.21547747
0.21607351
0.21665233
0.21721432
0.21775988
0.2182894
0.21880332
0.21930204
0.219786
0.22025563
0.22071136
0.22115363
0.22158286
0.22199948
0.22240393
0.22279662
0.22317797
0.2235484
0.2239083
0.22425809
0.22459814
0.22492885
0.2252506
0.22556374
0.22586865
0.22616568
0.22645518
0.22673747
0.22701291
0.2272818
0.22754447
0.22780124
0.22805241
0.22829827
0.22853911
0.22877522
0.22900684
0.22923423
0.22945762
0.22967724
0.22989329
0.2085946
0.2093747
0.21013534
0.21087659
0.21159854
0.21230134
0.21298519
0.21365032
0.21429701
0.21492554
0.21553624
0.21612947
0.21670557
0.21726494
0.21780797
0.21833506
0.21884663
0.21934309
0.21982487
0.22029241
0.22074612
0.22118644
0.2216138
0.22202863
0.22243135
0.22282237
0.22320212
0.22357101
0.22392944
0.2242778
0.22461649
0.22494588
0.22526636
0.22557829
0.22588203
0.22617794
0.22646634
0.2267476
0.22702203
0.22728996
0.2275517
0.22780759
0.22805791
0.22830297
0.22854305
0.22877844
0.22900939
0.22923615
0.22945895
0.22967802
0.22989355
0.20869529
0.20947119
0.21022775
0.21096502
0.21168311
0.21238217
0.2130624
0.21372402
0.21436731
0.21499257
0.21560011
0.21619028
0.21676344
0.21731996
0.21786024
0.21838469
0.21889371
0.21938771
0.21986713
0.22033239
0.22078391
0.22122212
0.22164745
0.22206032
0.22246116
0.22285038
0.22322839
0.22359561
0.22395243
0.22429924
0.22463644
0.22496441
0.22528352
0.22559412
0.22589659
0.22619127
0.22647849
0.22675861
0.22703194
0.22729882
0.22755955
0.22781447
0.22806387
0.22830805
0.22854731
0.22878192
0.22901214
0.22923822
0.22946038
0.22967885
0.22989381
0.20880451
0.20957587
0.210328
0.21106097
0.21177487
0.21246988
0.21314618
0.213804
0.21444362
0.21506532
0.21566943
0.21625628
0.21682624
0.21737968
0.21791699
0.21843857
0.21894482
0.21943616
0.21991301
0.2203758
0.22082494
0.22126086
0.22168399
0.22209474
0.22249354
0.2228808
0.22325693
0.22362233
0.22397741
0.22432254
0.22465813
0.22498455
0.22530216
0.22561133
0.22591241
0.22620575
0.22649169
0.22677056
0.2270427
0.22730843
0.22756806
0.22782192
0.22807032
0.22831355
0.2285519
0.22878567
0.2290151
0.22924044
0.22946192
0.22967974
0.2298941
0.20892286
0.2096893
0.21043664
0.21116495
0.21187433
0.21256495
0.21323699
0.2138907
0.21452634
0.2151442
0.21574459
0.21632785
0.21689435
0.21744444
0.21797853
0.218497
0.21900025
0.21948871
0.21996278
0.22042289
0.22086945
0.22130289
0.22172363
0.22213209
0.22252868
0.22291381
0.2232879
0.22365133
0.22400452
0.22434784
0.22468168
0.22500641
0.2253224
0.22563
0.22592958
0.22622147
0.226506
0.22678353
0.22705436
0.22731884
0.22757727
0.22782998
0.22807728
0.22831947
0.22855684
0.22878969
0.22901827
0.22924282
0.22946356
0.2296807
0.22989441
0.20905098
0.2098121
0.21055425
0.21127752
0.21198201
0.21266788
0.21333533
0.21398459
0.21461592
0.21522962
0.21582599
0.21640537
0.21696811
0.21751459
0.21804519
0.21856029
0.21906031
0.21954564
0.2200167
0.22047391
0.22091769
0.22134844
0.2217666
0.22217257
0.22256677
0.2229496
0.22332147
0.22368277
0.22403391
0.22437526
0.2247072
0.22503011
0.22534434
0.22565025
0.22594819
0.2262385
0.22652152
0.22679757
0.22706699
0.2273301
0.22758722
0.22783867
0.22808477
0.22832583
0.22856215
0.228794
0.22902165
0.22924535
0.22946531
0.22968171
0.22989474
0.20918955
0.2099449
0.21068146
0.21139928
0.21209849
0.21277923
0.21344172
0.21408617
0.21471285
0.21532204
0.21591406
0.21648925
0.21704794
0.21759051
0.21811733
0.2186288
0.21912531
0.21960726
0.22007507
0.22052915
0.22096991
0.22139776
0.22181312
0.2222164
0.22260801
0.22298835
0.22335783
0.22371683
0.22406575
0.22440497
0.22473486
0.22505578
0.22536811
0.22567218
0.22596835
0.22625695
0.22653831
0.22681277
0.22708064
0.22734226
0.22759795
0.22784803
0.22809283
0.22833266
0.22856782
0.2287986
0.22902526
0.22924804
0.22946716
0.22968278
0.22989509
0.20933926
0.21008841
0.21081891
0.21153086
0.21222436
0.21289957
0.2135567
0.21419595
0.21481761
0.21542195
0.21600928
0.21657992
0.21713424
0.21767259
0.21819534
0.21870288
0.2191956
0.21967391
0.2201382
0.22058889
0.22102639
0.2214511
0.22186344
0.22226382
0.22265263
0.22303028
0.22339717
0.22375368
0.22410021
0.22443712
0.22476479
0.22508358
0.22539384
0.22569592
0.22599017
0.22627691
0.22655647
0.22682919
0.22709538
0.22735538
0.22760951
0.2278581
0.22810148
0.22833996
0.22857387
0.22880349
0.22902909
0.22925089
0.22946911
0.22968391
0.22989545
0.20950089
0.21024333
0.21096732
0.21167292
0.21236027
0.21302952
0.21368085
0.21431451
0.21493075
0.21552985
0.21611211
0.21667787
0.21722746
0.21776125
0.2182796
0.2187829
0.21927154
0.21974591
0.22020641
0.22065345
0.22108743
0.22150876
0.22191784
0.22231507
0.22270087
0.22307561
0.22343971
0.22379353
0.22413746
0.22447188
0.22479715
0.22511363
0.22542166
0.22572159
0.22601375
0.22629848
0.22657609
0.22684691
0.22711128
0.22736951
0.22762194
0.2278689
0.22811074
0.22834777
0.22858032
0.22880868
0.22903313
0.22925389
0.22947116
0.2296851
0.22989583
0.20967523
0.21041044
0.2111274
0.21182618
0.21250689
0.21316971
0.21381481
0.21444244
0.21505283
0.21564628
0.21622309
0.21678357
0.21732808
0.21785695
0.21837056
0.21886929
0.21935352
0.21982365
0.22028006
0.22072315
0.22115334
0.22157101
0.22197658
0.22237043
0.22275297
0.22312458
0.22348566
0.22383658
0.22417772
0.22450945
0.22483213
0.2251461
0.22545172
0.22574932
0.22603923
0.22632177
0.22659726
0.22686603
0.22712841
0.22738472
0.22763529
0.22788048
0.22812063
0.22835608
0.22858716
0.22881417
0.22903739
0.22925704
0.22947331
0.22968634
0.22989623
0.20986312
0.21059055
0.21129994
0.21199136
0.21266494
0.21332083
0.21395923
0.21458035
0.21518446
0.21577183
0.21634275
0.21689756
0.21743658
0.21796016
0.21846867
0.21896248
0.21944196
0.21990751
0.22035951
0.22079836
0.22122446
0.2216382
0.22203997
0.22243018
0.2228092
0.22317744
0.22353526
0.22388306
0.22422118
0.22455001
0.22486989
0.22518117
0.22548418
0.22577926
0.22606672
0.2263469
0.22662009
0.22688664
0.22714685
0.22740106
0.22764962
0.22789288
0.22813119
0.22836492
0.22859441
0.22881996
0.22904186
0.22926033
0.22947554
0.22968762
0.22989664
0.21006545
0.21078451
0.21148575
0.21216926
0.21283516
0.21348361
0.21411478
0.21472892
0.21532626
0.21590709
0.21647169
0.21702038
0.2175535
0.21807139
0.2185744
0.21906291
0.21953728
0.21999791
0.22044516
0.22087944
0.22130114
0.22171064
0.22210833
0.22249461
0.22286985
0.22323445
0.22358877
0.22393319
0.22426807
0.22459377
0.22491063
0.225219
0.2255192
0.22581155
0.22609638
0.22637399
0.2266447
0.22690882
0.22716668
0.22741861
0.22766497
0.22790613
0.22814245
0.22837431
0.22860206
0.22882604
0.22904653
0.22926375
0.22947785
0.22968894
0.22989707
0.21028314
0.2109932
0.21168569
0.21236071
0.21301835
0.21365879
0.21428221
0.21488883
0.21547891
0.2160527
0.2166105
0.21715262
0.2176794
0.21819116
0.21868827
0.21917107
0.21963995
0.22009528
0.22053743
0.2209668
0.22138375
0.22178869
0.222182
0.22256405
0.22293522
0.2232959
0.22364646
0.22398724
0.22431863
0.22464096
0.22495457
0.22525979
0.22555695
0.22584637
0.22612834
0.22640318
0.22667119
0.22693268
0.22718798
0.22743744
0.22768141
0.22792027
0.22815442
0.22838425
0.22861014
0.22883243
0.2290514
0.22926729
0.22948024
0.2296903
0.22989751
0.21051717
0.21121757
0.21190067
0.21256656
0.21321534
0.21384719
0.21446228
0.21506083
0.21564309
0.21620933
0.21675983
0.2172949
0.21781486
0.21832004
0.2188108
0.21928748
0.21975046
0.22020009
0.22063676
0.22106084
0.22147271
0.22187274
0.22226132
0.22263883
0.22300563
0.2233621
0.22370859
0.22404548
0.2243731
0.22469179
0.2250019
0.22530375
0.22559763
0.22588387
0.22616276
0.2264346
0.22669969
0.22695834
0.22721087
0.22745763
0.227699
0.22793537
0.22816716
0.22839478
0.22861864
0.22883911
0.22905648
0.22927096
0.22948269
0.2296917
0.22989795
0.21076855
0.21145859
0.21213162
0.21278772
0.213427
0.21404963
0.21465578
0.21524568
0.21581957
0.2163777
0.21692036
0.21744786
0.2179605
0.21845863
0.21894257
0.21941268
0.21986931
0.22031283
0.22074361
0.22116201
0.22156841
0.22196318
0.22234669
0.22271931
0.22308141
0.22343335
0.22377549
0.22410817
0.22443174
0.22474654
0.22505288
0.22535108
0.22564144
0.22592426
0.22619982
0.22646842
0.22673035
0.22698591
0.22723543
0.22747927
0.22771781
0.22795147
0.22818069
0.22840592
0.2286276
0.2288461
0.22906175
0.22927474
0.2294852
0.22969312
0.2298984
0.21103835
0.21171729
0.21237953
0.21302514
0.21365424
0.21426699
0.21486357
0.21544419
0.2160091
0.21655854
0.21709281
0.21761218
0.21811698
0.21860753
0.21908416
0.21954722
0.21999705
0.22043402
0.22085847
0.22127079
0.22167132
0.22206043
0.2224385
0.22280588
0.22316293
0.22351
0.22384746
0.22417563
0.22449485
0.22480544
0.22510773
0.22540201
0.22568857
0.22596771
0.22623968
0.22650479
0.2267633
0.22701552
0.22726178
0.22750245
0.22773792
0.22796863
0.22819507
0.22841771
0.22863702
0.22885341
0.22906722
0.22927865
0.22948778
0.22969456
0.22989886
0.21132767
0.21199474
0.21264542
0.2132798
0.21389801
0.21450019
0.21508652
0.21565721
0.2162125
0.21675264
0.2172779
0.21778858
0.21828498
0.21876742
0.21923622
0.21969172
0.22013426
0.22056419
0.22098187
0.22138765
0.22178189
0.22216494
0.22253717
0.22289892
0.22325055
0.22359241
0.22392483
0.22424816
0.22456271
0.2248688
0.22516673
0.22545679
0.22573927
0.22601443
0.22628255
0.22654388
0.2267987
0.22704732
0.22729005
0.22752728
0.22775942
0.22798695
0.22821037
0.2284302
0.22864695
0.22886108
0.22907292
0.22928268
0.22949042
0.22969604
0.22989933
0.21163766
0.21229203
0.21293037
0.21355275
0.21415931
0.21475018
0.21532554
0.21588561
0.21643062
0.2169608
0.21747644
0.21797781
0.21846522
0.21893897
0.21939938
0.21984679
0.22028152
0.22070393
0.22111434
0.22151313
0.22190062
0.22227717
0.22264314
0.22299886
0.22334468
0.22368094
0.22400797
0.2243261
0.22463563
0.22493688
0.22523014
0.22551567
0.22579376
0.22606466
0.22632861
0.22658588
0.22683673
0.22708145
0.22732038
0.22755389
0.22778243
0.2280065
0.22822665
0.22844345
0.22865745
0.22886913
0.22907886
0.22928686
0.22949314
0.22969756
0.22989981
0.21196951
0.21261033
0.21323548
0.21384505
0.21443916
0.21501795
0.21558161
0.21613033
0.21666434
0.21718389
0.21768924
0.21818066
0.21865844
0.2191229
0.21957434
0.22001309
0.22043947
0.22085381
0.22125646
0.22164775
0.22202802
0.22239761
0.22275687
0.22310613
0.22344573
0.22377599
0.22409724
0.22440979
0.22471395
0.22501001
0.22529824
0.22557892
0.22585229
0.22611861
0.22637809
0.22663099
0.22687756
0.22711809
0.22735291
0.22758242
0.22780707
0.22802741
0.22824402
0.22845754
0.22866856
0.22887762
0.22908511
0.22929122
0.22949597
0.22969912
0.22990031
0.21232446
0.21295082
0.21356191
0.21415782
0.21473865
0.21530456
0.21585572
0.21639232
0.2169146
0.21742278
0.21791714
0.21839793
0.21886544
0.21931997
0.21976182
0.22019131
0.22060876
0.22101448
0.22140881
0.22179209
0.22216463
0.22252677
0.22287885
0.2232212
0.22355413
0.22387796
0.22419302
0.2244996
0.224798
0.22508849
0.22537135
0.22564681
0.22591513
0.22617652
0.22643121
0.22667942
0.22692139
0.22715741
0.22738782
0.22761301
0.22783347
0.22804979
0.2282626
0.22847258
0.2286804
0.22888663
0.2290917
0.22929581
0.22949892
0.22970075
0.22990082
0.21270376
0.21331474
0.21391086
0.21449221
0.21505889
0.21561106
0.21614889
0.21667258
0.21718234
0.2176784
0.21816102
0.21863047
0.21908701
0.21953094
0.21996255
0.22038215
0.22079005
0.22118657
0.22157201
0.22194672
0.222311
0.22266518
0.22300958
0.22334452
0.22367032
0.22398728
0.22429571
0.2245959
0.22488813
0.22517266
0.22544975
0.22571963
0.22598253
0.22623865
0.22648819
0.22673137
0.22696842
0.22719961
0.22742527
0.22764583
0.22786179
0.22807379
0.2282825
0.22848868
0.22869305
0.22889625
0.22909872
0.22930068
0.22950205
0.22970248
0.22990136
0.21310876
0.21370337
0.21428356
0.21484941
0.21540103
0.21593857
0.21646221
0.21697213
0.21746855
0.21795169
0.21842181
0.21887915
0.21932399
0.21975661
0.2201773
0.22058634
0.22098405
0.22137073
0.22174669
0.22211224
0.22246769
0.22281336
0.22314955
0.22347658
0.22379476
0.22410437
0.22440571
0.22469906
0.22498468
0.22526284
0.22553376
0.22579767
0.22605477
0.22630524
0.22654928
0.22678708
0.22701885
0.22724487
0.22746546
0.22768105
0.2278922
0.22809956
0.22830388
0.22850598
0.22870664
0.22890657
0.22910626
0.22930591
0.22950541
0.22970432
0.22990195
0.2135408
0.21411804
0.21468128
0.21523064
0.21576624
0.21628822
0.21679675
0.21729202
0.21777423
0.21824362
0.21870041
0.21914486
0.21957723
0.21999779
0.22040683
0.22080461
0.22119145
0.22156764
0.22193347
0.22228924
0.22263527
0.22297185
0.22329928
0.22361786
0.22392789
0.22422964
0.22452341
0.22480945
0.22508802
0.22535936
0.22562369
0.22588121
0.22613211
0.22637655
0.22661471
0.22684676
0.2270729
0.22729339
0.22750857
0.22771887
0.22792487
0.22812728
0.2283269
0.22852463
0.22872132
0.22891774
0.22911442
0.22931158
0.22950906
0.22970634
0.22990258
0.21342904
0.21400135
0.21456008
0.21510532
0.21563716
0.21615572
0.21666115
0.21715362
0.2176333
0.2181004
0.21855515
0.21899776
0.21942848
0.21984756
0.22025528
0.2206519
0.22103769
0.22141294
0.22177793
0.22213296
0.22247832
0.22281429
0.22314117
0.22345925
0.22376881
0.22407014
0.22436351
0.22464919
0.22492743
0.22519847
0.22546253
0.22571982
0.22597053
0.22621481
0.22645282
0.22668471
0.22691063
0.22713077
0.22734538
0.22755479
0.22775946
0.22795999
0.22815712
0.22835173
0.22854478
0.22873722
0.22892988
0.22912332
0.22931779
0.22951307
0.22970855
0.22990328
0.21337442
0.2139396
0.21449173
0.21503082
0.21555693
0.21607016
0.21657063
0.21705848
0.21753388
0.217997
0.21844803
0.2188872
0.21931472
0.21973084
0.22013579
0.22052983
0.22091323
0.22128624
0.22164915
0.22200223
0.22234575
0.22268
0.22300525
0.2233218
0.22362991
0.22392986
0.22422192
0.22450635
0.2247834
0.22505332
0.22531633
0.22557263
0.22582242
0.22606586
0.22630309
0.22653426
0.22675947
0.22697888
0.22719264
0.22740101
0.2276043
0.227803
0.22799771
0.22818924
0.22837852
0.2285666
0.2287545
0.22894311
0.22913307
0.22932461
0.2295175
0.22971101
0.22990406
0.21338346
0.21393923
0.21448249
0.21501324
0.21553149
0.21603732
0.21653081
0.21701208
0.21748126
0.21793853
0.21838405
0.21881802
0.21924064
0.21965212
0.22005271
0.22044262
0.22082212
0.22119145
0.22155088
0.22190065
0.22224104
0.22257232
0.22289475
0.2232086
0.22351414
0.22381164
0.22410135
0.22438354
0.22465845
0.22492633
0.22518739
0.22544185
0.22568989
0.2259317
0.22616741
0.22639715
0.22662103
0.22683916
0.22705166
0.22725867
0.22746042
0.22765725
0.22784962
0.22803819
0.2282238
0.22840744
0.22859023
0.22877328
0.22895757
0.22914379
0.22933216
0.22952242
0.22971376
0.22990493
0.2140068
0.21453885
0.21505893
0.21556704
0.21606322
0.21654754
0.2170201
0.217481
0.21793039
0.21836841
0.21879525
0.2192111
0.21961614
0.22001059
0.22039468
0.22076863
0.22113267
0.22148706
0.22183204
0.22216785
0.22249476
0.22281302
0.22312289
0.22342462
0.22371846
0.22400468
0.22428352
0.22455522
0.22482002
0.22507814
0.22532979
0.22557516
0.22581444
0.22604777
0.22627528
0.22649708
0.22671325
0.22692388
0.22712907
0.22732895
0.22752373
0.22771373
0.22789945
0.22808155
0.22826091
0.22843859
0.22861579
0.2287937
0.22897337
0.22915556
0.2293405
0.22952789
0.22971682
0.22990591
0.2146674
0.21517435
0.21566988
0.21615403
0.21662684
0.21708838
0.21753875
0.21797806
0.21840645
0.21882408
0.21923111
0.21962773
0.22001412
0.22039051
0.22075709
0.2211141
0.22146175
0.22180028
0.22212993
0.22245094
0.22276355
0.223068
0.22336454
0.22365341
0.22393485
0.22420911
0.22447641
0.22473699
0.22499107
0.22523885
0.22548053
0.22571629
0.22594629
0.22617064
0.22638948
0.22660288
0.22681091
0.22701363
0.22721111
0.22740349
0.22759094
0.22777379
0.22795252
0.22812783
0.22830063
0.22847205
0.22864335
0.22881582
0.22899059
0.22916845
0.2293497
0.22953396
0.22972024
0.22990701
0.21536589
0.21584628
0.21631585
0.21677464
0.2172227
0.21766012
0.218087
0.21850344
0.2189096
0.21930562
0.21969166
0.22006792
0.22043457
0.22079182
0.22113987
0.22147893
0.22180922
0.22213097
0.2224444
0.22274974
0.22304721
0.22333706
0.2236195
0.22389477
0.2241631
0.22442471
0.22467983
0.22492866
0.22517141
0.22540828
0.22563943
0.22586504
0.22608524
0.22630014
0.22650984
0.2267144
0.22691386
0.22710827
0.22729768
0.22748219
0.22766198
0.22783735
0.2280088
0.22817702
0.22834297
0.22850784
0.22867295
0.22883969
0.22900925
0.22918252
0.22935978
0.22954065
0.22972403
0.22990823
0.21610207
0.21655436
0.21699648
0.21742845
0.21785035
0.21826226
0.21866429
0.21905656
0.21943921
0.21981239
0.22017626
0.220531
0.22087679
0.22121382
0.2215423
0.22186242
0.22217439
0.22247843
0.22277474
0.22306355
0.22334507
0.22361952
0.22388711
0.22414806
0.22440259
0.22465089
0.22489318
0.22512966
0.2253605
0.22558589
0.22580599
0.22602094
0.22623086
0.22643585
0.22663597
0.22683127
0.22702178
0.22720751
0.2273885
0.22756482
0.22773663
0.22790423
0.22806811
0.22822898
0.22838783
0.22854588
0.22870453
0.22886526
0.22902935
0.22919774
0.22937075
0.22954796
0.22972818
0.22990956
0.21687438
0.21729701
0.21771013
0.2181138
0.21850809
0.2188931
0.21926893
0.21963571
0.21999359
0.2203427
0.22068321
0.2210153
0.22133913
0.2216549
0.22196279
0.222263
0.22255573
0.22284117
0.22311952
0.22339099
0.22365578
0.22391409
0.22416612
0.22441207
0.22465214
0.22488652
0.2251154
0.22533896
0.22555736
0.22577077
0.22597933
0.22618316
0.22638237
0.22657703
0.22676718
0.22695286
0.22713407
0.2273108
0.22748306
0.22765091
0.22781449
0.22797409
0.22813017
0.22828346
0.22843498
0.22858598
0.22873796
0.22889243
0.2290508
0.22921405
0.22938255
0.22955586