/*--------------------------------*- C++ -*----------------------------------*\
| =========                 |                                                 |
| \\      /  F ield         | OpenFOAM: The Open Source CFD Toolbox           |
|  \\    /   O peration     | Version:  2312                                  |
|   \\  /    A nd           | Website:  www.openfoam.com                      |
|    \\/     M anipulation  |                                                 |
\*---------------------------------------------------------------------------*/
FoamFile
{
    version     2.0;
    format      ascii;
    arch        "LSB;label=32;scalar=64";
    class       volScalarField;
    location    "0.06";
    object      p;
}
// * * * * * * * * * * * * * * * * * * * * * * * * * * * * * * * * * * * * * //

dimensions      [1 -1 -2 0 0 0 0];

internalField   nonuniform List<scalar> 
3224
(
100002.59
100002.55
100002.55
100002.56
100002.61
100002.68
100002.77
100002.87
100002.99
100003.12
100003.25
100003.39
100003.52
100003.66
100003.78
100003.9
100004
100004.08
100004.15
100004.2
100004.23
100004.24
100004.22
100004.18
100004.11
100004.02
100003.9
100003.76
100003.59
100003.39
100003.17
100002.92
100002.65
100002.36
100002.05
100001.72
100001.36
100001
100000.6
100000.26
99999.595
100002.62
100002.59
100002.58
100002.6
100002.64
100002.71
100002.8
100002.9
100003.02
100003.14
100003.28
100003.41
100003.55
100003.68
100003.8
100003.92
100004.02
100004.1
100004.17
100004.22
100004.25
100004.25
100004.24
100004.19
100004.13
100004.03
100003.91
100003.77
100003.6
100003.4
100003.18
100002.93
100002.66
100002.37
100002.06
100001.72
100001.37
100001
100000.61
100000.27
99999.595
100002.66
100002.63
100002.62
100002.64
100002.68
100002.75
100002.83
100002.94
100003.05
100003.18
100003.31
100003.44
100003.58
100003.71
100003.83
100003.94
100004.04
100004.13
100004.19
100004.24
100004.27
100004.27
100004.25
100004.21
100004.14
100004.05
100003.93
100003.78
100003.61
100003.41
100003.19
100002.94
100002.67
100002.38
100002.06
100001.73
100001.37
100001.01
100000.61
100000.27
99999.597
100002.71
100002.68
100002.67
100002.68
100002.73
100002.79
100002.88
100002.98
100003.09
100003.22
100003.35
100003.48
100003.61
100003.74
100003.86
100003.97
100004.07
100004.15
100004.22
100004.26
100004.29
100004.29
100004.27
100004.23
100004.16
100004.06
100003.94
100003.79
100003.62
100003.42
100003.2
100002.95
100002.68
100002.38
100002.07
100001.73
100001.38
100001.01
100000.61
100000.27
99999.598
100002.84
100002.77
100002.73
100002.72
100002.74
100002.78
100002.85
100002.93
100003.03
100003.14
100003.26
100003.39
100003.52
100003.65
100003.77
100003.89
100004
100004.1
100004.18
100004.24
100004.28
100004.31
100004.31
100004.29
100004.24
100004.17
100004.08
100003.95
100003.81
100003.63
100003.43
100003.21
100002.96
100002.69
100002.39
100002.07
100001.74
100001.38
100001.01
100000.61
100000.28
99999.595
100002.9
100002.84
100002.8
100002.79
100002.81
100002.85
100002.91
100002.99
100003.09
100003.19
100003.31
100003.44
100003.56
100003.69
100003.81
100003.93
100004.03
100004.13
100004.21
100004.27
100004.31
100004.33
100004.33
100004.31
100004.26
100004.19
100004.09
100003.97
100003.82
100003.64
100003.44
100003.21
100002.96
100002.69
100002.39
100002.08
100001.74
100001.38
100001.02
100000.61
100000.29
99999.587
100002.98
100002.91
100002.88
100002.86
100002.88
100002.92
100002.98
100003.06
100003.15
100003.26
100003.37
100003.49
100003.62
100003.74
100003.86
100003.97
100004.07
100004.16
100004.24
100004.29
100004.33
100004.35
100004.35
100004.33
100004.28
100004.2
100004.1
100003.98
100003.83
100003.65
100003.45
100003.22
100002.97
100002.7
100002.4
100002.08
100001.74
100001.39
100001.02
100000.62
100000.29
99999.589
100003.06
100003
100002.96
100002.95
100002.96
100003
100003.06
100003.13
100003.22
100003.32
100003.44
100003.55
100003.67
100003.79
100003.91
100004.01
100004.11
100004.2
100004.27
100004.32
100004.36
100004.38
100004.37
100004.34
100004.29
100004.22
100004.12
100003.99
100003.84
100003.66
100003.46
100003.23
100002.98
100002.7
100002.4
100002.08
100001.74
100001.39
100001.02
100000.62
100000.29
99999.597
100003.24
100003.15
100003.09
100003.05
100003.04
100003.05
100003.09
100003.14
100003.21
100003.3
100003.4
100003.51
100003.62
100003.73
100003.85
100003.96
100004.06
100004.15
100004.24
100004.3
100004.36
100004.39
100004.4
100004.39
100004.36
100004.31
100004.23
100004.13
100004
100003.85
100003.67
100003.46
100003.23
100002.98
100002.7
100002.4
100002.08
100001.75
100001.39
100001.02
100000.62
100000.28
99999.606
100003.33
100003.25
100003.18
100003.15
100003.14
100003.15
100003.18
100003.23
100003.3
100003.38
100003.48
100003.58
100003.69
100003.8
100003.91
100004.01
100004.11
100004.2
100004.28
100004.34
100004.39
100004.42
100004.43
100004.42
100004.38
100004.33
100004.25
100004.14
100004.01
100003.85
100003.67
100003.47
100003.24
100002.98
100002.7
100002.41
100002.09
100001.75
100001.39
100001.02
100000.62
100000.28
99999.616
100003.54
100003.43
100003.35
100003.29
100003.25
100003.24
100003.25
100003.28
100003.33
100003.4
100003.47
100003.56
100003.66
100003.76
100003.87
100003.97
100004.07
100004.17
100004.25
100004.32
100004.38
100004.43
100004.45
100004.46
100004.44
100004.41
100004.35
100004.26
100004.15
100004.02
100003.86
100003.68
100003.47
100003.24
100002.99
100002.71
100002.41
100002.09
100001.75
100001.39
100001.02
100000.62
100000.27
99999.626
100003.65
100003.54
100003.46
100003.4
100003.36
100003.35
100003.36
100003.39
100003.43
100003.5
100003.57
100003.66
100003.75
100003.85
100003.95
100004.04
100004.14
100004.23
100004.3
100004.37
100004.43
100004.46
100004.49
100004.49
100004.47
100004.43
100004.37
100004.28
100004.17
100004.03
100003.87
100003.69
100003.48
100003.25
100002.99
100002.71
100002.41
100002.09
100001.75
100001.39
100001.02
100000.63
100000.27
99999.636
100003.88
100003.75
100003.65
100003.57
100003.51
100003.48
100003.47
100003.48
100003.5
100003.55
100003.6
100003.67
100003.75
100003.84
100003.93
100004.03
100004.12
100004.21
100004.29
100004.36
100004.42
100004.47
100004.51
100004.52
100004.52
100004.5
100004.45
100004.39
100004.3
100004.18
100004.05
100003.88
100003.7
100003.48
100003.25
100002.99
100002.71
100002.41
100002.09
100001.75
100001.39
100001.02
100000.63
100000.26
99999.646
100003.99
100003.87
100003.77
100003.69
100003.64
100003.6
100003.59
100003.6
100003.62
100003.66
100003.72
100003.78
100003.86
100003.94
100004.03
100004.11
100004.2
100004.28
100004.36
100004.43
100004.48
100004.52
100004.55
100004.56
100004.56
100004.53
100004.48
100004.41
100004.32
100004.2
100004.06
100003.89
100003.7
100003.49
100003.25
100002.99
100002.71
100002.41
100002.09
100001.75
100001.39
100001.02
100000.63
100000.25
99999.657
100004.24
100004.1
100003.99
100003.89
100003.82
100003.77
100003.73
100003.72
100003.73
100003.75
100003.79
100003.84
100003.9
100003.97
100004.05
100004.13
100004.21
100004.29
100004.36
100004.43
100004.49
100004.54
100004.58
100004.6
100004.61
100004.6
100004.56
100004.51
100004.44
100004.34
100004.22
100004.07
100003.91
100003.71
100003.5
100003.26
100003
100002.71
100002.41
100002.09
100001.74
100001.39
100001.02
100000.63
100000.25
99999.668
100004.35
100004.22
100004.11
100004.02
100003.95
100003.9
100003.87
100003.86
100003.86
100003.88
100003.92
100003.97
100004.02
100004.09
100004.16
100004.23
100004.31
100004.38
100004.45
100004.51
100004.57
100004.61
100004.64
100004.66
100004.66
100004.64
100004.6
100004.54
100004.46
100004.36
100004.24
100004.09
100003.92
100003.72
100003.51
100003.26
100003
100002.72
100002.41
100002.09
100001.74
100001.39
100001.01
100000.63
100000.24
99999.678
100004.61
100004.47
100004.34
100004.24
100004.15
100004.09
100004.04
100004.01
100004
100004.01
100004.02
100004.06
100004.1
100004.15
100004.21
100004.28
100004.35
100004.41
100004.48
100004.54
100004.6
100004.64
100004.68
100004.71
100004.72
100004.71
100004.69
100004.64
100004.58
100004.5
100004.39
100004.26
100004.11
100003.93
100003.74
100003.51
100003.27
100003
100002.72
100002.41
100002.09
100001.74
100001.38
100001.01
100000.63
100000.24
99999.689
100004.72
100004.59
100004.47
100004.37
100004.29
100004.23
100004.19
100004.16
100004.15
100004.15
100004.17
100004.2
100004.24
100004.29
100004.35
100004.4
100004.47
100004.53
100004.59
100004.64
100004.69
100004.73
100004.76
100004.78
100004.78
100004.77
100004.74
100004.69
100004.62
100004.53
100004.42
100004.28
100004.13
100003.95
100003.75
100003.52
100003.28
100003.01
100002.72
100002.41
100002.09
100001.74
100001.38
100001.01
100000.63
100000.23
99999.7
100004.84
100004.71
100004.6
100004.51
100004.44
100004.38
100004.34
100004.32
100004.31
100004.31
100004.33
100004.35
100004.39
100004.43
100004.48
100004.54
100004.59
100004.65
100004.7
100004.75
100004.79
100004.82
100004.84
100004.85
100004.85
100004.83
100004.79
100004.74
100004.66
100004.57
100004.45
100004.31
100004.15
100003.97
100003.76
100003.53
100003.28
100003.01
100002.72
100002.41
100002.09
100001.74
100001.38
100001.01
100000.63
100000.23
99999.71
100004.96
100004.84
100004.74
100004.66
100004.59
100004.54
100004.5
100004.48
100004.47
100004.47
100004.49
100004.51
100004.55
100004.59
100004.63
100004.68
100004.73
100004.77
100004.82
100004.86
100004.89
100004.92
100004.93
100004.93
100004.92
100004.89
100004.85
100004.79
100004.71
100004.6
100004.48
100004.34
100004.17
100003.99
100003.78
100003.54
100003.29
100003.02
100002.73
100002.42
100002.09
100001.74
100001.38
100001.01
100000.63
100000.22
99999.72
100005.21
100005.08
100004.98
100004.88
100004.81
100004.74
100004.7
100004.66
100004.64
100004.64
100004.64
100004.65
100004.68
100004.71
100004.74
100004.78
100004.82
100004.87
100004.91
100004.94
100004.98
100005
100005.02
100005.02
100005.02
100005
100004.96
100004.91
100004.84
100004.75
100004.65
100004.52
100004.37
100004.2
100004
100003.79
100003.56
100003.3
100003.02
100002.73
100002.42
100002.09
100001.74
100001.38
100001.01
100000.63
100000.22
99999.729
100005.33
100005.21
100005.11
100005.03
100004.96
100004.9
100004.86
100004.83
100004.82
100004.81
100004.81
100004.83
100004.85
100004.88
100004.91
100004.94
100004.98
100005.01
100005.05
100005.08
100005.1
100005.12
100005.13
100005.12
100005.11
100005.08
100005.04
100004.98
100004.9
100004.8
100004.69
100004.55
100004.4
100004.22
100004.02
100003.81
100003.57
100003.31
100003.03
100002.73
100002.42
100002.09
100001.74
100001.38
100001.01
100000.63
100000.21
99999.738
100005.69
100005.56
100005.45
100005.34
100005.25
100005.18
100005.12
100005.07
100005.03
100005.01
100004.99
100004.99
100005
100005.01
100005.03
100005.05
100005.08
100005.11
100005.14
100005.17
100005.19
100005.22
100005.23
100005.24
100005.24
100005.23
100005.2
100005.17
100005.11
100005.05
100004.96
100004.86
100004.73
100004.59
100004.43
100004.25
100004.04
100003.82
100003.58
100003.31
100003.03
100002.73
100002.42
100002.08
100001.74
100001.37
100001
100000.62
100000.21
99999.746
100005.92
100005.79
100005.67
100005.57
100005.48
100005.4
100005.33
100005.28
100005.24
100005.21
100005.19
100005.18
100005.18
100005.18
100005.2
100005.21
100005.23
100005.26
100005.28
100005.31
100005.33
100005.35
100005.36
100005.37
100005.37
100005.36
100005.34
100005.3
100005.26
100005.2
100005.12
100005.02
100004.91
100004.78
100004.63
100004.46
100004.27
100004.06
100003.83
100003.58
100003.32
100003.03
100002.73
100002.41
100002.08
100001.73
100001.37
100001
100000.62
100000.2
99999.753
100006.01
100005.89
100005.79
100005.7
100005.62
100005.55
100005.49
100005.45
100005.41
100005.39
100005.37
100005.37
100005.37
100005.38
100005.39
100005.4
100005.42
100005.44
100005.46
100005.48
100005.5
100005.51
100005.51
100005.51
100005.5
100005.48
100005.45
100005.41
100005.35
100005.28
100005.19
100005.09
100004.96
100004.82
100004.67
100004.49
100004.29
100004.08
100003.84
100003.59
100003.32
100003.03
100002.73
100002.41
100002.07
100001.72
100001.36
100000.99
100000.62
100000.2
99999.76
100006.1
100006
100005.91
100005.83
100005.76
100005.7
100005.65
100005.62
100005.59
100005.57
100005.56
100005.56
100005.57
100005.57
100005.59
100005.6
100005.62
100005.63
100005.65
100005.66
100005.67
100005.67
100005.67
100005.66
100005.64
100005.61
100005.57
100005.51
100005.44
100005.36
100005.26
100005.15
100005.02
100004.87
100004.7
100004.51
100004.31
100004.09
100003.85
100003.59
100003.32
100003.03
100002.72
100002.4
100002.06
100001.71
100001.35
100000.99
100000.61
100000.19
99999.765
100006.2
100006.11
100006.03
100005.96
100005.9
100005.86
100005.82
100005.79
100005.77
100005.76
100005.76
100005.76
100005.77
100005.78
100005.79
100005.8
100005.82
100005.83
100005.84
100005.84
100005.85
100005.84
100005.83
100005.81
100005.78
100005.74
100005.68
100005.62
100005.54
100005.44
100005.33
100005.21
100005.07
100004.91
100004.73
100004.54
100004.32
100004.1
100003.85
100003.59
100003.31
100003.01
100002.71
100002.38
100002.05
100001.7
100001.34
100000.98
100000.6
100000.18
99999.769
100006.3
100006.22
100006.15
100006.1
100006.05
100006.02
100005.99
100005.97
100005.96
100005.96
100005.96
100005.97
100005.97
100005.99
100006
100006.01
100006.02
100006.03
100006.03
100006.03
100006.03
100006.01
100005.99
100005.96
100005.92
100005.87
100005.8
100005.72
100005.63
100005.52
100005.4
100005.27
100005.11
100004.94
100004.76
100004.55
100004.33
100004.1
100003.84
100003.58
100003.29
100003
100002.69
100002.36
100002.03
100001.68
100001.33
100000.96
100000.59
100000.17
99999.771
100006.4
100006.33
100006.28
100006.24
100006.2
100006.18
100006.16
100006.16
100006.15
100006.16
100006.16
100006.17
100006.19
100006.2
100006.21
100006.22
100006.23
100006.23
100006.23
100006.22
100006.21
100006.19
100006.15
100006.11
100006.06
100005.99
100005.92
100005.82
100005.72
100005.6
100005.47
100005.32
100005.15
100004.97
100004.77
100004.56
100004.33
100004.08
100003.83
100003.55
100003.27
100002.97
100002.66
100002.34
100002
100001.66
100001.3
100000.94
100000.58
100000.16
99999.772
100006.5
100006.45
100006.41
100006.38
100006.36
100006.35
100006.34
100006.34
100006.35
100006.36
100006.37
100006.39
100006.4
100006.42
100006.43
100006.44
100006.44
100006.44
100006.43
100006.42
100006.39
100006.36
100006.32
100006.26
100006.2
100006.12
100006.03
100005.92
100005.8
100005.67
100005.52
100005.36
100005.18
100004.98
100004.77
100004.55
100004.31
100004.06
100003.8
100003.52
100003.23
100002.93
100002.62
100002.3
100001.97
100001.63
100001.28
100000.92
100000.56
100000.14
99999.771
100006.6
100006.57
100006.54
100006.53
100006.52
100006.52
100006.52
100006.53
100006.55
100006.56
100006.58
100006.6
100006.62
100006.64
100006.65
100006.65
100006.65
100006.65
100006.63
100006.61
100006.58
100006.53
100006.48
100006.41
100006.33
100006.24
100006.13
100006.01
100005.87
100005.72
100005.56
100005.38
100005.19
100004.98
100004.76
100004.53
100004.28
100004.02
100003.75
100003.47
100003.18
100002.88
100002.57
100002.25
100001.92
100001.58
100001.24
100000.89
100000.54
100000.13
99999.769
100006.71
100006.69
100006.68
100006.67
100006.68
100006.69
100006.7
100006.73
100006.75
100006.77
100006.8
100006.82
100006.84
100006.86
100006.87
100006.87
100006.87
100006.86
100006.83
100006.8
100006.76
100006.7
100006.63
100006.55
100006.46
100006.35
100006.22
100006.08
100005.93
100005.77
100005.59
100005.39
100005.18
100004.96
100004.73
100004.48
100004.23
100003.96
100003.68
100003.4
100003.11
100002.8
100002.5
100002.18
100001.86
100001.53
100001.2
100000.86
100000.51
100000.11
99999.765
100006.82
100006.81
100006.81
100006.82
100006.84
100006.86
100006.89
100006.92
100006.95
100006.98
100007.01
100007.04
100007.06
100007.08
100007.09
100007.09
100007.08
100007.06
100007.03
100006.99
100006.93
100006.86
100006.78
100006.68
100006.57
100006.44
100006.3
100006.14
100005.97
100005.79
100005.59
100005.38
100005.16
100004.92
100004.67
100004.42
100004.15
100003.88
100003.59
100003.31
100003.01
100002.71
100002.41
100002.1
100001.79
100001.47
100001.14
100000.81
100000.47
100000.08
99999.759
100006.93
100006.94
100006.95
100006.98
100007.01
100007.04
100007.08
100007.12
100007.16
100007.19
100007.23
100007.26
100007.28
100007.3
100007.31
100007.3
100007.29
100007.26
100007.22
100007.17
100007.1
100007.01
100006.91
100006.8
100006.67
100006.52
100006.36
100006.18
100005.99
100005.79
100005.57
100005.34
100005.1
100004.85
100004.59
100004.32
100004.04
100003.76
100003.47
100003.18
100002.89
100002.59
100002.3
100002
100001.69
100001.38
100001.07
100000.76
100000.43
100000.05
99999.752
100007.04
100007.07
100007.09
100007.13
100007.17
100007.22
100007.27
100007.31
100007.36
100007.41
100007.45
100007.48
100007.5
100007.52
100007.52
100007.51
100007.49
100007.45
100007.4
100007.33
100007.25
100007.15
100007.03
100006.89
100006.74
100006.57
100006.39
100006.19
100005.98
100005.75
100005.52
100005.27
100005.01
100004.74
100004.46
100004.18
100003.9
100003.61
100003.32
100003.03
100002.74
100002.45
100002.16
100001.87
100001.58
100001.29
100000.99
100000.69
100000.39
100000.02
99999.744
100007.16
100007.19
100007.24
100007.29
100007.34
100007.4
100007.46
100007.51
100007.57
100007.62
100007.66
100007.69
100007.72
100007.73
100007.73
100007.71
100007.68
100007.64
100007.57
100007.49
100007.38
100007.26
100007.12
100006.97
100006.79
100006.6
100006.39
100006.17
100005.93
100005.68
100005.42
100005.15
100004.87
100004.59
100004.3
100004
100003.71
100003.42
100003.12
100002.83
100002.55
100002.27
100001.99
100001.71
100001.44
100001.17
100000.89
100000.62
100000.33
99999.986
99999.735
100007.27
100007.32
100007.38
100007.44
100007.51
100007.58
100007.64
100007.71
100007.77
100007.82
100007.87
100007.91
100007.93
100007.94
100007.93
100007.91
100007.86
100007.8
100007.72
100007.62
100007.5
100007.36
100007.19
100007.01
100006.81
100006.59
100006.36
100006.11
100005.84
100005.57
100005.28
100004.99
100004.69
100004.38
100004.08
100003.77
100003.47
100003.17
100002.88
100002.59
100002.32
100002.04
100001.78
100001.53
100001.27
100001.02
100000.77
100000.52
100000.26
99999.944
99999.725
100007.39
100007.45
100007.52
100007.6
100007.67
100007.75
100007.83
100007.9
100007.97
100008.03
100008.07
100008.11
100008.13
100008.13
100008.12
100008.08
100008.03
100007.95
100007.85
100007.73
100007.58
100007.42
100007.23
100007.02
100006.79
100006.54
100006.27
100005.99
100005.7
100005.4
100005.08
100004.77
100004.44
100004.12
100003.8
100003.49
100003.18
100002.87
100002.58
100002.3
100002.03
100001.78
100001.54
100001.3
100001.08
100000.85
100000.63
100000.42
100000.18
99999.898
99999.715
100007.5
100007.58
100007.66
100007.75
100007.84
100007.93
100008.01
100008.09
100008.16
100008.22
100008.27
100008.3
100008.32
100008.31
100008.29
100008.24
100008.17
100008.07
100007.95
100007.81
100007.64
100007.44
100007.22
100006.98
100006.72
100006.43
100006.14
100005.82
100005.5
100005.16
100004.82
100004.48
100004.13
100003.79
100003.46
100003.13
100002.81
100002.51
100002.22
100001.95
100001.7
100001.46
100001.24
100001.04
100000.84
100000.66
100000.47
100000.29
100000.09
99999.846
99999.705
100007.62
100007.71
100007.8
100007.9
100008
100008.1
100008.19
100008.27
100008.35
100008.41
100008.46
100008.48
100008.49
100008.48
100008.44
100008.38
100008.29
100008.17
100008.02
100007.85
100007.65
100007.42
100007.17
100006.89
100006.59
100006.27
100005.93
100005.58
100005.22
100004.86
100004.48
100004.11
100003.74
100003.38
100003.03
100002.7
100002.38
100002.08
100001.8
100001.54
100001.31
100001.09
100000.9
100000.73
100000.57
100000.42
100000.28
100000.14
99999.992
99999.788
99999.694
100007.73
100007.83
100007.94
100008.05
100008.16
100008.26
100008.36
100008.45
100008.53
100008.59
100008.63
100008.65
100008.65
100008.62
100008.57
100008.48
100008.37
100008.23
100008.05
100007.85
100007.61
100007.35
100007.05
100006.73
100006.39
100006.03
100005.66
100005.27
100004.87
100004.46
100004.06
100003.66
100003.27
100002.89
100002.52
100002.18
100001.86
100001.56
100001.29
100001.05
100000.84
100000.66
100000.51
100000.38
100000.26
100000.16
100000.07
99999.977
99999.876
99999.724
99999.683
100007.84
100007.95
100008.07
100008.19
100008.31
100008.42
100008.52
100008.61
100008.69
100008.75
100008.78
100008.8
100008.78
100008.74
100008.66
100008.56
100008.42
100008.24
100008.04
100007.79
100007.52
100007.21
100006.87
100006.51
100006.12
100005.72
100005.29
100004.86
100004.42
100003.98
100003.54
100003.11
100002.69
100002.29
100001.92
100001.57
100001.25
100000.96
100000.71
100000.49
100000.31
100000.17
100000.05
99999.969
99999.905
99999.857
99999.82
99999.788
99999.745
99999.654
99999.672
100007.94
100008.07
100008.2
100008.33
100008.45
100008.57
100008.67
100008.76
100008.84
100008.89
100008.92
100008.92
100008.89
100008.82
100008.73
100008.59
100008.42
100008.21
100007.96
100007.68
100007.36
100007
100006.62
100006.2
100005.76
100005.31
100004.83
100004.35
100003.86
100003.38
100002.91
100002.44
100002
100001.59
100001.2
100000.85
100000.54
100000.26
100000.03
99999.847
99999.704
99999.602
99999.539
99999.508
99999.503
99999.517
99999.543
99999.576
99999.598
99999.576
99999.659
100008.04
100008.18
100008.32
100008.45
100008.58
100008.7
100008.81
100008.9
100008.97
100009.01
100009.03
100009.01
100008.96
100008.87
100008.75
100008.58
100008.37
100008.12
100007.83
100007.5
100007.13
100006.72
100006.28
100005.8
100005.31
100004.79
100004.26
100003.73
100003.19
100002.67
100002.15
100001.66
100001.2
100000.76
100000.37
100000.02
99999.718
99999.464
99999.263
99999.113
99999.015
99998.965
99998.959
99998.99
99999.052
99999.136
99999.234
99999.339
99999.435
99999.489
99999.645
100008.13
100008.28
100008.42
100008.57
100008.7
100008.82
100008.93
100009.01
100009.07
100009.1
100009.1
100009.07
100009
100008.88
100008.72
100008.52
100008.27
100007.97
100007.63
100007.24
100006.81
100006.34
100005.84
100005.3
100004.74
100004.16
100003.57
100002.98
100002.39
100001.82
100001.27
100000.74
100000.25
99999.81
99999.414
99999.071
99998.785
99998.558
99998.393
99998.288
99998.243
99998.253
99998.313
99998.416
99998.553
99998.714
99998.891
99999.078
99999.254
99999.394
99999.628
100008.21
100008.37
100008.52
100008.66
100008.8
100008.92
100009.02
100009.1
100009.15
100009.17
100009.15
100009.09
100008.99
100008.84
100008.65
100008.4
100008.1
100007.75
100007.35
100006.9
100006.41
100005.87
100005.29
100004.68
100004.05
100003.4
100002.75
100002.09
100001.45
100000.83
100000.23
99999.678
99999.169
99998.715
99998.321
99997.991
99997.73
99997.539
99997.419
99997.369
99997.386
99997.466
99997.601
99997.784
99998.005
99998.252
99998.517
99998.791
99999.057
99999.289
99999.608
100008.28
100008.44
100008.6
100008.75
100008.88
100009
100009.09
100009.16
100009.2
100009.2
100009.15
100009.07
100008.93
100008.75
100008.51
100008.21
100007.86
100007.45
100006.98
100006.46
100005.89
100005.28
100004.62
100003.94
100003.23
100002.5
100001.77
100001.05
100000.35
99999.671
99999.036
99998.452
99997.927
99997.468
99997.083
99996.775
99996.547
99996.401
99996.337
99996.352
99996.443
99996.603
99996.824
99997.097
99997.41
99997.752
99998.112
99998.481
99998.843
99999.174
99999.583
100008.17
100008.34
100008.5
100008.66
100008.8
100008.94
100009.05
100009.13
100009.19
100009.21
100009.18
100009.11
100009
100008.82
100008.59
100008.3
100007.95
100007.54
100007.06
100006.52
100005.92
100005.27
100004.57
100003.82
100003.05
100002.25
100001.44
100000.63
99999.834
99999.066
99998.338
99997.663
99997.052
99996.514
99996.058
99995.69
99995.413
99995.231
99995.143
99995.147
99995.241
99995.417
99995.669
99995.986
99996.358
99996.773
99997.217
99997.679
99998.151
99998.614
99999.049
99999.554
100008.03
100008.2
100008.37
100008.54
100008.69
100008.84
100008.96
100009.07
100009.14
100009.18
100009.17
100009.12
100009.02
100008.87
100008.65
100008.37
100008.03
100007.61
100007.12
100006.57
100005.95
100005.26
100004.52
100003.72
100002.88
100002
100001.11
100000.2
99999.304
99998.43
99997.594
99996.811
99996.096
99995.462
99994.918
99994.474
99994.134
99993.903
99993.78
99993.764
99993.851
99994.037
99994.312
99994.668
99995.094
99995.575
99996.1
99996.653
99997.225
99997.803
99998.373
99998.916
99999.519
100007.87
100008.04
100008.21
100008.38
100008.55
100008.7
100008.84
100008.96
100009.05
100009.11
100009.12
100009.1
100009.02
100008.88
100008.68
100008.42
100008.08
100007.67
100007.18
100006.62
100005.98
100005.27
100004.48
100003.63
100002.73
100001.77
100000.79
99999.78
99998.772
99997.778
99996.817
99995.909
99995.07
99994.318
99993.666
99993.126
99992.705
99992.409
99992.238
99992.192
99992.266
99992.455
99992.749
99993.139
99993.612
99994.157
99994.758
99995.401
99996.07
99996.755
99997.444
99998.124
99998.776
99999.48
100007.85
100008.02
100008.2
100008.37
100008.53
100008.68
100008.81
100008.92
100009
100009.03
100009.03
100008.97
100008.86
100008.68
100008.43
100008.11
100007.71
100007.23
100006.67
100006.02
100005.28
100004.47
100003.57
100002.6
100001.58
100000.5
99999.386
99998.257
99997.131
99996.029
99994.975
99993.989
99993.094
99992.309
99991.647
99991.123
99990.742
99990.507
99990.419
99990.471
99990.657
99990.967
99991.389
99991.91
99992.516
99993.192
99993.922
99994.689
99995.48
99996.281
99997.082
99997.872
99998.632
99999.437
100007.81
100007.98
100008.16
100008.33
100008.48
100008.63
100008.75
100008.84
100008.9
100008.91
100008.88
100008.79
100008.64
100008.41
100008.12
100007.74
100007.27
100006.71
100006.06
100005.32
100004.48
100003.55
100002.53
100001.43
100000.26
99999.04
99997.785
99996.516
99995.257
99994.034
99992.876
99991.809
99990.858
99990.044
99989.386
99988.894
99988.575
99988.428
99988.448
99988.626
99988.95
99989.406
99989.978
99990.649
99991.402
99992.221
99993.088
99993.986
99994.9
99995.818
99996.73
99997.626
99998.489
99999.392
100007.75
100007.92
100008.09
100008.25
100008.4
100008.53
100008.64
100008.71
100008.75
100008.74
100008.68
100008.55
100008.36
100008.09
100007.73
100007.29
100006.75
100006.11
100005.37
100004.52
100003.56
100002.5
100001.34
100000.09
99998.769
99997.386
99995.965
99994.534
99993.122
99991.762
99990.488
99989.333
99988.328
99987.497
99986.859
99986.425
99986.197
99986.17
99986.334
99986.673
99987.168
99987.799
99988.545
99989.387
99990.303
99991.276
99992.286
99993.317
99994.354
99995.386
99996.404
99997.399
99998.355
99999.348
100007.65
100007.82
100007.98
100008.13
100008.27
100008.39
100008.48
100008.54
100008.55
100008.51
100008.42
100008.26
100008.02
100007.7
100007.29
100006.78
100006.16
100005.43
100004.59
100003.62
100002.54
100001.33
100000.02
99998.6
99997.094
99995.52
99993.906
99992.284
99990.693
99989.174
99987.769
99986.521
99985.465
99984.632
99984.04
99983.698
99983.603
99983.742
99984.096
99984.64
99985.346
99986.186
99987.136
99988.169
99989.264
99990.399
99991.557
99992.72
99993.875
99995.012
99996.126
99997.206
99998.241
99999.309
100007.52
100007.68
100007.83
100007.97
100008.1
100008.2
100008.28
100008.31
100008.3
100008.23
100008.11
100007.9
100007.62
100007.25
100006.78
100006.2
100005.5
100004.68
100003.73
100002.64
100001.42
100000.05
99998.56
99996.945
99995.226
99993.427
99991.582
99989.732
99987.926
99986.217
99984.662
99983.313
99982.216
99981.405
99980.899
99980.7
99980.797
99981.164
99981.769
99982.573
99983.538
99984.629
99985.812
99987.058
99988.344
99989.648
99990.953
99992.242
99993.505
99994.733
99995.924
99997.07
99998.161
99999.282
100007.35
100007.5
100007.64
100007.77
100007.88
100007.97
100008.02
100008.03
100007.99
100007.9
100007.74
100007.5
100007.17
100006.75
100006.22
100005.57
100004.79
100003.87
100002.81
100001.59
100000.21
99998.672
99996.976
99995.133
99993.161
99991.091
99988.964
99986.833
99984.761
99982.822
99981.089
99979.633
99978.511
99977.763
99977.402
99977.422
99977.794
99978.474
99979.409
99980.544
99981.827
99983.211
99984.659
99986.138
99987.623
99989.096
99990.54
99991.942
99993.295
99994.593
99995.836
99997.019
99998.136
99999.279
100007.14
100007.27
100007.4
100007.51
100007.61
100007.67
100007.7
100007.69
100007.63
100007.51
100007.31
100007.04
100006.67
100006.2
100005.61
100004.9
100004.04
100003.03
100001.85
100000.5
99998.952
99997.216
99995.287
99993.175
99990.899
99988.494
99986.012
99983.523
99981.113
99978.884
99976.938
99975.371
99974.256
99973.636
99973.517
99973.868
99974.635
99975.742
99977.11
99978.66
99980.325
99982.048
99983.788
99985.511
99987.197
99988.829
99990.397
99991.891
99993.306
99994.643
99995.904
99997.088
99998.195
99999.314
100006.76
100006.88
100007
100007.11
100007.21
100007.28
100007.33
100007.34
100007.3
100007.22
100007.07
100006.85
100006.54
100006.14
100005.63
100004.99
100004.22
100003.29
100002.19
100000.9
99999.4
99997.681
99995.726
99993.531
99991.098
99988.449
99985.62
99982.678
99979.717
99976.86
99974.253
99972.045
99970.37
99969.324
99968.946
99969.219
99970.072
99971.403
99973.091
99975.017
99977.079
99979.19
99981.29
99983.336
99985.303
99987.176
99988.946
99990.609
99992.163
99993.605
99994.941
99996.177
99997.319
99998.374
99999.411
100006.47
100006.58
100006.68
100006.77
100006.85
100006.9
100006.93
100006.92
100006.86
100006.76
100006.59
100006.34
100006.01
100005.59
100005.04
100004.37
100003.55
100002.57
100001.39
99999.998
99998.364
99996.463
99994.272
99991.772
99988.958
99985.842
99982.466
99978.909
99975.302
99971.827
99968.704
99966.166
99964.408
99963.549
99963.611
99964.519
99966.13
99968.26
99970.724
99973.354
99976.02
99978.628
99981.119
99983.463
99985.648
99987.673
99989.542
99991.26
99992.83
99994.255
99995.542
99996.702
99997.751
99998.714
99999.597
100006.16
100006.24
100006.32
100006.39
100006.45
100006.48
100006.48
100006.45
100006.38
100006.26
100006.07
100005.82
100005.48
100005.04
100004.48
100003.79
100002.95
100001.93
100000.7
99999.227
99997.474
99995.4
99992.964
99990.127
99986.862
99983.163
99979.066
99974.666
99970.14
99965.767
99961.906
99958.941
99957.169
99956.728
99957.574
99959.511
99962.255
99965.499
99968.966
99972.442
99975.777
99978.889
99981.741
99984.33
99986.671
99988.785
99990.693
99992.41
99993.945
99995.303
99996.487
99997.514
99998.42