/*--------------------------------*- C++ -*----------------------------------*\
| =========                 |                                                 |
| \\      /  F ield         | OpenFOAM: The Open Source CFD Toolbox           |
|  \\    /   O peration     | Version:  2312                                  |
|   \\  /    A nd           | Website:  www.openfoam.com                      |
|    \\/     M anipulation  |                                                 |
\*---------------------------------------------------------------------------*/
FoamFile
{
    version     2.0;
    format      ascii;
    arch        "LSB;label=32;scalar=64";
    class       surfaceScalarField;
    location    "0.06";
    object      phi;
}
// * * * * * * * * * * * * * * * * * * * * * * * * * * * * * * * * * * * * * //

dimensions      [1 0 -1 0 0 0 0];

oriented        oriented;

internalField   nonuniform List<scalar> 
6327
(
2.6981523e-09
5.7278358e-10
1.6497865e-09
5.5363097e-10
6.1571213e-10
5.3521788e-10
-4.0384709e-10
5.17686e-10
-1.408637e-09
5.0113706e-10
-2.3983879e-09
4.8564977e-10
-3.3728144e-09
4.7127454e-10
-4.3316313e-09
4.5804343e-10
-5.2745515e-09
4.4596931e-10
-6.2013026e-09
4.3504941e-10
-7.1116299e-09
4.2527033e-10
-8.0053096e-09
4.166064e-10
-8.8821524e-09
4.0902852e-10
-9.7420098e-09
4.0249881e-10
-1.0584777e-08
3.9698187e-10
-1.1410391e-08
3.9243524e-10
-1.2218838e-08
3.8882204e-10
-1.3010145e-08
3.8609934e-10
-1.3784383e-08
3.8423127e-10
-1.4541662e-08
3.8317806e-10
-1.5282131e-08
3.8290782e-10
-1.600597e-08
3.8338399e-10
-1.6713394e-08
3.845768e-10
-1.7404644e-08
3.8645273e-10
-1.807999e-08
3.8898442e-10
-1.8739721e-08
3.9213977e-10
-1.9384154e-08
3.9589131e-10
-2.0013621e-08
4.0020771e-10
-2.0628469e-08
4.0506129e-10
-2.1229054e-08
4.104191e-10
-2.1815729e-08
4.1624977e-10
-2.2388835e-08
4.2251768e-10
-2.2948682e-08
4.2919005e-10
-2.3495526e-08
4.3623447e-10
-2.4029554e-08
4.4363914e-10
-2.4550851e-08
4.5142218e-10
-2.5059409e-08
4.596891e-10
-2.5555002e-08
4.6848941e-10
-2.6037498e-08
4.780412e-10
-2.6505083e-08
4.8657881e-10
4.9555446e-10
2.6993026e-09
1.0778999e-09
1.6513088e-09
1.0471773e-09
6.1764601e-10
1.0176525e-09
-4.0146835e-10
9.8950752e-10
-1.4057869e-09
9.6287713e-10
-2.3950445e-09
9.378794e-10
-3.3689608e-09
9.1459124e-10
-4.327255e-09
8.9307349e-10
-5.2696448e-09
8.7335468e-10
-6.1958618e-09
8.5544729e-10
-7.1056554e-09
8.3934241e-10
-7.9988052e-09
8.2501571e-10
-8.8751252e-09
8.1243181e-10
-9.7344696e-09
8.0154204e-10
-1.0576736e-08
7.9229642e-10
-1.1401864e-08
7.8463257e-10
-1.220984e-08
7.7849374e-10
-1.3000693e-08
7.7381136e-10
-1.3774496e-08
7.7052737e-10
-1.4531358e-08
7.6857442e-10
-1.5271429e-08
7.6789888e-10
-1.5994888e-08
7.6843754e-10
-1.670195e-08
7.7014072e-10
-1.7392855e-08
7.7295132e-10
-1.8067871e-08
7.7682425e-10
-1.8727289e-08
7.817078e-10
-1.9371423e-08
7.8756014e-10
-2.0000603e-08
7.9433214e-10
-2.0615178e-08
8.0198304e-10
-2.12155e-08
8.1046177e-10
-2.1801924e-08
8.1972015e-10
-2.2374789e-08
8.2969904e-10
-2.2934404e-08
8.403405e-10
-2.3481028e-08
8.5157828e-10
-2.4014848e-08
8.6336426e-10
-2.4535951e-08
8.7566691e-10
-2.5044331e-08
8.8855694e-10
-2.5539766e-08
9.0193864e-10
-2.6022118e-08
9.1609867e-10
-2.6489467e-08
9.2767223e-10
9.4106551e-10
2.7030999e-09
1.5822801e-09
1.6558682e-09
1.5399901e-09
6.2302253e-10
1.4993773e-09
-3.9522289e-10
1.4606395e-09
-1.3986286e-09
1.4239421e-09
-2.3869373e-09
1.3894407e-09
-3.3598777e-09
1.3572395e-09
-4.3171767e-09
1.327427e-09
-5.2585605e-09
1.300049e-09
-6.1837684e-09
1.2751334e-09
-7.0925574e-09
1.2526773e-09
-7.9847142e-09
1.2326593e-09
-8.8600587e-09
1.2150388e-09
-9.718451e-09
1.1997585e-09
-1.0559793e-08
1.1867543e-09
-1.1384028e-08
1.175946e-09
-1.2191147e-08
1.1672567e-09
-1.2981179e-08
1.1605942e-09
-1.3754199e-08
1.1558776e-09
-1.4510316e-08
1.1530138e-09
-1.524968e-08
1.1519259e-09
-1.5972469e-08
1.1525253e-09
-1.6678895e-08
1.1547411e-09
-1.7369197e-08
1.1584929e-09
-1.8043641e-08
1.1637184e-09
-1.8702514e-08
1.1703449e-09
-1.9346127e-08
1.1783158e-09
-1.997481e-08
1.1875647e-09
-2.0588906e-08
1.1980369e-09
-2.1188767e-08
1.2096636e-09
-2.1774745e-08
1.2223799e-09
-2.2347179e-08
1.236104e-09
-2.2906377e-08
1.2507529e-09
-2.3452598e-08
1.2662274e-09
-2.398603e-08
1.2824436e-09
-2.4506761e-08
1.2993217e-09
-2.501479e-08
1.3168964e-09
-2.5509907e-08
1.3349359e-09
-2.5991936e-08
1.3537434e-09
-2.6458821e-08
1.3682493e-09
1.3862504e-09
2.7102121e-09
2.0854046e-09
1.6641823e-09
2.0315784e-09
6.3260263e-10
1.9799021e-09
-3.8431576e-10
1.9305943e-09
-1.3863456e-09
1.8838539e-09
-2.3732407e-09
1.8398694e-09
-3.3447429e-09
1.7987731e-09
-4.3005907e-09
1.7606793e-09
-5.240523e-09
1.7256519e-09
-6.1642901e-09
1.6937347e-09
-7.07166e-09
1.6649314e-09
-7.9624291e-09
1.6392241e-09
-8.8364259e-09
1.6165677e-09
-9.6935179e-09
1.5968973e-09
-1.0533612e-08
1.5801348e-09
-1.1356658e-08
1.5661835e-09
-1.2162647e-08
1.554946e-09
-1.2951613e-08
1.5463081e-09
-1.3723627e-08
1.540165e-09
-1.4478801e-08
1.536399e-09
-1.5217278e-08
1.5349089e-09
-1.5939238e-08
1.535582e-09
-1.6644886e-08
1.5383245e-09
-1.7334457e-08
1.5430343e-09
-1.8008211e-08
1.5496292e-09
-1.8666432e-08
1.5580178e-09
-1.9309424e-08
1.5681267e-09
-1.9937513e-08
1.5798734e-09
-2.0551037e-08
1.5931882e-09
-2.1150345e-08
1.6079862e-09
-2.1735784e-08
1.6241847e-09
-2.2307691e-08
1.6416808e-09
-2.2866372e-08
1.6603661e-09
-2.3412085e-08
1.6801107e-09
-2.3945017e-08
1.7007943e-09
-2.4465261e-08
1.7222921e-09
-2.4972818e-08
1.7446015e-09
-2.5467493e-08
1.7673676e-09
-2.5949093e-08
1.7908712e-09
-2.6415196e-08
1.8079928e-09
1.8310942e-09
3.7808419e-09
2.6543885e-09
2.7222214e-09
2.5867249e-09
1.6778692e-09
2.5214007e-09
6.4802586e-10
2.4587013e-09
-3.6711032e-10
2.3988724e-09
-1.3673262e-09
2.3421422e-09
-2.3523926e-09
2.2887311e-09
-3.3220676e-09
2.238797e-09
-4.2761054e-09
2.1924788e-09
-5.2142597e-09
2.1498574e-09
-6.1362944e-09
2.1109916e-09
-7.0419897e-09
2.0758916e-09
-7.9311522e-09
2.0445426e-09
-8.8036188e-09
2.0168952e-09
-9.6592636e-09
1.9928768e-09
-1.0497998e-08
1.9723951e-09
-1.1319774e-08
1.9553374e-09
-1.2124583e-08
1.9415856e-09
-1.2912456e-08
1.9310037e-09
-1.3683465e-08
1.9234635e-09
-1.4437715e-08
1.9188229e-09
-1.5175344e-08
1.9169565e-09
-1.5896525e-08
1.9177271e-09
-1.6601457e-08
1.9210189e-09
-1.7290367e-08
1.9267073e-09
-1.7963507e-08
1.9346905e-09
-1.8621152e-08
1.9448582e-09
-1.9263601e-08
1.957121e-09
-1.9891169e-08
1.97138e-09
-2.0504189e-08
1.9875508e-09
-2.1103003e-08
2.0055318e-09
-2.1687953e-08
2.0252243e-09
-2.2259371e-08
2.0465037e-09
-2.281756e-08
2.0692379e-09
-2.3362775e-08
2.093266e-09
-2.38952e-08
2.1184325e-09
-2.4414932e-08
2.1445714e-09
-2.4921964e-08
2.1716345e-09
-2.5416155e-08
2.1992e-09
-2.5897193e-08
2.2273522e-09
-2.6363047e-08
2.247438e-09
2.2741811e-09
3.3622854e-09
3.1069795e-09
2.4265249e-09
3.0287876e-09
1.5034593e-09
2.9533348e-09
5.9327301e-10
2.8809395e-09
-3.0387057e-10
2.8118667e-09
-1.1877993e-09
2.7463716e-09
-2.0583245e-09
2.6846967e-09
-2.9152473e-09
2.6270213e-09
-3.7583631e-09
2.5735035e-09
-4.5874667e-09
2.5242389e-09
-5.4023601e-09
2.4792977e-09
-6.2028584e-09
2.4386954e-09
-6.988798e-09
2.4024193e-09
-7.7600405e-09
2.3704156e-09
-8.5164776e-09
2.3426043e-09
-9.2580325e-09
2.3188809e-09
-9.9846626e-09
2.2991181e-09
-1.0696359e-08
2.2831801e-09
-1.1393145e-08
2.2709119e-09
-1.2075079e-08
2.2621645e-09
-1.2742248e-08
2.2567752e-09
-1.3394768e-08
2.254597e-09
-1.4032785e-08
2.2554723e-09
-1.4656466e-08
2.2592652e-09
-1.5266004e-08
2.2658323e-09
-1.5861615e-08
2.2750542e-09
-1.6443534e-08
2.2868045e-09
-1.7012017e-08
2.3009792e-09
-1.7567336e-08
2.3174654e-09
-1.810978e-08
2.3361656e-09
-1.8639643e-08
2.3569645e-09
-1.9157224e-08
2.3797481e-09
-1.9662812e-08
2.4043742e-09
-2.0156668e-08
2.4306883e-09
-2.0639018e-08
2.4585056e-09
-2.1110014e-08
2.4876298e-09
-2.1569766e-08
2.5178945e-09
-2.201817e-08
2.5490862e-09
-2.245546e-08
2.581183e-09
-2.2880027e-08
2.6123978e-09
-2.3296383e-08
2.6403733e-09
2.6558788e-09
3.479174e-09
3.5706057e-09
2.5186294e-09
3.4816787e-09
1.5711725e-09
3.3959005e-09
6.3698704e-10
3.3136144e-09
-2.8376511e-10
3.2351162e-09
-1.1909135e-09
3.1606854e-09
-2.0842737e-09
3.0905869e-09
-2.9636503e-09
3.0250194e-09
-3.8288421e-09
2.9641596e-09
-4.6796469e-09
2.9081173e-09
-5.5158691e-09
2.856974e-09
-6.3373259e-09
2.8107506e-09
-7.1438554e-09
2.7694366e-09
-7.9353201e-09
2.7329741e-09
-8.7116127e-09
2.7012762e-09
-9.4726568e-09
2.6742266e-09
-1.021841e-08
2.6516837e-09
-1.0948861e-08
2.6334944e-09
-1.1664037e-08
2.6194852e-09
-1.2363991e-08
2.609487e-09
-1.3048813e-08
2.6033161e-09
-1.3718618e-08
2.6008048e-09
-1.4373548e-08
2.6017744e-09
-1.5013775e-08
2.6060696e-09
-1.5639489e-08
2.6135276e-09
-1.6250909e-08
2.6240118e-09
-1.6848271e-08
2.637379e-09
-1.7431833e-08
2.6535108e-09
-1.8001872e-08
2.6722798e-09
-1.8558679e-08
2.6935755e-09
-1.9102556e-08
2.7172674e-09
-1.9633806e-08
2.743227e-09
-2.0152722e-08
2.7712923e-09
-2.0659573e-08
2.8012868e-09
-2.1154585e-08
2.8329988e-09
-2.1637913e-08
2.866192e-09
-2.2109663e-08
2.9006925e-09
-2.2569741e-08
2.9361394e-09
-2.3018338e-08
2.9728569e-09
-2.3453959e-08
3.0073437e-09
-2.3880272e-08
3.042582e-09
3.0482744e-09
3.6118451e-09
4.0458949e-09
2.6254015e-09
3.9460487e-09
1.6524362e-09
3.8497648e-09
6.931397e-10
3.7574068e-09
-2.5231758e-10
3.6693046e-09
-1.1837616e-09
3.5857648e-09
-2.1010047e-09
3.507072e-09
-3.0038502e-09
3.4334453e-09
-3.892095e-09
3.3650786e-09
-4.7655358e-09
3.3020967e-09
-5.6239758e-09
3.2445924e-09
-6.4672316e-09
3.1925933e-09
-7.2951408e-09
3.1460913e-09
-8.1075659e-09
3.105026e-09
-8.9043997e-09
3.0693049e-09
-9.6855662e-09
3.0388007e-09
-1.0451024e-08
3.0133594e-09
-1.1200763e-08
2.9928112e-09
-1.1934811e-08
2.9769655e-09
-1.2653223e-08
2.9656333e-09
-1.335609e-08
2.9586116e-09
-1.4043528e-08
2.9557113e-09
-1.4715685e-08
2.9567344e-09
-1.5372731e-08
2.961505e-09
-1.6014864e-08
2.9698422e-09
-1.6642302e-08
2.9815913e-09
-1.725529e-08
2.9965932e-09
-1.785409e-08
3.0147141e-09
-1.8438987e-08
3.0358125e-09
-1.9010278e-08
3.0597634e-09
-1.9568274e-08
3.0864218e-09
-2.0113286e-08
3.1156419e-09
-2.0645615e-08
3.1472421e-09
-2.1165535e-08
3.1810201e-09
-2.1673276e-08
3.2167361e-09
-2.2168995e-08
3.2541115e-09
-2.2652786e-08
3.2929555e-09
-2.3124575e-08
3.3327871e-09
-2.3584443e-08
3.3741515e-09
-2.4031167e-08
3.4122151e-09
-2.4466794e-08
3.4534098e-09
3.4524082e-09
4.7885637e-09
4.647705e-09
3.7616003e-09
4.5333173e-09
2.7482723e-09
4.4223936e-09
1.7488099e-09
4.3154405e-09
7.6340759e-10
4.2128518e-09
-2.0775454e-10
4.1149881e-09
-1.1644935e-09
4.022181e-09
-2.1066142e-09
3.934734e-09
-3.0339135e-09
3.852886e-09
-3.946182e-09
3.7768478e-09
-4.8432109e-09
3.70676e-09
-5.7247979e-09
3.6427267e-09
-6.5907556e-09
3.5847834e-09
-7.4409175e-09
3.5329261e-09
-8.2751433e-09
3.4870934e-09
-9.0933233e-09
3.4471885e-09
-9.8953803e-09
3.4130753e-09
-1.0681272e-08
3.3845893e-09
-1.1450988e-08
3.3615454e-09
-1.2204557e-08
3.3437379e-09
-1.2942036e-08
3.330959e-09
-1.3663517e-08
3.3229879e-09
-1.436912e-08
3.3196148e-09
-1.5058994e-08
3.3206235e-09
-1.5733316e-08
3.3258178e-09
-1.6392286e-08
3.3349996e-09
-1.7036132e-08
3.3479958e-09
-1.7665103e-08
3.3646321e-09
-1.827947e-08
3.3847587e-09
-1.8879526e-08
3.4082204e-09
-1.9465581e-08
3.4348763e-09
-2.0037954e-08
3.4645663e-09
-2.0596966e-08
3.4971254e-09
-2.1142927e-08
3.5323499e-09
-2.1676117e-08
3.5700094e-09
-2.2196769e-08
3.6098307e-09
-2.2705039e-08
3.6514916e-09
-2.3201007e-08
3.6947704e-09
-2.3684608e-08
3.7390934e-09
-2.4155805e-08
3.7850964e-09
-2.461361e-08
3.8269728e-09
-2.5058836e-08
3.8731342e-09
3.8679286e-09
4.9838842e-09
5.1591965e-09
3.9288153e-09
5.0331866e-09
2.8877557e-09
4.9110467e-09
1.8609321e-09
4.7932933e-09
8.485501e-10
4.6803423e-09
-1.4919727e-10
4.5725829e-09
-1.132116e-09
4.4703704e-09
-2.1000007e-09
4.374026e-09
-3.0526394e-09
4.2838089e-09
-3.9898131e-09
4.1999454e-09
-4.9113048e-09
4.1225925e-09
-5.8169041e-09
4.051866e-09
-6.7064162e-09
3.9878109e-09
-7.5796679e-09
3.9304278e-09
-8.4365133e-09
3.8796567e-09
-9.276838e-09
3.8353987e-09
-1.0100561e-08
3.7975107e-09
-1.0907637e-08
3.7658198e-09
-1.1698055e-08
3.740128e-09
-1.2471841e-08
3.7202166e-09
-1.3229053e-08
3.7058604e-09
-1.3969785e-08
3.6968227e-09
-1.4694158e-08
3.6928744e-09
-1.5402325e-08
3.6937823e-09
-1.6094466e-08
3.6993307e-09
-1.6770789e-08
3.7093052e-09
-1.7431526e-08
3.7235147e-09
-1.8076934e-08
3.7417704e-09
-1.8707296e-08
3.7639062e-09
-1.9322913e-08
3.789753e-09
-1.9924106e-08
3.8191533e-09
-2.0511207e-08
3.8519304e-09
-2.1084546e-08
3.8878975e-09
-2.1644444e-08
3.9268267e-09
-2.2191185e-08
3.968454e-09
-2.2725001e-08
4.0124684e-09
-2.3246046e-08
4.0584989e-09
-2.375438e-08
4.1062804e-09
-2.4249938e-08
4.1551667e-09
-2.473256e-08
4.2057634e-09
-2.5201492e-08
4.2516457e-09
-2.56565e-08
4.3019299e-09
4.2946678e-09
6.2954202e-09
5.8247977e-09
5.1974079e-09
5.6834082e-09
4.1134986e-09
5.5456797e-09
3.0439595e-09
5.412214e-09
1.9890278e-09
5.2835471e-09
9.4891599e-10
5.1601242e-09
-7.6171812e-11
5.0423572e-09
-1.0860299e-09
4.9306225e-09
-2.080442e-09
4.8252578e-09
-3.0591855e-09
4.7265416e-09
-4.022031e-09
4.6347153e-09
-4.9687517e-09
4.5499527e-09
-5.8991273e-09
4.4723813e-09
-6.8129544e-09
4.4020567e-09
-7.7100514e-09
4.3389856e-09
-8.590265e-09
4.2831112e-09
-9.453474e-09
4.234334e-09
-1.0299592e-08
4.1925067e-09
-1.1128568e-08
4.15745e-09
-1.1940388e-08
4.1289553e-09
-1.2735076e-08
4.1067931e-09
-1.3512688e-08
4.0907229e-09
-1.4273317e-08
4.0804941e-09
-1.5017085e-08
4.0758596e-09
-1.5744148e-08
4.0765708e-09
-1.6454688e-08
4.0823937e-09
-1.7148917e-08
4.093099e-09
-1.7827074e-08
4.108478e-09
-1.8489425e-08
4.1283282e-09
-1.913626e-08
4.1524671e-09
-1.9767893e-08
4.1807118e-09
-2.0384654e-08
4.2128867e-09
-2.0986886e-08
4.2487974e-09
-2.1574933e-08
4.2882322e-09
-2.214912e-08
4.3309348e-09
-2.2709738e-08
4.3766029e-09
-2.3257015e-08
4.4248798e-09
-2.3791095e-08
4.4753409e-09
-2.4312015e-08
4.527663e-09
-2.4819701e-08
4.5811455e-09
-2.5313882e-08
4.6362603e-09
-2.5794002e-08
4.6862813e-09
-2.625905e-08
4.7400496e-09
4.7325151e-09
6.5568955e-09
6.3740268e-09
5.429011e-09
6.2204166e-09
4.3155978e-09
6.070869e-09
3.2169163e-09
5.9259867e-09
2.13321e-09
5.7863179e-09
1.0647022e-09
5.6523331e-09
1.1608753e-11
5.5244647e-09
-1.0258529e-09
5.4031081e-09
-2.047456e-09
5.2886169e-09
-3.0529672e-09
5.1812879e-09
-4.042147e-09
5.0813777e-09
-5.0147585e-09
4.9890762e-09
-5.9705718e-09
4.9045231e-09
-6.9093741e-09
4.8277854e-09
-7.8309749e-09
4.7588769e-09
-8.7352127e-09
4.6977457e-09
-9.6219587e-09
4.6442934e-09
-1.0491119e-08
4.598371e-09
-1.1342638e-08
4.5597948e-09
-1.2176497e-08
4.528348e-09
-1.2992712e-08
4.5037922e-09
-1.379134e-08
4.4858741e-09
-1.457247e-08
4.4743306e-09
-1.5336223e-08
4.4688989e-09
-1.6082755e-08
4.4693164e-09
-1.681225e-08
4.4753324e-09
-1.7524925e-08
4.4867033e-09
-1.8221022e-08
4.5032044e-09
-1.8900814e-08
4.5246199e-09
-1.95646e-08
4.5507513e-09
-2.0212703e-08
4.5814015e-09
-2.0845464e-08
4.6163761e-09
-2.1463239e-08
4.6554604e-09
-2.2066378e-08
4.6984148e-09
-2.2655216e-08
4.7449495e-09
-2.3230044e-08
4.7947175e-09
-2.3791084e-08
4.8473079e-09
-2.4338464e-08
4.9022347e-09
-2.4872194e-08
4.9591048e-09
-2.5392182e-08
5.017174e-09
-2.5898064e-08
5.0767103e-09
-2.6389447e-08
5.1309407e-09
-2.6864784e-08
5.1877396e-09
5.1813652e-09
8.0100267e-09
7.105718e-09
6.8370995e-09
6.9361072e-09
5.678714e-09
6.770205e-09
4.5351652e-09
6.6087602e-09
3.4067199e-09
6.4523829e-09
2.2936284e-09
6.3016355e-09
1.1961223e-09
6.1570122e-09
1.1442754e-10
6.0189624e-09
-9.5122812e-10
5.8878983e-09
-2.0006078e-09
5.7641884e-09
-3.0334681e-09
5.6481477e-09
-4.0495598e-09
5.5400467e-09
-5.0486364e-09
5.440092e-09
-6.0304589e-09
5.348435e-09
-6.9948058e-09
5.2651551e-09
-7.9414779e-09
5.1902741e-09
-8.8703057e-09
5.1237464e-09
-9.7811524e-09
5.0654767e-09
-1.0673917e-08
5.0153159e-09
-1.1548537e-08
4.9730779e-09
-1.2404988e-08
4.9385404e-09
-1.3243281e-08
4.9114577e-09
-1.4063468e-08
4.891566e-09
-1.4865634e-08
4.8785916e-09
-1.5649898e-08
4.8722577e-09
-1.6416416e-08
4.8722891e-09
-1.716537e-08
4.8784201e-09
-1.789698e-08
4.8903942e-09
-1.8611492e-08
4.9079718e-09
-1.9309183e-08
4.9309244e-09
-1.9990359e-08
4.9590382e-09
-2.0655354e-08
4.9921013e-09
-2.1304519e-08
5.0298992e-09
-2.1938218e-08
5.0721945e-09
-2.2556812e-08
5.1187159e-09
-2.3160639e-08
5.1691341e-09
-2.3749989e-08
5.2230493e-09
-2.4325074e-08
5.2799864e-09
-2.4886002e-08
5.3393892e-09
-2.543275e-08
5.4007837e-09
-2.5965199e-08
5.4633907e-09
-2.6482918e-08
5.5272331e-09
-2.6985638e-08
5.5856913e-09
-2.7471492e-08
5.6452242e-09
5.6411335e-09
8.3406172e-09
7.6933691e-09
7.136201e-09
7.5109644e-09
5.9467054e-09
7.3326972e-09
4.7724267e-09
7.1592855e-09
3.6136348e-09
6.9913481e-09
2.4705846e-09
6.8294603e-09
1.3435175e-09
6.6741338e-09
2.3266942e-10
6.5258335e-09
-8.6172149e-10
6.3849869e-09
-1.9394092e-09
6.2519778e-09
-3.0001409e-09
6.1271379e-09
-4.0436588e-09
6.0107521e-09
-5.0697076e-09
5.9030425e-09
-6.0780402e-09
5.804173e-09
-7.0684271e-09
5.7142355e-09
-8.0406614e-09
5.6332608e-09
-8.994566e-09
5.5612111e-09
-9.9299969e-09
5.4979953e-09
-1.0846846e-08
5.4434666e-09
-1.1745044e-08
5.397438e-09
-1.262456e-08
5.3596838e-09
-1.34854e-08
5.3299531e-09
-1.432761e-08
5.3079734e-09
-1.515127e-08
5.2934619e-09
-1.5956496e-08
5.2861302e-09
-1.6743441e-08
5.2856915e-09
-1.7512288e-08
5.2918671e-09
-1.8263254e-08
5.3043886e-09
-1.8996589e-08
5.323003e-09
-1.9712575e-08
5.3474698e-09
-2.0411523e-08
5.3775605e-09
-2.1093776e-08
5.4130475e-09
-2.1759693e-08
5.4536954e-09
-2.2409649e-08
5.4992408e-09
-2.3044012e-08
5.5493761e-09
-2.3663124e-08
5.6037249e-09
-2.426727e-08
5.6618255e-09
-2.4856645e-08
5.723127e-09
-2.5431334e-08
5.7869926e-09
-2.5991276e-08
5.8528591e-09
-2.653632e-08
5.9199176e-09
-2.706599e-08
5.9879363e-09
-2.7580112e-08
6.0505941e-09
-2.8076668e-08
6.1126896e-09
6.1117527e-09
9.94256e-09
8.4926167e-09
8.6910649e-09
8.2936954e-09
7.454557e-09
8.0984507e-09
6.2333589e-09
7.9077603e-09
5.0277717e-09
7.7223239e-09
3.8380697e-09
7.542772e-09
2.6645144e-09
7.36969e-09
1.5073554e-09
7.2036046e-09
3.6683759e-10
7.0449943e-09
-7.567919e-10
6.8943007e-09
-1.863278e-09
6.7519222e-09
-2.9523592e-09
6.618207e-09
-4.0237695e-09
6.4934536e-09
-5.0772459e-09
6.3778997e-09
-6.1125342e-09
6.2717217e-09
-7.1293978e-09
6.1750244e-09
-8.1276232e-09
6.0878483e-09
-9.1070265e-09
6.0101647e-09
-1.0067457e-08
5.9418882e-09
-1.1008801e-08
5.8828759e-09
-1.1930981e-08
5.8329418e-09
-1.2833961e-08
5.7918586e-09
-1.3717742e-08
5.7593716e-09
-1.4582362e-08
5.7352021e-09
-1.5427898e-08
5.7190594e-09
-1.6254461e-08
5.7106453e-09
-1.70622e-08
5.7096632e-09
-1.7851296e-08
5.7158227e-09
-1.8621966e-08
5.7288452e-09
-1.937446e-08
5.7484656e-09
-2.0109065e-08
5.7744321e-09
-2.0826097e-08
5.8065021e-09
-2.1525906e-08
5.8444319e-09
-2.2208862e-08
5.8879634e-09
-2.2875348e-08
5.9368035e-09
-2.3525739e-08
5.9906026e-09
-2.4160378e-08
6.0489288e-09
-2.4779542e-08
6.1112471e-09
-2.5383409e-08
6.1769175e-09
-2.5972029e-08
6.245211e-09
-2.6545304e-08
6.3154693e-09
-2.7103044e-08
6.3868587e-09
-2.764475e-08
6.4589092e-09
-2.8170321e-08
6.5257007e-09
-2.8677717e-08
6.5902781e-09
6.5931559e-09
1.0346421e-08
9.1187674e-09
9.0618392e-09
8.9064967e-09
7.7926483e-09
8.6983659e-09
6.5391775e-09
8.4951985e-09
5.3017276e-09
8.2976905e-09
4.0805774e-09
8.1064808e-09
2.8759943e-09
7.9221621e-09
1.6882365e-09
7.7452721e-09
5.1755809e-10
7.576302e-09
-6.3578434e-10
7.4157066e-09
-1.7715272e-09
7.263899e-09
-2.8894007e-09
7.121243e-09
-3.9891315e-09
6.9880511e-09
-5.0704496e-09
6.8645755e-09
-6.1330946e-09
6.7510057e-09
-7.1768239e-09
6.6474596e-09
-8.2014183e-09
6.5539885e-09
-9.2066882e-09
6.4705733e-09
-1.0192477e-08
6.397136e-09
-1.1158665e-08
6.3335389e-09
-1.2105171e-08
6.2795986e-09
-1.303195e-08
6.2350882e-09
-1.3938998e-08
6.1997507e-09
-1.4826349e-08
6.1733029e-09
-1.5694073e-08
6.1554479e-09
-1.6542277e-08
6.1458794e-09
-1.7371106e-08
6.1442925e-09
-1.8180737e-08
6.1503871e-09
-1.8971386e-08
6.1638754e-09
-1.9743305e-08
6.1844822e-09
-2.0496782e-08
6.211945e-09
-2.1232141e-08
6.2460078e-09
-2.1949739e-08
6.28641e-09
-2.2649955e-08
6.3328691e-09
-2.3333181e-08
6.3850576e-09
-2.39998e-08
6.4425774e-09
-2.4650154e-08
6.5049302e-09
-2.5284511e-08
6.5714948e-09
-2.5903022e-08
6.6415271e-09
-2.6505702e-08
6.7141933e-09
-2.7092408e-08
6.7887359e-09
-2.7662912e-08
6.8643031e-09
-2.8216708e-08
6.9402252e-09
-2.8753752e-08
7.0110507e-09
-2.9272083e-08
7.078097e-09
7.085286e-09
1.2105472e-08
9.9864846e-09
1.0771759e-08
9.7571391e-09
9.4535072e-09
9.5315016e-09
8.1510653e-09
9.3104442e-09
6.8647675e-09
9.0947589e-09
5.5949174e-09
8.8851434e-09
4.3417995e-09
8.6822424e-09
3.1056882e-09
8.486653e-09
1.8868496e-09
8.2989223e-09
6.8554658e-10
8.1195529e-09
-4.9795522e-10
7.9490122e-09
-1.6633836e-09
7.7877276e-09
-2.8104608e-09
7.6360779e-09
-3.9389064e-09
7.4943893e-09
-5.0484443e-09
7.3629283e-09
-6.1388085e-09
7.2418977e-09
-7.2097515e-09
7.1314285e-09
-8.2610492e-09
7.0315835e-09
-9.2925073e-09
6.9423546e-09
-1.0303965e-08
6.8636719e-09
-1.1295296e-08
6.7954046e-09
-1.2266415e-08
6.7373733e-09
-1.3217272e-08
6.6893531e-09
-1.4147857e-08
6.651086e-09
-1.5058199e-08
6.6222863e-09
-1.5948362e-08
6.6026522e-09
-1.6818448e-08
6.5918714e-09
-1.7668597e-08
6.5896318e-09
-1.8498985e-08
6.595626e-09
-1.9309824e-08
6.6095582e-09
-2.0101368e-08
6.6311449e-09
-2.0873906e-08
6.6601142e-09
-2.1627771e-08
6.6961972e-09
-2.2363326e-08
6.7391156e-09
-2.3080962e-08
6.7885597e-09
-2.3781082e-08
6.8441631e-09
-2.4464075e-08
6.9054702e-09
-2.5130281e-08
6.9719045e-09
-2.5779955e-08
7.0427422e-09
-2.641322e-08
7.1171186e-09
-2.7030046e-08
7.1940814e-09
-2.7630247e-08
7.2727729e-09
-2.8213549e-08
7.3523325e-09
-2.877946e-08
7.4319473e-09
-2.9327983e-08
7.5066788e-09
-2.9857307e-08
7.5762236e-09
7.5880914e-09
1.2587561e-08
1.0650526e-08
1.1219185e-08
1.040741e-08
9.8666938e-09
1.0168379e-08
8.5304532e-09
9.9343563e-09
7.2107983e-09
9.7061217e-09
5.9080357e-09
9.484374e-09
4.6224557e-09
9.269759e-09
3.3543394e-09
9.0628766e-09
2.1039616e-09
8.8642806e-09
8.7159472e-10
8.6744844e-09
-3.4248621e-10
8.4939676e-09
-1.5380004e-09
8.3231714e-09
-2.7146622e-09
8.1624892e-09
-3.8721847e-09
8.0122607e-09
-5.0102862e-09
7.8727663e-09
-6.1286961e-09
7.744222e-09
-7.2271626e-09
7.6267725e-09
-8.3054577e-09
7.5204925e-09
-9.3633835e-09
7.4253855e-09
-1.0400775e-08
7.341391e-09
-1.1417503e-08
7.2683864e-09
-1.2413475e-08
7.2061973e-09
-1.3388639e-08
7.1546024e-09
-1.434298e-08
7.1133443e-09
-1.5276519e-08
7.0821361e-09
-1.6189318e-08
7.0606728e-09
-1.7081472e-08
7.0486378e-09
-1.7953117e-08
7.0457136e-09
-1.8804424e-08
7.0515873e-09
-1.9635606e-08
7.0659572e-09
-2.0446915e-08
7.0885333e-09
-2.1238646e-08
7.1190355e-09
-2.2011137e-08
7.1571829e-09
-2.2764762e-08
7.2026782e-09
-2.3499925e-08
7.2551823e-09
-2.4217039e-08
7.3142826e-09
-2.4916502e-08
7.3794568e-09
-2.5598652e-08
7.4500346e-09
-2.6263727e-08
7.5251717e-09
-2.6911817e-08
7.6038633e-09
-2.7542844e-08
7.6850248e-09
-2.815657e-08
7.7676996e-09
-2.8752681e-08
7.8510332e-09
-2.9330711e-08
7.9341401e-09
-2.9890706e-08
8.0126247e-09
-3.0431064e-08
8.0847271e-09
8.1015451e-09
1.3092947e-08
1.1326187e-08
1.1689344e-08
1.1069189e-08
1.0302073e-08
1.0816724e-08
8.9315085e-09
1.0569706e-08
7.5779876e-09
1.0328903e-08
6.2418216e-09
1.009501e-08
4.9233076e-09
9.8686692e-09
3.6227345e-09
9.6504823e-09
2.340386e-09
9.4410091e-09
1.0765441e-09
9.2407725e-09
-1.6850671e-10
9.0502638e-09
-1.3944766e-09
8.8699373e-09
-2.6010725e-09
8.7002007e-09
-3.7880011e-09
8.5414067e-09
-4.9549757e-09
8.3938496e-09
-6.1017217e-09
8.2577584e-09
-7.2279839e-09
8.1332914e-09
-8.3335315e-09
8.020536e-09
-9.4181638e-09
7.9195079e-09
-1.0481712e-08
7.8301568e-09
-1.1524046e-08
7.7523691e-09
-1.2545068e-08
7.6859771e-09
-1.3544722e-08
7.6307638e-09
-1.4522988e-08
7.5864741e-09
-1.5479883e-08
7.5528211e-09
-1.6415464e-08
7.5294983e-09
-1.7329821e-08
7.5161864e-09
-1.8223084e-08
7.5125645e-09
-1.9095423e-08
7.5183164e-09
-1.9947047e-08
7.5331366e-09
-2.0778209e-08
7.5567307e-09
-2.1589211e-08
7.5888121e-09
-2.2380396e-08
7.6290884e-09
-2.3152153e-08
7.6772426e-09
-2.3904899e-08
7.7329018e-09
-2.4639063e-08
7.7956008e-09
-2.535505e-08
7.8647373e-09
-2.6053198e-08
7.9395299e-09
-2.6733724e-08
8.0189922e-09
-2.739668e-08
8.1019579e-09
-2.8041933e-08
8.1871957e-09
-2.8669192e-08
8.2736555e-09
-2.9278106e-08
8.3605101e-09
-2.9868245e-08
8.4468841e-09
-3.0439708e-08
8.5289492e-09
-3.0991136e-08
8.6036838e-09
8.6256521e-09
1.3622278e-08
1.2013038e-08
1.2182908e-08
1.1742011e-08
1.0760341e-08
1.1476062e-08
9.3549537e-09
1.1216028e-08
7.9670852e-09
1.0962649e-08
6.5970527e-09
1.0716607e-08
5.2451605e-09
1.0478543e-08
3.9117062e-09
1.0249054e-08
2.5969832e-09
1.0028707e-08
1.3012837e-09
9.8180324e-09
2.4902738e-11
9.6175333e-09
-1.2318612e-09
9.4276765e-09
-2.4687072e-09
9.2488833e-09
-3.6853365e-09
9.0815195e-09
-4.8814575e-09
8.9258923e-09
-6.0567926e-09
8.782244e-09
-7.211084e-09
8.6507465e-09
-8.3440992e-09
8.5315001e-09
-9.4556353e-09
8.4245332e-09
-1.0545523e-08
8.3298064e-09
-1.1613626e-08
8.2472161e-09
-1.2659849e-08
8.1766018e-09
-1.368413e-08
8.1177521e-09
-1.4686446e-08
8.0704152e-09
-1.566681e-08
8.0343058e-09
-1.6625271e-08
8.009117e-09
-1.7561918e-08
7.994529e-09
-1.8476875e-08
7.9902195e-09
-1.9370307e-08
7.995871e-09
-2.0242423e-08
8.0111769e-09
-2.1093478e-08
8.035841e-09
-2.1923778e-08
8.0695716e-09
-2.2733678e-08
8.1120661e-09
-2.3523582e-08
8.1629861e-09
-2.4293925e-08
8.221921e-09
-2.5045152e-08
8.2883431e-09
-2.5777681e-08
8.3615556e-09
-2.6491847e-08
8.440645e-09
-2.7187845e-08
8.5244574e-09
-2.7865683e-08
8.6116417e-09
-2.8525169e-08
8.7008063e-09
-2.9165957e-08
8.7908163e-09
-2.9787661e-08
8.8809034e-09
-3.0389905e-08
8.970294e-09
-3.097285e-08
9.0557526e-09
-3.1535408e-08
9.1332076e-09
9.160476e-09
1.5668685e-08
1.3000155e-08
1.4176203e-08
1.2710376e-08
1.2700569e-08
1.2425286e-08
1.124222e-08
1.2145835e-08
9.8015392e-09
1.1872781e-08
8.3788687e-09
1.1606831e-08
6.9745335e-09
1.1348655e-08
5.5888469e-09
1.1098881e-08
4.2221164e-09
1.0858109e-08
2.8746461e-09
1.0626908e-08
1.5467394e-09
1.0405817e-08
2.3870143e-10
1.019535e-08
-1.0491598e-09
9.9959845e-09
-2.316536e-09
9.8081558e-09
-3.5631229e-09
9.6322423e-09
-4.7886251e-09
9.4685638e-09
-5.9927624e-09
9.3173756e-09
-7.1752755e-09
9.1788631e-09
-8.3359309e-09
9.0531396e-09
-9.4745251e-09
8.9402465e-09
-1.0590887e-08
8.8401559e-09
-1.1684883e-08
8.7527742e-09
-1.2756411e-08
8.6779492e-09
-1.380541e-08
8.615476e-09
-1.4831853e-08
8.5651067e-09
-1.5835749e-08
8.5265589e-09
-1.6817144e-08
8.499527e-09
-1.7776119e-08
8.4836921e-09
-1.8712796e-08
8.4787329e-09
-1.9627335e-08
8.4843333e-09
-2.0519944e-08
8.5001884e-09
-2.1390881e-08
8.5260024e-09
-2.224046e-08
8.5614814e-09
-2.3069048e-08
8.6063131e-09
-2.3877068e-08
8.6601362e-09
-2.4664977e-08
8.7224967e-09
-2.5433244e-08
8.7927935e-09
-2.6182298e-08
8.870217e-09
-2.6912473e-08
8.953697e-09
-2.7623941e-08
9.041883e-09
-2.831666e-08
9.1332134e-09
-2.8990376e-08
9.2261243e-09
-2.9644685e-08
9.3194112e-09
-3.0279178e-08
9.4124064e-09
-3.0893543e-08
9.5045401e-09
-3.1488025e-08
9.5931996e-09
-3.2061822e-08
9.6734721e-09
9.7061548e-09
1.6285101e-08
1.3721933e-08
1.4755393e-08
1.3417466e-08
1.3243029e-08
1.3118342e-08
1.1748447e-08
1.2825402e-08
1.0272033e-08
1.2539344e-08
8.8141386e-09
1.2260849e-08
7.3750969e-09
1.1990566e-08
5.9552324e-09
1.1729117e-08
4.5548639e-09
1.1477098e-08
3.1743076e-09
1.1235082e-08
1.8138789e-09
1.1003618e-08
4.738941e-10
1.0783228e-08
-8.4532959e-10
1.0574402e-08
-2.1434766e-09
1.0377586e-08
-3.4202373e-09
1.0193172e-08
-4.6753132e-09
1.0021491e-08
-5.9084224e-09
9.8628125e-09
-7.1193049e-09
9.7173338e-09
-8.3077275e-09
9.5851818e-09
-9.4734873e-09
9.4664107e-09
-1.0616414e-08
9.3610043e-09
-1.1736373e-08
9.2688795e-09
-1.2833264e-08
9.1898925e-09
-1.3907023e-08
9.1238454e-09
-1.4957621e-08
9.070495e-09
-1.5985064e-08
9.0295627e-09
-1.6989394e-08
9.0007456e-09
-1.7970687e-08
8.9837277e-09
-1.8929059e-08
8.9781907e-09
-1.9864669e-08
8.983823e-09
-2.0777723e-08
9.0003241e-09
-2.1668482e-08
9.0274024e-09
-2.2537268e-08
9.0647638e-09
-2.3384469e-08
9.1120873e-09
-2.4210527e-08
9.1689867e-09
-2.5015931e-08
9.2349577e-09
-2.5801173e-08
9.3093119e-09
-2.6566703e-08
9.3911057e-09
-2.7312855e-08
9.4790825e-09
-2.8039772e-08
9.5716628e-09
-2.8747362e-08
9.6670471e-09
-2.9435303e-08
9.7634903e-09
-3.0103138e-08
9.8597406e-09
-3.0750444e-08
9.9552867e-09
-3.1376994e-08
1.0049872e-08
-3.1983134e-08
1.0141544e-08
-3.2568359e-08
1.0224746e-08
1.0262934e-08
2.0114801e-08
1.5105419e-08
1.8512694e-08
1.4776617e-08
1.6927895e-08
1.4452543e-08
1.5360526e-08
1.4133508e-08
1.3811005e-08
1.3820426e-08
1.2279773e-08
1.351404e-08
1.0767222e-08
1.3215021e-08
9.273715e-09
1.2924023e-08
7.7995975e-09
1.2641682e-08
6.3452071e-09
1.2368609e-08
4.910876e-09
1.2105401e-08
3.4969337e-09
1.1852635e-08
2.1037086e-09
1.1610867e-08
7.3152842e-10
1.1380627e-08
-6.1928007e-10
1.1162416e-08
-1.9483941e-09
1.0956693e-08
-3.2554992e-09
1.076386e-08
-4.5402945e-09
1.0584262e-08
-5.802497e-09
1.0418178e-08
-7.0418474e-09
1.0265821e-08
-8.2581139e-09
1.012733e-08
-9.4510956e-09
1.000277e-08
-1.0620624e-08
9.892139e-09
-1.1766567e-08
9.7953625e-09
-1.2888824e-08
9.7123057e-09
-1.3987331e-08
9.6427777e-09
-1.5062059e-08
9.5865407e-09
-1.6113011e-08
9.5433205e-09
-1.7140224e-08
9.5128182e-09
-1.814377e-08
9.4947222e-09
-1.9123761e-08
9.4887202e-09
-2.008035e-08
9.4945076e-09
-2.1013745e-08
9.5117923e-09
-2.1924211e-08
9.5402899e-09
-2.2812082e-08
9.5797093e-09
-2.3677766e-08
9.6297213e-09
-2.4521736e-08
9.6899124e-09
-2.5344515e-08
9.759719e-09
-2.614663e-08
9.8383492e-09
-2.6928554e-08
9.9246994e-09
-2.7690624e-08
1.0017292e-08
-2.8432956e-08
1.0114284e-08
-2.9155403e-08
1.0213608e-08
-2.9857577e-08
1.0313333e-08
-3.0538971e-08
1.0412194e-08
-3.1199166e-08
1.0509907e-08
-3.1838037e-08
1.0606645e-08
-3.2456057e-08
1.0701158e-08
-3.3053012e-08
1.0787419e-08
1.0831186e-08
2.252105e-08
1.6223639e-08
2.0862216e-08
1.5874402e-08
1.9221119e-08
1.5530194e-08
1.7597728e-08
1.5191102e-08
1.5992288e-08
1.4857659e-08
1.4405219e-08