/*--------------------------------*- C++ -*----------------------------------*\
| =========                 |                                                 |
| \\      /  F ield         | OpenFOAM: The Open Source CFD Toolbox           |
|  \\    /   O peration     | Version:  2312                                  |
|   \\  /    A nd           | Website:  www.openfoam.com                      |
|    \\/     M anipulation  |                                                 |
\*---------------------------------------------------------------------------*/
FoamFile
{
    version     2.0;
    format      ascii;
    arch        "LSB;label=32;scalar=64";
    class       volScalarField;
    location    "0.06";
    object      T;
}
// * * * * * * * * * * * * * * * * * * * * * * * * * * * * * * * * * * * * * //

dimensions      [0 0 0 1 0 0 0];

internalField   nonuniform List<scalar> 
3224
(
383.70883
380.97255
378.27126
375.60539
372.9752
370.38089
367.82263
365.30052
362.81461
360.36489
357.95131
355.57376
353.23209
350.92609
348.65553
346.42014
344.21961
342.05361
339.92178
337.82373
335.75905
333.72731
331.72808
329.76089
327.82528
325.92077
324.04686
322.20307
320.38888
318.60378
316.84726
315.11881
313.4179
311.74402
310.09665
308.47529
306.87944
305.30863
303.76238
302.24027
300.74186
383.69963
380.96315
378.26186
375.59614
372.96617
370.37214
367.81418
365.29238
362.80679
360.3574
357.94415
355.56692
353.22556
350.91988
348.64963
346.41455
344.21432
342.04862
339.91707
337.8193
335.75489
333.72343
331.72446
329.75752
327.82216
325.91789
324.04422
322.20065
320.38668
318.6018
316.84549
315.11723
313.41652
311.74282
310.09563
308.47444
306.87876
305.3081
303.76201
302.24005
300.74179
383.68289
380.94645
378.24548
375.58021
372.95076
370.35728
367.79988
365.27865
362.79364
360.34481
357.93212
355.55545
353.21464
350.9095
348.63978
346.40522
344.2055
342.04029
339.90924
337.81194
335.748
333.71698
331.71845
329.75195
327.817
325.91313
324.03986
322.19667
320.38306
318.59854
316.84257
315.11465
313.41425
311.74086
310.09397
308.47307
306.87766
305.30727
303.76143
302.23971
300.74168
383.65853
380.92246
378.22218
375.55767
372.92903
370.33636
367.77979
365.25939
362.77519
360.32718
357.91529
355.5394
353.19937
350.89499
348.62602
346.39219
344.19318
342.02867
339.8983
337.80167
335.73837
333.70799
331.71008
329.74417
327.80981
325.90651
324.03378
322.19112
320.37803
318.594
316.83852
315.11106
313.41111
311.73815
310.09167
308.47116
306.87614
305.30611
303.76062
302.23924
300.74153
386.39702
383.62614
380.89119
378.19199
375.52857
372.90101
370.30944
367.75395
365.23463
362.7515
360.30454
357.89368
355.51881
353.17978
350.87638
348.60837
346.37547
344.17739
342.01378
339.88428
337.7885
335.72604
333.69647
331.69935
329.73421
327.8006
325.89802
324.026
322.18402
320.37159
318.5882
316.83333
315.10647
313.40709
311.73468
310.08873
308.46873
306.8742
305.30464
303.7596
302.23864
300.74133
386.35673
383.58836
380.85491
378.15706
375.49495
372.8687
370.27841
367.7242
365.20613
362.72423
360.27849
357.86883
355.49514
353.15726
350.85498
348.58808
346.35627
344.15924
341.99666
339.86817
337.77338
335.71188
333.68324
331.68703
329.72278
327.79002
325.88828
324.01706
322.17587
320.3642
318.58154
316.82738
315.1012
313.40248
311.73071
310.08536
308.46595
306.87197
305.30295
303.75842
302.23795
300.74111
386.3129
383.54639
380.81463
378.11834
375.45774
372.83295
370.2441
367.69131
365.17464
362.69411
360.24972
357.84139
355.469
353.13239
350.83136
348.56568
346.33507
344.13921
341.97777
339.8504
337.75669
335.69625
333.66864
331.67343
329.71015
327.77834
325.87752
324.0072
322.16687
320.35604
318.57419
316.82081
315.09539
313.39739
311.72632
310.08165
308.46288
306.86952
305.30109
303.75713
302.2372
300.74087
386.26165
383.49699
380.76722
378.07282
375.41401
372.79097
370.20383
367.65271
365.13769
362.65878
360.21598
357.8092
355.43834
353.10323
350.80367
348.53942
346.31021
344.11572
341.95563
339.82955
337.73712
335.67792
333.65152
331.65749
329.69536
327.76466
325.86492
323.99564
322.15633
320.34647
318.56558
316.81312
315.08858
313.39144
311.72118
310.0773
308.45929
306.86665
305.29891
303.75561
302.23631
300.74058
388.99864
386.20178
383.43957
380.71216
378.01997
375.36328
372.74228
370.15714
367.60798
365.09488
362.61785
360.17689
357.77193
355.40284
353.06946
350.7716
348.50902
346.28143
344.08853
341.92998
339.80543
337.71447
335.65671
333.63171
331.63903
329.67823
327.74882
325.85032
323.98226
322.14412
320.3354
318.55561
316.80421
315.08069
313.38454
311.71524
310.07227
308.45513
306.86333
305.2964
303.75386
302.23529
300.74025
388.92595
386.13284
383.37358
380.64889
377.95927
375.30503
372.6864
370.10357
367.55666
365.04576
362.5709
360.13207
357.72918
355.36212
353.03074
350.73483
348.47416
346.24843
344.05736
341.90059
339.77776
337.6885
335.63238
333.60899
331.61788
329.65859
327.73065
325.83359
323.96691
322.13012
320.32271
318.54418
316.794
315.07166
313.37664
311.70843
310.0665
308.45037
306.85953
305.29351
303.75185
302.23411
300.73987
391.66384
388.8436
386.05431
383.29841
380.57683
377.89014
375.2387
372.62278
370.04259
367.49826
364.98988
362.51749
360.08107
357.68055
355.31582
352.98671
350.69302
348.43451
346.21091
344.02191
341.86716
339.74631
337.65897
335.60473
333.58316
331.59383
329.63626
327.71
325.81457
323.94947
322.11421
320.30829
318.53118
316.78239
315.06139
313.36766
311.70068
310.05995
308.44496
306.85521
305.29023
303.74957
302.23278
300.73944
391.56721
388.75083
385.96559
383.21343
380.49535
377.81197
375.16371
372.55087
369.97366
367.43226
364.92674
362.45714
360.02346
357.62562
355.26351
352.93697
350.64579
348.38974
346.16854
343.98187
341.82941
339.71079
337.62562
335.5735
333.55399
331.56666
329.61105
327.68668
325.79309
323.92978
322.09625
320.292
318.51651
316.76929
315.04979
313.35752
311.69194
310.05255
308.43885
306.85033
305.28653
303.74699
302.23127
300.73895
394.30065
391.45901
388.64688
385.86599
383.11795
380.40377
377.72411
375.07942
372.47004
369.89621
367.3581
364.85579
362.38935
359.95875
357.56392
355.20476
352.88111
350.59275
348.33946
346.12095
343.93692
341.78702
339.67091
337.58818
335.53843
333.52124
331.53616
329.58274
327.6605
325.76897
323.90766
322.07608
320.27371
318.50004
316.75457
315.03678
313.34614
311.68213
310.04425
308.432
306.84486
305.28239
303.7441
302.22958
300.7384
394.17557
391.33841
388.53094
385.75476
383.01124
380.30138
377.62586
374.98517
372.37967
369.80961
367.27518
364.77648
362.31356
359.88641
357.49496
355.1391
352.81867
350.53347
348.28327
346.06777
343.88668
341.73966
339.62634
337.54634
335.49925
333.48465
331.50208
329.55111
327.63125
325.74203
323.88296
322.05354
320.25327
318.48165
316.73814
315.02224
313.33343
311.67118
310.03499
308.42434
306.83876
305.27775
303.74088
302.2277
300.73779
396.89704
394.03669
391.20452
388.40217
385.63108
382.89251
380.18741
377.51648
374.88023
372.27905
369.7132
367.18288
364.68819
362.2292
359.80589
357.4182
355.06602
352.74919
350.46751
348.22074
346.0086
343.83078
341.68695
339.57675
337.49979
335.45566
333.44393
331.46417
329.51591
327.5987
325.71205
323.85547
322.02847
320.23055
318.46118
316.71987
315.00608
313.3193
311.65901
310.02469
308.41584
306.83197
305.27261
303.73729
302.2256
300.73711
396.73803
393.88305
391.0564
388.25962
385.49407
382.7609
380.06103
377.39517
374.76384
372.16744
369.60627
367.0805
364.59028
362.13565
359.71661
357.33309
354.98499
352.67215
350.39437
348.15141
345.94299
343.76881
341.62853
339.52178
337.44818
335.40733
333.3988
331.42214
329.47691
327.56263
325.67882
323.82501
322.00069
320.20536
318.43851
316.69962
314.98817
313.30365
311.64552
310.01328
308.40643
306.82446
305.26691
303.73333
302.22328
300.73635
399.43801
396.56261
393.71363
390.89302
388.10232
385.34279
382.6155
379.92137
377.26108
374.63518
372.04407
369.48805
366.96733
364.48204
362.03224
359.61792
357.23902
354.89543
352.58701
350.31354
348.0748
345.87049
343.70033
341.56396
339.46104
337.39116
335.35393
333.34893
331.3757
329.4338
327.52276
325.64211
323.79135
321.97
320.17754
318.41346
316.67726
314.9684
313.28637
311.63064
310.0007
308.39604
306.81618
305.26063
303.72896
302.22072
300.73552
399.23862
396.36977
393.5273
390.71329
387.9292
385.1762
382.45534
379.76747
377.1133
374.49336
371.90808
369.35775
366.84259
364.36274
361.91826
359.50914
357.13534
354.79673
352.49318
350.22447
347.99037
345.7906
343.62486
341.49282
339.3941
337.32833
335.29509
333.29398
331.32453
329.38631
327.47885
325.60167
323.75428
321.93619
320.14689
318.38588
316.65264
314.94663
313.26735
311.61427
309.98686
308.38462
306.80707
305.25373
303.72415
302.21791
300.73461
399.02061
396.15828
393.32285
390.51603
387.73911
384.99322
382.27935
379.59833
376.95085
374.33746
371.75857
369.21449
366.70545
364.23158
361.79295
359.38956
357.02136
354.68823
352.39003
350.12655
347.89756
345.70278
343.54192
341.41462
339.32053
337.25927
335.23042
333.23358
331.2683
329.33412
327.43058
325.55722
323.71353
321.89904
320.11322
318.35558
316.62559
314.92274
313.24648
311.5963
309.97167
308.3721
306.79709
305.24616
303.71889
302.21484
300.73361
398.782
395.92669
393.09895
390.29994
387.53083
384.79267
382.08641
379.41286
376.7727
374.16647
371.59458
369.05736
366.55503
364.08772
361.65551
359.2584
356.89634
354.56923
352.2769
350.01916
347.79578
345.60648
343.45095
341.32886
339.23985
337.18353
335.1595
333.16735
331.20663
329.27688
327.37766
325.50848
323.66886
321.85831
320.07632
318.32238
316.59597
314.89656
313.22362
311.57663
309.95506
308.35841
306.78617
305.23789
303.71313
302.21147
300.73252
401.39422
398.52036
395.6734
392.85415
390.06368
387.30306
384.5733
381.87532
379.20991
376.57773
373.97932
371.41509
368.88536
366.39036
363.93024
361.50506
359.11483
356.7595
354.43897
352.15307
349.90162
347.68437
345.50106
343.35138
341.23499
339.15154
337.10064
335.08188
333.09486
331.13913
329.21425
327.31974
325.45515
323.61999
321.81375
320.03595
318.28607
316.56358
314.86795
313.19865
311.55515
309.93693
308.34346
306.77427
305.22888
303.70686
302.20781
300.73133
401.09851
398.2344
395.39684
392.58694
389.80577
387.05439
384.33376
381.64479
378.98823
376.36474
373.77485
371.21898
368.69743
366.21045
363.75818
361.34068
358.95797
356.60999
354.29665
352.01778
349.7732
347.56266
345.38589
343.2426
341.13244
339.05506
337.01007
334.99708
333.01567
331.0654
329.14582
327.25647
325.3969
323.5666
321.7651
319.99188
318.24644
316.52824
314.83675
313.17143
311.53176
309.91718
308.3272
306.76132
305.21908
303.70005
302.20382
300.73004
406.55094
403.65374
400.77592
397.92254
395.09537
392.29571
389.52468
386.78333
384.07262
381.39343
378.7465
376.13247
373.55186
371.00508
368.49246
366.01421
363.57049
361.16137
358.78686
356.44691
354.14141
351.87021
349.63312
347.42989
345.26027
343.12395
341.02058
338.94983
336.91129
334.90459
332.92929
330.98497
329.07118
327.18747
325.33337
323.5084
321.71206
319.94385
318.20325
316.48974
314.80278
313.14182
311.50631
309.89573
308.30955
306.74728
305.20846
303.69266
302.19951
300.72864
409.0839
406.17733
403.29065
400.42485
397.58308
394.76725
391.97874
389.21873
386.48828
383.78835
381.11977
378.48329
375.87954
373.30901
370.77213
368.26922
365.80048
363.36608
360.96608
358.6005
356.26928
353.97233
351.70948
349.48055
347.2853
345.12345
342.99472
340.89875
338.83521
336.80371
334.80385
332.83521
330.89738
328.9899
327.11233
325.2642
323.44502
321.65432
319.89158
318.15628
316.44789
314.76587
313.10966
311.47871
309.87247
308.29043
306.73208
305.19696
303.68468
302.19484
300.72712
408.66581
405.77136
402.89664
400.04345
397.21416
394.41061
391.63421
388.88617
386.16755
383.47929
380.82223
378.19709
375.60449
373.04492
370.5188
368.02642
365.56803
363.14376
360.75368
358.39781
356.07609
353.78843
351.53466
349.31461
347.12802
344.97464
342.85415
340.76624
338.71054
336.68668
334.69427
332.73288
330.80211
328.9015
327.03061
325.18898
323.37612
321.59156
319.83478
318.10526
316.40247
314.72583
313.07481
311.44882
309.84731
308.26976
306.71566
305.18457
303.67607
302.18982
300.72549
408.21254
405.33097
402.46936
399.62961
396.81374
394.02347
391.26018
388.52511
385.8193
383.1437
380.49912
377.88628
375.30577
372.75808
370.24362
367.7627
365.31553
362.90225
360.52295
358.17762
355.86622
353.58865
351.34475
349.13434
346.95717
344.81297
342.70145
340.62228
338.57511
336.55955
334.57522
332.62172
330.69861
328.80547
326.94185
325.10729
323.30131
321.52344
319.77316
318.04994
316.35323
314.68248
313.0371
311.41651
309.82015
308.24748
306.69799
305.17123
303.66682
302.18442
300.72374
407.7213
404.85372
402.00635
399.18104
396.37961
393.60366
390.85457
388.13354
385.44161
382.77971
380.14865
377.54912
374.9817
372.44689
369.94508
367.47656
365.04156
362.64022
360.2726
357.93871
355.63851
353.37188
351.13869
348.93873
346.77177
344.63754
342.53575
340.46606
338.42813
336.42159
334.44604
332.50109
330.58631
328.70127
326.84555
325.01867
323.22018
321.44959
319.70638
317.99002
316.29995
314.63561
312.99638
311.38167
309.79091
308.22352
306.67901
305.15693
303.65691
302.17864
300.72186
407.18926
404.33692
401.505
398.69525
395.90938
393.14891
390.41516
387.70931
385.03239
382.38532
379.76888
377.18375
374.63052
372.10965
369.62153
367.16645
364.74463
362.35621
360.00125
357.67975
355.39168
353.13692
350.91532
348.72669
346.5708
344.44738
342.35612
340.29672
338.26881
336.27203
334.306
332.37031
330.46456
328.58833
326.74117
324.92265
323.13229
321.36961
319.6341
317.92522
316.24239
314.58502
312.95249
311.34418
309.75948
308.19783
306.65869
305.14165
303.64633
302.17248
300.71986
406.61343
403.7777
400.96251
398.16957
395.4005
392.65673
389.93956
387.25012
384.58944
381.95839
379.35776
376.78822
374.25031
371.74452
369.27122
366.83068
364.42312
362.04868
359.70742
357.39935
355.1244
352.88248
350.67344
348.49708
346.35317
344.24144
342.16159
340.11331
338.09625
336.11005
334.15432
332.22868
330.33272
328.46602
326.62816
324.8187
323.03718
321.28311
319.55597
317.85522
316.18027
314.5305
312.90527
311.30391
309.7258
308.17034
306.63701
305.12536
303.63508
302.16592
300.71774
405.99066
403.173
400.37595
397.60118
394.85025
392.12452
389.42524
386.75353
384.11038
381.49665
378.91311
376.3604
373.83906
371.34957
368.89227
366.46746
364.07532
361.716
359.38955
357.09598
354.83524
352.60721
350.41174
348.24864
346.11769
344.0186
341.9511
339.91486
337.90953
335.93477
333.99019
332.07542
330.19006
328.33369
326.50591
324.70629
322.93435
321.18964
319.47161
317.77972
316.11335
314.47186
312.85456
311.26076
309.68979
308.14103
306.61394
305.10808
303.62316
302.159
300.71549
405.31762
402.51957
399.74218
396.98706
394.25571
391.54946
388.86951
386.21694
383.59272
380.99769
378.43258
375.89805
373.39461
370.92271
368.48271
366.07487
363.69939
361.3564
359.04596
356.76807
354.52266
352.30963
350.12883
347.98007
345.86311
343.77769
341.72352
339.70029
337.70765
335.74525
333.81273
331.90972
330.03582
328.19064
326.37378
324.58482
322.8233
321.08874
319.38062
317.69837
316.04135
314.40887
312.80021
311.21462
309.6514
308.10987
306.58948
305.08981
303.61059
302.1517
300.71312
404.59077
401.814
399.05789
396.324
393.6138
390.92857
388.26947
385.63756
383.03376
380.4589
377.91371
375.39878
372.91465
370.46174
368.0404
365.65088
363.29339
360.96803
358.67486
356.41388
354.18503
351.9882
349.82323
347.68994
345.5881
343.51743
341.47766
339.46847
337.48953
335.54049
333.621
331.73069
329.86919
328.03612
326.23109
324.45368
322.70345
320.97993
319.28259
317.61083
315.96398
314.34132
312.74206
311.1654
309.61057
308.07684
306.56365
305.07058
303.5974
302.14406
300.71065
403.80636
401.05264
398.31954
395.6086
392.92123
390.25868
387.62208
385.01244
382.43067
379.87757
377.35383
374.86005
372.39674
369.96431
367.56309
365.19333
362.85523
360.54888
358.27434
356.03161
353.82062
351.64126
349.49337
347.37677
345.29123
343.23648
341.21224
339.2182
337.25404
335.31942
333.41399
331.53741
329.68931
327.86933
326.07709
324.3122
322.57423
320.8627
319.17708
317.51673
315.88097
314.26901
312.67998
311.11302
309.56727
308.04196
306.53649
305.05043
303.58362
302.13609
300.70807
402.96044
400.23164
397.52341
394.83724
392.17451
389.53642
386.92407
384.33845
381.78042
379.25076
376.75015
374.27916
371.83828
369.42791
367.04838
364.69992
362.3827
360.09684
357.84239
355.61932
353.42757
351.26704
349.13756
347.03895
344.97098
342.93338
340.92588
338.94818
336.99996
335.08089
333.19064
331.32888
329.49525
327.68942
325.91102
324.15969
322.43501
320.7365
319.06361
317.4157
315.79201
314.1917
312.61381
311.05739
309.52148
308.00524
306.50802
305.02942
303.56931
302.12785
300.70541
402.04879
399.34694
396.66556
394.00612
391.36995
388.75823
386.17201
383.61225
381.07979
378.57538
376.09967
373.65322
371.2365
368.84989
366.49371
364.16818
361.87346
359.60967
357.37683
355.17494
353.00392
350.86366
348.75401
346.67478
344.62573
342.60661
340.61715
338.65705
336.72601
334.8237
332.94981
331.10403
329.28602
327.49547
325.73205
323.9954
322.28512
320.60074
318.9417
317.30732
315.69679
314.10916
312.54341
310.99843
309.47318
307.96671
306.47832
305.00761
303.55453
302.11937
300.70268
401.067
398.39422
395.74181
393.11119
390.50365
387.92033
385.36225
382.83033
380.3254
377.84816
375.39925
372.97921
370.58848
368.22744
365.89638
363.59552
361.32502
359.08496
356.87539
354.69629
352.54757
350.42914
348.34082
346.28243
344.25375
342.25453
340.28448
338.34334
336.43079
334.54654
332.69028
330.86172
329.06057
327.28653
325.53929
323.81853
322.12385
320.45481
318.81082
317.19116
315.59496
314.02116
312.46862
310.93608
309.42236
307.9264
306.44744
304.98508
303.53934
302.11069
300.69989
400.01038
397.36896
394.74776
392.14819
389.57147
387.01872
384.49092
381.98896
379.51363
377.06562
374.64553
372.25389
369.89111
367.55756
365.25351
362.97918
360.73471
358.52019
356.33564
354.18103
352.0563
349.96133
347.89596
345.86
343.85322
341.87539
339.92624
338.00548
336.11284
334.24802
332.41075
330.60076
328.81778
327.06155
325.33179
323.62821
321.95045
320.29804
318.6704
317.06676
315.48616
313.92743
312.38926
310.87023
309.369
307.88436
306.41546
304.9619
303.52383
302.10186
300.69706
398.87401
396.26636
393.67879
391.11262
388.56907
386.0492
383.55396
381.08421
378.6407
376.2241
373.83498
371.47385
369.1411
366.83709
364.56207
362.31625
360.09975
357.91265
355.75498
353.62671
351.52775
349.45799
347.41728
345.40542
343.42219
341.46735
339.54065
337.64182
335.77059
333.92668
332.10985
330.31985
328.55645
326.81943
325.10855
323.42354
321.76408
320.12972
318.51983
316.93361
315.36998
313.82765
312.30512
310.80078
309.31305
307.84058
306.38242
304.93816
303.50805
302.09294
300.6942
397.65273
395.08142
392.53001
389.99976
387.49186
385.00733
382.54707
380.11191
377.70258
375.31971
372.96385
370.63548
368.33499
366.06269
363.81883
361.60361
359.41714
357.2595
355.13069
353.03069
350.95941
348.91673
346.90249
344.91652
342.95858
341.02845
339.12588
337.2506
335.40238
333.58096
331.78611
330.01763
328.27531
326.55899
324.86848
323.20354
321.56388
319.94905
318.35843
316.79113
315.24597
313.72148
312.21596
310.72755
309.25444
307.79506
306.34835
304.91389
303.49205
302.08396
300.69134
396.3411
393.80886
391.29629
388.80464
386.33503
383.88843
381.46572
379.0677
376.69504
374.34837
372.0282
369.73498
367.46908
365.23081
363.02039
360.83801
358.68376
356.55772
354.45988
352.39021
350.34863
348.33501
346.34919
344.39099
342.4602
340.55659
338.67993
336.82995
335.00645
333.20919
331.43797
329.69262
327.973
326.27898
324.61042
322.96714
321.34888
319.7552
318.18546
316.63869
315.11359
313.6085
312.12145
310.65032
309.19301
307.74772
306.31323
304.8891
303.47586
302.07493
300.68848
394.93343
392.44314
389.97228
387.52204
385.0935
382.6876
380.30517
377.94696
375.61364
373.30578
371.02387
368.76834
366.53953
364.33773
362.16316
360.01598
357.89628
355.80411
353.73948
351.70234
349.69261
347.71015
345.75481
343.82641
341.92474
340.04959
338.20071
336.3779
334.58093
332.8096
331.06377
329.3433
327.64808
325.97806
324.33315
322.71322
321.11806
319.54725
318.0001
316.47558
314.97223
313.48819
312.02119
310.56879
309.12856
307.69842
306.27696
304.86375
303.45945
302.06585
300.68561
393.42379
390.97848
388.55233
386.14648
383.76197
381.39968
379.06041
376.74487
374.45368
372.18739
369.94647
367.73131
365.54224
363.37952
361.24336
359.13388
357.05119
354.99533
352.96628
350.96399
348.98838
347.03932
345.11665
343.2202
341.34975
339.5051
337.68604
335.89235
334.12384
332.38036
330.66178
328.96801
327.29903
325.65481
324.03534
322.44057
320.87031
319.32417
317.80144
316.30098
314.82119
313.35994
311.91466
310.48253
309.06075
307.6469
306.23938
304.83772
303.44276
302.05669
300.68273
391.80594
389.40881
387.03054
384.67223
382.33485
380.01925
377.72619
375.45632
373.21025
370.98846
368.79142
366.61947
364.47294
362.35205
360.25699
358.18789
356.14483
354.12783
352.13687
350.17192
348.23285
346.31956
344.43189
342.56965
340.73265
338.92069
337.13358
335.37111
333.63313
331.9195
330.23015
328.56505
326.92422
325.30772
323.71561
322.14789
320.60444
319.08488
317.58847
316.11399
314.65964
313.22303
311.80123
310.391
308.98912
307.5928
306.2002
304.8108
303.42565
302.04736
300.67981
390.07338
387.72779
385.40073
383.09327
380.80631
378.54066
376.29702
374.07601
371.87817
369.70399
367.55387
365.42816
363.32711
361.25097
359.19989
357.17398
355.17331
353.1979
351.24772
349.32271
347.42276
345.54776
343.69754
341.87194
340.07076
338.29381
336.54091
334.81189
333.10661
331.42499
329.76698
328.13262
326.52199
324.93523
323.37248
321.83382
320.31917
318.82818
317.3601
315.91359
314.48665
313.07661
311.68013
310.29352
308.91309
307.53563
306.15902
304.78268
303.40789
302.03773
300.6768
388.21934
385.92878
383.65643
381.4033
379.17023
376.95796
374.76714
372.59834
370.45207
368.32877
366.2288
364.15249
362.10008
360.07177
358.06771
356.08798
354.13264
352.2017
350.29512
348.41283
346.55473
344.72068
342.91055
341.12414
339.36129
337.62182
335.90554
334.21233
332.54207
330.89472
329.27028
327.66885
326.09058
324.5357
323.00442
321.49691
320.01315
318.55282
317.11513
315.69865
314.30117
312.91969
311.55045
310.18927
308.83192
307.47474
306.1153
304.75295
303.38919
302.02763
300.67365
386.2367
384.00482
381.79086
379.59574
377.42023
375.26497
373.13056
371.01752
368.92632
366.85736
364.81097
362.78743
360.78698
358.80977
356.85594
354.92556
353.01866
351.13524
349.27526
347.43864
345.62527
343.83502
342.06774
340.32326
338.6014
336.902
335.22491
333.57001
331.93722
330.32654
328.73803
327.17185
325.62822
324.10746
322.60986
321.13569
319.68499
318.25747
316.85232
315.46799
314.10206
312.75118
311.41117
310.07729
308.74475
307.40938
306.06841
304.7211
303.36918
302.01683
300.67028
384.11795
381.94853
379.79692
377.66377
375.54969
373.45529
371.38109
369.32757
367.29515
365.28419
363.295
361.3278
359.38282
357.46018
355.55999
353.68231
351.82715
349.9945
348.1843
346.39647
344.6309
342.88744
341.16595
339.46626
337.78822
336.13166
334.49646
332.88252
331.28979
329.71832
328.16823
326.63973
325.13313
323.64884
322.18724
320.74867
319.33327
317.94078
316.57035
315.22034
313.8881
312.56993
311.26118
309.95653
308.6506
307.33868
306.01761
304.68653
303.34742
302.00507
300.66661
383.97318
381.85444
379.75226
377.66736
375.60037
373.55186
371.52239
369.51242
367.5224
365.5527
363.60363
361.67545
359.76839
357.8826
356.0182
354.17527
352.35384
350.55392
348.77547
347.01842
345.28269
343.56814
341.87465
340.20207
338.55023
336.91898
335.30818
333.71771
332.14752
330.59759
329.068
327.55893
326.07067
324.60361
323.15823
321.73502
320.33442
318.95663
317.60143
316.26795
314.95445
313.65806
312.37472
311.0993
309.82588
308.54845
307.26171
305.96208
304.64858
303.32343
301.99204
300.66252
383.54651
381.48528
379.43901
377.40865
375.39495
373.39854
371.41997
369.45973
367.51828
365.59598
363.69317
361.81011
359.94703
358.1041
356.28146
354.47919
352.69735
350.93595
349.19496
347.47434
345.77401
344.09386
342.43377
340.7936
339.1732
337.57241
335.99109
334.42911
332.88639
331.36287
329.85859
328.37369
326.90838
325.46302
324.0381
322.63417
321.25184
319.89161
318.55378
317.23818
315.94391
314.66913
313.41076
312.16439
310.92438
309.68423
308.43725
307.17751
305.901
304.60659
303.29672
301.97746
300.65793
382.8143
380.81722
378.83353
376.86432
374.91046
372.97265
371.05149
369.14748
367.26108
365.39268
363.54259
361.7111
359.89843
358.10477
356.33024
354.57495
352.83894
351.12224
349.42484
347.74669
346.08774
344.44788
342.82699
341.22496
339.64163
338.07685
336.53048
335.00238
333.49244
332.00058
330.5268
329.07116
327.63384
326.21512
324.81544
323.43534
322.07548
320.73655
319.41917
318.12369
316.84999
315.59719
314.36334
313.14515
311.93787
310.73538
309.53055
308.316
307.08518
305.83358
304.5599
303.26679
301.96102
300.65274
379.82663
377.912
376.01064
374.12339
372.25098
370.39403
368.55308
366.72857
364.92088
363.13035
361.35726
359.60181
357.86419
356.14452
354.4429
352.75939
351.094
349.44672
347.81752
346.20633
344.61307
343.03762
341.47985
339.93964
338.41682
336.91126
335.42281
333.95133
332.49675
331.059
329.63811
328.23419
326.84745
325.47824
324.12705
322.79452
321.48138
320.18843
318.91636
317.66562
316.43615
315.22705
314.0363
312.86042
311.69433
310.53142
309.36396
308.18387
306.98394
305.75913
304.50794
303.23324
301.94246
300.64684
376.65079
374.82399
373.01027
371.2103
369.42467
367.65391
365.89846
364.1587
362.43494
360.72744
359.03641
357.362
355.70435
354.06353
352.43958
350.83251
349.24232
347.66895
346.11234
344.5724
343.04902
341.54207
340.05141
338.57691
337.1184
335.67574
334.2488
332.83745
331.44163
330.0613
328.69652
327.34743
326.01431
324.69754
323.3977
322.1155
320.85175
319.60733
318.38304
317.17941
315.99642
314.8332
313.68765
312.55614
311.43326
310.31196
309.18388
308.04027
306.8732
305.67712
304.45027
303.19572
301.92158
300.64019
373.28159
371.54854
369.8283
368.12139
366.42831
364.74945
363.08517
361.43576
359.80145
358.18243
356.57883
354.99074
353.41823
351.86133
350.32002
348.79427
347.28402
345.7892
344.30971
342.84543
341.39623
339.96197
338.54249
337.13766
335.7473
334.37128
333.00947
331.66176
330.32811
329.00851
327.70304
326.41189
325.13539
323.87398
322.6283
321.39912
320.18736
318.99397
317.81984
316.66558
315.53124
314.41597
313.31762
312.2324
311.15466
310.07687
308.99012
307.88493
306.75269
305.58728
304.38665
303.15406
301.89826
300.63272
369.71786
368.08498
366.46455
364.85697
363.2626
361.68174
360.11464
358.5615
357.02245
355.49761
353.98703
352.49074
351.00873
349.54097
348.0874
346.64793
345.22247
343.81091
342.4131
341.02892
339.65821
338.30082
336.95657
335.62532
334.30691
333.00119
331.70806
330.42742
329.15925
327.90357
326.6605
325.43028
324.21328
323.01001
321.82115
320.64758
319.49026
318.35024
317.22849
316.12571
315.042
313.97656
312.92721
311.89004
310.85916
309.82664
308.78299
307.71807
306.62254
305.48967
304.31712
303.10825
301.87249
300.62445
365.96497
364.43914
362.92526
361.42363
359.93448
358.45799
356.99432
355.54356
354.10576
352.68094
351.26907
349.87011
348.48398
347.1106
345.74983
344.40157
343.06566
341.74196
340.43031
339.13053
337.84247
336.56594
335.30079
334.04684
332.80395
331.57199
330.35085
329.14046
327.94083
326.75202
325.57419
324.40762
323.25273
322.1101
320.98049
319.86481
318.76413
317.67955
316.61214
315.56265
314.53128
313.51726
312.51843
311.53078
310.54822
309.56245
308.56347
307.54045
306.48333
305.38474
304.24199
303.05854
301.84443
300.61542
362.03834
360.62669
359.22634
357.83743
356.46011
355.09443
353.74045
352.39816
351.0675
349.74841
348.44079
347.14451
345.85944
344.5854
343.32225
342.06981
340.82789
339.59632
338.37491
337.16346
335.9618
334.76975
333.58714
332.41379
331.24957
330.09436
328.94807
327.81068
326.68219
325.56274
324.45251
323.35186
322.26125
321.18134
320.11294
319.05703
318.01474
316.98726
315.9757
314.9809
314.00315
313.04172
312.09449
311.1574
310.22421
309.28631
308.33319
307.3534
306.33612
305.27332
304.16191
303.00535
301.81432
300.60572
357.96786
356.67743
355.39736
354.12773
352.86854
351.61978
350.38136
349.15318
347.93509
346.72694
345.52855
344.33972
343.16025
341.98992
340.82852
339.67584
338.53166
337.39578
336.26798
335.14807
334.03586
332.93115
331.83378
330.7436
329.66046
328.58427
327.51497
326.45256
325.3971
324.34876
323.3078
322.27462
321.24977
320.23396
319.22808
318.23315
317.25037
316.28097
315.32614
314.38679
313.46327
312.55496
311.65976
310.77365
309.89027
309.00078
308.09423
307.15853
306.18216
305.15635
304.07752
302.94915
301.78243
300.59542
354.97547
353.80317
352.64009
351.48623
350.34152
349.20587
348.07913
346.96113
345.85165
344.75048
343.65737
342.57205
341.49429
340.4238
339.36034
338.30365
337.25349
336.20962
335.1718
334.13983
333.11349
332.09259
331.07694
330.06639
329.06079
328.06003
327.06402
326.07275
325.08624
324.1046
323.12807
322.15697
321.19179
320.23315
319.28184
318.33879
317.40509
316.48196
315.57067
314.67246
313.78831
312.91864
312.06293
311.21921
310.38353
309.54949
308.7081
307.84807
306.95674
306.02186
305.03392
303.98879
302.88981
301.74867
300.58451
350.65773
349.6186
348.58734
347.56382
346.54788
345.53929
344.53781
343.54318
342.55511
341.57328
340.59737
339.62708
338.66209
337.70209
336.74679
335.79591
334.84919
333.90636
332.9672
332.03149
331.09902
330.16961
329.24307
328.31927
327.39809
326.47941
325.5632
324.64945
323.73824
322.82972
321.92419
321.02206
320.1239
319.23043
318.34251
317.46112
316.58738
315.7225
314.86777
314.02445
313.19359
312.37572
311.57048
310.77607
309.9887
309.20211
308.40728
307.5927
306.74529
305.8521
304.9029
303.89288
302.82511
301.71162
300.5725
346.42217
345.51798
344.61995
343.72786
342.84144
341.9604
341.0844
340.2131
339.34613
338.48312
337.62369
336.76749
335.91417
335.06338
334.21481
333.36818
332.5232
331.67963
330.83722
329.99578
329.15512
328.31505
327.47543
326.63612
325.79703
324.95807
324.11921
323.28046
322.44191
321.60374
320.76626
319.92997
319.09554
318.26379
317.43565
316.61215
315.79439
314.98355
314.18093
313.38783
312.60541
311.8344
311.07468
310.32477
309.5812
308.83805
308.08653
307.3152
306.51076