/*--------------------------------*- C++ -*----------------------------------*\
| =========                 |                                                 |
| \\      /  F ield         | OpenFOAM: The Open Source CFD Toolbox           |
|  \\    /   O peration     | Version:  2312                                  |
|   \\  /    A nd           | Website:  www.openfoam.com                      |
|    \\/     M anipulation  |                                                 |
\*---------------------------------------------------------------------------*/
FoamFile
{
    version     2.0;
    format      ascii;
    arch        "LSB;label=32;scalar=64";
    class       volScalarField;
    location    "0.01";
    object      alphat;
}
// * * * * * * * * * * * * * * * * * * * * * * * * * * * * * * * * * * * * * //

dimensions      [1 -1 -1 0 0 0 0];

internalField   nonuniform List<scalar> 
3257
(
0.021019894
0.02101815
0.021016092
0.021013948
0.021012036
0.021010712
0.021010366
0.021011411
0.021014291
0.02101947
0.021027435
0.021038688
0.021053749
0.021073166
0.021097488
0.02112727
0.021163078
0.021205481
0.021255057
0.021312392
0.021378077
0.021452713
0.021536911
0.021631294
0.021736503
0.021853192
0.02198204
0.022123748
0.022279043
0.022448683
0.022633454
0.022834178
0.02305171
0.023286936
0.023540779
0.023814193
0.024108158
0.024423685
0.024761801
0.025123553
0.025509994
0.025922181
0.026361165
0.02682798
0.027323637
0.027849108
0.028405322
0.028993147
0.029613385
0.03026676
0.030953905
0.020901413
0.020900878
0.020900122
0.020899388
0.020898999
0.020899315
0.020900725
0.020903645
0.020908515
0.020915799
0.020925979
0.020939557
0.020957059
0.020979019
0.021005979
0.021038491
0.021077113
0.021122411
0.021174958
0.021235332
0.021304121
0.02138192
0.021469338
0.021566992
0.02167552
0.021795575
0.021927832
0.022072991
0.022231779
0.022404951
0.022593295
0.022797632
0.023018814
0.023257728
0.023515294
0.023792462
0.024090208
0.024409535
0.024751461
0.025117021
0.025507253
0.025923198
0.026365884
0.026836323
0.027335496
0.027864347
0.028423767
0.029014585
0.029637555
0.030293337
0.03098249
0.02066872
0.020670528
0.020672329
0.020674372
0.020676985
0.020680529
0.020685394
0.020691993
0.020700766
0.020712173
0.020726693
0.020744832
0.0207671
0.020794022
0.020826129
0.020863963
0.020908074
0.020959016
0.021017354
0.021083656
0.0211585
0.021242474
0.021336176
0.02144022
0.021555235
0.021681869
0.021820794
0.021972707
0.022138332
0.022318423
0.022513765
0.022725176
0.022953508
0.023199641
0.02346449
0.023748995
0.024054122
0.024380856
0.024730198
0.025103157
0.025500745
0.025923964
0.026373805
0.026851233
0.027357178
0.027892527
0.028458107
0.029054678
0.029682918
0.030343406
0.031036612
0.020347528
0.020352597
0.020357955
0.020363859
0.020370641
0.020378663
0.020388312
0.0204
0.020414161
0.020431259
0.020451771
0.020476184
0.020504999
0.020538727
0.020577888
0.020623012
0.020674634
0.020733298
0.020799552
0.020873956
0.020957074
0.021049484
0.021151776
0.021264554
0.021388442
0.021524082
0.021672142
0.021833317
0.022008329
0.022197931
0.02240291
0.02262408
0.022862288
0.02311841
0.023393352
0.023688042
0.024003429
0.024340477
0.02470016
0.025083452
0.025491323
0.025924731
0.026384609
0.026871861
0.027387348
0.027931877
0.028506196
0.029110974
0.029746796
0.030414146
0.031113402
0.019957407
0.01996649
0.019976215
0.019986853
0.019998737
0.020012229
0.020027714
0.020045586
0.020066298
0.020090302
0.020118064
0.02015006
0.020186774
0.020228703
0.020276353
0.020330241
0.020390885
0.020458816
0.020534569
0.020618689
0.02071173
0.020814258
0.020926855
0.021050117
0.021184661
0.021331128
0.021490181
0.021662516
0.021848868
0.022049983
0.022266656
0.022499688
0.022749921
0.023018229
0.023305505
0.023612661
0.023940626
0.024290339
0.024662741
0.025058764
0.025479332
0.025925344
0.026397669
0.026897135
0.027424522
0.027980548
0.028565866
0.029181045
0.029826569
0.03050282
0.031210075
0.019517486
0.019531134
0.019545818
0.019561817
0.019579468
0.019599137
0.019621219
0.019646142
0.019674321
0.019706189
0.019742196
0.019782798
0.019828455
0.019879639
0.019936855
0.020000602
0.020071382
0.02014971
0.020236111
0.020331117
0.020435273
0.020549135
0.020673279
0.020808295
0.020954799
0.021113427
0.021284851
0.02146977
0.021669026
0.021883151
0.02211307
0.022359509
0.022623312
0.022905386
0.023206596
0.02352785
0.023870057
0.024234132
0.024620981
0.025031495
0.025466542
0.02592696
0.026413548
0.026927052
0.027468165
0.028037511
0.02863564
0.029263019
0.029920026
0.030606939
0.031323932
0.019045026
0.019063639
0.019083699
0.019105496
0.01912937
0.019155688
0.019184844
0.019217243
0.019253299
0.019293442
0.019338114
0.01938777
0.019442881
0.019503921
0.019571343
0.019645608
0.019727177
0.019816566
0.019914289
0.020020867
0.020136832
0.020262735
0.020399143
0.020546644
0.020705851
0.020877397
0.021061957
0.021260216
0.021472791
0.021700653
0.021944451
0.022205092
0.02248342
0.022780271
0.02309654
0.023433117
0.023790863
0.024170668
0.024573398
0.024999893
0.025450965
0.02592738
0.026429858
0.02695906
0.027515586
0.02809996
0.028712629
0.029353957
0.030024214
0.030723578
0.031452122
0.018557184
0.018580883
0.018606436
0.018634144
0.018664349
0.018697425
0.018733751
0.018773722
0.018817748
0.018866246
0.01891965
0.018978398
0.019042943
0.01911374
0.019191249
0.019275943
0.019368317
0.019468827
0.01957795
0.019696194
0.019824086
0.019962168
0.020111008
0.020271194
0.020443328
0.020628083
0.020826124
0.02103815
0.021264895
0.021507138
0.021765665
0.022041312
0.02233493
0.022647375
0.022979521
0.023332267
0.023706461
0.024102925
0.024522505
0.024965993
0.02543414
0.025927644
0.026447147
0.026993225
0.027566383
0.028167047
0.028795564
0.029452191
0.030137096
0.030850358
0.031591949
0.018061606
0.018090558
0.018121777
0.018155574
0.018192297
0.018232309
0.018275982
0.018323701
0.018375864
0.01843288
0.018495165
0.018563147
0.018637259
0.018717942
0.018805645
0.018900824
0.019003948
0.019115489
0.019235934
0.019365777
0.019505533
0.019655745
0.019816979
0.019989811
0.020174905
0.020372895
0.020584466
0.020810338
0.021051262
0.02130802
0.02158142
0.021872294
0.022181493
0.022509878
0.02285831
0.02322765
0.023618804
0.024032482
0.02446951
0.024930633
0.025416543
0.025927871
0.026465182
0.027028966
0.027619636
0.028237525
0.028882878
0.029555852
0.030256518
0.030984855
0.031740741
0.017569094
0.017603317
0.017640201
0.017680072
0.017723276
0.017770166
0.017821106
0.017876473
0.017936654
0.018002046
0.018073054
0.018150089
0.018233572
0.018323931
0.018421601
0.018527028
0.018640669
0.01876299
0.018894475
0.019035624
0.019186956
0.019349013
0.019522349
0.01970761
0.019905411
0.020116419
0.020341335
0.020580893
0.020835862
0.021107038
0.021395241
0.021701314
0.022026111
0.022370493
0.022735314
0.023121419
0.023529664
0.023960833
0.024415585
0.024894666
0.025398708
0.025928273
0.026483851
0.02706585
0.027674596
0.028310327
0.028973194
0.029663258
0.030380495
0.031124794
0.03189594
0.017087573
0.017126941
0.017169345
0.017215125
0.017264617
0.017318167
0.017376132
0.01743888
0.017506787
0.017580239
0.017659629
0.017745355
0.017837828
0.017937463
0.018044685
0.018159932
0.018283653
0.018416313
0.018558393
0.018710397
0.018872851
0.019046287
0.019231328
0.019428577
0.01963868
0.01986232
0.020100217
0.020353125
0.020621829
0.020907141
0.021209898
0.021530952
0.021871162
0.022231389
0.022612483
0.023015274
0.023440562
0.023889207
0.024361711
0.024858813
0.025381086
0.025929029
0.026503056
0.027103498
0.027730595
0.028384498
0.029065269
0.029772877
0.030507209
0.031268069
0.032055154
0.016622391
0.016666702
0.016714403
0.016765839
0.016821337
0.016881239
0.016945892
0.017015657
0.017090899
0.017171994
0.017259324
0.017353278
0.017454254
0.01756266
0.017678915
0.017803449
0.017936708
0.018079157
0.018231279
0.018393584
0.018566589
0.018750886
0.018947077
0.019155782
0.019377668
0.019613439
0.019863836
0.020129633
0.020411633
0.020710669
0.02102759
0.02136326
0.021718545
0.022094305
0.022491384
0.022910597
0.023352719
0.023818583
0.024308672
0.024823633
0.025364009
0.025930234
0.026522656
0.027141527
0.027787008
0.028459165
0.029157974
0.029883321
0.03063501
0.031412764
0.032216197
0.016177212
0.01622621
0.016278929
0.016335708
0.016396872
0.016462755
0.016533699
0.016610054
0.016692178
0.016780437
0.016875203
0.016976857
0.017085791
0.017202404
0.01732711
0.017460338
0.017602533
0.017754162
0.017915715
0.018087694
0.018270656
0.018465205
0.018671937
0.018891502
0.019124587
0.019371919
0.019634259
0.019912403
0.020207177
0.020519429
0.020850025
0.02119984
0.021569747
0.021960604
0.022373245
0.022808469
0.023267036
0.023749739
0.024257088
0.024789597
0.025347784
0.025932022
0.026542591
0.027179673
0.027843352
0.028533618
0.029250367
0.029993408
0.030762467
0.031557194
0.032377128
0.015754339
0.015807736
0.015865154
0.01592693
0.015993384
0.016064844
0.016141646
0.016224131
0.016312651
0.016407562
0.01650923
0.016618031
0.016734347
0.016858576
0.016991129
0.017132433
0.017282938
0.017443114
0.017613456
0.017794467
0.017986767
0.018190922
0.018407563
0.018637363
0.01888103
0.019139313
0.019412997
0.0197029
0.020009869
0.020334771
0.020678488
0.021041901
0.021425885
0.021831305
0.022258994
0.022709742
0.023184277
0.023683349
0.024207471
0.024757053
0.025332591
0.025934401
0.026562699
0.027217599
0.027899116
0.028607166
0.029341573
0.030102071
0.030888316
0.03169989
0.03253626
0.015355011
0.015412502
0.015474284
0.015540693
0.015612046
0.015688665
0.015770878
0.015859023
0.015953443
0.016054489
0.01616252
0.016277907
0.016401029
0.016532281
0.016672075
0.01682084
0.016979029
0.017147121
0.017325599
0.017515038
0.017716021
0.017929143
0.01815506
0.018394462
0.018648082
0.018916693
0.019201104
0.019502154
0.019820711
0.020157658
0.020513888
0.020890302
0.021287787
0.021707201
0.022149362
0.022615041
0.02310495
0.023619805
0.024160111
0.024726193
0.025318515
0.025937341
0.026582826
0.027255021
0.027953875
0.028679237
0.029430863
0.030208419
0.031011497
0.031839614
0.032692173
0.014979663
0.015040937
0.015106744
0.015177422
0.015253282
0.015334642
0.015421827
0.015515167
0.015614999
0.015721671
0.015835538
0.015956965
0.016086331
0.016224031
0.016370478
0.016526106
0.016691373
0.01686676
0.017052771
0.017250015
0.017459055
0.017680523
0.01791509
0.018163472
0.018426424
0.018704743
0.018999259
0.019310834
0.019640354
0.019988727
0.020356865
0.02074567
0.021156027
0.021588793
0.022044781
0.022524749
0.023029385
0.023559382
0.024115211
0.024697137
0.025305593
0.025940786
0.026602818
0.027291681
0.028007262
0.028749349
0.029517633
0.03031172
0.03113114
0.031975355
0.032843704
0.014628142
0.014692891
0.014762392
0.014836981
0.014916969
0.015002667
0.015094397
0.015192484
0.015297261
0.015409073
0.01552827
0.015655217
0.015790293
0.015933894
0.016086435
0.016248358
0.016420128
0.016602215
0.016795195
0.01699964
0.017216143
0.017445357
0.017687975
0.017944734
0.018216412
0.018503828
0.018807836
0.019129325
0.019469201
0.019828384
0.020207793
0.020608341
0.021030919
0.02147638
0.021945529
0.022439108
0.022957783
0.023502232
0.02407287
0.024669932
0.025293806
0.025944653
0.026622522
0.02732735
0.028058967
0.028817104
0.029601395
0.030411388
0.031246557
0.032106312
0.032989935
0.014299876
0.014367805
0.01444068
0.014518841
0.014602594
0.014692248
0.014788119
0.014890531
0.014999813
0.015116306
0.01524036
0.01537234
0.015512625
0.015661614
0.015819728
0.015987413
0.016165141
0.016353394
0.016552788
0.016763874
0.016987278
0.017223672
0.017473768
0.017738326
0.018018147
0.018314076
0.018626991
0.018957795
0.019307413
0.01967678
0.020066829
0.020478478
0.020912621
0.021370107
0.021851732
0.022358223
0.022890226
0.023448407
0.024033109
0.024644559
0.025283099
0.025948842
0.02664179
0.027361829
0.028108737
0.02888219
0.02968177
0.030506974
0.031357224
0.03223188
0.033130174
0.013994012
0.01406484
0.01414079
0.014222203
0.014309382
0.014402634
0.01450227
0.014608613
0.01472199
0.01484274
0.014971213
0.015107774
0.015252805
0.015406709
0.015569912
0.015742869
0.015926044
0.016119977
0.016325259
0.016542466
0.016772245
0.017015286
0.01727232
0.017544132
0.017831547
0.018135429
0.018456675
0.018796209
0.019154974
0.019533917
0.019933983
0.020356096
0.020801149
0.021269988
0.0217634
0.022282096
0.022826702
0.023397882
0.023995887
0.02462096
0.025273389
0.025953247
0.026660488
0.027394953
0.02815637
0.028944369
0.02975848
0.030598153
0.031462764
0.032351628
0.03326393
0.013709516
0.013782981
0.013861728
0.013946097
0.014036388
0.014132906
0.014235961
0.014345873
0.014462969
0.014587586
0.014720076
0.014860804
0.015010156
0.01516854
0.015336388
0.015514164
0.015702326
0.015901475
0.016112169
0.016335016
0.01657068
0.016819869
0.017083338
0.017361891
0.017656373
0.01796767
0.0182967
0.018644404
0.01901174
0.019399669
0.019809144
0.020241093
0.02069641
0.021175938
0.021680451
0.022210648
0.022767134
0.023350576
0.023961121
0.024599045
0.025264581
0.025957761
0.026678499
0.027426591
0.028201722
0.029003474
0.029831337
0.030684712
0.031562935
0.032465279
0.033390884
0.013445252
0.013521114
0.0136024
0.013689451
0.013782566
0.013882048
0.013988205
0.014101356
0.014221827
0.014349956
0.014486095
0.014630614
0.0147839
0.014946367
0.015118456
0.015300633
0.015493371
0.015697301
0.01591297
0.016141012
0.016382108
0.016636983
0.016906413
0.017191223
0.017492279
0.017810485
0.018146777
0.018502115
0.01887747
0.019273813
0.019692106
0.020133281
0.020598232
0.021087796
0.021602738
0.022143742
0.022711393
0.023306368
0.023928696
0.024578706
0.025256571
0.025962286
0.026695725
0.027456646
0.028244692
0.029059405
0.02990023
0.030766532
0.031657605
0.032572684
0.03351087
0.013200038
0.013278075
0.013361666
0.013451151
0.013546827
0.013648996
0.013757967
0.013874056
0.01399759
0.014128909
0.014268365
0.014416331
0.014573201
0.014739392
0.014915353
0.015101549
0.015298492
0.015506803
0.015727047
0.015959874
0.016205982
0.016466114
0.016741066
0.017031682
0.017338846
0.017663482
0.018006544
0.018369004
0.018751848
0.019156058
0.0195826
0.020032412
0.020506385
0.021005351
0.021530066
0.0220812
0.022659319
0.02326511
0.023898484
0.024559829
0.025249258
0.025966733
0.026712092
0.027485054
0.028285227
0.029112113
0.029965121
0.030843577
0.031746738
0.032673807
0.033623845
0.012972686
0.013052697
0.013138378
0.013230069
0.013328068
0.013432675
0.013544198
0.013662954
0.01378927
0.013923486
0.014065958
0.014217063
0.014377197
0.014546787
0.014726288
0.014916161
0.015116962
0.015329293
0.015553743
0.015790979
0.016041711
0.016306702
0.016586767
0.016882767
0.017195605
0.017526221
0.017875584
0.018244682
0.018634511
0.019046063
0.01948031
0.019938192
0.020420598
0.020928355
0.02146221
0.022022819
0.022610734
0.023226635
0.023870347
0.024542298
0.025242549
0.02597103
0.026727546
0.027511783
0.028323312
0.029161603
0.030026027
0.030915877
0.031830378
0.032768699
0.033729865
0.012762046
0.012843848
0.012931423
0.013025114
0.013125218
0.013232035
0.013345872
0.013467048
0.01359589
0.01373274
0.013877958
0.014031921
0.014195033
0.014367725
0.014550459
0.014743698
0.014948035
0.015164059
0.01539238
0.015633678
0.015888679
0.016158163
0.016442961
0.016743953
0.017062057
0.017398229
0.017753453
0.01812873
0.018525066
0.018943462
0.019384894
0.019850303
0.020340578
0.02085654
0.021398926
0.021968379
0.022565458
0.023190766
0.023844147
0.024526001
0.025236357
0.025975116
0.026742054
0.027536824
0.028358966
0.029207916
0.030083014
0.030983521
0.031908631
0.032857483
0.033829071
0.012566948
0.012650376
0.012739674
0.012835183
0.0129372
0.013046024
0.013161966
0.013285341
0.01341648
0.013555728
0.013703444
0.013860014
0.014025843
0.014201371
0.014387066
0.014583393
0.014790976
0.015010395
0.015242279
0.015487321
0.015746263
0.0160199
0.01630908
0.016614697
0.016937686
0.017279018
0.017639689
0.018020712
0.018423103
0.018847869
0.019295992
0.019768413
0.02026602
0.020789626
0.021339962
0.021917657
0.022523288
0.023157349
0.023819747
0.024510831
0.025230607
0.025978949
0.026755604
0.027560196
0.028392235
0.029251127
0.030136185
0.031046638
0.031981652
0.032940338
0.033921663
0.012386338
0.012471241
0.0125621
0.012659258
0.01276301
0.012873659
0.012991511
0.013116887
0.013250118
0.013391549
0.013541546
0.013700495
0.013868809
0.014046931
0.014235339
0.014434498
0.014645063
0.014867604
0.015102771
0.015351264
0.015613844
0.01589132
0.016184556
0.016494458
0.016821977
0.017168096
0.017533825
0.017920186
0.018328206
0.018758895
0.019213241
0.019692186
0.020196613
0.020727334
0.021285068
0.021870433
0.022484028
0.023126228
0.023797018
0.024496693
0.025225237
0.025982498
0.026768197
0.027581933
0.028423188
0.02929134
0.030185674
0.031105392
0.032049634
0.033017486
0.034007886
0.012219194
0.012305438
0.012397714
0.012496368
0.012601698
0.012714004
0.012833595
0.012960792
0.013095927
0.01323935
0.013391427
0.01355255
0.013723136
0.013903634
0.01409453
0.01429629
0.014509594
0.014735009
0.014973198
0.015224876
0.015490816
0.015771842
0.01606883
0.016382701
0.016714418
0.017064977
0.017435399
0.017826716
0.018239962
0.018676153
0.019136281
0.019621287
0.020132054
0.020669386
0.021233995
0.021826489
0.022447488
0.02309725
0.02377584
0.0244835
0.025220193
0.025985745
0.026779852
0.027602088
0.028451911
0.029328673
0.030231633
0.03115997
0.032112796
0.033089176
0.03408802
0.012064558
0.012152023
0.012245584
0.012345598
0.01245236
0.012566173
0.012687347
0.012816202
0.012953075
0.013098315
0.013252293
0.013415404
0.01358807
0.013770746
0.013963924
0.014168075
0.014383898
0.014611958
0.014852933
0.01510755
0.015376593
0.015660901
0.01596136
0.016278905
0.016614512
0.016969186
0.01734396
0.017739874
0.018157968
0.018599266
0.019064759
0.019555392
0.020072043
0.020615513
0.021186505
0.021785618
0.022413493
0.023070271
0.023756101
0.024471175
0.025215433
0.025988682
0.026790596
0.027620725
0.028478504
0.029363262
0.030274234
0.031210575
0.032171375
0.033155676
0.034162365
0.011921532
0.012010112
0.01210484
0.012206085
0.01231415
0.012429334
0.012551949
0.012682317
0.012820775
0.012967675
0.013123391
0.013288322
0.013462895
0.013647569
0.013842842
0.014049194
0.014267331
0.01449783
0.014741373
0.014998702
0.015270613
0.015557953
0.015861624
0.01618257
0.016521778
0.016880265
0.01725907
0.017659245
0.018081835
0.018527867
0.018998337
0.019494187
0.020016295
0.020565457
0.021142369
0.02174762
0.022381873
0.023045155
0.023737701
0.02445965
0.025210925
0.025991313
0.026800467
0.027637917
0.028503076
0.029395251
0.030313655
0.031257421
0.032225617
0.033217267
0.034231234
0.011789298
0.011878872
0.011974664
0.012077027
0.012186275
0.012302708
0.012426638
0.012558386
0.012698291
0.012846709
0.013004016
0.013170614
0.013346935
0.013533444
0.013730643
0.013939019
0.014159288
0.014392032
0.014637945
0.014897778
0.015172337
0.015462482
0.015769123
0.016093215
0.016435756
0.016797773
0.017180313
0.017584434
0.018011188
0.018461607
0.018936687
0.019437372
0.019964537
0.020518972
0.02110137
0.021712308
0.022352471
0.023021778
0.023720546
0.024448865
0.025206642
0.025993645
0.026809509
0.027653743
0.02852574
0.029424787
0.030350078
0.031300725
0.032275775
0.033274233
0.034294942
0.011757541
0.011854293
0.011957672
0.012067998
0.01218557
0.012310698
0.012443706
0.012584935
0.012734742
0.012893506
0.013061633
0.013239558
0.013427752
0.013626723
0.013836962
0.014059195
0.014294009
0.014542108
0.014804252
0.015081259
0.015373995
0.015683382
0.016010385
0.01635601
0.016721293
0.01710729
0.017515064
0.017945673
0.018400152
0.0188795
0.019384661
0.019916508
0.020475826
0.021063303
0.021679507
0.022325139
0.023000025
0.023704553
0.02443877
0.025202567
0.025995694
0.026817769
0.027668283
0.028546612
0.029452022
0.030383689
0.031340705
0.032322099
0.033326857
0.034353805
0.011645344
0.011743006
0.01184732
0.011958631
0.012077242
0.012203465
0.012337625
0.012480064
0.012631143
0.012791243
0.012960772
0.013140171
0.013329914
0.013530515
0.01374247
0.013966511
0.014203234
0.014453351
0.01471763
0.014996897
0.015292028
0.015603954
0.015933648
0.016282125
0.016650429
0.017039623
0.017450777
0.017884952
0.018343188
0.018826485
0.019335787
0.019871964
0.0204358
0.021027975
0.021649058
0.022299732
0.02297979
0.023689646
0.024429319
0.025198683
0.025997476
0.026825297
0.027681622
0.028565807
0.029477104
0.030414668
0.031377574
0.032364835
0.033375418
0.034408132
0.011541685
0.011640162
0.011745329
0.011857539
0.011977099
0.012104321
0.012239535
0.012383082
0.012535325
0.01269665
0.012867467
0.013048219
0.013239387
0.013441488
0.013655026
0.013880732
0.014119216
0.014371195
0.014637445
0.0149188
0.015216144
0.015530416
0.015862598
0.016213712
0.016584808
0.016976958
0.017391236
0.017828708
0.018290417
0.018777365
0.019290494
0.019830675
0.020398686
0.020995203
0.021620811
0.022276123
0.022960974
0.023675754
0.02442047
0.025194982
0.025999012
0.026832145
0.027693841
0.02858344
0.029500177
0.030443191
0.031411541
0.032404221
0.033420185
0.034458222
0.011445949
0.011545159
0.011651101
0.011764132
0.011884557
0.012012694
0.01214887
0.012293432
0.012446743
0.012609191
0.012781191
0.012963188
0.013155666
0.013359148
0.013574145
0.013801385
0.014041493
0.014295191
0.014563262
0.014846545
0.015145933
0.015462372
0.015796852
0.016150402
0.01652408
0.01691896
0.017336124
0.017776643
0.01824156
0.01873188
0.019248546
0.019792425
0.020364294
0.020964821
0.021594613
0.022254203
0.022943483
0.023662814
0.024412188
0.025191456
0.026000324
0.026838364
0.027705022
0.028599622
0.029521383
0.03046943
0.031442806
0.032440488
0.033461416
0.034504364
0.011357565
0.011457438
0.011564085
0.011677863
0.011799079
0.011928051
0.012065109
0.012210599
0.01236489
0.012528369
0.012701454
0.012884596
0.013078279
0.013283034
0.013499376
0.013728029
0.013969636
0.01422492
0.014494671
0.014779734
0.01508101
0.015399451
0.015736054
0.016091853
0.016467914
0.016865316
0.017285145
0.017728476
0.018196356
0.018689789
0.019209719
0.019757012
0.020332442
0.020936672
0.021570328
0.022233864
0.022927234
0.023650765
0.024404441
0.025188098
0.026001433
0.026844003
0.027715241
0.028614456
0.029540855
0.030493547
0.031471559
0.032473855
0.03349936
0.034546833
0.011276004
0.011376479
0.011483768
0.011598227
0.011720165
0.0118499
0.011987764
0.012134106
0.012289293
0.012453719
0.012627802
0.012811995
0.013006789
0.013212715
0.013430296
0.013660252
0.013903242
0.01415999
0.014431291
0.014717998
0.015021017
0.015341305
0.015679867
0.016037743
0.016416002
0.016815732
0.01723802
0.017683946
0.018154559
0.018650864
0.019173806
0.019724248
0.020302962
0.020910609
0.02154783
0.022215004
0.022912147
0.023639554
0.024397198
0.025184905
0.02600236
0.02684911
0.027724572
0.028628045
0.029558721
0.030515695
0.031497981
0.032504528
0.033534248
0.034585888
0.01120078
0.011301802
0.011409675
0.011524755
0.011647351
0.011777783
0.011916385
0.012063507
0.012219518
0.012384812
0.012559811
0.012744972
0.012940787
0.013147791
0.013366516
0.013597672
0.013841937
0.014100035
0.014372767
0.01466099
0.014965616
0.015287609
0.015627978
0.015987769
0.016368057
0.016769933
0.017194489
0.017642807
0.018115939
0.018614892
0.01914061
0.019693956
0.020275698
0.020886493
0.021527002
0.022197529
0.02289815
0.02362913
0.024390431
0.025181873
0.026003126
0.026853728
0.027733084
0.028640482
0.029575098
0.030536018
0.031522241
0.032532703
0.033566302
0.034621774
0.011131445
0.011232963
0.011341366
0.011457012
0.011580209
0.011711279
0.011850556
0.011998391
0.012155157
0.012321248
0.01249709
0.01268314
0.012879894
0.013087891
0.013307669
0.013539931
0.013785371
0.014044714
0.014318765
0.014608387
0.014914496
0.015238061
0.015580096
0.015941652
0.01632381
0.016727663
0.017154308
0.017604831
0.018080284
0.018581676
0.01910995
0.01966597
0.020250501
0.020864197
0.021507734
0.022181348
0.022885174
0.023619445
0.024384116
0.025178997
0.02600375
0.0268579
0.027740844
0.028651855
0.029590101
0.030554652
0.031544498
0.032558561
0.033595728
0.034654721
0.011067581
0.011169549
0.011278435
0.011394596
0.011518342
0.011649995
0.011789889
0.011938378
0.012095835
0.012262658
0.012439273
0.01262614
0.012823758
0.013032669
0.013253417
0.013486697
0.01373322
0.013993711
0.014268978
0.014559888
0.014867363
0.015192377
0.015535947
0.015899129
0.016283008
0.016688682
0.017117251
0.017569802
0.018047392
0.018551028
0.019081656
0.019640136
0.020227234
0.020843599
0.021489924
0.02216638
0.022873154
0.023610454
0.024378228
0.025176275
0.026004248
0.026861665
0.027747909
0.028662246
0.029603831
0.030571724
0.031564902
0.032582274
0.033622718
0.034684944
0.011008804
0.011111181
0.011220505
0.011337136
0.011461382
0.011593566
0.011734025
0.011883113
0.012041204
0.012208697
0.012386021
0.012573639
0.012772051
0.012981802
0.013203444
0.01343766
0.013685181
0.013946729
0.014223116
0.014515213
0.014823946
0.015150293
0.015495276
0.015859956
0.016245418
0.016652767
0.017083106
0.017537522
0.018017076
0.018522776
0.019055568
0.019616311
0.020205768
0.020824588
0.021473476
0.022152544
0.022862031
0.023602117
0.024372743
0.025173701
0.026004637
0.026865057
0.027754337
0.028671731
0.029616386
0.030587349
0.031583588
0.032604001
0.033647451
0.034712644
0.010954758
0.011057505
0.011167227
0.011284285
0.011408987
0.011541657
0.011682633
0.011832268
0.011990939
0.012159046
0.012337021
0.012525328
0.012724469
0.012934992
0.013157456
0.013392534
0.013640973
0.013903493
0.014180911
0.014474101
0.014783991
0.015111565
0.015457847
0.015823903
0.016210822
0.01661971
0.017051674
0.017507805
0.017989163
0.018496759
0.019031537
0.019594359
0.020185984
0.020807058
0.021458301
0.022139769
0.022851747
0.023594393
0.02436764
0.025171273
0.02600493
0.02686811
0.027760178
0.028680381
0.029627854
0.030601637
0.031600686
0.032623887
0.033670095
0.034738005
0.010905112
0.011008193
0.011118277
0.011235723
0.011360841
0.011493955
0.011635402
0.011785538
0.01194474
0.01211341
0.01229198
0.012480918
0.012680729
0.012891962
0.013115181
0.01335105
0.013600334
0.013863748
0.014142114
0.014436307
0.014747262
0.015075962
0.015423439
0.015790758
0.016179013
0.016589315
0.017022771
0.017480475
0.017963488
0.018472824
0.019009426
0.019574154
0.020167768
0.020790911
0.021444315
0.022127985
0.022842249
0.023587243
0.024362896
0.025168984
0.026005139
0.026870851
0.027765479
0.028688259
0.029638318
0.030614687
0.031616312
0.03264207
0.033690803
0.034761201
0.010859558
0.010962942
0.011073354
0.011191154
0.011316651
0.01145017
0.011592047
0.01174264
0.011902327
0.012071511
0.012250627
0.012440144
0.012640568
0.012852451
0.013076364
0.01331296
0.013563019
0.013827255
0.01410649
0.014401606
0.014713538
0.015043273
0.015391844
0.015760322
0.016149804
0.016561401
0.016996224
0.01745537
0.017939901
0.018450831
0.018989103
0.019555579
0.020151015
0.020776054
0.021431439
0.022117126
0.022833486
0.023580634
0.024358491
0.02516683
0.026005275
0.026873309
0.027770282
0.028695424
0.029647853
0.030626592
0.031630576
0.032658674
0.033709719
0.034782392
0.010817814
0.010921471
0.01103218
0.011150301
0.011276144
0.011410031
0.011552302
0.011703312
0.011863441
0.012033095
0.01221271
0.012402755
0.012603741
0.01281622
0.013040769
0.013278032
0.013528801
0.013793791
0.014073825
0.014369786
0.014682613
0.015013296
0.015362871
0.015732411
0.016123016
0.016535799
0.016971874
0.017432339
0.017918259
0.018430647
0.018970449
0.019538523
0.020135627
0.020762401
0.021419598
0.022107132
0.022825411
0.023574529
0.024354406
0.025164805
0.026005347
0.026875505
0.027774626
0.02870193
0.029656529
0.030637436
0.031643579
0.032673817
0.033726973
0.034801726
0.010779615
0.010883517
0.010994495
0.011112908
0.011239066
0.01137329
0.011515919
0.011667309
0.011827842
0.011997923
0.012177993
0.012368521
0.01257002
0.012783044
0.013008176
0.013246049
0.01349747
0.013763149
0.014043915
0.01434065
0.014654297
0.014985847
0.015336341
0.015706852
0.016098483
0.01651235
0.01694957
0.017411241
0.017898429
0.01841215
0.018953348
0.019522883
0.020121511
0.02074987
0.021408723
0.022097946
0.022817978
0.023568898
0.02435062
0.025162903
0.026005361
0.026877463
0.027778547
0.028707828
0.029664409
0.030647297
0.031655412
0.032687605
0.033742689
0.034819338
0.010744715
0.010848837
0.010960059
0.011078738
0.011205182
0.011339714
0.011482669
0.011634405
0.011795304
0.011965775
0.012146257
0.012337226
0.012539193
0.012752715
0.01297838
0.01321681
0.013468827
0.013735138
0.014016572
0.014314015
0.014628411
0.014960754
0.015312085
0.015683483
0.016076051
0.016490908
0.016929171
0.017391942
0.017880287
0.018395223
0.018937695
0.019508563
0.020108581
0.020738387
0.021398749
0.022089513
0.022811145
0.023563709
0.024347115
0.025161118
0.026005325
0.0268792
0.027782076
0.028713161
0.029671552
0.030656248
0.031666162
0.032700137
0.033756978
0.034835357
0.010712885
0.010817206
0.010928647
0.011047568
0.011174274
0.011309086
0.011452338
0.011604388
0.011765618
0.011936442
0.012117301
0.01230867
0.012511063
0.012725038
0.01295119
0.013190129
0.013442689
0.013709576
0.01399162
0.014289709
0.014604788
0.014937854
0.015289949
0.015662155
0.016055576
0.016471334
0.016910547
0.017374319
0.017863718
0.01837976
0.018923392
0.019495472
0.020096756
0.020727881
0.021389611
0.022081783
0.022804871
0.023558933
0.024343873
0.025159443
0.026005243
0.026880735
0.027785244
0.028717972
0.029678011
0.030664354
0.031675907
0.032711505
0.033769945
0.034849897
0.010683913
0.010788411
0.010900052
0.011019193
0.011146138
0.011281206
0.011424728
0.011577061
0.011738592
0.011909734
0.012090933
0.012282665
0.012485445
0.012699833
0.012926427
0.01316583
0.013418886
0.013686297
0.013968897
0.014267573
0.014583274
0.014916997
0.015269787
0.015642727
0.016036923
0.016453499
0.016893576
0.017358257
0.017848613
0.01836566
0.018910345
0.019483527
0.02008596
0.020718285
0.021381254
0.022074709
0.02279912
0.023554543
0.024340878
0.025157871
0.026005121
0.026882082
0.027788075
0.028722298
0.029683837
0.030671677
0.03168472
0.032721793
0.033781685
0.034863067
0.010657601
0.010762258
0.010874079
0.01099342
0.011120584
0.011255887
0.011399654
0.011552241
0.011714042
0.011885472
0.012066978
0.012259038
0.012462168
0.01267693
0.012903926
0.013143751
0.013397256