/*--------------------------------*- C++ -*----------------------------------*\
| =========                 |                                                 |
| \\      /  F ield         | OpenFOAM: The Open Source CFD Toolbox           |
|  \\    /   O peration     | Version:  2312                                  |
|   \\  /    A nd           | Website:  www.openfoam.com                      |
|    \\/     M anipulation  |                                                 |
\*---------------------------------------------------------------------------*/
FoamFile
{
    version     2.0;
    format      ascii;
    arch        "LSB;label=32;scalar=64";
    class       volScalarField;
    location    "0.01";
    object      f_Bilger;
}
// * * * * * * * * * * * * * * * * * * * * * * * * * * * * * * * * * * * * * //

dimensions      [0 0 0 0 0 0 0];

internalField   nonuniform List<scalar> 
3257
(
4.0869241e-10
3.9479804e-10
3.8322282e-10
3.7314321e-10
3.6377272e-10
3.5482708e-10
3.4608882e-10
3.375171e-10
3.2912001e-10
3.2090623e-10
3.1290864e-10
3.051123e-10
2.9751642e-10
2.9008027e-10
2.8277409e-10
2.7555357e-10
2.6837733e-10
2.6122086e-10
2.5404031e-10
2.4683547e-10
2.3955762e-10
2.3221002e-10
2.2475731e-10
2.1718328e-10
2.094947e-10
2.0166473e-10
1.9373121e-10
1.8568029e-10
1.7754191e-10
1.6932347e-10
1.6102821e-10
1.5267697e-10
1.4426332e-10
1.3581107e-10
1.2733002e-10
1.188381e-10
1.1035911e-10
1.0190715e-10
9.3508791e-11
8.5179383e-11
7.694995e-11
6.883753e-11
6.0866304e-11
5.3042751e-11
4.5379358e-11
3.787761e-11
3.0549711e-11
2.3400619e-11
1.6452406e-11
9.7092086e-12
3.1787429e-12
4.2310226e-10
4.0948592e-10
3.9821104e-10
3.8820389e-10
3.7874831e-10
3.6958847e-10
3.6053294e-10
3.5163185e-10
3.4288034e-10
3.3434865e-10
3.2604401e-10
3.1797384e-10
3.1011663e-10
3.024241e-10
2.9486842e-10
2.8737459e-10
2.7993174e-10
2.7247879e-10
2.6500576e-10
2.5749373e-10
2.4989246e-10
2.4222276e-10
2.3439775e-10
2.2645614e-10
2.1834664e-10
2.1009344e-10
2.0172507e-10
1.9322959e-10
1.8467286e-10
1.7602495e-10
1.6732447e-10
1.5856329e-10
1.4974379e-10
1.4089369e-10
1.3200532e-10
1.2312641e-10
1.1425422e-10
1.0543384e-10
9.6669714e-11
8.800247e-11
7.9449147e-11
7.1038432e-11
6.2785298e-11
5.4696257e-11
4.677411e-11
3.9026957e-11
3.1457711e-11
2.4083435e-11
1.6917596e-11
9.9786444e-12
3.2654368e-12
4.5333595e-10
4.3936442e-10
4.2784176e-10
4.174544e-10
4.0755301e-10
3.9786829e-10
3.8824497e-10
3.7877482e-10
3.6945427e-10
3.6038769e-10
3.5156108e-10
3.4299693e-10
3.3464794e-10
3.264631e-10
3.1840705e-10
3.1037497e-10
3.0239312e-10
2.9433854e-10
2.8627074e-10
2.7811027e-10
2.6984072e-10
2.6148305e-10
2.5291132e-10
2.4422828e-10
2.3531755e-10
2.262697e-10
2.1708512e-10
2.077681e-10
1.9839956e-10
1.8892832e-10
1.794205e-10
1.6984865e-10
1.6022763e-10
1.5058867e-10
1.4091907e-10
1.3128437e-10
1.2166909e-10
1.1214215e-10
1.0269529e-10
9.339191e-11
8.4235157e-11
7.5264626e-11
6.6475718e-11
5.7873756e-11
4.9454299e-11
4.122507e-11
3.3195779e-11
2.5383159e-11
1.7813426e-11
1.0497038e-11
3.4326147e-12
5.0002716e-10
4.8464787e-10
4.7189946e-10
4.6037369e-10
4.4945463e-10
4.3882961e-10
4.283474e-10
4.1807978e-10
4.0800906e-10
3.9822593e-10
3.8869748e-10
3.794386e-10
3.7037901e-10
3.6147112e-10
3.526508e-10
3.4382514e-10
3.3500185e-10
3.260559e-10
3.1706108e-10
3.0790401e-10
2.9861701e-10
2.8917484e-10
2.7950322e-10
2.6968503e-10
2.5962504e-10
2.4942256e-10
2.3906783e-10
2.2858145e-10
2.1803044e-10
2.0737492e-10
1.9668042e-10
1.8592925e-10
1.7514222e-10
1.6435797e-10
1.5356724e-10
1.4284395e-10
1.3217557e-10
1.2163924e-10
1.1123704e-10
1.0103414e-10
9.1036427e-11
8.1273547e-11
7.1726931e-11
6.2394383e-11
5.3260923e-11
4.4347721e-11
3.5662446e-11
2.7234714e-11
1.9086291e-11
1.1235939e-11
3.6705411e-12
5.6272087e-10
5.4486532e-10
5.2990281e-10
5.1643287e-10
5.0387417e-10
4.9184943e-10
4.8017991e-10
4.6886306e-10
4.5784302e-10
4.4715165e-10
4.3673498e-10
4.2657002e-10
4.1657984e-10
4.0669816e-10
3.9685322e-10
3.8695564e-10
3.7699265e-10
3.6685421e-10
3.5659263e-10
3.461024e-10
3.354278e-10
3.2453099e-10
3.1339078e-10
3.0206816e-10
2.9050981e-10
2.7880634e-10
2.6693971e-10
2.5494957e-10
2.4286724e-10
2.3069051e-10
2.1846391e-10
2.0619895e-10
1.9391818e-10
1.8167081e-10
1.6945661e-10
1.5735159e-10
1.4535459e-10
1.3354801e-10
1.2194591e-10
1.1061817e-10
9.9565766e-11
8.8809731e-11
7.8309082e-11
6.8055154e-11
5.8027633e-11
4.8251932e-11
3.8749042e-11
2.9548406e-11
2.0683126e-11
1.2161378e-11
3.9687301e-12
6.4041024e-10
6.1919319e-10
6.0115209e-10
5.8502819e-10
5.7024686e-10
5.5637275e-10
5.4316626e-10
5.3051465e-10
5.1830009e-10
5.0647174e-10
4.9493789e-10
4.8362618e-10
4.7244998e-10
4.6132035e-10
4.501632e-10
4.3889099e-10
4.2747111e-10
4.1581778e-10
4.0394694e-10
3.9177794e-10
3.7935507e-10
3.6664092e-10
3.5367435e-10
3.4048775e-10
3.270859e-10
3.1353944e-10
2.9982373e-10
2.8600223e-10
2.7205064e-10
2.5803944e-10
2.4396752e-10
2.2989307e-10
2.1583659e-10
2.0185491e-10
1.8796316e-10
1.7423063e-10
1.6067891e-10
1.4738291e-10
1.3438392e-10
1.2173974e-10
1.0945887e-10
9.7540396e-11
8.5928191e-11
7.4602788e-11
6.3534251e-11
5.2764343e-11
4.2313832e-11
3.2224766e-11
2.2524872e-11
1.3230353e-11
4.3123153e-12
7.3184912e-10
7.065719e-10
6.8480786e-10
6.6544976e-10
6.479493e-10
6.3181128e-10
6.1672055e-10
6.0244406e-10
5.8877741e-10
5.7557195e-10
5.6268139e-10
5.4997767e-10
5.3734898e-10
5.2468766e-10
5.1191453e-10
4.9895362e-10
4.8575204e-10
4.7225211e-10
4.5843163e-10
4.4424377e-10
4.297294e-10
4.1486065e-10
3.9973057e-10
3.8434637e-10
3.6877267e-10
3.5305426e-10
3.3717567e-10
3.2121705e-10
3.0513937e-10
2.8902094e-10
2.7285767e-10
2.5673305e-10
2.4065994e-10
2.2471474e-10
2.0891955e-10
1.9334183e-10
1.7802332e-10
1.6303923e-10
1.4844903e-10
1.3430947e-10
1.2062483e-10
1.0738219e-10
9.4503755e-11
8.196077e-11
6.9720605e-11
5.7827433e-11
4.6315519e-11
3.5224201e-11
2.459383e-11
1.4427885e-11
4.6970601e-12
8.3532307e-10
8.0551233e-10
7.7955436e-10
7.5654929e-10
7.3594406e-10
7.1720011e-10
6.9991455e-10
6.8373111e-10
6.6834908e-10
6.5351703e-10
6.3902266e-10
6.2468148e-10
6.1035428e-10
5.9591318e-10
5.8126763e-10
5.6634604e-10
5.5107302e-10
5.3542419e-10
5.1935113e-10
5.028447e-10
4.8593711e-10
4.6862485e-10
4.510284e-10
4.3315397e-10
4.1510277e-10
3.9690945e-10
3.785713e-10
3.6017723e-10
3.4166726e-10
3.2316913e-10
3.0464999e-10
2.862282e-10
2.6791177e-10
2.4978595e-10
2.3188176e-10
2.1426496e-10
1.969969e-10
1.8014963e-10
1.6380551e-10
1.4801266e-10
1.327799e-10
1.1807478e-10
1.0380522e-10
8.993193e-11
7.6413052e-11
6.3305336e-11
5.0640491e-11
3.8469107e-11
2.6824439e-11
1.572005e-11
5.1113409e-12
9.5038802e-10
9.1560991e-10
8.8508607e-10
8.5805294e-10
8.339757e-10
8.1226707e-10
7.9243798e-10
7.7401257e-10
7.5658831e-10
7.3981204e-10
7.2339928e-10
7.0711013e-10
6.9076889e-10
6.7423177e-10
6.5739202e-10
6.4018769e-10
6.2253264e-10
6.0442301e-10
5.8579573e-10
5.6667283e-10
5.4708309e-10
5.2704984e-10
5.0670419e-10
4.860648e-10
4.6525163e-10
4.4430396e-10
4.2323588e-10
4.0214349e-10
3.8097243e-10
3.5986628e-10
3.3878924e-10
3.1787544e-10
2.9713196e-10
2.7665181e-10
2.5647092e-10
2.3665784e-10
2.1728654e-10
1.9843404e-10
1.8019505e-10
1.6261896e-10
1.4571109e-10
1.2942822e-10
1.1366335e-10
9.8365057e-11
8.3489803e-11
6.9089954e-11
5.520846e-11
4.1890098e-11
2.9180172e-11
1.7080241e-11
5.5470206e-12
1.0757651e-09
1.0356766e-09
1.000255e-09
9.6889055e-10
9.410248e-10
9.1603585e-10
8.9334147e-10
8.7235813e-10
8.5257667e-10
8.3354874e-10
8.1491255e-10
7.9637611e-10
7.777212e-10
7.5878954e-10
7.3945613e-10
7.196664e-10
6.9932949e-10
6.7845847e-10
6.569925e-10
6.3497703e-10
6.1243954e-10
5.8943214e-10
5.660804e-10
5.4242911e-10
5.1860179e-10
4.9465292e-10
4.7061708e-10
4.4659433e-10
4.2255363e-10
3.986381e-10
3.7482371e-10
3.512478e-10
3.279202e-10
3.0493815e-10
2.8234085e-10
2.6020058e-10
2.3860175e-10
2.1762474e-10
1.9737739e-10
1.7790757e-10
1.5922228e-10
1.4126577e-10
1.2392233e-10
1.0712861e-10
9.0831806e-11
7.5090324e-11
5.9940957e-11
4.543595e-11
3.1612725e-11
1.8486058e-11
5.9962711e-12
1.2103006e-09
1.1645622e-09
1.1239839e-09
1.0880019e-09
1.0560668e-09
1.027504e-09
1.0016455e-09
9.7780279e-10
9.5536297e-10
9.3378666e-10
9.1263433e-10
8.9156237e-10
8.7030939e-10
8.4870132e-10
8.2659555e-10
8.0394187e-10
7.8065102e-10
7.5674946e-10
7.3218618e-10
7.0702706e-10
6.813023e-10
6.5508939e-10
6.2850464e-10
6.0162118e-10
5.7456111e-10
5.4740046e-10
5.2019244e-10
4.93044e-10
4.6595093e-10
4.3905407e-10
4.123454e-10
3.8596103e-10
3.599138e-10
3.3430568e-10
3.0917513e-10
2.8460223e-10
2.6067359e-10
2.374794e-10
2.1513074e-10
1.9368149e-10
1.7313486e-10
1.5343085e-10
1.344435e-10
1.1609846e-10
9.8340198e-11
8.121654e-11
6.4770739e-11
4.9046912e-11
3.4094168e-11
1.9914761e-11
6.4524945e-12
1.353078e-09
1.3013492e-09
1.2552722e-09
1.2143863e-09
1.1780902e-09
1.1456726e-09
1.1163631e-09
1.0893776e-09
1.0639936e-09
1.0395886e-09
1.0156417e-09
9.9176307e-10
9.6764486e-10
9.4309863e-10
9.1796419e-10
8.9219425e-10
8.6570508e-10
8.385315e-10
8.1064248e-10
7.8211558e-10
7.5299116e-10
7.233655e-10
6.9335138e-10
6.6304348e-10
6.3256808e-10
6.020158e-10
5.7146755e-10
5.4102754e-10
5.1073264e-10
4.8070615e-10
4.509735e-10
4.2165245e-10
3.9277663e-10
3.6443618e-10
3.3668216e-10
3.0958893e-10
2.8325583e-10
2.5776976e-10
2.3325398e-10
2.0975657e-10
1.8728956e-10
1.6577946e-10
1.4510338e-10
1.2517004e-10
1.0591957e-10
8.7396086e-11
6.9636227e-11
5.2685747e-11
3.6585405e-11
2.1351048e-11
6.9101519e-12
1.5031225e-09
1.4449495e-09
1.3930554e-09
1.3469381e-09
1.3060071e-09
1.2694582e-09
1.2364393e-09
1.206046e-09
1.1774638e-09
1.1499703e-09
1.1229807e-09
1.0960447e-09
1.0688231e-09
1.0411015e-09
1.0127124e-09
9.8360338e-10
9.5370191e-10
9.2305133e-10
8.9163476e-10
8.5955019e-10
8.2683869e-10
7.9362715e-10
7.6001015e-10
7.2612313e-10
6.9207282e-10
6.5799278e-10
6.2395682e-10
5.9010495e-10
5.5647328e-10
5.2321063e-10
4.9033436e-10
4.579869e-10
4.2618143e-10
3.9503713e-10
3.6457797e-10
3.349119e-10
3.0610952e-10
2.7829101e-10
2.5155214e-10
2.2597101e-10
2.0153438e-10
1.7818844e-10
1.5578748e-10
1.3424771e-10
1.1349125e-10
9.356066e-11
7.4485506e-11
5.6306116e-11
3.9068275e-11
2.2777462e-11
7.3643163e-12
1.6592718e-09
1.5942425e-09
1.5361058e-09
1.4844601e-09
1.438604e-09
1.3976959e-09
1.3607246e-09
1.3267135e-09
1.2946986e-09
1.2639076e-09
1.2336461e-09
1.2034489e-09
1.1729088e-09
1.1418175e-09
1.1099758e-09
1.0773446e-09
1.043852e-09
1.00955e-09
9.7444637e-10
9.3863722e-10
9.0219701e-10
8.6524059e-10
8.278994e-10
7.9028684e-10
7.5256098e-10
7.1481918e-10
6.7721234e-10
6.398246e-10
6.0278528e-10
5.6617127e-10
5.3009435e-10
4.9461793e-10
4.5984199e-10
4.2580881e-10
3.9262154e-10
3.6031679e-10
3.2903544e-10
2.9883332e-10
2.6986796e-10
2.4215916e-10
2.157496e-10
1.9053181e-10
1.6640721e-10
1.4324304e-10
1.2098804e-10
9.9652828e-11
7.9274845e-11
5.9881037e-11
4.1513182e-11
2.4184528e-11
7.8117841e-12
1.8201909e-09
1.7477661e-09
1.6830596e-09
1.6255566e-09
1.5745796e-09
1.5290895e-09
1.4880195e-09
1.4501873e-09
1.4145932e-09
1.3803006e-09
1.3466191e-09
1.3129652e-09
1.278961e-09
1.2443213e-09
1.2088886e-09
1.1725801e-09
1.1353627e-09
1.0972772e-09
1.0583539e-09
1.0187083e-09
9.7840764e-10
9.376154e-10
8.9642185e-10
8.5501712e-10
8.1349249e-10
7.7204731e-10
7.3075082e-10
6.8980388e-10
6.4924175e-10
6.0926604e-10
5.6988023e-10
5.3127677e-10
4.9343496e-10
4.5652956e-10
4.2053662e-10
3.8562331e-10
3.5180328e-10
3.1925583e-10
2.8801641e-10
2.5821631e-10
2.2979384e-10
2.0273518e-10
1.768603e-10
1.5210057e-10
1.2834415e-10
1.0563192e-10
8.3966682e-11
6.3382564e-11
4.3911929e-11
2.556275e-11
8.2501543e-12
1.9839675e-09
1.9038324e-09
1.8322121e-09
1.7686919e-09
1.7124094e-09
1.6622673e-09
1.6169514e-09
1.5752324e-09
1.5359015e-09
1.4980283e-09
1.4607632e-09
1.4235666e-09
1.3859472e-09
1.3476748e-09
1.3085215e-09
1.268452e-09
1.2274054e-09
1.18545e-09
1.1426283e-09
1.0990519e-09
1.0548371e-09
1.0101071e-09
9.6503291e-10
9.197302e-10
8.7440597e-10
8.2915112e-10
7.8418611e-10
7.3957249e-10
6.9552596e-10
6.5208054e-10
6.094376e-10
5.6760329e-10
5.2676031e-10
4.8689057e-10
4.4816881e-10
4.105721e-10
3.7429823e-10
3.3934658e-10
3.0591627e-10
2.7397711e-10
2.436131e-10
2.1467727e-10
1.8711035e-10
1.6073954e-10
1.3553058e-10
1.1145245e-10
8.8541914e-11
6.6796352e-11
4.6251303e-11
2.690862e-11
8.6778415e-12
2.1481669e-09
2.0601747e-09
1.9815997e-09
1.9119889e-09
1.8504401e-09
1.7955995e-09
1.7460734e-09
1.7003899e-09
1.657325e-09
1.6157663e-09
1.5748998e-09
1.5340545e-09
1.492794e-09
1.4507999e-09
1.4078968e-09
1.3640029e-09
1.3190933e-09
1.27323e-09
1.2264646e-09
1.1789454e-09
1.1307567e-09
1.082101e-09
1.0330751e-09
9.8391405e-10
9.3470875e-10
8.857102e-10
8.3698693e-10
7.88794e-10
7.4116618e-10
6.9435387e-10
6.4835428e-10
6.034034e-10
5.5946408e-10
5.1675309e-10
4.7521863e-10
4.3506805e-10
3.9627246e-10
3.5904433e-10
3.2336935e-10
2.8940619e-10
2.5705785e-10
2.2633937e-10
1.9705294e-10
1.6914822e-10
1.424854e-10
1.1710561e-10
9.2973031e-11
7.0112461e-11
4.852344e-11
2.8215067e-11
9.0928657e-12
2.3112465e-09
2.2149569e-09
2.1292854e-09
2.0537036e-09
1.9869355e-09
1.9275879e-09
1.8738626e-09
1.8243375e-09
1.7774997e-09
1.7323254e-09
1.6878035e-09
1.6433535e-09
1.5984069e-09
1.5527234e-09
1.506047e-09
1.4583515e-09
1.4095785e-09
1.3598187e-09
1.3091329e-09
1.2576637e-09
1.2055472e-09
1.1529412e-09
1.1000332e-09
1.0469725e-09
9.9398046e-10
9.4118307e-10
8.8881969e-10
8.3698029e-10
7.8590691e-10
7.3565191e-10
6.8644311e-10
6.3829615e-10
5.9141709e-10
5.4578963e-10
5.0160454e-10
4.58835e-10
4.1767904e-10
3.7812228e-10
3.4035398e-10
3.0432404e-10
2.7012255e-10
2.3758795e-10
2.0669025e-10
1.7723673e-10
1.4921089e-10
1.2253825e-10
9.7253449e-11
7.3304906e-11
5.0715114e-11
2.9474237e-11
9.4922206e-12
2.4690384e-09
2.3655351e-09
2.2732837e-09
2.1922841e-09
2.1207316e-09
2.0571403e-09
1.9994601e-09
1.9461889e-09
1.8957104e-09
1.8469439e-09
1.7988505e-09
1.7507975e-09
1.702232e-09
1.6528636e-09
1.6024693e-09
1.5509893e-09
1.4983972e-09
1.4447743e-09
1.3901957e-09
1.3348282e-09
1.2787924e-09
1.2223071e-09
1.1655056e-09
1.1086394e-09
1.0518332e-09
9.9535604e-10
9.3930955e-10
8.8396626e-10
8.2939297e-10
7.7585465e-10
7.2337569e-10
6.7220486e-10
6.2232223e-10
5.7395792e-10
5.2706242e-10
4.8185783e-10
4.3828941e-10
3.9658572e-10
3.5667774e-10
3.1874949e-10
2.8265261e-10
2.484477e-10
2.1590717e-10
1.8502756e-10
1.5562448e-10
1.2776327e-10
1.0133326e-10
7.6370149e-11
5.2804989e-11
3.0683478e-11
9.8761958e-12
2.6182868e-09
2.5074038e-09
2.410872e-09
2.3250285e-09
2.2500874e-09
2.1824293e-09
2.1215219e-09
2.0644969e-09
2.0107558e-09
1.9583561e-09
1.9069082e-09
1.8552358e-09
1.8032036e-09
1.7501603e-09
1.6961853e-09
1.640948e-09
1.5846761e-09
1.5272189e-09
1.4688966e-09
1.4096522e-09
1.3498568e-09
1.2895007e-09
1.2289782e-09
1.168301e-09
1.1078666e-09
1.0476921e-09
9.8816219e-10
9.2928556e-10
8.7142345e-10
8.1456117e-10
7.5903235e-10
7.047851e-10
6.5212808e-10
6.0096686e-10
5.5159706e-10
5.0389251e-10
4.5814958e-10
4.1423218e-10
3.7241126e-10
3.3251732e-10
2.9472361e-10
2.5878471e-10
2.2477095e-10
1.9241268e-10
1.6178647e-10
1.3270025e-10
1.0525228e-10
7.9261333e-11
5.4824439e-11
3.1839706e-11
1.0247692e-11
2.7520309e-09
2.6372677e-09
2.5361705e-09
2.4484074e-09
2.3700023e-09
2.3001586e-09
2.2358247e-09
2.1761309e-09
2.1189243e-09
2.063553e-09
2.0086288e-09
1.9538159e-09
1.8982843e-09
1.8419887e-09
1.7844673e-09
1.7258855e-09
1.6660066e-09
1.6051307e-09
1.5431535e-09
1.4804468e-09
1.4169816e-09
1.3531602e-09
1.2890003e-09
1.224903e-09
1.160913e-09
1.0974124e-09
1.0344572e-09
9.7239873e-10
9.1128433e-10
8.514331e-10
7.9286469e-10
7.3586645e-10
6.8041645e-10
6.2677803e-10
5.7488958e-10
5.2499535e-10
4.7701482e-10
4.3116913e-10
3.8736063e-10
3.4574524e-10
3.06176e-10
2.6871051e-10
2.3314726e-10
1.9950354e-10
1.6758624e-10
1.3745165e-10
1.0893309e-10
8.2063607e-11
5.673308e-11
3.2961543e-11
1.0606532e-11
2.8610055e-09
2.746481e-09
2.6460491e-09
2.5572399e-09
2.4780294e-09
2.4061848e-09
2.3399652e-09
2.2776456e-09
2.2179328e-09
2.1596395e-09
2.1019274e-09
2.0440751e-09
1.9856331e-09
1.9262393e-09
1.8657333e-09
1.8039978e-09
1.7410679e-09
1.6769833e-09
1.6118973e-09
1.5459409e-09
1.4793328e-09
1.4122529e-09
1.3449501e-09
1.2776251e-09
1.2105339e-09
1.1438811e-09
1.0779124e-09
1.0128197e-09
9.4882694e-10
8.8610126e-10
8.2483661e-10
7.651631e-10
7.0724096e-10
6.5116188e-10
5.9705274e-10
5.4497205e-10
4.9501913e-10
4.4722548e-10
4.0165115e-10
3.5828623e-10
3.1712784e-10
2.781057e-10
2.4116482e-10
2.0620037e-10
1.7315287e-10
1.4193087e-10
1.1247645e-10
8.4702294e-11
5.8573662e-11
3.4031714e-11
1.0947486e-11
2.9593147e-09
2.8426723e-09
2.7421218e-09
2.6536818e-09
2.5742685e-09
2.5017231e-09
2.4341684e-09
2.3701433e-09
2.3083592e-09
2.2478125e-09
2.187666e-09
2.1273043e-09
2.0662592e-09
2.0042277e-09
1.941017e-09
1.8765525e-09
1.8108347e-09
1.743942e-09
1.6759955e-09
1.6071672e-09
1.537648e-09
1.4676603e-09
1.3974283e-09
1.3271968e-09
1.2572002e-09
1.187685e-09
1.1188782e-09
1.0510119e-09
9.842935e-10
9.1892977e-10
8.5509525e-10
7.9296137e-10
7.3266555e-10
6.7433943e-10
6.1808023e-10
5.6398205e-10
5.1210494e-10
4.6250762e-10
4.1520819e-10
3.7022157e-10
3.2751798e-10
2.8705919e-10
2.4877766e-10
2.1259927e-10
1.7843802e-10
1.4621354e-10
1.1583196e-10
8.7218738e-11
6.0311638e-11
3.5037236e-11
1.1268857e-11
3.0360047e-09
2.9242544e-09
2.8266827e-09
2.7399277e-09
2.6614243e-09
2.5889794e-09
2.5209323e-09
2.4558743e-09
2.3926775e-09
2.3303982e-09
2.2683066e-09
2.2058237e-09
2.1425391e-09
2.0781609e-09
2.012528e-09
1.9455659e-09
1.8772928e-09
1.8077836e-09
1.7371769e-09
1.6656418e-09
1.5933887e-09
1.5206383e-09
1.447636e-09
1.3746275e-09
1.3018689e-09
1.2296082e-09
1.1580947e-09
1.0875625e-09
1.0182403e-09
9.5033573e-10
8.8404509e-10
8.1953805e-10
7.5697192e-10
6.9647331e-10
6.3815618e-10
5.821034e-10
5.2838564e-10
4.770437e-10
4.2810372e-10
3.8156303e-10
3.3740342e-10
2.9558073e-10
2.5603876e-10
2.1870071e-10
1.8348326e-10
1.502881e-10
1.1902201e-10
8.95996e-11
6.1947724e-11
3.5986691e-11
1.1569026e-11
3.1150602e-09
3.0016607e-09
2.9052271e-09
2.8201145e-09
2.7428539e-09
2.6710857e-09
2.6031172e-09
2.5376156e-09
2.4735134e-09
2.4099612e-09
2.3462935e-09
2.2820008e-09
2.2167149e-09
2.1501872e-09
2.0822798e-09
2.0129408e-09
1.942202e-09
1.8701539e-09
1.7969432e-09
1.7227544e-09
1.6478048e-09
1.5723311e-09
1.4965877e-09
1.4208354e-09
1.3453412e-09
1.2703685e-09
1.1961765e-09
1.1230147e-09
1.0511212e-09
9.8071731e-10
9.1200701e-10
8.4517242e-10
7.8037548e-10
7.1775298e-10
6.5741829e-10
5.9946066e-10
5.4394591e-10
4.9091572e-10
4.4038873e-10
3.9236204e-10
3.4681197e-10
3.0369607e-10
2.6295613e-10
2.2451555e-10
1.8828544e-10
1.5416369e-10
1.220484e-10
9.184951e-11
6.3492505e-11
3.6869556e-11
1.1851177e-11
3.1826864e-09
3.0735998e-09
2.9798616e-09
2.8967895e-09
2.8210254e-09
2.7503108e-09
2.6828934e-09
2.6174217e-09
2.5528526e-09
2.4883893e-09
2.4234314e-09
2.3575367e-09
2.2903947e-09
2.2218071e-09
2.1516724e-09
2.0799718e-09
2.0067588e-09
1.9321462e-09
1.856296e-09
1.7794092e-09
1.701717e-09
1.6234721e-09
1.5449419e-09
1.466403e-09
1.3881352e-09
1.3104167e-09
1.2335203e-09
1.1577093e-09
1.0832327e-09
1.0103239e-09
9.3919644e-10
8.7004215e-10
8.0302956e-10
7.383011e-10
6.7597429e-10
6.1613953e-10
5.5886238e-10
5.0418248e-10
4.5211537e-10
4.0265384e-10
3.5577064e-10
3.1141954e-10
2.6953754e-10
2.3004587e-10
1.9284916e-10
1.5784052e-10
1.2491371e-10
9.3976342e-11
6.493939e-11
3.7706393e-11
1.2113923e-11
3.2587413e-09
3.1475648e-09
3.0544948e-09
2.9726301e-09
2.8981414e-09
2.828537e-09
2.7618788e-09
2.6966962e-09
2.6319052e-09
2.5667307e-09
2.5006262e-09
2.433216e-09
2.3642553e-09
2.293602e-09
2.221204e-09
2.1470807e-09
2.0713181e-09
1.9940543e-09
1.9154747e-09
1.8357985e-09
1.7552753e-09
1.6741747e-09
1.5927808e-09
1.511385e-09
1.4302833e-09
1.3497683e-09
1.2701272e-09
1.1916355e-09
1.1145558e-09
1.0391311e-09
9.6558552e-10
8.9411833e-10
8.2490469e-10
7.5809149e-10
6.9379973e-10
6.3212045e-10
5.7311879e-10
5.1683184e-10
4.632722e-10
4.124276e-10
3.642658e-10
3.1873435e-10
2.7576535e-10
2.3527295e-10
1.9715779e-10
1.6130822e-10
1.2761227e-10
9.5972321e-11
6.6302502e-11
3.8478488e-11
1.2360717e-11
3.3336435e-09
3.2235009e-09
3.1301646e-09
3.048627e-09
2.9749864e-09
2.9064091e-09
2.8406177e-09
2.7758939e-09
2.7110443e-09
2.6452798e-09
2.5780987e-09
2.5091924e-09
2.438389e-09
2.3656137e-09
2.2908713e-09
2.2142293e-09
2.1358116e-09
2.0557881e-09
1.9743701e-09
1.8918004e-09
1.8083492e-09
1.7243038e-09
1.6399668e-09
1.5556468e-09
1.4716543e-09
1.3882984e-09
1.3058789e-09
1.2246855e-09
1.1449914e-09
1.067051e-09
9.9109599e-10
9.1733364e-10
8.4594395e-10
7.7707807e-10
7.1085799e-10
6.4737612e-10
5.8669507e-10
5.2885039e-10
4.7384915e-10
4.2167559e-10
3.7228918e-10
3.2563302e-10
2.8163017e-10
2.4019042e-10
2.0120694e-10
1.6456311e-10
1.3014241e-10
9.7843479e-11
6.7567894e-11
3.9209436e-11
1.2588756e-11
3.4176343e-09
3.3028862e-09
3.2082741e-09
3.1258419e-09
3.0524385e-09
2.9846343e-09
2.9195969e-09
2.8552759e-09
2.7903206e-09
2.7239131e-09
2.6555854e-09
2.5850974e-09
2.5123513e-09
2.4373452e-09
2.360144e-09
2.2808675e-09
2.1996812e-09
2.1167906e-09
2.0324349e-09
1.9468823e-09
1.8604248e-09
1.77337e-09
1.6860374e-09
1.5987535e-09
1.5118451e-09
1.4256344e-09
1.340436e-09
1.256551e-09
1.1742638e-09
1.0938373e-09
1.015512e-09
9.3949963e-10
8.6598561e-10
7.9512229e-10
7.2703361e-10
6.6180971e-10
5.9951307e-10
5.4017334e-10
4.8379485e-10
4.3035411e-10
3.798064e-10
3.3208504e-10
2.8710814e-10
2.4477679e-10
2.0497912e-10
1.675929e-10
1.3249506e-10
9.957883e-11
6.8749415e-11
3.987328e-11
1.2801198e-11
3.5050816e-09
3.3868594e-09
3.2874607e-09
3.2036515e-09
3.1302448e-09
3.0630298e-09
2.9986088e-09
2.9345756e-09
2.8694104e-09
2.8022513e-09
2.732664e-09
2.6604758e-09
2.5856675e-09
2.5083098e-09
2.4285346e-09
2.3465139e-09
2.2624593e-09
2.1766106e-09
2.0892393e-09
2.0006384e-09
1.9111228e-09
1.8210196e-09
1.7306676e-09
1.6404092e-09
1.5505867e-09
1.4615364e-09
1.373585e-09
1.2870452e-09
1.2022103e-09
1.1193518e-09
1.0387154e-09
9.6051918e-10
8.8494908e-10
8.1216121e-10
7.4227636e-10
6.7538559e-10
6.1154535e-10
5.5078375e-10
4.9309745e-10
4.3845873e-10
3.8681406e-10
3.3809136e-10
2.9219962e-10
2.4903493e-10
2.0847803e-10
1.7040036e-10
1.346743e-10
1.0118668e-10
6.9832697e-11
4.0499109e-11
1.2994709e-11
3.4691621e-09
3.3680303e-09
3.2827024e-09
3.2089528e-09
3.1419428e-09
3.0777528e-09
3.0136515e-09
2.9479574e-09
2.8797731e-09
2.8086926e-09
2.7346079e-09
2.6575693e-09
2.5777207e-09
2.4952529e-09
2.4103926e-09
2.3233914e-09
2.2345265e-09
2.1440975e-09
2.0524243e-09
1.9598411e-09
1.8666965e-09
1.7733462e-09
1.6801482e-09
1.5874583e-09
1.495626e-09
1.4049899e-09
1.3158708e-09
1.2285715e-09
1.1433685e-09
1.0605139e-09
9.8022695e-10
9.0269745e-10
8.2807847e-10
7.5649272e-10
6.8802473e-10
6.2273083e-10
5.6063093e-10
5.0171878e-10
4.459575e-10
3.9328935e-10
3.4363266e-10
2.9689165e-10
2.5295376e-10
2.1169451e-10
1.7297969e-10
1.3667381e-10
1.02659e-10
7.083266e-11
4.1056715e-11
1.3173589e-11
3.5566374e-09
3.4504906e-09
3.3631075e-09
3.2885137e-09
3.2212096e-09
3.1567812e-09
3.0921917e-09
3.0256127e-09
2.956103e-09
2.8832831e-09
2.8070981e-09
2.7276684e-09
2.6451993e-09
2.5599404e-09
2.4721634e-09
2.3821626e-09
2.2902468e-09
2.1967447e-09
2.1019984e-09
2.0063651e-09
1.9102105e-09
1.8139066e-09
1.7178257e-09
1.6223373e-09
1.5278014e-09
1.434566e-09
1.3429613e-09
1.2532947e-09
1.16585e-09
1.0808801e-09
9.9860841e-10
9.1922199e-10
8.4287618e-10
7.6968747e-10
6.9974058e-10
6.3308353e-10
5.6973419e-10
5.0967725e-10
4.5287224e-10
3.9925185e-10
3.4873024e-10
3.0120204e-10
2.5655061e-10
2.1464426e-10
1.7534264e-10
1.3850552e-10
1.0400755e-10
7.1737785e-11
4.1580404e-11
1.3333965e-11
3.6450685e-09
3.535185e-09
3.4452788e-09
3.3691773e-09
3.3008639e-09
3.2355068e-09
3.1698214e-09
3.1018452e-09
3.0306033e-09
2.9557258e-09
2.8772049e-09
2.7952088e-09
2.7099983e-09
2.6218659e-09
2.531129e-09
2.4381114e-09
2.3431543e-09
2.2466078e-09
2.1488377e-09
2.0502183e-09
1.9511319e-09
1.8519651e-09
1.7531032e-09
1.6549261e-09
1.5578034e-09
1.4620919e-09
1.3681266e-09
1.2762222e-09
1.1866629e-09
1.0997064e-09
1.0155735e-09
9.3445366e-10
8.5649639e-10
7.8181885e-10
7.1049769e-10
6.4257978e-10
5.7807332e-10
5.1696085e-10
4.5919179e-10
4.0469613e-10
3.5337797e-10
3.0512877e-10
2.5982272e-10
2.1732488e-10
1.7748845e-10
1.4016613e-10
1.0522765e-10
7.2564564e-11
4.2037167e-11
1.3481159e-11
3.7363969e-09
3.6223471e-09
3.5292971e-09
3.4509256e-09
3.3807893e-09
3.3137739e-09
3.2463702e-09
3.1764976e-09
3.103128e-09
3.0258957e-09
2.9448173e-09
2.8601035e-09
2.7720487e-09
2.6809873e-09
2.5872626e-09
2.4912308e-09
2.3932536e-09
2.2937058e-09
2.1929694e-09
2.091437e-09
1.9895047e-09
1.8875725e-09
1.7860361e-09
1.6852843e-09
1.5856961e-09
1.487632e-09
1.3914347e-09
1.2974196e-09
1.2058754e-09
1.1170573e-09
1.0311888e-09
9.4845355e-10
8.6900214e-10
7.9294326e-10
7.2035384e-10
6.5127016e-10
5.8569968e-10
5.2361381e-10
4.6496096e-10
4.0965992e-10
3.576133e-10
3.0870212e-10
2.6279881e-10
2.1976045e-10
1.7943617e-10
1.416734e-10
1.0633474e-10
7.330459e-11
4.2465953e-11
1.3610631e-11
3.8301043e-09
3.71108e-09
3.6144336e-09
3.5330782e-09
3.4603323e-09
3.3909007e-09
3.3211297e-09
3.2488308e-09
3.1729311e-09
3.0930504e-09
3.0092179e-09
2.9216556e-09
2.8306921e-09
2.7366772e-09
2.6399835e-09
2.5409818e-09
2.4400582e-09
2.3375991e-09
2.2340052e-09
2.1296799e-09
2.0250338e-09
1.9204754e-09
1.8164098e-09
1.7132339e-09
1.6113315e-09
1.5110696e-09
1.4127911e-09
1.3168167e-09
1.2234323e-09
1.1328964e-09
1.0454257e-09
9.6120685e-10
8.8038089e-10
8.0305857e-10
7.2930521e-10
6.5915837e-10
5.9261327e-10
5.2964188e-10
4.7018047e-10
4.1414832e-10
3.6143634e-10
3.1192601e-10
2.654789e-10
2.2195125e-10
1.8118587e-10
1.4302446e-10
1.073251e-10
7.3973934e-11
4.2830831e-11
1.3729051e-11
3.9240056e-09
3.8014052e-09
3.7006745e-09
3.615544e-09
3.5394193e-09
3.46687e-09
3.3941339e-09
3.3189366e-09
3.2401507e-09
3.1573673e-09
3.0706059e-09
2.9801007e-09
2.8861787e-09
2.7892092e-09
2.6895689e-09
2.5876492e-09
2.4838435e-09
2.3785578e-09
2.2722006e-09
2.1651915e-09
2.0579484e-09
1.95089e-09
1.8444279e-09
1.7389647e-09
1.6348884e-09
1.5325679e-09
1.4323502e-09
1.334553e-09
1.2394657e-09
1.1473404e-09
1.058397e-09
9.7281184e-10
8.9072882e-10
8.1224695e-10
7.3743358e-10
6.6631312e-10
5.9888312e-10
5.351021e-10
4.7490824e-10
4.18208e-10
3.6489421e-10
3.1483693e-10
2.6789825e-10
2.2392614e-10
1.8276147e-10
1.4424082e-10
1.08216e-10
7.456576e-11
4.3174693e-11
1.3830947e-11
4.0194838e-09
3.891299e-09
3.7861595e-09
3.6967993e-09
3.61673e-09
3.5405091e-09
3.4643379e-09
3.3858681e-09
3.3039239e-09
3.2180548e-09
3.1282678e-09
3.034773e-09
2.9379053e-09
2.8380232e-09
2.7355158e-09
2.6307757e-09
2.5242113e-09
2.4162321e-09
2.3072613e-09
2.1977238e-09
2.0880465e-09
1.9786545e-09
1.8699634e-09
1.7623812e-09
1.656296e-09
1.5520816e-09
1.450081e-09
1.3506167e-09
1.2539707e-09
1.1603988e-09
1.0701107e-09
9.8328694e-10
9.0005849e-10
8.2052854e-10
7.4474996e-10
6.7275187e-10
6.0451644e-10
5.4000668e-10
4.791465e-10
4.2184645e-10
3.6798585e-10
3.1743831e-10
2.7005448e-10
2.2568412e-10
1.8416075e-10
1.4531825e-10
1.0900278e-10
7.5095882e-11
4.3458502e-11
1.3923706e-11
4.1118509e-09
3.98086e-09
3.8710113e-09
3.7769871e-09
3.6924487e-09
3.6120778e-09
3.5320622e-09
3.4500063e-09
3.3646816e-09
3.2755873e-09
3.1826946e-09
3.0861989e-09
2.9863988e-09
2.8836568e-09
2.7783488e-09
2.6708754e-09
2.5616423e-09
2.4510756e-09
2.3396019e-09
2.2276582e-09
2.1156752e-09
2.0040845e-09
1.8933034e-09
1.7837421e-09
1.6757903e-09
1.5698198e-09
1.4661764e-09
1.3651757e-09
1.2671036e-09
1.1722055e-09
1.0806951e-09
9.9274045e-10
9.0847636e-10
8.2799142e-10
7.5134399e-10
6.7854727e-10
6.0958864e-10
5.4441613e-10
4.8295892e-10
4.2511312e-10
3.7076335e-10
3.1977e-10
2.7198788e-10
2.2725677e-10
1.8541147e-10
1.4628022e-10
1.0970439e-10
7.5557967e-11
4.3728122e-11
1.4001487e-11
4.2041286e-09
4.0672405e-09
3.9528133e-09
3.8540253e-09
3.7648271e-09
3.6800857e-09
3.5960467e-09
3.5102727e-09
3.4214839e-09
3.3291295e-09
3.2331604e-09
3.1337111e-09
3.0310753e-09
2.9255797e-09
2.8175981e-09
2.7075278e-09
2.5957823e-09
2.482787e-09
2.3689807e-09
2.2548031e-09
2.1406897e-09
2.0270749e-09
1.9143759e-09
1.8030053e-09
1.6933493e-09
1.5857829e-09
1.4806445e-09
1.3782549e-09
1.2788884e-09
1.1827962e-09
1.0901782e-09
1.001208e-09
9.1600552e-10
8.3466593e-10
7.5723073e-10
6.8372055e-10
6.1410603e-10
5.4834295e-10
4.8634401e-10
4.2801332e-10
3.7322005e-10
3.2183201e-10
2.7369031e-10
2.2863994e-10
1.8650666e-10
1.4711969e-10
1.1031378e-10
7.5967018e-11
4.3941446e-11
1.4071992e-11
4.2900769e-09
4.1511035e-09
4.0321619e-09
3.9284415e-09
3.8344234e-09
3.7451498e-09
3.6569425e-09
3.5673429e-09
3.4750458e-09
3.3794441e-09
3.280425e-09
3.178096e-09
3.0726871e-09
2.9645263e-09
2.8539649e-09
2.7414009e-09
2.6272436e-09
2.5119323e-09
2.3959059e-09
2.2796156e-09
2.1634961e-09
2.0479859e-09
1.9335009e-09
1.8204515e-09
1.7092238e-09
1.6001874e-09
1.4936826e-09
1.390021e-09
1.2894805e-09
1.1922998e-09
1.0986839e-09
1.0087918e-09
9.2274922e-10
8.4063472e-10
7.6249754e-10
6.8834122e-10
6.181442e-10
5.518458e-10
4.8936696e-10
4.305964e-10
3.7541141e-10
3.2366514e-10
2.7520568e-10
2.2986656e-10
1.8747793e-10
1.4786166e-10
1.108518e-10
7.6316537e-11
4.4146133e-11
1.4128735e-11
4.3739236e-09
4.2297187e-09
4.1064782e-09
3.9980752e-09
3.8993956e-09
3.8057041e-09
3.7134377e-09
3.6201302e-09
3.5244291e-09
3.4256597e-09
3.3237266e-09
3.2186483e-09
3.1106278e-09
2.9999587e-09
2.8869791e-09
2.772084e-09
2.6556854e-09
2.5382273e-09
2.4201579e-09
2.3019309e-09
2.1839804e-09
2.0667462e-09
1.9506388e-09
1.8360712e-09
1.7234211e-09
1.6130613e-09
1.505322e-09
1.4005196e-09
1.2989193e-09
1.2007661e-09
1.1062492e-09
1.0155356e-09
9.287336e-10
8.4593075e-10
7.6715812e-10
6.9242903e-10
6.2170419e-10
5.5493299e-10
4.9201944e-10
4.328627e-10
3.7732341e-10
3.2526455e-10
2.7651912e-10
2.3092858e-10
1.8831231e-10
1.4849683e-10
1.113079e-10
7.6620778e-11
4.4298661e-11
1.4179973e-11
4.4497687e-09
4.3041705e-09
4.1768086e-09
4.0639047e-09
3.9606909e-09
3.8627044e-09
3.7664905e-09
3.669568e-09
3.5705816e-09
3.4688204e-09
3.3640934e-09
3.2563776e-09
3.1458273e-09
3.0327436e-09