/*--------------------------------*- C++ -*----------------------------------*\
| =========                 |                                                 |
| \\      /  F ield         | OpenFOAM: The Open Source CFD Toolbox           |
|  \\    /   O peration     | Version:  2312                                  |
|   \\  /    A nd           | Website:  www.openfoam.com                      |
|    \\/     M anipulation  |                                                 |
\*---------------------------------------------------------------------------*/
FoamFile
{
    version     2.0;
    format      ascii;
    arch        "LSB;label=32;scalar=64";
    class       volScalarField;
    location    "0.01";
    object      nut;
}
// * * * * * * * * * * * * * * * * * * * * * * * * * * * * * * * * * * * * * //

dimensions      [0 2 -1 0 0 0 0];

internalField   nonuniform List<scalar> 
3257
(
0.02550119
0.025481782
0.025460593
0.025437673
0.025413082
0.025386888
0.02535917
0.025330013
0.025299508
0.025267752
0.025234845
0.025200892
0.025166001
0.025130302
0.025093919
0.025056982
0.025019628
0.02498201
0.024944296
0.024906676
0.024869366
0.024832614
0.024796704
0.024761963
0.024728765
0.024697537
0.024668764
0.024642989
0.024620822
0.024602937
0.024590072
0.024583031
0.024582683
0.024589953
0.024605823
0.024631322
0.024667523
0.024715531
0.024776476
0.024851506
0.024941773
0.025048426
0.025172601
0.025315408
0.025477927
0.025661194
0.025866194
0.026093851
0.026345028
0.026620514
0.026921026
0.025531669
0.02551324
0.025493066
0.025471191
0.025447669
0.025422563
0.025395943
0.025367886
0.025338476
0.0253078
0.025275948
0.025243016
0.025209116
0.025174355
0.025138847
0.025102711
0.025066076
0.025029087
0.024991904
0.024954711
0.02491772
0.024881174
0.024845357
0.024810594
0.024777264
0.024745795
0.024716679
0.024690466
0.024667776
0.024649291
0.024635761
0.024628004
0.024626899
0.024633382
0.024648448
0.024673134
0.024708521
0.024755719
0.024815862
0.024890097
0.024979572
0.025085429
0.025208793
0.02535076
0.025512391
0.025694699
0.025898642
0.026125114
0.026374938
0.026648854
0.026947512
0.025573407
0.025556955
0.02553883
0.025519071
0.025497719
0.025474825
0.025450447
0.025424646
0.025397491
0.025369053
0.025339406
0.025308642
0.025276843
0.025244096
0.025210496
0.025176144
0.025141153
0.025105652
0.025069789
0.025033735
0.024997695
0.024961904
0.024926643
0.024892238
0.02485907
0.024827575
0.024798252
0.024771667
0.024748452
0.024729308
0.024715005
0.024706377
0.024704325
0.024709804
0.024723824
0.024747438
0.024781738
0.024827841
0.024886883
0.024960007
0.025048354
0.02515305
0.025275198
0.025415868
0.025576086
0.025756824
0.025958995
0.02618344
0.026430921
0.026702115
0.026997603
0.02563162
0.025617888
0.025602584
0.025585728
0.02556735
0.025547482
0.025526161
0.025503431
0.025479335
0.025453933
0.02542728
0.025399431
0.025370444
0.02534038
0.025309309
0.025277309
0.025244471
0.025210904
0.025176739
0.025142134
0.025107281
0.025072412
0.025037803
0.025003783
0.02497074
0.02493912
0.02490944
0.024882282
0.024858304
0.02483823
0.024822857
0.024813048
0.024809729
0.02481388
0.024826534
0.024848763
0.024881673
0.024926388
0.024984047
0.025055786
0.025142734
0.025245994
0.025366639
0.025505703
0.025664163
0.02584294
0.026042886
0.026264774
0.026509296
0.026777053
0.027068552
0.025703635
0.025693214
0.025681332
0.025667995
0.02565321
0.025636989
0.025619344
0.02560029
0.025579862
0.025558083
0.025534976
0.025510564
0.025484874
0.025457936
0.025429791
0.02540049
0.025370099
0.025338704
0.025306417
0.025273382
0.025239782
0.025205842
0.025171842
0.025138115
0.02510506
0.025073141
0.025042896
0.025014935
0.024989948
0.024968692
0.024951996
0.024940753
0.024935922
0.024938517
0.024949594
0.02497025
0.025001603
0.02504479
0.025100947
0.025171205
0.025256672
0.025358426
0.025477505
0.025614893
0.025771518
0.025948236
0.026145832
0.026365006
0.026606371
0.026870451
0.027157669
0.025787407
0.025780698
0.025772643
0.025763227
0.025752435
0.025740254
0.025726677
0.025711712
0.025695341
0.025677551
0.025658328
0.025637659
0.025615532
0.025591945
0.025566908
0.025540441
0.025512584
0.0254834
0.025452983
0.025421465
0.02538902
0.025355875
0.025322311
0.025288675
0.025255383
0.025222923
0.025191865
0.025162845
0.02513662
0.02511394
0.025095681
0.02508278
0.025076239
0.025077112
0.02508648
0.025105473
0.02513522
0.025176867
0.02523155
0.025300388
0.025384469
0.025484837
0.02560249
0.02573836
0.025893317
0.026068152
0.026263577
0.026480216
0.026718605
0.026979185
0.027262302
0.025880835
0.025878115
0.025874161
0.025868933
0.025862388
0.025854491
0.025845212
0.025834509
0.025822335
0.025808641
0.025793379
0.025776501
0.025757968
0.02573774
0.025715786
0.025692091
0.02566666
0.025639543
0.025610815
0.0255806
0.025549069
0.02551645
0.025483039
0.025449199
0.025415369
0.025382063
0.025349889
0.025319531
0.025291727
0.025267357
0.025247326
0.025232619
0.025224269
0.025223371
0.025231048
0.025248445
0.025276693
0.02531695
0.025370351
0.025437997
0.025520954
0.025620233
0.025736786
0.025871495
0.026025167
0.026198527
0.026392214
0.026606777
0.026842675
0.02710027
0.027379833
0.025981546
0.025982958
0.025983236
0.025982314
0.025980123
0.025976608
0.025971693
0.025965297
0.025957338
0.025947727
0.025936379
0.025923206
0.025908128
0.025891073
0.025871981
0.025850815
0.025827566
0.025802248
0.025774917
0.025745692
0.025714747
0.025682321
0.025648725
0.025614348
0.025579644
0.025545203
0.025511653
0.02547972
0.025450215
0.025424034
0.025402141
0.025385567
0.025375396
0.025372754
0.025378793
0.025394707
0.025421646
0.025460734
0.02551312
0.02557989
0.02566208
0.025760668
0.025876556
0.026010574
0.026163467
0.026335894
0.026528423
0.02674153
0.026975599
0.027230919
0.027507689
0.026087194
0.026092761
0.026097281
0.026100657
0.026102805
0.026103624
0.026103001
0.026100818
0.026096951
0.026091273
0.026083657
0.026073978
0.026062118
0.02604797
0.026031446
0.026012482
0.025991045
0.025967142
0.025940832
0.025912223
0.02588149
0.025848889
0.025814757
0.025779486
0.025743637
0.025707783
0.025672614
0.025638909
0.025607535
0.025579441
0.025555641
0.025537217
0.025525296
0.02552104
0.025525634
0.025540268
0.025566191
0.025604442
0.025656182
0.025722485
0.025804358
0.025902739
0.026018485
0.02615237
0.02630508
0.026477209
0.026669257
0.026881632
0.027114646
0.027368521
0.027643389
0.026195509
0.026205153
0.026213818
0.026221385
0.026227738
0.026232733
0.026236221
0.026238042
0.026238033
0.026236028
0.02623186
0.026225366
0.026216393
0.026204802
0.026190476
0.02617333
0.026153315
0.026130429
0.026104727
0.02607633
0.026045428
0.026012294
0.025977263
0.025940848
0.025903573
0.025866082
0.025829119
0.025793517
0.025760201
0.025730172
0.025704501
0.025684317
0.02567079
0.025665121
0.025668522
0.025682201
0.025707387
0.025745232
0.025796749
0.025863045
0.025945096
0.026043797
0.026159961
0.026294308
0.026447465
0.026619963
0.026812239
0.027024636
0.027257401
0.027510694
0.027784587
0.026304185
0.026317755
0.026330393
0.026341965
0.026352309
0.026361244
0.026368582
0.026374126
0.026377673
0.026379016
0.026377951
0.026374279
0.026367814
0.026358389
0.026345864
0.026330133
0.026311139
0.026288874
0.026263398
0.026234843
0.026203421
0.026169405
0.026133244
0.02609542
0.026056519
0.026017241
0.025978383
0.025940838
0.025905586
0.025873685
0.025846257
0.02582448
0.025809567
0.02580275
0.025805268
0.025818346
0.025843182
0.02588104
0.025932791
0.025999563
0.026082299
0.026181855
0.026298997
0.026434392
0.026588612
0.026762128
0.02695532
0.027168467
0.02740176
0.027655301
0.027929108
0.026411072
0.026428361
0.026444755
0.026460088
0.026474157
0.026486746
0.02649763
0.026506572
0.026513331
0.026517663
0.026519329
0.026518095
0.026513747
0.026506093
0.026494972
0.026480268
0.026461914
0.026439906
0.026414312
0.026385281
0.026353023
0.026317914
0.026280394
0.026240986
0.026200337
0.026159199
0.026118427
0.02607897
0.026041867
0.026008229
0.02597923
0.025956092
0.025940067
0.025932418
0.025934404
0.025947262
0.025972186
0.02601044
0.026062897
0.026130612
0.02621452
0.02631544
0.026434089
0.026571084
0.026726941
0.026902079
0.027096817
0.027311382
0.027545912
0.027800458
0.028074989
0.026514244
0.026535014
0.026554912
0.02657373
0.026591232
0.026607165
0.026621267
0.026633266
0.026642884
0.026649841
0.026653865
0.026654694
0.026652086
0.026645828
0.026635747
0.026621715
0.026603666
0.026581602
0.026555604
0.026525822
0.026492536
0.026456156
0.026417131
0.026376048
0.026333607
0.026290615
0.026247983
0.026206719
0.026167916
0.026132739
0.02610241
0.026078191
0.02606137
0.026053232
0.026055052
0.026068071
0.026093491
0.026132552
0.026186178
0.0262553
0.026340853
0.026443612
0.026564249
0.026703333
0.02686133
0.027038607
0.027235432
0.027451985
0.027688356
0.027944551
0.028220499
0.026612052
0.026636052
0.026659186
0.026681206
0.02670184
0.026720804
0.026737799
0.026752519
0.026764651
0.026773885
0.026779917
0.02678246
0.02678125
0.026776057
0.026766695
0.026753036
0.026735014
0.026712643
0.026686017
0.026655293
0.026620864
0.026583093
0.026542502
0.026499729
0.026455526
0.026410756
0.026366386
0.026323481
0.026283185
0.026246714
0.026215334
0.026190342
0.026173047
0.026164769
0.026166799
0.026180389
0.026206722
0.026247008
0.026302196
0.026373121
0.026460715
0.026565713
0.026688743
0.026830327
0.026990885
0.027170736
0.027370102
0.027589118
0.027827832
0.028086211
0.028364147
0.026703161
0.026730144
0.026756247
0.026781188
0.026804664
0.026826358
0.026845938
0.026863064
0.026877395
0.026888588
0.026896315
0.026900265
0.026900157
0.026895747
0.026886845
0.026873318
0.026855112
0.026832251
0.026804819
0.026773096
0.026737424
0.02669823
0.026656085
0.026611674
0.026565803
0.02651939
0.026473458
0.026429123
0.026387581
0.026350088
0.026317947
0.0262925
0.026275092
0.026267048
0.02626966
0.026284174
0.02631177
0.026353639
0.026410732
0.026483809
0.026573787
0.026681362
0.02680712
0.026951541
0.027114998
0.027297767
0.027500031
0.027721881
0.02796333
0.028224313
0.028504687
0.02678657
0.026816296
0.026845116
0.026872716
0.026898763
0.026922909
0.026944793
0.026964044
0.026980292
0.026993169
0.027002323
0.027007424
0.027008175
0.027004326
0.02699568
0.026982111
0.026963572
0.026940092
0.026911795
0.026879024
0.026842099
0.026801514
0.026757883
0.026711942
0.026664549
0.026616675
0.026569394
0.026523869
0.026481342
0.02644312
0.026410549
0.026384986
0.02636779
0.0263603
0.026363817
0.026379582
0.026408761
0.026452531
0.026511821
0.026587338
0.026679978
0.026790398
0.026919145
0.027066657
0.027233267
0.027419211
0.027624634
0.027849592
0.028094066
0.028357961
0.028641107
0.026861601
0.026893849
0.026925154
0.026955174
0.026983549
0.027009902
0.027033843
0.027054975
0.027072901
0.027087231
0.027097593
0.027103639
0.027105063
0.027101606
0.027093075
0.027079347
0.027060389
0.027036217
0.027007072
0.026973244
0.026935116
0.026893225
0.026848226
0.026800908
0.026752175
0.026703049
0.026654652
0.026608202
0.026564986
0.026526339
0.026493632
0.026468251
0.026451571
0.02644494
0.026449658
0.026466958
0.026497993
0.026543932
0.02660565
0.026683834
0.026779348
0.026892812
0.027024735
0.027175518
0.027345456
0.027534749
0.027743507
0.027971758
0.028219452
0.028486468
0.028772614
0.026927882
0.02696245
0.026996032
0.027028262
0.027058752
0.0270871
0.027112889
0.027135698
0.027155107
0.027170705
0.027182101
0.027188938
0.027190899
0.027187723
0.027179217
0.027165269
0.02714585
0.027120999
0.027091032
0.027056207
0.027016968
0.026973893
0.026927681
0.026879164
0.026829298
0.026779154
0.026729903
0.026682799
0.026639164
0.026600368
0.026567811
0.026542895
0.026527009
0.026521505
0.026527679
0.026546754
0.026579867
0.026628185
0.026692508
0.026773526
0.026872062
0.026988705
0.027123925
0.027278089
0.027451458
0.027644201
0.027856397
0.028088044
0.02833907
0.028609333
0.028898617
0.02698531
0.02702202
0.027057699
0.027091956
0.02712438
0.027154544
0.027182008
0.027206329
0.027227065
0.027243788
0.027256093
0.027263611
0.02726602
0.027263057
0.027254536
0.027240353
0.027220465
0.027195014
0.027164273
0.02712855
0.027088327
0.027044221
0.026996971
0.026947459
0.026896686
0.026845764
0.026795905
0.026748402
0.026704611
0.026665932
0.026633785
0.026609589
0.02659474
0.026590591
0.026598433
0.026619476
0.026654838
0.026705693
0.026772743
0.026856705
0.026958357
0.027078252
0.027216832
0.027374428
0.027551272
0.027747502
0.027963171
0.028198254
0.028452656
0.028726216
0.029018702
0.02703401
0.027072707
0.027110328
0.027146458
0.027180665
0.027212499
0.027241499
0.027267201
0.027289146
0.027306889
0.027320015
0.027328145
0.027330953
0.027328177
0.027319636
0.027305239
0.027284931
0.027258957
0.02722754
0.027191043
0.027149985
0.027105016
0.027056922
0.027006624
0.026955164
0.026903696
0.026853471
0.026805814
0.026762113
0.026723791
0.026692286
0.02666903
0.026655422
0.026652816
0.026662493
0.02668565
0.026723387
0.026776886
0.026846736
0.026933703
0.027038512
0.027161686
0.027303636
0.027464663
0.027644973
0.027844676
0.028063802
0.028302303
0.028560069
0.028836918
0.029132606
0.027074294
0.027114846
0.027154277
0.027192152
0.027228018
0.027261404
0.02729183
0.027318814
0.027341881
0.027360574
0.027374465
0.027383169
0.027386359
0.027383775
0.027375242
0.027360673
0.027340035
0.027313627
0.027281652
0.027244523
0.027202791
0.027157139
0.027108394
0.027057516
0.027005587
0.026953797
0.026903431
0.026855846
0.026812455
0.026774701
0.026744039
0.026721906
0.026709708
0.026708791
0.026720428
0.026745803
0.026785995
0.026842202
0.026914883
0.027004871
0.027112836
0.027239271
0.027384559
0.027548975
0.027732699
0.027935819
0.028158341
0.028400202
0.028661272
0.028941359
0.029240201
0.027106617
0.027148911
0.027190042
0.027229555
0.027266978
0.027301823
0.027333591
0.027361785
0.027385914
0.02740551
0.027420138
0.027429407
0.027432987
0.027430624
0.027422149
0.027407466
0.027386612
0.027359868
0.027327469
0.027289856
0.027247613
0.027201457
0.027152252
0.027100995
0.027048802
0.026996898
0.026946598
0.026899286
0.026856398
0.026819394
0.02678974
0.026768881
0.026758221
0.026759102
0.026772788
0.026800444
0.026843133
0.026902069
0.026977577
0.027070566
0.027181649
0.027311292
0.027459852
0.027627581
0.027814635
0.028021081
0.028246908
0.028492034
0.028756317
0.029039551
0.029341465
0.027131541
0.027175478
0.027218216
0.027259279
0.027298179
0.027334408
0.027367455
0.027396805
0.027421958
0.027442434
0.027457789
0.02746763
0.027471628
0.027469531
0.02746118
0.027446467
0.027425505
0.027398541
0.02736585
0.027327904
0.027285311
0.027238824
0.027189342
0.027137892
0.027085625
0.027033795
0.026983744
0.026936881
0.026894659
0.026858555
0.026830044
0.026810574
0.026801549
0.026804303
0.026820088
0.026850057
0.026895256
0.026956896
0.027035203
0.027131143
0.027245276
0.027378046
0.027529785
0.027700725
0.027890999
0.028100657
0.02832967
0.028577943
0.028845321
0.029131589
0.029436462
0.027149726
0.027195229
0.027239491
0.027282026
0.02732233
0.027359883
0.027394157
0.027424626
0.027450777
0.027472122
0.027488211
0.027498647
0.0275031
0.027501323
0.027493162
0.027478507
0.027457538
0.027430473
0.027397627
0.027359494
0.027316708
0.027270055
0.027220464
0.027168994
0.027116823
0.027065232
0.027015589
0.026969323
0.026927904
0.026892822
0.026865556
0.02684756
0.026840232
0.026844902
0.026862808
0.026895089
0.0269428
0.027007062
0.027088132
0.027186946
0.027304039
0.027439833
0.027594639
0.027768667
0.027962033
0.02817477
0.028406835
0.028658119
0.028928457
0.029217625
0.029525327
0.027161752
0.027208749
0.027254477
0.027298432
0.027340095
0.027378931
0.027414401
0.027445966
0.027473103
0.027495318
0.027512154
0.027523214
0.027528167
0.027526772
0.027518883
0.027504383
0.027483513
0.027456468
0.027423596
0.027385413
0.02734258
0.027295912
0.027246366
0.027195027
0.027143102
0.027091894
0.027042793
0.026997247
0.026956741
0.026922772
0.026896828
0.026880361
0.026874768
0.026881368
0.02690139
0.026935957
0.026986147
0.027052954
0.027136712
0.027238307
0.027358254
0.027496953
0.027654698
0.027831678
0.028027996
0.028243667
0.028478637
0.028732785
0.029005936
0.029297859
0.02960825
0.027168342
0.02721677
0.027263902
0.02730922
0.027352193
0.027392274
0.027428912
0.027461557
0.027489678
0.027512771
0.027530379
0.027542099
0.027547604
0.027546654
0.027539113
0.027524861
0.027504189
0.027477275
0.027444498
0.027406391
0.027363644
0.027317097
0.027267732
0.027216659
0.027165107
0.027114403
0.027065955
0.027021227
0.026981716
0.026948929
0.026924356
0.02690945
0.026905603
0.026914126
0.026936238
0.026973046
0.027025655
0.027094922
0.027181275
0.027285543
0.027408223
0.027549699
0.027710244
0.027890034
0.028089154
0.028307608
0.028545329
0.028802187
0.029077999
0.029372526
0.029685457
0.027170165
0.027219965
0.027268449
0.027315084
0.027359328
0.027400623
0.027438406
0.027472119
0.027501222
0.027525207
0.027543609
0.027556025
0.02756213
0.027561687
0.027554567
0.027540649
0.027520267
0.027493587
0.027461013
0.027423097
0.027380555
0.027334249
0.027285182
0.027234489
0.027183418
0.027133318
0.027085611
0.027041777
0.027003322
0.02697176
0.026948586
0.026935251
0.026933141
0.026943561
0.026967718
0.027006705
0.027061657
0.027133289
0.02722213
0.027328953
0.02745424
0.027598355
0.027761557
0.027944007
0.028145777
0.028366859
0.028607175
0.028866587
0.029144905
0.029441883
0.029757202
0.027167865
0.027218985
0.027268772
0.027316683
0.027362162
0.027404643
0.027443553
0.027478324
0.02750841
0.027533296
0.027552515
0.027565663
0.027572413
0.027572534
0.027565902
0.027552398
0.027532388
0.027506035
0.027473759
0.027436138
0.027393905
0.027347942
0.027299274
0.027249056
0.027198555
0.027149136
0.027102238
0.027059352
0.027021993
0.026991682
0.026969915
0.026958141
0.026957743
0.026970017
0.02699616
0.027037254
0.027094459
0.027168352
0.027259568
0.027368823
0.027496582
0.027643196
0.02780891
0.02799387
0.028198136
0.02842169
0.028664446
0.028926256
0.029206924
0.0295062
0.029823758
0.027162057
0.027214444
0.027265489
0.027314635
0.027361317
0.027404958
0.027444975
0.027480796
0.027511865
0.027537664
0.02755772
0.02757163
0.027579066
0.027579802
0.027573717
0.0275607
0.027541133
0.027515187
0.027483296
0.027446057
0.027404221
0.027358688
0.027310503
0.027260837
0.027210976
0.027162298
0.027116258
0.027074356
0.027038116
0.027009063
0.026988694
0.026978458
0.026979732
0.026993805
0.027021865
0.02706498
0.027124341
0.027200387
0.027293858
0.027405417
0.027535515
0.027684487
0.027852565
0.028039884
0.028246495
0.028472368
0.028717409
0.028981465
0.029264332
0.029565757
0.029885407
0.027153305
0.027206915
0.027259175
0.027309518
0.027357369
0.027402143
0.027443251
0.02748011
0.027512162
0.02753888
0.027559791
0.027574488
0.027582647
0.027584041
0.027578556
0.027566084
0.027547025
0.027521554
0.027490121
0.027453338
0.027411972
0.027366942
0.027319306
0.027270253
0.027221084
0.027173192
0.027128041
0.027087143
0.027052028
0.027024226
0.027005233
0.026996498
0.026999394
0.027015202
0.0270451
0.027090147
0.027151559
0.027229647
0.027325253
0.027438987
0.027571287
0.027722476
0.027892774
0.028082307
0.028291113
0.028519156
0.028766333
0.029032485
0.029317405
0.029620834
0.029942433
0.027196923
0.027250355
0.027301858
0.027350846
0.027396727
0.027438905
0.027476791
0.027509819
0.027537461
0.027559239
0.027574744
0.027583654
0.027585742
0.027580902
0.027569026
0.027550527
0.027525588
0.027494672
0.027458407
0.027417571
0.0273731
0.027326065
0.027277671
0.027229232
0.027182154
0.027137911
0.027098023
0.027064027
0.027037455
0.027019807
0.027012527
0.027016985
0.027034456
0.027066109
0.027112993
0.027176346
0.027256364
0.027353983
0.027469764
0.027604133
0.027757401
0.027929779
0.028121381
0.028332239
0.028562307
0.028811477
0.029079583
0.029366414
0.029671708
0.02999512
0.02718496
0.027239514
0.027292136
0.027342226
0.027389185
0.02743241
0.027471308
0.027505306
0.027533871
0.027556523
0.027572852
0.027582533
0.027585345
0.027581183
0.027569944
0.027552048
0.027527687
0.027497338
0.027461638
0.02742138
0.02737751
0.027331116
0.027283414
0.027235729
0.02718948
0.02714615
0.027107266
0.027074372
0.027049002
0.027032656
0.027026777
0.027032731
0.027051787
0.027085108
0.027133741
0.027198904
0.027280756
0.027380266
0.027497967
0.027634273
0.027789487
0.027963808
0.028157342
0.028370112
0.028602066
0.028853091
0.029123015
0.029411623
0.02971865
0.030043744
0.027171443
0.027227078
0.027280778
0.027331935
0.027379943
0.027424192
0.027464083
0.027499039
0.027528522
0.02755205
0.027569211
0.02757968
0.027583236
0.027579778
0.027569209
0.027551946
0.0275282
0.027498456
0.027463358
0.027423712
0.027380476
0.027334749
0.027287758
0.027240841
0.027195425
0.027153003
0.027115108
0.027083289
0.027059083
0.02704399
0.027039453
0.027046832
0.027067394
0.02710229
0.027152591
0.027219431
0.027303017
0.027404299
0.027523796
0.027661914
0.027818943
0.027995076
0.028190409
0.028404959
0.028638669
0.028891417
0.029163029
0.029453286
0.02976192
0.030088574
0.027156756
0.027213429
0.027268167
0.027320354
0.027369379
0.027414625
0.027455488
0.027491386
0.027521779
0.02754618
0.027564175
0.02757544
0.027579754
0.027577017
0.027567142
0.027550534
0.027527431
0.027498317
0.027463848
0.027424839
0.027382258
0.027337213
0.027290944
0.027244798
0.02720021
0.027158682
0.027121752
0.027090975
0.027067889
0.027053996
0.027050736
0.027059469
0.027081452
0.027117834
0.027169709
0.027238111
0.027323326
0.027426265
0.02754744
0.027687246
0.027845968
0.028023786
0.028220793
0.028436997
0.028672336
0.028926684
0.029199862
0.029491646
0.02980177
0.030129869
0.027141235
0.027198904
0.027254638
0.027307818
0.027357825
0.027404039
0.02744585
0.027482672
0.02751396
0.027539225
0.027558052
0.027570114
0.027575192
0.027573188
0.027564022
0.027548084
0.027525641
0.027497176
0.027463353
0.027424995
0.027383079
0.027338725
0.027293179
0.027247797
0.027204025
0.027163369
0.027127375
0.0270976
0.027075586
0.027062836
0.027060788
0.027070798
0.027094121
0.027131898
0.02718525
0.027255112
0.027341848
0.027446333
0.027569071
0.02771045
0.027870744
0.028050129
0.02824869
0.028466429
0.028703279
0.028959109
0.029233737
0.029526937
0.029838439
0.030167873
0.027125175
0.027183795
0.027240484
0.027294617
0.027345571
0.027392722
0.027435453
0.027473177
0.027505342
0.027531459
0.027551109
0.027563965
0.027569807
0.027568539
0.027560088
0.027544828
0.027523055
0.027495249
0.027462081
0.02742438
0.027383133
0.027339467
0.027294637
0.027250008
0.027207032
0.027167221
0.027132128
0.027103312
0.027082319
0.027070651
0.027069747
0.02708096
0.02710554
0.027144625
0.027199359
0.02727058
0.027358734
0.027464658
0.027588851
0.02773169
0.027893444
0.028074283
0.028274284
0.028493445
0.028731694
0.028988896
0.029264866
0.029559375
0.029872151
0.03020282
0.027108832
0.027168357
0.027225958
0.027281004
0.027332869
0.027380922
0.027424545
0.027463143
0.027496165
0.027523116
0.027543576
0.027557216
0.027563817
0.027563282
0.027555547
0.027540966
0.027519866
0.027492721
0.027460208
0.027423164
0.027382582
0.027339597
0.02729547
0.027251576
0.02720937
0.027170373
0.027136142
0.027108239
0.027088213
0.027077567
0.027077739
0.02709008
0.027115837
0.027156142
0.027212164
0.02728465
0.027374122
0.027481384
0.027606926
0.027751119
0.027914227
0.028096412
0.028297747
0.028518225
0.028757768
0.029016239
0.029293449
0.029589166
0.02990312
0.030234929
0.027092424
0.027152809
0.027211278
0.027267196
0.027319932
0.027368853
0.027413335
0.02745278
0.027486633
0.027514397
0.02753565
0.02755006
0.027557409
0.027557599
0.027550574
0.027536667
0.027516236
0.027489748
0.027457885
0.027421491
0.027381564
0.027339246
0.027295806
0.027252622
0.027211158
0.02717294
0.027139529
0.027112492
0.027093379
0.027083693
0.027084873
0.027098268
0.027125122
0.027166564
0.027223784
0.027297444
0.02738814
0.027496642
0.027623434
0.027768881
0.027933242
0.028116672
0.02831924
0.028540934
0.028781673
0.029041316
0.02931967
0.029616504
0.029931545
0.030264405
0.027076134
0.027137334
0.027196628
0.027253376
0.027306944
0.027356695
0.027402002
0.027442263
0.02747692
0.027505473
0.027527496
0.027542659
0.02755074
0.027551642
0.027545317
0.027532074
0.027512302
0.027486461
0.027455239
0.027419483
0.027380196
0.027338526
0.02729575
0.02725325
0.027212497
0.027175021
0.027142387
0.027116166
0.027097909
0.027089123
0.027091245
0.027105622
0.027133497
0.027175995
0.027234327
0.027309074
0.027400903
0.027510552
0.0276385
0.027785107
0.027950625
0.028135205
0.028338912
0.028561728
0.028803571
0.029064295
0.029343706
0.029641569
0.029957612
0.030291441
0.027060118
0.027122088
0.027182162
0.027239698
0.027294058
0.027344602
0.027390698
0.027431742
0.027467172
0.027496486
0.027519256
0.027535149
0.027543943
0.027545539
0.027539899
0.027527305
0.027508178
0.027482972
0.027452375
0.027417239
0.027378574
0.027337531
0.027295393
0.027253548
0.027213471
0.027176698
0.027144796
0.027119342
0.027101888
0.027093941
0.027096939
0.027112229
0.027141051
0.027184527
0.027243888
0.02731964
0.027412516
0.027523224
0.02765224
0.027799917
0.027966503
0.028152144
0.028356901
0.028580752
0.028823612
0.029085332
0.029365716
0.029664528
0.029981494
0.030316216
0.027044504
0.027107198
0.02716801
0.027226291
0.027281402
0.027332698
0.027379547
0.027421339
0.027457511
0.027487556
0.027511045
0.027527644
0.027537127
0.027539397
0.027534423
0.02752246
0.027503961
0.02747937
0.027449379
0.027414844
0.027376778
0.027336339
0.02729481
0.027253588
0.027214152
0.027178041
0.027146829
0.027122091
0.027105385
0.02709822
0.027102031
0.027118166
0.027147865
0.027192245
0.027252556
0.027329235
0.027423076
0.027534762
0.027664761
0.027813424
0.027980993
0.028167612
0.028373335
0.028598139
0.028841935
0.029104572
0.029385852
0.029685536
0.030003353
0.030338897
0.027029394
0.027092769
0.027154274
0.027213258
0.027269079
0.027321089
0.027368652
0.027411156
0.027448035
0.02747878
0.02750296
0.027520236
0.027530384
0.027533304
0.027528973
0.02751762
0.027499727
0.027475731
0.027446325
0.027412368
0.027374876
0.027335012
0.027294064
0.027253432
0.0272146
0.027179112
0.027148543
0.027124474
0.027108464
0.027102022
0.027106586
0.027123503
0.02715401
0.027199223
0.02726041
0.027337941
0.027432671
0.027545256
0.02767616
0.02782573
0.027994204
0.028181721
0.028388333
0.028614014
0.02885867
0.02912215
0.029404253
0.02970474
0.030023338
0.030359639
0.027014872
0.027078884
0.027141039
0.027200684
0.027257174
0.027309858
0.027358096
0.027401276
0.027438827
0.027470239
0.027495077
0.027513002
0.027523787
0.027527329
0.027523617
0.02751285
0.02749554
0.027472115
0.027443269
0.027409864
0.027372921
0.027333603
0.027293206
0.02725313
0.027214866
0.027179959
0.02714999
0.027126542
0.027111177
0.027105404
0.027110663
0.027128299
0.02715955
0.027205529
0.027267521
0.027345836
0.027441382
0.027554792
0.027686527
0.02783693
0.028006235
0.028194577
0.028402005
0.02862849
0.028873936
0.02913819
0.029421049
0.029722272
0.030041589
0.030378584
0.027001
0.027065607
0.027128371
0.027188635
0.027245752
0.02729907
0.027347946
0.027391764
0.027429951
0.027461995
0.027487459
0.027506001
0.027517393
0.027521531
0.02751841
0.027508203
0.027491451
0.02746857
0.027440258
0.027407379
0.027370956
0.027332156
0.027292276
0.027252723
0.027214989
0.027180625
0.027151213
0.02712834
0.027113569
0.027108413
0.027114311
0.027132609
0.027164542
0.027211225
0.027273954
0.027352988
0.027449282
0.027563449
0.027695946
0.027847111
0.028017177
0.028206275
0.028414451
0.028641673
0.028887843
0.029152806
0.029436359
0.029738258
0.030058233
0.030395866
0.026987826
0.027052987
0.027116317
0.02717716
0.027234866
0.027288778
0.027338252
0.02738267
0.027421457
0.027454097
0.027480153
0.027499281
0.027511249
0.027515953
0.027513394
0.02750372
0.027487497
0.027465134
0.027437329
0.027404948
0.027369016
0.027330702
0.027291309
0.027252244
0.027215004
0.027181144
0.027152247
0.027129906
0.027115682
0.027111093
0.027117577
0.027136481
0.027169039
0.027216365
0.027279769
0.02735946
0.027456438
0.027571297
0.02770449
0.027856354
0.028027116
0.028216906
0.028425766
0.028653662
0.028900495
0.029166107
0.029450293
0.029752811
0.03007339
0.030411607
0.026975383
0.027041057
0.027104915
0.027166297
0.02722455
0.027279018
0.027329052
0.027374032
0.027413382
0.027446583
0.027473198
0.027492877
0.02750539
0.027510628
0.027508602
0.027499432
0.027483711
0.027461837
0.02743451
0.027402598
0.027367127
0.027329271
0.027290331
0.027251721
0.02721494
0.027181545
0.027153124
0.02713127
0.02711755
0.027113479
0.027120499
0.027139957
0.027173087
0.027221
0.027285017
0.02736531
0.027462912
0.027578402
0.027712231
0.027864732
0.028036129
0.02822655
0.028436035
0.028664547
0.028911984
0.029178189
0.029462955
0.029766038
0.03008717
0.030425922
0.026963693
0.027029842
0.027094188
0.027156069
0.027214832
0.027269817
0.027320372
0.027365877
0.027405753
0.02743948
0.027466618
0.027486816
0.02749984
0.027505582
0.027504058
0.027495363
0.027480113
0.0274587
0.027431823
0.027400351
0.027365312
0.027327881
0.027289364
0.027251176
0.027214819
0.027181852
0.027153869
0.027132462
0.027119201
0.027115605
0.027123114
0.027143076
0.027176726
0.027225177
0.027289744
0.027370591
0.02746876
0.027584824
0.027719232
0.027872312
0.028044289
0.028235284
0.028445338
0.028674411
0.0289224
0.029189145
0.029474439
0.029778037
0.030099673
0.030438914
0.026952766
0.027019351
0.027084149
0.027146492
0.027205727
0.027261191
0.02731223
0.027358222
0.027398588
0.027432805
0.027460431
0.027481115
0.027494618
0.027500832
0.027499778
0.027491529
0.027476721
0.027455738
0.027429281
0.02739822
0.027363583
0.027326548
0.027288423
0.027250624
0.027214658
0.027182086
0.027154502
0.027133504
0.027120663
0.027117497
0.027125451
0.027145871
0.027179994
0.027228935
0.027293997
0.027375348
0.027474032
0.027590618
0.027725551
0.027879158
0.02805166
0.028243178
0.028453748
0.028683331
0.028931821
0.029199057
0.029484831
0.029788898
0.030110994
0.03045068
0.026942605
0.02700959
0.027074803
0.027137571
0.027197242
0.027253148
0.027304635
0.027351078
0.027391897
0.027426569
0.02745465
0.027475785
0.027489734
0.027496388
0.027495772
0.027487941
0.027473544