/*--------------------------------*- C++ -*----------------------------------*\
| =========                 |                                                 |
| \\      /  F ield         | OpenFOAM: The Open Source CFD Toolbox           |
|  \\    /   O peration     | Version:  2312                                  |
|   \\  /    A nd           | Website:  www.openfoam.com                      |
|    \\/     M anipulation  |                                                 |
\*---------------------------------------------------------------------------*/
FoamFile
{
    version     2.0;
    format      ascii;
    arch        "LSB;label=32;scalar=64";
    class       volScalarField;
    location    "0.01";
    object      Qdot;
}
// * * * * * * * * * * * * * * * * * * * * * * * * * * * * * * * * * * * * * //

dimensions      [1 -1 -3 0 0 0 0];

internalField   nonuniform List<scalar> 
3257
(
1.4430223e-10
-3.7719922e-10
1.0553752e-10
-4.7679431e-10
-4.8398236e-10
8.2837467e-11
6.3174287e-12
7.7409435e-11
2.7029612e-12
7.5012578e-11
1.1225444e-12
7.3978236e-11
-4.979593e-10
7.3544605e-11
7.3437227e-11
-4.2503952e-10
-4.9834553e-10
3.7741963e-14
7.3286101e-11
1.2696092e-14
-4.9840183e-10
-4.2514109e-10
2.2162985e-15
1.2211711e-15
6.3326475e-16
-4.2514481e-10
7.3264143e-11
7.3264056e-11
4.3765962e-17
-4.9840909e-10
9.9515239e-18
-4.2514514e-10
-4.2514514e-10
7.326397e-11
-4.9840911e-10
-1.4807237e-20
-4.2514515e-10
7.3263969e-11
-4.2514515e-10
7.3263969e-11
1.84674e-20
-4.2514515e-10
-4.9840912e-10
7.3263969e-11
-4.2514515e-10
4.6564685e-21
-4.9120655e-25
1.8946888e-21
9.4737161e-22
1.4652794e-10
1.1842569e-22
-4.0948333e-10
6.0007528e-11
-4.5805416e-10
2.7012615e-11
-4.0713654e-10
-4.1320499e-10
7.8823139e-12
5.1637499e-12
-4.2178358e-10
7.5433966e-11
7.4654976e-11
7.4147423e-11
-4.2458998e-10
7.3609677e-11
-4.9819663e-10
-4.2501598e-10
7.3341465e-11
4.6113043e-14
7.3290821e-11
-4.9839373e-10
-4.2513641e-10
7.3268847e-11
-4.9840645e-10
1.4154827e-15
7.6084895e-16
7.3264356e-11
7.3264167e-11
-4.9840901e-10
-4.251451e-10
7.3263992e-11
-4.2514514e-10
6.0351265e-18
1.9591707e-18
7.326397e-11
-4.2514515e-10
3.7515884e-19
7.3263969e-11
7.1720293e-20
7.3263969e-11
-4.2514515e-10
7.3263969e-11
-4.9840912e-10
-4.2514515e-10
-9.8378327e-24
-4.2514515e-10
-4.2514515e-10
-4.9840912e-10
-3.5188118e-10
-4.9840912e-10
-4.9840912e-10
-3.5538828e-27
1.3476449e-10
9.0879174e-11
6.1027225e-11
4.0827178e-11
1.0043426e-10
1.7994557e-11
8.5104928e-11
-4.1740098e-10
5.0291843e-12
3.2378315e-12
-4.2307683e-10
-4.2383679e-10
8.1959916e-13
5.0809332e-13
3.1130091e-13
-4.9822105e-10
-4.982968e-10
6.6107741e-14
-4.9837074e-10
7.3285849e-11
1.2322286e-14
-4.9840234e-10
-4.2514147e-10
-4.9840716e-10
7.3264998e-11
7.3264495e-11
2.6965993e-16
7.3264104e-11
-4.9840905e-10
-4.2514512e-10
7.3263983e-11
-4.9840911e-10
7.3263972e-11
7.326397e-11
-4.9840911e-10
-4.2514515e-10
2.6212674e-19
-4.9840912e-10
-4.9840912e-10
-4.9840912e-10
-1.9990257e-22
-4.9840912e-10
-2.8833893e-23
9.3048009e-21
-4.9840912e-10
-4.2514515e-10
-5.3573713e-25
-1.9182404e-25
-6.5768241e-26
5.8220414e-22
-9.9681823e-10
2.384392e-10
-3.3784978e-10
-3.9073178e-10
7.1892835e-11
1.2102588e-10
1.0479453e-10
9.3959351e-11
1.3488524e-11
-4.8968213e-10
-4.9281281e-10
3.5579983e-12
2.2394716e-12
7.4659539e-11
7.4123362e-11
7.3787274e-11
3.1418957e-13
-4.2495913e-10
7.3372568e-11
6.2433603e-14
7.3299272e-11
-4.2512552e-10
7.3274702e-11
7.3269731e-11
-4.9840608e-10
1.5752502e-15
7.9152732e-16
7.3264365e-11
7.3264163e-11
8.9124414e-17
7.3264011e-11
1.8647478e-17
-4.2514514e-10
-4.2514514e-10
7.326397e-11
-4.9840911e-10
7.3263969e-11
-4.2514515e-10
7.0365117e-20
-1.6270624e-21
-4.2514515e-10
-2.3824545e-22
-4.9840912e-10
-4.9840912e-10
-4.2514515e-10
7.3263969e-11
-4.2514515e-10
-4.9840912e-10
4.2235615e-21
-4.9840912e-10
1.0559206e-21
-9.9681823e-10
4.915489e-11
3.1886162e-10
2.1340254e-10
-3.5630273e-10
-4.0429832e-10
1.3521619e-10
-4.5791053e-10
9.955149e-11
9.0186443e-11
-4.8760965e-10
6.8250552e-12
4.270748e-12
-4.9576697e-10
1.614786e-12
-4.2417027e-10
7.3844199e-11
3.4065186e-13
1.9692127e-13
7.3376049e-11
6.2688975e-14
7.3298454e-11
-4.9839052e-10
9.8470564e-15
5.111851e-15
-4.9840652e-10
7.3265267e-11
7.3264606e-11
-4.9840881e-10
1.4259013e-16
-4.9840905e-10
2.8559519e-17
7.3263983e-11
-4.9840911e-10
-4.9840911e-10
9.9386618e-19
-4.2514515e-10
2.5632423e-19
7.3263969e-11
5.8546798e-20
-4.9840912e-10
-2.9344693e-22
-4.2514515e-10
-4.2514515e-10
-4.2514515e-10
-5.060044e-24
-4.2514515e-10
-6.3096406e-25
2.3286789e-21
-4.9840912e-10
9.4741272e-22
-3.6823364e-27
1.0967652e-09
1.8811827e-10
4.5825191e-10
3.0423146e-10
-2.9763299e-10
-3.6678185e-10
8.5671809e-11
-4.4308666e-10
-4.6299592e-10
-4.0268844e-10
8.7361942e-11
-4.8965401e-10
-4.9303626e-10
-4.2188878e-10
1.9466116e-12
1.1477091e-12
6.6647164e-13
7.3644754e-11
2.1401058e-13
-4.9829083e-10
6.4076129e-14
-4.9837498e-10
-4.2512734e-10
-4.2513605e-10
-4.251406e-10
7.3266201e-11
-4.9840804e-10
5.0700965e-16
2.2948015e-16
-4.2514504e-10
7.3264013e-11
7.3263988e-11
-4.9840911e-10
7.3263971e-11
-4.2514515e-10
-4.2514515e-10
7.3263969e-11
7.3263969e-11
1.3241701e-19
-4.9840912e-10
-4.9840912e-10
-4.2514515e-10
-4.9840912e-10
-4.9840912e-10
7.5736717e-21
-4.2514515e-10
-4.9840912e-10
-3.5188118e-10
-4.9840912e-10
-4.9840912e-10
-3.7679721e-27
2.3191864e-09
1.1262228e-09
1.1055902e-09
7.5617618e-10
-4.9554878e-11
2.9292543e-10
2.6294805e-10
-3.7661714e-10
-3.47661e-10
4.8807266e-11
3.0412645e-11
9.1996372e-11
8.4658458e-11
-4.9156851e-10
4.0487812e-12
-4.9604836e-10
7.4619242e-11
-4.2438027e-10
-4.9798483e-10
2.3124744e-13
1.2350369e-13
7.3328679e-11
-4.9837587e-10
1.6717247e-14
8.2327003e-15
3.9576725e-15
-4.2514329e-10
-4.2514429e-10
-4.9840873e-10
7.3264141e-11
7.4230676e-17
3.1764144e-17
7.3263982e-11
-4.9840911e-10
-4.9840911e-10
7.326397e-11
7.3263969e-11
-4.2514515e-10
-4.2514515e-10
-4.9840912e-10
7.3263969e-11
-1.6375196e-22
-4.2514515e-10
-4.2514515e-10
-4.9840912e-10
-4.2514515e-10
-4.9840912e-10
-4.9840912e-10
1.4652794e-10
-4.9840912e-10
-9.9681823e-10
5.3454497e-09
3.5652871e-09
1.8660564e-09
1.631498e-09
1.0197879e-09
6.6235034e-10
4.2663553e-10
2.7233813e-10
-2.529989e-10
1.0767203e-10
-3.5856143e-10
4.0673108e-11
-4.7388656e-10
8.784525e-11
8.5426082e-12
7.8190591e-11
7.6058682e-11
7.4821836e-11
-4.2429219e-10
-4.2468711e-10
-4.2490393e-10
-4.2502066e-10
6.2876502e-14
3.1091409e-14
-4.2513011e-10
7.0992452e-15
-4.9840583e-10
-4.9840764e-10
6.4888137e-16
7.326425e-11
-4.2514503e-10
7.3264018e-11
-4.984091e-10
-4.2514514e-10
4.0534657e-18
1.5196664e-18
7.3263969e-11
7.3263969e-11
-4.2514515e-10
7.3263969e-11
-4.9840912e-10
7.3263969e-11
-4.9840912e-10
-2.3032586e-23
-4.9840912e-10
-4.2514515e-10
-4.2514515e-10
-2.6992382e-25
-8.3923016e-26
-4.9840912e-10
-8.5029029e-10
1.2399268e-08
7.6951971e-09
5.4133976e-09
3.5523518e-09
2.3870676e-09
9.9647946e-10
9.5731793e-10
1.0879697e-10
-1.1723657e-10
2.3662057e-10
1.4513971e-10
8.788954e-11
1.2576016e-10
-4.6750617e-10
9.1176213e-11
1.021439e-11
7.898875e-11
-4.9525779e-10
1.7020367e-12
-4.9750759e-10
-4.9794145e-10
7.3501537e-11
1.1809055e-13
5.7366365e-14
7.3291229e-11
7.3276608e-11
5.7216687e-15
2.5330898e-15
1.0923398e-15
-4.9840865e-10
-4.9840893e-10
-4.2514507e-10
-4.9840909e-10
7.3263981e-11
5.0088069e-18
1.1777753e-18
-4.9840911e-10
7.3263969e-11
7.3263969e-11
-2.211216e-21
-7.4638184e-22
7.3263969e-11
3.3707896e-20
-4.9840912e-10
7.3263969e-11
-2.8335151e-24
7.3263969e-11
-2.8705097e-25
1.8947809e-21
1.1644249e-21
1.4652794e-10
2.7861148e-08
1.8453173e-08
1.1643943e-08
7.9320228e-09
5.1406865e-09
3.3030534e-09
2.1758257e-09
1.3249106e-09
3.2741475e-10
5.0874543e-10
3.0949419e-10
2.5903402e-10
1.831865e-10
-4.3434824e-10
3.6739041e-11
-4.7769421e-10
-4.1367204e-10
-4.9217246e-10
7.6588394e-11
1.7362978e-12
-4.9752127e-10
7.3708116e-11
7.3481177e-11
-4.2504134e-10
4.8438872e-14
2.2067021e-14
-4.983993e-10
-4.2514089e-10
-4.2514335e-10
7.4229608e-16
7.326427e-11
-4.98409e-10
-4.9840907e-10
-4.2514513e-10
7.3263976e-11
7.3263971e-11
7.6651822e-19
3.6667938e-19
2.6187382e-19
-4.9840912e-10
7.3263969e-11
6.7277996e-20
-4.9840912e-10
1.860003e-20
-9.8940098e-24
-4.2514515e-10
7.3263969e-11
-4.9840912e-10
-4.9840912e-10
-4.9840912e-10
1.4652794e-10
6.0870988e-08
3.9692351e-08
2.6361366e-08
1.6668789e-08
1.0524202e-08
7.1165646e-09
4.5297817e-09
2.7900148e-09
1.8001232e-09
1.055813e-09
7.1039122e-10
3.79137e-10
2.9555045e-10
-3.7012268e-10
7.2814426e-11
4.0609018e-11
2.2232974e-11
1.1939358e-11
7.9547602e-11
7.6501829e-11
1.6325807e-12
-4.2434042e-10
-4.2475761e-10
1.8228081e-13
7.3347594e-11
7.3301406e-11
-4.2512881e-10
-4.2513819e-10
2.8894574e-15
7.326514e-11
7.3264434e-11
-4.9840894e-10
6.7369918e-17
2.5261218e-17
-4.2514514e-10
-4.9840911e-10
-4.9840911e-10
7.3263969e-11
-4.9840912e-10
7.3263969e-11
-4.9840912e-10
7.3263969e-11
-1.1368589e-22
1.8595659e-20
7.3263969e-11
7.5760654e-21
7.3263969e-11
4.657478e-21
-3.5188118e-10
1.4652794e-10
-3.5967007e-27
1.2623566e-07
8.3312086e-08
5.4440182e-08
3.5191606e-08
2.2579714e-08
1.4350164e-08
8.5282542e-09
5.6154699e-09
2.9536696e-09
2.1685545e-09
1.2545927e-09
3.1526436e-10
4.3028913e-10
2.4602374e-10
1.3826886e-10
1.4957757e-10
-4.5708367e-10
2.1937315e-11
1.1405738e-11
-4.9260595e-10
7.6151121e-11
7.4667372e-11
6.6617189e-13
7.3572422e-11
-4.982698e-10
-4.9834778e-10
2.6308097e-14
1.1001829e-14
7.3268452e-11
1.7726143e-15
6.8446006e-16
2.6142684e-16
7.3264066e-11
-4.2514511e-10
1.2461568e-17
3.944622e-18
-4.2514515e-10
-4.2514515e-10
-4.2514515e-10
-4.2514515e-10
-4.9840912e-10
7.3263969e-11
-4.9840912e-10
-4.9840912e-10
1.8619063e-20
-4.9840912e-10
7.3263969e-11
-4.9840912e-10
-4.9840912e-10
1.4652794e-10
1.4652794e-10
2.5057095e-07
1.6406939e-07
1.0671067e-07
6.8796783e-08
4.3957251e-08
2.7247098e-08
1.7355307e-08
1.0233547e-08
6.0565931e-09
3.9513433e-09
2.348637e-09
1.375301e-09
7.9267629e-10
5.2253638e-10
2.5017125e-10
1.3673501e-10
-3.518563e-10
3.8486546e-11
-4.7862471e-10
8.3210872e-11
-4.2025786e-10
-4.9606435e-10
1.097762e-12
7.3765193e-11
-4.2492211e-10
9.6671839e-14
4.0825473e-14
7.3280748e-11
7.3270684e-11
-4.984065e-10
9.9341928e-16
-4.2514478e-10
7.3264101e-11
-4.251451e-10
7.3263985e-11
5.9900224e-18
7.3263971e-11
-4.2514515e-10
-4.9840911e-10
-4.9840912e-10
1.3355672e-19
-4.9840912e-10
-4.9840912e-10
-4.9840912e-10
-4.2514515e-10
-4.2514515e-10
7.3263969e-11
-4.9840912e-10
-3.5188118e-10
4.2237415e-21
-3.3826114e-27
4.6722438e-07
3.0453511e-07
1.9696215e-07
1.2673105e-07
8.0563522e-08
5.0265002e-08
3.1616152e-08
1.9469702e-08
1.1776681e-08
7.0539041e-09
3.6660492e-09
2.4211247e-09
1.458123e-09
7.7861111e-10
5.0315114e-10
-2.6554724e-10
-3.7477244e-10
6.4283805e-11
3.2701635e-11
8.9525896e-11
7.8985231e-12
3.744084e-12
1.7309124e-12
7.7984562e-13
3.4227914e-13
1.4626569e-13
-4.9834829e-10
7.3288584e-11
-4.9839942e-10
7.3267684e-11
-4.9840773e-10
7.3264474e-11
-4.9840893e-10
-4.9840905e-10
2.1381776e-17
-4.9840911e-10
2.2567146e-18
7.3263969e-11
-4.9840911e-10
-4.2514515e-10
7.3263969e-11
-4.9840912e-10
-4.9840912e-10
-4.9840912e-10
-4.9840912e-10
-4.0495424e-24
-4.9840912e-10
-4.9840912e-10
-4.9840912e-10
-2.2522197e-26
-9.9681823e-10
8.200454e-07
5.3362377e-07
3.44278e-07
2.201292e-07
1.3936835e-07
8.6807309e-08
5.3573632e-08
3.3082657e-08
2.0051574e-08
1.1897885e-08
6.9814425e-09
4.1058842e-09
2.2908225e-09
7.8023096e-10
7.0055917e-10
3.7641288e-10
2.7141582e-10
1.7536591e-10
5.1449531e-11
2.5330743e-11
-4.1297029e-10
-4.9270119e-10
2.6084506e-12
1.1611135e-12
5.0320002e-13
7.3476145e-11
7.3350999e-11
7.329869e-11
-4.9839565e-10
5.081337e-15
-4.2514328e-10
-4.9840845e-10
2.3148857e-16
7.8230405e-17
2.6292869e-17
-4.9840911e-10
-4.2514514e-10
7.326397e-11
-4.9840912e-10
7.3263969e-11
-4.9840912e-10
-4.9840912e-10
-4.2514515e-10
-4.9840912e-10
-4.2514515e-10
-4.2514515e-10
-4.2514515e-10
1.4652794e-10
8.4474395e-21
1.8948463e-21
-9.9681823e-10
1.3523613e-06
8.7759674e-07
5.6437995e-07
3.595335e-07
2.2697369e-07
1.4163917e-07
8.7361462e-08
5.3214139e-08
3.1984075e-08
1.8952112e-08
1.1134524e-08
6.3529e-09
3.5871501e-09
1.9893916e-09
1.1558575e-09
5.7751434e-10
-1.2343335e-10
1.5422022e-10
1.5031923e-10
3.7599608e-11
1.7902148e-11
8.3102765e-12
3.7582673e-12
-4.2349045e-10
7.3972857e-11
2.9534423e-13
1.1963926e-13
7.3311078e-11
-4.983911e-10
-4.2513844e-10
7.326639e-11
8.5063075e-16
2.9723236e-16
9.9065745e-17
3.1650219e-17
1.095549e-17
-4.9840911e-10
-4.9840911e-10
5.1393613e-19
-4.9840912e-10
-4.9840912e-10
-4.2514515e-10
-4.2514515e-10
-4.9840912e-10
-4.9840912e-10
-4.2514515e-10
7.5782885e-21
-4.9840912e-10
-4.9840912e-10
-4.9840912e-10
1.0559383e-21
2.0962063e-06
1.3568859e-06
8.7042087e-07
5.5308844e-07
3.4779211e-07
2.1624324e-07
1.328202e-07
8.0506776e-08
4.8096333e-08
2.8525627e-08
1.6573394e-08
8.9743376e-09
5.321223e-09
2.9349066e-09
1.6610694e-09
8.4176633e-10
4.3686774e-10
-2.7666628e-10
-3.8843873e-10
-4.4517014e-10
-4.732713e-10
8.4830592e-11
5.1823704e-12
2.2594833e-12
-4.9745106e-10
3.9484864e-13
1.5813668e-13
6.1529812e-14
2.3253671e-14
-4.9840057e-10
-4.9840607e-10
-4.2514409e-10
7.3264329e-11
1.1787005e-16
7.3264006e-11
-4.984091e-10
-4.9840911e-10
7.326397e-11
7.3263969e-11
-4.9840912e-10
-4.9840912e-10
-4.9840912e-10
6.7383181e-20
7.3263969e-11
-4.9840912e-10
1.5154707e-20
9.3144181e-21
-3.1787983e-25
-4.9840912e-10
-4.9840912e-10
-2.7189344e-27
3.0537109e-06
1.9730944e-06
1.2637504e-06
8.0120273e-07
5.0272933e-07
3.1185297e-07
1.910482e-07
1.1582826e-07
6.8904678e-08
4.0695491e-08
2.3515578e-08
1.3138779e-08
7.5621474e-09
3.6866349e-09
1.7152845e-09
1.167463e-09
6.0251796e-10
3.772603e-10
1.4980185e-10
1.4529249e-10
3.3763078e-11
1.541568e-11
8.0114468e-11
-4.954482e-10
1.2439324e-12
5.077614e-13
7.3465255e-11
7.7475978e-14
7.329292e-11
-4.2513463e-10
-4.9840541e-10
1.2722909e-15
-4.9840869e-10
7.3264107e-11
-4.251451e-10
-4.2514513e-10
7.3263973e-11
-4.2514515e-10
5.0815573e-19
1.119745e-19
-4.2514515e-10
-4.9840912e-10
-4.2514515e-10
7.3263969e-11
-4.9840912e-10
7.3263969e-11
-4.2514515e-10
-4.2514515e-10
-4.9840912e-10
-4.9840912e-10
4.7371449e-22
4.1869057e-06
2.7024331e-06
1.7285135e-06
1.0947032e-06
6.8592424e-07
4.2464648e-07
2.5999239e-07
1.5676669e-07
9.3472623e-08
5.4830592e-08
3.1655044e-08
1.7719569e-08
1.0018789e-08
5.232203e-09
2.9397049e-09
1.5438474e-09
7.9313778e-10
3.9819625e-10
1.9517336e-10
1.665681e-10
4.3465438e-11
-4.0543137e-10
-4.8971064e-10
3.731135e-12
-4.9685417e-10
6.292955e-13
7.3511192e-11
9.4264483e-14
3.4879292e-14
1.2532971e-14
7.3268337e-11
1.4800065e-15
7.326446e-11
-4.9840896e-10
4.9519349e-17
1.6510045e-17
4.9927027e-18
1.5009938e-18
-4.2514515e-10
7.3263969e-11
-4.9840912e-10
7.3263969e-11
7.3263969e-11
-4.2514515e-10
1.5143788e-20
7.3263969e-11
-4.9840912e-10
1.6894766e-20
-7.50169e-26
4.2237475e-21
-2.3121647e-27
5.4105438e-06
3.4902915e-06
2.2312272e-06
1.4123523e-06
8.8435967e-07
5.4711664e-07
3.346094e-07
2.0160283e-07
1.2001666e-07
7.0334083e-08
4.0303101e-08
2.2953851e-08
1.277003e-08
6.7199533e-09
3.4778462e-09
1.701946e-09
9.9885502e-10
1.109572e-12
3.1704606e-10
-3.824171e-10
-4.4465307e-10
2.4244845e-11
1.0633014e-11
4.5312398e-12
7.5139174e-11
7.5323702e-13
2.9357089e-13
-4.982981e-10
4.0713396e-14
1.4488368e-14
-4.2514014e-10
-4.9840743e-10
7.3264517e-11
1.741692e-16
-4.2514509e-10
1.6391893e-17
7.3263974e-11
1.2511612e-18
5.0427251e-19
-4.2514515e-10
-4.2514515e-10
-4.2514515e-10
-4.9840912e-10
7.3263969e-11
-4.2514515e-10
-4.2514515e-10
7.3263969e-11
7.3263969e-11
-4.9840912e-10
-3.5188118e-10
2.1118802e-21
6.6003523e-06
4.2596172e-06
2.7239649e-06
1.7244952e-06
1.0801727e-06
6.683639e-07
4.0876054e-07
2.4630675e-07
1.4660087e-07
8.5597167e-08
4.9211525e-08
2.7763421e-08
1.5296818e-08
8.4718104e-09
4.5226162e-09
2.1134088e-09
1.279746e-09
6.0161462e-10
2.9264354e-10
1.3872432e-10
6.4024959e-11
-3.9640123e-10
-4.8586659e-10
7.8579716e-11
2.1867568e-12
8.7276838e-13
-4.9807128e-10
1.2680142e-13
4.616003e-14
-4.9839282e-10
5.5801679e-15
-4.2514329e-10
7.326457e-11
-4.9840893e-10
5.7362202e-17
-4.2514513e-10
6.0212103e-18
-4.9840911e-10
-4.2514515e-10
2.5998419e-19
-4.9840912e-10
1.344012e-19
7.3263969e-11
7.3263969e-11
7.3263969e-11
-4.2514515e-10
-4.9840912e-10
-4.9840912e-10
-4.9840912e-10
-4.9840912e-10
9.47432e-22
7.6170436e-06
4.9220737e-06
3.1516458e-06
1.9975366e-06
1.2526742e-06
7.7632058e-07
4.7508749e-07
2.8658669e-07
1.7043922e-07
9.9976824e-08
5.7396487e-08
3.2651939e-08
1.7873356e-08
9.9086913e-09
5.0903745e-09
2.4989332e-09
1.1520887e-09
6.9745014e-10
-1.5992433e-10
-2.6512697e-10
7.3619199e-11
-4.6547746e-10
1.4311625e-11
7.9301946e-11
7.5735463e-11
-4.2416414e-10
3.7749944e-13
1.4078676e-13
5.0891763e-14
1.7835686e-14
6.06291e-15
-4.9840711e-10
6.4116978e-16
-4.2514495e-10
-4.9840905e-10
7.3263987e-11
7.3263975e-11
1.4856614e-18
7.3263969e-11
-4.9840912e-10
7.3263969e-11
-7.4663944e-22
7.3263969e-11
-5.2098038e-23
3.0304207e-20
7.3263969e-11
-4.9840912e-10
-4.2514515e-10
-4.9840912e-10
1.4652794e-10
-1.7341235e-27
8.3333355e-06
5.3963186e-06
3.4628089e-06
2.2000858e-06
1.3825713e-06
8.5849042e-07
5.2662067e-07
3.1862558e-07
1.8993323e-07
1.1146849e-07
6.408086e-08
3.6504114e-08
2.0034135e-08
1.0844058e-08
5.9367807e-09
3.0787206e-09
1.3199313e-09
5.3109501e-10
3.7819284e-10
1.7847432e-10
8.1927552e-11
3.6549924e-11
1.5834021e-11
6.6562398e-12
2.7134645e-12
1.0722363e-12
7.3674502e-11
-4.9825684e-10
5.4722097e-14
-4.2512608e-10
6.4347744e-15
-4.9840701e-10
7.3264637e-11
2.0781793e-16
6.1245175e-17
1.8358547e-17
7.3263974e-11
-4.9840911e-10
7.3263969e-11
-4.9840912e-10
7.3263969e-11
7.3263969e-11
-4.9840912e-10
-4.9840912e-10
7.3263969e-11
-4.9840912e-10
7.3263969e-11
-4.9840912e-10
-4.9840912e-10
-4.9840912e-10
1.1644468e-21
8.6634651e-06
5.627558e-06
3.6229942e-06
2.3089663e-06
1.4559798e-06
9.0704327e-07
5.5802898e-07
3.3854753e-07
2.0238684e-07
1.1903293e-07
6.8789199e-08
3.8997042e-08
2.1604878e-08
1.1933606e-08
6.4134324e-09
3.367241e-09
1.4491984e-09
9.179079e-10
4.0922084e-10
1.9295179e-10
8.8456083e-11
3.9391424e-11
1.7026215e-11
7.1377647e-12
2.9004694e-12
1.141946e-12
4.3540035e-13
1.6077869e-13
7.3321469e-11
7.3283894e-11
-4.2513846e-10
2.176597e-15
-4.9840842e-10
-4.2514494e-10
-4.9840905e-10
7.3263987e-11
5.4048906e-18
1.7843956e-18
-4.2514515e-10
1.3906483e-19
7.3263969e-11
-4.9840912e-10
7.3263969e-11
-4.9840912e-10
3.0305721e-20
7.3263969e-11
-4.2514515e-10
-4.2514515e-10
-4.9840912e-10
4.2237536e-21
-1.4129896e-27
8.5803764e-06
5.5963464e-06
3.6181771e-06
2.3161474e-06
1.4668203e-06
9.1782552e-07
5.6740248e-07
3.4557748e-07
2.0742387e-07
1.2247425e-07
7.1070565e-08
4.0435088e-08
2.2514685e-08
1.2195788e-08
6.4532831e-09
3.5249492e-09
1.818076e-09
7.1088227e-10
2.539344e-10
-4.6510866e-11
9.2877919e-11
4.132056e-11
1.7834218e-11
7.4620757e-12
3.0249537e-12
-4.9722157e-10
4.5129123e-13
7.3429993e-11
-4.9834998e-10
7.3284357e-11
-4.9840231e-10
-4.2514294e-10
7.3264668e-11
2.1389484e-16
7.3264031e-11
1.8256616e-17
5.4130529e-18
-4.2514515e-10
-4.9840911e-10
1.1165061e-19
7.3263969e-11
7.3263969e-11
6.046441e-20
-4.9840912e-10
-4.2514515e-10
-4.9840912e-10
-7.4229051e-25
-4.2514515e-10
8.4474835e-21
1.4652794e-10
-1.2738315e-27
8.1176439e-06
5.3214646e-06
3.4583631e-06
2.2257292e-06
1.4174113e-06
8.9184463e-07
5.5436352e-07
3.3974976e-07
2.0486386e-07
1.2162163e-07
7.1112623e-08
4.0736012e-08
2.2623393e-08
1.2608837e-08
6.7565919e-09
3.3334131e-09
1.5660057e-09
9.0532551e-10
4.3943893e-10
-4.1827565e-11
9.5054642e-11
1.1554525e-10
1.8236468e-11
7.6214811e-12
3.0845311e-12
1.2083454e-12
-4.9795103e-10
7.3432015e-11
-4.9834947e-10
2.04831e-14
6.8184626e-15
-4.9840692e-10
-4.9840843e-10
7.3264178e-11
6.2278243e-17
7.3263987e-11
7.3263975e-11
7.326397e-11
8.0422855e-19
-4.2514515e-10
-4.2514515e-10
-4.2514515e-10
-4.2514515e-10
-4.9840912e-10
-1.0482156e-23
-4.2514515e-10
-4.2514515e-10
7.3263969e-11
-4.9840912e-10
-4.9840912e-10
-1.1346734e-27
7.3570938e-06
4.8523445e-06
3.1730604e-06
2.0553095e-06
1.317539e-06
8.3476011e-07
5.2219814e-07
3.2187196e-07
1.9547491e-07
1.1701928e-07
6.8724619e-08
3.9604957e-08
2.2083851e-08
1.2121744e-08
6.6938533e-09
3.2944728e-09
1.5885357e-09
6.881479e-10
5.1140966e-10
-4.2104485e-11
-1.5417513e-10
4.2293249e-11
-4.8016701e-10
8.0884272e-11
3.0811458e-12
1.2053734e-12
4.5609241e-13
7.3430907e-11
-4.9835004e-10
-4.9838889e-10
-4.9840239e-10
2.152663e-15
-4.9840844e-10
7.326417e-11
6.1491401e-17
-4.2514513e-10
5.5576085e-18
-4.2514515e-10
-4.2514515e-10
1.4039533e-19
1.1901522e-19
-5.8201194e-22
-4.9840912e-10
7.3263969e-11
-9.6326495e-24
3.3787675e-20
-6.1726235e-25
-4.9840912e-10
1.4652794e-10
-4.9840912e-10
9.4743294e-22
6.406738e-06
4.2546823e-06
2.8028493e-06
1.8291244e-06
1.1810863e-06
7.5419745e-07
4.7518229e-07
2.9557636e-07
1.8095914e-07
1.0896105e-07
6.4403737e-08
3.7096869e-08
2.1209304e-08
1.1531354e-08
6.1421075e-09
3.4191925e-09
1.5316585e-09
6.2610826e-10
1.7781708e-10
2.0231139e-10
-1.5620836e-10
1.1470276e-10
1.7886088e-11
-4.9093621e-10
3.0206512e-12
1.1807696e-12
-4.9796287e-10
-4.9824607e-10
5.7604095e-14
7.3283645e-11
-4.9840261e-10
-4.9840703e-10
-4.9840847e-10
1.9382578e-16
-4.9840906e-10
1.7948792e-17
7.3263974e-11
-4.9840911e-10
1.0505149e-18
-4.9840912e-10
7.3263969e-11
-4.9840912e-10
7.3263969e-11
-4.9840912e-10
-4.2514515e-10
-4.9840912e-10
-4.2514515e-10
7.3263969e-11
4.65776e-21
-4.9840912e-10
9.4743305e-22
5.3765705e-06
3.5990438e-06
2.3898898e-06
1.5729318e-06
1.0243575e-06
6.5985905e-07
4.1934967e-07
2.6313383e-07
1.6218675e-07
9.8642111e-08
5.8767062e-08
3.4372081e-08
1.9388833e-08
1.0767029e-08
6.0292504e-09
2.9395584e-09
1.4396447e-09
8.6925273e-10
1.5844756e-10
1.9371175e-10
-1.599478e-10
1.1310982e-10
1.7220667e-11
7.2005758e-12
2.9114258e-12
1.1378783e-12
7.3693717e-11
7.342084e-11
5.5323616e-14
1.8868854e-14
6.2293592e-15
7.3265955e-11
7.3264586e-11
1.8610261e-16
7.3264025e-11
7.3263984e-11
7.3263973e-11
-4.9840911e-10
7.3263969e-11
7.3263969e-11
-4.2514515e-10
7.3263969e-11
7.3263969e-11
-4.9840912e-10
-4.9840912e-10
-4.2514515e-10
-4.2514515e-10
7.3263969e-11
-4.9840912e-10
-6.358453e-27
1.1644476e-21
4.3625294e-06
2.9453058e-06
1.973755e-06
1.3110538e-06
8.6213579e-07
5.6062675e-07
3.5968304e-07
2.278607e-07
1.420516e-07
8.700455e-08
5.2064402e-08
3.0859871e-08
1.7769394e-08
1.0044909e-08
5.2503533e-09
2.6952123e-09
1.5340195e-09
5.6424127e-10
1.6936081e-10
1.8214242e-10
8.4176458e-11
-2.1153658e-10
1.6309452e-11
-4.9158054e-10
2.7631617e-12
7.4344289e-11
4.0800143e-13
7.3412831e-11
5.2450267e-14
7.3281841e-11
-4.9840323e-10
1.8758559e-15
7.3264551e-11
7.3264143e-11
4.9367008e-17
1.4998267e-17
7.3263973e-11
-4.2514515e-10
-4.2514515e-10
-4.9840912e-10
-4.2514515e-10
7.3263969e-11
-4.9840912e-10
-4.9840912e-10
6.7572995e-20
3.3788304e-20
-4.2514515e-10
9.3154751e-21
3.7897091e-21
3.7897302e-21
-7.0649478e-28
2.3392012e-06
1.5829193e-06
1.0618592e-06
7.057511e-07
4.6375305e-07
3.0092203e-07
1.9227288e-07
1.2121029e-07
7.4795447e-08
4.5326256e-08
2.7116685e-08
1.5747724e-08
8.9417385e-09
4.98694e-09
2.4192355e-09
1.4354082e-09
4.9962293e-10
3.8847219e-10
-4.4087986e-11
7.8138143e-11
3.5067669e-11
1.5219145e-11
6.3835245e-12
7.5850482e-11
1.0120652e-12
3.8234184e-13
1.3947511e-13
7.3313104e-11
1.671573e-14
-4.2513965e-10
1.7490424e-15
5.4000735e-16
1.6233198e-16
7.3264015e-11
-4.984091e-10
3.9848001e-18
-4.9840911e-10
-4.9840912e-10
-6.3316798e-21
-4.2514515e-10
-4.2514515e-10
7.3263969e-11
-4.2514515e-10
-4.9840912e-10
-4.9840912e-10
-4.2514515e-10
-4.9840912e-10
-4.9840912e-10
-4.9840912e-10
-6.2085905e-28
1.8081601e-06
1.2364474e-06
8.3875322e-07
5.635543e-07
3.744802e-07
2.4553994e-07
1.5903409e-07
1.0124014e-07
6.3331412e-08
3.8889488e-08
2.3371813e-08
1.373461e-08
7.8463288e-09
4.1299629e-09
2.3780931e-09
1.0423701e-09
6.4279363e-10
1.0666373e-10
-9.5625493e-11
-1.7769585e-10
3.2200403e-11
-4.8439534e-10
-4.9251794e-10
2.3911846e-12
9.3678091e-13
3.5417943e-13
1.2922988e-13
4.5542693e-14
1.5498013e-14
7.3269066e-11
7.3265591e-11
-4.2514465e-10
-4.25145e-10
-4.9840907e-10
1.1842754e-17
-4.9840911e-10
7.326397e-11
-2.2188859e-20
2.9233712e-19
7.3263969e-11
-4.2514515e-10
7.3263969e-11
-4.2514515e-10
-4.2514515e-10
-4.9840912e-10
-4.9840912e-10
-4.9840912e-10
-4.9840912e-10
-4.9840912e-10
-5.4592778e-28
1.3643068e-06
9.4313637e-07
6.473582e-07
4.4011751e-07
2.9578975e-07
1.9660549e-07
1.2848518e-07
8.2980928e-08
5.2238007e-08
3.2310517e-08
1.9514671e-08
1.1718291e-08
6.5628526e-09
3.8509705e-09
2.1244746e-09
8.9714556e-10
6.0871837e-10
3.6550079e-11
1.7479861e-10
-1.8458933e-10
2.9205889e-11
-2.3645353e-10
5.3743762e-12
7.5450004e-11
7.4121794e-11
7.3588693e-11
7.3382564e-11
4.1790065e-14
1.4214884e-14
4.6695532e-15
7.3265457e-11
4.5928118e-16
1.3872343e-16
7.3264008e-11
-4.2514513e-10
-4.9840911e-10
1.0048989e-18
7.3263969e-11
-4.9840911e-10
-4.2514515e-10
-3.3686699e-22
7.3263969e-11
-4.2514515e-10
7.3263969e-11
-4.2514515e-10
7.3263969e-11
-7.8998961e-26
-4.9840912e-10
-4.9840912e-10
9.4743347e-22
1.0074277e-06
7.0504134e-07
4.8946535e-07
3.3711201e-07
2.2936413e-07
1.5443057e-07
1.0243979e-07
6.6555439e-08
4.2577292e-08
2.6893164e-08
1.6521783e-08
9.6654152e-09
5.5188228e-09
3.2770218e-09
1.5596272e-09
9.6877272e-10
2.9029151e-10
4.0148911e-11
1.5949038e-10
-1.5484285e-10
9.9465188e-11
1.1479564e-11
4.8528991e-12
1.9786941e-12
-4.9763114e-10
2.9496488e-13
-4.9830129e-10
3.8039241e-14
1.294925e-14
-4.2514088e-10
7.3265322e-11
7.3264386e-11
-4.2514502e-10
7.3264006e-11
-4.2514513e-10
7.3263972e-11
7.326397e-11
-4.9840912e-10
2.9339724e-19
-4.2514515e-10
7.3263969e-11
-7.5709864e-23
7.3263969e-11
-4.2514515e-10
-4.9840912e-10
-4.9840912e-10
7.3263969e-11
-4.9840912e-10
-3.5188118e-10
-8.5029029e-10
7.3057569e-07
5.173923e-07
3.639631e-07
2.5352422e-07
1.7491446e-07
1.1940801e-07
7.9955313e-08
5.279393e-08
3.4384368e-08
2.1846169e-08
1.3603633e-08
8.2561577e-09
4.8859959e-09
2.7815551e-09
1.548882e-09
5.86999e-10
4.7382489e-10
2.5777326e-10
1.081247e-10
8.7695882e-11
2.3278754e-11
-2.3896633e-10
7.7606281e-11
1.7753528e-12
6.9969621e-13
2.6576305e-13
-4.2504786e-10
3.4340954e-14
1.1698236e-14
3.8553716e-15
1.2186246e-15
7.3264345e-11
1.1309366e-16
-4.2514511e-10
-4.9840911e-10
-4.2514514e-10
1.019098e-18
7.3263969e-11
-4.9840912e-10
-4.9840912e-10
-4.9840912e-10
-4.9840912e-10
7.3263969e-11
7.3263969e-11
-4.2514515e-10
7.3263969e-11
7.3263969e-11
-4.9840912e-10
3.7897328e-21
2.1118819e-21
5.209941e-07
3.7359585e-07
2.6637677e-07
1.8803663e-07
1.3143764e-07
9.0785276e-08
6.1730568e-08
4.1516141e-08
2.7036924e-08
1.7556999e-08
1.1035834e-08
6.7628044e-09
3.783584e-09
2.0870019e-09
1.1002214e-09
5.0207996e-10
1.2725415e-10
2.2834093e-10
9.4299255e-11
8.1404295e-11
-2.286985e-10
-2.4014904e-10
7.7118224e-11
1.5806198e-12
7.388847e-11
2.377103e-13
8.7174975e-14
3.082084e-14
1.0511569e-14
7.3267423e-11
7.3265073e-11
3.4059152e-16
1.0311007e-16
2.8545101e-17
-4.2514514e-10
7.3263972e-11
-4.2514515e-10
-4.2514515e-10
-4.2514515e-10
1.4808863e-19
-4.2514515e-10
6.0575452e-20
7.3263969e-11
-4.2514515e-10
-4.9840912e-10
-4.2514515e-10
9.3155318e-21
-3.5188118e-10
-2.6975255e-27
-9.9681823e-10
3.6685243e-07
2.6624752e-07
1.9249606e-07
1.3764154e-07
9.7815591e-08
6.8336924e-08
4.7099734e-08
3.1908066e-08
2.145856e-08
1.371501e-08
8.6380142e-09
5.5470704e-09
3.0730846e-09
1.9443301e-09
8.9030228e-10
6.0553488e-10
3.5809202e-10
-4.772588e-11
8.1593234e-11
7.5587102e-11
1.7929179e-11
-1.6798882e-10
-4.9501201e-10
1.3976677e-12
-4.245914e-10
2.1126013e-13
-4.9833149e-10
-4.9838164e-10
-4.9839973e-10
3.0952982e-15
-4.9840813e-10
3.0303035e-16
7.3264062e-11
-4.9840909e-10
7.9710368e-18
3.0577641e-18
1.0314649e-18
7.3263969e-11
-3.3695468e-21
7.3263969e-11
-4.2514515e-10
-4.2514515e-10
-4.2514515e-10
-4.2514515e-10
1.515813e-20
1.8630974e-20
-4.2514515e-10
9.3155755e-21
-4.9840912e-10
-2.8902059e-28
2.5526677e-07
1.8767345e-07
1.3733658e-07
9.9976021e-08
7.1663028e-08
5.116233e-08
3.5574142e-08
2.4463132e-08
1.6702674e-08
1.079682e-08
7.0961795e-09
4.4530128e-09
2.7150719e-09
1.6422316e-09
6.7030315e-10
2.9672315e-10
5.9951473e-11
1.4075594e-10
-1.4245467e-10
3.3668367e-11
1.5574785e-11
-2.4226592e-10
2.9759891e-12
-4.9718047e-10
-4.9792094e-10
1.8668995e-13
6.8764125e-14
2.4394221e-14
-4.9840077e-10
2.755019e-15
8.7893089e-16
-4.9840884e-10
7.326405e-11
-4.9840909e-10
-4.9840911e-10
-4.9840911e-10
-4.9840911e-10
7.3263969e-11
7.3263969e-11
7.3263969e-11
-4.9840912e-10
7.447703e-20
-4.2514515e-10
7.3263969e-11
1.5158223e-20
-4.2514515e-10
-4.3031955e-26
-1.0083607e-26
1.4652794e-10
1.4652794e-10
1.7597677e-07
1.3104837e-07
9.7432342e-08
7.1593185e-08
5.2422474e-08
3.7854474e-08
2.6638154e-08
1.8824933e-08
1.2619411e-08
8.3672758e-09
5.6625166e-09
3.3610731e-09
1.9546941e-09
1.3171725e-09
7.6171188e-10
1.7646315e-10
1.7050751e-11
1.5609863e-10
-1.8930079e-10
-1.8363987e-10
-1.9911815e-10
6.0217352e-12
2.5933609e-12
1.0744635e-12
4.2828085e-13
-4.2498087e-10
6.062769e-14
-4.251236e-10
7.3768219e-15
7.3266407e-11
-4.9840834e-10
7.3264208e-11
7.1235013e-17
7.326399e-11
-4.2514514e-10
1.4189855e-18
-4.2514515e-10
2.877587e-19
7.3263969e-11
1.4837308e-19
-4.9840912e-10
-4.2514515e-10
7.3263969e-11
-2.5870554e-24
7.3263969e-11
-4.9840912e-10
-3.8065082e-26
-8.9168204e-27
4.6577916e-21
-9.9681823e-10
1.2045983e-07
9.0789504e-08
6.8563307e-08
5.127094e-08
3.7992952e-08
2.7576903e-08
2.0050726e-08
1.4216033e-08
9.8758405e-09
6.4543302e-09
4.221735e-09
2.8882657e-09
1.7790113e-09
8.6209157e-10
6.2761793e-10
1.0469831e-10
1.9247837e-10
1.3751677e-10
8.7556355e-11
-2.2446141e-10
1.1567571e-11
-2.4400279e-10
2.2495316e-12
-4.974736e-10
3.7407661e-13
7.3407839e-11
5.325174e-14
-4.9839014e-10
7.3270475e-11
2.1483927e-15
7.3264657e-11
2.1630149e-16
6.3341465e-17
1.895953e-17
-4.9840911e-10
2.0318753e-18
1.0463056e-18
7.3263969e-11
-4.2514515e-10
-4.2514515e-10
-4.2514515e-10
7.3263969e-11
-4.2514515e-10
6.7577943e-20
7.3263969e-11
-4.2514515e-10
1.6895025e-20
1.4652794e-10
-1.6377833e-27
2.1118821e-21
8.1732831e-08
6.2580189e-08
4.79345e-08
3.6397852e-08
2.7375027e-08
2.010327e-08
1.4628319e-08
1.0454507e-08
7.2934592e-09
5.1907078e-09
3.4789193e-09
2.0159166e-09
1.4662114e-09
9.0954782e-10