/*--------------------------------*- C++ -*----------------------------------*\
| =========                 |                                                 |
| \\      /  F ield         | OpenFOAM: The Open Source CFD Toolbox           |
|  \\    /   O peration     | Version:  2312                                  |
|   \\  /    A nd           | Website:  www.openfoam.com                      |
|    \\/     M anipulation  |                                                 |
\*---------------------------------------------------------------------------*/
FoamFile
{
    version     2.0;
    format      ascii;
    arch        "LSB;label=32;scalar=64";
    class       volScalarField;
    location    "0.01";
    object      T;
}
// * * * * * * * * * * * * * * * * * * * * * * * * * * * * * * * * * * * * * //

dimensions      [0 0 0 1 0 0 0];

internalField   nonuniform List<scalar> 
3257
(
420.81824
420.5328
420.2242
419.88868
419.52086
419.11478
418.66401
418.16174
417.60081
416.97376
416.27289
415.49033
414.61813
413.64836
412.57319
411.38501
410.07658
408.64108
407.07232
405.36476
403.51373
401.51545
399.3672
397.06737
394.61554
392.01255
389.26053
386.36292
383.32447
380.1512
376.8504
373.43053
369.90113
366.27275
362.55679
358.76543
354.9114
351.00793
347.0685
343.10676
339.13631
335.17061
331.2228
327.30557
323.43107
319.61078
315.85543
312.17495
308.57839
305.0739
301.66871
423.70549
423.41047
423.09093
422.74269
422.36011
421.93699
421.4667
420.94222
420.35621
419.70104
418.96882
418.15156
417.24118
416.22963
415.109
413.87164
412.51028
411.01811
409.38897
407.61741
405.69888
403.62975
401.40749
399.03073
396.49932
393.81439
390.97841
387.99517
384.86981
381.60877
378.21973
374.71157
371.09427
367.37877
363.5769
359.70121
355.76481
351.78123
347.76428
343.72786
339.68579
335.6517
331.63885
327.66004
323.72743
319.85251
316.04596
312.31762
308.67644
305.13044
301.68673
429.17575
428.86209
428.52058
428.14667
427.73433
427.277
426.76767
426.19901
425.56332
424.85263
424.0588
423.17355
422.18858
421.09567
419.88678
418.55417
417.09055
415.48916
413.74392
411.84958
409.8018
407.59729
405.23389
402.71068
400.02804
397.18768
394.19269
391.04755
387.75813
384.33161
380.77644
377.10229
373.31991
369.44101
365.47817
361.44464
357.35418
353.22095
349.05928
344.88353
340.70794
336.54643
332.4125
328.31906
324.27836
320.30185
316.40013
312.58288
308.85882
305.23572
301.7204
436.94272
436.59983
436.22413
435.8105
435.35242
434.84282
434.27425
433.6389
432.92861
432.13499
431.24949
430.26349
429.16843
427.95587
426.61761
425.14586
423.53331
421.7733
419.85994
417.78826
415.5543
413.15526
410.58955
407.85693
404.95852
401.89689
398.67604
395.30142
391.77991
388.11974
384.33045
380.42279
376.40859
372.30062
368.11248
363.85837
359.55297
355.21124
350.84824
346.47895
342.1181
337.78003
333.4785
329.22661
325.03664
320.92
316.88714
312.9475
309.10947
305.38043
301.76671
446.73543
446.35114
445.92748
445.45862
444.93743
444.35625
443.70706
442.98168
442.17128
441.2669
440.25951
439.14013
437.89995
436.53032
435.0229
433.36983
431.56388
429.59856
427.46828
425.16847
422.69573
420.04789
417.22416
414.22519
411.0531
407.71154
404.20569
400.54219
396.7291
392.77607
388.69384
384.49466
380.19174
375.79907
371.33152
366.80451
362.23375
357.63516
353.02464
348.41787
343.83018
339.27629
334.77027
330.32535
325.95386
321.66708
317.47524
313.38745
309.41167
305.55476
301.82245
458.29343
457.85398
457.36705
456.82598
456.22289
455.5494
454.79667
453.95542
453.01655
451.97073
450.8086
449.5209
448.0987
446.53334
444.81618
442.93935
440.89586
438.67948
436.28502
433.70847
430.94712
427.99965
424.86625
421.54867
418.05027
414.376
410.53243
406.52752
402.36931
398.07253
393.64721
389.10836
384.47071
379.74917
374.96012
370.12023
365.24623
360.35501
355.46331
350.58752
345.74348
340.94631
336.2103
331.54879
326.97401
322.49709
318.12792
313.87519
309.74635
305.74763
301.88406
471.36402
470.85426
470.28741
469.65589
468.95102
468.16368
467.28437
466.30333
465.21067
463.99646
462.65078
461.16382
459.52592
457.72797
455.76197
453.62062
451.29775
448.78726
446.08453
443.1863
440.09081
436.79783
433.30877
429.62674
425.75654
421.7047
417.47948
413.091
408.55239
403.87286
399.06908
394.15495
389.14665
384.06186
378.91795
373.73282
368.52467
363.31146
358.11085
352.93996
347.81521
342.75215
337.76533
332.8681
328.07262
323.38973
318.82892
314.39837
310.10489
305.95398
301.94989
485.63787
485.04477
484.38377
483.64629
482.82281
481.90343
480.87792
479.73586
478.46671
477.05998
475.50528
473.79249
471.91189
469.85436
467.61158
465.17604
462.54101
459.70193
456.65535
453.39909
449.93253
446.25672
442.37448
438.29045
434.01109
429.54465
424.90115
420.09234
415.1316
410.03348
404.81418
399.49065
394.08081
388.60345
383.07761
377.52256
371.9576
366.40174
360.87346
355.39056
349.96992
344.62741
339.37765
334.23398
329.2083
324.31111
319.55142
314.93678
310.47329
306.16567
302.0173
500.99173
500.29663
499.5212
498.65579
497.69008
496.6134
495.41481
494.08324
492.60763
490.97701
489.18065
487.20825
485.05004
482.697
480.14101
477.37503
474.39321
471.19127
467.76641
464.11762
460.24564
456.153
451.84413
447.32537
442.60497
437.69307
432.60165
427.34438
421.93655
416.39484
410.73721
404.98262
399.15082
393.26213
387.33717
381.39659
375.46082
369.54986
363.68299
357.87857
352.15391
346.52503
341.00657
335.61171
330.35203
325.23758
320.27676
315.47645
310.84196
306.37717
302.08454
517.17429
516.35884
515.44948
514.43549
513.30572
512.04872
510.65288
509.10656
507.39816
505.51635
503.45016
501.18917
498.72367
496.04488
493.14505
490.01773
486.65787
483.06204
479.22854
475.15753
470.85113
466.31345
461.55062
456.5708
451.3842
446.00295
440.44106
434.71428
428.83995
422.83679
416.7247
410.52453
404.2578
397.94647
391.61261
385.27816
378.96467
372.69303
366.48322
360.3541
354.32323
348.40673
342.61915
336.97338
331.4806
326.15029
320.99019
316.0064
311.20341
306.58417
302.15022
533.954
533.00143
531.94031
530.75885
529.44509
527.98688
526.37198
524.58821
522.62358
520.46644
518.10568
515.53089
512.73256
509.70222
506.43269
502.91821
499.15465
495.13962
490.87267
486.35534
481.5913
476.58633
471.3484
465.88762
460.21621
454.34838
448.30027
442.08975
435.73624
429.26053
422.68448
416.03079
409.32272
402.58378
395.83745
389.10689
382.41462
375.78236
369.23064
362.77871
356.44429
350.24346
344.19056
338.2981
332.57676
327.03536
321.6809
316.51864
311.5522
306.78359
302.21339
551.12721
550.02171
548.79215
547.42569
545.90962
544.23113
542.37743
540.33589
538.09417
535.64046
532.9636
530.05331
526.90036
523.49679
519.83607
515.91329
511.72534
507.27105
502.55133
497.56925
492.33015
486.84162
481.11356
475.1581
468.98953
462.62424
456.08049
449.37831
442.53923
435.58606
428.54259
421.43336
414.28326
407.11731
399.9603
392.83647
385.76926
378.78102
371.89279
365.12402
358.49249
352.01414
345.70297
339.57102
333.62837
327.8831
322.34143
317.00774
311.88469
306.97338
302.27341
568.50572
567.23292
565.81988
564.25275
562.51812
560.6026
558.49293
556.17608
553.63953
550.87134
547.86045
544.59681
541.07162
537.27751
533.20873
528.86135
524.2334
519.32504
514.13866
508.67898
502.9531
496.97051
490.7431
484.28508
477.61289
470.74507
463.70205
456.506
449.18053
441.75045
434.24142
426.67972
419.09184
411.50418
403.94272
396.4327
388.99831
381.66246
374.44651
367.37005
360.45076
353.70432
347.14432
340.78224
334.62745
328.68728
322.96706
317.47028
312.19866
307.15232
302.3299
585.91875
584.46612
582.85659
581.07535
579.10837
576.94176
574.56184
571.95534
569.10956
566.01262
562.65362
559.02286
555.11207
550.91458
546.42556
541.64213
536.56358
531.19149
525.52983
519.58501
513.366
506.88425
500.15368
493.19063
486.01367
478.6435
471.10273
463.41563
455.60783
447.70608
439.73787
431.7311
423.71376
415.71353
407.75746
399.87166
392.08096
384.4087
376.87643
369.50375
362.30816
355.30496
348.50724
341.92584
335.56938
329.44435
323.55521
317.90449
312.49297
307.31981
302.3827
603.21443
601.57153
599.75479
597.7485
595.53808
593.10922
590.44791
587.5407
584.37487
580.93862
577.22134
573.2138
568.90832
564.29908
559.38219
554.15595
548.621
542.78039
536.63972
530.20721
523.49369
516.51261
509.27997
501.8142
494.13604
486.26834
478.23581
470.06477
461.78284
453.41862
445.00132
436.5604
428.12521
419.72459
411.38657
403.13798
395.00418
387.00879
379.17347
371.51771
364.0587
356.81132
349.78806
342.99904
336.45212
330.1529
324.10492
318.30979
312.76732
307.47573
302.4318
620.26059
618.41924
616.38698
614.14732
611.68519
608.9859
606.03524
602.81965
599.32644
595.54403
591.46217
587.07216
582.36705
577.34187
571.99383
566.32244
560.32972
554.02027
547.40139
540.4831
533.27814
525.80197
518.07264
510.1107
501.93901
493.58251
485.06798
476.42373
467.67928
458.865
450.01171
441.15032
432.31144
423.52496
414.81973
406.22322
397.76117
389.45739
381.33353
373.40886
365.70021
358.22194
350.98588
344.00141
337.27555
330.81302
324.61645
318.68648
313.02201
307.62031
302.47726
636.94485
634.89916
632.64558
630.16686
627.44753
624.47262
621.22775
617.69935
613.87486
609.74297
605.29388
600.51948
595.41362
589.97227
584.19375
578.07886
571.63105
564.85649
557.76419
550.36599
542.67655
534.71331
526.49639
518.04839
509.39425
500.56096
491.5773
482.47349
473.28086
464.03144
454.75758
445.49151
436.26499
427.10884
418.05263
409.12432
400.34995
391.75342
383.35626
375.17745
367.23337
359.5378
352.10188
344.93421
338.04095
331.42594
325.09087
319.03548
313.25771
307.75397
302.51925
653.17416
650.92052
648.44221
645.72129
642.74196
639.48905
635.94808
632.10553
627.94903
623.46763
618.65201
613.49475
607.99051
602.13628
595.93151
589.37834
582.48164
575.24921
567.69174
559.82289
551.65924
543.22018
534.52783
525.60683
516.48413
507.1887
497.75123
488.20379
478.5794
468.91168
459.23436
449.58091
439.98411
430.47561
421.08559
411.84239
402.77224
393.89904
385.24412
376.82611
368.66089
360.7616
353.13867
345.79988
338.75054
331.9936
325.52984
319.35807
313.47539
307.87729
302.55797
668.87386
666.41081
663.70661
660.74274
657.50313
653.97244
650.13619
645.98095
641.4946
636.66659
631.48816
625.9526
620.05545
613.79472
607.17104
600.18786
592.85154
585.17144
577.15997
568.83257
560.2077
551.30667
542.15356
532.77496
523.19979
513.45891
503.58485
493.6114
483.57321
473.50534
463.44285
453.42032
443.47143
433.62855
423.92237
414.38153
405.03236
395.89867
387.00154
378.35917
369.98691
361.89722
354.09979
346.60161
339.40712
332.51839
325.9353
319.65581
313.67612
307.99093
302.59362
683.98628
681.31431
678.38516
675.17976
671.68183
667.87594
663.74764
659.28365
654.47216
649.30304
643.76815
637.86151
631.57955
624.92133
617.88867
610.48635
602.72218
594.60709
586.15517
577.38362
568.3127
558.96562
549.36834
539.54937
529.53946
519.37132
509.07922
498.69858
488.26556
477.81659
467.38792
457.01514
446.73275
436.57374
426.5692
416.748
407.13648
397.7583
388.63424
379.78202
371.21641
362.94922
354.98937
347.34304
340.01383
333.00293
326.3094
319.93032
313.86107
308.09556
302.62643
698.46913
695.5905
692.43916
688.99557
685.24328
681.16683
676.75182
671.98517
666.85542
661.35292
655.47012
649.20182
642.54537
635.50086
628.07131
620.26281
612.0846
603.54916
594.6722
585.47265
575.97255
566.19689
556.17349
545.93265
535.50693
524.93075
514.24004
503.47177
492.6635
481.85294
471.0774
460.37342
449.7762
439.31925
429.03401
418.94947
409.09195
399.4849
390.14872
381.10067
372.35491
363.92255
355.81179
348.02798
340.57392
333.44995
326.65431
320.18325
314.03138
308.19186
302.65661
712.29377
709.21227
705.84311
702.16631
698.16532
693.82466
689.13006
684.06866
678.62935
672.80299
666.58267
659.96395
652.9451
645.52725
637.7146
629.51452
620.93766
611.998
602.71285
593.10279
583.19156
573.00593
562.57542
551.9321
541.11022
530.14586
519.07648
507.9405
496.77681
485.62426
474.5212
463.50495
452.61136
441.8744
431.32574
420.99447
410.9068
401.08595
391.55192
382.32145
373.4081
364.82231
356.57152
348.66031
341.09066
333.86214
326.97216
320.41623
314.18818
308.28048
302.68438
725.44338
722.1641
718.5828
714.67916
710.43654
705.83949
700.87386
695.52707
689.78838
683.64916
677.10315
670.14668
662.77891
655.00201
646.82133
638.2455
629.28654
619.95989
610.28438
600.28221
589.97874
579.40241
568.58443
557.55852
546.36053
535.0281
523.60015
512.11645
500.61711
489.14207
477.73056
466.42066
455.24878
444.24924
433.45393
422.89194
412.58937
402.56915
392.85087
383.45074
374.38171
365.65355
357.27296
349.24379
341.56724
334.2421
327.26503
320.63079
314.33253
308.36204
302.70993
737.91121
734.44029
730.65365
726.53064
722.0546
717.21011
711.98319
706.36152
700.33477
693.89481
687.03603
679.75553
672.05335
663.93268
655.39998
646.4651
637.14139
627.44567
617.39829
607.02294
596.34658
585.39923
574.21369
562.82524
551.27128
539.59088
527.82435
516.01273
504.19724
492.41882
480.71753
469.1321
457.69943
446.45416
435.42831
424.65097
414.14805
403.94218
394.05253
384.49478
375.28128
366.42114
357.92036
349.78205
342.00668
334.5923
327.53484
320.82839
314.46543
308.43709
302.73344
749.69895
746.04335
742.05901
737.725
733.02461
727.94251
722.4649
716.57973
710.27707
703.54932
696.39149
688.80144
680.78007
672.33156
663.46344
654.18675
644.51609
634.46967
624.0692
613.33988
602.31014
591.01152
579.47832
567.74732
555.85735
543.84886
531.76344
519.64329
507.5307
495.4675
483.4945
471.65104
459.97443
448.49957
437.25859
426.2805
415.59103
405.21251
395.16364
385.4596
376.11215
367.12976
358.51774
350.27851
342.41182
334.91504
327.78342
321.01038
314.58778
308.50618
302.75508
760.81516
756.98246
752.80872
748.2727
743.35769
738.04846
732.33137
726.19469
719.62886
712.6268
705.18415
697.29949
688.97459
680.21454
671.02792
661.42692
651.42734
641.04868
630.31401
619.2499
607.88622
596.25594
584.39478
572.34093
560.13457
547.81743
535.4323
523.02248
510.63123
498.3012
486.07391
473.9892
462.08475
450.39569
438.9542
427.78921
416.92626
406.3873
396.19064
386.35094
376.87937
367.78379
359.06887
350.73634
342.7853
335.21246
328.01241
321.17798
314.70043
308.56977
302.77499
771.27389
767.27204
762.91769
758.18912
753.06967
747.5442
741.59926
735.22341
728.4075
721.14494
713.43197
705.2679
696.65529
687.60014
678.11205
668.20426
657.89375
647.20124
636.15109
624.77118
613.09273
601.15006
588.98025
576.62279
564.11913
551.51223
538.84598
526.1647
513.51254
500.93292
488.46798
476.15802
464.04106
452.1524
440.52424
429.18542
418.16126
407.47337
397.13961
387.17417
377.58766
368.38734
359.57726
351.15852
343.12958
335.48653
328.22337
321.33234
314.80415
308.62831
302.79332
781.0935
776.93058
772.40473
767.49343
762.17997
756.44939
750.28844
743.68595
736.63319
729.12404
721.15534
712.72707
703.84258
694.50873
684.73606
674.53886
663.9352
652.94697
641.59974
629.92264
617.94816
605.71189
593.2522
580.60979
567.82733
554.94889
542.0194
529.08413
516.18806
503.3753
490.68855
478.16856
465.85361
453.77915
441.97738
430.47702
419.30316
408.4771
398.01625
387.93433
378.24143
368.94422
360.04616
351.54777
343.44691
335.73907
328.4177
321.47448
314.89964
308.68218
302.81018
790.29545
785.97958
781.29149
776.20751
770.71065
764.78617
758.42108
751.60452
744.32812
736.58625
728.37631
719.69894
710.5582
700.96182
690.92122
680.45167
669.57228
658.30605
646.67969
634.7235
622.47118
609.95953
597.22808
584.31873
571.27525
558.14274
544.96714
531.79457
518.67077
505.64051
492.74701
480.03137
467.53215
455.28489
443.32177
431.67141
420.35866
409.40447
398.82587
388.63609
378.84474
369.45793
360.47858
351.90662
343.73936
335.97174
328.59668
321.60536
314.98754
308.73176
302.8257
798.90229
794.44343
789.6019
784.35527
778.68558
772.57838
766.02095
759.00274
751.51576
743.55485
735.11794
726.20628
716.82465
706.98156
696.68928
685.964
674.82584
663.29881
651.4107
639.19294
626.68034
613.91083
600.92507
587.76603
574.47854
561.10868
547.70329
534.30929
520.97315
507.74022
494.65417
481.75648
469.08589
456.67804
444.56511
432.77554
421.33398
410.26106
399.5734
389.2838
379.40138
369.93174
360.87726
352.23736
344.00881
336.18605
328.76148
321.72584
315.06842
308.77737
302.83996
802.3468
797.36161
791.96208
786.12989
779.85092
773.11272
765.90507
758.22032
750.05374
741.40379
732.27229
722.66472
712.59028
702.0621
691.0972
679.71664
667.94541
655.81231
643.34982
630.5938
617.58324
604.35984
590.96762
577.45234
563.86103
550.24135
536.64099
523.10706
509.68545
496.42028
483.35331
470.52349
457.96653
445.71455
433.79589
422.23495
411.05204
400.26342
389.88146
379.91482
370.36863
361.24476
352.54213
344.25702
336.38339
328.91319
321.83671
315.14282
308.81931
302.85308
809.72065
804.59785
799.0541
793.06931
786.62921
779.72153
772.33631
764.46624
756.107
747.25752
737.9202
728.10112
717.8102
707.06131
695.87231
684.26511
672.26563
659.90361
647.21251
634.22919
620.99363
607.5485
593.93878
580.21114
566.41346
552.59418
538.80169
525.08371
511.48663
498.05496
484.83073
471.85307
459.15773
446.7768
434.73848
423.06694
411.7822
400.90014
390.43276
380.38828
370.77135
361.5834
352.82288
344.48559
336.56505
329.05279
321.93868
315.21123
308.85785
302.86512
816.58672
811.33613
805.65732
799.52963
792.93874
785.87252
778.32123
770.27788
761.73853
752.70256
743.17291
733.15624
722.66312
711.70812
700.30989
688.49115
676.27866
663.70308
650.79876
637.6035
624.15819
610.50645
596.69412
582.76873
568.77895
554.77396
540.80278
526.9137
513.15357
499.56725
486.19703
473.08219
460.25853
447.75808
435.6089
423.83495
412.45596
401.48749
390.94113
380.82471
371.14245
361.89534
353.08139
344.69597
336.73219
329.18118
322.03242
315.27408
308.89324
302.87618
822.97166
817.60237
811.79754
805.53643
798.80476
791.59055
783.88426
775.67921
766.97182
757.76189
748.05284
737.8519
727.17024
716.02311
704.42986
692.41397
680.00301
667.22848
654.12557
640.73295
627.0924
613.24836
599.24752
585.13819
570.96979
556.79217
542.65496
528.60695
514.69544
500.9656
487.45996
474.21793
461.27533
448.66416
436.41234
424.54362
413.07745
402.02907
391.40973
381.22685
371.48427
362.18256
353.31932
344.88953
336.8859
329.29919
322.11855
315.3318
308.92572
302.88631
828.902
823.42239
817.50024
811.11483
804.25201
796.89993
789.04927
780.69361
771.82971
762.45779
752.58172
742.20923
731.35207
720.0261
708.25135
696.05201
683.4564
670.49678
657.20916
643.63302
629.81092
615.78813
601.61208
587.33186
572.99754
558.65961
544.36827
530.17279
516.12083
502.2579
488.62674
475.26684
462.21409
449.50042
437.15361
425.19722
413.65045
402.52822
391.84145
381.59721
371.79897
362.44689
353.5382
345.06751
337.02718
329.40761
322.19763
315.38476
308.9555
302.8956
834.40353
828.82146
822.7903
816.28933
809.30456
801.82428
793.83938
785.34369
776.33431
766.8118
756.78047
746.24853
735.22826
723.7361
711.79269
699.42289
686.65571
673.52414
660.06495
646.31834
632.32765
618.13888
603.80019
589.36134
574.87306
560.38642
545.95213
531.6199
517.43777
503.45152
489.70408
476.23505
463.08034
450.27182
437.83717
425.79974
414.17847
402.98803
392.23901
381.93814
372.08853
362.69001
353.73943
345.23107
337.15694
329.50713
322.27017
315.43331
308.98278
302.90409
839.50117
833.8241
827.6918
821.08361
813.98566
806.38639
798.27689
789.65124
780.50682
770.84456
760.66915
749.98924
738.81761
727.17122
715.07131
702.54334
689.61698
676.32588
662.7075
648.80276
634.65569
620.31298
605.82347
591.23755
576.60655
561.98207
547.41532
532.95641
518.65373
504.5533
490.69823
477.12823
463.87922
450.983
438.46715
426.35484
414.66478
403.41136
392.6049
382.25179
372.35482
362.91349
353.92432
345.38127
337.27604
329.59842
322.33668
315.47778
309.00774
302.91186
844.21893
838.4539
832.22795
825.52044
818.31763
810.6081
802.38315
793.63707
784.36754
774.57579
764.26687
753.44986
742.13798
730.3487
718.10377
705.42924
692.35537
678.91645
665.15058
651.09932
636.80737
622.32206
607.69284
592.97071
578.20753
563.45544
548.76606
534.18991
519.77568
505.56962
491.61502
477.95166
464.61548
451.63824
439.04739
426.86594
415.11238
403.80086
392.94141
382.54015
372.59954
363.11878
354.09409
345.51911
337.38527
329.6821
322.39759
315.51848
309.03057
302.91895
848.57981
842.7335
836.42099
829.62163
822.32182
814.5103
806.17853
797.32105
787.93577
778.02422
767.59181
756.64796
745.20632
733.28482
720.90572
708.09557
694.8852
681.30949
667.40713
653.22029
638.79428
624.17701
609.41853
594.57038
579.68494
564.8148
550.01202
535.32746
520.8101
506.50642
492.45984
478.71024
465.29356
452.24151
439.58144
427.33621
415.52408
404.15899
393.25071
382.80507
372.82428
363.30722
354.24984
345.64551
337.48538
329.75873
322.45332
315.55568
309.05141
302.92541
852.60579
846.68452
840.29211
833.40795
826.01856
818.11285
809.68243
800.72205
791.22985
781.20766
770.66117
759.60016
748.03865
735.995
723.49192
710.55646
697.21995
683.51783
669.48933
655.17719
640.62727
625.88806
611.01012
596.0455
581.04709
566.06788
551.16034
536.37564
521.76304
507.36921
493.23772
479.40852
465.91756
452.7965
440.07261
427.76856
415.90246
404.48802
393.53477
383.04828
373.03051
363.48006
354.39262
345.76132
337.57704
329.82885
322.50428
315.58967
309.07042
302.93129
856.31777
850.32748
843.86147
836.89914
829.42717
821.43459
812.91319
803.85791
794.26714
784.14292
773.49122
762.32216
750.65009
738.49376
725.8763
712.82521
699.37231
685.55352
671.4086
656.98081
642.31652
627.46475
612.47655
597.40444
582.30176
567.2219
552.21768
537.34058
522.64011
508.16314
493.95334
480.05075
466.49131
453.30666
440.52395
428.16574
416.24994
404.79006
393.79543
383.27138
373.21959
363.63846
354.52341
345.86733
337.66089
329.89294
322.55082
315.62067
309.08775
302.93665
859.7356
853.6819
847.14819
840.11392
832.56592
824.49335
815.88818
806.74554
797.06401
786.84586
776.09732
764.82877
753.05489
740.79477
728.07195
714.91432
701.35417
687.42786
673.17564
658.64125
643.87156
628.91603
613.82619
598.655
583.4562
568.28357
553.19025
538.228
523.44656
508.89298
494.61105
480.64085
467.01836
453.77515
440.93832
428.53026
416.56874
405.06709
394.03441
383.47583
373.39281
363.78349
354.6431
345.96429
337.73754
329.95148
322.59329
315.64893
309.10352
302.94151
862.87809
856.76621
850.17035
843.06998
835.45208
827.30597
818.62379
809.40086
799.63592
789.33146
778.49391
767.13391
755.26643
742.91088
730.09115
716.83553
703.17669
689.15145
674.80049
660.168
645.30128
630.25025
615.06685
599.80447
584.5172
569.25917
554.08383
539.04321
524.18726
509.56317
495.21487
481.18249
467.502
454.20495
441.31835
428.86448
416.86095
405.32092
394.25331
383.66303
373.55134
363.91617
354.75254
346.0529
337.80753
330.0049
322.632
315.67467
309.11786
302.94592
865.76298
859.59785
852.94502
845.784
838.10194
829.88832
821.13547
811.83886
801.99742
791.61378
780.69459
769.25069
757.29731
744.85416
731.94544
718.59982
704.85034
690.73422
676.29253
661.5699
646.61402
631.47522
616.20585
600.85964
585.49105
570.15454
554.90382
539.79117
524.86674
510.17787
495.76858
481.67907
467.94531
454.59881
441.66651
429.17059
417.1285
405.55326
394.4536
383.83425
373.69627
364.03742
354.85249
346.13378
337.87137
330.05358
322.66725
315.69808
309.13089
302.94992
868.40703
862.19327
855.4883
848.27171
840.53083
832.25533
823.43772
814.07365
804.16217
793.70606
782.71212
771.1914
759.15933
746.63591
733.64565
720.21752
706.38492
692.18545
677.66056
662.85523
647.81756
632.59824
617.24998
601.82686
586.38366
570.97512
555.65523
540.47649
525.48922
510.74091
496.27568
482.13375
468.35113
454.95928
441.98508
429.45061
417.37318
405.76567
394.63665
383.99068
373.82864
364.1481
354.9437
346.20753
337.92956
330.09792
322.69933
315.71935
309.1427
302.95354
870.82603
864.56793
857.81534
850.54792
842.75319
834.42104
825.54419
816.11847
806.14302
795.62072
784.55851
772.96758
760.8636
748.26678
735.20191
721.69828
707.78962
693.51385
678.91278
664.03174
648.91918
633.62612
618.20561
602.71205
587.20051
571.726
556.34276
541.10348
526.05865
511.25589
496.73941
482.54949
468.72212
455.28875
442.27619
429.70643
417.59666
405.95963
394.80375
384.13343
373.94939
364.24903
355.02682
346.27472
337.98253
330.13825
322.72848
315.73866
309.15342
302.95681
873.03485
866.73643
859.9404
852.62653
844.78256
836.39862
827.46769
817.98577
807.95203
797.36944
786.245
774.59007
762.42049
749.75669
736.62372
723.05116
709.07301
694.72755
680.05688
665.10667
649.92567
634.56523
619.07869
603.52075
587.94674
572.41193
556.97076
541.67613
526.57868
511.72615
497.16282
482.92902
469.06075
455.58943
442.54182
429.9398
417.80049
406.13648
394.95608
384.26353
374.0594
364.34094
355.10249
346.33586
338.0307
330.1749
322.75494
315.75617
309.16312
302.95977
875.0475
868.71245
861.87687
854.52062
846.63167
838.20044
829.22021
819.68723
809.60053
798.96315
787.78216
776.06903
763.83977
751.115
737.92
724.28462
710.24316
695.83417
681.10006
666.08678
650.84339
635.42152
619.87477
604.25811
588.62712
573.03731
557.54331
542.19819
527.05273
512.15479
497.54872
483.27489
469.36931
455.86337
442.78379
430.15236
417.9861
406.29751
395.09474
384.38192
374.15948
364.42454
355.17129
346.39142
338.07445
330.20817
322.77895
315.77204
309.17189
302.96244
876.87717
870.50888
863.63732
856.24248
848.31246
839.83806
830.81299
821.23379
811.09914
800.41215
789.17989
777.41399
765.13057
752.35043
739.09907
725.4066
711.30758
696.84083
682.04903
666.97842
651.67829
636.20054
620.59903
604.92895
589.24614
573.60627
558.06419
542.67313
527.48398
512.54472
497.89975
483.58949
469.64994
456.1125
443.00381
430.34562
418.15484
406.44387
395.22075
384.4895
374.25041
364.50047
355.23376
346.44184
338.11414
330.23834
322.8007
315.7864
309.17983
302.96484
878.53629
872.13778
865.23351
857.80362
849.83611
841.32231
832.25654
822.63575
812.45781
801.72607
790.44749
778.63386
766.30145
753.47118
740.16876
726.42453
712.27332
697.7542
682.9101
667.78749
652.43591
636.90749
621.25631
605.53779
589.80794
574.12267
558.53697
543.1042
527.87541
512.89863
498.21835
483.87501
469.90463
456.33859
443.20348
430.52099
418.30794
406.57666
395.33507
384.58708
374.33287
364.56931
355.29039
346.48754
338.1501
330.26565
322.82038
315.79938
309.18699
302.96701
880.03655
873.61047
866.67641
859.21487
851.21312
842.66329
833.56066
823.90278
813.68592
802.914
791.59367
779.73703
767.36044
754.48492
741.13637
727.34536
713.14697
698.58052
683.68915
668.51954
653.12146
637.54722
621.85114
606.08881
590.31644
574.5901
558.96493
543.49443
528.22976
513.21903
498.50679
484.13351
470.13523
456.54329
443.38426
430.67976
418.44657
406.69689
395.43857
384.67542
374.40752
364.63163
355.34164
346.52889
338.18263
330.29035
322.83816
315.81111
309.19346
302.96897
881.38896
874.9375
867.97615
860.48643
852.45333
843.8704
834.73444
825.04404
814.7922
803.98445
792.62659
780.73132
768.31506
755.39885
742.00875
728.17561
713.93472
699.32562
684.39168
669.17974
653.73978
638.12429
622.38775
606.58595
590.77527
575.01191
559.35116
543.84665
528.54962
513.50828
498.76721
484.36692
470.34345
456.72814
443.54752
430.82317
418.57178
406.80548
395.53206
384.75521
374.47494
364.68791
355.38793
346.56624
338.212
330.31265
322.85422
315.8217
309.19929
302.97072
882.6038
876.12868
869.14203
861.6279
853.56599
844.95232
835.78632
826.06825
815.78486
804.9455
793.55391
781.6241
769.17238
756.2197
742.79234
728.92137
714.64234
699.99499
685.02285
669.77296
654.29542
638.64293
622.8701
607.03289
591.18782
575.39123
559.69854
544.16349
528.8374
513.76854
499.00157
484.577
470.5309
456.89458
443.69455
430.95233
418.68455
406.90331
395.61628
384.82711
374.5357
364.73866
355.42967
346.59992
338.23849
330.33276
322.8687
315.83124
309.20454
302.97231
883.69079
877.19498
870.18401
862.64491
854.5598
845.92235
836.72732
826.97531
816.67144
805.80478
794.38277
782.42223
769.93901
756.95382
743.49314
729.58836
715.27525
700.59373
685.58749
670.30371
654.79265
639.10712
623.3019
607.43306
591.55727
575.731
560.00977
544.44741
529.09533
514.00187
499.21172
484.76543
470.69906
457.04392
443.82648
431.06825
418.7858
406.99117
395.69195
384.89173
374.59033
364.78428
355.4672
346.63021
338.26233
330.35086
322.88173
315.83982
309.20926
302.97373
878.1419
871.10916
863.54862
855.44273
846.78389
837.56609
827.78477
817.45061
806.56963
795.11981
783.13219
770.62118
757.60712
744.1168
730.18193
715.83851
701.12664
686.09012
670.77627
655.23545
639.52059
623.6866
607.78968
591.8866
576.03394
560.28733
544.70069
529.3255
514.21015
499.39936
484.93371
470.84929
457.17737
443.94444
431.17193
418.87641
407.06981
395.75973
384.94963
374.63929
364.82519
355.50087
346.65739
338.28372
330.36711
322.89343
315.84754
309.21351
302.97501
878.97721
871.92561
864.34631
856.22225
847.54449
838.30687
828.50481
818.13978
807.23792
795.77112
783.76002
771.22474
758.18518
744.66859
730.70708
716.33688
701.5982
686.53498
671.1946
655.62753
639.88681
624.02744
608.10574
592.17857
576.30262
560.53359
544.92548
529.52984
514.39511
499.56606
485.08329
470.98288
457.29612
444.04947
431.26431
418.95716
407.13995
395.82019
385.00131
374.68303
364.86175
355.53098
346.68172
338.30288
330.38167
322.90393
315.85446
309.21733
302.97616
879.71163
872.64065
865.04503
856.90536
848.21118
838.95644
829.13642
818.74988
807.81563
796.34352
784.31149
771.75521
758.69321
745.15345
731.1685
716.77479
702.01264
686.92603
671.56245
655.97241
640.20905
624.32747
608.38405
592.43576
576.53938
560.75069
545.12375
529.71017
514.55844
499.71335
485.21555
471.10108
457.40124
444.14248
431.34616
419.02877
407.20219
395.87388
385.04723
374.72192
364.89429
355.5578
346.7034
338.31997
330.39467
322.91331
315.86065
309.22075
302.97719
873.26165
865.65151
857.49865
848.79047
839.52115
829.68583
819.28325
808.32108
796.83357
784.79191
772.21776
759.13608
745.576
731.57058
717.15641
702.37387
687.26699
671.88327
656.27332
640.49033
624.58946
608.6272
592.6606
576.74649
560.94071
545.2974
529.86821
514.70167
499.84262
485.33169
471.20494
457.49369
444.22435
431.41827
419.09191
407.25711
395.9213
385.08784
374.75633
364.92311
355.58158
346.72265
338.33517
330.40625
322.92167
315.86618
309.2238
302.97812
873.79411
866.17227
858.00826
849.28843
840.00695
830.1588
819.74252
808.76157
797.24624
785.20749
772.61722
759.51832
745.94053
731.91738
717.48559
702.68554
687.56127
672.16032
656.53331