/*--------------------------------*- C++ -*----------------------------------*\
| =========                 |                                                 |
| \\      /  F ield         | OpenFOAM: The Open Source CFD Toolbox           |
|  \\    /   O peration     | Version:  2312                                  |
|   \\  /    A nd           | Website:  www.openfoam.com                      |
|    \\/     M anipulation  |                                                 |
\*---------------------------------------------------------------------------*/
FoamFile
{
    version     2.0;
    format      ascii;
    arch        "LSB;label=32;scalar=64";
    class       volScalarField;
    location    "0.07";
    object      alphat;
}
// * * * * * * * * * * * * * * * * * * * * * * * * * * * * * * * * * * * * * //

dimensions      [1 -1 -1 0 0 0 0];

internalField   nonuniform List<scalar> 
3251
(
0.02321243
0.023405661
0.023606821
0.023816121
0.02403376
0.024259937
0.02449485
0.024738695
0.024991666
0.025253956
0.025525756
0.025807253
0.026098631
0.026400068
0.026711737
0.027033807
0.027366435
0.027709772
0.028063961
0.028429133
0.028805406
0.029192887
0.029591671
0.030001834
0.030423441
0.030856538
0.031301154
0.0317573
0.032224968
0.032704133
0.033194748
0.033696747
0.034210044
0.034734533
0.035270088
0.035816565
0.036373799
0.036941606
0.037519786
0.03810812
0.038706374
0.039314299
0.039931631
0.040558097
0.041193411
0.041837281
0.042489408
0.043149497
0.043817255
0.0444924
0.045174673
0.045863891
0.046560114
0.047262835
0.047971356
0.048685365
0.049404608
0.050128864
0.023213677
0.023406914
0.023608091
0.02381741
0.024035067
0.024261263
0.024496193
0.024740055
0.024993042
0.025255349
0.025527165
0.025808678
0.026100071
0.026401523
0.026713207
0.02703529
0.027367931
0.027711282
0.028065484
0.028430667
0.028806951
0.029194443
0.029593237
0.03000341
0.030425025
0.03085813
0.031302753
0.031758905
0.032226579
0.032705748
0.033196367
0.033698368
0.034211667
0.034736158
0.035271714
0.03581819
0.036375422
0.036943227
0.037521403
0.038109733
0.038707982
0.039315902
0.039933229
0.04055969
0.041195001
0.04183887
0.042491
0.043151097
0.043818869
0.044494035
0.045176337
0.045865581
0.04656167
0.047264174
0.04797254
0.048686424
0.04940556
0.050129768
0.023216239
0.023409498
0.023610706
0.02382006
0.024037752
0.024263982
0.024498945
0.024742839
0.024995859
0.025258197
0.025530043
0.025811586
0.026103008
0.026404488
0.026716199
0.027038308
0.027370975
0.02771435
0.028068574
0.028433779
0.028810084
0.029197595
0.029596407
0.030006596
0.030428226
0.030861344
0.031305978
0.03176214
0.032229823
0.032708998
0.033199622
0.033701626
0.034214926
0.034739415
0.035274968
0.035821439
0.036378664
0.03694646
0.037524626
0.038112943
0.038711178
0.039319082
0.039936392
0.040562835
0.041198128
0.041841979
0.042494095
0.043154179
0.043821941
0.044497099
0.045179393
0.045868607
0.046564556
0.047266857
0.047975047
0.048688777
0.049407765
0.050131813
0.023220106
0.023413406
0.023614663
0.023824066
0.024041809
0.024268089
0.024503101
0.024747044
0.02500011
0.025262494
0.025534385
0.025815971
0.026107436
0.026408957
0.026720708
0.027042855
0.027375558
0.027718968
0.028073226
0.028438462
0.028814796
0.029202335
0.029601172
0.030011384
0.030433035
0.030866172
0.031310822
0.031766997
0.03223469
0.032713874
0.033204502
0.033706509
0.034219809
0.034744295
0.035279841
0.035826303
0.036383516
0.036951296
0.037529443
0.038117739
0.03871595
0.039323827
0.039941108
0.040567521
0.041202781
0.041846598
0.04249868
0.04315873
0.043826458
0.044501581
0.045183831
0.045872971
0.046568768
0.047270867
0.047978863
0.048692411
0.049411219
0.050134915
0.023225274
0.023418635
0.023619957
0.023829427
0.024047236
0.024273581
0.024508659
0.024752664
0.025005792
0.025268237
0.025540187
0.02582183
0.02611335
0.026414925
0.026726728
0.027048925
0.027381676
0.027725132
0.028079433
0.02844471
0.028821082
0.029208657
0.029607526
0.030017768
0.030439446
0.030872605
0.031317275
0.031773467
0.032241174
0.032720367
0.033211001
0.03371301
0.034226307
0.034750787
0.035286324
0.035832772
0.036389967
0.036957725
0.037535846
0.038124112
0.038722289
0.039330128
0.039947368
0.040573736
0.041208948
0.041852716
0.042504745
0.043164741
0.043832412
0.044507471
0.045189645
0.045878677
0.046574306
0.047276194
0.047983976
0.048697322
0.049415949
0.023231372
0.023424808
0.023626207
0.023835756
0.024053643
0.024280064
0.024515217
0.024759296
0.025012497
0.025275011
0.02554703
0.02582874
0.026120324
0.026421962
0.026733825
0.027056081
0.027388887
0.027732396
0.028086747
0.028452071
0.028828488
0.029216103
0.02961501
0.030025286
0.030446994
0.03088018
0.031324873
0.031781084
0.032248804
0.032728008
0.033218648
0.033720658
0.034233952
0.034758424
0.035293948
0.035840379
0.036397551
0.036965283
0.037543372
0.038131602
0.038729737
0.03933753
0.03995472
0.040581033
0.041216186
0.041859891
0.042511854
0.04317178
0.043839374
0.044514349
0.045196422
0.045885324
0.046580777
0.047282454
0.047990014
0.048703154
0.049421707
0.023238213
0.023431736
0.023633223
0.023842858
0.024060832
0.024287339
0.024522575
0.024766736
0.025020017
0.02528261
0.025554705
0.02583649
0.026128146
0.026429853
0.026741784
0.027064104
0.027396972
0.027740539
0.028094946
0.028460322
0.028836788
0.029224448
0.029623397
0.03003371
0.030455452
0.030888667
0.031333385
0.031789616
0.032257352
0.032736566
0.033227211
0.033729222
0.034242512
0.034766975
0.035302484
0.035848894
0.036406042
0.036973742
0.037551795
0.038139983
0.038738071
0.039345812
0.039962944
0.040589194
0.04122428
0.041867912
0.042519798
0.04317964
0.043847144
0.044522018
0.045203975
0.045892732
0.046588
0.047289463
0.047996794
0.048709714
0.049428129
0.023246338
0.023439965
0.023641555
0.023851294
0.02406937
0.024295977
0.024531313
0.024775571
0.025028947
0.025291632
0.025563818
0.02584569
0.026137431
0.02643922
0.02675123
0.027073626
0.027406567
0.027750203
0.028104675
0.028470113
0.028846636
0.029234349
0.029633346
0.030043704
0.030465484
0.030898734
0.03134348
0.031799734
0.032267488
0.032746714
0.033237366
0.033739378
0.034252662
0.034777112
0.035312604
0.03585899
0.036416106
0.036983769
0.037561779
0.038149916
0.038747948
0.039355626
0.039972688
0.040598862
0.041233865
0.041877409
0.0425292
0.04318894
0.043856333
0.044531083
0.045212898
0.045901484
0.046596545
0.04729777
0.048004846
0.048717504
0.049435629
0.023255844
0.023449594
0.023651306
0.023861165
0.02407936
0.024306085
0.024541536
0.024785907
0.025039393
0.025302186
0.025574477
0.02585645
0.026148291
0.026450175
0.026762277
0.027084761
0.027417786
0.027761503
0.028116051
0.02848156
0.028858149
0.029245925
0.029644978
0.030055386
0.030477212
0.0309105
0.03135528
0.031811561
0.032279335
0.032758575
0.033249234
0.033751245
0.034264522
0.034788958
0.035324428
0.035870785
0.036427864
0.036995483
0.037573441
0.038161519
0.038759483
0.039367086
0.039984066
0.04061015
0.041245056
0.041888494
0.04254017
0.043199788
0.043867048
0.04454165
0.045223297
0.045911686
0.046606515
0.047307476
0.04801427
0.048726628
0.023266837
0.02346073
0.023662582
0.023872581
0.024090913
0.024317773
0.024553356
0.024797858
0.025051471
0.025314388
0.025586799
0.02586889
0.026160844
0.026462839
0.026775046
0.027097631
0.027430754
0.027774562
0.028129198
0.028494789
0.028871455
0.029259301
0.029658418
0.030068885
0.030490762
0.030924096
0.031368913
0.031825225
0.032293022
0.032772277
0.033262943
0.033764953
0.034278221
0.03480264
0.035338084
0.035884407
0.036441443
0.037009011
0.037586908
0.038174916
0.038772803
0.039380318
0.039997201
0.04062318
0.041257971
0.041901285
0.042552827
0.0432123
0.043879403
0.044553833
0.045235285
0.04592345
0.046618019
0.047318691
0.048025177
0.048737245
0.02327943
0.023473486
0.0236755
0.023885657
0.024104146
0.024331161
0.024566895
0.024811545
0.025065303
0.025328362
0.025600911
0.025883135
0.026175219
0.026477339
0.026789666
0.027112368
0.027445601
0.027789514
0.028144249
0.028509934
0.028886686
0.029274612
0.029673803
0.030084336
0.030506272
0.030939656
0.031384516
0.031840862
0.032308685
0.032787957
0.033278631
0.03378064
0.034293897
0.034818296
0.035353709
0.035899992
0.036456979
0.037024487
0.037602314
0.038190242
0.038788038
0.039395453
0.040012225
0.040638081
0.041272739
0.041915909
0.042567295
0.043226601
0.043893522
0.044567754
0.045248985
0.045936897
0.046631177
0.047331532
0.048037685
0.023293744
0.023487985
0.023690181
0.023900519
0.024119186
0.024346375
0.024582281
0.024827099
0.025081021
0.02534424
0.025616945
0.025899321
0.026191551
0.026493812
0.026806277
0.027129109
0.027462467
0.027806499
0.028161346
0.028527136
0.028903987
0.029292004
0.029691278
0.030101885
0.030523887
0.030957328
0.031402236
0.03185862
0.032326472
0.032805763
0.033296445
0.033798452
0.034311696
0.034836071
0.03537145
0.035917687
0.036474616
0.037042055
0.037619802
0.038207639
0.038805331
0.039412631
0.040029275
0.040654991
0.041289497
0.041932501
0.04258371
0.043242822
0.043909537
0.044583544
0.045264526
0.045952157
0.046646117
0.047346127
0.048051969
0.023309906
0.023504357
0.02370676
0.023917301
0.024136167
0.024363553
0.024599652
0.024844659
0.025098766
0.025362165
0.025635044
0.025917591
0.026209986
0.026512407
0.026825024
0.027148004
0.027481502
0.027825668
0.028180641
0.028546549
0.028923511
0.029311629
0.029710996
0.030121687
0.030543762
0.030977268
0.031422229
0.031878656
0.032346539
0.032825851
0.033316542
0.033818546
0.034331775
0.034856123
0.035391462
0.035937646
0.03649451
0.037061871
0.037639527
0.03822726
0.038824834
0.039432003
0.040048502
0.04067406
0.041308392
0.041951209
0.042602213
0.043261107
0.043927587
0.044601341
0.045282047
0.045969368
0.046662975
0.047362612
0.023328056
0.023522742
0.023725375
0.023936144
0.024155235
0.024382841
0.024619156
0.024864373
0.025118687
0.025382287
0.025655363
0.025938099
0.026230679
0.026533278
0.026846067
0.02716921
0.027502866
0.027847181
0.028202295
0.028568336
0.02894542
0.029333652
0.029733122
0.030143906
0.030566065
0.030999641
0.031444662
0.031901136
0.032369055
0.032848388
0.033339089
0.033841089
0.0343543
0.034878617
0.035413911
0.035960035
0.036516826
0.037084099
0.037661652
0.038249267
0.038846709
0.03945373
0.040070066
0.040695444
0.041329581
0.041972185
0.04262296
0.043281607
0.043947822
0.044621296
0.045301699
0.045988682
0.046681902
0.047381181
0.023348342
0.023543289
0.02374618
0.023957202
0.024176543
0.024404393
0.024640949
0.024886401
0.025140944
0.025404769
0.025678062
0.025961011
0.026253796
0.026556593
0.026869572
0.027192899
0.027526729
0.02787121
0.028226481
0.028592669
0.02896989
0.029358248
0.029757833
0.030168721
0.030590971
0.031024626
0.031469712
0.031926239
0.032394196
0.032873554
0.033364264
0.033866259
0.034379451
0.034903732
0.035438974
0.035985032
0.03654174
0.037108914
0.037686351
0.038273834
0.038871128
0.039477983
0.040094136
0.040719314
0.041353231
0.041995596
0.042646113
0.043304483
0.043970404
0.044643568
0.045323643
0.046010263
0.046703053
0.023370922
0.023566159
0.023769336
0.023980639
0.024200256
0.024428379
0.0246652
0.024910913
0.025165711
0.025429783
0.025703319
0.025986502
0.026279514
0.02658253
0.026895722
0.027219251
0.027553274
0.027897939
0.028253383
0.028619734
0.028997106
0.029385604
0.029785317
0.030196319
0.030618669
0.031052411
0.031497571
0.031954155
0.032422154
0.032901539
0.033392259
0.033894248
0.034407417
0.034931657
0.035466842
0.036012825
0.03656944
0.037136503
0.037713812
0.038301148
0.038898275
0.039504946
0.040120895
0.040745849
0.041379521
0.04202162
0.042671848
0.043329908
0.043995501
0.044668325
0.04534805
0.046034295
0.046726648
0.023395966
0.023591523
0.023795017
0.024006631
0.024226553
0.024454975
0.02469209
0.024938091
0.025193169
0.025457516
0.025731318
0.02601476
0.026308023
0.026611282
0.026924706
0.027248459
0.027582696
0.027927563
0.028283199
0.028649729
0.029027269
0.029415921
0.029815773
0.030226901
0.030649363
0.0310832
0.031528439
0.031985087
0.032453132
0.032932545
0.033423277
0.033925258
0.0344384
0.034962596
0.035497717
0.036043616
0.036600128
0.037167067
0.037744232
0.038331404
0.038928348
0.039534813
0.040150536
0.040775241
0.041408642
0.042050445
0.042700352
0.043358067
0.044023295
0.044695747
0.045375104
0.046060976
0.023423657
0.023619568
0.023823409
0.024035365
0.024255624
0.024484375
0.024721813
0.02496813
0.025223517
0.025488165
0.02576226
0.026045987
0.026339526
0.026643051
0.026956732
0.027280731
0.027615202
0.027960292
0.028316138
0.028682866
0.029060589
0.02944941
0.029849417
0.030260683
0.030683266
0.031117208
0.031562534
0.032019251
0.032487346
0.03296679
0.033457533
0.033959505
0.034472618
0.034996763
0.035531813
0.036077619
0.036634016
0.037200818
0.037777825
0.038364816
0.038961556
0.039567794
0.040183267
0.040807698
0.041440799
0.042082275
0.042731826
0.043389155
0.044053978
0.044726022
0.045404998
0.04609061
0.023454191
0.023650489
0.023854712
0.024067044
0.024287671
0.024516784
0.024754576
0.025001239
0.025256965
0.025521943
0.025796359
0.026080399
0.02637424
0.026678057
0.026992019
0.027316287
0.027651015
0.02799635
0.028352426
0.02871937
0.029097294
0.0294863
0.029886475
0.030297892
0.030720609
0.031154666
0.031600087
0.032056879
0.032525028
0.033004506
0.03349526
0.033997221
0.034510301
0.03503439
0.03556936
0.036115063
0.036671333
0.037237985
0.037814816
0.038401607
0.038998123
0.039604112
0.040219309
0.040843438
0.041476209
0.042117325
0.042766483
0.043423385
0.044087753
0.044759345
0.045437911
0.046123181
0.023487777
0.0236845
0.023889142
0.024101884
0.024322913
0.024552421
0.0247906
0.025037641
0.025293737
0.025559076
0.025833844
0.026118224
0.026412396
0.026716532
0.027030801
0.027355363
0.027690373
0.028035974
0.028392302
0.028759482
0.029137626
0.029526834
0.029927193
0.030338775
0.030761637
0.031195818
0.031641343
0.032098216
0.032566425
0.033045938
0.033536704
0.034038653
0.034551695
0.035075722
0.035610603
0.036156193
0.036712322
0.037278808
0.037855446
0.038442018
0.039038287
0.039644002
0.040258898
0.040882696
0.041515106
0.042155828
0.042804553
0.043460979
0.044124835
0.044795921
0.045474039
0.046158799
0.023524642
0.023721829
0.023926927
0.024140116
0.024361585
0.024591523
0.024830123
0.025077577
0.025334076
0.025599808
0.025874958
0.026159711
0.026454242
0.026758726
0.02707333
0.027398213
0.027733529
0.028079421
0.028436024
0.02880346
0.029181843
0.029571271
0.029971831
0.030383592
0.030806612
0.031240929
0.031686565
0.032143526
0.032611799
0.033091349
0.033582127
0.034084062
0.034597063
0.03512102
0.035655805
0.036201268
0.036757244
0.037323547
0.037899974
0.038486305
0.039082304
0.039687719
0.040302285
0.040925723
0.04155774
0.042198032
0.042846285
0.043502183
0.044165454
0.044835967
0.045513632
0.023565026
0.02376272
0.023968315
0.024181991
0.024403936
0.024634342
0.0248734
0.025121302
0.025378239
0.025644398
0.025919965
0.026205122
0.026500045
0.026804907
0.027119874
0.027445107
0.027780755
0.028126963
0.028483864
0.02885158
0.029230222
0.029619889
0.030020666
0.030432622
0.030855813
0.031290276
0.031736034
0.032193091
0.032661431
0.033141022
0.033631812
0.03413373
0.034646684
0.035170565
0.035705242
0.036250568
0.036806375
0.037372478
0.037948673
0.038534741
0.039130444
0.039735533
0.04034974
0.040972786
0.041604376
0.042244204
0.042891945
0.043547264
0.044209855
0.044879704
0.045557082
0.02360919
0.023807437
0.024013573
0.024227776
0.024450237
0.024681149
0.024920704
0.025169092
0.025426504
0.025693126
0.025969144
0.026254739
0.026550087
0.026855359
0.027170721
0.027496332
0.027832341
0.028178892
0.028536115
0.028904134
0.029283058
0.029672984
0.030073996
0.030486163
0.030909538
0.03134416
0.031790049
0.032247208
0.032715621
0.033195255
0.033686057
0.034187955
0.034700858
0.035224654
0.035759214
0.036304389
0.036860011
0.037425895
0.038001837
0.038587617
0.039182999
0.039787731
0.040401548
0.041024169
0.0416553
0.042294629
0.042941825
0.04359652
0.044258302
0.023657414
0.023856267
0.024062985
0.024277758
0.024500777
0.024732236
0.024972327
0.02522124
0.025479166
0.02574629
0.026022796
0.026308865
0.026604672
0.026910388
0.027226177
0.027552197
0.027888597
0.028235518
0.028593091
0.028961438
0.029340666
0.029730871
0.030132137
0.030544531
0.030968107
0.031402899
0.031848929
0.032306197
0.032774689
0.033254368
0.033745182
0.034247057
0.034759902
0.035283605
0.035818036
0.036363046
0.036918466
0.037484111
0.038059777
0.038645243
0.039240275
0.039844621
0.040458014
0.041080176
0.041710812
0.042349611
0.042996241
0.043650308
0.023710009
0.023909517
0.02411686
0.024332244
0.024555864
0.024787913
0.025028583
0.025278063
0.025536543
0.025804208
0.026081242
0.026367823
0.026664126
0.026970321
0.027286571
0.027613032
0.027949854
0.028297175
0.028655126
0.029023825
0.029403381
0.029793889
0.030195428
0.030608068
0.031031858
0.031466834
0.031913014
0.032370401
0.032838975
0.033318702
0.033809527
0.034311376
0.034824157
0.035347758
0.035882048
0.036426877
0.036982076
0.037547461
0.038122826
0.038707952
0.039302604
0.03990653
0.040519464
0.04114113
0.041771234
0.042409471
0.043055524
0.043709084
0.023574818
0.02376735
0.023967519
0.024175526
0.024391565
0.024615831
0.024848515
0.025089808
0.025339899
0.025598976
0.025867224
0.026144825
0.026431957
0.026728795
0.027035506
0.027352253
0.027679191
0.028016466
0.028364218
0.028722575
0.029091655
0.029471564
0.029862396
0.030264231
0.030677133
0.031101154
0.031536327
0.031982669
0.032440181
0.032908843
0.03338862
0.033879455
0.034381275
0.034893985
0.035417474
0.035951609
0.036496241
0.0370512
0.037616301
0.03819134
0.038776096
0.039370335
0.039973806
0.040586244
0.041207374
0.041836906
0.042474543
0.043119986
0.043772972
0.023636532
0.023829742
0.024030618
0.024239333
0.024456075
0.024681034
0.024914399
0.025156361
0.025407109
0.025666827
0.025935702
0.026213914
0.02650164
0.026799052
0.027106319
0.027423599
0.027751049
0.028088813
0.028437028
0.028795822
0.02916531
0.029545599
0.029936779
0.03033893
0.030752115
0.031176383
0.031611766
0.032058281
0.032515926
0.032984682
0.03346451
0.033955355
0.03445714
0.034969772
0.035493138
0.036027104
0.036571521
0.037126219
0.037691012
0.038265696
0.038850051
0.039443843
0.040046821
0.040658722
0.041279273
0.041908187
0.042545176
0.043189956
0.043842277
0.023703569
0.023897544
0.024099183
0.024308659
0.024526153
0.024751854
0.02498595
0.02522863
0.025480081
0.025740489
0.026010036
0.026288903
0.026577266
0.026875295
0.027183157
0.027501011
0.02782901
0.028167297
0.02851601
0.028875272
0.029245199
0.029625894
0.030017448
0.030419938
0.030833425
0.031257957
0.031693565
0.032140264
0.032598051
0.033066905
0.033546787
0.034037639
0.034539386
0.035051931
0.035575161
0.036108943
0.036653126
0.03720754
0.037771999
0.038346298
0.038930219
0.039523526
0.04012597
0.040737291
0.041357215
0.041985461
0.042621746
0.043265795
0.04391736
0.023776345
0.023971154
0.024173616
0.024383906
0.024602206
0.024828701
0.02506358
0.025307028
0.025559232
0.025820378
0.026090645
0.026370214
0.026659259
0.026957949
0.027266449
0.027584917
0.027913504
0.028252353
0.028601598
0.028961361
0.029331758
0.029712888
0.030104842
0.030507693
0.030921503
0.031346317
0.031782165
0.032229059
0.032686996
0.033155953
0.03363589
0.034126748
0.03462845
0.0351409
0.035663982
0.036197563
0.036741491
0.037295597
0.037859693
0.038433576
0.039017026
0.039609809
0.040211676
0.040822368
0.041441614
0.042069136
0.042704654
0.043347898
0.043998617
0.023855296
0.024051001
0.024254346
0.024465508
0.02468467
0.024912014
0.025147728
0.025391998
0.025645008
0.025906941
0.026177979
0.026458298
0.026748072
0.027047469
0.027356652
0.027675777
0.028004993
0.028344442
0.028694255
0.029054555
0.029425453
0.029807048
0.030199427
0.030602665
0.031016818
0.031441933
0.031878035
0.032325137
0.032783232
0.033252297
0.033732291
0.034223152
0.034724804
0.035237147
0.035760067
0.036293429
0.036837081
0.037390853
0.037954556
0.038527988
0.039110929
0.039703145
0.040304389
0.040914401
0.041532913
0.042159649
0.042794331
0.043436691
0.044086474
0.023940886
0.02413755
0.024341839
0.024553933
0.024774013
0.025002263
0.025238869
0.025484015
0.025737884
0.026000659
0.026272519
0.026553639
0.026844191
0.027144343
0.027454254
0.02777408
0.028103967
0.028444056
0.028794477
0.029155348
0.02952678
0.029908871
0.030301705
0.030705353
0.031119873
0.031545305
0.031981678
0.032428999
0.032887261
0.033356439
0.033836489
0.034327352
0.034828945
0.035341172
0.035863915
0.036397039
0.03694039
0.0374938
0.038057078
0.038630023
0.039212414
0.039804017
0.040404586
0.041013863
0.041631581
0.042257464
0.042891238
0.043532632
0.044181388
0.024033614
0.024231299
0.024436594
0.02464968
0.024870739
0.025099954
0.025337509
0.025583588
0.025838373
0.026102044
0.026374779
0.026656753
0.026948135
0.02724909
0.027559777
0.02788035
0.028210953
0.028551724
0.028902791
0.029264271
0.029636272
0.03001889
0.030412206
0.030816291
0.031231199
0.03165697
0.032093628
0.03254118
0.032999617
0.033468912
0.03394902
0.034439879
0.034941407
0.035453505
0.035976054
0.036508919
0.037051946
0.037604963
0.038167782
0.0387402
0.039321997
0.039912939
0.04051278
0.041121263
0.041738122
0.042363082
0.042995869
0.043636212
0.044283849
0.024134014
0.024332782
0.024539146
0.024753287
0.024975387
0.025205627
0.025444192
0.025691262
0.025947021
0.026211645
0.026485311
0.026768193
0.027060457
0.027362267
0.02767378
0.027995147
0.028326511
0.028668007
0.029019761
0.029381888
0.029754494
0.030137671
0.0305315
0.030936048
0.031351367
0.031777495
0.032214454
0.03266225
0.03312087
0.033590286
0.034070452
0.034561304
0.035062758
0.035574713
0.036097051
0.036629634
0.037172309
0.037724902
0.038287225
0.038859074
0.03944023
0.040030459
0.040629515
0.041237141
0.041853072
0.042477035
0.043108753
0.043747956
0.044394378
0.024242659
0.024442574
0.024650071
0.024865331
0.025088534
0.025319863
0.025559498
0.025807622
0.026064413
0.026330049
0.026604704
0.026888549
0.02718175
0.027484468
0.027796858
0.028119068
0.02845124
0.028793506
0.029145989
0.029508803
0.02988205
0.03026582
0.030660192
0.03106523
0.031480984
0.031907489
0.032344765
0.032792815
0.033251627
0.033721168
0.034201391
0.03469223
0.0351936
0.035705399
0.036227506
0.036759784
0.037302077
0.037854212
0.038416
0.038987236
0.039567701
0.040157162
0.040755372
0.041362075
0.041977005
0.042599891
0.043230454
0.043868424
0.044513532
0.024360162
0.02456129
0.024769986
0.02498643
0.025210801
0.025443282
0.025684052
0.02593329
0.026191176
0.026457884
0.026733587
0.027018454
0.027312648
0.027616328
0.027929647
0.028252752
0.028585779
0.028928861
0.029282117
0.029645657
0.030019583
0.03040398
0.030798926
0.031204481
0.031620694
0.032047597
0.032485206
0.032933523
0.033392533
0.033862203
0.034342482
0.034833302
0.035334577
0.035846204
0.03636806
0.036900007
0.037441887
0.037993528
0.038554739
0.039125316
0.039705037
0.040293671
0.040890971
0.04149668
0.042110533
0.042732257
0.043361577
0.043998217
0.044641909
0.024487184
0.02468959
0.024899551
0.025117245
0.025342851
0.025576549
0.025818518
0.026068936
0.026327979
0.026595821
0.026872633
0.02715858
0.027453825
0.027758523
0.028072826
0.028396876
0.02873081
0.029074754
0.029428827
0.029793136
0.030167778
0.030552839
0.03094839
0.031354491
0.031771186
0.032198506
0.032636464
0.033085061
0.033544277
0.034014078
0.034494411
0.034985205
0.035486374
0.035997811
0.036519394
0.037050982
0.037592418
0.038143526
0.038704116
0.039273983
0.039852905
0.04044065
0.041036972
0.041641613
0.042254308
0.042874785
0.043502765
0.044137975
0.044780144
0.024624428
0.02482818
0.025039473
0.025258485
0.025485392
0.025720374
0.025963609
0.026215271
0.026475536
0.026744576
0.027022558
0.027309647
0.027606001
0.027911776
0.028227117
0.028552167
0.028887057
0.029231912
0.029586847
0.029951967
0.030327366
0.030713125
0.031109314
0.031515989
0.031933192
0.032360949
0.032799273
0.03324816
0.03370759
0.034177523
0.034657907
0.035148668
0.035649718
0.036160948
0.036682234
0.037213434
0.03775439
0.038304925
0.038864848
0.039433952
0.040012017
0.040598809
0.04119408
0.041797575
0.042409028
0.043028165
0.043654709
0.044288384
0.044928918
0.02477265
0.024977816
0.02519051
0.025410907
0.025639184
0.025875518
0.026120084
0.026373058
0.026634611
0.026904912
0.027184129
0.027472421
0.027769946
0.028076854
0.028393291
0.028719394
0.029055293
0.029401109
0.029756953
0.030122927
0.030499122
0.030885616
0.031282476
0.031689754
0.032107489
0.032535703
0.03297441
0.033423599
0.033883248
0.034353316
0.034833748
0.035324467
0.035825383
0.036336387
0.036857351
0.037388133
0.037928571
0.038478491
0.039037697
0.039605985
0.040183131
0.040768901
0.041363048
0.041965316
0.042575438
0.04319314
0.043818145
0.044450176
0.045088959
0.024932657
0.025139304
0.025353467
0.025575318
0.025805033
0.026042788
0.026288755
0.026543107
0.026806014
0.027077644
0.027358159
0.027647718
0.027946474
0.028254577
0.028572167
0.028899379
0.02923634
0.029583166
0.029939966
0.030306839
0.030683871
0.031071137
0.031468701
0.031876611
0.032294902
0.032723597
0.0331627
0.033612203
0.034072078
0.034542282
0.035022757
0.035513426
0.036014194
0.03652495
0.037045566
0.037575897
0.038115781
0.03866504
0.03922348
0.039790892
0.040367055
0.040951733
0.041544679
0.042145634
0.042754332
0.043370501
0.043993861
0.044624135
0.045261047
0.025105309
0.025313506
0.025529206
0.02575258
0.025983803
0.026223046
0.026470482
0.026726281
0.026990611
0.027263635
0.027545514
0.027836404
0.028136455
0.028445813
0.028764615
0.029092993
0.029431069
0.029778957
0.030136762
0.030504578
0.030882488
0.031270565
0.031668866
0.032077438
0.03249631
0.032925505
0.033365023
0.03381485
0.034274957
0.034745299
0.035225813
0.03571642
0.036217024
0.036727512
0.037247753
0.037777599
0.038316889
0.038865441
0.039423062
0.039989541
0.040564654
0.041148166
0.041739829
0.042339383
0.042946564
0.043561095
0.0441827
0.044811099
0.045446017
0.02529152
0.025501335
0.025718641
0.025943608
0.026176407
0.026417209
0.026666184
0.026923498
0.027189318
0.027463804
0.027747114
0.0280394
0.02834081
0.028651485
0.028971559
0.029301159
0.029640405
0.029989407
0.030348266
0.030717071
0.031095903
0.031484828
0.031883901
0.032293162
0.032712646
0.033142362
0.033582309
0.034032472
0.034492818
0.034963297
0.035443846
0.035934382
0.036434806
0.036945004
0.037464841
0.03799417
0.038532824
0.039080623
0.03963737
0.040202853
0.040776849
0.041359119
0.041949416
0.042547479
0.043153042
0.043765831
0.044385566
0.04501197
0.045644764
0.025492265
0.025703765
0.025922745
0.026149372
0.026383817
0.026626247
0.02687683
0.02713573
0.027403109
0.027679125
0.027963933
0.028257681
0.028560514
0.028872568
0.029193975
0.029524857
0.02986533
0.030215499
0.030575461
0.030945303
0.031325098
0.031714911
0.032114789
0.032524776
0.032944894
0.033375153
0.033815548
0.034266059
0.03472665
0.035197269
0.035677848
0.036168303
0.036668531
0.037178416
0.037697822
0.038226598
0.038764576
0.039311573
0.039867391
0.040431817
0.041004625
0.041585577
0.042174421
0.0427709
0.043374744
0.04398568
0.044603428
0.045227711
0.045858249
0.025708571
0.025921822
0.026142544
0.026370901
0.02660706
0.026851188
0.027103449
0.027364003
0.027633011
0.027910626
0.028197
0.028492277
0.028796598
0.029110096
0.029432897
0.029765121
0.030106878
0.030458269
0.030819387
0.031190313
0.031571117
0.031961857
0.03236258
0.032773324
0.033194105
0.03362493
0.034065791
0.034516662
0.034977506
0.035448266
0.035928873
0.036419237
0.036919255
0.037428806
0.037947753
0.038475942
0.039013203
0.03955935
0.040114184
0.04067749
0.04124904
0.041828593
0.042415899
0.043010696
0.043612717
0.044221687
0.044837327
0.045459359
0.046087504
0.025941525
0.026156592
0.026379122
0.026609276
0.026847219
0.027093114
0.027347123
0.027609402
0.027880108
0.028159393
0.028447401
0.028744276
0.029050152
0.029365159
0.029689419
0.030023047
0.030366147
0.030718816
0.031081143
0.031453204
0.031835063
0.032226772
0.032628382
0.033039916
0.033461391
0.033892807
0.034334153
0.034785401
0.035246507
0.035717414
0.036198045
0.036688312
0.037188106
0.037697304
0.038215765
0.038743333
0.039279837
0.039825088
0.040378883
0.040941005
0.041511225
0.0420893
0.042674978
0.043267997
0.043868087
0.044474974
0.04508838
0.045708027
0.046333637
0.026192265
0.026409213
0.026633617
0.026865636
0.027105432
0.027353164
0.027608991
0.027873066
0.028145542
0.028426567
0.028716281
0.029014823
0.029322324
0.029638909
0.029964694
0.030299789
0.030644294
0.030998302
0.031361895
0.031735144
0.032118103
0.032510836
0.032913371
0.033325734
0.033747935
0.034179972
0.034621827
0.035073469
0.03553485
0.036005909
0.036486568
0.036976731
0.03747629
0.037985117
0.038503068
0.039029986
0.039565694
0.040110001
0.040662703
0.04122358
0.0417924
0.042368917
0.042952877
0.043544016
0.044142065
0.044746748
0.045357788
0.04597491
0.046597839
0.026461984
0.026680877
0.026907221
0.027141172
0.02738289
0.02763253
0.027890247
0.028156192
0.028430511
0.028713349
0.029004843
0.029305126
0.029614325
0.029932558
0.030259938
0.03059657
0.030942548
0.031297958
0.031662878
0.032037366
0.032421493
0.032815295
0.033218804
0.033632038
0.034055003
0.034487693
0.034930084
0.035382142
0.035843816
0.036315038
0.036795728
0.037285788
0.037785103
0.038293544
0.038810965
0.039337202
0.039872078
0.040415399
0.040966956
0.041526526
0.042093874
0.042668752
0.043250902
0.04384006
0.044435954
0.045038306
0.045646842
0.046261288
0.046881378
0.026751923
0.026972824
0.027201175
0.027437129
0.02768084
0.027932461
0.028192144
0.028460033
0.028736274
0.029021003
0.029314356
0.029616458
0.029927433
0.030247392
0.030576444
0.030914687
0.03126221
0.031619094
0.031985399
0.032361208
0.032746558
0.033141488
0.033546023
0.033960177
0.034383951
0.034817332
0.035260293
0.035712795
0.036174782
0.036646183
0.037126914
0.037616872
0.03811594
0.038623984
0.039140855
0.039666387
0.040200397
0.040742689
0.041293049
0.041851251
0.042417056
0.042990214
0.043570462
0.044157534
0.044751153
0.045351041
0.045956921
0.046568524
0.047185597
0.02706337
0.027286346
0.027516774
0.027754803
0.028000584
0.028254265
0.028515994
0.028785912
0.029064157
0.029350864
0.029646161
0.02995017
0.030263006
0.030584779
0.030915588
0.031255527
0.031604675
0.031963101