/*--------------------------------*- C++ -*----------------------------------*\
| =========                 |                                                 |
| \\      /  F ield         | OpenFOAM: The Open Source CFD Toolbox           |
|  \\    /   O peration     | Version:  2312                                  |
|   \\  /    A nd           | Website:  www.openfoam.com                      |
|    \\/     M anipulation  |                                                 |
\*---------------------------------------------------------------------------*/
FoamFile
{
    version     2.0;
    format      ascii;
    arch        "LSB;label=32;scalar=64";
    class       volScalarField;
    location    "0.07";
    object      CH4;
}
// * * * * * * * * * * * * * * * * * * * * * * * * * * * * * * * * * * * * * //

dimensions      [0 0 0 0 0 0 0];

internalField   nonuniform List<scalar> 
3251
(
0.056070981
0.054943301
0.053809628
0.052670906
0.051528145
0.050382402
0.04923478
0.048086413
0.046938466
0.045792123
0.044648582
0.043509051
0.042374732
0.041246825
0.040126513
0.039014957
0.037913293
0.036822621
0.035744005
0.03467846
0.033626957
0.032590411
0.031569678
0.030565559
0.029578788
0.028610035
0.027659907
0.026728941
0.025817608
0.024926312
0.024055392
0.02320512
0.022375705
0.021567296
0.020779981
0.020013792
0.019268707
0.018544652
0.017841508
0.017159107
0.016497243
0.015855671
0.015234111
0.014632254
0.01404976
0.013486269
0.0129414
0.012414755
0.011905927
0.011414501
0.010940064
0.010482234
0.010040716
0.0096149533
0.0092043236
0.0088083602
0.0084266141
0.0080586467
0.056064155
0.054936673
0.053803188
0.052664649
0.05152207
0.05037651
0.049229068
0.048080881
0.046933112
0.045786947
0.044643582
0.043504225
0.042370079
0.041242343
0.040122199
0.039010809
0.037909309
0.036818799
0.035740341
0.034674952
0.033623602
0.032587204
0.031566618
0.030562641
0.029576009
0.028607392
0.027657396
0.026726557
0.025815348
0.024924173
0.024053368
0.023203208
0.022373901
0.021565595
0.02077838
0.020012286
0.019267293
0.018543326
0.017840264
0.017157943
0.016496156
0.015854657
0.015233167
0.014631376
0.014048947
0.013485519
0.012940711
0.012414127
0.01190536
0.011413997
0.010939624
0.010481851
0.010040317
0.0096145045
0.0092038494
0.0088078732
0.0084261231
0.008058174
0.056049791
0.054922674
0.053789541
0.052651351
0.051509119
0.050363905
0.049216807
0.048068963
0.046921536
0.04577571
0.044632683
0.043493661
0.042359847
0.041232441
0.040112624
0.039001558
0.037900377
0.036810182
0.035732035
0.034666953
0.033615904
0.032579803
0.031559507
0.030555815
0.029569461
0.028601116
0.027651385
0.026720806
0.025809849
0.024918918
0.024048352
0.023198422
0.022369339
0.021561249
0.020774243
0.020008351
0.019263551
0.018539771
0.01783689
0.017154742
0.01649312
0.01585178
0.015230444
0.0146288
0.014046513
0.013483221
0.012938545
0.01241209
0.011903449
0.011412207
0.01093795
0.010480278
0.010038793
0.0096130004
0.0092023729
0.0088064311
0.0084247184
0.0080568013
0.056027904
0.054901313
0.053768699
0.052631022
0.051489301
0.050344595
0.049198005
0.048050666
0.046903742
0.045758417
0.044615888
0.043477362
0.042344041
0.041217123
0.04009779
0.038987204
0.037886497
0.036796772
0.035719088
0.034654462
0.033603863
0.032568204
0.031548342
0.030545076
0.02955914
0.028591204
0.027641872
0.026711682
0.025801105
0.024910545
0.024040338
0.023190757
0.022362013
0.021554252
0.020767563
0.020001978
0.019257476
0.018533982
0.017831377
0.017149494
0.016488128
0.015847034
0.015225934
0.014624518
0.014042449
0.013479368
0.012934895
0.012408636
0.011900183
0.011409122
0.010935037
0.010477515
0.01003614
0.0096104311
0.0091998853
0.0088040272
0.0084223961
0.0080544949
0.055998504
0.054872601
0.053740669
0.052603669
0.051462621
0.050318587
0.049172666
0.048025995
0.046879736
0.045735073
0.044593204
0.043455333
0.042322663
0.041196392
0.040077701
0.03896775
0.037867673
0.03677857
0.0357015
0.034637481
0.033587479
0.032552407
0.031533124
0.030530425
0.029545045
0.028577653
0.027628854
0.026699185
0.025789115
0.024899049
0.024029323
0.02318021
0.02235192
0.021544599
0.020758337
0.019993165
0.019249061
0.018525953
0.01782372
0.017142195
0.016481175
0.015840413
0.015219632
0.014618523
0.01403675
0.013473954
0.012929755
0.012403758
0.011895558
0.011404738
0.010930879
0.010473561
0.010032355
0.0096067899
0.0091963799
0.008800657
0.008419165
0.055963714
0.054838613
0.053707477
0.052571268
0.05143101
0.050287762
0.049142626
0.047996736
0.046851256
0.045707369
0.044566272
0.043429169
0.042297264
0.041171751
0.040053812
0.038944607
0.037845269
0.036756896
0.035680549
0.034617242
0.033567942
0.032533562
0.031514958
0.030512926
0.029528201
0.028561451
0.027613279
0.026684223
0.025774751
0.024885268
0.024016111
0.02316755
0.022339796
0.021532996
0.020747238
0.019982555
0.019238924
0.018516272
0.017814479
0.01713338
0.016472769
0.015832401
0.015212
0.014611256
0.014029834
0.013467375
0.012923501
0.012397815
0.011889913
0.011399377
0.010925785
0.010468711
0.010027719
0.0096023443
0.0091921126
0.008796567
0.0084152978
0.055924631
0.054800421
0.053670172
0.052534847
0.051395469
0.050253098
0.049108837
0.04796382
0.04681921
0.045676189
0.044535955
0.043399711
0.042268659
0.041143994
0.040026896
0.038918525
0.037820013
0.036732457
0.035656917
0.034594407
0.033545892
0.032512286
0.031494443
0.030493159
0.029509166
0.028543135
0.027595666
0.026667297
0.025758496
0.024869667
0.024001147
0.023153206
0.022326054
0.021519838
0.020734647
0.019970512
0.019227412
0.018505273
0.017803976
0.017123355
0.016463204
0.015823281
0.015203307
0.014602975
0.014021948
0.013459869
0.012916359
0.012391023
0.011883456
0.011393238
0.010919946
0.010463149
0.010022406
0.0095972575
0.0091872375
0.0087918992
0.0084108623
0.055878184
0.054755027
0.053625826
0.052491545
0.051353207
0.050211875
0.049068648
0.047924663
0.046781082
0.045639086
0.044499873
0.043364644
0.042234602
0.04111094
0.039994838
0.038887454
0.037789919
0.036703331
0.035628747
0.034567181
0.033519598
0.032486908
0.031469967
0.030469568
0.029486445
0.028521265
0.02757463
0.026647076
0.025739071
0.024851018
0.023983254
0.023136048
0.022309611
0.02150409
0.020719572
0.019956089
0.019213619
0.018492091
0.017791383
0.01711133
0.016451728
0.015812333
0.015192868
0.014593025
0.014012468
0.013450841
0.012907765
0.012382846
0.011875676
0.011385837
0.010912902
0.010456437
0.010015997
0.009591128
0.0091813691
0.0087862802
0.0084054746
0.055823829
0.054701897
0.053573916
0.052440851
0.051303726
0.050163603
0.049021584
0.047878802
0.04673642
0.045595619
0.044457596
0.043323551
0.042194687
0.041072195
0.039957254
0.038851022
0.037754629
0.03666917
0.035595702
0.034535238
0.033488741
0.032457121
0.031441233
0.030441869
0.029459761
0.028495576
0.027549915
0.026623313
0.025716238
0.024829092
0.023962211
0.023115866
0.022290265
0.021485555
0.020701825
0.019939105
0.019197374
0.018476559
0.017776541
0.017097155
0.016438195
0.015799419
0.01518055
0.01458128
0.014001275
0.013440177
0.012897609
0.012373177
0.011866473
0.011377078
0.010904562
0.010448488
0.010008411
0.009583877
0.009174433
0.0087796419
0.055760988
0.054640465
0.053513889
0.052382226
0.051246498
0.050107769
0.04896714
0.047825744
0.046684745
0.045545322
0.04440867
0.043275991
0.042148484
0.041027341
0.03991374
0.038808837
0.037713759
0.036629602
0.035557421
0.034498228
0.033452985
0.0324226
0.031407927
0.030409757
0.02942882
0.028465784
0.027521248
0.026595745
0.025689745
0.024803647
0.023937787
0.023092435
0.0222678
0.021464028
0.020681208
0.01991937
0.019178493
0.018458504
0.017759284
0.017080668
0.016422452
0.015784392
0.015166212
0.014567605
0.013988238
0.013427754
0.012885774
0.012361906
0.011855741
0.011366859
0.01089483
0.010439212
0.0099995594
0.0095754215
0.0091663525
0.0087719321
0.055689049
0.054570134
0.053445162
0.052315098
0.051180965
0.050043827
0.048904785
0.047764972
0.046625551
0.0454877
0.044352616
0.043221496
0.042095539
0.040975937
0.039863866
0.038760479
0.037666905
0.036584236
0.035513526
0.034455785
0.033411975
0.032383001
0.031369716
0.030372911
0.029393314
0.028431591
0.02748834
0.026564096
0.025659323
0.024774424
0.023909731
0.023065517
0.022241987
0.021439289
0.02065751
0.019896681
0.019156782
0.018437739
0.017739432
0.017061699
0.016404334
0.015767094
0.015149705
0.014551858
0.013973222
0.01341344
0.012872134
0.012348911
0.011843365
0.011355073
0.010883603
0.010428511
0.0099893501
0.0095656743
0.009157046
0.055607368
0.054490274
0.053367117
0.052238863
0.051106536
0.0499712
0.048833955
0.047695936
0.046558302
0.045422234
0.044288924
0.04315957
0.042035371
0.040917515
0.039807177
0.03870551
0.037613639
0.036532657
0.035463614
0.03440752
0.033365333
0.03233796
0.031326249
0.030330992
0.029352914
0.02839268
0.027450888
0.026528069
0.02562469
0.02474115
0.023877783
0.023034858
0.022212583
0.021411103
0.020630506
0.019870824
0.019132035
0.018414065
0.017716797
0.017040066
0.016383668
0.015747361
0.015130869
0.014533887
0.013956081
0.013397096
0.012856556
0.012334068
0.011829225
0.011341604
0.010870772
0.010416283
0.0099776852
0.0095545435
0.009146446
0.055515262
0.054400215
0.0532791
0.052152883
0.051022588
0.049889279
0.048754057
0.047618056
0.046482434
0.045348371
0.044217058
0.043089693
0.041967471
0.040851581
0.039743194
0.038643463
0.03755351
0.036474426
0.03540726
0.03435302
0.033312662
0.032287091
0.031277153
0.030283638
0.029307272
0.028348715
0.027408566
0.026487354
0.025585545
0.024703537
0.023841663
0.023000192
0.022179331
0.021379225
0.020599961
0.019841571
0.019104033
0.018387275
0.017691178
0.017015577
0.01636027
0.015725015
0.015109536
0.014513529
0.013936661
0.013378577
0.012838901
0.012317242
0.011813193
0.011326332
0.010856223
0.010402417
0.0099644613
0.009541931
0.055412013
0.054299255
0.053180423
0.052056484
0.050928462
0.049797422
0.048664463
0.047530719
0.046397349
0.04526553
0.044136452
0.043011312
0.041891303
0.040777612
0.03967141
0.038573845
0.037486039
0.03640908
0.035344016
0.034291851
0.03325354
0.032229986
0.031222034
0.030230471
0.02925602
0.028299343
0.027361033
0.026441622
0.025541571
0.02466128
0.023801079
0.022961237
0.02214196
0.021343393
0.020565623
0.019808682
0.019072547
0.018357147
0.017662362
0.016988029
0.016333946
0.01569987
0.015085529
0.014490615
0.013914799
0.013357725
0.012819019
0.01229829
0.011795132
0.011309126
0.010839833
0.0103868
0.0099495701
0.0095277537
0.055296859
0.05418665
0.053070359
0.051948956
0.050823464
0.049694949
0.04856451
0.04743328
0.046302416
0.045173095
0.044046507
0.042923844
0.0418063
0.040695059
0.039591288
0.038496136
0.037410721
0.036336129
0.035273406
0.034223553
0.033187523
0.032166217
0.031160477
0.030171088
0.029198772
0.028244188
0.027307929
0.026390523
0.025492433
0.024614054
0.023755718
0.022917692
0.022100181
0.021303331
0.020527227
0.019771901
0.019037331
0.018323445
0.017630125
0.016957207
0.016304489
0.01567173
0.015058656
0.014464964
0.013890322
0.013334376
0.012796752
0.012277062
0.0117749
0.01128985
0.010821474
0.010369312
0.0099328951
0.055169003
0.054061616
0.052948142
0.051829549
0.050706862
0.049581146
0.0484535
0.047325056
0.046196971
0.04507042
0.043946591
0.042826676
0.041711864
0.040603339
0.039502265
0.038409789
0.037327026
0.036255058
0.035194931
0.034147642
0.033114142
0.032095328
0.031092041
0.030105064
0.029135117
0.028182855
0.027248871
0.026333691
0.025437775
0.024561519
0.023705252
0.022869242
0.022053692
0.021258746
0.020484492
0.019730959
0.018998127
0.018285923
0.017594228
0.016922882
0.01627168
0.015640384
0.01502872
0.014436384
0.013863046
0.013308354
0.012771933
0.012253397
0.011752344
0.011268359
0.010801009
0.010349828
0.0099143364
0.0550276
0.05392333
0.052812964
0.051697474
0.050577884
0.049455258
0.048330696
0.04720533
0.046080314
0.044956822
0.043836041
0.042719159
0.041607366
0.04050184
0.039403746
0.038314225
0.03723439
0.036165323
0.035108063
0.034063606
0.033032901
0.032016841
0.031016266
0.030031954
0.029064623
0.028114927
0.027183457
0.026270737
0.025377225
0.024503315
0.023649336
0.022815553
0.02200217
0.021209331
0.020437121
0.019685572
0.018954661
0.018244317
0.017554422
0.016884813
0.01623529
0.015605612
0.014995507
0.014404673
0.01383278
0.013279474
0.012744385
0.012227127
0.0117273
0.011244499
0.010778293
0.010328219
0.054871763
0.053770922
0.052663977
0.0515519
0.050435717
0.049316492
0.048195325
0.047073345
0.045951707
0.044831582
0.043714155
0.042600613
0.041492142
0.040389918
0.039295103
0.038208835
0.037132225
0.03606635
0.035012246
0.033970908
0.03294328
0.031930252
0.030932661
0.029951284
0.028986834
0.028039965
0.027111263
0.026201252
0.025310387
0.024439061
0.023587602
0.022756273
0.021945278
0.02115476
0.020384803
0.019635439
0.018906646
0.018198352
0.017510439
0.016842747
0.016195074
0.01556718
0.014958796
0.014369618
0.013799318
0.013247543
0.012713922
0.012198072
0.011699598
0.011218103
0.010753174
0.010304383
0.054700561
0.053603479
0.052500285
0.051391952
0.050279507
0.049164014
0.04804657
0.046928306
0.045810374
0.044693944
0.043580197
0.042470319
0.041365493
0.040266893
0.039175676
0.038092979
0.037019907
0.035957535
0.034906896
0.03386898
0.032844729
0.031835029
0.030840714
0.029862558
0.028901271
0.027957505
0.027031842
0.026124805
0.025236846
0.024368358
0.023519666
0.022691032
0.021882659
0.021094689
0.020327207
0.019580244
0.018853777
0.018147735
0.017462001
0.016796415
0.016150774
0.015524843
0.01491835
0.014330993
0.013762444
0.013212352
0.012680347
0.012166043
0.011669054
0.011188997
0.010725475
0.010278074
0.054513013
0.053420042
0.05232095
0.051216713
0.050108357
0.048996946
0.047883577
0.046769378
0.0456555
0.044543112
0.043433392
0.042327524
0.041226687
0.040132052
0.039044773
0.037965982
0.036896782
0.035838244
0.034791397
0.033757227
0.032736671
0.031730614
0.030739885
0.029765254
0.028807429
0.027867058
0.026944723
0.026040941
0.025156165
0.024290783
0.02344512
0.022619438
0.021813936
0.021028758
0.020263986
0.019519652
0.018795733
0.018092159
0.017408812
0.016745533
0.016102121
0.01547834
0.014873919
0.014288559
0.013721932
0.013173686
0.012643451
0.012130842
0.011635475
0.01115699
0.010695015
0.010249086
0.054308092
0.053219605
0.052124988
0.051025219
0.049921324
0.048814367
0.047705444
0.046595682
0.045486229
0.044378253
0.043272928
0.042171436
0.041074953
0.039984645
0.038901664
0.037827137
0.036762164
0.03570781
0.034665102
0.03363502
0.032618499
0.031616418
0.030629604
0.029658821
0.028704777
0.027768114
0.026849411
0.025949184
0.025067883
0.024205893
0.023363539
0.022541079
0.021738714
0.020956584
0.020194774
0.019453312
0.018732177
0.018031299
0.017350561
0.016689803
0.016048827
0.015427396
0.014825242
0.014242066
0.013677541
0.013131316
0.012603018
0.012092259
0.011598657
0.011121884
0.010661618
0.054084721
0.053001112
0.051911364
0.050816458
0.049717421
0.048615313
0.047511231
0.046406298
0.045301664
0.04419849
0.043097952
0.042001225
0.040909482
0.039823886
0.038745585
0.037675702
0.036615331
0.035565534
0.034527332
0.033501703
0.032489576
0.031491826
0.030509274
0.029542684
0.028592756
0.027660132
0.026745386
0.025849031
0.024971515
0.024113222
0.023274471
0.022455523
0.021656576
0.020877768
0.020119184
0.019380853
0.018662753
0.017964814
0.017286919
0.016628911
0.01599059
0.015371724
0.014772043
0.01419125
0.01362902
0.013085001
0.012558818
0.012050077
0.011558385
0.011083466
0.010625152
0.053841772
0.052763457
0.051678996
0.050589374
0.049495612
0.048398772
0.047299948
0.046200264
0.045100863
0.044002908
0.042907569
0.041816019
0.040729427
0.039648951
0.038575735
0.037510897
0.036455527
0.035410681
0.034377377
0.033356586
0.032349233
0.031356189
0.03037827
0.029416235
0.028470782
0.027542547
0.026632102
0.025739956
0.024866554
0.024012278
0.023177446
0.022362316
0.021567084
0.020791888
0.020036813
0.019301887
0.018587087
0.017892344
0.017217543
0.016562526
0.015927095
0.015311018
0.014714029
0.014135831
0.013576101
0.013034487
0.012510614
0.012004075
0.011514435
0.053578065
0.052505482
0.051426753
0.050342858
0.049254816
0.048163687
0.047070565
0.045976569
0.044882844
0.043790547
0.042700845
0.041614908
0.040533901
0.039458977
0.038391275
0.037331907
0.03628196
0.035242484
0.034214491
0.033198946
0.032196771
0.03120883
0.030235936
0.029278842
0.028338241
0.027414766
0.026508986
0.025621405
0.024752467
0.023902549
0.023071968
0.022260979
0.021469778
0.020698503
0.019947235
0.019216003
0.018504785
0.017813512
0.017142069
0.016490299
0.015858006
0.015244959
0.014650894
0.014075516
0.013518504
0.012979509
0.012458157
0.011954034
0.053292359
0.052225976
0.051153452
0.050075755
0.048993903
0.047908954
0.046822001
0.045734162
0.044646578
0.043560404
0.042476804
0.041396941
0.040321978
0.039253063
0.038191328
0.037137881
0.036093803
0.035060139
0.034037893
0.033028028
0.032031456
0.031049039
0.030081584
0.029129838
0.028194491
0.027276169
0.026375439
0.025492801
0.024628694
0.023783495
0.022957517
0.022151013
0.021364178
0.020597148
0.019850003
0.019122773
0.018415436
0.017727922
0.017060117
0.016411866
0.015782974
0.015173211
0.014582316
0.014009997
0.013455934
0.012919785
0.012401184
0.011899757
0.054035914
0.052983335
0.051923679
0.050857862
0.049786861
0.048711694
0.04763342
0.046553131
0.045471942
0.044390993
0.043311433
0.042234424
0.041161124
0.040092691
0.039030266
0.037974978
0.036927929
0.035890192
0.034862806
0.03384677
0.032843041
0.031852524
0.030876076
0.029914497
0.02896853
0.028038859
0.027126106
0.026230832
0.025353536
0.024494652
0.023654553
0.02283355
0.022031894
0.021249778
0.020487337
0.019744651
0.019021748
0.018318607
0.017635157
0.016971287
0.016326842
0.015701629
0.01509542
0.014507956
0.013938947
0.013388079
0.012855015
0.0123394
0.011840881
0.05369497
0.052649687
0.051597286
0.050538702
0.049474921
0.048406963
0.047335887
0.046262784
0.045188767
0.044114971
0.043042545
0.041972644
0.040906422
0.039845031
0.038789607
0.037741272
0.036701123
0.035670224
0.03464961
0.033640273
0.032643162
0.031659176
0.030689166
0.029733925
0.028794192
0.027870644
0.026963899
0.026074512
0.025202979
0.024349729
0.023515132
0.022699498
0.021903074
0.021126051
0.020368562
0.019630688
0.018912456
0.018213844
0.017534783
0.016875162
0.016234827
0.015613586
0.015011216
0.014427458
0.013862026
0.013314611
0.012784881
0.012272491
0.011777097
0.0533275
0.052290041
0.051245441
0.050194642
0.049138632
0.048078435
0.047015108
0.045949741
0.044883445
0.043817352
0.042752607
0.041690359
0.040631758
0.039577949
0.038530064
0.037489217
0.036456496
0.035432963
0.034419641
0.033417517
0.032427532
0.03145058
0.030487502
0.029539088
0.028606068
0.027689115
0.02678884
0.025905795
0.025040468
0.024193288
0.023364619
0.022554768
0.02176398
0.020992444
0.020240292
0.019507603
0.018794405
0.018100674
0.017426344
0.016771302
0.016135398
0.015518442
0.01492021
0.014340449
0.013778876
0.013235185
0.01270905
0.012200135
0.011708096
0.052932031
0.051902962
0.050866739
0.049824304
0.048776645
0.047724787
0.046669789
0.045612738
0.044554742
0.04349693
0.042440441
0.041386421
0.040336014
0.039290358
0.038250578
0.03721778
0.036193048
0.035177432
0.034171951
0.033177582
0.03219526
0.03122587
0.030270247
0.029329174
0.028403373
0.027493511
0.026600194
0.025723968
0.024865317
0.024024664
0.023202371
0.02239874
0.021614016
0.020848383
0.020101972
0.019374863
0.01866708
0.017978603
0.017309363
0.016659251
0.016028116
0.015415772
0.014821997
0.014246539
0.013689121
0.01314944
0.012627176
0.012121996
0.011633559
0.052507039
0.051486963
0.050459722
0.049426258
0.048387559
0.047344652
0.046298592
0.045250466
0.044201379
0.043152455
0.04210483
0.041059643
0.040018031
0.038981127
0.037950048
0.036925893
0.035909735
0.034902621
0.033905557
0.032919515
0.031945419
0.030984149
0.03003653
0.029103337
0.028185288
0.02728304
0.026397195
0.025528292
0.02467681
0.023843167
0.023027721
0.022230772
0.021452559
0.020693268
0.019953025
0.01923191
0.018529946
0.017847114
0.017183345
0.016538531
0.015912523
0.015305136
0.014716151
0.014145321
0.01359237
0.013057
0.012538895
0.012037727
0.011553155
0.052050957
0.051040509
0.050022886
0.04899903
0.047969931
0.046936614
0.045900133
0.044861572
0.043822034
0.042782638
0.041744513
0.040708794
0.039676611
0.038649089
0.037627337
0.036612447
0.035605483
0.034607482
0.033619442
0.032642327
0.031677051
0.030724485
0.029785448
0.028860705
0.027950966
0.027056883
0.02617905
0.025317999
0.024474204
0.023648079
0.022839977
0.022050194
0.021278966
0.020526476
0.019792851
0.019078165
0.018382446
0.01770567
0.017047772
0.016408644
0.015788139
0.015186073
0.014602231
0.014036368
0.013488213
0.012957471
0.01244383
0.011946965
0.011466539
0.05156217
0.050562016
0.049554679
0.048541101
0.047522272
0.046499216
0.045472986
0.044444662
0.043415344
0.042386145
0.041358191
0.040332607
0.039310518
0.038293039
0.037281273
0.036276301
0.035279179
0.034290934
0.033312556
0.032344997
0.031389164
0.030445918
0.029516069
0.028600373
0.027699532
0.026814191
0.025944936
0.025092293
0.02425673
0.023438656
0.02263842
0.021856311
0.021092566
0.020347362
0.019620825
0.018913029
0.018224
0.017553714
0.016902108
0.016269074
0.015654466
0.015058104
0.014479775
0.013919238
0.013376224
0.012850444
0.012341588
0.011849335
0.011373349
0.051039023
0.050049861
0.049053509
0.04805091
0.047043053
0.04603096
0.045015685
0.043998302
0.042979907
0.041961609
0.040944526
0.039929777
0.038918478
0.037911737
0.036910646
0.035916278
0.034929678
0.033951864
0.032983815
0.032026474
0.031080737
0.030147455
0.029227429
0.028321406
0.02743008
0.026554087
0.025694005
0.024850354
0.024023595
0.023214131
0.022422306
0.021648407
0.020892665
0.020155256
0.019436302
0.018735878
0.018054007
0.017390668
0.016745795
0.016119283
0.015510988
0.014920733
0.014348306
0.013793471
0.013255962
0.012735493
0.012231759
0.011744443
0.011273211
0.05047982
0.04950238
0.048517743
0.047526855
0.046530704
0.045530312
0.044526727
0.043521022
0.042514287
0.041507625
0.040502147
0.039498965
0.038499187
0.037503909
0.036514216
0.035531169
0.034555804
0.033589127
0.032632107
0.031685675
0.030750718
0.029828076
0.028918539
0.028022846
0.02714168
0.026275668
0.025425382
0.024591334
0.023773978
0.022973711
0.022190871
0.021425742
0.020678549
0.019949467
0.019238617
0.018546069
0.017871848
0.017215931
0.016578255
0.015958715
0.01535717
0.014773443
0.014207328
0.013658589
0.013126966
0.012612178
0.012113921
0.011631884
0.011165735
0.049882834
0.048917875
0.047945717
0.046967305
0.045983627
0.044995702
0.044004577
0.043011319
0.042017013
0.041022757
0.040029652
0.039038803
0.038051307
0.037068253
0.036090712
0.035119737
0.034156352
0.03320155
0.03225629
0.031321492
0.03039803
0.029486734
0.028588383
0.027703705
0.026833374
0.025978008
0.02513817
0.024314364
0.023507037
0.02271658
0.021943325
0.021187551
0.02044948
0.019729284
0.019027079
0.018342938
0.017676881
0.017028888
0.016398894
0.015786798
0.015192458
0.014615702
0.014056327
0.013514099
0.012988763
0.012480041
0.011987635
0.011511236
0.011050517
0.049246306
0.04829462
0.047335735
0.046370596
0.045400189
0.044425533
0.04344767
0.042467662
0.041486589
0.040505541
0.03952561
0.038547893
0.037573476
0.036603438
0.03563884
0.03468072
0.033730092
0.032787937
0.031855201
0.030932792
0.030021572
0.029122359
0.028235921
0.027362975
0.026504185
0.025660158
0.024831449
0.024018552
0.023221909
0.022441902
0.02167886
0.020933053
0.020204703
0.019493974
0.018800985
0.018125802
0.017468448
0.016828901
0.016207098
0.015602938
0.015016282
0.014446961
0.013894773
0.013359491
0.012840861
0.01233861
0.011852446
0.011382062
0.010927138
0.048568456
0.047630866
0.04668608
0.045735042
0.04477874
0.043818186
0.04285442
0.041888499
0.040921496
0.039954491
0.03898857
0.038024817
0.03706431
0.036108115
0.03515728
0.034212833
0.033275773
0.032347069
0.031427654
0.030518422
0.029620223
0.028733862
0.027860095
0.026999628
0.026153114
0.025321149
0.024504278
0.023702989
0.022917712
0.022148824
0.021396647
0.020661448
0.019943441
0.01924279
0.018559608
0.017893962
0.017245873
0.016615319
0.016002238
0.015406529
0.014828057
0.014266654
0.013722123
0.01319424
0.012682755
0.0121874
0.011707887
0.011243915
0.010795167
0.04784749
0.04692485
0.045995019
0.045058944
0.044117609
0.043172025
0.042223225
0.041272261
0.040320196
0.039368105
0.038417062
0.037468141
0.036522407
0.035580915
0.0346447
0.033714776
0.032792128
0.031877712
0.030972446
0.030077211
0.029192844
0.028320136
0.02745983
0.02661262
0.025779147
0.024959997
0.024155704
0.023366746
0.022593547
0.021836475
0.021095845
0.020371919
0.019664906
0.018974966
0.01830221
0.017646703
0.017008465
0.016387474
0.015783668
0.015196948
0.014627181
0.014074203
0.013537818
0.013017807
0.012513926
0.01202591
0.011553477
0.01109633
0.010654158
0.047081609
0.0461748
0.045260813
0.044340593
0.043415121
0.042485405
0.041552473
0.040617368
0.039681146
0.038744872
0.037809609
0.03687642
0.035946358
0.035020462
0.034099756
0.033185238
0.032277879
0.03137862
0.030488366
0.02960798
0.028738287
0.027880063
0.027034039
0.026200895
0.025381258
0.024575705
0.023784758
0.023008887
0.022248504
0.021503972
0.020775597
0.020063636
0.019368294
0.018689725
0.018028039
0.017383298
0.016755521
0.016144686
0.015550731
0.01497356
0.014413042
0.013869015
0.013341287
0.012829643
0.012333844
0.01185363
0.011388723
0.010938834
0.010503656
0.046269016
0.04537895
0.044481725
0.043578282
0.042669601
0.041756684
0.040840552
0.039922242
0.0390028
0.038083279
0.037164732
0.036248208
0.035334748
0.034425376
0.0335211
0.032622904
0.031731744
0.030848545
0.029974194
0.029109543
0.028255397
0.027412521
0.026581629
0.025763388
0.024958414
0.024167269
0.023390467
0.022628463
0.021881665
0.021150423
0.020435039
0.019735762
0.019052792
0.018386281
0.017736333
0.017103008
0.016486326
0.015886263
0.01530276
0.01473572
0.014185015
0.013650486
0.013131947
0.012629184
0.012141965
0.011670035
0.011213122
0.010770941
0.010343192
0.04540793
0.044535549
0.043656031
0.042770319
0.041879386
0.04098423
0.040085863
0.039185314
0.03828362
0.037381821
0.036480958
0.035582065
0.034686169
0.03379428
0.03290739
0.032026465
0.031152445
0.030286239
0.029428717
0.028580714
0.027743021
0.026916385
0.026101507
0.025299037
0.02450958
0.023733684
0.022971851
0.022224526
0.021492106
0.020774933
0.020073302
0.019387454
0.018717584
0.018063839
0.017426322
0.016805089
0.016200159
0.015611508
0.015039077
0.014482773
0.013942468
0.013418007
0.012909207
0.012415861
0.011937739
0.011474594
0.011026159
0.010592156
0.010172291
0.044496602
0.04364287
0.042782034
0.041915033
0.041042836
0.040166431
0.039286826
0.038405037
0.037522089
0.036639012
0.035756831
0.034876568
0.033999232
0.033125816
0.032257296
0.031394622
0.030538715
0.029690466
0.028850728
0.028020319
0.027200013
0.02639054
0.025592585
0.024806784
0.024033726
0.023273948
0.022527936
0.021796127
0.021078906
0.020376607
0.019689515
0.019017866
0.018361848
0.017721605
0.017097234
0.016488792
0.015896294
0.015319717
0.014759003
0.014214059
0.013684761
0.013170958
0.01267247
0.012189094
0.011720607
0.011266767
0.010827314
0.010401976
0.0099904657
0.043533323
0.042699232
0.041858079
0.041010796
0.040158348
0.039301716
0.038441896
0.037579893
0.036716722
0.035853397
0.034990929
0.034130322
0.03327257
0.032418649
0.031569516
0.030726101
0.029889309
0.029060011
0.028239042
0.027427201
0.026625245
0.025833885
0.025053791
0.024285583
0.023529834
0.022787068
0.022057758
0.021342327
0.020641152
0.019954555
0.019282814
0.018626158
0.017984769
0.017358784
0.0167483
0.016153369
0.015574005
0.015010186
0.014461853
0.013928916
0.013411254
0.012908718
0.012421132
0.011948301
0.011490005
0.011046008
0.010616059
0.010199891
0.0097972255
0.042516445
0.04170301
0.040882563
0.040056033
0.039224375
0.038388562
0.037549578
0.036708418
0.03586608
0.035023565
0.034181867
0.033341974
0.032504859
0.031671483
0.03084278
0.030019663
0.029203016
0.02839369
0.027592502
0.02680023
0.026017613
0.025245344
0.024484075
0.02373441
0.022996905
0.02227207
0.021560365
0.0208622
0.02017794
0.019507899
0.018852344
0.018211497
0.017585535
0.01697459
0.016378753
0.015798075
0.015232569
0.014682211
0.014146946
0.013626682
0.013121303
0.012630663
0.012154591
0.011692896
0.011245366
0.010811769
0.010391862
0.0099853873
0.0095920732
0.041444399
0.040652655
0.039853962
0.03904924
0.038239437
0.037425514
0.036608443
0.035789206
0.034968786
0.034148165
0.033328322
0.032510224
0.031694828
0.030883071
0.030075869
0.029274113
0.028478667
0.027690361
0.026909991
0.026138314
0.02537605
0.024623873
0.023882417
0.023152268
0.022433966
0.021728005
0.02103483
0.020354841
0.019688389
0.019035777
0.018397265
0.017773066
0.017163349
0.016568243
0.015987835
0.015422172
0.014871267
0.014335096
0.013813602
0.013306698
0.012814268
0.012336172
0.011872243
0.011422295
0.010986121
0.010563499
0.010154191
0.0097579479
0.0093745082
0.040315717
0.039546719
0.038770845
0.037989009
0.037202146
0.036411206
0.035617148
0.034820937
0.03402354
0.033225922
0.032429041
0.031633846
0.030841271
0.030052232
0.029267625
0.028488317
0.027715151
0.026948934
0.02619044
0.025440407
0.024699531
0.02396847
0.023247835
0.022538196
0.021840076
0.021153951
0.020480255
0.01981937
0.019171637
0.018537349
0.017916755
0.017310061
0.016717429
0.016138981
0.015574802
0.015024936
0.014489393
0.01396815
0.013461151
0.01296831
0.012489515
0.012024628
0.011573489
0.011135915
0.010711708
0.01030065
0.0099025124
0.0095170553
0.0091440283
0.039129057
0.038383873
0.037631901
0.036874043
0.036111224
0.03534438
0.034574452
0.033802391
0.033029144
0.032255655
0.031482864
0.030711697
0.029943066
0.029177865
0.028416964
0.02766121
0.026911421
0.026168381
0.025432842
0.024705518
0.023987085
0.023278179
0.022579393
0.021891276
0.021214333
0.020549026
0.019895771
0.019254938
0.018626854
0.0180118
0.017410017
0.016821701
0.016247009
0.015686057
0.015138924
0.014605653
0.014086251
0.013580696
0.013088931
0.012610875
0.012146416
0.011695422
0.011257736
0.010833183
0.010421567
0.01002268
0.0096363
0.0092621956
0.0089001314
0.037883227
0.037162937
0.036435959
0.035703187
0.034965528
0.034223903
0.033479239
0.032732464
0.031984506
0.03123629
0.030488731
0.029742732
0.028999182
0.028258951