/*--------------------------------*- C++ -*----------------------------------*\
| =========                 |                                                 |
| \\      /  F ield         | OpenFOAM: The Open Source CFD Toolbox           |
|  \\    /   O peration     | Version:  2312                                  |
|   \\  /    A nd           | Website:  www.openfoam.com                      |
|    \\/     M anipulation  |                                                 |
\*---------------------------------------------------------------------------*/
FoamFile
{
    version     2.0;
    format      ascii;
    arch        "LSB;label=32;scalar=64";
    class       volScalarField;
    location    "0.07";
    object      CO2;
}
// * * * * * * * * * * * * * * * * * * * * * * * * * * * * * * * * * * * * * //

dimensions      [0 0 0 0 0 0 0];

internalField   nonuniform List<scalar> 
3251
(
0.028850817
0.028599448
0.028338903
0.028069032
0.027789775
0.027501124
0.027203119
0.026895844
0.026579432
0.026254058
0.025919941
0.02557734
0.025226555
0.024867922
0.024501815
0.024128636
0.023748819
0.023362825
0.022971136
0.022574254
0.022172699
0.021767
0.021357699
0.020945342
0.020530478
0.020113654
0.019695414
0.019276294
0.018856822
0.018437511
0.018018861
0.017601356
0.017185459
0.016771614
0.016360243
0.015951745
0.015546495
0.015144845
0.014747121
0.014353623
0.013964629
0.013580388
0.013201128
0.012827049
0.012458331
0.012095125
0.011737563
0.01138575
0.011039767
0.010699673
0.010365497
0.01003722
0.0097147306
0.0093981233
0.0090875293
0.0087829286
0.0084842762
0.0081915112
0.028847081
0.028595793
0.028335294
0.028065458
0.027786238
0.027497626
0.027199661
0.026892428
0.026576059
0.026250729
0.025916657
0.025574103
0.025223366
0.024864784
0.024498727
0.0241256
0.023745837
0.023359898
0.022968264
0.022571439
0.022169941
0.021764301
0.02135506
0.020942763
0.020527959
0.020111197
0.019693018
0.01927396
0.01885455
0.018435301
0.018016714
0.01759927
0.017183435
0.016769651
0.016358341
0.015949904
0.015544714
0.015143124
0.014745458
0.014352018
0.01396308
0.013578895
0.013199689
0.012825663
0.012456994
0.012093836
0.011736319
0.011384547
0.011038601
0.010698539
0.010364392
0.010036145
0.0097137445
0.0093972506
0.0090867436
0.008782215
0.0084836237
0.008190901
0.028839897
0.028588723
0.028328305
0.02805854
0.027779391
0.02749085
0.027192958
0.026885801
0.02656951
0.02624426
0.025910271
0.025567802
0.025217153
0.02485866
0.024492695
0.024119664
0.023739998
0.023354157
0.022962625
0.022565904
0.022164511
0.021758979
0.021349846
0.02093766
0.020522968
0.020106318
0.019688253
0.019269309
0.018850014
0.01843088
0.018012409
0.017595081
0.01717936
0.016765692
0.016354496
0.015946172
0.015541094
0.015139615
0.01474206
0.014348729
0.013959898
0.013575818
0.013196715
0.01282279
0.01245422
0.012091158
0.011733732
0.011382048
0.011036186
0.010696205
0.010362135
0.010033974
0.0097116955
0.0093953412
0.0090849592
0.0087805426
0.0084820544
0.0081894329
0.028829297
0.02857826
0.028317957
0.028048297
0.02776925
0.027480814
0.027183029
0.026875982
0.026559804
0.026234671
0.025900801
0.025558455
0.025207932
0.024849569
0.024483738
0.024110844
0.023731318
0.023345622
0.022954237
0.022557666
0.022156426
0.021751049
0.021342075
0.020930049
0.02051552
0.020099033
0.019681134
0.019262357
0.018843229
0.018424263
0.01800596
0.0175888
0.017173248
0.016759747
0.016348718
0.015940559
0.015535647
0.015134331
0.014736937
0.014343765
0.013955092
0.013571167
0.013192217
0.012818441
0.012450017
0.012087097
0.01172981
0.011378261
0.01103253
0.010692676
0.010358733
0.010030705
0.0097085861
0.0093924025
0.0090821824
0.0087779162
0.0084795706
0.0081871307
0.028815301
0.028564423
0.028304265
0.028034742
0.027755832
0.027467534
0.027169889
0.026862986
0.026546956
0.026221974
0.025888261
0.025546076
0.025195719
0.024837526
0.02447187
0.024099155
0.023719813
0.023334305
0.022943113
0.022546738
0.022145699
0.021740526
0.021331759
0.020919944
0.020505627
0.020089356
0.019671673
0.019253115
0.018834206
0.018415461
0.017997379
0.01758044
0.017165109
0.016751828
0.016341018
0.015933077
0.015528381
0.01512728
0.014730098
0.014337136
0.01394867
0.01356495
0.013186201
0.012812623
0.012444393
0.012081663
0.011724561
0.011373192
0.011027638
0.010687958
0.010354188
0.010026341
0.0097044189
0.0093884399
0.0090784184
0.0087743391
0.008476166
0.028798914
0.028548207
0.028288214
0.028018851
0.0277401
0.027451963
0.027154482
0.026847747
0.026531889
0.026207085
0.025873554
0.025531556
0.025181391
0.024823397
0.024457945
0.024085438
0.023706311
0.023321023
0.022930055
0.022533909
0.022133104
0.021728169
0.021319643
0.020908072
0.020494004
0.020077983
0.019660554
0.01924225
0.018823598
0.01840511
0.017987285
0.017570605
0.017155531
0.016742507
0.016331953
0.015924267
0.015519823
0.015118972
0.014722038
0.014329322
0.013941099
0.013557617
0.013179104
0.012805757
0.012437755
0.012075247
0.011718364
0.011367209
0.011021865
0.010682392
0.010348829
0.010021194
0.0096994938
0.0093837418
0.0090739425
0.0087700728
0.0084720637
0.02878062
0.028530097
0.028270284
0.028001098
0.027722525
0.027434567
0.027137269
0.026830721
0.026515055
0.026190448
0.02585712
0.02551533
0.02516538
0.024807606
0.02444238
0.024070107
0.023691218
0.023306174
0.022915456
0.022519565
0.02211902
0.021714349
0.021306092
0.020894794
0.020481002
0.020065261
0.019648113
0.019230093
0.018811726
0.018393525
0.017975987
0.017559594
0.017144807
0.016732069
0.0163218
0.015914397
0.015510235
0.015109663
0.014713006
0.014320564
0.01393261
0.013549396
0.013171145
0.012798057
0.012430308
0.012068051
0.011711412
0.011360498
0.01101539
0.01067615
0.01034282
0.01001542
0.0096939629
0.0093784565
0.0090688989
0.0087652594
0.0084674491
0.028758984
0.028508672
0.028249069
0.027980092
0.027701727
0.027413981
0.0271169
0.026810572
0.026495133
0.026170759
0.025837669
0.025496126
0.025146429
0.024788915
0.024423957
0.024051958
0.02367335
0.023288594
0.022898171
0.022502581
0.022102342
0.021697984
0.021290045
0.020879069
0.020465602
0.020050191
0.019633375
0.01921569
0.01879766
0.018379797
0.017962598
0.017546544
0.017132096
0.016719696
0.016309763
0.015902696
0.015498866
0.015098624
0.014702294
0.014310174
0.01392254
0.013539641
0.0131617
0.012788918
0.01242147
0.012059509
0.01170316
0.011352531
0.011007704
0.010668742
0.010335687
0.010008566
0.0096873912
0.0093721692
0.009062892
0.0087595246
0.0084619842
0.028733758
0.028483688
0.028224327
0.027955591
0.02767747
0.02738997
0.02709314
0.02678707
0.026471894
0.026147791
0.02581498
0.025473723
0.025124321
0.02476711
0.024402462
0.024030782
0.023652502
0.023268082
0.022878001
0.022482762
0.02208288
0.021678885
0.021271315
0.020860714
0.020447627
0.020032599
0.019616171
0.019198876
0.018781238
0.018363768
0.017946964
0.017531304
0.017117251
0.016705244
0.016295704
0.015889026
0.015485583
0.015085725
0.014689775
0.014298032
0.01391077
0.013528238
0.013150659
0.012778234
0.012411137
0.01204952
0.011693512
0.011343216
0.010998717
0.010660079
0.010327346
0.010000548
0.0096796998
0.0093648039
0.0090558483
0.008752796
0.028704679
0.028454884
0.028195799
0.027927341
0.027649499
0.027362284
0.027065742
0.026759968
0.026445096
0.026121304
0.025788814
0.025447887
0.025098824
0.024741961
0.024377672
0.02400636
0.023628457
0.023244422
0.022854736
0.0224599
0.022060429
0.021656853
0.021249708
0.020839538
0.020426887
0.020012301
0.019596318
0.019179472
0.018762286
0.01834527
0.01792892
0.017513715
0.017100115
0.016688562
0.016279472
0.015873243
0.015470247
0.015070831
0.014675319
0.014284009
0.013897175
0.013515066
0.013137905
0.012765891
0.012399199
0.01203798
0.011682363
0.011332452
0.010988332
0.010650068
0.010317707
0.0099912801
0.0096708043
0.0093562796
0.0090476885
0.0087449827
0.028671469
0.028421986
0.028163214
0.027895071
0.027617548
0.027330655
0.027034444
0.026729008
0.026414482
0.026091046
0.025758922
0.025418371
0.025069694
0.024713229
0.024349348
0.023978455
0.023600982
0.023217387
0.022828151
0.022433775
0.022034773
0.021631674
0.021225014
0.020815336
0.020403184
0.019989101
0.019573627
0.019157293
0.018740621
0.018324122
0.01790829
0.017493604
0.017080523
0.016669486
0.016260912
0.015855195
0.015452707
0.015053796
0.014658783
0.014267968
0.013881624
0.013499997
0.013123312
0.012751768
0.012385538
0.012024775
0.011669605
0.011320134
0.010976448
0.010638611
0.010306673
0.0099806685
0.0096606152
0.0093465094
0.0090383277
0.028633833
0.0283847
0.028126282
0.027858495
0.027581331
0.027294805
0.026998967
0.026693913
0.026379779
0.026056746
0.025725036
0.02538491
0.025036671
0.024680656
0.024317238
0.023946819
0.023569833
0.023186736
0.022798011
0.022404155
0.022005684
0.021603125
0.021197014
0.020787893
0.020376305
0.019962792
0.019547893
0.019132139
0.018716051
0.018300137
0.017884892
0.017470792
0.017058298
0.016647846
0.016239855
0.015834718
0.015432806
0.015034466
0.01464002
0.014249765
0.013863974
0.013482895
0.013106749
0.012735736
0.012370031
0.012009783
0.011655121
0.01130615
0.010962955
0.010625602
0.010294143
0.0099686144
0.0096490369
0.0093354004
0.0090276624
0.028591459
0.028342719
0.028084696
0.027817309
0.02754055
0.027254434
0.026959017
0.026654392
0.0263407
0.026018119
0.025686875
0.025347228
0.024999482
0.024643973
0.024281075
0.02391119
0.023534751
0.023152215
0.022764063
0.022370792
0.021972918
0.021570967
0.021165474
0.020756979
0.020346025
0.019933154
0.019518903
0.0191038
0.018688368
0.018273113
0.017858527
0.017445089
0.017033254
0.016623461
0.016216125
0.01581164
0.015410376
0.015012679
0.01461887
0.014229246
0.013844078
0.013463614
0.013088075
0.012717661
0.012352546
0.011992879
0.011638789
0.011290381
0.010947738
0.010610929
0.010280007
0.0099550122
0.0096359674
0.0093228542
0.028544018
0.028295716
0.028038133
0.027771191
0.027494884
0.027209229
0.026914281
0.026610137
0.026296938
0.025974865
0.025644141
0.025305031
0.024957835
0.024602893
0.024240576
0.023871289
0.023495462
0.023113553
0.022726042
0.022333427
0.02193622
0.021534949
0.021130146
0.020722352
0.020312108
0.019899955
0.019486427
0.019072055
0.018657356
0.018242837
0.01782899
0.01741629
0.017005194
0.016596137
0.016189535
0.01578578
0.015385241
0.014988263
0.014595166
0.014206247
0.013821776
0.013442001
0.013067142
0.012697398
0.012332943
0.011973927
0.011620478
0.011272699
0.010930675
0.010594474
0.01026415
0.0099397493
0.0096212977
0.009308751
0.028491159
0.028243343
0.02798625
0.027719803
0.027443999
0.027158855
0.02686443
0.026560821
0.026248171
0.025926663
0.025596519
0.025258005
0.024911423
0.024557111
0.024195443
0.02382682
0.023451675
0.023070465
0.022683668
0.022291781
0.021895319
0.021494804
0.02109077
0.020683757
0.020274303
0.019862948
0.019450226
0.019036666
0.018622784
0.018209085
0.01779606
0.017384183
0.016973908
0.016565671
0.016159886
0.015756943
0.015357211
0.014961034
0.014568731
0.014180597
0.013796903
0.013417894
0.013043792
0.012674795
0.012311075
0.011952784
0.011600048
0.011252971
0.010911637
0.010576111
0.01024645
0.0099227048
0.0096049132
0.028432515
0.028185236
0.027928684
0.027662785
0.027387536
0.027102959
0.026809113
0.026506099
0.026194058
0.025873175
0.025543675
0.025205822
0.024859921
0.024506308
0.024145358
0.023777473
0.023403084
0.023022648
0.022636642
0.022245564
0.021849926
0.02145025
0.021047069
0.02064092
0.020232343
0.019821873
0.019410045
0.018997385
0.018584408
0.018171619
0.017759505
0.017348539
0.016939176
0.016531848
0.016126968
0.015724927
0.015326089
0.0149308
0.014539376
0.014152113
0.013769279
0.013391121
0.013017858
0.012649688
0.012286785
0.011929298
0.011577354
0.011231056
0.010890486
0.010555707
0.010226776
0.0099037484
0.0095866743
0.028367694
0.028121007
0.027865051
0.027599755
0.02732512
0.027041169
0.026747963
0.026445604
0.026134236
0.025814045
0.025485255
0.025148134
0.024802984
0.024450144
0.024089987
0.023722917
0.023349363
0.022969782
0.022584651
0.022194466
0.021799738
0.021400989
0.02099875
0.020593557
0.020185947
0.019776455
0.019365614
0.018953948
0.018541972
0.018130186
0.017719079
0.017309121
0.016900764
0.01649444
0.01609056
0.015689513
0.015291665
0.014897355
0.014506903
0.014120602
0.013738719
0.013361499
0.012989164
0.012621908
0.012259906
0.011903308
0.011552239
0.011206802
0.010867077
0.010533123
0.010204991
0.0098827397
0.028296285
0.028050247
0.027794945
0.027530312
0.027256352
0.026973089
0.026680588
0.026378951
0.026068324
0.025748894
0.025420887
0.025084571
0.024740248
0.024388259
0.024028977
0.023662803
0.023290169
0.02291153
0.022527362
0.022138161
0.021744435
0.021346707
0.020945505
0.020541363
0.020134818
0.019726403
0.019316649
0.018906078
0.018495202
0.018084522
0.017674522
0.017265673
0.016858424
0.016453205
0.016050427
0.015650475
0.015253714
0.014860485
0.014471102
0.014085859
0.013705023
0.013328837
0.012957522
0.012591273
0.012230263
0.011874643
0.011524538
0.011180052
0.010841259
0.010508211
0.010180949
0.0098595011
0.028217853
0.027972524
0.027717937
0.027454031
0.02718081
0.026898303
0.026606575
0.026305731
0.025995918
0.025677324
0.025350176
0.025014744
0.02467133
0.024320276
0.023961953
0.023596764
0.02322514
0.022847535
0.022464425
0.022076303
0.021683678
0.021287069
0.020887005
0.020484018
0.020078642
0.01967141
0.019262848
0.018853479
0.018443811
0.018034344
0.017625561
0.017217928
0.016811895
0.01640789
0.01600632
0.01560757
0.015212004
0.014819959
0.01443175
0.014047669
0.013667982
0.013292931
0.012922735
0.012557591
0.01219767
0.011843124
0.011494078
0.011150636
0.010812869
0.010480818
0.010154508
0.0098339614
0.028131937
0.027887382
0.027633575
0.027370463
0.027098051
0.026816371
0.026525489
0.026225513
0.025916591
0.025598913
0.025272707
0.024938242
0.024595825
0.024245793
0.023888521
0.023524411
0.023153893
0.02277742
0.022395467
0.022008528
0.021617108
0.021221726
0.020822908
0.020421185
0.020017089
0.01961115
0.019203895
0.01879584
0.018387495
0.017979356
0.017571904
0.017165604
0.016760902
0.016358224
0.015957977
0.015560544
0.015166284
0.014775536
0.014388613
0.014005804
0.013627374
0.013253565
0.012884595
0.012520659
0.01216193
0.011808558
0.011460673
0.011118377
0.01078174
0.010450784
0.010125514
0.0098060012
0.028038054
0.027794339
0.02754138
0.027279133
0.027007605
0.026726828
0.026436871
0.026137843
0.025829895
0.025513216
0.025188039
0.024854633
0.024513303
0.024164389
0.023808266
0.023445334
0.023076024
0.022700788
0.0223201
0.021934451
0.021544348
0.021150305
0.020752849
0.020352507
0.019949808
0.019545283
0.019139453
0.018732835
0.018325935
0.017919246
0.017513247
0.017108402
0.016705153
0.016303926
0.015905123
0.015509126
0.015116295
0.014726963
0.014341443
0.013960022
0.013582965
0.013210512
0.01284288
0.012480263
0.012122834
0.011770745
0.011424126
0.011083085
0.010747692
0.010417939
0.01009379
0.027935694
0.027692887
0.027440848
0.027179543
0.026908977
0.026629185
0.026340235
0.026042241
0.025735354
0.025419767
0.025095711
0.024763458
0.024423313
0.024075619
0.023720747
0.0233591
0.022991107
0.022617219
0.02223791
0.021853669
0.021465
0.021072418
0.020676445
0.020277607
0.019876432
0.019473446
0.01906917
0.018664117
0.018258791
0.017853682
0.017449268
0.017046007
0.016644342
0.016244694
0.015847465
0.015453034
0.015061758
0.014673969
0.014289978
0.01391007
0.013534509
0.013163532
0.012797357
0.012436177
0.012080164
0.01172947
0.011384229
0.011044557
0.010710535
0.010382109
0.010059104
0.027824319
0.027582489
0.027331446
0.027071164
0.026801646
0.026522924
0.026235072
0.025938203
0.02563247
0.02531807
0.024995235
0.024664236
0.024325382
0.023979014
0.023625504
0.023265255
0.022898695
0.022526274
0.022148464
0.021765754
0.021378645
0.020987651
0.020593291
0.02019609
0.019796572
0.01939526
0.018992674
0.018589323
0.018185708
0.017782318
0.017379625
0.016978088
0.016578145
0.016180215
0.015784697
0.015391969
0.015002383
0.014616272
0.014233943
0.01385568
0.013481745
0.013112374
0.012747782
0.012388163
0.012033686
0.011684506
0.011340758
0.011002571
0.010670067
0.027703359
0.027462573
0.027212611
0.026953443
0.026685063
0.026407504
0.026120843
0.025825196
0.025520718
0.025207606
0.024886096
0.024556461
0.024219008
0.02387408
0.02352205
0.023163319
0.022798314
0.022427486
0.022051305
0.021670257
0.021284843
0.020895573
0.020502964
0.020107539
0.019709819
0.019310325
0.018909573
0.018508069
0.018106312
0.017704786
0.017303963
0.016904295
0.016506221
0.016110155
0.015716495
0.015325613
0.014937863
0.014553572
0.014173047
0.013796569
0.013424398
0.013056769
0.012693896
0.012335968
0.011983158
0.011635615
0.011293476
0.010956879
0.027572192
0.02733253
0.027083753
0.026825795
0.02655865
0.026282354
0.025996985
0.025702661
0.025399543
0.025087829
0.024767757
0.024439599
0.024103666
0.0237603
0.023409873
0.023052788
0.02268947
0.022320369
0.021945953
0.021566707
0.021183129
0.020795727
0.020405017
0.020011516
0.019615745
0.019218221
0.018819455
0.018419953
0.018020208
0.017620702
0.017221904
0.016824263
0.016428213
0.016034167
0.015642518
0.015253638
0.014867875
0.014485557
0.014106986
0.013732442
0.013362182
0.012996439
0.012635426
0.012279331
0.011928322
0.011582547
0.011242136
0.010907191
0.027659433
0.02743008
0.027191727
0.02694425
0.026687609
0.026421802
0.026146872
0.025862901
0.025570012
0.025268366
0.024958166
0.024639648
0.024313091
0.023978803
0.023637127
0.023288437
0.022933133
0.022571641
0.022204409
0.021831903
0.021454607
0.021073016
0.020687637
0.02029898
0.019907562
0.019513899
0.019118505
0.018721888
0.018324551
0.017926983
0.017529662
0.017133054
0.016737604
0.016343744
0.015951882
0.015562409
0.015175693
0.014792081
0.014411895
0.014035437
0.013662984
0.013294791
0.012931089
0.012572087
0.012217972
0.01186891
0.011525044
0.011186494
0.010853346
0.027504303
0.027276451
0.027039523
0.026793459
0.026538242
0.026273883
0.02600043
0.025717971
0.025426632
0.025126577
0.024818012
0.024501176
0.024176348
0.023843839
0.023503991
0.023157177
0.022803799
0.022444281
0.022079068
0.021708627
0.021333438
0.020953994
0.020570798
0.02018436
0.019795192
0.019403806
0.019010713
0.018616418
0.018221419
0.017826202
0.017431241
0.017036998
0.016643915
0.016252418
0.015862915
0.015475792
0.015091413
0.014710122
0.01433224
0.013958064
0.013587869
0.013221908
0.012860409
0.012503579
0.012151602
0.011804641
0.011462835
0.011126297
0.010795109
0.027336971
0.027110653
0.026875246
0.026630704
0.026377024
0.026114227
0.025842368
0.02556154
0.025271873
0.024973536
0.024666736
0.024351716
0.024028755
0.023698165
0.02336029
0.023015503
0.022664203
0.022306814
0.021943782
0.021575568
0.021202653
0.020825526
0.020444687
0.020060642
0.019673901
0.019284971
0.01889436
0.01850257
0.018110092
0.01771741
0.017324994
0.016933301
0.01654277
0.016153823
0.015766863
0.015382273
0.015000414
0.014621627
0.014246228
0.013874513
0.013506753
0.013143198
0.012784074
0.012429586
0.012079915
0.01173522
0.011395638
0.011061276
0.010732217
0.027156685
0.026931975
0.026698188
0.026455279
0.026203252
0.025942137
0.025671995
0.025392924
0.02510506
0.024808574
0.024503678
0.024190615
0.023869666
0.023541146
0.023205398
0.022862794
0.022513735
0.022158642
0.021797959
0.021432147
0.021061682
0.020687051
0.020308751
0.019927285
0.019543158
0.019156875
0.018768937
0.018379843
0.017990081
0.017600129
0.017210454
0.016821507
0.016433724
0.016047522
0.015663301
0.015281439
0.014902294
0.014526203
0.014153478
0.013784412
0.013419275
0.013058311
0.012701745
0.012349779
0.012002591
0.011660338
0.011323153
0.010991142
0.010664388
0.026962668
0.026739663
0.026507603
0.026266442
0.02601619
0.025756882
0.025488587
0.025211407
0.024925483
0.024630991
0.024328143
0.024017187
0.023698407
0.023372115
0.023038657
0.022698405
0.022351758
0.021999137
0.021640983
0.021277755
0.020909927
0.020537983
0.020162416
0.019783724
0.01940241
0.019018973
0.018633912
0.018247719
0.017860878
0.017473862
0.017087135
0.016701141
0.016316313
0.015933064
0.015551787
0.015172859
0.014796632
0.014423439
0.014053591
0.013687375
0.013325057
0.01296688
0.012613066
0.012263812
0.011919296
0.011579671
0.011245068
0.010915591
0.010591325
0.026754116
0.026532928
0.02630271
0.026063419
0.025815069
0.025557701
0.025291389
0.025016242
0.024732403
0.024440054
0.024139409
0.02383072
0.02351427
0.023190376
0.022859381
0.022521658
0.022177605
0.021827642
0.021472208
0.021111759
0.020746766
0.020377709
0.020005079
0.019629369
0.019251077
0.018870699
0.018488728
0.018105652
0.017721948
0.017338088
0.016954526
0.016571705
0.016190051
0.015809972
0.015431859
0.015056081
0.014682989
0.014312909
0.013946149
0.013582993
0.013223704
0.012868521
0.012517663
0.012171324
0.011829678
0.011492878
0.011161052
0.010834303
0.010512717
0.026530194
0.026310943
0.026082692
0.025845401
0.025599087
0.025343798
0.025079614
0.024806647
0.024525048
0.024234999
0.023936722
0.023630467
0.023316522
0.022995203
0.022666854
0.022331849
0.021990583
0.021643474
0.021290961
0.020933496
0.020571547
0.020205591
0.019836114
0.019463605
0.019088558
0.018711462
0.018332807
0.017953075
0.017572739
0.017192262
0.016812097
0.016432679
0.01605443
0.015677753
0.015303033
0.014930635
0.014560904
0.014194164
0.013830718
0.013470845
0.013114805
0.012762834
0.012415147
0.012071936
0.011733372
0.011399605
0.011070762
0.010746945
0.01042824
0.026290034
0.02607285
0.025846698
0.025611543
0.025367407
0.025114344
0.024852439
0.02458181
0.024302612
0.024015033
0.023719295
0.023415654
0.023104396
0.022785841
0.022460332
0.022128242
0.021789967
0.021445922
0.021096542
0.020742279
0.020383595
0.020020964
0.019654868
0.019285792
0.018914222
0.018540646
0.018165546
0.017789398
0.01741267
0.017035821
0.016659296
0.016283525
0.015908924
0.015535892
0.015164807
0.01479603
0.014429901
0.01406674
0.013706844
0.013350489
0.012997931
0.012649402
0.012305113
0.011965255
0.011629995
0.011299481
0.010973837
0.010653166
0.010337553
0.026032734
0.025817755
0.025593842
0.025360967
0.025119158
0.024868476
0.02460901
0.024340885
0.02406426
0.023779327
0.023486311
0.023185471
0.022877096
0.022561504
0.02223904
0.021910076
0.021575007
0.021234245
0.020888224
0.020537391
0.020182206
0.019823138
0.019460664
0.019095264
0.01872742
0.018357612
0.017986318
0.017614007
0.017241143
0.016868176
0.016495547
0.01612368
0.015752984
0.015383852
0.015016658
0.014651757
0.014289483
0.013930151
0.013574055
0.013221465
0.012872634
0.012527789
0.012187139
0.011850871
0.011519149
0.011192118
0.010869902
0.010552602
0.010240303
0.025757359
0.025544728
0.025323202
0.02509276
0.024853436
0.024605297
0.02434844
0.024082994
0.023809123
0.023527023
0.023236923
0.022939083
0.022633795
0.022321377
0.022002175
0.021676559
0.021344923
0.021007677
0.020665252
0.020318092
0.019966652
0.019611397
0.019252799
0.018891332
0.018527473
0.018161697
0.017794474
0.017426267
0.017057534
0.01668872
0.016320256
0.015952562
0.015586041
0.015221079
0.014858045
0.014497286
0.014139134
0.013783896
0.013431861
0.013083297
0.01273845
0.012397545
0.012060786
0.011728356
0.011400418
0.011077114
0.010758566
0.010444873
0.01013612
0.025462942
0.02525281
0.025033825
0.024805976
0.024569304
0.024323881
0.02406981
0.023807228
0.023536302
0.023257232
0.022970252
0.022675623
0.022373638
0.022064616
0.021748905
0.021426872
0.021098908
0.020765424
0.020426846
0.020083613
0.019736178
0.019385
0.019030545
0.018673283
0.018313684
0.017952215
0.017589342
0.01722552
0.016861201
0.01649682
0.016132806
0.01576957
0.015407507
0.015046998
0.014688405
0.014332071
0.013978319
0.013627453
0.013279756
0.012935491
0.012594899
0.012258201
0.011925598
0.011597269
0.011273374
0.010954052
0.010639423
0.010329586
0.010024623
0.02514848
0.024941005
0.024724725
0.024499637
0.024265791
0.024023265
0.02377217
0.023512646
0.023244866
0.022969036
0.02268539
0.022394193
0.02209574
0.021790351
0.021478371
0.021160168
0.020836131
0.020506667
0.0201722
0.019833164
0.019490007
0.019143184
0.018793154
0.018440382
0.01808533
0.01772846
0.017370229
0.017011088
0.016651477
0.016291829
0.015932562
0.015574081
0.015216775
0.014861016
0.014507161
0.014155546
0.013806488
0.013460286
0.013117216
0.012777536
0.012441483
0.012109274
0.011781105
0.011457152
0.011137571
0.010822499
0.010512054
0.010206332
0.0099054152
0.024812942
0.024608288
0.024394884
0.024172735
0.023941898
0.023702461
0.023454538
0.023198278
0.022933858
0.022661486
0.022381402
0.022093873
0.021799193
0.021497683
0.021189689
0.020875577
0.020555734
0.020230563
0.019900484
0.019565928
0.019227338
0.018885162
0.018539854
0.018191871
0.017841669
0.017489703
0.017136423
0.016782271
0.016427681
0.016073077
0.015718869
0.015365456
0.015013218
0.014662522
0.014313716
0.013967129
0.013623073
0.013281839
0.0129437
0.012608906
0.012277691
0.011950265
0.011626821
0.011307532
0.01099255
0.010682009
0.010376023
0.010074689
0.0097780861
0.024455265
0.024253604
0.024043255
0.023824231
0.023596597
0.023360449
0.023115908
0.022863128
0.022602292
0.022333611
0.022057328
0.021773713
0.02148306
0.021185692
0.020881952
0.020572206
0.020256837
0.019936246
0.019610849
0.019281071
0.01894735
0.018610127
0.018269852
0.017926973
0.01758194
0.017235199
0.016887192
0.016538354
0.016189111
0.015839878
0.015491057
0.015143039
0.014796197
0.01445089
0.014107457
0.013766223
0.01342749
0.013091545
0.012758653
0.012429061
0.012102994
0.01178066
0.011462247
0.011147923
0.010837837
0.01053212
0.010230883
0.0099342214
0.0096422132
0.02407436
0.023875872
0.023668765
0.023453061
0.023228834
0.022996186
0.022755247
0.022506175
0.022249158
0.021984413
0.021712184
0.021432742
0.021146385
0.020853434
0.020554231
0.02024914
0.019938541
0.019622832
0.019302424
0.018977737
0.018649203
0.018317257
0.017982341
0.017644897
0.017305365
0.016964185
0.01662179
0.016278606
0.01593505
0.01559153
0.015248439
0.014906159
0.014565055
0.014225477
0.013887758
0.013552215
0.013219142
0.01288882
0.012561507
0.012237444
0.011916852
0.011599933
0.011286869
0.010977825
0.010672946
0.01037236
0.010076175
0.0097844831
0.0094973618
0.023669114
0.023473987
0.023270317
0.023058138
0.022837531
0.022608606
0.0223715
0.022126376
0.021873428
0.021612875
0.021344966
0.021069972
0.020788193
0.020499948
0.020205579
0.019905446
0.019599929
0.01928942
0.018974323
0.018655056
0.018332043
0.018005712
0.017676497
0.017344833
0.017011152
0.016675884
0.016339454
0.01600228
0.015664769
0.015327319
0.014990316
0.014654131
0.014319122
0.013985631
0.013653981
0.013324481
0.01299742
0.012673069
0.012351682
0.012033491
0.011718713
0.011407545
0.011100163
0.010796727
0.01049738
0.010202244
0.0099114261
0.0096250149
0.009343086
0.023238394
0.023046824
0.022846797
0.022638357
0.022421594
0.022196626
0.021963595
0.021722671
0.021474053
0.021217964
0.020954654
0.020684397
0.020407492
0.020124258
0.019835035
0.019540182
0.019240072
0.018935095
0.01862565
0.018312147
0.017995003
0.017674641
0.017351486
0.017025964
0.016698498
0.016369511
0.016039416
0.015708622
0.015377528
0.015046522
0.014715979
0.014386263
0.014057721
0.013730687
0.013405475
0.013082387
0.012761703
0.012443687
0.012128585
0.011816625
0.011508015
0.011202947
0.010901593
0.010604108
0.01031063
0.010021278
0.0097361554
0.0094553481
0.0091789298
0.022781054
0.022593243
0.022397073
0.022192597
0.021979913
0.021759147
0.021530447
0.02129399
0.021049977
0.020798637
0.02054022
0.020275003
0.020003284
0.019725381
0.019441632
0.019152393
0.018858034
0.018558937
0.018255498
0.017948119
0.017637212
0.017323189
0.017006467
0.016687464
0.016366595
0.016044271
0.015720896
0.01539687
0.01507258
0.014748406
0.014424712
0.014101853
0.013780165
0.013459974
0.013141586
0.012825291
0.012511364
0.01220006
0.011891618
0.011586259
0.011284185
0.010985581
0.010690615
0.010399437
0.010112179
0.0098289577
0.0095498721
0.0092750052
0.0090044281
0.022295936
0.022112099
0.021920009
0.021719732
0.021511374
0.021295067
0.021070967
0.020839255
0.020600137
0.020353844
0.02010063
0.01984077
0.019574564
0.019302328
0.019024398
0.018741124
0.018452873
0.018160022
0.01786296
0.017562083
0.017257792
0.016950494
0.016640597
0.016328507
0.01601463
0.015699368
0.015383114
0.015066258
0.014749176
0.014432236
0.014115795
0.013800195
0.013485764
0.013172817
0.01286165
0.012552546
0.01224577
0.01194157
0.011640176
0.011341802
0.011046645
0.010754884
0.010466679
0.010182176
0.0099015033
0.0096247722
0.0093520783
0.0090835012
0.0088191092
0.021781887
0.021602243
0.021414469
0.021218637
0.021014863
0.020803285
0.020584065
0.020357391
0.020123471
0.01988254
0.019634852
0.019380685
0.019120334
0.018854116
0.018582363
0.018305422
0.018023654
0.01773743
0.017447132
0.017153148
0.016855872
0.016555701
0.016253033
0.015948266
0.015641794
0.015334007
0.015025291
0.014716021
0.014406564
0.014097278
0.013788507
0.013480583
0.013173825
0.012868536
0.012565004
0.012263501
0.011964284
0.011667592
0.011373648
0.011082659
0.010794813
0.010510284
0.010229227
0.0099517817
0.0096780717
0.0094082041
0.0091422703
0.0088803462
0.0086224962
0.021237758
0.02106254
0.020879325
0.020688196
0.020489275
0.020282709
0.020068666
0.019847336
0.019618932
0.019383691
0.019141869
0.018893742
0.018639605
0.018379772
0.018114572
0.017844346
0.017569451
0.01729025
0.017007119
0.016720436
0.016430588
0.016137961
0.015842943
0.015545922
0.01524728
0.014947399
0.014646649
0.014345397
0.014043998
0.013742797
0.013442128
0.013142312
0.012843656
0.012546453
0.012250981
0.011957503
0.011666266
0.011377501
0.011091422
0.010808228
0.010528102
0.010251209
0.0099776988
0.0097077064
0.00944135
0.0091787324
0.0089199409
0.0086650475
0.0084141111
0.020662427
0.020491874
0.020313473
0.020127316
0.019933532
0.019732273
0.019523713
0.019308047
0.019085492
0.018856284
0.018620681
0.018378957
0.018131408
0.017878342
0.017620084
0.017356972
0.017089354
0.016817588
0.01654204
0.016263081
0.015981087
0.015696435
0.015409502
0.015120664
0.014830294
0.014538759
0.014246421
0.013953631
0.013660734
0.013368064
0.013075942
0.012784677
0.012494566
0.012205891
0.011918919
0.011633903
0.01135108
0.011070672
0.010792886
0.010517912
0.010245925
0.0099770836
0.0097115331
0.0094494014
0.0091908023
0.0089358347
0.0086845826
0.0084371139
0.0081934806
0.020054804
0.019889167
0.019715845
0.019534938
0.019346584
0.01915094
0.018948184
0.018738516