/*--------------------------------*- C++ -*----------------------------------*\
| =========                 |                                                 |
| \\      /  F ield         | OpenFOAM: The Open Source CFD Toolbox           |
|  \\    /   O peration     | Version:  2312                                  |
|   \\  /    A nd           | Website:  www.openfoam.com                      |
|    \\/     M anipulation  |                                                 |
\*---------------------------------------------------------------------------*/
FoamFile
{
    version     2.0;
    format      ascii;
    arch        "LSB;label=32;scalar=64";
    class       volScalarField;
    location    "0.07";
    object      f_Bilger;
}
// * * * * * * * * * * * * * * * * * * * * * * * * * * * * * * * * * * * * * //

dimensions      [0 0 0 0 0 0 0];

internalField   nonuniform List<scalar> 
3251
(
0.06658952
0.065370223
0.064141586
0.0629045
0.061659952
0.060408997
0.059152752
0.057892382
0.056629098
0.055364151
0.054098818
0.052834399
0.051572209
0.050313568
0.049059795
0.0478122
0.046572075
0.04534069
0.044119283
0.042909054
0.041711161
0.040526713
0.039356766
0.038202317
0.0370643
0.035943588
0.034840982
0.033757217
0.032692956
0.031648791
0.030625242
0.029622757
0.028641715
0.027682427
0.026745134
0.025830014
0.024937181
0.024066692
0.023218542
0.022392678
0.021588992
0.02080733
0.020047497
0.019309254
0.01859233
0.017896419
0.017221186
0.016566275
0.015931306
0.015315886
0.014719611
0.014142091
0.013582992
0.01304179
0.012517913
0.012010886
0.011520245
0.011045528
0.066581326
0.065362257
0.064133824
0.062896934
0.061652581
0.060401823
0.059145772
0.057885597
0.056622508
0.055357754
0.054092613
0.052828386
0.051566386
0.050307934
0.049054348
0.047806938
0.046566997
0.045335794
0.044114565
0.042904513
0.041706794
0.040522517
0.039352737
0.038198453
0.037060597
0.035940043
0.034837591
0.033753977
0.032689863
0.03164584
0.030622429
0.029620079
0.028639168
0.027680005
0.026742834
0.025827832
0.024935113
0.024064733
0.023216689
0.022390925
0.021587336
0.020805768
0.020046024
0.019307867
0.018591026
0.017895195
0.01722004
0.016565204
0.015930311
0.015314965
0.014718764
0.014141313
0.013582231
0.013041021
0.012517151
0.012010139
0.011519517
0.011044833
0.066564334
0.065345671
0.064117621
0.062881105
0.061637124
0.060386737
0.059131058
0.057871253
0.056608534
0.055344149
0.054079376
0.052815515
0.051553879
0.05029579
0.049042564
0.047795513
0.046555927
0.045325075
0.044104194
0.042894486
0.041697107
0.040513166
0.039343716
0.038189757
0.037052221
0.03593198
0.034829835
0.033746522
0.032682702
0.031638966
0.030615836
0.029613758
0.028633113
0.027674209
0.026737288
0.025822529
0.024930046
0.024059893
0.023212069
0.022386519
0.021583135
0.020801764
0.020042211
0.019304239
0.018587575
0.017891915
0.017216927
0.016562252
0.015927513
0.015312319
0.014716263
0.014138945
0.013579957
0.013038819
0.012515023
0.012008086
0.011517539
0.011042925
0.066538571
0.065320485
0.064092994
0.062857029
0.061613597
0.060363757
0.059108624
0.057849364
0.056587189
0.055323348
0.054059117
0.052795796
0.051534699
0.050277145
0.049024453
0.047777931
0.046538871
0.045308541
0.044088177
0.042878981
0.041682107
0.040498665
0.039329708
0.038176232
0.037039173
0.035919401
0.034817716
0.033734854
0.032671475
0.031628171
0.030605461
0.029603795
0.02862355
0.027665035
0.026728494
0.025814103
0.024921976
0.02405217
0.023204681
0.022379454
0.021576383
0.020795316
0.020036055
0.019298365
0.018581973
0.017886576
0.017211841
0.016557411
0.015922909
0.015307942
0.014712104
0.014134986
0.013576166
0.013035175
0.01251152
0.012004723
0.01151431
0.011039778
0.066504057
0.065286716
0.06405996
0.062824721
0.061582012
0.060332894
0.059078481
0.057819942
0.056558486
0.055295362
0.054031847
0.05276924
0.051508855
0.05025201
0.049000024
0.047754203
0.046515839
0.0452862
0.044066521
0.042858002
0.041661799
0.040479019
0.039310716
0.038157885
0.03702146
0.03590231
0.034801238
0.033718975
0.032656184
0.031613455
0.030591307
0.029590189
0.028610479
0.027652486
0.026716451
0.025802552
0.024910904
0.024041561
0.023194522
0.02236973
0.021567081
0.02078642
0.020027552
0.019290242
0.018574217
0.017879174
0.01720478
0.016550679
0.015916494
0.015301831
0.014706283
0.014129435
0.013570857
0.013030086
0.01250664
0.012000046
0.011509835
0.066463281
0.065246804
0.064020904
0.062786514
0.061544652
0.060296378
0.05904281
0.057785113
0.056524499
0.055262215
0.053999539
0.052737769
0.051478218
0.050222204
0.048971044
0.047726046
0.046488499
0.04525967
0.044040796
0.042833073
0.041637657
0.040455655
0.03928812
0.038136046
0.037000366
0.035881949
0.034781597
0.03370004
0.032637941
0.031595889
0.030574404
0.029573933
0.028594853
0.027637474
0.026702037
0.02578872
0.024897637
0.024028842
0.023182334
0.022358057
0.021555906
0.020775727
0.020017325
0.019280464
0.018564874
0.017870249
0.01719626
0.016542548
0.015908738
0.015294435
0.01469923
0.014122703
0.013564421
0.013023924
0.012500738
0.011994398
0.01150447
0.066417515
0.065201997
0.063977049
0.062743608
0.06150269
0.06025536
0.059002733
0.057745976
0.056486302
0.055224957
0.053963217
0.052702382
0.051443762
0.050188676
0.04893844
0.04769436
0.046457727
0.045229804
0.044011828
0.042804995
0.04161046
0.040429329
0.039262652
0.038111425
0.036976579
0.035858983
0.034759436
0.03367867
0.032617346
0.031576053
0.03055531
0.029555563
0.028577191
0.0276205
0.026685734
0.025773069
0.02488262
0.02401444
0.023168529
0.02234483
0.021543239
0.020763601
0.020005723
0.019269368
0.018554265
0.017860112
0.017186577
0.016533303
0.015899914
0.015286015
0.014691194
0.014115031
0.013557087
0.013016906
0.012494021
0.011987973
0.011498349
0.066363168
0.065148779
0.063924956
0.062692634
0.061452833
0.060206617
0.058955104
0.05769946
0.056440897
0.055180661
0.05392003
0.052660299
0.051402782
0.050148794
0.048899651
0.047656659
0.046421105
0.045194256
0.043977343
0.042771564
0.041578072
0.040397971
0.039232312
0.038082088
0.03694823
0.035831606
0.034733015
0.033653186
0.032592781
0.031552388
0.030532524
0.029533637
0.028556103
0.02760023
0.02666626
0.02575437
0.024864672
0.023997224
0.023152021
0.022329009
0.021528082
0.020749088
0.019991832
0.019256078
0.018541556
0.017847963
0.017174967
0.016522214
0.015889326
0.015275906
0.014681544
0.014105815
0.013548278
0.013008481
0.012485959
0.01198026
0.011490966
0.066299604
0.065086527
0.063864012
0.062632995
0.061394495
0.060149578
0.058899363
0.057645016
0.056387748
0.055128806
0.053869466
0.052611025
0.051354792
0.050102085
0.048854217
0.047612493
0.0463782
0.045152601
0.04393693
0.042732381
0.041540105
0.040361207
0.039196736
0.038047683
0.036914979
0.03579949
0.034702014
0.03362328
0.032563948
0.031524606
0.03050577
0.029507887
0.028531333
0.027576416
0.026643377
0.025732391
0.024843574
0.02397698
0.023132606
0.022310397
0.021510249
0.020732008
0.01997548
0.01924043
0.018526587
0.017833649
0.017161287
0.016509142
0.01587684
0.015263983
0.014670158
0.014094938
0.013537883
0.01299854
0.012476451
0.011971165
0.066226149
0.065014582
0.063793572
0.062564057
0.061327056
0.060083637
0.058834917
0.057582064
0.056326289
0.055068839
0.053810987
0.052554031
0.05129928
0.050048049
0.048801651
0.047561389
0.046328549
0.045104394
0.043890154
0.042687022
0.041496151
0.04031864
0.039155539
0.038007837
0.036876465
0.035762285
0.034666096
0.033588626
0.032530533
0.031492404
0.030474754
0.029478031
0.028502609
0.027548795
0.026616831
0.025706891
0.024819091
0.023953483
0.023110068
0.022288788
0.021489539
0.020712169
0.019956483
0.019222246
0.01850919
0.01781701
0.017145379
0.016493939
0.015862315
0.015250108
0.014656905
0.014082278
0.013525784
0.012986972
0.012465391
0.011960602
0.066142091
0.064932245
0.063712953
0.062485151
0.061249861
0.06000815
0.058761137
0.057509991
0.05625592
0.055000172
0.05374402
0.052488761
0.051235701
0.049986156
0.048741436
0.047502844
0.046271664
0.045049157
0.043836552
0.042635041
0.041445773
0.040269848
0.039108312
0.037962155
0.036832303
0.035719621
0.034624903
0.033548877
0.0324922
0.031455458
0.030439166
0.029443768
0.028469641
0.027517089
0.026586354
0.025677611
0.024790974
0.023926497
0.023084177
0.022263961
0.021465741
0.020689368
0.019934646
0.019201341
0.018489184
0.017797874
0.01712708
0.016476447
0.015845599
0.015234138
0.01464165
0.014067703
0.013511854
0.012973658
0.012452667
0.066046677
0.064838779
0.063621431
0.062395569
0.061162216
0.05992244
0.058677361
0.057428147
0.056176007
0.054922187
0.053667961
0.052414623
0.05116348
0.049915844
0.048673027
0.047436327
0.046207029
0.04498639
0.043775638
0.042575963
0.041388512
0.040214384
0.039054623
0.037910216
0.03678209
0.035671105
0.034578055
0.033503667
0.032448596
0.031413427
0.030398674
0.029404781
0.028432122
0.027481003
0.026551663
0.025644277
0.02475896
0.023895765
0.023054691
0.022235681
0.021438631
0.02066339
0.019909762
0.019177516
0.018466381
0.017776057
0.017106214
0.016456498
0.015826533
0.01521592
0.014624245
0.014051074
0.013495963
0.012958472
0.012438174
0.065939112
0.064733404
0.063518241
0.062294562
0.061063388
0.059825789
0.058582886
0.057335845
0.056085878
0.054834229
0.05358217
0.052330994
0.051082008
0.049836523
0.048595846
0.047361277
0.046134096
0.044915559
0.043706894
0.042509286
0.041323882
0.040151777
0.038994015
0.037851579
0.036725395
0.035616322
0.034525151
0.033452608
0.032399346
0.03136595
0.030352931
0.029360732
0.028389728
0.027440222
0.026512455
0.0256066
0.024722771
0.023861022
0.02302135
0.022203701
0.02140797
0.020634005
0.019881612
0.01915056
0.018440578
0.017751366
0.017082597
0.016433915
0.015804946
0.015195292
0.014604536
0.014032243
0.013477969
0.01294128
0.065818556
0.064615297
0.063402578
0.062181338
0.060952602
0.059717439
0.05847697
0.057232362
0.055984826
0.054735605
0.053485971
0.052237216
0.050990644
0.049747564
0.048509283
0.047277098
0.046052287
0.044836105
0.043629774
0.042434481
0.041251368
0.040081528
0.038926003
0.037785775
0.036661765
0.035554832
0.034465766
0.033395289
0.032344053
0.031312642
0.030301565
0.029311265
0.028342114
0.027394417
0.026468411
0.025564271
0.024682109
0.02382198
0.022983881
0.022167758
0.021373505
0.020600971
0.019849963
0.019120249
0.01841156
0.017723597
0.017056031
0.01640851
0.015780658
0.015172081
0.014582359
0.014011056
0.013457724
0.012921955
0.065684122
0.064483588
0.063273588
0.062055065
0.060829042
0.05959659
0.05835883
0.057116932
0.055872102
0.054625585
0.053378652
0.052132591
0.050888707
0.049648307
0.048412695
0.047183164
0.045960993
0.044747432
0.043543703
0.042350987
0.041170426
0.04000311
0.038850077
0.037712307
0.036590721
0.035486173
0.034399451
0.033331276
0.032282298
0.031253098
0.030244186
0.029256002
0.028288918
0.027343236
0.026419193
0.025516965
0.024636663
0.023778341
0.022941996
0.022127573
0.021334969
0.020564031
0.019814568
0.019086348
0.018379101
0.017692531
0.017026308
0.016380082
0.015753478
0.015146104
0.014557541
0.013987347
0.013435069
0.065534875
0.06433736
0.063130374
0.06191486
0.060691844
0.059462397
0.058227642
0.056988746
0.055746917
0.054503398
0.053259458
0.052016386
0.050775482
0.049538053
0.048305399
0.047078813
0.045859569
0.044648916
0.04344807
0.042258213
0.041080482
0.039915965
0.038765696
0.037630654
0.036511755
0.035409852
0.034325731
0.03326011
0.032213637
0.031186892
0.030180382
0.029194546
0.028229754
0.027286308
0.026364446
0.02546434
0.024586101
0.023729785
0.022895387
0.022082853
0.021292079
0.020522915
0.019775167
0.019048605
0.018342962
0.017657938
0.016993207
0.01634842
0.015723204
0.015117168
0.014529897
0.013960946
0.013409854
0.065369831
0.064175648
0.062971987
0.061759795
0.060540099
0.059313971
0.058082533
0.056846953
0.055608438
0.054368231
0.053127597
0.051887825
0.050650214
0.049416066
0.04818668
0.046963347
0.045747336
0.044539894
0.043342235
0.042155536
0.040980931
0.039819506
0.038672291
0.037540263
0.036424334
0.035325354
0.034244106
0.033181307
0.032137603
0.03111357
0.030109714
0.029126474
0.028164216
0.027223243
0.02630379
0.02540603
0.024530074
0.023675975
0.022843731
0.022033286
0.021244537
0.020477333
0.019731484
0.019006757
0.018302887
0.017619575
0.016956495
0.0163133
0.015689619
0.015085067
0.014499232
0.013931671
0.065187952
0.063997433
0.062797431
0.061588894
0.06037285
0.059150374
0.057922587
0.056690657
0.05545579
0.054219226
0.052982232
0.051746093
0.050512105
0.049281569
0.048055782
0.046836028
0.045623577
0.04441967
0.043225519
0.042042297
0.040871135
0.039713114
0.038569262
0.037440551
0.036327892
0.035232131
0.034154048
0.033094357
0.032053702
0.031032656
0.030031724
0.029051342
0.028091876
0.027153627
0.026236829
0.025341653
0.024468212
0.023616557
0.022786685
0.021978542
0.021192025
0.020426984
0.019683227
0.018960524
0.018258608
0.017577184
0.016915925
0.016274485
0.015652498
0.015049583
0.014465341
0.013899355
0.064988147
0.063801645
0.062605654
0.061401126
0.06018909
0.05897062
0.057746838
0.056518912
0.055288048
0.054055483
0.052822483
0.05159033
0.050360319
0.049133747
0.047911907
0.046696083
0.045487538
0.044287511
0.04309721
0.041917804
0.04075042
0.039596135
0.038455975
0.037330906
0.036221836
0.035129608
0.034055
0.032998721
0.031961412
0.030943646
0.029945925
0.028968681
0.028012281
0.027077023
0.026163141
0.025270804
0.024400125
0.023551154
0.022723889
0.021918276
0.021134211
0.020371546
0.019630088
0.018909609
0.018209843
0.017530494
0.016871237
0.016231725
0.015611597
0.015010482
0.014427995
0.013863728
0.064769268
0.063587159
0.062395553
0.061195409
0.059987757
0.05877367
0.057554271
0.056330727
0.055104241
0.053876052
0.052647423
0.051419632
0.050193973
0.048971738
0.04775422
0.046542695
0.045338425
0.044142645
0.042956557
0.041781328
0.040618079
0.039467884
0.038331763
0.037210681
0.03610554
0.03501718
0.033946374
0.032893831
0.031860187
0.030846011
0.029851805
0.028877998
0.027924955
0.026992973
0.026082283
0.025193056
0.024325401
0.023479371
0.022654962
0.02185212
0.021070742
0.02031068
0.019571742
0.018853701
0.018156292
0.017479217
0.016822154
0.016184755
0.015566662
0.014967519
0.014386956
0.013824537
0.064530111
0.063352791
0.062165969
0.060970608
0.059767739
0.058558435
0.057343819
0.056125057
0.054903351
0.053679938
0.052456078
0.051233049
0.05001214
0.048794641
0.047581838
0.046375008
0.045175405
0.04398426
0.042802772
0.041632102
0.040473367
0.039327637
0.038195927
0.037079197
0.035978345
0.034894208
0.033827555
0.03277909
0.031749447
0.030739194
0.029748826
0.028778772
0.027829396
0.026900991
0.025993788
0.025107958
0.024243608
0.02340079
0.022579502
0.021779688
0.021001246
0.020244029
0.019507847
0.018792471
0.018097638
0.017423052
0.016768388
0.016133298
0.015517423
0.014920431
0.014341986
0.064269414
0.063097302
0.061915683
0.060725529
0.059527867
0.058323771
0.057114363
0.055900807
0.054684306
0.053466094
0.052247428
0.051029585
0.049813848
0.048601505
0.047393839
0.04619212
0.044997599
0.043811503
0.042635024
0.04146932
0.040315502
0.039174634
0.038047728
0.036935739
0.035839559
0.034760022
0.033697893
0.032653871
0.031628587
0.030622605
0.029636419
0.028670456
0.027725074
0.026800567
0.025897166
0.025015037
0.024154289
0.023314973
0.022497086
0.021700573
0.020925333
0.020171218
0.01943804
0.018725571
0.01803355
0.017361679
0.016709634
0.016077061
0.015463596
0.014868942
0.014292865
0.063985851
0.062819388
0.06164342
0.060458921
0.059266916
0.058068479
0.056864728
0.05565683
0.054445984
0.053233423
0.052020401
0.050808192
0.049598076
0.048391336
0.047189252
0.045993087
0.04480409
0.043623479
0.042452445
0.041292137
0.040143662
0.039008079
0.037886394
0.036779557
0.035688456
0.034613919
0.033556706
0.032517513
0.031496968
0.03049563
0.029513991
0.028552473
0.027611435
0.026691167
0.025791898
0.024913794
0.024056963
0.023221456
0.022407268
0.021614346
0.020842589
0.02009185
0.019361941
0.018652637
0.017963676
0.017294763
0.016645572
0.016015742
0.015404884
0.063678036
0.062517685
0.061347842
0.060169475
0.058983605
0.057791302
0.056593687
0.055391923
0.05418721
0.052980776
0.051773875
0.050567776
0.049363755
0.048163092
0.04696706
0.04577692
0.044593913
0.043419252
0.042254122
0.041099667
0.039956987
0.038827136
0.037711114
0.036609865
0.035524273
0.034455158
0.033403279
0.032369325
0.031353921
0.030357621
0.029380914
0.02842422
0.027487894
0.026572226
0.025677442
0.024803706
0.023951126
0.023119752
0.02230958
0.021520557
0.020752581
0.020005507
0.019279149
0.018573282
0.017887647
0.01722195
0.016575867
0.015949033
0.0633445
0.062190758
0.061027551
0.059855823
0.058676592
0.05749093
0.056299955
0.05510483
0.053906753
0.052706952
0.051506676
0.05030719
0.049109767
0.047915682
0.046726202
0.045542583
0.044366059
0.04319784
0.042039101
0.040890981
0.039754575
0.03863093
0.037521038
0.036425839
0.03534621
0.034282967
0.033236862
0.032208581
0.031198742
0.030207898
0.029236532
0.028285062
0.02735384
0.026443153
0.025553226
0.024684223
0.023836248
0.023009352
0.022203531
0.021418732
0.020654854
0.019911752
0.019189243
0.018487102
0.017805073
0.017142867
0.016500165
0.015876629
0.06411983
0.062983654
0.061837116
0.060681089
0.059516537
0.05834448
0.05716599
0.055982188
0.054794236
0.05360333
0.052410695
0.051217577
0.050025236
0.048834943
0.047647965
0.046465565
0.045288992
0.044119475
0.042958216
0.041806384
0.04066511
0.039535484
0.038418544
0.037315277
0.036226616
0.035153432
0.034096535
0.033056671
0.03203452
0.031030697
0.03004575
0.029080157
0.028134335
0.027208631
0.026303329
0.025418654
0.024554767
0.023711772
0.022889719
0.022088603
0.021308373
0.020548927
0.019810124
0.019091778
0.018393671
0.017715547
0.017057121
0.016418083
0.015798111
0.063722316
0.062593984
0.06145522
0.060306942
0.059150129
0.057985808
0.056815055
0.05563899
0.054458774
0.053275602
0.052090696
0.050905299
0.049720667
0.048538063
0.047358753
0.04618399
0.045015019
0.04385306
0.042699308
0.041554927
0.04042104
0.039298727
0.038189021
0.037092903
0.036011295
0.034945064
0.033895014
0.032861883
0.031846348
0.030849017
0.029870432
0.028911071
0.027971343
0.027051593
0.026152105
0.025273098
0.024414734
0.023577115
0.02276029
0.021964256
0.021188959
0.0204343
0.019700138
0.018986291
0.01829254
0.017618635
0.016964295
0.016329216
0.015713082
0.063293828
0.062173879
0.061043471
0.059903532
0.058755051
0.05759906
0.056436636
0.055268902
0.054097017
0.052922174
0.051745592
0.05056851
0.049392179
0.048217858
0.047046805
0.045880268
0.044719484
0.043565665
0.042420001
0.041283645
0.040157713
0.039043278
0.037941365
0.036852945
0.035778936
0.034720195
0.03367752
0.032651644
0.031643235
0.030652897
0.029681168
0.02872852
0.027795358
0.026882026
0.025988802
0.025115904
0.024263492
0.023431668
0.022620479
0.021829922
0.021059944
0.020310446
0.01958129
0.018872293
0.018183242
0.017513887
0.016863953
0.016233141
0.015621138
0.062832618
0.061721644
0.060600204
0.059469224
0.058329697
0.057182659
0.05602919
0.054870412
0.053707484
0.052541596
0.051373965
0.050205823
0.04903842
0.047873006
0.046710832
0.045553142
0.044401162
0.043256099
0.042119131
0.040991406
0.03987403
0.038768068
0.037674535
0.036594395
0.035528558
0.034477874
0.033443131
0.032425058
0.031424315
0.0304415
0.029477146
0.02853172
0.027605623
0.026699195
0.025812711
0.024946387
0.024100381
0.023274792
0.02246967
0.021685008
0.020920756
0.020176815
0.019453047
0.018749274
0.018065283
0.017400829
0.016755639
0.01612942
0.015521858
0.062336879
0.06123552
0.060123691
0.05900232
0.0578724
0.056734971
0.055591113
0.05444195
0.053288637
0.052132364
0.050974343
0.049815802
0.048657984
0.047502135
0.046349497
0.045201306
0.044058781
0.042923119
0.041795492
0.040677035
0.039568847
0.038471983
0.037387451
0.036316204
0.035259144
0.034217111
0.033190889
0.032181195
0.031188686
0.030213953
0.029257521
0.028319853
0.027401346
0.026502335
0.025623093
0.024763833
0.02392471
0.023105824
0.02230722
0.021528896
0.020770798
0.020032831
0.019314857
0.018616701
0.017938151
0.017278966
0.016638876
0.016017592
0.015414803
0.061804751
0.060713681
0.059612142
0.058501062
0.057381435
0.056254303
0.055120747
0.053981889
0.052838886
0.051692921
0.050545203
0.049396957
0.048249417
0.047103823
0.045961411
0.044823406
0.04369102
0.042565441
0.041447829
0.040339312
0.039240977
0.038153871
0.03707899
0.036017281
0.034969633
0.033936881
0.032919796
0.031919091
0.030935414
0.029969348
0.029021414
0.028092069
0.027181704
0.026290651
0.025419179
0.024567499
0.023735762
0.022924068
0.022132462
0.021360939
0.020609448
0.019877894
0.019166141
0.018474015
0.017801308
0.01714778
0.016513167
0.015897182
0.015299514
0.061234315
0.060154246
0.059063709
0.057963635
0.056855021
0.055738908
0.054616378
0.053488552
0.052356584
0.051221656
0.050084971
0.048947747
0.047811214
0.046676602
0.04554514
0.044418044
0.043296516
0.042181733
0.041074848
0.039976975
0.038889193
0.037812537
0.036747993
0.035696498
0.034658931
0.033636117
0.03262882
0.031637743
0.030663525
0.029706744
0.028767914
0.027847485
0.026945844
0.026063317
0.025200171
0.024356612
0.023532791
0.022728805
0.021944699
0.021180467
0.020436059
0.01971138
0.019006297
0.018320636
0.017654194
0.017006734
0.016377993
0.015767688
0.015175512
0.0606236
0.059555275
0.058476489
0.057388172
0.056291323
0.055186985
0.054076241
0.052960208
0.051840039
0.050716911
0.049592022
0.048466586
0.047341823
0.046218956
0.045099204
0.043983774
0.042873858
0.041770624
0.040675209
0.039588721
0.038512226
0.037446746
0.036393258
0.035352687
0.034325904
0.03331372
0.032316893
0.031336114
0.030372015
0.029425167
0.028496076
0.027585186
0.026692878
0.025819475
0.024965238
0.024130371
0.023315022
0.022519287
0.021743208
0.020986782
0.020249956
0.019532639
0.018834697
0.018155961
0.017496229
0.016855266
0.016232815
0.015628593
0.015042298
0.059970581
0.058914781
0.057848526
0.056772751
0.055688457
0.054596686
0.053498521
0.052395078
0.051287507
0.050176979
0.049064688
0.04795184
0.046839647
0.045729324
0.04462208
0.043519111
0.042421598
0.041330697
0.040247536
0.039173208
0.038108768
0.037055227
0.036013549
0.034984648
0.033969382
0.032968555
0.031982911
0.031013134
0.030059847
0.029123611
0.028204925
0.027304227
0.026421894
0.02555824
0.024713524
0.023887947
0.023081654
0.022294738
0.021527242
0.02077916
0.020050443
0.019340997
0.018650693
0.017979363
0.017326807
0.016692794
0.01607707
0.015479356
0.014899353
0.059273189
0.058230726
0.057177819
0.056115407
0.055044491
0.053966115
0.05288136
0.051791341
0.050697202
0.049600112
0.048501257
0.047401835
0.04630305
0.045206107
0.044112205
0.043022528
0.041938246
0.040860503
0.039790413
0.038729057
0.037677477
0.036636672
0.035607593
0.034591141
0.033588163
0.032599452
0.031625739
0.030667701
0.029725949
0.028801037
0.027893455
0.027003634
0.026131945
0.025278697
0.024444144
0.023628483
0.022831857
0.022054357
0.021296024
0.020556854
0.019836795
0.019135758
0.018453611
0.017790192
0.017145302
0.016518715
0.015910178
0.015319418
0.014746138
0.058529313
0.057501034
0.056462326
0.055414131
0.054357453
0.053293335
0.052222858
0.051147133
0.0500673
0.048984522
0.047899978
0.046814858
0.045730357
0.044647668
0.043567979
0.042492465
0.041422279
0.040358553
0.039302389
0.038254855
0.037216977
0.036189741
0.035174086
0.034170898
0.033181014
0.032205212
0.031244214
0.030298684
0.029369225
0.028456381
0.027560633
0.026682405
0.025822061
0.024979905
0.024156186
0.023351097
0.022564779
0.021797319
0.021048759
0.020319092
0.019608269
0.0189162
0.018242757
0.017587778
0.016951068
0.016332404
0.015731538
0.015148199
0.014582096
0.057736808
0.056723593
0.055699969
0.054666882
0.053625338
0.052576378
0.051521083
0.050460559
0.049395942
0.048328389
0.047259069
0.046189165
0.04511986
0.044052338
0.042987774
0.041927328
0.040872141
0.039823332
0.038781987
0.037749159
0.036725862
0.035713066
0.034711695
0.033722624
0.032746673
0.03178461
0.030837143
0.029904926
0.028988551
0.02808855
0.027205399
0.026339512
0.025491246
0.024660899
0.023848715
0.023054884
0.022279542
0.021522775
0.020784624
0.02006508
0.019364096
0.018681582
0.018017413
0.017371428
0.016743436
0.016133218
0.015540529
0.014965102
0.01440665
0.056893504
0.055896265
0.054888645
0.053871592
0.052846112
0.051813247
0.050774074
0.049729696
0.048681243
0.047629864
0.046576721
0.045522984
0.044469829
0.043418424
0.042369932
0.041325499
0.040286254
0.039253298
0.038227702
0.037210505
0.036202704
0.035205254
0.034219066
0.033244997
0.032283856
0.031336395
0.030403312
0.029485245
0.028582778
0.027696432
0.026826673
0.025973906
0.025138482
0.024320692
0.023520776
0.022738917
0.021975249
0.021229857
0.020502778
0.019794005
0.01910349
0.018431144
0.017776845
0.017140433
0.016521722
0.015920495
0.015336511
0.014769509
0.014219206
0.055997213
0.055016897
0.054026233
0.053026174
0.052017725
0.051001927
0.049979853
0.048952603
0.047921299
0.046887082
0.045851104
0.044814526
0.04377851
0.042744211
0.041712779
0.040685344
0.039663019
0.038646889
0.037638011
0.036637405
0.035646053
0.034664894
0.033694822
0.032736679
0.031791259
0.0308593
0.029941485
0.029038443
0.028150741
0.027278893
0.026423353
0.025584519
0.024762732
0.023958279
0.023171391
0.022402249
0.021650984
0.020917676
0.020202362
0.019505034
0.018825645
0.018164107
0.017520298
0.016894064
0.01628522
0.015693553
0.015118828
0.014560787
0.014019153
0.055045742
0.054083326
0.053110605
0.052128534
0.051138116
0.050140393
0.049136432
0.048127328
0.047114195
0.046098166
0.045080382
0.044061991
0.043044141
0.042027976
0.041014628
0.040005213
0.039000825
0.038002534
0.037011379
0.036028363
0.03505445
0.034090562
0.033137575
0.032196318
0.031267565
0.030352042
0.029450417
0.028563304
0.02769126
0.026834786
0.025994325
0.025170267
0.024362945
0.023572637
0.022799571
0.022043921
0.021305814
0.020585329
0.0198825
0.019197319
0.018529739
0.017879674
0.017247004
0.016631577
0.016033211
0.015451699
0.014886809
0.014338289
0.013805866
0.054036906
0.053093398
0.052139638
0.051176581
0.050205231
0.049226625
0.048241827
0.047251923
0.046258021
0.045261241
0.044262715
0.043263577
0.042264961
0.041267994
0.040273793
0.039283456
0.038298061
0.037318658
0.036346268
0.035381877
0.034426428
0.033480828
0.032545933
0.031622555
0.030711452
0.029813333
0.028928852
0.028058609
0.027203147
0.026362954
0.025538466
0.024730059
0.023938059
0.023162737
0.022404314
0.021662959
0.020938796
0.0202319
0.019542304
0.01887
0.01821494
0.017577039
0.016956181
0.016352214
0.015764963
0.015194224
0.014639769
0.014101352
0.013578705
0.052968541
0.052044978
0.051111228
0.050168244
0.04921703
0.048258618
0.047294066
0.046324453
0.045350876
0.044374445
0.043396278
0.042417495
0.041439215
0.040462549
0.039488594
0.038518432
0.03755312
0.036593692
0.035641147
0.03469645
0.033760528
0.032834267
0.031918504
0.031014033
0.030121596
0.029241884
0.028375535
0.027523133
0.02668521
0.02586224
0.025054646
0.024262797
0.023487007
0.022727541
0.021984612
0.021258385
0.020548979
0.019856466
0.019180879
0.018522207
0.017880403
0.017255384
0.016647035
0.016055209
0.015479732
0.014920407
0.01437701
0.013849301
0.013337019
0.051838519
0.050935969
0.050023306
0.049101486
0.048171508
0.047234399
0.04629121
0.045343012
0.04439089
0.043435941
0.04247927
0.041521981
0.040565176
0.039609947
0.038657374
0.037708518
0.036764418
0.035826084
0.034894497
0.033970601
0.033055302
0.032149465
0.03125391
0.030369408
0.029496685
0.028636414
0.027789216
0.02695566
0.026136263
0.025331486
0.024541741
0.023767384
0.023008721
0.022266009
0.021539454
0.020829215
0.020135407
0.019458099
0.018797322
0.018153063
0.017525278
0.016913883
0.016318766
0.015739783
0.015176766
0.014629519
0.014097827
0.013581454
0.013080146
0.050644773
0.049764326
0.048873857
0.047974319
0.047066708
0.046152043
0.045231368
0.04430574
0.043376236
0.042443938
0.041509933
0.04057531
0.039641152
0.038708533
0.037778511
0.036852128
0.035930399
0.035014315
0.034104833
0.033202876
0.032309329
0.031425034
0.030550791
0.029687352
0.028835423
0.027995658
0.02716866
0.026354984
0.02555513
0.024769547
0.023998632
0.023242731
0.022502141
0.021777108
0.021067833
0.020374469
0.019697126
0.01903587
0.018390729
0.017761692
0.017148711
0.016551707
0.015970569
0.015405157
0.014855305
0.014320825
0.013801506
0.01329712
0.012807418
0.049385312
0.048528085
0.047660941
0.046784832
0.045900746
0.045009695
0.044112712
0.043210844
0.042305151
0.041396701
0.040486566
0.039575813
0.038665508
0.037756702
0.036850433
0.035947719
0.035049555
0.034156906
0.033270707
0.032391859
0.031521222
0.030659617
0.029807823
0.028966569
0.028136542
0.027318376
0.026512658
0.025719923
0.024940656
0.024175293
0.023424216
0.022687762
0.021966215
0.021259814
0.020568751
0.019893174
0.019233187
0.018588855
0.017960202
0.017347216
0.01674985
0.016168027
0.015601638
0.015050546
0.01451459
0.013993587
0.013487331
0.012995602
0.01251816
0.04805825
0.047225381
0.046382719
0.045531209
0.044671832
0.043805591
0.042933507
0.042056613
0.041175954
0.040292581
0.039407546
0.038521897
0.037636678
0.036752918
0.035871633
0.034993815
0.034120435
0.033252435
0.032390726
0.031536182
0.030689642
0.029851903
0.029023719
0.028205799
0.027398808
0.026603361
0.025820025
0.025049317
0.024291708
0.023547616
0.022817411
0.022101417
0.021399908
0.020713114
0.020041219
0.019384364
0.018742649
0.018116135
0.017504844
0.016908763
0.016327847
0.015762018
0.01521117
0.01467517
0.014153861
0.013647066
0.013154585
0.012676205
0.012211696
0.046661836
0.04585448
0.045037474
0.044211755
0.043378294
0.042538083
0.041692128
0.040841448
0.03998707
0.039130026
0.038271347
0.037412061
0.036553187
0.035695731
0.034840683
0.033989012
0.033141662
0.03229955
0.031463559
0.030634541
0.029813307
0.02900063
0.028197242
0.027403828
0.02662103
0.025849443
0.025089614
0.024342043
0.023607182
0.022885435
0.022177157
0.02148266
0.020802206
0.020136016
0.019484266
0.018847091
0.018224585
0.017616805
0.017023772
0.016445473
0.015881861
0.01533286
0.014798367
0.014278253
0.013772365
0.01328053
0.012802555
0.012338235
0.011887351
0.045194479
0.044413809
0.043623648
0.042824928
0.042018606
0.041205661
0.040387085
0.039563877
0.038737046
0.037907603
0.037076557
0.036244911
0.03541366
0.034583785
0.033756249
0.032931995
0.032111939