/*--------------------------------*- C++ -*----------------------------------*\
| =========                 |                                                 |
| \\      /  F ield         | OpenFOAM: The Open Source CFD Toolbox           |
|  \\    /   O peration     | Version:  2312                                  |
|   \\  /    A nd           | Website:  www.openfoam.com                      |
|    \\/     M anipulation  |                                                 |
\*---------------------------------------------------------------------------*/
FoamFile
{
    version     2.0;
    format      ascii;
    arch        "LSB;label=32;scalar=64";
    class       volScalarField;
    location    "0.07";
    object      nut;
}
// * * * * * * * * * * * * * * * * * * * * * * * * * * * * * * * * * * * * * //

dimensions      [0 2 -1 0 0 0 0];

internalField   nonuniform List<scalar> 
3251
(
0.034548301
0.03469578
0.034849742
0.03501022
0.035177248
0.035350861
0.035531093
0.035717984
0.035911573
0.0361119
0.036319008
0.036532941
0.03675374
0.03698145
0.037216111
0.037457763
0.037706443
0.037962184
0.038225014
0.038494955
0.038772023
0.039056225
0.039347561
0.039646018
0.039951576
0.0402642
0.040583844
0.04091045
0.041243945
0.041584242
0.041931239
0.042284822
0.042644859
0.043011207
0.043383706
0.043762183
0.044146453
0.044536317
0.044931565
0.045331975
0.045737317
0.04614735
0.046561828
0.046980499
0.047403104
0.047829385
0.048259081
0.048691935
0.049127692
0.049566108
0.050006956
0.050450035
0.050895295
0.051342388
0.051790858
0.052240469
0.052691026
0.053142364
0.03454849
0.034695988
0.034849974
0.035010473
0.035177521
0.035351153
0.035531404
0.035718312
0.035911917
0.03611226
0.036319383
0.036533329
0.036754142
0.036981864
0.037216537
0.037458201
0.037706891
0.037962642
0.038225481
0.038495431
0.038772507
0.039056717
0.039348059
0.039646522
0.039952085
0.040264714
0.040584363
0.040910972
0.04124447
0.041584769
0.041931768
0.042285352
0.04264539
0.043011738
0.043384236
0.043762713
0.044146982
0.044536844
0.04493209
0.045332497
0.045737836
0.046147867
0.046562343
0.046981012
0.047403617
0.047829899
0.048259598
0.048692457
0.049128223
0.049566653
0.050007517
0.050450614
0.050895808
0.051342789
0.051791184
0.052240734
0.052691238
0.053142555
0.034549008
0.034696544
0.03485057
0.035011109
0.035178194
0.035351861
0.035532145
0.035719085
0.035912719
0.03611309
0.036320239
0.03653421
0.036755046
0.03698279
0.037217483
0.037459165
0.037707873
0.037963639
0.038226493
0.038496456
0.038773543
0.039057763
0.039349114
0.039647585
0.039953155
0.040265788
0.040585441
0.040912052
0.041245551
0.04158585
0.041932848
0.042286429
0.042646464
0.043012807
0.043385299
0.043763769
0.04414803
0.044537883
0.044933119
0.045333516
0.045738844
0.046148863
0.046563327
0.046981984
0.047404577
0.047830848
0.048260537
0.048693388
0.049129149
0.049567575
0.050008434
0.050451516
0.050896638
0.051343516
0.051791822
0.052241296
0.052691725
0.053142961
0.03454985
0.034697445
0.03485153
0.035012126
0.035179265
0.035352982
0.035533314
0.035720298
0.035913975
0.036114386
0.036321573
0.036535578
0.036756447
0.036984221
0.037218942
0.03746065
0.037709381
0.037965169
0.038228042
0.038498022
0.038775125
0.039059358
0.03935072
0.039649201
0.039954777
0.040267416
0.040587071
0.040913684
0.041247182
0.041587479
0.041934472
0.042288047
0.042648074
0.043014407
0.043386888
0.043765344
0.04414959
0.044539427
0.044934646
0.045335024
0.045740332
0.04615033
0.046564772
0.046983406
0.047405976
0.047832224
0.048261892
0.048694722
0.049130461
0.049568865
0.050009699
0.050452742
0.050897786
0.051344558
0.051792766
0.052242149
0.052692485
0.053143531
0.034551013
0.034698688
0.034852851
0.035013521
0.03518073
0.035354514
0.035534908
0.035721952
0.035915684
0.036116146
0.036323381
0.036537432
0.036758342
0.036986155
0.037220912
0.037462652
0.037711414
0.037967229
0.038230126
0.038500128
0.038777249
0.039061498
0.039352873
0.039651364
0.039956948
0.040269592
0.04058925
0.040915863
0.041249359
0.04158965
0.041936636
0.042290201
0.042650214
0.043016533
0.043388997
0.043767434
0.044151658
0.044541472
0.044936665
0.045337016
0.045742295
0.046152262
0.046566672
0.046985274
0.04740781
0.047834024
0.048263657
0.048696451
0.049132155
0.049570521
0.05001131
0.050454295
0.050899249
0.051345911
0.051794009
0.052243289
0.052693534
0.034552414
0.034700183
0.034854437
0.035015193
0.035182484
0.035356345
0.035536812
0.035723924
0.03591772
0.036118242
0.036325533
0.036539636
0.036760594
0.036988451
0.037223249
0.037465027
0.037713823
0.037969668
0.038232593
0.038502619
0.038779761
0.039064027
0.039355417
0.039653919
0.039959511
0.04027216
0.04059182
0.040918432
0.041251923
0.041592207
0.041939182
0.042292734
0.042652732
0.043019031
0.043391474
0.043769887
0.044154085
0.04454387
0.044939031
0.045339348
0.045744592
0.046154522
0.046568892
0.046987453
0.047409947
0.047836117
0.048265705
0.048698454
0.049134111
0.049572425
0.050013156
0.050456068
0.050900927
0.051347478
0.051795461
0.052244635
0.052694852
0.034554004
0.03470188
0.034856235
0.035017087
0.035184469
0.035358416
0.035538963
0.035726151
0.035920018
0.036120606
0.036327959
0.036542119
0.036763131
0.036991037
0.03722588
0.037467699
0.037716532
0.037972411
0.038235366
0.038505417
0.038782582
0.039066868
0.039358273
0.039656786
0.039962387
0.04027504
0.040594701
0.040921311
0.041254796
0.041595071
0.041942034
0.042295571
0.04265555
0.043021828
0.043394245
0.043772631
0.044156798
0.044546549
0.044941675
0.045341954
0.045747156
0.046157043
0.046571368
0.046989881
0.047412326
0.047838446
0.048267982
0.048700677
0.049136277
0.04957453
0.050015193
0.050458024
0.050902783
0.051349219
0.051797081
0.052246141
0.052696294
0.03455591
0.034703912
0.034858387
0.035019353
0.035186842
0.035360889
0.035541532
0.035728808
0.035922759
0.036123425
0.03633085
0.036545078
0.036766152
0.036994115
0.037229011
0.037470878
0.037719755
0.037975673
0.038238662
0.038508744
0.038785934
0.039070241
0.039361664
0.039660191
0.0399658
0.040278458
0.04059812
0.040924726
0.041258204
0.041598468
0.041945416
0.042298933
0.042658889
0.04302514
0.043397528
0.043775879
0.04416001
0.044549721
0.044944803
0.045345035
0.045750188
0.046160022
0.046574293
0.046992749
0.047415134
0.047841192
0.048270664
0.048703293
0.049138823
0.049577002
0.050017581
0.050460316
0.050904961
0.05135127
0.051798997
0.05224792
0.052697925
0.034558158
0.034706307
0.034860922
0.035022019
0.035189633
0.035363797
0.03554455
0.03573193
0.035925977
0.036126733
0.036334242
0.036548548
0.036769694
0.036997724
0.037232681
0.037474604
0.03772353
0.037979493
0.038242522
0.038512638
0.038789858
0.039074189
0.039365631
0.039664173
0.039969792
0.040282455
0.040602117
0.040928718
0.041262187
0.041602437
0.041949366
0.04230286
0.042662789
0.043029008
0.04340136
0.043779671
0.044163758
0.044553421
0.044948451
0.045348628
0.045753722
0.046163495
0.046577701
0.046996089
0.047418403
0.047844388
0.048273783
0.048706332
0.049141779
0.049579868
0.050020349
0.050462972
0.05090749
0.051353657
0.051801234
0.052249999
0.034560775
0.034709094
0.034863868
0.035025118
0.035192874
0.035367174
0.035548053
0.035735551
0.035929709
0.036130569
0.036338174
0.036552569
0.036773798
0.037001904
0.03723693
0.037478916
0.037727899
0.037983914
0.038246987
0.038517143
0.038794396
0.039078755
0.039370219
0.039668776
0.039974406
0.040287074
0.040606735
0.04093333
0.041266788
0.04160702
0.041953928
0.042307394
0.042667291
0.043033473
0.043405782
0.043784047
0.044168082
0.044557689
0.044952659
0.045352772
0.045757797
0.046167498
0.046581628
0.046999936
0.047422167
0.047848065
0.048277371
0.048709826
0.049145174
0.049583159
0.050023527
0.050466022
0.050910396
0.051356406
0.051803819
0.052252436
0.034563789
0.034712302
0.034867259
0.035028681
0.035196601
0.035371053
0.035552077
0.03573971
0.035933994
0.036134971
0.036342686
0.036557182
0.036778505
0.037006697
0.037241802
0.03748386
0.037732908
0.03798898
0.038252104
0.038522304
0.038799594
0.039083984
0.039375472
0.039674047
0.039979688
0.040292361
0.040612021
0.040938609
0.041272052
0.041612265
0.041959146
0.042312581
0.04267244
0.043038579
0.043410839
0.04378905
0.044173025
0.044562567
0.044957467
0.045357506
0.045762453
0.04617207
0.046586112
0.047004328
0.047426463
0.047852261
0.048281462
0.048713809
0.049149043
0.049586908
0.050027146
0.050469498
0.050913711
0.051359549
0.051806785
0.034567233
0.034715964
0.034871129
0.035032746
0.035200849
0.035375475
0.035556661
0.035744447
0.035938873
0.036139983
0.036347821
0.036562432
0.03678386
0.03701215
0.037247343
0.037489482
0.037738602
0.037994739
0.03825792
0.038528169
0.038805502
0.039089926
0.039381441
0.039680036
0.039985689
0.040298367
0.040618025
0.040944603
0.04127803
0.04161822
0.041965071
0.042318469
0.042678284
0.043044373
0.043416578
0.043794726
0.044178632
0.044568101
0.044962922
0.045362875
0.045767731
0.046177253
0.046591194
0.047009305
0.04743133
0.047857013
0.048286094
0.048718317
0.049153422
0.04959115
0.050031242
0.050473433
0.050917468
0.051363119
0.051810192
0.034571139
0.034720116
0.034875513
0.03503735
0.03520566
0.03538048
0.035561849
0.035749805
0.035944391
0.03614565
0.036353627
0.036568366
0.036789912
0.037018311
0.037253604
0.037495832
0.037745034
0.038001243
0.038264488
0.038534792
0.038812171
0.039096633
0.039388178
0.039686794
0.03999246
0.040305143
0.040624798
0.040951365
0.041284774
0.041624936
0.041971753
0.042325109
0.042684875
0.043050907
0.043423047
0.043801124
0.044184954
0.044574338
0.044969068
0.045368925
0.045773679
0.046183092
0.04659692
0.047014911
0.047436811
0.047862363
0.048291309
0.048723389
0.049158347
0.049595923
0.050035852
0.050477866
0.050921704
0.051367151
0.034575544
0.034724796
0.034880453
0.035042535
0.035211076
0.035386113
0.035567684
0.035755831
0.035950595
0.036152021
0.036360152
0.036575034
0.036796712
0.037025232
0.037260635
0.037502964
0.037752256
0.038008546
0.038271861
0.038542226
0.038819657
0.039104161
0.039395738
0.039694378
0.040000058
0.040312747
0.040632397
0.040958952
0.041292338
0.04163247
0.041979248
0.042332556
0.042692266
0.043058234
0.043430302
0.043808299
0.044192041
0.044581331
0.044975959
0.045375707
0.045780345
0.046189637
0.046603336
0.047021192
0.047442951
0.047868356
0.048297148
0.048729069
0.049163862
0.049601268
0.050041018
0.050482837
0.050926459
0.051371715
0.034580488
0.034730046
0.034885991
0.035048344
0.035217141
0.035392419
0.035574217
0.035762575
0.035957537
0.036159147
0.036367449
0.036582489
0.036804314
0.037032968
0.037268494
0.037510935
0.037760327
0.038016705
0.038280099
0.038550531
0.038828019
0.039112569
0.039404182
0.039702847
0.040008543
0.040321237
0.040640882
0.040967422
0.041300783
0.041640881
0.041987614
0.042340868
0.042700515
0.043066411
0.043438398
0.043816306
0.04419995
0.044589133
0.044983647
0.045383274
0.045787783
0.046196937
0.046610493
0.047028199
0.0474498
0.047875039
0.048303659
0.048735401
0.04917001
0.049607228
0.050046784
0.050488395
0.050931774
0.034586013
0.034735908
0.034892172
0.035054827
0.035223907
0.035399451
0.035581498
0.03577009
0.03596527
0.036167083
0.036375574
0.03659079
0.036812777
0.037041579
0.037277241
0.037519804
0.037769306
0.038025783
0.038289263
0.038559769
0.038837319
0.03912192
0.039413573
0.039712266
0.040017978
0.040330676
0.040650316
0.040976838
0.041310172
0.04165023
0.041996914
0.042350108
0.042709685
0.0430755
0.043447397
0.043825205
0.044208739
0.044597804
0.044992192
0.045391682
0.045796047
0.04620505
0.046618445
0.047035983
0.047457408
0.047882464
0.048310891
0.048742434
0.049176838
0.049613849
0.050053198
0.050494591
0.050937726
0.034592165
0.034742432
0.034899047
0.035062033
0.035231424
0.035407261
0.035589583
0.035778432
0.035973852
0.036175889
0.036384589
0.036599997
0.036822161
0.037051126
0.037286937
0.037529635
0.037779259
0.038035843
0.038299418
0.038570006
0.038847624
0.039132281
0.039423976
0.039722699
0.040028429
0.040341133
0.040660765
0.040987268
0.04132057
0.041660585
0.042007214
0.042360341
0.04271984
0.043085566
0.043457362
0.043835059
0.044218473
0.044607406
0.045001653
0.045400993
0.045805199
0.046214033
0.046627251
0.047044603
0.047465833
0.047890685
0.048318898
0.048750219
0.049184396
0.049621181
0.050060312
0.050501488
0.034598994
0.034749669
0.034906669
0.035070017
0.03523975
0.035415908
0.035598531
0.035787662
0.035983345
0.036185628
0.036394555
0.036610175
0.036832533
0.037061678
0.037297651
0.037540497
0.037790254
0.038046956
0.038310634
0.038581312
0.038859005
0.039143722
0.039435464
0.03973422
0.040039969
0.040352678
0.040672302
0.040998783
0.04133205
0.041672017
0.042018584
0.042371638
0.042731049
0.043096676
0.043468362
0.043845937
0.044229216
0.044618005
0.045012096
0.045411271
0.045815301
0.046223949
0.046636972
0.047054119
0.047475135
0.04789976
0.048327738
0.048758812
0.049192737
0.049629274
0.050068178
0.050509201
0.034606553
0.034757673
0.034915094
0.035078839
0.035248945
0.035425453
0.035608405
0.035797844
0.035993815
0.036196365
0.036405542
0.036621392
0.036843963
0.037073303
0.037309455
0.037552462
0.037802364
0.038059195
0.038322986
0.03859376
0.038871535
0.039156318
0.039448111
0.039746902
0.040052672
0.040365386
0.040685
0.041011457
0.041344685
0.041684599
0.042031099
0.042384071
0.042743387
0.043108905
0.04348047
0.043857909
0.044241042
0.044629672
0.045023592
0.045422584
0.045826421
0.046234865
0.046647674
0.047064596
0.047485376
0.047909754
0.048337471
0.048768272
0.049201914
0.049638178
0.050076838
0.050517663
0.034614898
0.034766505
0.034924384
0.035088561
0.035259073
0.035435963
0.035619272
0.035809046
0.036005331
0.036208173
0.03641762
0.036633722
0.036856525
0.037086077
0.037322423
0.037565606
0.037815665
0.038072637
0.03833655
0.03860743
0.038885294
0.039170149
0.039461996
0.039760826
0.040066617
0.040379337
0.040698941
0.041025371
0.041358556
0.041698411
0.042044836
0.042397719
0.042756931
0.04312233
0.04349376
0.043871053
0.044254024
0.044642479
0.045036212
0.045435005
0.045838631
0.046246852
0.046659427
0.047076103
0.047496626
0.047920734
0.048348165
0.048778662
0.049211988
0.049647947
0.05008634
0.050526874
0.034624093
0.034776228
0.034934606
0.035099251
0.035270204
0.035447507
0.035631205
0.035821343
0.036017967
0.036221126
0.036430867
0.036647241
0.036870296
0.037100079
0.037336635
0.037580009
0.03783024
0.038087364
0.03835141
0.038622405
0.038900364
0.039185297
0.039477204
0.039776075
0.04008189
0.040394615
0.040714207
0.041040607
0.041373745
0.041713536
0.04205988
0.042412665
0.042771763
0.043137032
0.043508316
0.043885447
0.044268243
0.044656508
0.045050037
0.045448612
0.045852007
0.046259986
0.046672305
0.047088715
0.047508958
0.047932772
0.048359892
0.048790054
0.04922302
0.049658637
0.05009676
0.034634203
0.034786912
0.034945828
0.035110981
0.03528241
0.035460162
0.03564428
0.035834811
0.036031802
0.036235304
0.036445364
0.036662033
0.03688536
0.037115392
0.037352177
0.037595757
0.037846173
0.038103462
0.038367653
0.038638771
0.038916835
0.039201852
0.039493823
0.039792739
0.040098578
0.040411309
0.040730887
0.041057255
0.041390342
0.041730062
0.042076318
0.042428997
0.04278797
0.043153097
0.043524223
0.043901179
0.044283783
0.044671841
0.045065147
0.045463486
0.045866631
0.046274346
0.046686389
0.047102509
0.04752245
0.047945947
0.04837273
0.048802524
0.049235075
0.0496703
0.05010825
0.034645299
0.03479863
0.034958129
0.035123828
0.035295771
0.035474006
0.035658577
0.035849532
0.036046921
0.036250792
0.036461196
0.036678183
0.036901804
0.037132106
0.037369136
0.03761294
0.037863556
0.038121023
0.03838537
0.038656622
0.038934797
0.039219905
0.039511945
0.039810909
0.040116776
0.040429513
0.040749076
0.041075408
0.041408439
0.041748083
0.042094243
0.042446806
0.042805644
0.043170618
0.043541571
0.043918337
0.044300733
0.044688566
0.045081632
0.045479715
0.045882588
0.046290018
0.046701762
0.047117569
0.047537185
0.047960342
0.048386767
0.048816166
0.049248228
0.03465746
0.034811464
0.034971588
0.035137874
0.03531037
0.035489124
0.035674182
0.035865594
0.03606341
0.036267679
0.036478453
0.036695783
0.03691972
0.037150313
0.037387608
0.037631652
0.037882484
0.038140142
0.038404657
0.038676053
0.038954349
0.039239555
0.03953167
0.039830685
0.04013658
0.040449324
0.040768871
0.041095165
0.041428135
0.041767697
0.042113753
0.04246619
0.042824883
0.04318969
0.043560457
0.043937016
0.044319188
0.044706779
0.045099585
0.04549739
0.04589997
0.046307092
0.046718513
0.047133984
0.047553251
0.047976048
0.048402099
0.048831098
0.034670772
0.034825499
0.034986292
0.035153207
0.035326296
0.035505606
0.035691187
0.035883089
0.036081363
0.036286059
0.036497231
0.036714929
0.036939206
0.037170111
0.037407691
0.037651993
0.037903057
0.038160921
0.038425616
0.038697167
0.038975593
0.039260904
0.039553099
0.03985217
0.040158096
0.040470846
0.040790375
0.041116627
0.041449532
0.041789005
0.042134949
0.042487252
0.042845787
0.043210414
0.04358098
0.043957318
0.044339248
0.044726577
0.045119102
0.045516609
0.045918873
0.046325662
0.046736736
0.047151847
0.047570741
0.047993156
0.048418825
0.048847491
0.034535885
0.03468536
0.03484083
0.035002332
0.035169919
0.035343641
0.035523547
0.035709688
0.035902114
0.036100878
0.036306032
0.036517629
0.036735722
0.036960363
0.037191602
0.037429488
0.037674067
0.03792538
0.038183464
0.038448353
0.038720071
0.038998636
0.039284059
0.03957634
0.03987547
0.04018143
0.040494187
0.040813697
0.041139905
0.041472739
0.041812117
0.04215794
0.042510098
0.042868464
0.043232898
0.043603249
0.043979348
0.044361017
0.044748065
0.045140288
0.045537474
0.045939399
0.046345831
0.046756532
0.047171256
0.047589751
0.04801176
0.048437028
0.048865322
0.034551001
0.034701288
0.034857548
0.035019806
0.035188107
0.035362504
0.035543046
0.035729784
0.03592277
0.036122058
0.036327701
0.036539753
0.036758268
0.036983298
0.037214895
0.037453107
0.037697982
0.037949561
0.038207882
0.038472978
0.038744874
0.039023589
0.039309132
0.039601506
0.0399007
0.040206695
0.04051946
0.04083895
0.04116511
0.04149787
0.041837145
0.042182839
0.042534842
0.042893026
0.043257254
0.043627373
0.044003216
0.044384607
0.044771352
0.045163252
0.045560093
0.045961654
0.046367704
0.046778006
0.047192315
0.047610383
0.048031958
0.048456793
0.048884665
0.034567467
0.034718644
0.034875751
0.035038811
0.035207874
0.035382989
0.035564208
0.035751582
0.035945165
0.036145011
0.036351175
0.036563712
0.036782676
0.037008121
0.0372401
0.037478661
0.037723852
0.037975715
0.038234289
0.038499607
0.038771693
0.039050568
0.03933624
0.039628713
0.039927976
0.040234009
0.040546783
0.040866252
0.041192361
0.041525041
0.041864207
0.042209764
0.0425616
0.042919591
0.043283599
0.04365347
0.04402904
0.044410132
0.044796555
0.045188109
0.045584582
0.045985753
0.046391394
0.046801268
0.047215134
0.047632745
0.048053853
0.048478216
0.048905616
0.0345854
0.034737532
0.03489554
0.035059456
0.035229327
0.035405205
0.035587142
0.035775191
0.035969408
0.036169847
0.036376566
0.036589618
0.036809061
0.037034949
0.037267334
0.037506266
0.037751794
0.038003961
0.038262804
0.038528358
0.038800648
0.039079693
0.039365504
0.039658082
0.039957419
0.040263495
0.040576278
0.040895725
0.041221781
0.041554376
0.041893427
0.042238837
0.042590497
0.042948282
0.043312054
0.043681662
0.044056941
0.044437715
0.044823794
0.045214979
0.045611059
0.046011815
0.046417019
0.046826436
0.047239828
0.047656949
0.048077555
0.048501407
0.048928286
0.034604915
0.034758062
0.034917028
0.03508185
0.035252577
0.035429263
0.035611961
0.035800727
0.035995616
0.036196684
0.03640399
0.03661759
0.036837541
0.037063898
0.037296715
0.037536043
0.03778193
0.038034419
0.038293549
0.038559355
0.038831862
0.039111089
0.039397048
0.03968974
0.039989156
0.040295277
0.040608071
0.040927497
0.041253497
0.041586002
0.041924931
0.042270187
0.04262166
0.042979227
0.043342749
0.043712078
0.044087048
0.044467483
0.044853197
0.045243989
0.045639651
0.046039964
0.046444702
0.046853633
0.047266518
0.047683116
0.048103183
0.048526481
0.048952792
0.034626131
0.034780349
0.034940329
0.035106108
0.035277741
0.035455281
0.035638784
0.035828306
0.036023906
0.036225641
0.036433569
0.036647749
0.036868238
0.037095093
0.037328368
0.037568115
0.037814382
0.038067214
0.03832665
0.038592724
0.038865462
0.039144884
0.039431001
0.039723815
0.040023316
0.040329486
0.040642294
0.040961697
0.041287639
0.041620051
0.041958852
0.042303945
0.042655221
0.043012557
0.043375817
0.043744849
0.044119491
0.044499569
0.044884895
0.045275271
0.045670489
0.046070333
0.046474577
0.04688299
0.047295335
0.047711374
0.048130863
0.048553566
0.048979263
0.034649167
0.034804514
0.034965561
0.035132351
0.035304937
0.035483378
0.03566773
0.035858051
0.036054401
0.036256838
0.036465424
0.036680217
0.036901275
0.037128657
0.037362417
0.037602608
0.037849279
0.038102475
0.038362235
0.038628594
0.038901578
0.039181208
0.039467494
0.039760438
0.040060032
0.040366256
0.04067908
0.040998461
0.041324343
0.041656659
0.041995326
0.042340248
0.042691318
0.043048412
0.043411393
0.043780114
0.044154412
0.044534111
0.044919028
0.045308964
0.045703713
0.046103059
0.046506779
0.046914643
0.047326415
0.047741858
0.048160731
0.048582797
0.049007834
0.034674149
0.034830681
0.03499285
0.0351607
0.035334289
0.035513677
0.035698922
0.035890083
0.036087223
0.036290401
0.03649968
0.036715119
0.036936778
0.037164716
0.037398989
0.03763965
0.037886748
0.038140329
0.038400434
0.038667095
0.038940342
0.039220193
0.03950666
0.039799744
0.040099438
0.040405722
0.040718565
0.041037926
0.041363748
0.041695964
0.042034492
0.042379238
0.042730091
0.043086931
0.043449623
0.043818016
0.044191951
0.044571254
0.044955739
0.045345212
0.045739466
0.046138288
0.046541454
0.046948737
0.047359903
0.047774714
0.048192931
0.048614317
0.049038651
0.034701203
0.034858975
0.035022318
0.03519128
0.035365921
0.035546302
0.035732483
0.035924527
0.036122496
0.036326453
0.036536461
0.03675258
0.036974872
0.037203397
0.037438211
0.037679368
0.037926918
0.038180907
0.038441376
0.038708359
0.038981885
0.039261972
0.039548632
0.039841868
0.04014167
0.040448021
0.040760889
0.041080231
0.041405994
0.041738108
0.042076494
0.042421056
0.042771686
0.043128262
0.043490651
0.043858703
0.044232259
0.044611146
0.04499518
0.045384166
0.045777901
0.046176171
0.046578755
0.046985425
0.04739595
0.047810093
0.048227615
0.048648281
0.049071868
0.034730455
0.034889521
0.035054091
0.035224215
0.035399956
0.035581375
0.035768537
0.035961506
0.036160344
0.036365118
0.03657589
0.036792724
0.037015682
0.037244824
0.037480208
0.037721888
0.037969915
0.038224336
0.038485192
0.038752517
0.039026339
0.039306678
0.039593546
0.039886945
0.040186866
0.040493291
0.040806189
0.041125517
0.041451222
0.041783235
0.042121476
0.04246585
0.042816249
0.043172553
0.043534628
0.043902325
0.044275487
0.044653941
0.045037504
0.045425983
0.045819174
0.046216866
0.046618839
0.047024867
0.047434718
0.047848157
0.048264947
0.048684852
0.049107649
0.034762033
0.034922446
0.035088294
0.035259628
0.035436515
0.035619018
0.035807204
0.036001138
0.036200886
0.036406514
0.036618088
0.036835672
0.037059328
0.037289119
0.037525102
0.037767334
0.038015865
0.038270742
0.038532007
0.038799695
0.039073833
0.039354442
0.039641533
0.039935109
0.04023516
0.040541669
0.040854604
0.041173925
0.041499575
0.041831489
0.042169584
0.042513767
0.042863931
0.043219956
0.043581707
0.043949039
0.044321793
0.044699798
0.045082873
0.045470824
0.04586345
0.04626054
0.046661875
0.047067231
0.047476377
0.047889078
0.048305099
0.048724205
0.049146171
0.034796061
0.03495787
0.035125044
0.035297636
0.035475714
0.035659346
0.035848598
0.036043539
0.036244236
0.036450757
0.036663169
0.036881537
0.037105926
0.037336397
0.037573011
0.037815824
0.038064886
0.038320246
0.038581945
0.038850017
0.039124493
0.03940539
0.039692722
0.03998649
0.040286686
0.04059329
0.040906273
0.041225593
0.041551195
0.041883012
0.042220964
0.042564956
0.042914882
0.043270623
0.043632045
0.043999003
0.044371338
0.044748882
0.045131452
0.045518858
0.045910899
0.046307364
0.046708037
0.047112694
0.047521105
0.047933038
0.048348255
0.048766524
0.049187621
0.034832653
0.034995907
0.035164453
0.035338349
0.035517663
0.035702465
0.035892826
0.036088814
0.036290499
0.036497951
0.036711237
0.036930426
0.037155581
0.037386767
0.037624043
0.037867467
0.038117089
0.038372959
0.038635118
0.038903601
0.039178436
0.039459644
0.039747236
0.040041214
0.040341571
0.040648283
0.040961328
0.041280658
0.041606221
0.041937949
0.042275761
0.042619565
0.042969255
0.04332471
0.0436858
0.044052378
0.044424287
0.044801359
0.045183413
0.04557026
0.045961698
0.04635752
0.04675751
0.047161443
0.047569093
0.047980227
0.04839461
0.048812008
0.049232199
0.034871916
0.03503666
0.035206623
0.035381865
0.035562457
0.035748471
0.035939981
0.036137056
0.036339768
0.036548189
0.036762387
0.036982432
0.037208389
0.037440323
0.037678295
0.037922361
0.038172575
0.038428985
0.038691631
0.038960551
0.039235772
0.039517315
0.03980519
0.040099399
0.040399933
0.040706776
0.041019896
0.041339252
0.041664787
0.041996436
0.042334119
0.042677742
0.0430272
0.043382373
0.04374313
0.044109327
0.044480807
0.044857402
0.045238933
0.045625209
0.046016033
0.046411197
0.046810485
0.047213675
0.047620541
0.048030851
0.048444372
0.048860869
0.049280121
0.034913939
0.035080215
0.035251636
0.035428264
0.035610175
0.035797442
0.035990139
0.036188341
0.036392119
0.036601546
0.036816694
0.037037632
0.037264427
0.037497145
0.037735847
0.03798059
0.038231428
0.038488409
0.038751576
0.039020963
0.039296598
0.039578502
0.039866687
0.040161153
0.040461889
0.040768883
0.0410821
0.041401499
0.041727024
0.04205861
0.042396177
0.04273963
0.043088866
0.043443766
0.043804197
0.044170017
0.04454107
0.044917187
0.045298192
0.045683894
0.046074096
0.046468591
0.046867165
0.047269597
0.047675662
0.048085128
0.048497762
0.048913333
0.049331619
0.034958791
0.035126636
0.035299553
0.035477607
0.035660874
0.035849432
0.036043356
0.036242722
0.036447604
0.036658076
0.036874212
0.037096081
0.037323752
0.037557291
0.03779676
0.038042217
0.038293715
0.038551304
0.038815024
0.039084912
0.039360995
0.039643293
0.039931818
0.040226566
0.040527537
0.040834709
0.041148049
0.041467516
0.041793055
0.042124599
0.042462069
0.042805372
0.043154403
0.043509043
0.043869161
0.044234615
0.044605249
0.044980896
0.045361379
0.045746508
0.046136088
0.046529911
0.046927765
0.04732943
0.047734681
0.048143289
0.04855502
0.048969645
0.049386941
0.035006509
0.035175957
0.035350405
0.03552992
0.035714581
0.035904466
0.036099654
0.036300223
0.036506247
0.036717804
0.036934966
0.037157806
0.037386393
0.037620794
0.03786107
0.03810728
0.038359479
0.038617714
0.038882028
0.039152455
0.039429024
0.039711754
0.040000652
0.040295726
0.040596964
0.040904347
0.041217843
0.04153741
0.041862993
0.042194524
0.042531926
0.042875104
0.043223954
0.043578358
0.043938185
0.044303292
0.044673524
0.045048715
0.045428688
0.045813255
0.04620222
0.046595376
0.046992512
0.047393409
0.047797842
0.048205583
0.048616401
0.049030066
0.049446357
0.035057094
0.035228176
0.035404186
0.035585195
0.035771283
0.035962532
0.036159021
0.03636083
0.036568037
0.036780718
0.036998949
0.037222802
0.037452348
0.037687653
0.03792878
0.038175789
0.038428733
0.03868766
0.038952612
0.039223625
0.039500725
0.039783928
0.040073248
0.040368689
0.040670238
0.040977875
0.041291569
0.041611276
0.041936943
0.042268501
0.042605871
0.04294896
0.043297664
0.043651864
0.044011431
0.04437622
0.044746078
0.045120839
0.045500325
0.045884349
0.046272715
0.046665219
0.047061647
0.047461783
0.047865403
0.048272279
0.048682182
0.049094882
0.049510158
0.035110496
0.035283238
0.035460839
0.035643373
0.035830922
0.03602357
0.036221397
0.036424486
0.036632916
0.036846764
0.037066108
0.03729102
0.037521572
0.037757831
0.03799986
0.038247718
0.038501459
0.038761131
0.039026775
0.039298426
0.039576109
0.03985984
0.040149639
0.0404455
0.040747413
0.041055357
0.041369301
0.0416892
0.042015001
0.042346635
0.042684023
0.043027071
0.043375675
0.043729717
0.044089065
0.044453579
0.044823101
0.045197468
0.045576501
0.045960014
0.046347811
0.046739687
0.04713543
0.047534823
0.047937643
0.048343664
0.048752658
0.049164397
0.04957866
0.035166605
0.03534103
0.035520249
0.035704338
0.03589338
0.036087462
0.036286667
0.036491078
0.036700775
0.036915838
0.037136344
0.037362367
0.037593979
0.037831248
0.038074236
0.038323003
0.038577602
0.03883808
0.039104479
0.039376832
0.039655158
0.039939491
0.040229832
0.040526179
0.040828522
0.041136839
0.041451098
0.041771256
0.042097255
0.042429029
0.042766497
0.043109566
0.04345813
0.043812072
0.04417126
0.044535552
0.044904793
0.045278816
0.045657445
0.046040492
0.04642776
0.046819046
0.047214138
0.047612818
0.048014864
0.04842005
0.048828151
0.04923894
0.049652201
0.035225235
0.035401365
0.035582228
0.035767902
0.035958472
0.036154027
0.036354652
0.036560431
0.036771445
0.036987776
0.037209501
0.037436695
0.03766943
0.037907774
0.03815179
0.038401536
0.038657066
0.038918426
0.039185656
0.03945878
0.039737843
0.040022852
0.040313815
0.040610729
0.040913584
0.041222356
0.041537012
0.041857508
0.042183786
0.042515779
0.042853406
0.043196573
0.043545174
0.043899091
0.044258192
0.044622334
0.044991362
0.045365108
0.045743395
0.046126036
0.046512832
0.046903581
0.047298068
0.047696077
0.048097385
0.048501768
0.048909001
0.049318861
0.049731138
0.035286115
0.035463971
0.035646506
0.035833798
0.036025935
0.036223007
0.036425101
0.036632301
0.036844692
0.037062353
0.037285365
0.037513802
0.037747736
0.037987234
0.03823236
0.038483171
0.03873972
0.039002051
0.039270193
0.039544203
0.039824092
0.040109874
0.040401558
0.040699139
0.041002604
0.04131193
0.041627083
0.041948016
0.042274672
0.042606982
0.042944865
0.043288226
0.043636958
0.043990942
0.044350046
0.044714127
0.045083027
0.045456579
0.045834604
0.046216914
0.046603311
0.046993589
0.047387534
0.047784929
0.048185549
0.04858917
0.048995567
0.049404523
0.049815838
0.035348873
0.035528483
0.035712722
0.035901673
0.036095424
0.036294067
0.036497689
0.036706377
0.036920215
0.037139285
0.037363665
0.037593432
0.037828657
0.038069406
0.038315742
0.038567722