/*--------------------------------*- C++ -*----------------------------------*\
| =========                 |                                                 |
| \\      /  F ield         | OpenFOAM: The Open Source CFD Toolbox           |
|  \\    /   O peration     | Version:  2312                                  |
|   \\  /    A nd           | Website:  www.openfoam.com                      |
|    \\/     M anipulation  |                                                 |
\*---------------------------------------------------------------------------*/
FoamFile
{
    version     2.0;
    format      ascii;
    arch        "LSB;label=32;scalar=64";
    class       volScalarField;
    location    "0.07";
    object      omega;
}
// * * * * * * * * * * * * * * * * * * * * * * * * * * * * * * * * * * * * * //

dimensions      [0 0 -1 0 0 0 0];

internalField   nonuniform List<scalar> 
3251
(
344.42589
340.47295
336.54764
332.64949
328.77809
324.93317
321.11453
317.3221
313.55593
309.81616
306.10306
302.41704
298.75858
295.1283
291.52692
287.95527
284.41428
280.90496
277.42841
273.98582
270.57842
267.20753
263.87449
260.58069
257.32753
254.11644
250.94883
247.82613
244.74971
241.72094
238.74113
235.81153
232.93334
230.1077
227.33565
224.61816
221.95611
219.35027
216.80135
214.30994
211.87651
209.50147
207.1851
204.92761
202.72908
200.58952
198.50885
196.48688
194.52333
192.61781
190.76984
188.97886
187.24389
185.56458
183.94075
182.3717
180.85659
179.39455
344.41051
340.45803
336.53314
332.6354
328.76441
324.91989
321.10165
317.30961
313.54382
309.80442
306.0917
302.40603
298.74793
295.118
291.51697
287.94566
284.405
280.89601
277.41979
273.97751
270.57043
267.19985
263.86711
260.57361
257.32074
254.10994
250.94262
247.82019
244.74405
241.71554
238.73598
235.80664
232.9287
230.10329
227.33147
224.61421
221.95237
219.34675
216.79803
214.3068
211.87356
209.49869
207.18249
204.92515
202.72677
200.58735
198.50679
196.48492
194.52146
192.61602
190.76812
188.97719
187.24247
185.56348
183.93989
182.37102
180.85608
179.39412
344.38146
340.42993
336.50592
332.60905
328.73891
324.89522
321.0778
317.28656
313.52155
309.78293
306.07096
302.38603
298.72866
295.09944
291.4991
287.92848
284.3885
280.88017
277.40459
273.96296
270.5565
267.18653
263.8544
260.56148
257.3092
254.09896
250.93219
247.81031
244.73469
241.7067
238.72764
235.79878
232.92132
230.09637
227.325
224.60816
221.94673
219.34151
216.79317
214.30231
211.86942
209.49489
207.179
204.92196
202.72386
200.5847
198.50438
196.48273
194.51947
192.61421
190.7665
188.97576
187.24133
185.56269
183.9394
182.37078
180.85607
179.39434
344.3388
340.38869
336.46604
332.57049
328.70164
324.85921
321.04302
317.253
313.48917
309.75171
306.04088
302.35707
298.70079
295.07264
291.47336
287.90377
284.36479
280.85746
277.38286
273.94218
270.53666
267.16761
263.83638
260.54435
257.29292
254.08353
250.91759
247.79651
244.72168
241.69445
238.71614
235.788
232.91123
230.08697
227.31625
224.60004
221.93923
219.33459
216.78681
214.29649
211.86411
209.49007
207.17466
204.91806
202.72037
200.5816
198.50165
196.48034
194.51739
192.61243
190.765
188.97456
187.24049
185.56224
183.9393
182.37099
180.85657
179.39529
344.28258
340.33435
336.41352
332.51974
328.65262
324.81189
320.99735
317.20895
313.44671
309.7108
306.00149
302.31917
298.66435
295.03763
291.43976
287.87154
284.33392
280.82791
277.35461
273.9152
270.51094
267.14311
263.81308
260.52222
257.27194
254.06367
250.89883
247.77881
244.70502
241.67881
238.70148
235.7743
232.89847
230.0751
227.30524
224.58987
221.92987
219.326
216.77897
214.28936
211.85767
209.48427
207.16947
204.91345
202.71632
200.57807
198.4986
196.47775
194.51522
192.61067
190.76363
188.97359
187.23995
185.56215
183.93962
182.37166
180.85755
344.21682
340.2708
336.35212
332.46043
328.59536
324.75662
320.94405
317.15755
313.39719
309.66311
305.9556
302.27504
298.62194
294.99691
291.40069
287.8341
284.29807
280.79362
277.32185
273.88395
270.48115
267.11477
263.78614
260.49667
257.24774
254.04079
250.87723
247.75848
244.68591
241.66089
238.68472
235.75866
232.88391
230.0616
227.29276
224.57837
221.91931
219.31636
216.7702
214.28142
211.85052
209.47789
207.16381
204.90848
202.71199
200.57435
198.49546
196.47514
194.51312
192.60905
190.76248
188.9729
187.23973
185.56241
183.94031
182.37274
180.85882
344.14346
340.19992
336.28365
332.39431
328.53153
324.69504
320.88466
317.10031
313.34205
309.61003
305.90453
302.22594
298.57477
294.95164
291.35728
287.79251
284.25826
280.75556
277.28551
273.84928
270.44814
267.08336
263.75632
260.46839
257.22098
254.0155
250.85339
247.73604
244.66484
241.64115
238.66628
235.74148
232.86794
230.04681
227.27911
224.56582
221.90781
219.30587
216.76068
214.27284
211.84283
209.47104
207.15777
204.9032
202.70744
200.57048
198.49224
196.47253
194.51108
192.60755
190.7615
188.97242
187.23977
185.56294
183.94132
182.37416
180.86051
344.05677
340.11617
336.20276
332.31621
328.45616
324.62234
320.81456
317.03276
313.27699
309.54741
305.84429
302.16805
298.51917
294.89829
291.30612
287.74351
284.21139
280.71076
277.24274
273.80851
270.40932
267.04646
263.72129
260.43519
257.18957
253.98584
250.82544
247.70975
244.64018
241.61807
238.64472
235.72141
232.84932
230.02957
227.26322
224.55123
221.89447
219.29373
216.7497
214.26295
211.834
209.46321
207.15089
204.89723
202.70233
200.56618
198.4887
196.4697
194.50894
192.60605
190.76061
188.97214
187.24007
185.56381
183.94272
182.37605
180.86285
343.9558
340.01863
336.10857
332.22528
328.36842
324.5377
320.73297
316.95415
313.20129
309.47456
305.77424
302.10073
298.45453
294.83627
291.24669
287.6866
284.15694
280.65874
277.1931
273.7612
270.36428
267.00366
263.68068
260.39672
257.15319
253.95151
250.79309
247.67935
244.61167
241.5914
238.61985
235.69827
232.82786
230.00974
227.24496
224.53448
221.87918
219.27984
216.73714
214.25168
211.82395
209.45434
207.14313
204.89053
202.69662
200.56142
198.48483
196.46667
194.5067
192.60456
190.75984
188.97205
187.24065
185.56504
183.94454
182.37843
343.83953
339.90633
336.00013
332.12061
328.26743
324.44031
320.63909
316.86371
313.11422
309.39078
305.69369
302.02333
298.38023
294.765
291.17839
287.62121
284.09441
280.59901
277.13611
273.70689
270.31261
266.95457
263.63411
260.35262
257.1115
253.91218
250.75606
247.64456
244.57906
241.56091
238.59142
235.67184
232.80337
229.98712
227.22415
224.51542
221.86179
219.26407
216.72292
214.23894
211.81262
209.44435
207.13443
204.88304
202.69028
200.55617
198.48061
196.46343
194.50437
192.60309
190.75919
188.97219
187.24155
185.56665
183.94682
182.38128
343.70691
339.77824
335.87646
332.00125
328.15228
324.32928
320.53208
316.76063
313.01499
309.29532
305.60191
301.93517
298.29561
294.68385
291.10063
287.54678
284.02324
280.53104
277.07127
273.64513
270.25386
266.89876
263.58118
260.30251
257.06415
253.86752
250.71403
247.60509
244.54208
241.52636
238.55922
235.64193
232.77566
229.96156
227.20065
224.4939
221.8422
219.24631
216.70692
214.22463
211.79992
209.43319
207.12473
204.87473
202.68329
200.55042
198.47604
196.45996
194.50194
192.60165
190.75868
188.97257
187.24277
185.56867
183.94958
343.55684
339.63331
335.73654
331.86623
328.02203
324.20369
320.41106
316.64408
312.9028
309.1874
305.49818
301.83553
298.19998
294.59215
291.01278
287.46271
283.94287
280.45429
276.99808
273.57542
270.18756
266.8358
263.52149
260.24602
257.01078
253.81719
250.66668
247.56064
244.50045
241.48747
238.523
235.60829
232.74453
229.93285
227.17428
224.46979
221.82025
219.22644
216.68905
214.20867
211.78578
209.42079
207.11398
204.86555
202.6756
200.54414
198.47109
196.45627
194.49943
192.60025
190.75833
188.97321
187.24436
185.57114
183.95279
343.38817
339.47042
335.5793
331.71449
327.87568
324.0626
320.27511
316.51315
312.77679
309.06621
305.3817
301.72366
298.09263
294.48923
290.91419
287.36838
283.85271
280.36821
276.916
273.49726
270.11324
266.76524
263.4546
260.18272
256.951
253.76085
250.61368
247.5109
244.45389
241.444
238.48252
235.57072
232.70978
229.90081
227.14487
224.44291
221.79581
219.20434
216.66919
214.19095
211.77012
209.40708
207.10213
204.85547
202.66719
200.53732
198.46576
196.45235
194.49684
192.5989
190.75814
188.97413
187.24633
185.57408
343.19968
339.28842
335.40362
331.54498
327.7122
323.90501
320.12328
316.36695
312.6361
308.9309
305.25166
301.59879
297.97282
294.37437
290.8042
287.26314
283.75213
280.27221
276.82448
273.41012
270.03039
266.6866
263.38008
260.11222
256.88442
253.69811
250.55468
247.45555
244.40209
241.39565
238.43753
235.52897
232.67118
229.86525
227.11225
224.41312
221.76873
219.17988
216.64724
214.1714
211.75285
209.392
207.08912
204.84443
202.65803
200.52992
198.46004
196.4482
194.49417
192.59761
190.75815
188.97536
187.24872
185.57746
342.99013
339.08609
335.20833
331.35658
327.53051
323.72989
319.95457
316.20451
312.47979
308.7806
305.10724
301.46012
297.83978
294.24686
290.68209
287.14633
283.64052
280.16568
276.72293
273.31346
269.93851
266.5994
263.29746
260.03407
256.81065
253.6286
250.48934
247.39426
244.34475
241.34215
238.38775
235.48281
232.62851
229.82597
227.07623
224.38025
221.73889
219.15294
216.62308
214.14991
211.73391
209.37547
207.0749
204.8324
202.64808
200.52194
198.45392
196.44383
194.49144
192.59641
190.75836
188.97691
187.25156
342.75823
338.8622
334.99225
331.14812
327.3295
323.53616
319.76795
316.02485
312.30694
308.61441
304.94756
301.30682
297.69273
294.10592
290.54715
287.01727
283.51721
280.04801
276.61078
273.20672
269.83707
266.50314
263.20627
259.94784
256.72926
253.55194
250.41729
247.32671
244.28157
241.28321
238.33294
235.432
232.58157
229.78277
227.03664
224.34414
221.70613
219.12339
216.59661
214.12638
211.7132
209.35744
207.05943
204.81935
202.63732
200.51336
198.4474
196.43925
194.48866
192.59531
190.75882
188.9788
187.25482
342.50262
338.61544
334.75412
330.91842
327.10803
323.32272
319.56237
315.82696
312.11656
308.43138
304.77172
301.13803
297.53084
293.95079
290.39864
286.87523
283.38153
279.91855
276.48742
273.08933
269.72553
266.39731
263.10604
259.85308
256.63984
253.46773
250.33817
247.25254
244.21221
241.21854
238.27282
235.37629
232.53013
229.73545
226.9933
224.30463
221.67031
219.09111
216.56772
214.10074
211.69065
209.33785
207.04264
204.80523
202.62574
200.50417
198.44047
196.43446
194.48587
192.59435
190.75953
188.98104
342.22193
338.34448
334.49266
330.66623
326.86489
323.08843
319.33673
315.60977
311.90764
308.23055
304.57882
300.95287
297.35327
293.78065
290.23578
286.71951
283.23279
279.77666
276.35223
272.9607
269.60332
266.2814
262.99627
259.74932
256.54195
253.37557
250.25159
247.1714
244.13637
241.14785
238.20712
235.31542
232.47395
229.6838
226.94602
224.26156
221.63128
219.05597
216.53631
214.07288
211.66619
209.31663
207.0245
204.79002
202.6133
200.49437
198.43315
196.42948
194.48308
192.59357
190.76056
188.98356
341.91471
338.04794
334.20654
330.39028
326.59887
322.83212
319.08991
315.37222
311.67916
308.01094
304.36789
300.75045
297.15916
293.59469
290.0578
286.54935
283.07028
279.62165
276.20458
272.82024
269.4699
266.15486
262.87647
259.6361
256.43516
253.27506
250.15719
247.08295
244.05372
241.07083
238.13556
235.24917
232.41282
229.62763
226.89462
224.21477
221.58892
219.01786
216.50226
214.04273
211.63976
209.29374
207.00498
204.77369
202.6
200.48394
198.42544
196.42434
194.48033
192.59302
190.76196
188.98664
341.57952
337.72442
333.8944
330.08926
326.30872
322.55259
318.82075
315.1132
311.43006
307.77154
304.13798
300.52983
296.94764
293.39208
289.86391
286.364
282.8933
279.45287
276.04381
272.66733
269.32468
266.01716
262.74613
259.51295
256.31903
253.16577
250.05458
246.98684
243.96393
240.98719
238.05788
235.17727
232.34651
229.56672
226.83893
224.1641
221.54308
218.97665
216.46549
214.01021
211.61128
209.26912
206.98402
204.75622
202.58584
200.4729
198.41737
196.41906
194.47769
192.59277
190.76383
188.99049
341.21484
337.37246
333.55487
329.76186
325.99317
322.24861
318.52808
314.8316
311.15927
307.51132
303.88811
300.29009
296.71781
293.17196
289.65329
286.16269
282.70111
279.26961
275.86929
272.50137
269.1671
265.86777
262.60474
259.37939
256.19311
253.0473
249.94338
246.88272
243.86669
240.89663
237.97381
235.09948
232.27481
229.5009
226.77878
224.1094
221.49363
218.93224
216.42591
213.97523
211.58071
209.24273
206.96163
204.7376
202.5708
200.46126
198.40894
196.41369
194.47519
192.5929
190.7662
340.81917
336.9906
333.18652
329.4067
325.6509
321.91894
318.21072
314.52627
310.8657
307.22926
303.6173
300.03028
296.46878
292.93348
289.42515
285.94467
282.493
279.07119
275.68038
272.32175
268.99657
265.70614
262.45181
259.23496
256.05697
252.91926
249.82322
246.77024
243.76168
240.79887
237.88309
235.01558
232.19751
229.42997
226.714
224.05054
221.44046
218.88453
216.38343
213.93775
211.54799
209.21456
206.93777
204.71784
202.55491
200.44904
198.40019
196.40824
194.47292
192.59349
190.76895
340.39094
336.57735
332.78792
329.02243
325.28063
321.56233
317.86747
314.19606
310.54825
306.92429
303.32454
299.74947
296.19966
292.6758
289.17867
285.70915
282.26822
278.85693
275.47641
272.12786
268.81254
265.53175
262.28684
259.07919
255.91018
252.78123
249.69373
246.64906
243.64859
240.69363
237.78547
234.92534
232.11441
229.35377
226.64444
223.98739
221.38346
218.83343
216.33798
213.89771
211.5131
209.18458
206.91244
204.69693
202.53818
200.43626
198.39114
196.40275
194.47094
339.92862
336.1312
332.35765
328.60768
324.88103
321.17753
317.49713
313.83985
310.20585
306.59539
303.00885
299.4467
295.90954
292.39806
288.91305
285.4554
282.02608
278.62616
275.25677
271.91911
268.61444
265.34407
262.10934
258.91163
255.75233
252.63285
249.55457
246.51888
243.52713
240.58065
237.68072
234.82855
232.02532
229.27212
226.56997
223.91983
221.32254
218.77887
216.28952
213.85507
211.47602
209.15278
206.88567
204.67491
202.52066
200.42297
198.38183
196.39721
339.43057
335.65063
331.89426
328.16106
324.45079
320.76329
317.09851
313.45649
309.83741
306.24154
302.66925
299.12106
295.59755
292.09943
288.6275
285.18265
281.76587
278.37822
275.02084
271.69492
268.40174
265.1426
261.91885
258.73186
255.58303
252.47374
249.4054
246.37938
243.39704
240.45969
237.56861
234.72502
231.93009
229.1849
226.49048
223.84776
221.25762
218.72081
216.23801
213.80983
211.43675
209.1192
206.85748
204.65182
202.50239
200.40923
198.37232
196.39151
342.67907
338.89494
335.13412
331.39632
327.68124
323.98864
320.31839
316.67044
313.04488
309.44187
305.86171
302.3048
298.77164
295.26284
291.77911
288.32127
284.89021
281.48692
278.11248
274.76802
271.45474
268.17393
264.92687
261.71493
258.53947
255.40189
252.30357
249.24592
246.2303
243.25806
240.33053
237.44896
234.61459
231.82857
229.09198
226.40586
223.77113
221.18865
218.65919
216.18344
213.76198
211.39532
209.08385
206.82792
204.62774
202.48346
200.39514
198.36274
196.38604
342.08325
338.32048
334.58026
330.86248
327.16689
323.49331
319.84162
316.21179
312.60393
309.01821
305.45495
301.91457
298.39757
294.90458
291.43632
287.99362
284.57738
281.18859
277.82833
274.49775
271.19806
267.93052
264.69644
261.49718
258.3341
255.20858
252.12204
249.07585
246.07138
243.10998
240.19297
237.32161
234.49712
231.72065
228.99329
226.31605
223.68987
221.11561
218.59403
216.12582
213.71156
211.35176
209.04682
206.79707
204.60274
202.46398
200.38084
198.35325
196.38099
341.44589
337.70581
333.98768
330.2914
326.61677
322.96361
319.33184
315.72147
312.13261
308.56545
305.02034
301.49768
297.99803
294.52201
291.07035
287.64388
284.24353
280.87029
277.52524
274.20954
270.9244
267.67109
264.45092
261.26523
258.1154
255.00282
251.92888
248.89496
245.90243
242.95263
240.04688
237.18644
234.37251
231.60626
228.88876
226.22102
223.60399
221.03851
218.52535
216.0652
213.65863
211.30615
209.00818
206.76504
204.57696
202.44408
200.36646
198.34403
196.37655
340.7654
337.04956
333.35508
329.68184
326.02966
322.3984
318.78799
315.19847
311.62996
308.08269
304.55701
301.05335
297.57227
294.11441
290.68052
287.27144
283.88809
280.53149
277.20272
273.90293
270.63336
267.39526
264.18995
261.01878
257.88312
254.78436
251.72388
248.70306
245.72329
242.78588
239.89215
237.04336
234.24072
231.48537
228.77839
226.12079
223.51352
220.9574
218.45322
216.00165
213.60329
211.25862
208.96808
206.73197
204.55054
202.42394
200.3522
198.33528
196.37293
340.04036
336.35044
332.68124
329.03263
325.40447
321.79663
318.20907
314.64184
311.0951
307.5691
304.06419
300.58084
297.11961
293.68117
290.26626
286.87575
283.51057
280.17173
276.86034
273.57755
270.32459
267.10272
263.91328
260.75759
257.63704
254.55301
251.50689
248.50005
245.53386
242.60966
239.72874
236.89237
234.10174
231.35799
228.66222
226.01542
223.41852
220.87238
218.37775
215.93532
213.54567
211.20931
208.92666
206.69804
204.52368
202.40374
200.33827
198.32721
196.37033
339.2695
335.60725
331.96503
328.34273
324.74021
321.15737
317.59421
314.05078
310.52728
307.02397
303.54124
300.07955
296.6395
293.22176
289.8271
286.45638
283.11056
279.79066
276.49779
273.2331
269.99784
266.79326
263.62071
260.48151
257.37704
254.30869
251.27785
248.28587
245.33414
242.42397
239.55668
236.73349
233.95563
231.22423
228.54035
225.90502
223.31915
220.78359
218.2991
215.86636
213.48597
211.15843
208.88415
206.66346
204.49661
202.38374
200.32491
198.32007
196.36902
338.4517
334.81896
331.2055
327.61123
324.03604
320.47985
316.94267
313.42461
309.92587
306.44673
302.9876
299.54899
296.13148
292.73577
289.36266
286.01301
282.68779
279.38803
276.11485
272.86942
269.65296
266.46677
263.31215
260.19047
257.10309
254.05139
251.03676
248.06057
245.12417
242.2289
239.37605
236.56687
233.80254
231.08422
228.41296
225.78978
223.21559
220.69124
218.21749
215.79502
213.42443
211.10622
208.8408
206.62851
204.4696
202.36421
200.31242
198.31418
196.36929
337.58608
333.98473
330.40187
326.83743
323.2913
319.76345
316.25392
312.76282
309.2904
305.83695
302.40292
298.98882
295.59527
292.22298
288.87275
285.54547
282.24212
278.96374
275.71146
272.48645
269.28995
266.12324
262.98766
259.88454
256.81527
253.78121
250.78376
247.82428
244.90413
242.02463
239.18707
236.39269
233.6427
230.93821
228.28029
225.66996
223.10812
220.59562
218.13322
215.7216
213.36136
211.053
208.79694
206.59352
204.44298
202.3455
200.30113
198.30985
196.37148
336.67195
333.10397
329.5536
326.02082
322.50556
319.00779
315.52759
312.06512
308.62062
305.19444
301.78702
298.39892
295.03077
291.68329
288.35732
285.05375
281.77357
278.51784
275.28769
272.0843
268.90892
265.76285
262.64739
259.56392
256.51379
253.49839
250.5191
247.57728
244.67429
241.81145
238.99003
236.2113
233.47642
230.78653
228.14269
225.54591
222.99709
220.49709
218.04665
215.64647
213.29713
210.99915
208.75295
206.55887
204.41716
202.32799
200.29144
198.30749
196.37597
335.70896
332.17634
328.66042
325.16119
321.67863
318.21273
314.76361
311.33144
307.91652
304.5192
301.13996
297.77937
294.43809
291.11688
287.81656
284.53805
281.28237
278.05057
274.84381
271.66326
268.5102
265.3859
262.2917
259.22895
256.19902
253.2033
250.24316
247.31996
244.43506
241.58977
238.78537
236.0231
233.30415
230.62963
228.00061
225.41809
222.88297
220.39611
217.95826
215.5701
213.23222
210.94514
208.7093
206.52502
204.39258
202.31214
200.28381
198.30755
196.38322
334.69707
331.20187
327.72238
324.25864
320.81065
317.37845
313.96218
310.56204
307.17836
303.81153
300.46206
297.13053
293.81762
290.52412
287.25087
283.99882
280.76897
277.56241
274.3803
271.22384
268.09428
264.99292
261.9211
258.88018
255.87152
252.8965
249.95651
247.0529
244.18702
241.36018
238.57366
235.82869
233.12646
230.46809
227.85463
225.28707
222.76633
220.29325
217.86859
215.49304
213.16717
210.89153
208.66653
206.49252
204.36978
202.29849
200.27874
198.31053
196.39373
333.63667
330.18097
326.73994
323.31365
319.90214
316.50548
313.12385
309.7575
306.40676
303.07207
299.75396
296.45304
293.17003
289.90571
286.66097
283.43675
280.23409
277.05409
273.89791
270.76676
267.66191
264.58467
261.53636
258.51836
255.53203
252.57875
249.65989
246.77683
243.9309
241.12341
238.35563
235.6288
232.94409
230.30262
227.70544
225.15355
222.64786
220.1892
217.77834
215.41596
213.10266
210.83895
208.62528
206.46201
204.3494
202.28765
200.27686
198.31704
196.40807
332.52862
329.11452
325.714
322.32714
318.95402
315.59478
312.24961
308.91879
305.6027
302.30181
299.01667
295.74794
292.49633
289.26267
286.04787
282.85288
279.67877
276.52663
273.39765
270.29306
267.21412
264.16215
261.13848
258.14449
255.18154
252.25101
249.35429
246.49272
243.66765
240.88039
238.1322
235.42432
232.75791
230.1341
227.55393
225.01839
222.5284
220.08478
217.68831
215.33967
213.03945
210.78819
208.58632
206.43421
204.33214
202.28031
200.27884
198.32775
196.42692
331.37433
328.00396
324.64598
321.30054
317.96775
314.64779
311.34088
308.04736
304.76763
301.50219
298.25163
295.01663
291.79795
288.59642
285.41297
282.2486
279.10437
275.9814
272.88089
269.80407
266.75222
263.72667
260.72875
257.75984
254.8213
251.91453
249.0409
246.20176
243.39845
240.63228
237.90451
235.21637
232.56903
229.9636
227.40113
224.88261
222.40895
219.98098
217.59946
215.2651
212.97848
210.74013
208.55051
206.40999
204.31885
202.27731
200.28549
198.34342
196.45101
330.17586
326.85131
323.53792
320.23588
316.94533
313.6665
310.39966
307.14517
303.90349
300.67514
297.46075
294.26102
291.07675
287.9088
284.75812
281.62571
278.51268
275.42015
272.34934
269.30148
266.27788
263.27986
260.30877
257.36599
254.45288
251.57083
248.72123
245.90541
243.12473
240.38048
237.67393
235.00629
232.37875
229.7924
227.2483
224.74742
222.29069
219.87893
217.51292
215.19334
212.92079
210.69582
208.51887
206.39032
204.31048
202.27956
200.2977
198.36494
196.4812
328.936
325.65936
322.39256
319.13585
315.88943
312.65355
309.42854
306.2148
303.01281
299.82315
296.64648
293.48353
290.33513
287.20216
284.0856
280.98649
277.90592
274.84507
271.80515
268.78742
265.79318
262.82377
259.88054
256.96488
254.07816
251.22176
248.39707
245.60544
242.8482
240.12666
237.44208
234.79567
232.18861
229.622
227.09689
224.61425
222.17501
219.78
217.42999
215.12566
212.86763
210.65644
208.49255
206.37634
204.30812
202.28813
200.3165
198.3933
196.51846
327.65838
324.43166
321.21342
318.00394
314.80346
311.6123
308.43083
305.25948
302.09879
298.94937
295.81191
292.68718
289.57604
286.47941
283.39828
280.33372
277.28684
274.25884
271.25095
268.26443
265.30061
262.36082
259.44643
256.55883
253.6994
250.86953
248.07059
245.30394
242.57091
239.87281
237.21089
234.58638
232.00044
229.45417
226.94861
224.48477
222.06353
219.68575
217.35218
215.06354
212.82042
210.62338
208.47289
206.36933
204.31303
202.30422
200.34306
198.42962
196.56386
326.34757
323.17272
320.0049
316.84445
313.69167
310.54692
307.41061
304.28323
301.16536
298.05764
294.96081
291.87567
288.80311
285.74409
282.69961
279.67078
276.65874
273.66469
270.68988
267.73559
264.80316
261.89394
259.0093
256.15063
253.31932
250.51676
247.74433
245.00339
242.29526
239.62126
236.98264
234.38062
231.81636
229.29097
226.80548
224.36089
221.95811
219.59798
217.28126
215.00866
212.7808
210.59822
208.46141
206.37077
204.32662
202.32921
200.3787
198.47519
196.61863
325.00921
321.88804
318.77241
315.66269
312.55925
309.46248
306.37285
303.29091
300.21727
297.15261
294.09772
291.05344
288.02068
285.00043
281.99374
279.00172
276.02556
273.06645
270.12568
267.20455
264.3044
261.42659
258.5725
255.74353
252.94108
250.16654
247.42129
244.70669
242.02407
239.37474
236.75996
234.18095
231.63885
229.13479
226.6698
224.24488
221.86092
219.51878
217.21923
214.96297
212.75063
210.58277
208.45986
206.38233
204.35051
202.36465
200.42492
198.53143
196.68416
323.6501
320.5843
317.52246
314.46503
311.41241
308.36506
305.3235
302.28832
299.26018
296.23982
293.22805
290.22575
287.23388
284.25345
281.28554
278.33131
275.39193
272.46865
269.56277
266.67559
263.80847
260.9628
258.13996
255.34135
252.56838
249.82245
247.10494
244.41721
241.7606
239.13642
236.54592
233.99031
231.47077
228.9884
226.54424
224.13928
221.77444
219.45055
217.16839
214.92868
212.73206
210.57907
208.47022
206.40592
204.38653
202.41229
200.48341
198.59997
196.76199
322.27834
319.2694
316.26278
313.259
310.25852
307.26185
304.26957
301.28231
298.30079
295.32578
292.35815
289.39881
286.44875
283.50903
280.58076
277.6651
274.76329
271.87657
269.00626
266.1537
263.32024
260.5073
257.71626
254.94853
252.20554
249.48867
246.79933
244.13887
241.50864
238.90995
236.34404
233.81215
231.31543
228.85499
226.43188
224.04708
221.70151
219.39602
217.1314
214.90835
212.72751
210.58947
208.49472
206.44369
204.43673
202.47413
200.55605
198.68262
196.85383
320.90347
317.95263
315.00244
312.05346
309.10621
306.16127
303.21927
300.28088
297.34688
294.4181
291.49542
288.57982
285.67233
282.77402
279.88605
277.00961
274.14594
271.29634
268.46213
265.64467
262.84534
260.06554
257.3067
254.57022
251.85753
249.17004
246.50914
243.8762
241.27257
238.69956
236.15842
233.65038
231.17661
228.73821
226.33622
223.97165
221.6454
219.35834
217.11124
214.90483
212.73975
210.6166
208.53588
206.49803
204.50342
202.55233
200.64494
198.78137
196.96161
319.53656
316.64481
313.75197
310.85867
307.9655
305.07308
302.1821
299.29331
296.40751
293.52558
290.64846
287.77716
284.91275
282.05635
279.20913
276.37233
273.54721
270.73508
267.9373
265.15523
262.39029
259.64387
256.91742
254.21237
251.53013
248.87212
246.23976
243.63441
241.05743
238.51012
235.99375
233.50954
231.05867
228.64224
226.2613
223.91685
221.60981
219.34103
217.11131
214.92137
212.77188
210.66342
208.59651
206.57163
204.58913
202.6493
200.75236
198.89841
318.19039
315.35838
312.52352
309.68649
306.84793
304.00855
301.16907
298.3303
295.4931
292.6584
289.82718
287.0005
284.17945
281.3652
278.55895
275.76197
272.97555
270.20102
267.43976
264.69316
261.96264
259.24962
256.55555
253.88186
251.23
248.60138
245.99743
243.41952
240.869
238.3472
235.85539
233.39478
230.96656
228.57184
226.21168
223.88706
221.59891
219.3481
217.13542
214.9616
212.82732
210.73318
208.67971
206.66738
204.69658
202.76761
200.8807
316.87962
314.10768
311.33107
308.55055
305.76683
302.98067
300.19286
297.40425
294.61576
291.82836
289.04309
286.26104
283.48335
280.71122
277.94589
275.18864
272.4408
269.70373
266.97882
264.26748
261.57115
258.89126
256.22927
253.58664
250.96481
248.36522
245.78929
243.2384
240.71392
238.21717
235.74944
233.31195
230.90589
228.53237
226.19245
223.88712
221.61733
219.38393
217.18773
215.02947
212.90983
210.82941
208.78877
206.78839
204.82866
202.90993
315.62113
312.90917
310.19073
307.46661
304.7376
302.0045
299.26816
296.52951
293.7895
291.04916
288.30956
285.57184
282.83719
280.10682
277.38201
274.66409
271.95439
269.2543
266.56524
263.88863
261.22592
258.57858
255.94806
253.33584
250.74337
248.1721
245.62346
243.09885
240.59964
238.12717
235.68273
233.26756
230.88283
228.52969
226.20919
223.92234
221.67007
219.45326
217.27271
215.12917
213.02332
210.95579
208.92714
206.93785
204.98831
203.07881
314.43449
311.78204
309.12127
306.45305
303.77821
301.09763
298.41221
295.72292
293.03077
290.33684
287.64225
284.94817
282.25582
279.56646
276.88139
274.20197
271.52957
268.86559
266.21146
263.56864
260.93858
258.32276
255.72267
253.13978
250.57557
248.0315
245.509
243.00951
240.53439
238.08501
235.66266
233.2686
230.90402
228.57007
226.2678
223.99824
221.76233
219.56093
217.39487
215.26491
213.17173
211.11597
209.09819
207.11889
205.17847
203.27722
313.34274
310.74888
308.14485
305.53156
302.90991
300.28084
297.64529
295.0043
292.35892
289.71028
287.05953
284.40788
281.75659
279.10697
276.46034
273.81808
271.18159
268.55228
265.93163
263.32109
260.72214
258.13629
255.56503
253.00985
250.47224
247.95369
245.45566
242.97957
240.52685
238.09885
235.6969
233.32226
230.97616
228.65975
226.37409
224.12022
221.89908
219.71156
217.55848
215.44059
213.35861
211.31318
209.30487
207.3342
205.40157
203.50731
312.3735
309.83672
307.28791
304.72802
302.15798
299.57879
296.99145
294.39704
291.79667
289.19149
286.58272
283.97161
281.35945
278.74757
276.13734
273.53015
270.92744
268.33065
265.74126
263.16077
260.59067
258.03248
255.48772
252.95791
250.44455
247.94916
245.47322
243.01819
240.5855
238.17655
235.7927
233.43524
231.1054
228.80435
226.53319
224.29294
222.08457
219.90895
217.76692
215.65925
213.58665
211.54978
209.54924
207.58553
205.65911
203.7703
311.56002
309.078
306.58203
304.0731
301.55218
299.02032
296.47858
293.92807
291.36996
288.80545
286.23581
283.66232
281.08632
278.50917
275.93227
273.35706
270.785
268.21756
265.65625
263.10259
260.55811
258.02435
255.50286
252.99518
250.50286
248.02742
245.57039
243.13327
240.71754
238.32461
235.9559
233.61272
231.29634
229.00794
226.74865
224.51949
222.32143
220.15534
218.02207
215.9224
213.85704
211.82667
209.8319
207.87326
205.95121
204.06608
310.94142
308.51046
306.06356
303.60174
301.12602
298.63749
296.13728
293.62654
291.10651
288.57844
286.04363
283.50342
280.9592
278.41238
275.8644
273.31673
270.77088
268.22836
265.69072
263.1595
260.63627
258.12262
255.62011
253.13032
250.65485
248.19525
245.7531
243.32994
240.92729
238.54665
236.18945
233.85707
231.55081
229.27188
227.0214
224.80041
222.60984
220.4506
218.3235
216.22933
214.16883
212.14269
210.15153
208.1959
206.27625
204.39292
310.56018
308.17437
305.77054
303.34979
300.91321
298.46192
295.99711
293.52
291.03187
288.53404
286.02789
283.51481
280.99625
278.47366
275.94856
273.42246
270.89691
268.37348
265.85376
263.33933
260.83182
258.33282
255.84396
253.36687
250.90315
248.45444
246.02235
243.60847
241.21442
238.84174
236.49194
234.16645
231.86663
229.59368
227.34873
225.13278
222.94676
220.79153
218.6679
216.57667
214.51858
212.49434
210.5046
208.54994
206.63085
204.74757
310.45411
308.10446
305.73472
303.34613
300.93984
298.51704
296.07897
293.62692
291.16225
288.68635
286.20065
283.70664
281.20581
278.6997
276.18988
273.67793
271.16545
268.65407
266.1454
263.6411
261.14282
258.6522
256.17091
253.7006
251.24294
248.7996
246.37226
243.9626
241.5723
239.203
236.85633
234.53378
232.23672
229.96638
227.72381
225.50996
223.32569
221.17183
219.04917
216.9585
214.90058
212.87617
210.88595
208.93058
207.01071
310.64172
308.31591
305.96813
303.59986
301.21234
298.80682