/*--------------------------------*- C++ -*----------------------------------*\
| =========                 |                                                 |
| \\      /  F ield         | OpenFOAM: The Open Source CFD Toolbox           |
|  \\    /   O peration     | Version:  2312                                  |
|   \\  /    A nd           | Website:  www.openfoam.com                      |
|    \\/     M anipulation  |                                                 |
\*---------------------------------------------------------------------------*/
FoamFile
{
    version     2.0;
    format      ascii;
    arch        "LSB;label=32;scalar=64";
    class       volScalarField;
    location    "0.07";
    object      p;
}
// * * * * * * * * * * * * * * * * * * * * * * * * * * * * * * * * * * * * * //

dimensions      [1 -1 -2 0 0 0 0];

internalField   nonuniform List<scalar> 
3251
(
99986.759
99986.468
99986.168
99985.859
99985.542
99985.215
99984.878
99984.532
99984.177
99983.812
99983.438
99983.054
99982.659
99982.255
99981.84
99981.414
99980.978
99980.532
99980.075
99979.608
99979.131
99978.644
99978.148
99977.644
99977.132
99976.614
99976.09
99975.562
99975.031
99974.499
99973.969
99973.441
99972.919
99972.405
99971.901
99971.411
99970.936
99970.48
99970.045
99969.633
99969.248
99968.89
99968.563
99968.269
99968.009
99967.784
99967.597
99967.449
99967.341
99967.273
99967.245
99967.258
99967.308
99967.399
99967.533
99967.708
99967.923
99968.176
99986.763
99986.471
99986.17
99985.86
99985.541
99985.212
99984.873
99984.526
99984.169
99983.802
99983.426
99983.04
99982.643
99982.237
99981.82
99981.392
99980.954
99980.505
99980.046
99979.577
99979.098
99978.609
99978.112
99977.606
99977.092
99976.572
99976.046
99975.517
99974.985
99974.452
99973.921
99973.393
99972.871
99972.356
99971.853
99971.363
99970.889
99970.434
99970
99969.59
99969.207
99968.852
99968.527
99968.235
99967.978
99967.756
99967.572
99967.427
99967.322
99967.256
99967.231
99967.247
99967.301
99967.396
99967.534
99967.713
99967.931
99968.187
99986.771
99986.478
99986.175
99985.864
99985.543
99985.213
99984.872
99984.523
99984.163
99983.795
99983.416
99983.028
99982.629
99982.22
99981.801
99981.371
99980.93
99980.479
99980.017
99979.545
99979.063
99978.572
99978.072
99977.564
99977.048
99976.526
99975.998
99975.467
99974.933
99974.399
99973.867
99973.338
99972.815
99972.301
99971.798
99971.308
99970.835
99970.381
99969.949
99969.541
99969.16
99968.808
99968.486
99968.198
99967.943
99967.725
99967.545
99967.403
99967.302
99967.24
99967.219
99967.239
99967.299
99967.399
99967.541
99967.725
99967.948
99968.208
99986.784
99986.489
99986.185
99985.872
99985.55
99985.217
99984.875
99984.523
99984.162
99983.791
99983.41
99983.019
99982.618
99982.206
99981.783
99981.35
99980.907
99980.452
99979.988
99979.513
99979.028
99978.534
99978.031
99977.519
99977.001
99976.476
99975.946
99975.413
99974.877
99974.342
99973.808
99973.278
99972.755
99972.24
99971.737
99971.248
99970.776
99970.324
99969.893
99969.488
99969.109
99968.76
99968.442
99968.157
99967.907
99967.693
99967.517
99967.38
99967.283
99967.227
99967.211
99967.236
99967.301
99967.408
99967.556
99967.745
99967.974
99968.239
99986.801
99986.505
99986.199
99985.885
99985.561
99985.226
99984.882
99984.527
99984.164
99983.79
99983.406
99983.012
99982.608
99982.193
99981.767
99981.331
99980.884
99980.426
99979.958
99979.479
99978.991
99978.493
99977.987
99977.472
99976.95
99976.422
99975.889
99975.353
99974.816
99974.278
99973.743
99973.212
99972.687
99972.172
99971.67
99971.181
99970.71
99970.259
99969.831
99969.428
99969.053
99968.707
99968.393
99968.113
99967.867
99967.659
99967.488
99967.357
99967.265
99967.215
99967.205
99967.237
99967.31
99967.423
99967.578
99967.774
99968.009
99986.822
99986.525
99986.218
99985.902
99985.576
99985.239
99984.892
99984.535
99984.169
99983.793
99983.406
99983.009
99982.601
99982.182
99981.753
99981.313
99980.862
99980.4
99979.928
99979.445
99978.953
99978.451
99977.94
99977.422
99976.896
99976.365
99975.829
99975.289
99974.749
99974.209
99973.672
99973.139
99972.614
99972.099
99971.596
99971.108
99970.638
99970.189
99969.764
99969.364
99968.992
99968.65
99968.341
99968.066
99967.826
99967.623
99967.459
99967.334
99967.25
99967.206
99967.204
99967.244
99967.324
99967.446
99967.609
99967.813
99968.054
99986.848
99986.549
99986.241
99985.923
99985.594
99985.255
99984.906
99984.547
99984.178
99983.798
99983.408
99983.007
99982.596
99982.174
99981.74
99981.296
99980.84
99980.374
99979.897
99979.41
99978.913
99978.407
99977.892
99977.369
99976.839
99976.304
99975.764
99975.222
99974.678
99974.136
99973.597
99973.062
99972.536
99972.02
99971.518
99971.031
99970.562
99970.115
99969.692
99969.296
99968.928
99968.591
99968.287
99968.018
99967.784
99967.588
99967.431
99967.314
99967.237
99967.202
99967.208
99967.256
99967.345
99967.476
99967.648
99967.86
99968.11
99986.877
99986.577
99986.267
99985.947
99985.617
99985.275
99984.923
99984.561
99984.189
99983.806
99983.413
99983.008
99982.593
99982.166
99981.729
99981.28
99980.82
99980.349
99979.867
99979.375
99978.873
99978.362
99977.842
99977.314
99976.78
99976.24
99975.697
99975.151
99974.604
99974.059
99973.517
99972.981
99972.454
99971.938
99971.435
99970.949
99970.482
99970.038
99969.618
99969.225
99968.862
99968.53
99968.232
99967.969
99967.742
99967.554
99967.405
99967.296
99967.227
99967.201
99967.217
99967.274
99967.374
99967.515
99967.696
99967.918
99968.176
99986.91
99986.609
99986.297
99985.975
99985.642
99985.298
99984.944
99984.579
99984.204
99983.817
99983.42
99983.012
99982.592
99982.161
99981.719
99981.265
99980.8
99980.324
99979.837
99979.34
99978.832
99978.316
99977.791
99977.258
99976.719
99976.175
99975.627
99975.077
99974.527
99973.979
99973.435
99972.898
99972.369
99971.852
99971.35
99970.865
99970.4
99969.958
99969.542
99969.153
99968.795
99968.469
99968.177
99967.92
99967.702
99967.521
99967.381
99967.281
99967.222
99967.206
99967.231
99967.299
99967.409
99967.561
99967.752
99967.984
99986.946
99986.644
99986.33
99986.006
99985.671
99985.325
99984.968
99984.6
99984.221
99983.831
99983.43
99983.018
99982.594
99982.158
99981.711
99981.252
99980.781
99980.3
99979.807
99979.305
99978.792
99978.27
99977.739
99977.201
99976.657
99976.108
99975.556
99975.002
99974.448
99973.897
99973.351
99972.811
99972.282
99971.765
99971.263
99970.779
99970.317
99969.877
99969.464
99969.08
99968.727
99968.407
99968.122
99967.873
99967.663
99967.491
99967.36
99967.27
99967.221
99967.215
99967.252
99967.331
99967.452
99967.614
99967.817
99968.058
99986.986
99986.682
99986.367
99986.041
99985.703
99985.354
99984.995
99984.624
99984.241
99983.848
99983.443
99983.026
99982.597
99982.157
99981.704
99981.24
99980.764
99980.277
99979.778
99979.27
99978.751
99978.223
99977.687
99977.143
99976.594
99976.04
99975.483
99974.925
99974.367
99973.813
99973.264
99972.723
99972.192
99971.675
99971.174
99970.691
99970.231
99969.795
99969.386
99969.007
99968.659
99968.346
99968.068
99967.828
99967.626
99967.464
99967.343
99967.263
99967.226
99967.231
99967.279
99967.37
99967.503
99967.676
99967.89
99987.03
99986.724
99986.407
99986.079
99985.739
99985.388
99985.025
99984.651
99984.265
99983.867
99983.458
99983.036
99982.603
99982.157
99981.699
99981.229
99980.747
99980.254
99979.75
99979.235
99978.71
99978.176
99977.633
99977.084
99976.529
99975.97
99975.408
99974.845
99974.284
99973.726
99973.175
99972.632
99972.1
99971.583
99971.082
99970.602
99970.144
99969.711
99969.306
99968.933
99968.591
99968.285
99968.015
99967.783
99967.591
99967.439
99967.329
99967.26
99967.235
99967.252
99967.312
99967.416
99967.561
99967.747
99967.972
99987.077
99986.77
99986.451
99986.12
99985.778
99985.424
99985.058
99984.681
99984.291
99983.89
99983.476
99983.05
99982.611
99982.16
99981.696
99981.22
99980.732
99980.232
99979.721
99979.2
99978.668
99978.128
99977.579
99977.024
99976.463
99975.898
99975.331
99974.764
99974.198
99973.638
99973.083
99972.539
99972.006
99971.489
99970.989
99970.51
99970.055
99969.626
99969.226
99968.858
99968.524
99968.225
99967.964
99967.741
99967.559
99967.418
99967.319
99967.263
99967.25
99967.28
99967.353
99967.469
99967.628
99967.826
99987.128
99986.819
99986.498
99986.165
99985.821
99985.464
99985.095
99984.714
99984.321
99983.915
99983.496
99983.065
99982.621
99982.164
99981.694
99981.212
99980.718
99980.211
99979.694
99979.165
99978.627
99978.079
99977.524
99976.962
99976.395
99975.824
99975.252
99974.68
99974.111
99973.547
99972.99
99972.443
99971.91
99971.393
99970.894
99970.417
99969.965
99969.541
99969.146
99968.784
99968.457
99968.166
99967.914
99967.702
99967.53
99967.401
99967.314
99967.27
99967.27
99967.314
99967.401
99967.531
99967.703
99967.914
99987.182
99986.872
99986.549
99986.214
99985.867
99985.507
99985.135
99984.75
99984.353
99983.943
99983.519
99983.083
99982.633
99982.17
99981.694
99981.205
99980.704
99980.191
99979.666
99979.131
99978.585
99978.031
99977.468
99976.9
99976.326
99975.75
99975.172
99974.595
99974.022
99973.454
99972.895
99972.346
99971.812
99971.295
99970.798
99970.323
99969.875
99969.455
99969.066
99968.711
99968.391
99968.109
99967.867
99967.665
99967.505
99967.388
99967.314
99967.284
99967.298
99967.356
99967.457
99967.601
99967.788
99987.24
99986.929
99986.604
99986.267
99985.917
99985.554
99985.178
99984.79
99984.388
99983.973
99983.545
99983.103
99982.647
99982.178
99981.696
99981.2
99980.692
99980.171
99979.639
99979.096
99978.543
99977.981
99977.412
99976.836
99976.256
99975.673
99975.09
99974.508
99973.931
99973.359
99972.797
99972.247
99971.713
99971.196
99970.7
99970.229
99969.784
99969.369
99968.986
99968.638
99968.327
99968.054
99967.822
99967.632
99967.484
99967.38
99967.32
99967.304
99967.333
99967.405
99967.521
99967.68
99967.882
99987.302
99986.989
99986.662
99986.323
99985.97
99985.604
99985.225
99984.833
99984.427
99984.007
99983.573
99983.125
99982.664
99982.188
99981.699
99981.196
99980.681
99980.153
99979.613
99979.062
99978.501
99977.932
99977.355
99976.772
99976.185
99975.596
99975.007
99974.42
99973.838
99973.263
99972.698
99972.147
99971.612
99971.096
99970.602
99970.133
99969.693
99969.283
99968.907
99968.567
99968.264
99968.002
99967.781
99967.603
99967.468
99967.378
99967.332
99967.331
99967.375
99967.463
99967.595
99967.769
99987.368
99987.053
99986.724
99986.382
99986.027
99985.658
99985.275
99984.879
99984.468
99984.043
99983.604
99983.15
99982.682
99982.2
99981.704
99981.194
99980.67
99980.135
99979.587
99979.028
99978.459
99977.882
99977.297
99976.707
99976.113
99975.517
99974.922
99974.33
99973.743
99973.165
99972.598
99972.045
99971.51
99970.995
99970.503
99970.038
99969.602
99969.198
99968.829
99968.497
99968.205
99967.953
99967.744
99967.578
99967.457
99967.381
99967.351
99967.366
99967.426
99967.53
99967.678
99967.867
99987.438
99987.121
99986.79
99986.446
99986.087
99985.715
99985.329
99984.928
99984.513
99984.083
99983.638
99983.178
99982.703
99982.214
99981.71
99981.193
99980.661
99980.117
99979.561
99978.994
99978.417
99977.831
99977.238
99976.641
99976.039
99975.437
99974.836
99974.238
99973.647
99973.066
99972.496
99971.942
99971.407
99970.893
99970.403
99969.942
99969.511
99969.114
99968.753
99968.43
99968.148
99967.908
99967.711
99967.559
99967.453
99967.392
99967.378
99967.41
99967.487
99967.607
99967.771
99967.976
99987.511
99987.193
99986.86
99986.513
99986.152
99985.776
99985.386
99984.98
99984.56
99984.125
99983.674
99983.208
99982.726
99982.23
99981.718
99981.193
99980.653
99980.101
99979.536
99978.96
99978.374
99977.78
99977.179
99976.574
99975.965
99975.356
99974.748
99974.146
99973.55
99972.965
99972.393
99971.838
99971.303
99970.79
99970.304
99969.847
99969.422
99969.032
99968.679
99968.366
99968.095
99967.867
99967.683
99967.546
99967.455
99967.41
99967.413
99967.462
99967.557
99967.695
99967.876
99968.098
99987.589
99987.269
99986.933
99986.584
99986.22
99985.84
99985.446
99985.036
99984.611
99984.17
99983.713
99983.24
99982.751
99982.247
99981.728
99981.194
99980.646
99980.085
99979.511
99978.926
99978.332
99977.729
99977.12
99976.506
99975.89
99975.273
99974.66
99974.052
99973.452
99972.863
99972.289
99971.733
99971.198
99970.688
99970.205
99969.752
99969.334
99968.951
99968.608
99968.305
99968.046
99967.831
99967.662
99967.539
99967.464
99967.437
99967.458
99967.525
99967.639
99967.795
99967.992
99987.671
99987.348
99987.011
99986.659
99986.291
99985.908
99985.51
99985.095
99984.665
99984.218
99983.754
99983.275
99982.779
99982.267
99981.74
99981.197
99980.64
99980.07
99979.487
99978.893
99978.289
99977.677
99977.059
99976.437
99975.813
99975.19
99974.57
99973.956
99973.352
99972.761
99972.185
99971.628
99971.094
99970.585
99970.106
99969.659
99969.247
99968.873
99968.539
99968.248
99968.001
99967.8
99967.646
99967.54
99967.482
99967.473
99967.512
99967.599
99967.732
99967.906
99968.12
99987.757
99987.433
99987.093
99986.738
99986.367
99985.98
99985.577
99985.158
99984.722
99984.269
99983.799
99983.312
99982.809
99982.289
99981.753
99981.202
99980.636
99980.056
99979.464
99978.86
99978.247
99977.626
99976.999
99976.368
99975.736
99975.105
99974.479
99973.86
99973.252
99972.657
99972.079
99971.522
99970.989
99970.483
99970.008
99969.567
99969.163
99968.798
99968.475
99968.196
99967.963
99967.776
99967.638
99967.549
99967.509
99967.519
99967.577
99967.684
99967.837
99987.848
99987.521
99987.179
99986.821
99986.447
99986.056
99985.648
99985.224
99984.782
99984.323
99983.846
99983.352
99982.841
99982.313
99981.768
99981.207
99980.632
99980.043
99979.44
99978.827
99978.204
99977.573
99976.937
99976.298
99975.658
99975.02
99974.387
99973.763
99973.15
99972.552
99971.973
99971.416
99970.884
99970.382
99969.912
99969.477
99969.081
99968.726
99968.415
99968.149
99967.93
99967.759
99967.638
99967.567
99967.546
99967.575
99967.653
99967.78
99987.943
99987.614
99987.269
99986.908
99986.53
99986.136
99985.723
99985.294
99984.846
99984.38
99983.896
99983.395
99982.875
99982.338
99981.785
99981.215
99980.63
99980.03
99979.418
99978.795
99978.162
99977.521
99976.876
99976.227
99975.579
99974.933
99974.294
99973.664
99973.047
99972.447
99971.866
99971.31
99970.78
99970.281
99969.817
99969.389
99969.002
99968.658
99968.359
99968.107
99967.904
99967.75
99967.647
99967.595
99967.594
99967.643
99967.742
99967.89
99988.356
99988.042
99987.711
99987.364
99987
99986.618
99986.219
99985.802
99985.367
99984.913
99984.441
99983.95
99983.44
99982.913
99982.367
99981.804
99981.224
99980.629
99980.019
99979.396
99978.763
99978.119
99977.469
99976.813
99976.156
99975.499
99974.846
99974.2
99973.565
99972.944
99972.341
99971.76
99971.204
99970.677
99970.182
99969.724
99969.304
99968.927
99968.595
99968.309
99968.072
99967.885
99967.749
99967.666
99967.634
99967.653
99967.724
99967.844
99968.013
99988.462
99988.146
99987.813
99987.463
99987.096
99986.711
99986.308
99985.886
99985.445
99984.985
99984.505
99984.007
99983.489
99982.952
99982.397
99981.825
99981.235
99980.629
99980.009
99979.376
99978.731
99978.077
99977.416
99976.751
99976.084
99975.419
99974.758
99974.106
99973.465
99972.84
99972.235
99971.653
99971.098
99970.574
99970.084
99969.633
99969.222
99968.856
99968.536
99968.265
99968.044
99967.875
99967.758
99967.694
99967.684
99967.725
99967.818
99967.961
99968.152
99988.572
99988.255
99987.92
99987.568
99987.197
99986.808
99986.4
99985.973
99985.526
99985.06
99984.573
99984.067
99983.541
99982.995
99982.431
99981.848
99981.248
99980.631
99980
99979.356
99978.7
99978.035
99977.363
99976.688
99976.012
99975.338
99974.669
99974.01
99973.365
99972.736
99972.128
99971.546
99970.992
99970.472
99969.988
99969.544
99969.143
99968.788
99968.482
99968.227
99968.023
99967.873
99967.777
99967.734
99967.746
99967.811
99967.927
99968.093
99968.308
99988.689
99988.37
99988.033
99987.678
99987.304
99986.911
99986.498
99986.065
99985.613
99985.139
99984.645
99984.131
99983.596
99983.041
99982.467
99981.874
99981.263
99980.635
99979.992
99979.336
99978.669
99977.993
99977.311
99976.625
99975.939
99975.256
99974.58
99973.914
99973.263
99972.631
99972.021
99971.439
99970.887
99970.371
99969.893
99969.458
99969.068
99968.726
99968.435
99968.196
99968.011
99967.881
99967.806
99967.787
99967.822
99967.91
99968.051
99968.243
99968.481
99988.812
99988.491
99988.152
99987.793
99987.416
99987.018
99986.601
99986.163
99985.703
99985.223
99984.722
99984.199
99983.655
99983.09
99982.506
99981.902
99981.28
99980.641
99979.986
99979.318
99978.639
99977.952
99977.258
99976.561
99975.865
99975.173
99974.489
99973.817
99973.161
99972.525
99971.914
99971.332
99970.783
99970.271
99969.801
99969.375
99968.996
99968.668
99968.393
99968.172
99968.007
99967.899
99967.847
99967.852
99967.912
99968.026
99968.192
99968.409
99968.673
99988.942
99988.619
99988.276
99987.915
99987.533
99987.132
99986.709
99986.265
99985.799
99985.312
99984.802
99984.271
99983.718
99983.143
99982.548
99981.933
99981.299
99980.648
99979.982
99979.302
99978.61
99977.911
99977.205
99976.498
99975.791
99975.09
99974.397
99973.718
99973.057
99972.418
99971.806
99971.225
99970.679
99970.173
99969.71
99969.294
99968.928
99968.616
99968.358
99968.157
99968.013
99967.927
99967.9
99967.93
99968.017
99968.158
99968.351
99968.595
99968.885
99989.078
99988.752
99988.407
99988.043
99987.657
99987.251
99986.823
99986.373
99985.901
99985.406
99984.888
99984.348
99983.785
99983.2
99982.594
99981.967
99981.321
99980.658
99979.979
99979.286
99978.582
99977.87
99977.153
99976.433
99975.716
99975.005
99974.305
99973.619
99972.953
99972.31
99971.697
99971.117
99970.575
99970.075
99969.621
99969.216
99968.865
99968.568
99968.329
99968.149
99968.028
99967.967
99967.966
99968.023
99968.137
99968.306
99968.528
99968.8
99969.118
99989.221
99988.893
99988.546
99988.177
99987.788
99987.377
99986.943
99986.487
99986.008
99985.505
99984.979
99984.429
99983.856
99983.261
99982.643
99982.005
99981.346
99980.67
99979.978
99979.272
99978.555
99977.83
99977.1
99976.369
99975.641
99974.92
99974.211
99973.518
99972.846
99972.201
99971.587
99971.009
99970.471
99969.978
99969.533
99969.141
99968.805
99968.526
99968.307
99968.149
99968.053
99968.018
99968.045
99968.13
99968.274
99968.473
99968.725
99969.026
99969.372
99989.372
99989.042
99988.691
99988.319
99987.926
99987.51
99987.07
99986.608
99986.121
99985.61
99985.075
99984.516
99983.933
99983.326
99982.697
99982.046
99981.375
99980.685
99979.979
99979.26
99978.529
99977.79
99977.047
99976.304
99975.564
99974.833
99974.115
99973.415
99972.738
99972.09
99971.475
99970.899
99970.366
99969.881
99969.447
99969.069
99968.749
99968.489
99968.292
99968.158
99968.088
99968.082
99968.137
99968.253
99968.428
99968.658
99968.941
99969.273
99969.649
99989.532
99989.199
99988.845
99988.469
99988.071
99987.65
99987.205
99986.735
99986.241
99985.722
99985.178
99984.609
99984.015
99983.396
99982.755
99982.091
99981.406
99980.703
99979.983
99979.249
99978.504
99977.751
99976.994
99976.238
99975.486
99974.744
99974.017
99973.31
99972.628
99971.977
99971.362
99970.788
99970.26
99969.783
99969.361
99968.998
99968.695
99968.457
99968.283
99968.175
99968.133
99968.157
99968.243
99968.392
99968.599
99968.862
99969.178
99969.541
99969.949
99989.7
99989.364
99989.007
99988.627
99988.225
99987.798
99987.347
99986.871
99986.369
99985.841
99985.287
99984.708
99984.103
99983.472
99982.818
99982.14
99981.442
99980.724
99979.989
99979.24
99978.479
99977.711
99976.94
99976.17
99975.406
99974.653
99973.916
99973.201
99972.514
99971.86
99971.244
99970.673
99970.152
99969.684
99969.275
99968.927
99968.645
99968.428
99968.28
99968.2
99968.188
99968.243
99968.364
99968.546
99968.788
99969.086
99969.436
99969.833
99970.273
99989.877
99989.539
99989.178
99988.794
99988.387
99987.955
99987.498
99987.014
99986.504
99985.968
99985.404
99984.814
99984.197
99983.554
99982.886
99982.195
99981.481
99980.748
99979.997
99979.232
99978.456
99977.672
99976.886
99976.102
99975.324
99974.559
99973.811
99973.088
99972.395
99971.738
99971.123
99970.555
99970.04
99969.583
99969.187
99968.857
99968.595
99968.403
99968.282
99968.232
99968.253
99968.342
99968.497
99968.717
99968.995
99969.33
99969.715
99970.148
99970.621
99990.065
99989.724
99989.359
99988.972
99988.559
99988.121
99987.657
99987.167
99986.649
99986.103
99985.529
99984.927
99984.298
99983.642
99982.961
99982.254
99981.526
99980.776
99980.009
99979.227
99978.434
99977.633
99976.831
99976.031
99975.239
99974.46
99973.702
99972.97
99972.271
99971.61
99970.995
99970.431
99969.923
99969.476
99969.096
99968.785
99968.545
99968.38
99968.288
99968.27
99968.325
99968.451
99968.645
99968.903
99969.221
99969.594
99970.017
99970.486
99970.994
99990.263
99989.919
99989.551
99989.159
99988.742
99988.298
99987.827
99987.329
99986.802
99986.247
99985.663
99985.049
99984.408
99983.738
99983.042
99982.32
99981.575
99980.808
99980.023
99979.223
99978.412
99977.594
99976.774
99975.957
99975.149
99974.357
99973.587
99972.845
99972.139
99971.475
99970.859
99970.298
99969.798
99969.364
99968.999
99968.709
99968.494
99968.356
99968.296
99968.314
99968.406
99968.571
99968.806
99969.105
99969.464
99969.878
99970.341
99970.848
99971.393
99990.474
99990.126
99989.755
99989.358
99988.936
99988.486
99988.008
99987.502
99986.967
99986.401
99985.806
99985.181
99984.526
99983.842
99983.13
99982.392
99981.629
99980.845
99980.041
99979.222
99978.391
99977.554
99976.714
99975.88
99975.055
99974.247
99973.464
99972.711
99971.997
99971.329
99970.713
99970.156
99969.664
99969.242
99968.895
99968.626
99968.438
99968.331
99968.306
99968.361
99968.494
99968.701
99968.979
99969.322
99969.725
99970.183
99970.688
99971.236
99971.819
99990.697
99990.346
99989.971
99989.57
99989.142
99988.686
99988.202
99987.687
99987.143
99986.567
99985.96
99985.322
99984.654
99983.955
99983.227
99982.471
99981.69
99980.886
99980.062
99979.222
99978.371
99977.512
99976.652
99975.798
99974.954
99974.13
99973.331
99972.567
99971.844
99971.17
99970.553
99969.999
99969.516
99969.108
99968.78
99968.535
99968.375
99968.302
99968.314
99968.409
99968.586
99968.839
99969.164
99969.554
99970.005
99970.508
99971.058
99971.648
99972.271
99990.933
99990.58
99990.201
99989.795
99989.362
99988.9
99988.408
99987.885
99987.331
99986.745
99986.127
99985.476
99984.793
99984.078
99983.333
99982.559
99981.758
99980.933
99980.088
99979.226
99978.351
99977.469
99976.587
99975.71
99974.846
99974.002
99973.187
99972.408
99971.674
99970.994
99970.375
99969.825
99969.351
99968.957
99968.649
99968.43
99968.302
99968.264
99968.317
99968.457
99968.681
99968.983
99969.359
99969.8
99970.301
99970.854
99971.452
99972.086
99972.751
99991.185
99990.828
99990.445
99990.035
99989.597
99989.128
99988.629
99988.098
99987.535
99986.938
99986.307
99985.642
99984.944
99984.213
99983.449
99982.656
99981.834
99980.987
99980.118
99979.231
99978.332
99977.425
99976.517
99975.615
99974.727
99973.862
99973.027
99972.232
99971.486
99970.798
99970.176
99969.629
99969.163
99968.785
99968.498
99968.307
99968.213
99968.215
99968.312
99968.501
99968.776
99969.132
99969.563
99970.059
99970.615
99971.22
99971.868
99972.55
99973.259
99991.453
99991.093
99990.706
99990.291
99989.848
99989.373
99988.867
99988.327
99987.754
99987.146
99986.502
99985.823
99985.109
99984.361
99983.578
99982.764
99981.92
99981.049
99980.154
99979.241
99978.313
99977.378
99976.442
99975.512
99974.598
99973.707
99972.85
99972.035
99971.274
99970.576
99969.95
99969.404
99968.947
99968.584
99968.321
99968.16
99968.103
99968.149
99968.294
99968.536
99968.868
99969.283
99969.773
99970.33
99970.944
99971.606
99972.308
99973.04
99973.796
99991.738
99991.375
99990.985
99990.566
99990.117
99989.636
99989.122
99988.574
99987.991
99987.371
99986.715
99986.022
99985.291
99984.524
99983.722
99982.885
99982.017
99981.119
99980.197
99979.254
99978.296
99977.329
99976.361
99975.4
99974.454
99973.534
99972.65
99971.813
99971.034
99970.322
99969.689
99969.144
99968.696
99968.349
99968.111
99967.983
99967.966
99968.06
99968.259
99968.56
99968.954
99969.434
99969.989
99970.611
99971.288
99972.012
99972.771
99973.558
99974.362
99992.042
99991.676
99991.283
99990.86
99990.405
99989.919
99989.398
99988.841
99988.248
99987.617
99986.948
99986.239
99985.492
99984.705
99983.881
99983.021
99982.126
99981.201
99980.248
99979.272
99978.28
99977.278
99976.273
99975.275
99974.294
99973.34
99972.425
99971.56
99970.757
99970.029
99969.387
99968.841
99968.399
99968.07
99967.858
99967.767
99967.795
99967.941
99968.2
99968.566
99969.03
99969.581
99970.209
99970.902
99971.649
99972.438
99973.26
99974.103
99974.961
99992.366
99991.999
99991.602
99991.175
99990.716
99990.224
99989.696
99989.131
99988.528
99987.886
99987.203
99986.479
99985.714
99984.907
99984.06
99983.174
99982.252
99981.295
99980.308
99979.296
99978.266
99977.223
99976.177
99975.137
99974.114
99973.119
99972.166
99971.268
99970.437
99969.688
99969.032
99968.482
99968.048
99967.736
99967.553
99967.501
99967.579
99967.785
99968.112
99968.551
99969.092
99969.722
99970.43
99971.202
99972.025
99972.886
99973.775
99974.68
99975.593
99992.714
99992.344
99991.945
99991.515
99991.052
99990.554
99990.02
99989.447
99988.835
99988.181
99987.484
99986.744
99985.961
99985.133
99984.262
99983.349
99982.395
99981.405
99980.381
99979.328
99978.254
99977.165
99976.071
99974.982
99973.909
99972.867
99971.868
99970.928
99970.063
99969.286
99968.613
99968.056
99967.626
99967.333
99967.182
99967.174
99967.309
99967.582
99967.985
99968.507
99969.136
99969.856
99970.653
99971.512
99972.418
99973.358
99974.319
99975.291
99993.086
99992.715
99992.314
99991.881
99991.415
99990.913
99990.372
99989.792
99989.171
99988.505
99987.796
99987.04
99986.237
99985.388
99984.491
99983.549
99982.562
99981.534
99980.469
99979.371
99978.247
99977.105
99975.955
99974.808
99973.677
99972.576
99971.522
99970.532
99969.622
99968.81
99968.113
99967.544
99967.119
99966.844
99966.728
99966.771
99966.971
99967.322
99967.812
99968.43
99969.158
99969.979
99970.877
99971.832
99972.831
99973.856
99974.896
99993.486
99993.115
99992.713
99992.278
99991.809
99991.303
99990.757
99990.171
99989.541
99988.865
99988.142
99987.37
99986.549
99985.676
99984.753
99983.779
99982.757
99981.688
99980.576
99979.427
99978.246
99977.043
99975.828
99974.612
99973.411
99972.241
99971.119
99970.066
99969.1
99968.243
99967.513
99966.928
99966.504
99966.249
99966.172
99966.274
99966.549
99966.99
99967.583
99968.311
99969.154
99970.091
99971.102
99972.166
99973.265
99974.384
99993.916
99993.545
99993.143
99992.708
99992.237
99991.729
99991.18
99990.588
99989.95
99989.265
99988.53
99987.742
99986.902
99986.006
99985.055
99984.048
99982.987
99981.873
99980.71
99979.503
99978.258
99976.983
99975.691
99974.394
99973.109
99971.853
99970.648
99969.515
99968.479
99967.563
99966.79
99966.182
99965.755
99965.522
99965.49
99965.66
99966.025
99966.573
99967.287
99968.144
99969.121
99970.191
99971.33
99972.516
99973.727
99974.947
99994.379
99994.01
99993.61
99993.175
99992.705
99992.195
99991.644
99991.048
99990.405
99989.711
99988.965
99988.163
99987.304
99986.385
99985.405
99984.364
99983.261
99982.098
99980.878
99979.606
99978.286
99976.929
99975.547
99974.153
99972.765
99971.404
99970.095
99968.863
99967.736
99966.744
99965.915
99965.273
99964.839
99964.63
99964.651
99964.903
99965.377
99966.054
99966.913
99967.924
99969.057
99970.282
99971.568
99972.89
99974.225
99975.554
99994.879
99994.513
99994.116
99993.684
99993.215
99992.707
99992.155
99991.557
99990.91
99990.211
99989.455
99988.64
99987.764
99986.822
99985.814
99984.737
99983.59
99982.375
99981.092
99979.745
99978.341
99976.888
99975.399
99973.888
99972.376
99970.886
99969.446
99968.087
99966.845
99965.753
99964.848
99964.159
99963.714
99963.531
99963.618
99963.971
99964.578
99965.415
99966.45
99967.647
99968.966
99970.371
99971.826
99973.3
99974.771
99976.219
99995.417
99995.057
99994.664
99994.237
99993.773
99993.268
99992.719
99992.123
99991.475
99990.772
99990.01
99989.185
99988.293
99987.33
99986.294
99985.181
99983.989
99982.717
99981.365
99979.937
99978.436
99976.872
99975.255
99973.604
99971.939
99970.288
99968.684
99967.164
99965.771
99964.549
99963.541
99962.789
99962.326
99962.174
99962.342
99962.825
99963.601
99964.638
99965.891
99967.314
99968.856
99970.471
99972.119
99973.764
99975.383
99976.956
99995.998
99995.644
99995.259
99994.84
99994.383
99993.885
99993.342
99992.75
99992.105
99991.403
99990.638
99989.807
99988.903
99987.923
99986.861
99985.713
99984.475
99983.144
99981.719
99980.2
99978.59
99976.896
99975.131
99973.31
99971.459
99969.606
99967.793
99966.064
99964.474
99963.077
99961.933
99961.094
99960.603
99960.491
99960.766
99961.417
99962.413
99963.705
99965.234
99966.935
99968.745
99970.607
99972.474
99974.308
99976.085
99977.789
99996.621
99996.278
99995.903
99995.495
99995.049
99994.561
99994.029
99993.447
99992.81
99992.114
99991.352
99990.52
99989.61
99988.617
99987.535
99986.355
99985.073
99983.683
99982.18
99980.563
99978.832
99976.99
99975.05
99973.026
99970.944
99968.84
99966.759
99964.758
99962.905
99961.274
99959.942
99958.983
99958.455
99958.396
99958.817
99959.696
99960.984
99962.61
99964.489
99966.536
99968.669
99970.819
99972.932
99974.972
99976.914
99978.747
99997.289
99996.959
99996.599
99996.205
99995.775
99995.303
99994.787
99994.22
99993.598
99992.915
99992.164
99991.338
99990.431
99989.434
99988.337
99987.134
99985.813
99984.367
99982.787
99981.067
99979.203
99977.196
99975.052
99972.785
99970.422
99968
99965.574
99963.215
99961.009
99959.058
99957.467
99956.34
99955.761
99955.781
99956.409
99957.606
99959.293
99961.362
99963.693
99966.17
99968.689
99971.17
99973.555
99975.809
99977.915
99979.871
99998.002
99997.69
99997.348
99996.975
99996.565
99996.116
99995.623
99995.079
99994.48
99993.819
99993.088
99992.28
99991.387
99990.396
99989.299
99988.083
99986.735
99985.242
99983.591
99981.77
99979.768
99977.58
99975.205
99972.653
99969.947
99967.127
99964.255
99961.419
99958.732
99956.334
99954.377
99953.013
99952.367
99952.511
99953.447
99955.102
99957.345
99960.012
99962.928
99965.938
99968.913
99971.763
99974.434
99976.899
99979.155
99998.765
99998.475
99998.158
99997.81
99997.429
99997.009