/*--------------------------------*- C++ -*----------------------------------*\
| =========                 |                                                 |
| \\      /  F ield         | OpenFOAM: The Open Source CFD Toolbox           |
|  \\    /   O peration     | Version:  2312                                  |
|   \\  /    A nd           | Website:  www.openfoam.com                      |
|    \\/     M anipulation  |                                                 |
\*---------------------------------------------------------------------------*/
FoamFile
{
    version     2.0;
    format      ascii;
    arch        "LSB;label=32;scalar=64";
    class       surfaceScalarField;
    location    "0.07";
    object      phi;
}
// * * * * * * * * * * * * * * * * * * * * * * * * * * * * * * * * * * * * * //

dimensions      [1 0 -1 0 0 0 0];

oriented        oriented;

internalField   nonuniform List<scalar> 
6378
(
9.4963161e-08
1.4092209e-09
9.3267048e-08
1.4138424e-09
9.1574572e-08
1.4182895e-09
8.9886262e-08
1.422229e-09
8.82025e-08
1.4257988e-09
8.6523646e-08
1.4291145e-09
8.485007e-08
1.4321952e-09
8.3182153e-08
1.4350695e-09
8.1520277e-08
1.437724e-09
7.9864826e-08
1.440178e-09
7.8216181e-08
1.4424215e-09
7.6574723e-08
1.4444737e-09
7.4940828e-08
1.4463267e-09
7.3314867e-08
1.4479984e-09
7.1697206e-08
1.4494802e-09
7.0088205e-08
1.4507867e-09
6.8488215e-08
1.4519062e-09
6.6897581e-08
1.452849e-09
6.5316636e-08
1.4535986e-09
6.3745708e-08
1.4541601e-09
6.2185109e-08
1.454511e-09
6.0635148e-08
1.4546499e-09
5.9096117e-08
1.4545476e-09
5.7568301e-08
1.4541957e-09
5.6051971e-08
1.4535577e-09
5.4547387e-08
1.4526183e-09
5.3054797e-08
1.4513336e-09
5.1574434e-08
1.4496816e-09
5.0106516e-08
1.4476126e-09
4.8651248e-08
1.4450984e-09
4.7208818e-08
1.442085e-09
4.5779401e-08
1.4385392e-09
4.4363158e-08
1.4344047e-09
4.2960234e-08
1.4296442e-09
4.1570767e-08
1.424201e-09
4.0194885e-08
1.4180345e-09
3.8832713e-08
1.4110892e-09
3.7484375e-08
1.4033222e-09
3.6149995e-08
1.3946812e-09
3.48297e-08
1.3851238e-09
3.3523624e-08
1.374606e-09
3.2231896e-08
1.3630941e-09
3.0954647e-08
1.3505642e-09
2.9691997e-08
1.3370075e-09
2.8444058e-08
1.3224414e-09
2.7210922e-08
1.3069126e-09
2.5992669e-08
1.2905204e-09
2.4789395e-08
1.2733771e-09
2.3601251e-08
1.2554864e-09
2.2428422e-08
1.2371551e-09
2.1271201e-08
1.2181133e-09
2.0129913e-08
1.1976712e-09
1.9003674e-08
1.1742723e-09
1.7892569e-08
1.1498565e-09
1.6797159e-08
1.1248651e-09
1.5717721e-08
1.0989036e-09
1.4654546e-08
1.0718604e-09
1.0443234e-09
9.4957994e-08
2.7481481e-09
9.3262091e-08
2.7459184e-09
9.1569793e-08
2.7433191e-09
8.9881671e-08
2.7400016e-09
8.8198104e-08
2.7360991e-09
8.6519445e-08
2.7317427e-09
8.4846059e-08
2.7269624e-09
8.3178328e-08
2.721794e-09
8.1516631e-08
2.7162432e-09
7.9861353e-08
2.710342e-09
7.8212876e-08
2.7040993e-09
7.657158e-08
2.6975458e-09
7.4937842e-08
2.6906926e-09
7.3312033e-08
2.6835682e-09
7.1694519e-08
2.6761825e-09
7.0085661e-08
2.6685596e-09
6.8485808e-08
2.660705e-09
6.6895307e-08
2.6526369e-09
6.5314489e-08
2.6443539e-09
6.3743682e-08
2.6358665e-09
6.21832e-08
2.6271643e-09
6.0633349e-08
2.6182483e-09
5.9094422e-08
2.6090973e-09
5.7566705e-08
2.5997014e-09
5.6050466e-08
2.5900272e-09
5.4545968e-08
2.5800527e-09
5.3053455e-08
2.5697321e-09
5.1573162e-08
2.5590311e-09
5.0105307e-08
2.5478919e-09
4.8650095e-08
2.5362689e-09
4.7207714e-08
2.5240941e-09
4.5778339e-08
2.5113125e-09
4.4362129e-08
2.4978486e-09
4.2959234e-08
2.4836403e-09
4.1569788e-08
2.4686082e-09
4.0193923e-08
2.4526856e-09
3.8831763e-08
2.4357928e-09
3.7483431e-08
2.4178614e-09
3.6149055e-08
2.3988151e-09
3.4828762e-08
2.3785883e-09
3.3522687e-08
2.3571141e-09
3.2230964e-08
2.3343381e-09
3.0953726e-08
2.310215e-09
2.9691099e-08
2.2847167e-09
2.8443196e-08
2.2578388e-09
2.7210121e-08
2.2296065e-09
2.5991961e-08
2.2000987e-09
2.4788807e-08
2.1693942e-09
2.3600794e-08
2.1374476e-09
2.2428087e-08
2.1045507e-09
2.127089e-08
2.0704371e-09
2.0129468e-08
2.0346804e-09
1.9003261e-08
1.9961098e-09
1.7892285e-08
1.9558975e-09
1.6796992e-08
1.9145983e-09
1.5717678e-08
1.8719597e-09
1.4654742e-08
1.827949e-09
1.7832683e-09
9.494486e-08
4.0856185e-09
9.3249375e-08
4.0765007e-09
9.1557464e-08
4.0667893e-09
8.9869734e-08
4.0561777e-09
8.8186554e-08
4.0447842e-09
8.6508276e-08
4.0327387e-09
8.4835259e-08
4.0200835e-09
8.3167887e-08
4.0068552e-09
8.1506539e-08
3.9930855e-09
7.9851603e-08
3.9788126e-09
7.8203457e-08
3.9640707e-09
7.6562486e-08
3.9488962e-09
7.4929064e-08
3.9333244e-09
7.3303566e-08
3.9173892e-09
7.1686354e-08
3.9011236e-09
7.0077792e-08
3.8845564e-09
6.8478229e-08
3.8677148e-09
6.6888011e-08
3.8506201e-09
6.530747e-08
3.8332903e-09
6.3736935e-08
3.8157368e-09
6.2176716e-08
3.7979656e-09
6.0627123e-08
3.7799754e-09
5.9088447e-08
3.7617575e-09
5.7560974e-08
3.7432954e-09
5.6044972e-08
3.7245637e-09
5.4540704e-08
3.7055288e-09
5.3048413e-08
3.6861473e-09
5.1568336e-08
3.6663681e-09
5.0100687e-08
3.6461298e-09
4.8645675e-08
3.6253648e-09
4.7203485e-08
3.6039957e-09
4.5774296e-08
3.5819412e-09
4.4358264e-08
3.5591112e-09
4.2955541e-08
3.5354147e-09
4.1566263e-08
3.5107537e-09
4.0190562e-08
3.4850323e-09
3.8828562e-08
3.4581498e-09
3.748039e-08
3.4300102e-09
3.6146174e-08
3.4005157e-09
3.4826044e-08
3.3695763e-09
3.3520137e-08
3.3371042e-09
3.2228589e-08
3.3030242e-09
3.0951539e-08
3.26727e-09
2.9689116e-08
3.2297953e-09
2.844144e-08
3.1905731e-09
2.7208615e-08
3.1496128e-09
2.5990737e-08
3.1069638e-09
2.4787912e-08
3.0626673e-09
2.3600235e-08
3.0166777e-09
2.2427861e-08
2.969234e-09
2.1270955e-08
2.920086e-09
2.0129708e-08
2.8689715e-09
1.9003783e-08
2.8150628e-09
1.7893192e-08
2.7590656e-09
1.6798293e-08
2.7015011e-09
1.5719396e-08
2.6422998e-09
1.4657006e-08
2.5816152e-09
2.5202318e-09
9.4922373e-08
5.4220458e-09
9.3227499e-08
5.4060504e-09
9.1536162e-08
5.3892165e-09
8.9849006e-08
5.3712989e-09
8.8166397e-08
5.3524108e-09
8.6488681e-08
5.332676e-09
8.4816215e-08
5.3121485e-09
8.3149382e-08
5.2908633e-09
8.148856e-08
5.2688786e-09
7.9834139e-08
5.246238e-09
7.8186498e-08
5.2230011e-09
7.6546024e-08
5.19921e-09
7.4913088e-08
5.1749232e-09
7.3288069e-08
5.1501807e-09
7.1671328e-08
5.1250375e-09
7.0063231e-08
5.0995279e-09
6.8464126e-08
5.0736994e-09
6.6874361e-08
5.0475772e-09
6.5294267e-08
5.0211976e-09
6.3724173e-08
4.9945732e-09
6.2164392e-08
4.9677257e-09
6.0615232e-08
4.9406514e-09
5.9076985e-08
4.9133539e-09
5.7549936e-08
4.8858097e-09
5.6034354e-08
4.8580012e-09
5.4530502e-08
4.8298829e-09
5.3038623e-08
4.8014137e-09
5.1558954e-08
4.7725253e-09
5.009171e-08
4.7431528e-09
4.8637099e-08
4.7132061e-09
4.7195307e-08
4.6825988e-09
4.5766514e-08
4.6512227e-09
4.4350877e-08
4.6189738e-09
4.2948549e-08
4.5857316e-09
4.1559667e-08
4.5513806e-09
4.0184364e-08
4.5157949e-09
3.8822768e-08
4.4788544e-09
3.7475006e-08
4.4404352e-09
3.6141206e-08
4.4004196e-09
3.4821504e-08
4.3586928e-09
3.3516036e-08
4.3151481e-09
3.2224943e-08
4.2696892e-09
3.0948365e-08
4.2222308e-09
2.9686435e-08
4.1727083e-09
2.8439278e-08
4.1210744e-09
2.7207003e-08
4.0673198e-09
2.5989712e-08
4.0114641e-09
2.4787506e-08
3.9535236e-09
2.3600467e-08
3.8934552e-09
2.2428743e-08
3.8314325e-09
2.1272455e-08
3.7672519e-09
2.0131751e-08
3.7007386e-09
1.9006443e-08
3.6313369e-09
1.7896563e-08
3.5594904e-09
1.6802407e-08
3.4856613e-09
1.5724305e-08
3.4099789e-09
1.4662793e-08
3.3329888e-09
9.488762e-08
6.7576597e-09
9.3193542e-08
6.7347958e-09
9.150298e-08
6.7108412e-09
8.9816593e-08
6.6856281e-09
8.8134742e-08
6.6592623e-09
8.645777e-08
6.6318562e-09
8.4786036e-08
6.6034711e-09
8.3119921e-08
6.5741467e-09
8.1459807e-08
6.543963e-09
7.9806083e-08
6.5129724e-09
7.815913e-08
6.4812562e-09
7.6519334e-08
6.4488653e-09
7.4887071e-08
6.4158783e-09
7.3262717e-08
6.3823438e-09
7.1646638e-08
6.3483355e-09
7.0039197e-08
6.3138956e-09
6.8440746e-08
6.2790887e-09
6.6851632e-08
6.2439464e-09
6.5272189e-08
6.2085198e-09
6.3702746e-08
6.1728254e-09
6.2143617e-08
6.1368968e-09
6.0595112e-08
6.100731e-09
5.9057523e-08
6.0643395e-09
5.7531138e-08
6.0276955e-09
5.6016226e-08
5.9907847e-09
5.451305e-08
5.9535533e-09
5.3021856e-08
5.9159582e-09
5.1542881e-08
5.8779174e-09
5.0076341e-08
5.8393587e-09
4.8622446e-08
5.8001729e-09
4.7181385e-08
5.7602608e-09
4.5753335e-08
5.719491e-09
4.4338459e-08
5.6777423e-09
4.293691e-08
5.6348683e-09
4.1548826e-08
5.5907335e-09
4.0174342e-08
5.5451855e-09
3.8813587e-08
5.4980832e-09
3.7466688e-08
5.4492778e-09
3.6133776e-08
5.3986312e-09
3.4814984e-08
5.3460069e-09
3.351045e-08
5.2912789e-09
3.2220314e-08
5.234332e-09
3.0944717e-08
5.1750624e-09
2.9683795e-08
5.1133878e-09
2.8437673e-08
5.049242e-09
2.7206462e-08
4.9825969e-09
2.599027e-08
4.913442e-09
2.4789192e-08
4.8417731e-09
2.3603299e-08
4.7675591e-09
2.2432719e-08
4.690907e-09
2.1277556e-08
4.6116567e-09
2.0137924e-08
4.5296935e-09
1.9013736e-08
4.444665e-09
1.7905046e-08
4.356886e-09
1.6812123e-08
4.2667826e-09
1.573533e-08
4.1746956e-09
4.0816809e-09
8.3977051e-08
7.9395776e-09
8.2477921e-08
7.910651e-09
8.0981882e-08
7.8804127e-09
7.9489528e-08
7.8487635e-09
7.8001191e-08
7.8157889e-09
7.6517176e-08
7.7816005e-09
7.5037801e-08
7.7462667e-09
7.3563398e-08
7.7098418e-09
7.2094304e-08
7.6724164e-09
7.0630858e-08
7.634056e-09
6.9173405e-08
7.5948519e-09
6.7722283e-08
7.5548692e-09
6.6277829e-08
7.5141967e-09
6.4840375e-08
7.4728975e-09
6.341025e-08
7.4310547e-09
6.1987772e-08
7.3887241e-09
6.0573257e-08
7.3459781e-09
5.9167012e-08
7.3028602e-09
5.7769336e-08
7.2594275e-09
5.6380518e-08
7.2157061e-09
5.5000842e-08
7.171733e-09
5.3630579e-08
7.1275114e-09
5.2269993e-08
7.0830534e-09
5.0919336e-08
7.0383346e-09
4.9578852e-08
6.9933372e-09
4.8248773e-08
6.9480054e-09
4.6929319e-08
6.9022885e-09
4.5620699e-08
6.8560973e-09
4.4323109e-08
6.8093476e-09
4.3036734e-08
6.7619181e-09
4.1761743e-08
6.713694e-09
4.0498294e-08
6.6645272e-09
3.9246533e-08
6.6142782e-09
3.8006596e-08
6.5627811e-09
3.6778607e-08
6.5098808e-09
3.5562685e-08
6.4554043e-09
3.4358943e-08
6.3991919e-09
3.3167496e-08
6.3410744e-09
3.1988455e-08
6.2808971e-09
3.0821939e-08
6.218505e-09
2.9668067e-08
6.1537574e-09
2.8526962e-08
6.0865218e-09
2.7398746e-08
6.0166813e-09
2.628354e-08
5.9441361e-09
2.5181453e-08
5.8688062e-09
2.4092588e-08
5.7906431e-09
2.3017035e-08
5.7096184e-09
2.1954872e-08
5.6257111e-09
2.0906162e-08
5.5388929e-09
1.9870999e-08
5.4492275e-09
1.8849455e-08
5.3565919e-09
1.7841618e-08
5.2609045e-09
1.6847474e-08
5.1619438e-09
1.5867096e-08
5.0599914e-09
1.4900717e-08
4.9554872e-09
1.394873e-08
4.8489358e-09
4.7416243e-09
8.6256988e-08
9.1531896e-09
8.4717677e-08
9.1180416e-09
8.3181541e-08
9.0813576e-09
8.1649194e-08
9.0431081e-09
8.0120977e-08
9.0033593e-09
7.8597201e-08
8.9622174e-09
7.7078195e-08
8.9197596e-09
7.5564299e-08
8.8760553e-09
7.4055861e-08
8.8312054e-09
7.2553233e-08
8.7852891e-09
7.1056766e-08
8.7384082e-09
6.9566811e-08
8.6906422e-09
6.8083713e-08
8.6420905e-09
6.6607814e-08
8.5928306e-09
6.513945e-08
8.5429552e-09
6.3678949e-08
8.4925332e-09
6.2226636e-08
8.4416454e-09
6.0782823e-08
8.3903466e-09
5.9347819e-08
8.3387001e-09
5.7921919e-08
8.2867408e-09
5.6505414e-08
8.2345095e-09
5.5098582e-08
8.1820148e-09
5.3701691e-08
8.1292693e-09
5.2315e-08
8.0762502e-09
5.0938757e-08
8.0229362e-09
4.9573198e-08
7.9692682e-09
4.8218548e-08
7.915188e-09
4.687502e-08
7.8605979e-09
4.5542813e-08
7.8054018e-09
4.4222114e-08
7.7494652e-09
4.2913097e-08
7.6926571e-09
4.1615922e-08
7.6348122e-09
4.0330739e-08
7.5757722e-09
3.9057683e-08
7.5153511e-09
3.7796885e-08
7.4533742e-09
3.6548464e-08
7.3896477e-09
3.5312537e-08
7.3239927e-09
3.4089221e-08
7.2562206e-09
3.287863e-08
7.1861597e-09
3.1680887e-08
7.1136371e-09
3.0496112e-08
7.0384977e-09
2.9324435e-08
6.9605928e-09
2.816598e-08
6.8797919e-09
2.7020873e-08
6.795979e-09
2.588923e-08
6.7090605e-09
2.4771155e-08
6.6189688e-09
2.3666744e-08
6.5256573e-09
2.2576077e-08
6.4290909e-09
2.1499215e-08
6.3292445e-09
2.0436241e-08
6.2261471e-09
1.9387227e-08
6.1197038e-09
1.8352254e-08
6.0098622e-09
1.7331354e-08
5.8965095e-09
1.632463e-08
5.7799516e-09
1.5332347e-08
5.6606833e-09
1.435497e-08
5.5394274e-09
5.4175409e-09
8.8592513e-08
1.0398888e-08
8.7012441e-08
1.0357364e-08
8.5435629e-08
1.0314077e-08
8.3862726e-08
1.0269051e-08
8.2294081e-08
1.0222348e-08
8.0730015e-08
1.0174069e-08
7.9170863e-08
1.0124302e-08
7.7616975e-08
1.0073128e-08
7.6068711e-08
1.0020661e-08
7.4526432e-08
9.9669925e-09
7.29905e-08
9.9122368e-09
7.1461272e-08
9.8564875e-09
6.9939106e-08
9.7998553e-09
6.8424349e-08
9.7424313e-09
6.6917347e-08
9.6843189e-09
6.5418436e-08
9.6255998e-09
6.3927945e-08
9.5663636e-09
6.2446195e-08
9.5066759e-09
6.0973498e-08
9.4466069e-09
5.9510157e-08
9.3861997e-09
5.8056465e-08
9.3254988e-09
5.6612704e-08
9.2645181e-09
5.5179146e-08
9.2032704e-09
5.3756052e-08
9.1417337e-09
5.2343671e-08
9.079883e-09
5.0942242e-08
9.0176557e-09
4.9551989e-08
8.9549846e-09
4.8173125e-08
8.8917638e-09
4.6805852e-08
8.8278836e-09
4.5450354e-08
8.7631965e-09
4.4106806e-08
8.6975536e-09
4.2775368e-08
8.6307728e-09
4.1456189e-08
8.5626748e-09
4.0149407e-08
8.4930545e-09
3.8855149e-08
8.421715e-09
3.757354e-08
8.3484429e-09
3.6304697e-08
8.273038e-09
3.5048739e-08
8.1952932e-09
3.3805785e-08
8.1150181e-09
3.257596e-08
8.0320234e-09
3.1359393e-08
7.9461379e-09
3.0156214e-08
7.8571985e-09
2.8966558e-08
7.7650602e-09
2.7790555e-08
7.6695932e-09
2.6628328e-08
7.5706887e-09
2.5479989e-08
7.4682629e-09
2.4345638e-08
7.3622524e-09
2.3225358e-08
7.252611e-09
2.2119214e-08
7.1393106e-09
2.1027285e-08
7.0223598e-09
1.9949635e-08
6.9016893e-09
1.8886357e-08
6.7772676e-09
1.7837527e-08
6.6490756e-09
1.6803291e-08
6.5175003e-09
1.5783967e-08
6.3831613e-09
1.4780058e-08
6.2471452e-09
9.0981119e-08
1.1677075e-08
8.9359679e-08
1.1629011e-08
8.77416e-08
1.157895e-08
8.6127554e-08
1.1526968e-08
8.4517912e-08
1.1473119e-08
8.2913e-08
1.1417509e-08
8.1313167e-08
1.1360231e-08
7.9718767e-08
1.1301387e-08
7.8130174e-08
1.1241096e-08
7.6547755e-08
1.117947e-08
7.4971886e-08
1.1116629e-08
7.340293e-08
1.1052688e-08
7.1841255e-08
1.0987762e-08
7.0287215e-08
1.0921963e-08
6.8741165e-08
1.0855399e-08
6.7203443e-08
1.0788171e-08
6.5674389e-08
1.0720371e-08
6.4154326e-08
1.0652082e-08
6.2643573e-08
1.0583375e-08
6.1142432e-08
1.0514307e-08
5.9651203e-08
1.0444922e-08
5.8170167e-08
1.0375242e-08
5.66996e-08
1.0305275e-08
5.5239759e-08
1.0235006e-08
5.3790897e-08
1.0164399e-08
5.2353249e-08
1.0093394e-08
5.092704e-08
1.0021907e-08
4.9512479e-08
9.9498304e-09
4.8109766e-08
9.8770341e-09
4.6719083e-08
9.8033613e-09
4.5340604e-08
9.7286408e-09
4.3974483e-08
9.6526761e-09
4.262087e-08
9.5752634e-09
4.1279898e-08
9.4961799e-09
3.9951697e-08
9.4152043e-09
3.8636387e-08
9.3321036e-09
3.7334089e-08
9.2466553e-09
3.6044921e-08
9.1586331e-09
3.4769007e-08
9.0678278e-09
3.3506473e-08
8.9740322e-09
3.2257453e-08
8.8770604e-09
3.1022085e-08
8.7767328e-09
2.9800509e-08
8.6728928e-09
2.8592862e-08
8.5653939e-09
2.7399273e-08
8.4541172e-09
2.6219865e-08
8.33896e-09
2.5054739e-08
8.2198472e-09
2.3903985e-08
8.0967201e-09
2.2767669e-08
7.9695535e-09
2.1645869e-08
7.8383379e-09
2.0538652e-08
7.7030283e-09
1.9446128e-08
7.5636099e-09
1.8368421e-08
7.4201601e-09
1.7305729e-08
7.2732116e-09
1.6258435e-08
7.1236037e-09
6.9728963e-09
9.3421933e-08
1.2988154e-08
9.1758496e-08
1.2933372e-08
9.0098533e-08
1.2876357e-08
8.8442751e-08
1.281722e-08
8.679153e-08
1.2756024e-08
8.5145207e-08
1.2692876e-08
8.3504139e-08
1.2627879e-08
8.1868692e-08
1.2561152e-08
8.0239247e-08
1.2492822e-08
7.8616186e-08
1.242302e-08
7.699989e-08
1.2351875e-08
7.5390735e-08
1.227952e-08
7.3789094e-08
1.2206079e-08
7.219533e-08
1.2131682e-08
7.0609803e-08
1.2056446e-08
6.903286e-08
1.1980486e-08
6.7464843e-08
1.1903902e-08
6.590608e-08
1.182679e-08
6.4356893e-08
1.1749226e-08
6.2817588e-08
1.1671278e-08
6.1288464e-08
1.1592989e-08
5.9769804e-08
1.1514391e-08
5.8261882e-08
1.1435488e-08
5.6764955e-08
1.1356266e-08
5.5279273e-08
1.1276685e-08
5.3805068e-08
1.1196678e-08
5.2342562e-08
1.1116154e-08
5.089196e-08
1.1034994e-08
4.9453457e-08
1.0953052e-08
4.8027232e-08
1.0870158e-08
4.6613451e-08
1.0786121e-08
4.5212268e-08
1.0700726e-08
4.3823825e-08
1.0613746e-08
4.2448254e-08
1.0524939e-08
4.1085681e-08
1.0434058e-08
3.9736223e-08
1.0340851e-08
3.8400001e-08
1.0245071e-08
3.7077133e-08
1.0146473e-08
3.5767744e-08
1.0044827e-08
3.4471962e-08
9.9399096e-09
3.3189927e-08
9.831517e-09
3.1921779e-08
9.7194555e-09
3.0667666e-08
9.6035545e-09
2.9427731e-08
9.4836545e-09
2.8202112e-08
9.3596234e-09
2.6990935e-08
9.2313448e-09
2.5794311e-08
9.0987312e-09
2.461233e-08
8.9617179e-09
2.344507e-08
8.8202746e-09
2.2292599e-08
8.6743944e-09
2.1154992e-08
8.5240513e-09
2.0032383e-08
8.3692449e-09
1.8924971e-08
8.210147e-09
1.7833018e-08
8.047536e-09
1.6756975e-08
7.8826165e-09
9.5914708e-08
1.433251e-08
9.4208638e-08
1.4270823e-08
9.2506169e-08
1.4206664e-08
9.0808036e-08
1.4140169e-08
8.9114636e-08
1.4071415e-08
8.742632e-08
1.4000511e-08
8.5743447e-08
1.3927576e-08
8.4066402e-08
1.3852741e-08
8.2395569e-08
1.3776149e-08
8.0731344e-08
1.3697941e-08
7.9074114e-08
1.3618266e-08
7.7424269e-08
1.3537264e-08
7.5782185e-08
1.3455081e-08
7.4148236e-08
1.3371853e-08
7.2522785e-08
1.3287716e-08
7.0906189e-08
1.3202792e-08
6.9298789e-08
1.3117197e-08
6.7700921e-08
1.3031033e-08
6.6112906e-08
1.2944387e-08
6.4535053e-08
1.285733e-08
6.2967659e-08
1.2769916e-08
6.141101e-08
1.2682174e-08
5.9865372e-08
1.2594113e-08
5.8331006e-08
1.2505715e-08
5.6808153e-08
1.2416936e-08
5.5297043e-08
1.2327704e-08
5.3797891e-08
1.2237916e-08
5.2310898e-08
1.2147443e-08
5.0836251e-08
1.2056124e-08
4.9374123e-08
1.1963773e-08
4.7924675e-08
1.1870178e-08
4.6488052e-08
1.1775105e-08
4.5064393e-08
1.1678305e-08
4.3653822e-08
1.1579513e-08
4.2256462e-08
1.1478458e-08
4.0872427e-08
1.1374866e-08
3.9501834e-08
1.1268467e-08
3.81448e-08
1.1158996e-08
3.6801452e-08
1.10462e-08
3.5471919e-08
1.092984e-08
3.4156343e-08
1.0809692e-08
3.2854869e-08
1.0685553e-08
3.156765e-08
1.0557233e-08
3.0294835e-08
1.0424564e-08
2.9036569e-08
1.0287398e-08
2.7792982e-08
1.0145612e-08
2.6564196e-08
9.9991003e-09
2.5350301e-08
9.8478035e-09
2.4151381e-08
9.6916831e-09
2.2967501e-08
9.5307501e-09
2.1798752e-08
9.3649878e-09
2.0645307e-08
9.19442e-09
1.9507458e-08
9.019328e-09
1.8385534e-08
8.8408823e-09
8.6607438e-09
9.845959e-08
1.5710512e-08
9.6710251e-08
1.5641725e-08
9.4964652e-08
1.5570218e-08
9.322356e-08
1.5496154e-08
9.1487385e-08
1.5419622e-08
8.9756488e-08
1.5340739e-08
8.803124e-08
1.5259639e-08
8.6312032e-08
1.5176467e-08
8.4599266e-08
1.5091378e-08
8.2893342e-08
1.5004531e-08
8.1194662e-08
1.4916086e-08
7.9503621e-08
1.4826201e-08
7.7820606e-08
1.4735036e-08
7.6145996e-08
1.464274e-08
7.4480162e-08
1.4549463e-08
7.2823463e-08
1.4455339e-08
7.1176248e-08
1.4360496e-08
6.9538852e-08
1.4265046e-08
6.7911599e-08
1.4169085e-08
6.6294797e-08
1.407269e-08
6.4688745e-08
1.3975919e-08
6.3093722e-08
1.3878805e-08
6.1509997e-08
1.3781358e-08
5.993782e-08
1.3683557e-08
5.8377431e-08
1.3585353e-08
5.6829051e-08
1.3486667e-08
5.529289e-08
1.3387387e-08
5.3769139e-08
1.3287369e-08
5.225798e-08
1.3186438e-08
5.0759575e-08
1.308439e-08
4.9274077e-08
1.2980994e-08
4.7801624e-08
1.2875995e-08
4.6342347e-08
1.2769119e-08
4.4896363e-08
1.2660079e-08
4.3463789e-08
1.2548579e-08
4.2044734e-08
1.2434323e-08
4.0639313e-08
1.2317015e-08
3.924764e-08
1.2196369e-08
3.7869841e-08
1.2072112e-08
3.6506047e-08
1.1943986e-08
3.5156401e-08
1.181175e-08
3.3821054e-08
1.1675184e-08
3.2500162e-08
1.1534087e-08
3.1193879e-08
1.1388278e-08
2.9902356e-08
1.1237599e-08
2.8625732e-08
1.1081912e-08
2.7364129e-08
1.092111e-08
2.6117649e-08
1.0755129e-08
2.4886382e-08
1.0583931e-08
2.3670389e-08
1.0407561e-08
2.2469772e-08
1.0226019e-08
2.1284773e-08
1.0039347e-08
2.011582e-08
9.8479648e-09
1.8963305e-08
9.6536653e-09
1.0105682e-07
1.7122493e-08
9.9263586e-08
1.7046407e-08
9.7474245e-08
1.6967346e-08
9.5689585e-08
1.6885497e-08
9.391004e-08
1.6800962e-08
9.2135978e-08
1.6713871e-08
9.0367783e-08
1.662437e-08
8.8605857e-08
1.6532623e-08
8.685061e-08
1.6438798e-08
8.5102456e-08
1.6343069e-08
8.3361806e-08
1.6245611e-08
8.1629063e-08
1.61466e-08
7.9904624e-08
1.6046206e-08
7.8188874e-08
1.5944599e-08
7.6482191e-08
1.5841937e-08
7.4784936e-08
1.5738371e-08
7.3097464e-08
1.5634038e-08
7.142011e-08
1.5529063e-08
6.97532e-08
1.5423547e-08
6.8097042e-08
1.5317578e-08
6.645193e-08
1.5211216e-08
6.4818142e-08
1.5104499e-08
6.3195941e-08
1.4997433e-08
6.1585573e-08
1.4889998e-08
5.9987268e-08
1.4782139e-08
5.840124e-08
1.4673769e-08
5.6827691e-08
1.4564763e-08
5.5266802e-08
1.4454967e-08
5.3718743e-08
1.4344187e-08
5.2183668e-08
1.4232202e-08
5.066172e-08
1.4118759e-08
4.9153026e-08
1.4003582e-08
4.7657708e-08
1.3886372e-08
4.6175877e-08
1.3766819e-08
4.4707639e-08
1.3644601e-08
4.3253101e-08
1.3519397e-08
4.1812371e-08
1.3390888e-08
4.0385563e-08
1.3258764e-08
3.89728e-08
1.3122731e-08
3.7574214e-08
1.2982512e-08
3.6189951e-08
1.2837848e-08
3.4820165e-08
1.2688505e-08
3.3465015e-08
1.2534267e-08
3.2124663e-08
1.2374944e-08
3.0799263e-08
1.2210365e-08
2.948896e-08
1.2040386e-08
2.8193887e-08
1.1864891e-08
2.691415e-08
1.1683824e-08
2.5649841e-08
1.1497151e-08
2.4401027e-08
1.1304968e-08
2.3167839e-08
1.1107292e-08
2.1950605e-08
1.0904208e-08
2.0749937e-08
1.0696337e-08
1.0486312e-08
1.0370651e-07
1.8568754e-08
1.0186878e-07
1.8485165e-08
1.000351e-07
1.839834e-08
9.8206297e-08
1.8308482e-08
9.6382806e-08
1.8215716e-08
9.4565015e-08
1.8120182e-08
9.2753317e-08
1.8022045e-08
9.0948128e-08
1.792148e-08
8.9149867e-08
1.7818675e-08
8.7358962e-08
1.7713815e-08
8.5575832e-08
1.7607097e-08
8.3800891e-08
1.7498708e-08
8.2034543e-08
1.7388838e-08
8.0277183e-08
1.7277667e-08
7.8529189e-08
1.7165373e-08
7.6790932e-08
1.7052116e-08
7.5062765e-08
1.6938049e-08
7.3345029e-08
1.6823302e-08
7.1638046e-08
1.6707992e-08
6.9942124e-08
1.6592208e-08
6.8257553e-08
1.6476018e-08
6.6584607e-08
1.635946e-08
6.4923541e-08
1.6242543e-08
6.3274596e-08
1.6125241e-08
6.163799e-08
1.6007495e-08
6.0013931e-08
1.5889207e-08
5.8402606e-08
1.5770243e-08
5.6804187e-08
1.5650432e-08
5.5218831e-08
1.5529566e-08
5.3646681e-08
1.5407401e-08
5.2087866e-08
1.5283666e-08
5.0542504e-08
1.5158057e-08
4.9010705e-08
1.5030255e-08
4.749257e-08
1.4899921e-08
4.5988198e-08
1.4766709e-08
4.449769e-08
1.4630272e-08
4.3021148e-08
1.4490265e-08
4.1558683e-08
1.4346357e-08
4.0110416e-08
1.4198229e-08
3.8676482e-08
1.4045585e-08
3.7257028e-08
1.3888149e-08
3.5852211e-08
1.3725672e-08
3.4462195e-08
1.3557925e-08
3.3087145e-08
1.3384707e-08
3.1727224e-08
1.3205839e-08
3.0382583e-08
1.3021166e-08
2.905336e-08
1.2830574e-08
2.7739678e-08
1.2634006e-08
2.6441635e-08
1.2431456e-08
2.5159306e-08
1.2223077e-08
2.3892841e-08
1.2008945e-08
2.2642709e-08
1.1789196e-08
2.1409769e-08
1.1564789e-08
1.0640861e-07
2.0049552e-08
1.0452581e-07
1.9958258e-08
1.0264722e-07
1.9863451e-08
1.0077371e-07
1.9765363e-08
9.8905719e-08
1.9664133e-08
9.7043656e-08
1.955992e-08
9.5187926e-08
1.9452904e-08
9.3338951e-08
1.9343277e-08
9.1497168e-08
1.923124e-08
8.9663012e-08
1.9117002e-08
8.7836917e-08
1.9000768e-08
8.6019302e-08
1.8882749e-08
8.4210583e-08
1.8763146e-08
8.2411158e-08
1.8642161e-08
8.0621415e-08
1.851998e-08
7.8841725e-08
1.8396782e-08
7.7072446e-08
1.8272729e-08
7.5313917e-08
1.8147966e-08
7.3566461e-08
1.8022614e-08
7.183038e-08
1.7896775e-08
7.0105964e-08
1.7770517e-08
6.8393477e-08
1.7643882e-08
6.6693168e-08
1.7516877e-08
6.5005266e-08
1.7389475e-08
6.3329983e-08
1.7261608e-08
6.166751e-08
1.713317e-08
6.0018024e-08
1.7004014e-08
5.8381683e-08
1.6873954e-08
5.675863e-08
1.6742763e-08
5.5148993e-08
1.6610177e-08
5.3552888e-08
1.6475901e-08
5.1970421e-08
1.633961e-08
5.0401687e-08
1.6200955e-08
4.884678e-08
1.6059573e-08
4.7305788e-08
1.591509e-08
4.5778804e-08
1.5767132e-08
4.4265926e-08
1.561533e-08
4.2767261e-08
1.5459326e-08
4.128293e-08
1.5298781e-08
3.9813067e-08
1.5133377e-08
3.8357822e-08
1.4962821e-08
3.6917358e-08
1.4786847e-08
3.549184e-08
1.4605216e-08
3.4081443e-08
1.4417716e-08
3.2686332e-08
1.4224162e-08
3.1306668e-08
1.4024389e-08
2.9942604e-08
1.3818281e-08
2.859427e-08
1.3605795e-08
2.7261786e-08
1.3386954e-08
2.5945231e-08
1.3162001e-08
2.4644801e-08
1.2931101e-08
2.3361123e-08
1.2694525e-08
1.2453725e-08
1.0916276e-07
2.1565098e-08
1.0723435e-07
2.1465893e-08
1.0531033e-07
2.136289e-08
1.0339158e-07
2.1256347e-08
1.0147859e-07
2.1146419e-08
9.9571745e-08
2.1033289e-08
9.7671483e-08
2.0917148e-08
9.5778237e-08
2.0798211e-08
9.3892454e-08
2.0676691e-08
9.2014582e-08
2.0552818e-08
9.0145064e-08
2.0426812e-08
8.8284332e-08
2.0298905e-08
8.6432809e-08
2.0169313e-08
8.4590899e-08
2.0038255e-08
8.2758996e-08
1.9905932e-08
8.0937473e-08
1.977254e-08
7.9126691e-08
1.9638249e-08
7.7326987e-08
1.9503221e-08
7.5538683e-08
1.9367582e-08
7.3762077e-08
1.9231444e-08
7.1997452e-08
1.9094876e-08
7.0245064e-08
1.8957928e-08
6.8505154e-08
1.8820601e-08
6.6777938e-08
1.8682866e-08
6.5063616e-08
1.8544645e-08
6.3362364e-08
1.8405827e-08
6.1674345e-08
1.8266246e-08
5.99997e-08
1.8125704e-08
5.8338557e-08
1.7983951e-08
5.6691027e-08
1.7840705e-08
5.5057213e-08
1.7695644e-08
5.3437202e-08
1.7548419e-08
5.183108e-08
1.7398653e-08
5.0238925e-08
1.7245956e-08
4.8660818e-08
1.7089925e-08
4.7096842e-08
1.6930159e-08
4.5547091e-08
1.6766262e-08
4.4011668e-08
1.6597851e-08
4.2490693e-08
1.6424563e-08
4.0984302e-08
1.6246058e-08
3.9492648e-08
1.6062029e-08
3.8015897e-08
1.5872191e-08
3.6554223e-08
1.5676297e-08
3.5107803e-08
1.5474123e-08
3.3676811e-08
1.5265479e-08
3.2261416e-08
1.5050194e-08
3.0861784e-08
1.4828148e-08
2.9478087e-08
1.4599299e-08
2.8110439e-08
1.4363754e-08
2.675897e-08
1.4121826e-08
2.5423911e-08
1.3873858e-08
2.4106072e-08
1.3620396e-08
1.1196839e-07
2.3115551e-08
1.0999386e-07
2.3008233e-08
1.0802392e-07
2.2896819e-08
1.0605945e-07
2.2781591e-08
1.0410096e-07
2.2662734e-08
1.0214888e-07
2.2540443e-08
1.0020363e-07
2.2414932e-08
9.8265664e-08
2.2286431e-08
9.6335444e-08
2.2155175e-08
9.441343e-08
2.2021409e-08
9.2500075e-08
2.1885374e-08
9.0595824e-08
2.1747318e-08
8.8701103e-08
2.1607477e-08
8.6816328e-08
2.1466086e-08
8.4941893e-08
2.1323364e-08
8.3078178e-08
2.1179519e-08
8.1225539e-08
2.103474e-08
7.9384318e-08
2.0889195e-08
7.7554828e-08
2.0743023e-08
7.5737366e-08
2.0596342e-08
7.3932203e-08
2.0449228e-08
7.213959e-08
2.0301728e-08
7.0359751e-08
2.0153846e-08
6.8592893e-08
2.0005546e-08
6.6839197e-08
1.9856744e-08
6.5098827e-08
1.9707315e-08
6.3371925e-08
1.9557083e-08
6.1658616e-08
1.9405828e-08
5.9959008e-08
1.9253282e-08
5.8273197e-08
1.9099139e-08
5.6601263e-08
1.8943052e-08
5.4943282e-08
1.8784645e-08
5.3299321e-08
1.8623513e-08
5.1669447e-08
1.8459236e-08
5.0053729e-08
1.8291383e-08
4.8452243e-08
1.8119523e-08
4.6865076e-08
1.7943231e-08
4.5292328e-08
1.77621e-08
4.373412e-08
1.7575742e-08
4.2190589e-08
1.7383797e-08
4.0661892e-08
1.7185936e-08
3.9148199e-08
1.6981865e-08
3.7649694e-08
1.6771323e-08
3.6166558e-08
1.655408e-08
3.4698971e-08
1.6329941e-08
3.3247119e-08
1.6098721e-08
3.1811188e-08
1.5860303e-08
3.0391368e-08
1.5614663e-08
2.8987865e-08
1.5361938e-08
2.7600794e-08
1.5102646e-08
2.6230462e-08
1.4837307e-08
1.4566836e-08
1.1482458e-07
2.4701011e-08
1.1280349e-07
2.4585385e-08
1.1078717e-07
2.4465342e-08
1.0877656e-07
2.4341203e-08
1.0677216e-07
2.4213179e-08
1.0477441e-07
2.4081486e-08
1.0278376e-07
2.3946357e-08
1.0080068e-07
2.380804e-08
9.882563e-08
2.366679e-08
9.6859095e-08
2.3522871e-08
9.4901538e-08
2.3376545e-08
9.295341e-08
2.3228077e-08
9.1015149e-08
2.3077725e-08
8.9087174e-08
2.292574e-08
8.7169885e-08
2.2772358e-08
8.5263663e-08
2.2617806e-08
8.3368865e-08
2.2462282e-08
8.1485828e-08
2.2305971e-08
7.9614863e-08
2.214902e-08
7.7756257e-08
2.1991553e-08
7.5910274e-08
2.1833654e-08
7.407715e-08
2.1675369e-08
7.2257099e-08
2.1516701e-08
7.0450309e-08
2.1357609e-08
6.8656945e-08
2.1198001e-08
6.6877152e-08
2.1037739e-08
6.5111051e-08
2.0876631e-08
6.3358747e-08
2.0714439e-08
6.1620328e-08
2.0550874e-08
5.9895867e-08
2.0385604e-08
5.8185426e-08
2.0218256e-08
5.6489063e-08
2.0048426e-08
5.4806828e-08
1.9875677e-08
5.3138773e-08
1.9699561e-08
5.1484957e-08
1.9519614e-08
4.9845445e-08
1.9335377e-08
4.8220319e-08
1.9146394e-08
4.6609678e-08
1.8952232e-08
4.501364e-08
1.8752477e-08
4.3432348e-08
1.8546749e-08
4.1865962e-08
1.8334701e-08
4.0314662e-08
1.8116024e-08
3.8778636e-08
1.7890448e-08
3.7258074e-08
1.7657739e-08
3.5753169e-08
1.7417689e-08
3.4264104e-08
1.7170127e-08
3.2791104e-08
1.6914903e-08
3.133444e-08
1.6651993e-08
2.9894332e-08
1.6381659e-08
2.8470972e-08
1.6104593e-08
2.7064818e-08
1.5821453e-08
1.5533119e-08
1.1773016e-07
2.632151e-08
1.1566212e-07
2.619739e-08
1.1359903e-07
2.6068505e-08
1.1154188e-07
2.5935227e-08
1.0949119e-07
2.57978e-08
1.0744742e-07
2.5656462e-08
1.0541101e-07
2.5511465e-08
1.0338247e-07
2.5363078e-08
1.0136226e-07
2.5211575e-08
9.9350884e-08
2.5057241e-08
9.7348813e-08
2.4900359e-08
9.535651e-08
2.4741216e-08
9.337442e-08
2.4580088e-08
9.1402968e-08
2.4417246e-08
8.9442559e-08
2.4252945e-08
8.7493572e-08
2.4087426e-08
8.5556366e-08
2.3920905e-08
8.3631271e-08
2.3753577e-08
8.1718594e-08
2.3585602e-08
7.9818611e-08
2.341711e-08
7.7931576e-08
2.324819e-08
7.605771e-08
2.307889e-08
7.419721e-08
2.290921e-08
7.2350247e-08
2.2739104e-08
7.0516965e-08
2.256847e-08
6.8697486e-08
2.2397157e-08
6.689191e-08
2.2224958e-08
6.5100318e-08
2.2051612e-08
6.3322773e-08
2.1876809e-08
6.1559326e-08
2.1700191e-08
5.9810019e-08
2.1521355e-08
5.8074885e-08
2.1339867e-08
5.635396e-08
2.115526e-08
5.4647279e-08
2.0967052e-08
5.2954887e-08
2.0774748e-08
5.1276842e-08
2.0577855e-08
4.961322e-08
2.037589e-08
4.7964116e-08
2.0168389e-08
4.6329652e-08
1.9954915e-08
4.4709973e-08
1.9735064e-08
4.3105248e-08
1.9508472e-08
4.1515664e-08
1.9274817e-08
3.9941417e-08
1.9033822e-08
3.8382709e-08
1.8785246e-08
3.6839728e-08
1.8528891e-08
3.5312699e-08
1.8264551e-08
3.3801855e-08
1.7992107e-08
3.2307531e-08
1.7711506e-08
3.0830152e-08
1.7423045e-08
2.9369826e-08
1.7127895e-08
2.7927104e-08
1.6826723e-08
1.651998e-08
1.2068363e-07
2.7977015e-08
1.1856828e-07
2.7844224e-08
1.164581e-07
2.770628e-08
1.143541e-07
2.7563635e-08
1.1225681e-07
2.7416572e-08
1.1016671e-07
2.7265345e-08