/*--------------------------------*- C++ -*----------------------------------*\
| =========                 |                                                 |
| \\      /  F ield         | OpenFOAM: The Open Source CFD Toolbox           |
|  \\    /   O peration     | Version:  2312                                  |
|   \\  /    A nd           | Website:  www.openfoam.com                      |
|    \\/     M anipulation  |                                                 |
\*---------------------------------------------------------------------------*/
FoamFile
{
    version     2.0;
    format      ascii;
    arch        "LSB;label=32;scalar=64";
    class       volScalarField;
    location    "0.07";
    object      Qdot;
}
// * * * * * * * * * * * * * * * * * * * * * * * * * * * * * * * * * * * * * //

dimensions      [1 -1 -3 0 0 0 0];

internalField   nonuniform List<scalar> 
3251
(
79940.722
72662.244
65836.066
59453.097
53504.359
47979.898
42868.604
38158.1
33834.7
29883.428
26288.087
23031.38
20095.062
17460.127
15107.016
13015.844
11166.625
9539.5034
8114.9663
6874.0445
5798.4882
4870.9169
4074.9409
3395.2525
2817.6864
2329.2535
1918.147
1573.726
1286.4795
1047.9744
850.7909
688.44961
555.33324
446.60574
358.13153
286.39685
228.43471
181.75465
144.27809
114.27954
90.334052
71.270628
56.131442
44.13648
34.653184
27.170566
21.277389
16.643817
13.006182
10.154332
7.9212632
6.1744479
4.8088831
3.7428928
2.9119579
2.2646927
1.7607803
1.3686494
79847.292
72578.01
65759.776
59384.067
53442.105
47923.958
42818.526
38113.443
33795.033
29848.335
26257.169
23004.255
20071.367
17439.518
15089.171
13000.46
11153.424
9528.2261
8105.3767
6865.9272
5791.6485
4865.1799
4070.1507
3391.2707
2814.3913
2326.5387
1915.9198
1571.9067
1284.9995
1046.7754
849.82334
687.67186
554.71042
446.10881
357.73645
286.08382
228.18751
181.56006
144.12537
114.16003
90.240776
71.198007
56.075029
44.092735
34.619298
27.144343
21.257094
16.628101
12.99399
10.144861
7.9138877
6.1687295
4.8047418
3.7400232
2.9099237
2.2632394
1.7597321
1.3678719
79663.067
72411.186
65608.642
59247.393
53318.889
47813.259
42719.434
38025.073
33716.531
29778.878
26195.966
22950.551
20024.444
17398.698
15053.816
12969.976
11127.257
9505.8666
8086.3576
6849.8233
5778.0748
4853.7908
4060.6377
3383.3602
2807.8424
2321.1406
1911.4895
1568.2858
1282.0525
1044.3865
847.89446
686.12037
553.46712
445.11606
356.9465
285.45736
227.6923
181.1698
143.81873
113.91976
90.053016
71.051641
55.961182
44.004368
34.550829
27.091367
21.21615
16.596481
12.969588
10.126044
7.899394
6.1576354
4.7964586
3.7339303
2.9054252
2.2599077
1.7572644
1.3660484
79389.167
72162.61
65383.357
59043.69
53135.268
47648.304
42571.778
37893.397
33599.56
29675.382
26104.767
22870.523
19954.518
17337.863
15001.124
12924.539
11088.252
9472.5354
8058.0039
6825.8132
5757.8354
4836.8072
4046.4501
3371.5612
2798.0731
2313.087
1904.8787
1562.8822
1277.6538
1040.8201
845.01426
683.80318
551.60978
443.63261
355.76579
284.5207
226.95162
180.5859
143.35975
113.55998
89.771737
70.832279
55.790502
43.871847
34.448135
27.011914
21.154774
16.549132
12.933106
10.097975
7.8778472
6.1411827
4.784049
3.7246489
2.8984908
2.2547207
1.753381
1.3632209
79026.771
71833.34
65084.849
58773.785
52891.987
47429.765
42376.168
37718.961
33444.606
29538.281
25983.956
22764.511
19861.888
17257.276
14931.321
12864.347
11036.581
9428.3791
8020.4405
6794.0037
5731.0205
4814.3049
4027.6516
3355.9268
2785.1276
2302.4144
1896.1176
1555.7203
1271.8232
1036.0925
841.19586
680.73087
549.14686
441.66526
354.19966
283.27811
225.96886
179.81099
142.75052
113.08232
89.398214
70.540915
55.563752
43.695761
34.311667
26.90634
21.073237
16.486258
12.884701
10.060774
7.8493212
6.1194091
4.7675585
3.7122245
2.8891462
2.2476898
1.7480832
78602.858
71447.933
64735.377
58457.798
52607.18
47173.933
42147.185
37514.772
33263.227
29377.802
25842.547
22640.425
19753.466
17162.951
14849.621
12793.896
10976.102
9376.6958
7976.4738
6756.7712
5699.6338
4787.9656
4005.6473
3337.6258
2769.9735
2289.9206
1885.8609
1547.3355
1264.9968
1030.557
836.72471
677.13309
546.26247
439.36101
352.36519
281.82245
224.81744
178.90298
142.03654
112.52246
88.960348
70.199307
55.297867
43.489258
34.151614
26.782527
20.977621
16.412544
12.827968
10.017197
7.8159323
6.0939213
4.748201
3.6975897
2.8780991
2.2393454
1.7417161
78131.026
71018.828
64346.232
58105.937
52290.046
46889.072
41892.225
37287.424
33061.28
29199.129
25685.11
22502.277
19632.759
17057.939
14758.664
12715.463
10908.773
9319.1581
7927.5268
6715.3211
5664.6914
4758.6421
3981.1496
3317.2506
2753.1016
2276.0102
1874.441
1537.9995
1257.3956
1024.393
831.7456
673.12633
543.05
436.79451
350.32176
280.20084
223.53464
177.89127
141.24093
111.89852
88.472314
69.818518
55.001451
43.25903
33.973157
26.644468
20.871012
16.330363
12.764736
9.9686357
7.7787215
6.0655061
4.7265944
3.6812155
2.8657158
2.2299794
1.7345924
77575.356
70513.382
63887.816
57691.438
51916.464
46553.515
41591.901
37019.632
32823.413
28988.682
25499.678
22339.567
19490.594
16934.262
14651.542
12623.093
10829.479
9251.3969
7869.883
6666.5064
5623.5407
4724.1086
3952.2991
3293.2549
2733.2314
2259.6274
1860.9911
1527.0035
1248.4426
1017.1325
825.88058
668.40644
539.26555
433.77084
347.91418
278.29011
222.023
176.69897
140.30322
111.16306
87.896986
69.369575
54.651942
42.987536
33.762705
26.481653
20.745283
16.233446
12.690164
9.9113686
7.7348492
6.0319911
4.7010783
3.6618485
2.8510438
2.2188777
1.7262126
76931.105
69927.299
63356.236
57210.78
51483.26
46164.415
41243.665
36709.126
32547.615
28744.681
25284.686
22150.925
19325.774
16790.879
14527.355
12516.009
10737.556
9172.8445
7803.0599
6609.9188
5575.8376
4684.0763
3918.8545
3265.4379
2710.1966
2240.6351
1845.3985
1514.2555
1238.0627
1008.7145
819.08023
662.93356
534.87711
430.26438
345.12199
276.07397
220.26959
175.31586
139.21534
110.30973
87.229386
68.848571
54.246296
42.672406
33.518403
26.292635
20.599315
16.120929
12.603588
9.8448834
7.6839042
5.9930546
4.6714131
3.6393021
2.8339404
2.2059277
76193.6
69256.341
62747.649
56660.491
50987.308
45718.966
40845.008
36353.673
32231.902
28465.376
25038.596
21935.001
19137.123
16626.768
14385.218
12393.449
10632.35
9082.9425
7726.5828
6545.1564
5521.2433
4638.2609
3880.5783
3233.6021
2683.8335
2218.8982
1827.5522
1499.6644
1226.1818
999.07887
811.2958
656.66837
529.85306
426.24979
341.92494
273.5363
218.26162
173.7318
137.96927
109.33222
86.464548
68.251615
53.781465
42.311255
33.2384
26.075974
20.43199
15.991938
12.504329
9.7686478
7.6254723
5.9483838
4.6373465
3.6133868
2.8142581
2.1909796
75358.289
68496.375
62058.315
56037.191
50425.563
45214.437
40393.492
35951.102
31874.351
28149.067
24759.91
21690.484
18923.497
16440.936
14224.272
12254.674
10513.228
8981.1495
7639.9914
6471.8296
5459.4296
4586.387
3837.2405
3197.5559
2653.9833
2194.2857
1807.3444
1483.1421
1212.7278
988.16694
802.47986
649.57258
524.16258
421.70236
338.30327
270.66133
215.98655
171.93685
136.55717
108.22434
85.597604
67.57488
53.254444
41.90174
32.920859
25.830246
20.242189
15.845608
12.391713
9.6821374
7.55915
5.8976545
4.5986405
3.5839099
2.7918463
74420.806
67643.439
61284.645
55337.638
49795.109
44648.213
39886.779
35499.333
31473.117
27794.127
24447.198
21416.123
18683.804
16232.434
14043.697
12098.979
10379.584
8866.9494
7542.847
6389.5672
5390.0836
4528.1921
3788.6214
3157.1167
2620.4947
2166.6725
1784.6722
1464.6042
1197.6319
975.92276
792.58702
641.60953
517.77615
416.59837
334.23801
267.43395
213.43235
169.92145
134.97145
106.98009
84.623831
66.814656
52.662328
41.441584
32.564
25.554055
20.028838
15.681097
12.265084
9.5848381
7.4845304
5.8405527
4.5550411
3.5506831
2.7665117
73377.038
66693.8
60423.261
54558.783
49093.203
44017.836
39322.675
34996.415
31026.473
27399.032
24099.122
21110.745
18417.023
16000.377
13842.728
11925.703
10230.853
8739.8601
7434.7401
6298.0225
5312.9132
4463.4308
3734.5161
3112.1137
2583.226
2135.9417
1759.4396
1443.9719
1180.8298
962.29388
781.57472
632.74477
510.666
410.91552
329.71128
263.83983
210.5876
167.67653
133.20494
105.59381
83.538735
65.967401
52.002326
40.928584
32.166109
25.246059
19.79088
15.497582
12.123802
9.4762504
7.4012203
5.7767607
4.5063107
3.5135111
72223.208
65644.03
59471.059
53697.827
48317.328
43321.052
38699.17
34440.562
30532.839
26962.387
23714.457
20773.281
18122.223
15743.957
13620.667
11734.248
10066.522
8599.4435
7315.2984
6196.8807
5227.6531
4391.8807
3674.7387
3062.3921
2542.0489
2101.9871
1731.5589
1421.1734
1162.2625
947.23238
769.40403
622.94677
502.80667
404.63329
324.70659
259.8658
207.44177
165.1937
131.25094
104.06017
82.338119
65.029803
51.271824
40.360698
31.725566
24.904985
19.52732
15.294285
11.967252
9.3558883
7.3088333
5.7059814
4.4522051
3.4721569
70955.958
64491.08
58425.283
52752.285
47465.253
42555.866
38014.487
33830.197
29990.819
26482.966
23292.128
20402.79
17798.585
15462.466
13376.903
11524.087
9886.1403
8445.3162
7184.1965
6085.8666
5134.0714
4313.347
3609.1262
3007.8162
2496.8506
2064.7155
1700.9534
1396.1455
1141.8786
930.69609
756.04063
612.18767
494.17559
397.73348
319.20929
255.50007
203.98542
162.46542
129.10346
102.37439
81.018189
63.998837
50.46843
39.736024
31.240878
24.529661
19.237232
15.070479
11.794865
9.2233033
7.207006
5.6279146
4.3925037
69572.445
63232.373
57283.602
51720.06
46535.099
41720.598
37267.13
33163.995
29399.245
25959.741
22831.235
19998.489
17445.429
15155.314
13110.928
11294.787
9689.3372
8277.1616
7041.1657
5964.7529
5031.9767
4227.6692
3537.5444
2948.2741
2447.5381
2024.0499
1667.5593
1368.8359
1119.6348
912.64977
741.45571
600.44404
484.75375
390.20066
313.20692
250.7326
200.21048
159.4852
126.75727
100.53232
79.57561
62.871859
49.59004
39.052893
30.71071
24.119027
18.91979
14.825507
11.606122
9.0780825
7.0954047
5.54227
4.3269249
68070.442
61865.892
56044.198
50599.518
45525.402
40813.947
36455.946
32440.936
28757.221
25391.927
22331.092
19559.782
17062.24
14822.056
12822.361
11046.018
9475.8328
8094.742
6886.0046
5833.3696
4921.2259
4134.7271
3459.8927
2883.6817
2394.0415
1979.9321
1631.3287
1339.2048
1095.4986
893.06649
725.6272
587.69777
474.52635
382.02278
306.68968
245.55542
196.11047
156.2478
124.20818
98.530555
78.007647
61.646661
48.634882
38.309883
30.133932
23.672182
18.574263
14.558799
11.400577
8.9198728
6.9737288
5.4487802
66448.455
60390.284
54705.852
49389.568
44435.195
39835.054
35580.18
31660.359
28064.167
24779.02
21791.264
19086.293
16648.693
14462.416
12510.964
10777.581
9245.456
7897.9126
6718.5909
5691.6137
4801.7321
4034.4477
3376.1098
2813.9879
2336.318
1932.3264
1592.2317
1307.2274
1069.449
871.92902
708.54078
573.93702
463.48357
373.19173
299.65084
239.96302
191.68087
152.7495
121.4531
96.36658
76.312256
60.321582
47.601595
37.505881
29.509633
23.188387
18.200058
14.269884
11.177855
8.7483715
6.8417259
5.3470414
64705.833
58804.967
53268.044
48089.756
43264.081
38783.58
34639.538
30822.015
27319.874
24120.845
21211.604
18577.899
16204.688
14076.311
12176.669
10489.418
8998.1606
7686.6354
6538.8931
5539.4589
4673.4736
3926.8127
3286.1802
2739.1791
2274.3559
1881.2227
1550.2594
1272.8958
1041.4795
849.23133
690.19116
559.15711
451.62133
363.70392
292.08732
233.95268
186.91934
148.9883
118.49033
94.038941
74.488198
58.895569
46.489295
36.640148
28.837199
22.667121
17.796748
13.958412
10.937692
8.5633818
6.6992744
5.2373203
62842.894
57110.233
51731.052
46700.345
42012.316
37659.769
33634.257
29926.126
26524.553
23417.596
20592.293
18034.766
15730.376
13663.876
11819.598
10181.638
8734.0422
7460.9935
6346.983
5376.9665
4536.5021
3811.8652
3190.1397
2659.2849
2208.179
1826.64
1505.4268
1236.2217
1011.5987
824.98013
670.58326
543.36159
438.94207
353.56098
284.0001
227.52496
181.82609
144.96418
115.31972
91.547382
72.535161
57.368292
45.297641
35.712359
28.116312
22.108097
17.364079
13.624163
10.679926
8.3647925
6.5462828
5.1196814
60861.045
55307.366
50096.046
45222.417
40680.892
36464.531
32565.166
28973.448
25678.884
22669.89
19933.881
17457.388
15226.193
13225.497
11440.09
9854.5355
8453.3552
7221.206
6143.0477
5204.2954
4390.9517
3689.7178
3088.0817
2574.3822
2137.8506
1768.6298
1457.7756
1197.2385
979.83337
799.1964
649.7335
526.56317
425.45559
342.77035
275.39478
220.68402
176.4042
140.67936
111.94284
88.893005
70.453888
55.740223
44.026937
34.722667
27.347034
21.511308
16.90199
13.267076
10.40452
8.1525758
6.382646
58762.906
53398.741
48365.196
43657.954
39271.621
35199.513
31433.755
27965.324
24784.075
21878.804
19237.33
16846.613
14692.89
12761.832
11038.717
9508.6082
8156.5297
6967.6418
5927.4022
5021.7129
4237.0476
3560.5591
2980.1635
2484.6014
2063.4778
1707.2797
1407.3768
1156.0036
946.22953
771.91685
627.67096
508.78477
411.17977
331.34595
266.28211
213.43809
170.6599
136.13857
108.36321
86.078424
68.246302
54.012766
42.678167
33.671763
26.529839
20.87705
16.41065
12.887233
10.111569
7.9268606
6.2080774
56552.413
51387.916
46541.76
42009.934
37787.211
33867.166
30242.238
26903.742
23841.906
21045.925
18504.047
16203.686
14131.559
12273.837
10616.313
9144.5778
7844.1872
6700.8337
5700.5005
4829.6036
4075.1141
3424.661
2866.6116
2390.1302
1985.2152
1642.7164
1354.3337
1112.6007
910.85453
743.19543
604.43862
490.06039
396.14141
319.30874
256.67841
205.7998
164.60293
131.34924
104.5865
83.107919
65.915616
52.188314
41.253109
32.560952
25.665653
20.205969
15.890469
12.48485
9.8013176
54234.888
49279.702
44630.175
40282.411
36231.342
32470.82
28993.61
25791.39
22854.776
20173.388
17735.922
15530.275
13543.665
11762.791
10173.99
8763.4057
7517.1554
6421.4902
5462.9461
4628.479
3905.5822
3282.3846
2747.7271
2291.2182
1903.2689
1575.1088
1298.7842
1067.1416
873.79861
713.10462
580.09435
470.43604
380.37687
306.68733
246.60605
197.78659
158.2468
126.32179
100.6207
79.987587
63.466458
50.27037
39.754386
31.392188
24.755922
19.499108
15.342133
12.060232
51816.946
47080.218
42636.144
38480.596
34608.737
31014.734
27691.701
24631.695
21825.745
19263.909
16935.361
14828.495
12931.063
11230.314
9713.1539
8366.3082
7176.4802
6130.5065
5215.501
4418.9844
3728.9957
3134.1858
2623.8901
2188.1806
1817.8988
1504.6704
1240.9026
1019.768
835.17631
681.73652
554.71187
449.97042
363.93269
293.51842
236.09388
189.42098
151.60903
121.06979
96.476275
76.725467
60.904976
48.263596
38.185545
30.168147
23.802657
18.757947
14.766677
11.613623
54095.984
49305.769
44797.186
40566.754
36610.919
32925.211
29504.148
26341.216
23428.868
20758.563
18320.819
16105.303
14100.937
12296.021
10678.383
9235.5214
7954.7674
6823.4354
5828.9719
4959.0924
4201.9048
3546.0158
2980.6188
2495.5627
2081.4009
1729.4216
1431.6612
1180.9012
970.65252
795.12745
649.20374
528.38145
428.73556
346.86607
279.84724
225.17747
180.73087
144.71139
115.61016
92.166317
73.331652
58.238918
46.173939
36.551113
28.892268
22.808469
17.984505
14.16574
11.147109
51250.944
46712.856
42440.121
38430.526
34681.08
31187.711
27945.315
24947.762
22187.92
19657.691
17348.072
15249.244
13350.671
11641.229
10109.341
8743.1247
7530.5378
6459.5286
5518.1753
4694.8165
3978.1683
3357.4242
2822.3388
2363.2914
1971.3325
1638.2116
1356.3888
1119.0318
920.00004
753.81784
615.63996
501.21036
406.81716
329.24516
265.72776
213.8994
171.74968
137.58003
109.96326
87.706637
69.81836
55.477711
44.008623
34.85662
27.56879
21.776606
17.181281
13.541339
10.662281
48330.81
44050.618
40020.069
36237.404
32700.053
29404.331
26345.511
23517.862
20914.675
18528.311
16350.261
14371.234
12581.258
10969.8
9525.9015
8238.3151
7095.648
6086.5015
5199.6052
4423.9395
3748.8464
3164.1235
2660.1021
2227.7069
1858.499
1544.7012
1279.2087
1055.5851
868.04729
711.43942
581.20005
473.32301
384.3147
311.14921
251.22283
202.30929
162.51647
130.24554
104.153
83.115819
66.200007
52.632473
41.776229
33.108663
26.20277
20.710945
16.351264
12.895786
10.160867
45350.04
41332.825
37549.555
33998.718
30678.074
27584.293
24713.025
22058.939
19615.759
17376.314
15332.602
13475.875
11796.737
10285.267
8931.1378
7723.7564
6652.3953
5706.3263
4874.9463
4147.8937
3515.1511
2967.1342
2494.764
2089.5227
1743.4925
1449.3796
1200.5231
990.89034
815.06252
668.20976
546.05969
444.86064
361.34128
292.66836
236.40403
190.46377
153.07583
122.74294
98.206743
78.415208
62.493167
49.716053
39.486665
31.314881
24.800068
19.615992
15.497911
12.231713
9.6448312
42325.147
38574.78
35042.542
31727.132
28626.587
25737.912
23057.122
20579.287
18298.569
16208.273
14300.913
12568.293
11001.61
9591.5614
8328.4707
7202.4107
6203.3332
5321.1938
4546.0699
3868.2696
3278.428
2767.5893
2327.2741
1949.5305
1626.9703
1352.7901
1120.7788
925.31336
761.34398
624.37088
510.41446
415.98065
338.02301
273.90328
221.35138
178.42622
143.47778
115.11154
92.155304
73.62885
58.716564
46.742974
37.151175
29.483937
23.367371
18.49687
14.625158
11.552118
9.1164135
39274.43
35793.285
32514.356
29436.55
26558.163
23876.512
21387.97
19088.005
16971.218
15031.392
13261.564
11654.101
10200.797
8892.9831
7721.6385
6677.5139
5751.2501
4933.4957
4215.0177
3586.8023
3040.1446
2566.7243
2158.6676
1808.594
1509.6496
1255.5253
1040.4635
859.25363
707.21743
580.18735
474.47831
386.8553
314.49808
254.96436
206.15277
166.26629
133.77735
107.39469
86.032681
68.783344
54.890925
43.729354
34.782253
27.625496
21.912119
17.359318
13.737385
10.860332
8.5781455
36217.737
33006.499
29981.54
27141.984
24486.37
22012.315
19716.54
17594.905
15642.446
13853.429
12221.415
10739.337
9399.5938
8194.1526
7114.6571
6152.5406
5299.1385
4545.7979
3883.9798
3305.3526
2801.8746
2365.8639
1990.0545
1667.6392
1392.2992
1158.2208
960.10037
793.13983
653.03266
535.94338
438.48123
357.66999
290.91532
235.97065
190.903
154.05929
124.03412
99.639329
79.87579
63.907601
51.038841
40.69278
32.393552
25.750135
20.442489
16.209619
12.839419
10.160054
8.0328184
33176.203
30233.719
27461.66
24859.364
22425.604
20158.285
18054.463
16110.383
14321.513
12682.598
11187.722
9830.3858
8603.5935
7499.9505
6511.7658
5631.1569
4850.155
4160.8058
3555.2644
3025.8808
2565.2756
2166.4033
1822.604
1527.6413
1275.7292
1061.5464
880.24082
727.42409
599.15882
491.93915
402.66629
328.62079
267.43228
217.04828
175.70272
141.88521
114.31146
91.895521
73.724006
59.032526
47.184489
37.652115
29.999745
23.869234
18.967285
15.054577
11.936495
9.4552778
7.483502
30171.916
27495.094
24973.042
22605.304
20390.873
18327.929
16413.852
14645.262
13018.052
11527.438
10168.025
8933.8779
7818.6021
6815.4391
5917.3595
5117.1618
4407.5688
3781.3205
3231.2608
2750.416
2332.0627
1969.7862
1657.5258
1389.6095
1160.7778
966.19557
801.45599
662.57489
545.97863
448.48602
367.28588
299.91147
244.2129
198.32864
160.65688
129.82758
104.67564
84.21567
67.618661
54.19061
43.353329
34.627257
27.616357
21.994866
17.495868
13.90142
11.034184
8.750295
6.9334656
27227.519
24811.267
22534.45
20396.803
18397.525
16535.054
14807.083
13210.593
11741.89
10396.658
9170.0099
8056.5669
7050.5303
6145.769
5335.9076
4614.4167
3974.7015
3410.1866
2914.3947
2481.0174
2103.9768
1777.4776
1496.0475
1254.5683
1048.2962
872.87249
724.32619
599.06849
493.88138
405.90103
332.59718
271.74991
221.42458
179.94607
145.87292
117.97206
95.19473
76.653706
61.602344
49.415395
39.571713
31.638855
25.259505
20.139586
16.037988
12.75771
10.138327
8.0496098
6.3861802
24365.748
22202.954
20164.705
18250.903
16460.937
14793.487
13246.54
11817.427
10502.855
9298.9557
8201.3462
7205.1895
6305.2699
5496.0717
4771.8601
4126.7642
3554.8571
3050.2328
2607.0773
2219.7316
1882.7475
1590.933
1339.3889
1123.5355
939.13039
782.27753
649.42885
537.37909
443.25505
364.50039
298.85698
244.34389
199.23488
162.03525
131.45871
106.4048
85.937305
69.26405
55.718137
44.740878
35.866387
28.707902
22.945633
18.316243
14.603662
11.631231
9.2549644
7.3578816
5.8452448
21608.904
19690.469
17882.252
16184.297
14596.163
13116.753
11744.332
10476.562
9310.534
8242.8174
7269.5114
6386.3073
5588.5556
4871.3381
4229.5427
3657.9376
3151.2439
2704.2047
2311.6482
1968.5441
1670.0525
1411.5645
1188.7336
997.4992
834.10193
695.091
577.32523
477.96801
394.4774
324.59234
266.3159
217.8965
177.80781
144.72821
117.52023
95.210555
76.970983
62.10049
50.008696
40.200804
32.263999
25.855363
20.691201
16.537722
13.202961
10.529829
8.390196
6.6798512
5.3143233
18978.284
17293.205
15704.687
14212.899
12817.544
11517.728
10311.976
9198.2592
8174.0368
7236.294
6381.5944
5606.1366
4905.8158
4276.2895
3713.0445
3211.4638
2766.8914
2374.6938
2030.3152
1729.328
1467.4748
1240.7043
1045.1983
877.39193
733.98654
611.95584
508.54623
421.27205
347.90654
286.46947
235.21221
192.60113
157.29986
128.15116
104.15895
84.470722
68.360849
55.214925
44.515304
35.827928
28.790452
23.101697
18.512324
14.816689
11.84581
9.461277
7.5500857
6.020238
4.7970839
16493.576
15029.074
13648.259
12351.391
11138.3
10008.272
8960.069
7991.9538
7101.7287
6286.7738
5544.094
4870.3708
4262.0184
3715.2427
3226.1014
2790.5629
2404.564
2064.0637
1765.0913
1503.7909
1276.4573
1079.567
909.80161
764.06471
639.49271
533.45975
443.57767
367.69144
303.87111
250.40075
205.76535
168.63628
137.85575
112.42114
91.469269
74.261199
60.167772
48.656054
39.27682
31.653183
25.47032
20.466373
16.424389
13.165282
10.541767
8.4330743
6.740513
5.3836462
4.2971282
14172.239
12913.959
11727.36
10612.77
9570.1229
8598.8626
7697.9645
6865.9608
6100.9736
5400.7525
4762.7171
4184.0035
3661.5154
3191.9758
2771.9802
2398.0485
2066.6756
1774.3772
1517.7328
1293.4224
1098.2588
929.21264
783.43302
658.26134
551.24024
460.11755
382.84577
317.57797
262.66057
216.62365
178.16958
146.16038
119.6044
97.642735
79.535802
64.650278
52.44674
42.468041
34.328635
27.704858
22.326165
17.967352
14.441661
11.594812
9.2997694
7.4522799
5.9670393
4.7744469
3.8178809
12028.92
10961.17
9954.0411
9007.906
8122.7774
7298.2369
6533.4505
5827.1943
5177.8851
4583.6142
4042.1864
3551.1614
3107.8984
2709.6023
2353.3697
2036.2342
1755.2092
1507.3283
1289.6812
1099.4454
933.91294
790.51207
666.8239
560.59414
469.7403
392.35466
326.7036
271.22384
224.51608
185.33669
152.58789
125.30694
102.65486
83.904817
68.430812
55.69659
45.245204
36.689201
29.701622
24.007782
19.377913
15.62058
12.576887
10.115437
8.127911
6.525323
5.2347645
4.1966723
3.3625284
10074.91
9180.958
8337.571
7545.1427
6803.746
6113.0769
5472.4688
4880.9167
4337.1047
3839.4366
3386.0702
2974.9545
2603.868
2270.4589
1972.2845
1706.8504
1471.6466
1264.1815
1082.0126
922.77255
784.19186
664.1166
560.52219
471.52295
395.37782
330.49257
275.41904
228.85174
189.6224
156.69281
129.14661
106.1801
87.092791
71.277714
58.211913
47.447233
38.601591
31.350827
25.421199
20.582567
16.642241
13.439528
10.840919
8.7358814
7.0331925
5.6578079
4.5481658
3.6538973
2.9339213
8317.6978
7580.1087
6884.0683
6229.9723
5617.9349
5047.7455
4518.8822
4030.5332
3581.6216
3170.8328
2796.6442
2457.3574
2151.1314
1876.0165
1629.9882
1410.9798
1216.9127
1045.7252
895.39737
763.97293
649.57766
550.43408
464.87243
391.33842
328.39767
274.73734
229.16528
190.60706
158.10139
130.79405
107.93105
88.851068
72.977557
59.810814
48.920124
39.936198
32.544017
26.476125
21.506494
17.444926
14.132031
11.434738
9.2423651
7.4631606
6.0213097
4.8543557
3.9109786
3.1491416
2.5344832
6760.6525
6161.6542
5596.2432
5064.8012
4567.4671
4104.1044
3674.3133
3277.4501
2912.6486
2578.844
2274.7985
1999.1284
1750.3326
1526.8212
1326.9432
1149.0135
991.3389
852.2404
730.07433
623.24994
530.24419
449.61355
380.00283
320.1512
268.89563
225.17203
188.01447
156.55258
130.00767
107.6879
88.982476
73.355626
60.340114
49.530835
40.578434
33.183221
27.089355
22.079471
17.969698
14.605178
11.855977
9.6135026
7.7873193
6.3023551
5.0964847
4.1184528
3.326086
2.6847671
2.1661571
5402.8638
4924.731
4473.2711
4048.8393
3651.585
3281.4283
2938.0708
2621.0123
2329.569
2062.894
1819.9991
1599.7772
1401.0261
1222.4719
1062.7918
920.63656
794.65041
683.4902
585.84174
500.43398
426.05073
361.54001
305.82089
257.8882
216.81512
181.75397
151.93542
126.66639
105.32681
87.365736
72.296723
59.692933
49.182014
40.440959
33.19107
27.193102
22.242649
18.165898
14.81567
12.067873
9.8182593
7.9796033
6.4791563
5.2564296
4.2613023
3.452343
2.7954032
2.2624098
1.8303247
4239.1718
3864.6092
3510.8216
3178.1286
2866.679
2576.4343
2307.1782
2058.5304
1829.9624
1620.8142
1430.3121
1257.5878
1101.697
961.6389
836.37407
724.84252
625.9798
538.7318
462.06773
394.99123
336.54951
285.84055
242.01838
204.29665
171.95052
144.31728
120.7955
100.84343
83.976375
69.76361
57.824738
47.825855
39.475554
32.520887
26.743468
21.955667
17.99704
14.731006
12.041806
9.8316932
8.0184634
6.5332281
5.3184355
4.3261718
3.516656
2.8569463
2.3198399
1.8829211
1.5277713
3260.4009
2972.9072
2701.2556
2445.7244
2206.4534
1983.4328
1776.5109
1585.4059
1409.7184
1248.9454
1102.4946
969.69916
849.83346
742.12763
645.78223
559.98204
483.9087
416.75218
357.72074
306.0495
261.00739
221.90259
188.08653
158.95656
133.95733
112.58111
94.367241
78.900696
65.810134
54.765469
45.475087
37.682899
31.165264
25.727936
21.203072
17.44633
14.334149
11.761239
9.6382296
7.889567
6.451619
5.2709613
4.3029057
3.5101607
2.8617201
2.3318466
1.8992544
1.5463546
1.2586643
2453.7986
2237.9934
2033.9917
1842.0284
1662.2286
1494.6009
1339.0432
1195.3524
1063.2343
942.31483
832.15126
732.24386
642.04781
560.98476
488.45397
423.84289
366.53673
315.92713
271.41979
232.44076
198.44163
168.9037
143.34078
121.30122
102.36891
86.163411
72.339535
60.586257
50.625212
42.208876
35.118461
29.161715
24.170626
19.999154
16.520972
13.627332
11.225035
9.2345561
7.5883013
6.2290384
5.1084801
4.1860223
3.427636
2.8048673
2.2940026
1.8753293
1.5325003
1.2519697
1803.6667
1645.5607
1496.0288
1355.2627
1223.3701
1100.3695
986.19552
880.70652
783.69193
694.88103
613.95157
540.5387
474.24393
414.64381
361.29836
313.75882
271.57489
234.30108
201.50226
172.75835
147.66806
125.85191
106.95429
90.644904
76.619387
64.599503
54.332735
45.591481
38.171973
31.892915
26.593963
22.134106
18.390018
15.254383
12.634271
10.449587
8.6315913
7.1215459
5.8694397
4.8328699
3.975977
3.2685687
2.685266
2.2048268
1.8094868
1.4844642
1.2174555
1292.148
1179.3444
1072.598
972.06041
877.82044
789.90085
708.2626
632.81019
563.39769
499.83505
441.89451
389.31728
341.82012
299.10165
260.84852
226.74103
196.45838
169.68318
146.10545
125.42596
107.35894
91.634128
77.998296
66.216202
56.071079
47.364699
39.917106
33.566023
28.166095
23.587894
19.716874
16.4522
13.705586
11.400123
9.4691241
7.8550347
6.5083745
5.3868009
4.4541987
3.6798793
3.0378525
2.5061708
2.0663597
1.7029088
1.4028221
1.1552555
900.12135
821.93573
747.90068
678.13224
612.70072
551.6291
494.89607
442.43997
394.16317
349.9366
309.60444
272.98889
239.89481
210.11425
183.43083
159.62364
138.47095
119.75333
103.25648
88.773498
76.106785
65.069464
55.486397
47.194864
40.044859
33.899171
28.633155
24.134363
20.301986
17.04618
14.287364
11.95539
9.9887901
8.3339148
6.9441941
5.7793548
4.8047355
3.9906007
3.3115469
2.7459352
2.2754041
1.8844116
1.5598404
1.2906501
1.0675682
0.88282297
608.13745
555.63351
505.88042
458.96375
414.93703
373.82091
335.60535
300.25238
267.6992
237.86129
210.63581
185.90472
163.53813
143.39737
125.33795
109.21223
94.871946
82.170307
70.963921
61.114315
52.489229
44.963516
38.419881
32.749272
27.851148
23.633457
20.012547
16.912871
14.266642
12.013395
10.099496
8.4776172
7.1062065
5.9489608
4.9743038
4.1548841
3.4671049
2.8906854
2.4082666
2.00502
1.6683353
1.3875133
1.1534956
0.95863564
0.79649429
0.66165641
397.32331
363.26572
330.96622
300.48544
271.8624
245.11413
220.23709
197.20912
175.99149
156.53105
138.76243
122.61022
107.99114
94.816075
82.991986
72.42376
63.015763
54.673303
47.303803
40.817869
35.130024
30.159419
25.830184
22.071778
18.819112
16.012545
13.597836
11.525942
9.7528229
8.2391337
6.9499255
5.8543173
4.9251446
4.1386315
3.4740614
2.9134508
2.4412423
2.0440448
1.7103621
1.4303507
1.1956166
0.99900931
0.8344791
0.69686834
0.58185443
0.48577332
250.17883
228.91232
208.72592
189.66065
171.74363
154.98781
139.39292
124.94673
111.6264
99.399895
88.227372
78.062577
68.854233
60.547306
53.084283
46.406262
40.454003
35.168777
30.493162
26.371652
22.751178
19.581482
16.815396
14.409031
12.321843
10.516661
8.9596357
7.6201341
6.4705983
5.4863802
4.6455469
3.9286818
3.3186749
2.8005172
2.3610962
1.9890015
1.6743509
1.4085956
1.184392
0.99542636
0.83630182
0.70240666
0.58981855
0.49519982
0.41571982
0.34898664
151.19778
138.46763
126.37314
114.94063
104.18792
94.124053
84.750004
76.059398
68.03938
60.671465
53.93242
47.795095
42.229275
37.202466
32.680651
28.628954
25.012262
21.795737
18.945308
16.42801
14.212307
12.268318
10.56798
9.0851511
7.7956568
6.6773302
5.7099298
4.8751328
4.1564186
3.5389897
3.009647
2.5566879
2.1697646
1.8397891
1.5587956
1.3198259
1.1168436
0.94460999
0.7986087
0.67494631
0.57028519
0.48175247
0.40691183
0.34367194
0.29025714
0.24515182
87.262671
79.996554
73.087182
66.550412
60.39715
54.633237
49.259757
44.273546
39.667686
35.431993
31.553549
28.017191
24.805984
21.901687
19.285165
16.936789
14.836777
12.965495
11.303716
9.8328371
8.5350568
7.3934703
6.3922098
5.5164667
4.752541
4.087842
3.5108621
3.0111628
2.5793161
2.2068546
1.8862098
1.6106626
1.3742323
1.1716667
0.99834399
0.85021196
0.72373825
0.61585304
0.52389746
0.44557197
0.3788906
0.32215563
0.2739002
0.23287361
0.19800067
0.16836476
47.791212
43.865414
40.129168
36.591332
33.258098
30.132842
27.216371
24.507174
22.001698
19.694644
17.579231
15.647468
13.890416
12.298431
10.861382
9.5688724
8.4103991
7.3755519
6.4541176
5.6362097
4.9123504
4.2735464
3.7113306
3.2178039
2.7856366
2.408083
2.0789701
1.7926751
1.5441205
1.3287209
1.1423701
0.98140811
0.8425735
0.72297164
0.62006443
0.53159921
0.45561487
0.39040154
0.33445823
0.28649301
0.24538638
0.21017036
0.18000837
0.15418157
0.13207113
0.11314465
24.648487
22.661153
20.767894
18.973288
17.280519
15.691382
14.206365
12.824807
11.545023
10.364451
9.2798136
8.2872086
7.3822779
6.5602998
5.8163109
5.1452023
4.5418106
4.001007
3.517753
3.087169
2.7045604
2.3654782
2.0657155
1.8013349
1.5686864
1.3643953
1.1853616
1.0287655
0.89203101
0.77283633
0.6690979
0.57893392
0.50067009
0.43281367
0.37403605
0.32316034
0.27915307
0.2411034
0.20821974
0.17980821
0.15526721