/*--------------------------------*- C++ -*----------------------------------*\
| =========                 |                                                 |
| \\      /  F ield         | OpenFOAM: The Open Source CFD Toolbox           |
|  \\    /   O peration     | Version:  2312                                  |
|   \\  /    A nd           | Website:  www.openfoam.com                      |
|    \\/     M anipulation  |                                                 |
\*---------------------------------------------------------------------------*/
FoamFile
{
    version     2.0;
    format      ascii;
    arch        "LSB;label=32;scalar=64";
    class       volVectorField;
    location    "0.07";
    object      U;
}
// * * * * * * * * * * * * * * * * * * * * * * * * * * * * * * * * * * * * * //

dimensions      [0 1 -1 0 0 0 0];

internalField   nonuniform List<vector> 
3251
(
(1.7825275 0.0054979822 0)
(1.7438997 0.0055348236 0)
(1.7054441 0.0055704381 0)
(1.6671775 0.0056022469 0)
(1.6291128 0.0056313216 0)
(1.5912634 0.0056582671 0)
(1.5536431 0.0056833228 0)
(1.5162659 0.0057064942 0)
(1.4791466 0.0057277945 0)
(1.4423002 0.0057471558 0)
(1.405742 0.0057646213 0)
(1.3694875 0.0057801311 0)
(1.3335522 0.005793751 0)
(1.2979515 0.0058054237 0)
(1.2627005 0.0058152144 0)
(1.2278142 0.00582306 0)
(1.1933072 0.0058290096 0)
(1.1591936 0.0058329911 0)
(1.1254871 0.0058350284 0)
(1.0922007 0.0058350366 0)
(1.0593468 0.0058330089 0)
(1.0269371 0.0058288476 0)
(0.99498256 0.005822512 0)
(0.96349318 0.0058138915 0)
(0.93247827 0.0058029127 0)
(0.9019462 0.0057894562 0)
(0.87190442 0.0057734195 0)
(0.84235944 0.0057546792 0)
(0.81331682 0.005733112 0)
(0.78478115 0.0057085975 0)
(0.75675605 0.0056809991 0)
(0.72924418 0.0056502052 0)
(0.70224728 0.005616074 0)
(0.67576621 0.0055785053 0)
(0.64980097 0.0055373554 0)
(0.62435081 0.0054925354 0)
(0.59941429 0.005443901 0)
(0.57498936 0.0053913747 0)
(0.55107345 0.0053348162 0)
(0.52766354 0.005274171 0)
(0.50475619 0.0052093277 0)
(0.48234758 0.0051402986 0)
(0.46043352 0.0050670677 0)
(0.43900937 0.0049898056 0)
(0.41806995 0.0049087228 0)
(0.39760964 0.0048242868 0)
(0.37762243 0.0047371846 0)
(0.35810282 0.004648149 0)
(0.3390432 0.004557498 0)
(0.32043796 0.0044671314 0)
(0.30228391 0.0043754832 0)
(0.28457814 0.0042774139 0)
(0.26730648 0.0041638611 0)
(0.25045404 0.0040488518 0)
(0.23402067 0.0039332402 0)
(0.21800433 0.0038150911 0)
(0.20240046 0.0036936441 0)
(0.18720568 0.0035717814 0)
(1.7823429 0.015470367 0)
(1.7437231 0.015417139 0)
(1.705274 0.015360506 0)
(1.6670133 0.015298064 0)
(1.6289546 0.015230645 0)
(1.5911113 0.015159313 0)
(1.553497 0.015084231 0)
(1.5161258 0.015005827 0)
(1.4790122 0.01492398 0)
(1.4421714 0.014839063 0)
(1.4056186 0.014750981 0)
(1.3693695 0.01466012 0)
(1.3334393 0.014566413 0)
(1.2978436 0.014470243 0)
(1.2625974 0.014371547 0)
(1.2277159 0.014270687 0)
(1.1932135 0.014167585 0)
(1.1591044 0.014062567 0)
(1.1254022 0.013955534 0)
(1.09212 0.013846762 0)
(1.0592702 0.013736119 0)
(1.0268644 0.013623823 0)
(0.99491351 0.013509703 0)
(0.96342771 0.013393912 0)
(0.93241621 0.013276235 0)
(0.90188738 0.013156756 0)
(0.87184867 0.013035221 0)
(0.8423066 0.012911645 0)
(0.81326672 0.012785744 0)
(0.78473361 0.012657469 0)
(0.7567109 0.012526518 0)
(0.72920126 0.012392791 0)
(0.70220643 0.012255983 0)
(0.67572727 0.012115952 0)
(0.6497638 0.01197241 0)
(0.62431527 0.011825183 0)
(0.59938025 0.011674012 0)
(0.5749567 0.011518701 0)
(0.55104207 0.011359039 0)
(0.52763335 0.011194829 0)
(0.50472713 0.011025935 0)
(0.48231964 0.010852205 0)
(0.4604067 0.010673644 0)
(0.43898373 0.010490232 0)
(0.41804565 0.010302215 0)
(0.39758685 0.010109887 0)
(0.37760163 0.0099138832 0)
(0.35808413 0.0097149138 0)
(0.33902686 0.0095127457 0)
(0.32042445 0.0093092845 0)
(0.30227217 0.0091033185 0)
(0.28456573 0.0088914391 0)
(0.26729405 0.008666662 0)
(0.25044414 0.0084374101 0)
(0.23401332 0.0082065503 0)
(0.21799916 0.0079722432 0)
(0.20239794 0.007734368 0)
(0.18720813 0.0074960518 0)
(1.7819245 0.025426307 0)
(1.7433193 0.025281924 0)
(1.7048834 0.02513232 0)
(1.6666352 0.024974912 0)
(1.6285891 0.024810849 0)
(1.590758 0.024641147 0)
(1.5531558 0.024466124 0)
(1.5157964 0.024286043 0)
(1.4786943 0.024101166 0)
(1.4418647 0.023911795 0)
(1.4053229 0.023718258 0)
(1.3690845 0.023520837 0)
(1.3331648 0.023319894 0)
(1.2975794 0.023115696 0)
(1.2623433 0.022908603 0)
(1.2274716 0.022698859 0)
(1.1929789 0.022486794 0)
(1.1588792 0.022272612 0)
(1.1251863 0.022056593 0)
(1.0919131 0.02183889 0)
(1.059072 0.021619708 0)
(1.0266748 0.021399141 0)
(0.99473229 0.021177303 0)
(0.96325461 0.020954217 0)
(0.932251 0.020729895 0)
(0.90172983 0.020504283 0)
(0.87169854 0.020277287 0)
(0.84216364 0.020048779 0)
(0.81313068 0.019818564 0)
(0.78460425 0.019586447 0)
(0.75658798 0.019352148 0)
(0.72908454 0.019115423 0)
(0.70209568 0.018875932 0)
(0.67562226 0.018633398 0)
(0.64966433 0.018387448 0)
(0.62422115 0.018137799 0)
(0.59929131 0.017884072 0)
(0.5748728 0.017625997 0)
(0.55096307 0.017363215 0)
(0.52755916 0.017095501 0)
(0.50465769 0.016822552 0)
(0.48225491 0.016544231 0)
(0.4603467 0.016260357 0)
(0.43892855 0.015970953 0)
(0.41799543 0.015676067 0)
(0.39754187 0.015376022 0)
(0.37756208 0.015071354 0)
(0.35805022 0.014762382 0)
(0.3389992 0.014449058 0)
(0.32040303 0.014133196 0)
(0.30225644 0.013813143 0)
(0.28455421 0.013487425 0)
(0.26728678 0.013150602 0)
(0.25044306 0.012807787 0)
(0.23401886 0.012462093 0)
(0.21801098 0.012112775 0)
(0.2024168 0.011759876 0)
(0.18723744 0.01140786 0)
(1.781247 0.035366889 0)
(1.7426628 0.035131912 0)
(1.7042465 0.034889419 0)
(1.6660172 0.034637489 0)
(1.6279898 0.03437696 0)
(1.5901774 0.034108943 0)
(1.5525934 0.033833894 0)
(1.5152517 0.033552247 0)
(1.478167 0.033264407 0)
(1.4413545 0.032970851 0)
(1.4048295 0.03267201 0)
(1.3686076 0.032368374 0)
(1.3327041 0.032060387 0)
(1.2971346 0.031748543 0)
(1.2619141 0.03143327 0)
(1.2270578 0.031115038 0)
(1.1925801 0.030794236 0)
(1.1584953 0.030471279 0)
(1.1248169 0.030146496 0)
(1.091558 0.029820224 0)
(1.0587311 0.02949271 0)
(1.0263477 0.02916419 0)
(0.99441875 0.02883481 0)
(0.96295439 0.028504686 0)
(0.93196386 0.028173848 0)
(0.90145551 0.027842283 0)
(0.87143678 0.027509898 0)
(0.84191418 0.027176546 0)
(0.81289326 0.026842018 0)
(0.7843786 0.026506048 0)
(0.75637385 0.026168326 0)
(0.72888169 0.02582849 0)
(0.70190386 0.025486158 0)
(0.67544127 0.025140905 0)
(0.64949395 0.024792314 0)
(0.62406121 0.024439933 0)
(0.59914165 0.024083347 0)
(0.57473328 0.023722115 0)
(0.5508336 0.023355858 0)
(0.52743965 0.022984184 0)
(0.50454808 0.02260679 0)
(0.48215519 0.022223383 0)
(0.4602569 0.021833793 0)
(0.43884871 0.0214379 0)
(0.41792568 0.021035752 0)
(0.39748241 0.020627534 0)
(0.37751321 0.020213647 0)
(0.358012 0.019794485 0)
(0.33897192 0.019369931 0)
(0.32038696 0.01894121 0)
(0.30225109 0.018507325 0)
(0.28455845 0.018067139 0)
(0.26730056 0.017617137 0)
(0.25046772 0.017160476 0)
(0.23405492 0.016699988 0)
(0.21805845 0.016235878 0)
(0.20247661 0.015770188 0)
(0.1873126 0.015308484 0)
(1.780257 0.04529651 0)
(1.7416999 0.044970653 0)
(1.7033101 0.044635121 0)
(1.6651064 0.044288437 0)
(1.6271045 0.0439316 0)
(1.589317 0.043565508 0)
(1.5517575 0.043190766 0)
(1.5144399 0.042807743 0)
(1.4773789 0.042417172 0)
(1.4405898 0.042019526 0)
(1.4040878 0.041615563 0)
(1.3678884 0.041205766 0)
(1.3320073 0.04079089 0)
(1.2964598 0.040371423 0)
(1.2612611 0.039948099 0)
(1.2264263 0.039521376 0)
(1.1919698 0.039091935 0)
(1.1579059 0.038660173 0)
(1.1242483 0.03822669 0)
(1.0910099 0.037791791 0)
(1.0582033 0.037355967 0)
(1.0258399 0.036919403 0)
(0.99393092 0.036482457 0)
(0.96248628 0.036045171 0)
(0.93151528 0.035607745 0)
(0.9010263 0.035170066 0)
(0.87102678 0.034732166 0)
(0.84152324 0.034293775 0)
(0.81252124 0.033854757 0)
(0.78402539 0.033414703 0)
(0.75603933 0.032973328 0)
(0.72856576 0.032530115 0)
(0.70160645 0.032084666 0)
(0.67516231 0.0316364 0)
(0.6492334 0.031184851 0)
(0.62381905 0.030729427 0)
(0.59891785 0.030269639 0)
(0.57452785 0.029804938 0)
(0.55064653 0.029334855 0)
(0.52727094 0.028858927 0)
(0.50439773 0.028376753 0)
(0.48202319 0.027888002 0)
(0.46014323 0.027392398 0)
(0.43875338 0.026889802 0)
(0.41784872 0.026380143 0)
(0.39742391 0.025863579 0)
(0.3774732 0.025340373 0)
(0.35799055 0.024810774 0)
(0.33896917 0.024274849 0)
(0.32040271 0.023733469 0)
(0.30228488 0.023185758 0)
(0.28460938 0.022631233 0)
(0.26736832 0.022067528 0)
(0.25055308 0.021496887 0)
(0.23415821 0.020921844 0)
(0.21818001 0.020343764 0)
(0.20261769 0.019766933 0)
(1.7790198 0.054653955 0)
(1.7404955 0.054242498 0)
(1.7021375 0.053819122 0)
(1.6639651 0.053382874 0)
(1.625994 0.052934669 0)
(1.5882372 0.052475529 0)
(1.5507082 0.052006149 0)
(1.5134208 0.051526997 0)
(1.4763898 0.051038947 0)
(1.4396302 0.050542591 0)
(1.4031575 0.050038843 0)
(1.3669871 0.049528313 0)
(1.3311346 0.049011919 0)
(1.2956154 0.048490276 0)
(1.2604449 0.047964275 0)
(1.2256379 0.047434498 0)
(1.1912091 0.046901774 0)
(1.1571726 0.046366616 0)
(1.1235422 0.045829753 0)
(1.0903308 0.045291595 0)
(1.057551 0.044752738 0)
(1.0252144 0.044213455 0)
(0.99333187 0.043674179 0)
(0.96191363 0.043135017 0)
(0.9309689 0.04259621 0)
(0.90050606 0.042057682 0)
(0.87053258 0.041519469 0)
(0.84105499 0.040981307 0)
(0.81207886 0.040443028 0)
(0.78360881 0.039904197 0)
(0.75564849 0.039364465 0)
(0.7282006 0.038823264 0)
(0.70126696 0.038280104 0)
(0.67484845 0.037734342 0)
(0.64894516 0.037185401 0)
(0.62355639 0.036632624 0)
(0.59868077 0.036075412 0)
(0.5743163 0.035513151 0)
(0.55046046 0.034945272 0)
(0.52711027 0.034371258 0)
(0.50426233 0.033790618 0)
(0.48191291 0.033202973 0)
(0.46005789 0.032607962 0)
(0.43869279 0.032005397 0)
(0.41781267 0.031395118 0)
(0.39741221 0.030777226 0)
(0.3774857 0.030151825 0)
(0.3580269 0.02951916 0)
(0.33902915 0.028879222 0)
(0.32048595 0.028232749 0)
(0.30239063 0.027579142 0)
(0.28473662 0.026918051 0)
(0.26751644 0.026248155 0)
(0.25072236 0.025571162 0)
(0.23434882 0.024889516 0)
(0.21839247 0.024205529 0)
(0.20285392 0.023525519 0)
(1.7776994 0.063544751 0)
(1.7392168 0.063052242 0)
(1.7009002 0.062545761 0)
(1.6627688 0.062025108 0)
(1.6248384 0.061490931 0)
(1.587122 0.060944279 0)
(1.549633 0.060385781 0)
(1.5123854 0.059816214 0)
(1.4753938 0.059236407 0)
(1.4386735 0.058647255 0)
(1.4022397 0.058049621 0)
(1.366108 0.05744443 0)
(1.3302941 0.056832548 0)
(1.2948132 0.056214905 0)
(1.2596806 0.05559234 0)
(1.2249113 0.054965739 0)
(1.1905198 0.054335874 0)
(1.1565205 0.05370354 0)
(1.1229267 0.053069406 0)
(1.0897517 0.052434136 0)
(1.0570078 0.051798258 0)
(1.0247067 0.051162265 0)
(0.99285915 0.050526511 0)
(0.96147536 0.049891281 0)
(0.93056451 0.049256727 0)
(0.90013496 0.048622902 0)
(0.87019412 0.04798974 0)
(0.84074848 0.047357057 0)
(0.81180357 0.046724574 0)
(0.78336398 0.046091881 0)
(0.75543333 0.045458517 0)
(0.7280143 0.044823893 0)
(0.70110867 0.044187414 0)
(0.67471733 0.043548372 0)
(0.64884035 0.042906109 0)
(0.62347703 0.042259875 0)
(0.59862599 0.041609017 0)
(0.57428525 0.040952814 0)
(0.55045229 0.04029068 0)
(0.52712413 0.039621979 0)
(0.5042974 0.038946235 0)
(0.48196837 0.038262944 0)
(0.46013295 0.037571782 0)
(0.43878667 0.036872416 0)
(0.41792467 0.036164735 0)
(0.39754166 0.035448659 0)
(0.37763193 0.034724345 0)
(0.35818931 0.033991844 0)
(0.33920717 0.033251376 0)
(0.32067885 0.032503313 0)
(0.3025976 0.03174736 0)
(0.28495672 0.030983329 0)
(0.26774909 0.030210547 0)
(0.25096753 0.029430772 0)
(0.23460673 0.028646588 0)
(0.21866428 0.027861289 0)
(0.20314165 0.027082389 0)
(1.7761678 0.072664283 0)
(1.7377397 0.072088891 0)
(1.6994768 0.071497555 0)
(1.6613988 0.070890351 0)
(1.6235217 0.070268056 0)
(1.5858584 0.069631618 0)
(1.5484223 0.068981907 0)
(1.5112274 0.068319644 0)
(1.4742884 0.067645959 0)
(1.4376205 0.066961699 0)
(1.4012389 0.066268036 0)
(1.3651593 0.065565853 0)
(1.3293972 0.064856323 0)
(1.2939679 0.064140337 0)
(1.2588866 0.063419034 0)
(1.2241683 0.062693255 0)
(1.1898275 0.061964057 0)
(1.1558783 0.061232186 0)
(1.1223342 0.06049857 0)
(1.0892083 0.059763815 0)
(1.0565128 0.059028681 0)
(1.0242593 0.058293587 0)
(0.99245871 0.057559083 0)
(0.96112088 0.056825367 0)
(0.93025501 0.056092744 0)
(0.89986932 0.055361163 0)
(0.86997116 0.054630667 0)
(0.84056692 0.05390095 0)
(0.81166204 0.053171792 0)
(0.78326102 0.052442657 0)
(0.75536741 0.051713095 0)
(0.72798384 0.050982385 0)
(0.70111201 0.050249907 0)
(0.67475278 0.049514835 0)
(0.64890619 0.048776452 0)
(0.62357153 0.048033915 0)
(0.59874742 0.047286496 0)
(0.57443188 0.046533415 0)
(0.55062241 0.045773998 0)
(0.5273161 0.045007589 0)
(0.5045096 0.04423362 0)
(0.48219926 0.043451596 0)
(0.46038103 0.042661086 0)
(0.43905054 0.041861789 0)
(0.41820299 0.041053463 0)
(0.39783319 0.040236065 0)
(0.37793549 0.039409584 0)
(0.35850376 0.038574151 0)
(0.33953147 0.037729862 0)
(0.32101197 0.036877135 0)
(0.30293838 0.036015722 0)
(0.28530396 0.035145688 0)
(0.26810199 0.034266877 0)
(0.25132602 0.033381309 0)
(0.23497122 0.032492061 0)
(0.21903633 0.031604029 0)
(0.20352257 0.030725806 0)
(1.7743491 0.082016247 0)
(1.7359874 0.081355762 0)
(1.6977906 0.080677261 0)
(1.6597782 0.079981284 0)
(1.6219667 0.079268538 0)
(1.584369 0.078539928 0)
(1.5469985 0.07779644 0)
(1.509869 0.077038991 0)
(1.4729954 0.076268785 0)
(1.4363928 0.075486857 0)
(1.4000765 0.074694457 0)
(1.3640621 0.07389266 0)
(1.3283649 0.073082726 0)
(1.2930004 0.072265734 0)
(1.2579836 0.071442905 0)
(1.2233294 0.070615261 0)
(1.1890524 0.069783932 0)
(1.1551664 0.068949828 0)
(1.121685 0.068113939 0)
(1.088621 0.067277014 0)
(1.0559867 0.066439852 0)
(1.0237935 0.065602991 0)
(0.99205203 0.064767 0)
(0.96077224 0.063932162 0)
(0.92996311 0.063098772 0)
(0.89963275 0.062266833 0)
(0.86978837 0.061436347 0)
(0.84043622 0.060607026 0)
(0.81158165 0.059778583 0)
(0.78322902 0.058950466 0)
(0.75538179 0.058122131 0)
(0.72804248 0.05729282 0)
(0.70121273 0.056461802 0)
(0.6748933 0.055628197 0)
(0.64908421 0.054791177 0)
(0.62378469 0.053949839 0)
(0.59899336 0.053103352 0)
(0.57470824 0.052250883 0)
(0.55092686 0.051391677 0)
(0.52764632 0.050525032 0)
(0.50486335 0.049650319 0)
(0.48257434 0.048767004 0)
(0.46077535 0.047874612 0)
(0.43946208 0.046972797 0)
(0.41862983 0.046061278 0)
(0.39827349 0.045139946 0)
(0.37838751 0.044208747 0)
(0.35896586 0.043267766 0)
(0.34000209 0.042317152 0)
(0.32148948 0.041357236 0)
(0.30342121 0.040387941 0)
(0.28579069 0.03940943 0)
(0.26859161 0.03842208 0)
(0.25181816 0.037428537 0)
(0.23546645 0.036432765 0)
(0.21953674 0.03544237 0)
(1.7722046 0.091600077 0)
(1.7339212 0.090852537 0)
(1.6958022 0.090084728 0)
(1.6578676 0.089297707 0)
(1.620134 0.088492048 0)
(1.5826142 0.087668957 0)
(1.5453215 0.086829272 0)
(1.50827 0.08597428 0)
(1.4714743 0.085105071 0)
(1.4349496 0.084223064 0)
(1.3987113 0.08332941 0)
(1.3627747 0.082425564 0)
(1.3271553 0.081512696 0)
(1.2918684 0.080592251 0)
(1.2569289 0.079665365 0)
(1.2223518 0.078733412 0)
(1.1881513 0.07779743 0)
(1.1543413 0.076858663 0)
(1.1209353 0.075917997 0)
(1.0879459 0.074976487 0)
(1.0553852 0.074034817 0)
(1.0232646 0.073093795 0)
(0.99159458 0.072153856 0)
(0.96038484 0.071215514 0)
(0.92964423 0.070278914 0)
(0.89938073 0.069344238 0)
(0.86960138 0.068411325 0)
(0.84031228 0.067480013 0)
(0.81151863 0.066549843 0)
(0.78322466 0.06562033 0)
(0.75543369 0.064690765 0)
(0.72814811 0.0637604 0)
(0.70136947 0.062828355 0)
(0.67509844 0.061893712 0)
(0.64933496 0.060955524 0)
(0.62407822 0.060012813 0)
(0.5993268 0.059064675 0)
(0.57507872 0.058110172 0)
(0.55133151 0.057148525 0)
(0.5280823 0.056178915 0)
(0.50532788 0.055200735 0)
(0.4830647 0.054213319 0)
(0.46128889 0.053216252 0)
(0.43999622 0.052209042 0)
(0.41918212 0.051191483 0)
(0.39884157 0.050163301 0)
(0.37896912 0.04912452 0)
(0.35955882 0.04807509 0)
(0.34060432 0.047015319 0)
(0.32209898 0.04594535 0)
(0.30403593 0.044865414 0)
(0.28640871 0.043775684 0)
(0.26921173 0.042677129 0)
(0.25244013 0.041573318 0)
(0.23609151 0.040469976 0)
(0.22016634 0.039377624 0)
(1.7697106 0.10141611 0)
(1.731517 0.10057924 0)
(1.6934878 0.099720074 0)
(1.6556428 0.098839711 0)
(1.6179989 0.097938974 0)
(1.5805689 0.097018912 0)
(1.5433662 0.096080711 0)
(1.5064047 0.095125627 0)
(1.4696992 0.094155062 0)
(1.4332647 0.093170401 0)
(1.3971166 0.092173111 0)
(1.3612703 0.091164626 0)
(1.325741 0.090146424 0)
(1.2905441 0.089119936 0)
(1.2556944 0.088086593 0)
(1.2212066 0.087047752 0)
(1.187095 0.086004729 0)
(1.1533734 0.084958742 0)
(1.120055 0.08391093 0)
(1.0871524 0.082862309 0)
(1.0546774 0.081813782 0)
(1.0226414 0.080766104 0)
(0.99105454 0.079719889 0)
(0.95992648 0.078675577 0)
(0.92926587 0.077633447 0)
(0.89908047 0.076593591 0)
(0.86937716 0.075555926 0)
(0.84016188 0.074520189 0)
(0.81143962 0.073485946 0)
(0.78321447 0.072452602 0)
(0.75548959 0.071419424 0)
(0.72826725 0.070385555 0)
(0.70154885 0.069350047 0)
(0.67533498 0.068311887 0)
(0.64962546 0.067270031 0)
(0.62441946 0.066223428 0)
(0.59971549 0.065171058 0)
(0.57551156 0.064111947 0)
(0.5518052 0.063045194 0)
(0.52859357 0.061969979 0)
(0.50587348 0.060885571 0)
(0.48364145 0.059791344 0)
(0.46189368 0.058686754 0)
(0.44062604 0.057571372 0)
(0.41983403 0.056444858 0)
(0.39951273 0.055307009 0)
(0.3796568 0.054157704 0)
(0.36026041 0.052997021 0)
(0.34131728 0.051825127 0)
(0.32282076 0.050642436 0)
(0.30476413 0.049449115 0)
(0.28714122 0.048245559 0)
(0.26994733 0.047033195 0)
(0.25317885 0.045817462 0)
(0.23683527 0.04460653 0)
(1.7668516 0.11146471 0)
(1.7287598 0.11053642 0)
(1.6908321 0.10958358 0)
(1.6530887 0.1086075 0)
(1.6155465 0.10760923 0)
(1.5782183 0.10658981 0)
(1.5411175 0.10555065 0)
(1.504258 0.10449303 0)
(1.4676546 0.10341861 0)
(1.4313224 0.1023288 0)
(1.3952766 0.10122534 0)
(1.3595325 0.10010969 0)
(1.3241054 0.098983616 0)
(1.2890104 0.097848565 0)
(1.2542625 0.096706235 0)
(1.2198761 0.095558002 0)
(1.1858654 0.094405433 0)
(1.152244 0.093249748 0)
(1.119025 0.092092318 0)
(1.0862209 0.090934143 0)
(1.0538434 0.089776326 0)
(1.0219034 0.088619583 0)
(0.99041122 0.087464692 0)
(0.95937609 0.086312031 0)
(0.92880653 0.085161998 0)
(0.89871009 0.084014598 0)
(0.86909346 0.082869824 0)
(0.83996237 0.081727302 0)
(0.81132163 0.080586627 0)
(0.78317514 0.07944708 0)
(0.7555259 0.078307911 0)
(0.72837599 0.077168136 0)
(0.70172671 0.076026753 0)
(0.67557851 0.074882631 0)
(0.64993114 0.073734643 0)
(0.62478366 0.072581645 0)
(0.60013456 0.071422519 0)
(0.57598181 0.070256227 0)
(0.55232294 0.069081768 0)
(0.52915514 0.067898296 0)
(0.50647525 0.066704984 0)
(0.48427984 0.065501211 0)
(0.46256519 0.064286345 0)
(0.44132724 0.063059986 0)
(0.42056159 0.061821707 0)
(0.40026341 0.060571335 0)
(0.38042747 0.059308668 0)
(0.36104802 0.058033905 0)
(0.34211896 0.056747169 0)
(0.32363372 0.055449013 0)
(0.30558551 0.054139727 0)
(0.28796858 0.052819829 0)
(0.27077974 0.051491447 0)
(0.25401736 0.050162723 0)
(0.23768122 0.048844874 0)
(1.7636151 0.1217457 0)
(1.7256369 0.12072381 0)
(1.6878229 0.11967506 0)
(1.6501931 0.11860108 0)
(1.6127645 0.11750282 0)
(1.5755501 0.11638168 0)
(1.5385631 0.11523897 0)
(1.5018177 0.1140764 0)
(1.4653284 0.11289548 0)
(1.4291103 0.11169809 0)
(1.3931787 0.1104858 0)
(1.3575487 0.10926056 0)
(1.3222357 0.10802395 0)
(1.2872546 0.10677789 0)
(1.2526202 0.10552393 0)
(1.218347 0.10426388 0)
(1.1844489 0.10299915 0)
(1.1509394 0.10173137 0)
(1.1178314 0.10046175 0)
(1.0851373 0.09919166 0)
(1.0528685 0.097922026 0)
(1.0210359 0.096653888 0)
(0.98964933 0.09538784 0)
(0.95871802 0.094124526 0)
(0.9282502 0.092864147 0)
(0.89825323 0.091606913 0)
(0.86873354 0.090352614 0)
(0.83969666 0.089101014 0)
(0.8111472 0.087851504 0)
(0.78308883 0.086603437 0)
(0.75552438 0.085355872 0)
(0.72845577 0.084107834 0)
(0.70188413 0.082858153 0)
(0.67580979 0.081605653 0)
(0.65023239 0.08034908 0)
(0.62515092 0.079087197 0)
(0.60056382 0.077818814 0)
(0.57646902 0.076542767 0)
(0.55286406 0.075258042 0)
(0.52974614 0.073963645 0)
(0.50711215 0.072658799 0)
(0.48495872 0.071342722 0)
(0.46328219 0.070014883 0)
(0.44207859 0.068674712 0)
(0.4213436 0.06732192 0)
(0.4010725 0.065956149 0)
(0.38126016 0.064577392 0)
(0.36190101 0.063185644 0)
(0.34298899 0.061781321 0)
(0.32451761 0.060365035 0)
(0.30648023 0.058937344 0)
(0.28887171 0.057498798 0)
(0.27169104 0.056052582 0)
(0.254939 0.054611181 0)
(1.7599866 0.13225854 0)
(1.7221347 0.13114081 0)
(1.6844466 0.12999389 0)
(1.6469428 0.12881951 0)
(1.6096402 0.12761894 0)
(1.5725518 0.12639355 0)
(1.535691 0.12514495 0)
(1.4990717 0.12387483 0)
(1.4627086 0.12258503 0)
(1.4266167 0.12127739 0)
(1.3908113 0.11995386 0)
(1.3553075 0.11861632 0)
(1.3201205 0.11726675 0)
(1.2852651 0.11590701 0)
(1.2507561 0.114539 0)
(1.2166078 0.11316448 0)
(1.1828339 0.1117852 0)
(1.1494479 0.11040272 0)
(1.1164624 0.10901855 0)
(1.0838896 0.10763398 0)
(1.0517408 0.1062502 0)
(1.0200265 0.10486817 0)
(0.98875651 0.10348867 0)
(0.95793973 0.10211226 0)
(0.92758416 0.10073927 0)
(0.89769691 0.099369788 0)
(0.8682842 0.098003705 0)
(0.8393513 0.096640643 0)
(0.81090259 0.095280028 0)
(0.78294154 0.093921069 0)
(0.75547076 0.092562805 0)
(0.728492 0.091204122 0)
(0.70200622 0.089843788 0)
(0.67601362 0.088480505 0)
(0.65051373 0.08711292 0)
(0.62550545 0.085739708 0)
(0.60098718 0.084359554 0)
(0.57695681 0.082971251 0)
(0.5534119 0.08157365 0)
(0.53034967 0.080165762 0)
(0.50776705 0.078746673 0)
(0.48566073 0.077315655 0)
(0.46402715 0.075872044 0)
(0.4428624 0.074415366 0)
(0.42216227 0.072945193 0)
(0.40192213 0.071461295 0)
(0.382137 0.069963487 0)
(0.3628014 0.068452155 0)
(0.34390958 0.066927305 0)
(0.32545512 0.065390513 0)
(0.30743135 0.063842035 0)
(0.28983395 0.062282988 0)
(0.27266558 0.060717714 0)
(0.25592788 0.059164394 0)
(1.7559498 0.14300175 0)
(1.7182369 0.14178603 0)
(1.6806878 0.14053874 0)
(1.6433226 0.13926172 0)
(1.6061587 0.13795646 0)
(1.569209 0.1366244 0)
(1.5324867 0.13526741 0)
(1.4960061 0.13388726 0)
(1.4597817 0.13248603 0)
(1.4238285 0.13106564 0)
(1.3881616 0.12962829 0)
(1.3527962 0.12817596 0)
(1.3177473 0.12671085 0)
(1.2830298 0.12523493 0)
(1.2486581 0.12375031 0)
(1.2146466 0.12225885 0)
(1.1810088 0.12076249 0)
(1.1477579 0.11926287 0)
(1.1149065 0.11776168 0)
(1.0824664 0.11626024 0)
(1.0504488 0.11475991 0)
(1.0188639 0.11326164 0)
(0.9877214 0.11176634 0)
(0.95702982 0.11027451 0)
(0.92679695 0.10878659 0)
(0.89702964 0.10730259 0)
(0.86773384 0.10582243 0)
(0.83891458 0.10434563 0)
(0.81057598 0.10287163 0)
(0.7827213 0.1013995 0)
(0.75535292 0.099928237 0)
(0.72847238 0.098456596 0)
(0.7020805 0.096983279 0)
(0.67617732 0.095506844 0)
(0.65076227 0.094025863 0)
(0.62583416 0.092538882 0)
(0.60139133 0.091044505 0)
(0.57743167 0.08954142 0)
(0.55395275 0.088028408 0)
(0.53095179 0.086504406 0)
(0.50842583 0.084968451 0)
(0.48637159 0.083419775 0)
(0.46478561 0.08185769 0)
(0.44366409 0.08028171 0)
(0.4230029 0.078691408 0)
(0.40279751 0.077086513 0)
(0.38304318 0.075467026 0)
(0.36373451 0.07383289 0)
(0.34486607 0.072185319 0)
(0.32643158 0.070525066 0)
(0.30842437 0.068853762 0)
(0.29084153 0.067172457 0)
(0.2736905 0.065488738 0)
(1.7514848 0.15397332 0)
(1.7139245 0.15265754 0)
(1.6765275 0.15130757 0)
(1.6393144 0.14992566 0)
(1.6023023 0.14851326 0)
(1.5655044 0.14707224 0)
(1.5289339 0.14560437 0)
(1.4926048 0.14411183 0)
(1.4565319 0.1425966 0)
(1.4207301 0.14106105 0)
(1.3852145 0.13950729 0)
(1.3500001 0.13793773 0)
(1.3151019 0.13635449 0)
(1.2805346 0.13475995 0)
(1.2463127 0.13315616 0)
(1.2124502 0.13154535 0)
(1.1789605 0.12992939 0)
(1.1458567 0.12831027 0)
(1.1131512 0.12668958 0)
(1.0808555 0.12506897 0)
(1.0489805 0.12344967 0)
(1.0175364 0.1218329 0)
(0.98653242 0.12021943 0)
(0.95597688 0.11860998 0)
(0.92587728 0.11700482 0)
(0.89624022 0.11540412 0)
(0.86707136 0.11380761 0)
(0.83837545 0.11221491 0)
(0.81015637 0.11062526 0)
(0.78241711 0.10903776 0)
(0.75515984 0.10745124 0)
(0.72838589 0.10586441 0)
(0.7020959 0.10427581 0)
(0.67628976 0.10268392 0)
(0.6509668 0.1010872 0)
(0.62612574 0.099484062 0)
(0.60176488 0.097873041 0)
(0.5778821 0.096252689 0)
(0.55447497 0.094621757 0)
(0.53154079 0.092979048 0)
(0.50907662 0.091323627 0)
(0.48707933 0.089654595 0)
(0.46554551 0.087971351 0)
(0.44447149 0.086273293 0)
(0.42385321 0.084560091 0)
(0.40368639 0.082831442 0)
(0.3839662 0.081087125 0)
(0.36468786 0.079328075 0)
(0.34584611 0.077554039 0)
(0.32743485 0.075768542 0)
(0.30944773 0.073972174 0)
(0.29188374 0.072168152 0)
(0.27475437 0.070366661 0)
(1.7465693 0.16517051 0)
(1.7091755 0.16375252 0)
(1.6719447 0.1622978 0)
(1.6348974 0.16080869 0)
(1.5980509 0.15928697 0)
(1.5614184 0.15773455 0)
(1.5250132 0.15615349 0)
(1.4888492 0.15454602 0)
(1.4529412 0.15291445 0)
(1.4173041 0.15126117 0)
(1.3819529 0.14958862 0)
(1.3469026 0.14789925 0)
(1.3121681 0.1461955 0)
(1.277764 0.14447979 0)
(1.2437046 0.14275446 0)
(1.2100037 0.14102179 0)
(1.1766747 0.1392839 0)
(1.1437304 0.13754282 0)
(1.1111829 0.13580037 0)
(1.0790436 0.1340582 0)
(1.0473232 0.13231772 0)
(1.0160314 0.13058014 0)
(0.98517728 0.12884634 0)
(0.95476888 0.12711702 0)
(0.92481341 0.1253925 0)
(0.89531714 0.12367288 0)
(0.86628545 0.12195793 0)
(0.8377228 0.12024714 0)
(0.80963279 0.11853974 0)
(0.78201816 0.1168347 0)
(0.75488082 0.11513077 0)
(0.72822192 0.11342656 0)
(0.70204188 0.11172048 0)
(0.67634047 0.1100109 0)
(0.65111688 0.10829615 0)
(0.62636978 0.10657455 0)
(0.60209742 0.10484449 0)
(0.57829767 0.10310447 0)
(0.55496814 0.1013531 0)
(0.53210618 0.099589186 0)
(0.50970896 0.097811664 0)
(0.48777342 0.096019681 0)
(0.46629629 0.094212541 0)
(0.445274 0.092389723 0)
(0.42470266 0.090550857 0)
(0.40457791 0.088695544 0)
(0.38489572 0.086824158 0)
(0.3656508 0.084936155 0)
(0.34683912 0.083034594 0)
(0.32845494 0.081120044 0)
(0.31049171 0.079196816 0)
(0.29295175 0.077268903 0)
(1.7411781 0.1765895 0)
(1.7039656 0.17506741 0)
(1.6669155 0.17350582 0)
(1.6300485 0.17190734 0)
(1.593382 0.17027403 0)
(1.5569291 0.16860792 0)
(1.5207033 0.16691133 0)
(1.4847185 0.1651866 0)
(1.4489893 0.16343627 0)
(1.4135308 0.16166288 0)
(1.3783577 0.15986909 0)
(1.3434852 0.15805751 0)
(1.308928 0.15623081 0)
(1.2747004 0.15439154 0)
(1.2408168 0.15254226 0)
(1.2072908 0.15068537 0)
(1.1741355 0.14882321 0)
(1.1413635 0.14695788 0)
(1.1089867 0.14509137 0)
(1.0770163 0.14322541 0)
(1.0454626 0.14136153 0)
(1.0143352 0.13950096 0)
(0.98364267 0.1376447 0)
(0.95339292 0.1357934 0)
(0.92359276 0.13394743 0)
(0.89424817 0.13210685 0)
(0.8653642 0.13027139 0)
(0.83694501 0.12844048 0)
(0.80899391 0.12661328 0)
(0.78151335 0.12478866 0)
(0.754505 0.12296527 0)
(0.72796979 0.12114158 0)
(0.70190794 0.1193159 0)
(0.67631909 0.11748648 0)
(0.65120229 0.1156515 0)
(0.62655616 0.11380918 0)
(0.60237891 0.11195779 0)
(0.57866843 0.11009573 0)
(0.55542236 0.10822153 0)
(0.53263813 0.10633391 0)
(0.51031301 0.10443176 0)
(0.48844408 0.10251421 0)
(0.46702818 0.10058054 0)
(0.44606191 0.098630271 0)
(0.42554138 0.096662962 0)
(0.40546281 0.094678543 0)
(0.3858214 0.092676382 0)
(0.36661393 0.090658431 0)
(0.34783582 0.088624065 0)
(0.32948178 0.086579398 0)
(0.31154751 0.084526609 0)
(0.29403647 0.082471586 0)
(1.7352843 0.18822587 0)
(1.6982683 0.1865978 0)
(1.661414 0.18492729 0)
(1.6247423 0.18321737 0)
(1.5882708 0.18147026 0)
(1.5520126 0.17968829 0)
(1.5159809 0.17787385 0)
(1.4801899 0.17602958 0)
(1.4446542 0.17415812 0)
(1.4093887 0.17226229 0)
(1.3744082 0.17034487 0)
(1.3397277 0.16840875 0)
(1.3053618 0.1664567 0)
(1.2713249 0.16449156 0)
(1.2376309 0.16251598 0)
(1.2042934 0.16053262 0)
(1.1713254 0.15854388 0)
(1.1387391 0.1565521 0)
(1.1065462 0.15455932 0)
(1.0747576 0.15256744 0)
(1.0433835 0.15057803 0)
(1.0124329 0.14859244 0)
(0.98191429 0.14661165 0)
(0.95183511 0.14463639 0)
(0.92220189 0.14266699 0)
(0.89302026 0.14070351 0)
(0.86429494 0.1387456 0)
(0.83602976 0.13679267 0)
(0.80822773 0.13484374 0)
(0.78089099 0.13289762 0)
(0.75402097 0.13095281 0)
(0.72761835 0.12900769 0)
(0.70168318 0.12706042 0)
(0.67621491 0.12510911 0)
(0.65121252 0.12315181 0)
(0.62667454 0.12118662 0)
(0.60259917 0.1192117 0)
(0.57898431 0.11722532 0)
(0.55582766 0.11522594 0)
(0.53312677 0.11321219 0)
(0.51087901 0.11118296 0)
(0.48908161 0.10913729 0)
(0.46773158 0.10707453 0)
(0.4468256 0.10499415 0)
(0.42636014 0.1028959 0)
(0.40633084 0.10077922 0)
(0.38673494 0.098644885 0)
(0.36756727 0.096491822 0)
(0.34882624 0.094324375 0)
(0.33050774 0.092145644 0)
(0.31260542 0.089961432 0)
(0.29512697 0.087775557 0)
(1.7288583 0.2000738 0)
(1.6920549 0.19833815 0)
(1.6554122 0.19655682 0)
(1.6189518 0.19473339 0)
(1.5826909 0.19287044 0)
(1.5466429 0.19097042 0)
(1.5108209 0.18903599 0)
(1.4752391 0.18706992 0)
(1.4399121 0.18507511 0)
(1.4048547 0.18305454 0)
(1.3700818 0.18101124 0)
(1.3356082 0.17894826 0)
(1.3014484 0.17686862 0)
(1.2676168 0.17477532 0)
(1.234127 0.17267124 0)
(1.2009924 0.17055916 0)
(1.1682257 0.1684417 0)
(1.1358391 0.16632131 0)
(1.1038439 0.1642002 0)
(1.0722508 0.16208034 0)
(1.0410694 0.15996343 0)
(1.0103087 0.15785084 0)
(0.97997675 0.15574363 0)
(0.95008058 0.15364253 0)
(0.9206264 0.15154788 0)
(0.89161947 0.14945967 0)
(0.86306415 0.14737755 0)
(0.83496395 0.1453008 0)
(0.80732151 0.14322838 0)
(0.78013871 0.14115896 0)
(0.75341668 0.13909095 0)
(0.72715586 0.13702257 0)
(0.70135611 0.13495184 0)
(0.67601672 0.13287673 0)
(0.65113657 0.13079516 0)
(0.62671412 0.12870508 0)
(0.60274756 0.12660452 0)
(0.57923484 0.12449167 0)
(0.55617374 0.12236487 0)
(0.53356191 0.1202227 0)
(0.51139687 0.11806398 0)
(0.48967604 0.11588777 0)
(0.46839657 0.11369339 0)
(0.4475554 0.11148041 0)
(0.42714878 0.10924845 0)
(0.40717365 0.1069976 0)
(0.38762504 0.10472703 0)
(0.36850201 0.10243849 0)
(0.34980242 0.10013257 0)
(0.33152196 0.097819772 0)
(0.31365719 0.095503334 0)
(0.29621408 0.093186222 0)
(1.7218688 0.2121268 0)
(1.6852948 0.21028195 0)
(1.6488803 0.20838799 0)
(1.6126476 0.20644913 0)
(1.5766139 0.20446834 0)
(1.5407924 0.20244824 0)
(1.5051963 0.20039171 0)