/*--------------------------------*- C++ -*----------------------------------*\
| =========                 |                                                 |
| \\      /  F ield         | OpenFOAM: The Open Source CFD Toolbox           |
|  \\    /   O peration     | Version:  2312                                  |
|   \\  /    A nd           | Website:  www.openfoam.com                      |
|    \\/     M anipulation  |                                                 |
\*---------------------------------------------------------------------------*/
FoamFile
{
    version     2.0;
    format      ascii;
    arch        "LSB;label=32;scalar=64";
    class       volScalarField;
    location    "0.04";
    object      f_Bilger;
}
// * * * * * * * * * * * * * * * * * * * * * * * * * * * * * * * * * * * * * //

dimensions      [0 0 0 0 0 0 0];

internalField   nonuniform List<scalar> 
3224
(
0.0017341693
0.0016008905
0.0014772399
0.0013625852
0.001256331
0.0011579118
0.0010667919
0.00098246453
0.00090445175
0.00083230353
0.00076559683
0.00070393459
0.00064694461
0.00059427845
0.00054561023
0.00050063553
0.0004590702
0.00042064931
0.00038512598
0.00035227036
0.00032186858
0.00029372174
0.000267645
0.00024346659
0.00022102701
0.00020017815
0.00018078253
0.00016271252
0.00014584966
0.00013008399
0.00011531342
0.00010144315
8.838509e-05
7.6057394e-05
6.4383937e-05
5.3293885e-05
4.272127e-05
3.2604606e-05
2.288652e-05
1.3513427e-05
4.4353084e-06
0.0017342671
0.0016010165
0.0014773851
0.0013627386
0.0012564859
0.0011580649
0.0010669411
0.00098260866
0.00090459013
0.00083243577
0.00076572275
0.00070405414
0.00064705785
0.00059438547
0.00054571117
0.00050073057
0.00045915953
0.00042073314
0.00038520451
0.0003523438
0.00032193713
0.00029378562
0.00026770439
0.00024352168
0.00022107799
0.00020022519
0.00018082579
0.00016275215
0.0001458858
0.00013011677
0.00011534297
0.00010146957
8.8408481e-05
7.6077846e-05
6.4401528e-05
5.3308682e-05
4.2733331e-05
3.2613979e-05
2.2893244e-05
1.3517527e-05
4.4367228e-06
0.0017342751
0.0016010695
0.0014774619
0.0013628285
0.0012565831
0.0011581657
0.0010670432
0.00098271058
0.00090469074
0.00083253431
0.00076581865
0.00070414701
0.00064714739
0.00059447149
0.00054579354
0.0005008092
0.00045923441
0.00042080424
0.00038527187
0.00035240745
0.00032199714
0.00029384205
0.00026775731
0.00024357119
0.00022112416
0.0002002681
0.00018086552
0.00016278879
0.00014591943
0.00013014747
0.00011537079
0.00010149458
8.8430745e-05
7.6097408e-05
6.4418432e-05
5.3322962e-05
4.2745016e-05
3.2623088e-05
2.289979e-05
1.3521518e-05
4.4380896e-06
0.001734201
0.0016010509
0.0014774691
0.0013628533
0.0012566205
0.0011582123
0.0010670964
0.00098276851
0.00090475194
0.00083259759
0.00076588309
0.00070421183
0.00064721198
0.00059453534
0.00054585625
0.00050087043
0.00045929388
0.00042086176
0.00038532725
0.00035246058
0.00032204791
0.00029389039
0.00026780318
0.00024361455
0.000221165
0.00020030641
0.00018090131
0.00016282206
0.0001459502
0.00013017574
0.00011539659
0.00010151793
8.8451647e-05
7.6115876e-05
6.4434473e-05
5.3336579e-05
4.2756203e-05
3.2631838e-05
2.290609e-05
1.3525358e-05
4.4394016e-06
0.0018773845
0.0017340861
0.0016009606
0.0014774045
0.0013628105
0.0012565958
0.0011582022
0.0010670984
0.0009827802
0.00090477153
0.00083262353
0.00076591406
0.00070424672
0.00064724982
0.00059457532
0.00054589768
0.00050091271
0.00045933652
0.00042090432
0.00038536939
0.00035250198
0.00032208832
0.0002939296
0.00026784102
0.00024365087
0.00022119967
0.00020033935
0.00018093243
0.0001628513
0.0001459775
0.00013020107
0.0001154199
0.00010153918
8.8470813e-05
7.6132929e-05
6.4449381e-05
5.334931e-05
4.2766722e-05
3.2640105e-05
2.2912066e-05
1.3529009e-05
4.4406512e-06
0.0018772726
0.0017339102
0.0016008045
0.0014772745
0.0013627053
0.0012565124
0.001158138
0.0010670505
0.00098274626
0.00090474945
0.00083261149
0.00076591046
0.00070425017
0.00064725912
0.0005945894
0.00054591562
0.00050093371
0.00045935988
0.00042092945
0.00038539575
0.00035252914
0.00032211589
0.00029395724
0.00026786844
0.00024367783
0.00022122597
0.0002003648
0.00018095688
0.00016287462
0.00014599957
0.00013022178
0.00011543918
0.00010155694
8.8486991e-05
7.6147451e-05
6.4462183e-05
5.3360328e-05
4.2775892e-05
3.2647361e-05
2.2917343e-05
1.353225e-05
4.4417666e-06
0.0018770189
0.0017336745
0.0016005936
0.0014770915
0.0013625497
0.0012563821
0.0011580302
0.0010669625
0.00098267566
0.00090469388
0.00083256891
0.00076587906
0.00070422834
0.00064724543
0.00059458262
0.00054591463
0.00050093755
0.0004593677
0.0004209405
0.0003854094
0.0003525448
0.00032213308
0.00029397552
0.00026788745
0.00024369724
0.00022124549
0.00020038419
0.00018097593
0.00016289313
0.00014601739
0.00013023877
0.0001154552
0.00010157188
8.8500742e-05
7.6159919e-05
6.4473275e-05
5.3369956e-05
4.278397e-05
3.2653801e-05
2.2922059e-05
1.3535161e-05
4.4427762e-06
0.0018766453
0.0017333579
0.0016003089
0.0014768395
0.0013623304
0.0012561935
0.0011578695
0.0010668268
0.00098256195
0.00090459959
0.00083249161
0.00076581657
0.00070417872
0.00064720695
0.00059455372
0.00054589395
0.00050092389
0.00045935998
0.00042093778
0.00038541084
0.00035254968
0.00032214075
0.00029398543
0.0002678991
0.0002437102
0.00022125939
0.00020039869
0.00018099074
0.00016290801
0.0001460321
0.00013025311
0.00011546899
0.00010158497
8.8512978e-05
7.6171166e-05
6.4483407e-05
5.3378851e-05
4.2791511e-05
3.2659873e-05
2.2926547e-05
1.3537954e-05
4.4437548e-06
0.0020303284
0.0018762045
0.001732955
0.0015999426
0.0014765121
0.0013620417
0.0012559415
0.0011576512
0.001066639
0.00098240134
0.00090446311
0.00083237646
0.00076572018
0.00070409877
0.00064714136
0.00059450064
0.00054585172
0.00050089103
0.00045933519
0.0004209199
0.00038539884
0.00035254267
0.00032213792
0.00029398608
0.00026790261
0.00024371602
0.00022126704
0.00020040775
0.00018100084
0.00016291881
0.00014604331
0.00013026448
0.00011548028
0.00010159597
8.852349e-05
7.6181017e-05
6.4492432e-05
5.3386895e-05
4.2798424e-05
3.2665509e-05
2.2930763e-05
1.3540606e-05
4.4446956e-06
0.0020298254
0.0018756707
0.0017324562
0.0015994868
0.001476102
0.0013616773
0.0012556206
0.0011573704
0.0010663946
0.00098218977
0.00090428081
0.00083222016
0.0007655869
0.0007039858
0.00064704626
0.0005944212
0.00054578598
0.00050083723
0.00045929176
0.00042088545
0.00038537215
0.00035252263
0.00032212357
0.00029397656
0.00026789716
0.00024371397
0.0002212678
0.00020041081
0.00018100572
0.0001629251
0.00014605065
0.00013027254
0.00011548877
0.00010160462
8.8532065e-05
7.6189294e-05
6.4500206e-05
5.3393972e-05
4.280462e-05
3.2670644e-05
2.2934661e-05
1.3543092e-05
4.445591e-06
0.002195144
0.0020291665
0.0018750221
0.0017318501
0.0015989322
0.0014756017
0.0013612306
0.0012552248
0.0011570218
0.001066089
0.00098192295
0.00090404881
0.00083201923
0.0007654136
0.00070383698
0.00064691908
0.0005943131
0.00054569465
0.00050076062
0.00045922802
0.00042083295
0.00038532941
0.00035248836
0.00032209662
0.00029395591
0.0002678819
0.0002437033
0.000221261
0.00020040725
0.00018100484
0.00016292641
0.0001460537
0.00013027693
0.00011549415
0.00010161066
8.8538481e-05
7.6195812e-05
6.4506575e-05
5.3399959e-05
4.2810001e-05
3.2675206e-05
2.2938194e-05
1.3545385e-05
4.4464328e-06
0.0021942553
0.0020283431
0.0018742404
0.0017311243
0.001598269
0.0014750027
0.0013606942
0.0012547477
0.0011565996
0.0010657169
0.00098159628
0.00090376296
0.00083176994
0.00076519691
0.00070364929
0.00064675711
0.00059417389
0.00054557555
0.00050065922
0.0004591422
0.00042076079
0.00038526921
0.00035243859
0.00032205594
0.00029392311
0.00026785592
0.00024368319
0.00022124593
0.00020039645
0.00018099766
0.00016292225
0.00014605204
0.00013027729
0.0001154961
0.00010161382
8.8542503e-05
7.6200372e-05
6.4511377e-05
5.3404725e-05
4.2814468e-05
3.2679121e-05
2.2941309e-05
1.3547455e-05
4.4472117e-06
0.0023716121
0.0021931661
0.0020273428
0.0018733091
0.0017302661
0.0015974868
0.0014742961
0.0013600604
0.0012541824
0.0011560977
0.0010652729
0.00098120481
0.00090341883
0.00083146828
0.00076493323
0.00070341949
0.00064655744
0.00059400096
0.00054542631
0.00050053094
0.00045903241
0.00042066727
0.00038519001
0.00035237196
0.0003220003
0.00029387708
0.00026781825
0.00024365279
0.0002212218
0.00020037773
0.00018098357
0.0001629121
0.0001460452
0.0001302732
0.00011549428
0.0001016138
8.8543875e-05
7.6202762e-05
6.4514436e-05
5.3408128e-05
4.2817909e-05
3.2682305e-05
2.2943951e-05
1.354927e-05
4.4479178e-06
0.0023701591
0.0021918601
0.0020261511
0.0018722128
0.0017292624
0.0015965744
0.0014734722
0.0013593208
0.0012535215
0.0011555095
0.0010647511
0.00098074325
0.00090301165
0.00083110998
0.00076461873
0.00070314411
0.00064631695
0.00059379152
0.00054524443
0.0005003735
0.00045889661
0.00042055059
0.0003850902
0.00035228701
0.00032192841
0.00029381665
0.00026776786
0.00024361116
0.00022118781
0.00020035036
0.00018096193
0.00016289537
0.00014603268
0.00013026425
0.00011548829
0.00010161027
8.8542323e-05
7.620275e-05
6.4515562e-05
5.3410015e-05
4.2820204e-05
3.268467e-05
2.2946059e-05
1.3550795e-05
4.4485396e-06
0.0025599883
0.002368451
0.002190321
0.0020247527
0.0018709361
0.0017280994
0.0015955198
0.0014725208
0.0013584662
0.0012527571
0.0011548278
0.0010641451
0.00098020593
0.00090253633
0.00083069046
0.00076424928
0.00070281947
0.00064603232
0.00059354256
0.00054502722
0.0005001845
0.00045873263
0.0004204088
0.00038496802
0.00035218217
0.00032183886
0.00029374057
0.00026770362
0.00024355731
0.00022114306
0.00020031356
0.00018093204
0.00016287148
0.00014601395
0.00013024994
0.00011547775
0.00010160289
8.8537552e-05
7.6200088e-05
6.4514547e-05
5.3410219e-05
4.2821222e-05
3.2686118e-05
2.2947565e-05
1.3551992e-05
4.4490649e-06
0.0025577697
0.0023664634
0.0021885307
0.0020231316
0.0018694636
0.0017267631
0.0015943108
0.0014714308
0.0013574872
0.0012518804
0.0011540452
0.0010634482
0.00097958678
0.00090198744
0.00083020484
0.00076382048
0.0007024416
0.0006457
0.0005932509
0.00054477181
0.00049996135
0.00045853817
0.0004202398
0.00038482162
0.00035205577
0.00032173016
0.00029364751
0.00026762435
0.00024349019
0.00022108662
0.00020026649
0.00018089317
0.00016283976
0.00014598844
0.0001302298
0.00011546222
0.00010159128
8.8529241e-05
7.6194506e-05
6.451117e-05
5.3408559e-05
4.2820821e-05
3.2686543e-05
2.2948396e-05
1.3552818e-05
4.44948e-06
0.0027605111
0.0025552224
0.0023641748
0.0021864706
0.0020212708
0.0018677793
0.001725239
0.0015929342
0.0014701909
0.0013563734
0.0012508826
0.0011531535
0.0010626531
0.00097887931
0.00090135915
0.00082964789
0.00076332765
0.00070200628
0.00064531618
0.00059291312
0.00054447512
0.0004997013
0.00045831074
0.00042004139
0.00038464899
0.00035190603
0.00032160071
0.00029353603
0.00026752877
0.00024340865
0.00022101747
0.00020020825
0.00018084451
0.0001627995
0.00014595553
0.00013020328
0.00011544122
0.00010157504
8.8517045e-05
7.6185713e-05
6.4505188e-05
5.3404838e-05
4.2818847e-05
3.2685828e-05
2.2948473e-05
1.3553226e-05
4.4497701e-06
0.002757271
0.0025523072
0.0023615618
0.0021841214
0.0020191528
0.0018658667
0.0017235118
0.0015913765
0.0014687886
0.0013551139
0.0012497539
0.0011521441
0.0010617522
0.0009780766
0.00090064524
0.00082901402
0.00076276577
0.00070150901
0.00064487681
0.00059252557
0.00054413388
0.0004994014
0.0004580477
0.00041981119
0.00038444802
0.00035173103
0.0003214488
0.0002934046
0.00026741551
0.00024331148
0.00022093452
0.00020013788
0.00018078522
0.00016274997
0.00014591455
0.00013016979
0.00011541426
0.00010155373
8.8500593e-05
7.6173396e-05
6.4496341e-05
5.3398846e-05
4.2815134e-05
3.268385e-05
2.2947708e-05
1.3553166e-05
4.4499187e-06
0.0027535255
0.0025489966
0.0023586023
0.0021814632
0.0020167592
0.0018637085
0.0017215657
0.0015896232
0.0014672113
0.0013536974
0.001248484
0.0011510077
0.0010607371
0.0009771713
0.00089983912
0.00082829731
0.00076212949
0.00070094499
0.00064437758
0.00059208437
0.0005437446
0.00049905852
0.00045774624
0.00041954667
0.00038421642
0.00035152875
0.00032127261
0.0002932516
0.00026728311
0.00024319737
0.00022083663
0.00020005434
0.00018071438
0.00016269034
0.00014586481
0.00013012873
0.0001153808
0.00010152689
8.8479486e-05
7.6157217e-05
6.4484348e-05
5.3390352e-05
4.28095e-05
3.2680471e-05
2.2946008e-05
1.3552583e-05
4.4499083e-06
0.0027493019
0.0025452773
0.0023552761
0.0021784757
0.0020140708
0.0018612869
0.0017193843
0.0015876594
0.0014654453
0.0013521115
0.0012470621
0.0011497347
0.0010595991
0.00097615556
0.00089893376
0.00082749144
0.00076141316
0.00070030911
0.00064381391
0.00059158541
0.00054330358
0.00049866931
0.00045740335
0.00041924513
0.00038395178
0.00035129702
0.00032107019
0.00029307529
0.00026713002
0.00024306493
0.00022072254
0.00019995654
0.00018063103
0.00016261977
0.00014580553
0.00013007942
0.00011534025
0.00010149401
8.8453295e-05
7.6136814e-05
6.4468907e-05
5.3379112e-05
4.2801751e-05
3.2675546e-05
2.2943271e-05
1.3551419e-05
4.4497196e-06
0.0029629758
0.0027446744
0.0025411365
0.0023515621
0.0021751379
0.0020110676
0.0018585832
0.0017169503
0.0015854693
0.0014634766
0.0013503437
0.0012454767
0.0011483148
0.0010583291
0.00097502111
0.0008979217
0.00082658971
0.00076061074
0.00069959596
0.0006431809
0.00059102429
0.00054280686
0.00049823025
0.00045701585
0.00041890372
0.00038365153
0.00035103352
0.00032083947
0.0002928738
0.00026695458
0.00024291269
0.00022059095
0.00019984331
0.00018053411
0.00016253733
0.00014573592
0.00013002115
0.00011529199
0.00010145456
8.8421562e-05
7.6111797e-05
6.4449693e-05
5.336486e-05
4.2791678e-05
3.2668917e-05
2.2939388e-05
1.3549609e-05
4.4493318e-06
0.0029573434
0.0027395752
0.0025365482
0.0023474367
0.0021714274
0.0020077286
0.001855578
0.0017142458
0.0015830367
0.0014612901
0.0013483804
0.0012437157
0.0011467371
0.0010569173
0.00097375918
0.00089679507
0.00082558504
0.00075971586
0.0006987998
0.00064247342
0.00059039637
0.00054225027
0.00049773755
0.00045658035
0.00041851939
0.00038331295
0.00035073581
0.00032057827
0.00029264518
0.00026675504
0.00024273908
0.00022044045
0.0001997134
0.00018042252
0.00016244204
0.00014565511
0.00012995317
0.00011523538
0.00010140797
8.8383794e-05
7.6081749e-05
6.4426359e-05
5.3347312e-05
4.2779056e-05
3.2660414e-05
2.293424e-05
1.3547083e-05
4.4487225e-06
0.0034335898
0.0031839489
0.0029511513
0.0027339595
0.0025314816
0.002342874
0.0021673202
0.0020040318
0.0018522509
0.0017112522
0.0015803444
0.0014588705
0.0013462077
0.0012417665
0.0011449902
0.0010553533
0.00097236052
0.00089554555
0.00082446993
0.00075872178
0.00069791457
0.00064168598
0.00058969673
0.00054162938
0.00049718726
0.00045609328
0.00041808893
0.00038293314
0.00035040129
0.00032028425
0.00029238735
0.00026652953
0.00024254243
0.00022026955
0.00019956548
0.00018029509
0.00016233286
0.00014556217
0.00012987468
0.00011516969
0.00010135364
8.8339469e-05
7.6046227e-05
6.4398534e-05
5.3326165e-05
4.2763643e-05
3.2649854e-05
2.2927701e-05
1.3543769e-05
4.4478676e-06
0.0036915559
0.0034252508
0.0031764797
0.0029443369
0.0027277831
0.0025259036
0.0023378458
0.0021627912
0.0019999541
0.0018485806
0.0017079499
0.0015773746
0.0014562015
0.0013438107
0.0012396158
0.0011430622
0.0010536265
0.00097081541
0.00089416438
0.00082323652
0.0007576214
0.00069693387
0.00064081285
0.00058892019
0.00054093954
0.00049657516
0.00045555087
0.00041760894
0.00038250904
0.00035002723
0.00031995494
0.00029209808
0.00026627606
0.00024232096
0.00022007668
0.00019939815
0.00018015057
0.00016220868
0.00014545614
0.0001297848
0.0001150942
0.0001012909
8.8288029e-05
7.6004757e-05
6.436582e-05
5.3301094e-05
4.2745183e-05
3.2637044e-05
2.2919636e-05
1.3539585e-05
4.4467412e-06
0.0036814441
0.0034160981
0.003168226
0.0029368524
0.0027210042
0.0025197794
0.0023323224
0.0021578138
0.0019954713
0.001844545
0.0017043186
0.0015741088
0.0014532662
0.0013411743
0.0012372497
0.0011409404
0.0010517255
0.00096911366
0.00089264237
0.00082187651
0.00075640727
0.00069585098
0.00063984795
0.0005880613
0.00054017582
0.00049589683
0.00045494912
0.00041707584
0.00038203744
0.00034961072
0.00031958777
0.00029177506
0.00026599256
0.00024207282
0.00021986018
0.00019920993
0.00017998763
0.00016206835
0.00014533598
0.00012968265
0.00011500809
0.00010121907
8.8228881e-05
7.5956835e-05
6.4327798e-05
5.3271753e-05
4.2723401e-05
3.2621776e-05
2.29099e-05
1.3534449e-05
4.4453156e-06
0.0036703294
0.0034060624
0.0031591599
0.002928649
0.0027135872
0.0025130787
0.002326273
0.0021523603
0.0019905581
0.0018401211
0.0017003372
0.0015705277
0.0014500471
0.0013382826
0.0012346538
0.0011386119
0.0010496385
0.00096724464
0.00089096994
0.00082038125
0.00075507156
0.00069465885
0.00063878495
0.00058711433
0.00053933306
0.00049514763
0.00045428386
0.00041648586
0.00038151496
0.00034914873
0.00031917998
0.00029141584
0.00026567683
0.00024179604
0.00021961827
0.00019899925
0.0001798049
0.00016191061
0.0001452006
0.00012956726
0.00011491054
0.00010113743
8.8161399e-05
7.5901928e-05
6.4284019e-05
5.3237777e-05
4.2698007e-05
3.2603829e-05
2.2898339e-05
1.3528268e-05
4.4435613e-06
0.0036581883
0.0033950968
0.0031492486
0.0029196848
0.0027054836
0.0025057612
0.0023196698
0.002146402
0.0019851886
0.0018352851
0.0016959841
0.0015666116
0.0014465261
0.001335119
0.0012318132
0.0011360632
0.0010473533
0.00096519724
0.00088913705
0.00081874168
0.00075360612
0.00069335013
0.00063761718
0.00058607329
0.00053840588
0.00049432269
0.0004535507
0.00041583505
0.00038093803
0.00034863806
0.00031872872
0.00029101783
0.00026532656
0.00024148856
0.00021934913
0.00019876446
0.00017960089
0.00016173418
0.00014504886
0.00012943761
0.00011480065
0.0001010452
8.8084921e-05
7.5839472e-05
6.4234011e-05
5.3198778e-05
4.2668691e-05
3.258297e-05
2.2884789e-05
1.3520948e-05
4.441447e-06
0.003644982
0.0033831583
0.0031384531
0.0029099218
0.0026966575
0.0024977875
0.0023124742
0.0021399133
0.0019793357
0.0018300123
0.0016912368
0.0015623398
0.0014426845
0.0013316665
0.0012287124
0.0011332801
0.0010448571
0.00096296
0.00088713332
0.00081694843
0.00075200245
0.00069191714
0.00063633775
0.00058493194
0.00053738863
0.00049341693
0.00045274507
0.00041511931
0.00038030296
0.00034807538
0.00031823098
0.00029057835
0.00026493934
0.00024114821
0.00021905081
0.00019850385
0.00017937409
0.00016153769
0.00014487955
0.00012929265
0.00011467751
0.00010094157
8.799875e-05
7.5768874e-05
6.4177278e-05
5.3154347e-05
4.2635129e-05
3.2558951e-05
2.2869079e-05
1.3512386e-05
4.4389395e-06
0.003630665
0.0033702028
0.0031267315
0.0028993189
0.0026870708
0.0024891251
0.0023046525
0.0021328574
0.0019729762
0.0018242777
0.0016860723
0.0015576914
0.0014385032
0.0013279076
0.0012253355
0.0011302483
0.0010421369
0.00096052102
0.000884948
0.00081499177
0.00075025179
0.00069035195
0.00063493948
0.0005836838
0.00053627547
0.00049242509
0.00045186221
0.00041433434
0.00037960588
0.00034745721
0.00031768364
0.00029009459
0.00026451265
0.00024077273
0.00021872131
0.0001982156
0.00017912287
0.00016131971
0.0001446914
0.00012913127
0.00011454013
0.00010082571
8.7902156e-05
7.5689512e-05
6.4113295e-05
5.3104055e-05
4.2596978e-05
3.2531512e-05
2.2851026e-05
1.3502476e-05
4.4360037e-06
0.0036151881
0.0033561846
0.0031140406
0.0028878348
0.0026766845
0.0024797376
0.0022961736
0.0021252046
0.0019660747
0.00181806
0.0016804671
0.001552645
0.0014339623
0.0013238245
0.0012216662
0.0011269529
0.0010391792
0.00095786813
0.00088257005
0.00081286169
0.00074834505
0.00068864636
0.00063341495
0.00058232218
0.00053506036
0.0004913417
0.0004508972
0.0004134757
0.0003788428
0.00034677995
0.00031708347
0.00028956365
0.00026404387
0.00024035979
0.00021835851
0.00019789785
0.00017884558
0.00016107877
0.00014448311
0.00012895231
0.0001143875
0.00010069673
8.7794377e-05
7.5600734e-05
6.4041516e-05
5.3047452e-05
4.255388e-05
3.2500382e-05
2.283044e-05
1.3491105e-05
4.4326028e-06
0.0035985002
0.0033410569
0.0031003365
0.0028754281
0.0026654596
0.0024695887
0.0022870041
0.0021169256
0.0019586048
0.0018113252
0.001674402
0.0015471789
0.0014290416
0.0013193988
0.0012176879
0.0011233789
0.0010359704
0.00095498887
0.00087998816
0.00081054794
0.00074627297
0.00068679198
0.00063175657
0.0005808402
0.00053373708
0.00049016114
0.00044984497
0.00041253881
0.00037800958
0.00034603989
0.00031642711
0.0002889825
0.00026353031
0.00023990696
0.00021796026
0.00019754866
0.00017854049
0.00016081333
0.00014425331
0.00012875456
0.00011421858
0.0001005537
8.767462e-05
7.5501864e-05
6.3961374e-05
5.298407e-05
4.2505461e-05
3.2465276e-05
2.2807122e-05
1.3478156e-05
4.4286982e-06
0.0035805494
0.0033247721
0.003085575
0.0028620574
0.0026533573
0.0024586424
0.0022771104
0.0021079896
0.0019505393
0.0018040503
0.0016678448
0.0015412761
0.0014237259
0.0013146124
0.001213384
0.001119511
0.0010324964
0.0009518706
0.00087719085
0.00080804011
0.0007440261
0.00068478022
0.00062995657
0.00057923084
0.00053229928
0.00048887769
0.00044870033
0.00041151901
0.00037710201
0.00034523321
0.00031571114
0.00028834807
0.00026296918
0.00023941174
0.00021752432
0.00019716602
0.00017820581
0.00016052179
0.00014400061
0.0001285368
0.00011403226
0.00010039569
8.7542066e-05
7.5392203e-05
6.3872277e-05
5.2913423e-05
4.2451334e-05
3.24259e-05
2.2780866e-05
1.3463508e-05
4.4242501e-06
0.0035612838
0.0033072828
0.0030697122
0.0028476817
0.0026403394
0.0024468631
0.0022664597
0.0020983662
0.0019418501
0.00179621
0.001660775
0.0015349053
0.0014179918
0.0013094512
0.0012087376
0.0011153339
0.0010287434
0.00094850058
0.00087416654
0.00080532767
0.00074159486
0.00068260243
0.0006280071
0.00057748697
0.00053074051
0.00048748549
0.00044745801
0.0004104115
0.00037611577
0.00034435604
0.00031493205
0.0002876572
0.00026235766
0.00023887161
0.00021704841
0.00019674791
0.00017783973
0.00016020255
0.00014372355
0.00012829775
0.00011382744
0.00010022171
8.7395873e-05
7.5271029e-05
6.3773622e-05
5.2835013e-05
4.23911e-05
3.2381949e-05
2.2751457e-05
1.3447033e-05
4.4192167e-06
0.0035406526
0.0032885424
0.0030527049
0.0028322608
0.0026263685
0.0024342159
0.0022550194
0.0020880253
0.0019325096
0.0017877788
0.0016531696
0.0015280491
0.0014118147
0.001303893
0.0012037364
0.0011108324
0.0010246974
0.00094486612
0.00087090365
0.00080240009
0.0007389697
0.0006802499
0.00062590025
0.00057560144
0.00052905427
0.00048597867
0.00044611268
0.00040921149
0.00037504652
0.00034340444
0.00031408631
0.0002869067
0.00026169288
0.00023828396
0.00021653021
0.00019629225
0.00017744038
0.00015985396
0.00014342069
0.00012803611
0.00011360299
0.00010003078
8.7235182e-05
7.5137609e-05
6.3664787e-05
5.2748329e-05
4.232435e-05
3.2333111e-05
2.2718678e-05
1.3428602e-05
4.4135557e-06
0.003518607
0.0032685057
0.0030345115
0.0028157559
0.0026114085
0.0024206671
0.0022427584
0.002076938
0.0019224909
0.0017787319
0.0016450057
0.0015206868
0.0014051793
0.0012979163
0.0011983596
0.0011059958
0.0010203448
0.00094095473
0.00086739076
0.00079924694
0.00073614111
0.000677714
0.00062362819
0.00057356712
0.00052723411
0.00048435137
0.00044465902
0.00040791417
0.00037388991
0.00034237448
0.00031317036
0.00028609338
0.00026097194
0.00023764622
0.0002159674
0.00019579695
0.00017700592
0.00015947434
0.00014309054
0.00012775059
0.00011335774
9.9821892e-05
8.7059123e-05
7.4991198e-05
6.3545146e-05
5.2652851e-05
4.2250669e-05
3.227907e-05
2.2682305e-05
1.3408084e-05
4.4072234e-06
0.0034951009
0.0032471304
0.0030150924
0.0027981305
0.0025954251
0.002406185
0.0022296471
0.0020650768
0.0019117685
0.0017690458
0.0016362616
0.0015127982
0.0013980668
0.0012915075
0.0011925883
0.0011008049
0.0010156765
0.00093675428
0.00086361676
0.00079585805
0.00073309981
0.00067498626
0.00062118319
0.00057137699
0.00052527364
0.0004825978
0.00044309181
0.00040651477
0.00037264163
0.00034126228
0.00031218068
0.00028521405
0.000260192
0.00023695581
0.00021535767
0.00019525993
0.00017653448
0.00015906205
0.00014273163
0.00012743987
0.00011309055
9.9594039e-05
8.6866826e-05
7.4831048e-05
6.3414067e-05
5.2548059e-05
4.216964e-05
3.2219507e-05
2.2642114e-05
1.3385346e-05
4.4001759e-06
0.0034700924
0.0032243773
0.0029944114
0.0027793505
0.0025783868
0.00239074
0.0022156579
0.002052416
0.0019003185
0.0017586981
0.0016269165
0.0015043641
0.0013904597
0.0012846505
0.001186411
0.0010952431
0.0010106749
0.00093225723
0.00085957103
0.00079222368
0.00072983687
0.00067205852
0.00061855783
0.00056902428
0.00052316671
0.00048071236
0.00044140594
0.00040500868
0.0003712975
0.00034006403
0.00031111385
0.00028426561
0.00025935024
0.0002362102
0.00021469873
0.00019467916
0.00017602423
0.00015861545
0.0001423425
0.00012710267
0.00011280029
9.934623e-05
8.6657428e-05
7.4656421e-05
6.3270926e-05
5.2433436e-05
4.2080846e-05
3.2154105e-05
2.2597881e-05
1.3360255e-05
4.3923693e-06
0.0034435444
0.003200212
0.0029724363
0.002759386
0.0025602653
0.0023743058
0.0022007661
0.0020389325
0.0018881192
0.0017476688
0.0016169518
0.0014953672
0.0013823418
0.0012773301
0.0011798138
0.001089301
0.0010053259
0.00092744784
0.00085524763
0.00078833471
0.00072634391
0.0006689231
0.00061574506
0.00056650256
0.00052090744
0.0004786897
0.00043959654
0.00040339148
0.00036985349
0.0003387761
0.00030996656
0.00028324508
0.00025844397
0.00023540695
0.0002139884
0.00019405267
0.00017547341
0.00015813296
0.00014192176
0.00012673775
0.00011248586
9.9077498e-05
8.6430089e-05
7.4466593e-05
6.311511e-05
5.2308474e-05
4.1983882e-05
3.2082551e-05
2.2549387e-05
1.3332679e-05
4.3837602e-06
0.0034154265
0.0031746058
0.0029491401
0.0027382115
0.0025410368
0.0023568597
0.0021849504
0.0020246063
0.001875152
0.0017359402
0.0016063509
0.001485792
0.0013736986
0.001269533
0.0011727841
0.001082967
0.0009996219
0.00092231405
0.00085063249
0.00078418677
0.0007226133
0.00066557297
0.00061273842
0.00056380589
0.00051849041
0.00047652486
0.00043765909
0.00040165904
0.00036830586
0.00033739506
0.00030873572
0.00028214964
0.00025747065
0.00023454378
0.00021322461
0.00019337859
0.00017488034
0.00015761309
0.00014146805
0.0001263439
0.00011214619
9.878692e-05
8.6184005e-05
7.4260874e-05
6.2946034e-05
5.2172687e-05
4.1878355e-05
3.2004544e-05
2.2496418e-05
1.3302493e-05
4.3743065e-06
0.0033857161
0.003147537
0.0029245022
0.0027158074
0.0025206827
0.0023383841
0.0021681941
0.0020094213
0.0018614017
0.001723498
0.0015951004
0.0014756257
0.0013645181
0.0012612479
0.0011653116
0.0010762312
0.0009935537
0.00091685033
0.00084571578
0.00077976747
0.0007186422
0.00066200194
0.0006095322
0.00056092903
0.00051591079
0.00047421341
0.00043558954
0.00039980766
0.00036665122
0.00033591785
0.00030741851
0.00028097676
0.00025642796
0.00023361858
0.00021240546
0.00019265521
0.00017424348
0.00015705444
0.00014098015
0.00012592003
0.00011178033
9.8473637e-05
8.5918427e-05
7.4038616e-05
6.276315e-05
5.2025619e-05
4.1763898e-05
3.1919802e-05
2.2438774e-05
1.3269576e-05
4.3639683e-06
0.0033543998
0.0031189927
0.0028985099
0.0026921614
0.0024991907
0.0023188672
0.0021504855
0.0019933665
0.0018468574
0.0017103318
0.0015831901
0.0014648589
0.0013547913
0.0012524661
0.0011573878
0.0010690858
0.00098711398
0.00091104982
0.00084049394
0.00077506919
0.0007144199
0.00065820869
0.00060612168
0.00055786759
0.00051316452
0.00047175161
0.00043338444
0.00039783416
0.00036488667
0.00033434179
0.00030601252
0.00027972421
0.00025531389
0.00023262952
0.00021152929
0.00019188102
0.00017356147
0.0001564558
0.00014045696
0.00012546517
0.00011138739
9.8136881e-05
8.5632683e-05
7.3799239e-05
6.2565959e-05
5.1866855e-05
4.1640174e-05
3.1828066e-05
2.2376272e-05
1.3233819e-05
4.3527085e-06
0.0033214755
0.0030889701
0.0028711598
0.0026672695
0.0024765567
0.0022983042
0.0021318197
0.0019764365
0.0018315136
0.0016964359
0.0015706144
0.0014534857
0.0013445124
0.0012431821
0.0011490075
0.0010615257
0.00098029775
0.00090490774
0.00083496241
0.00077009031
0.00070994097
0.00065418418
0.00060250701
0.00055461826
0.0005102485
0.00046913657
0.00043104111
0.00039573607
0.00036300991
0.00033266478
0.00030451579
0.00027839021
0.00025412681
0.00023157511
0.00021059474
0.00019105479
0.00017283319
0.00015581615
0.00013989756
0.00012497848
0.00011096665
9.7776e-05
8.5326201e-05
7.3542244e-05
6.2354038e-05
5.1696039e-05
4.1506894e-05
3.1729111e-05
2.2308749e-05
1.3195124e-05
4.3404947e-06
0.0032869541
0.0030574781
0.0028424595
0.0026411379
0.0024527854
0.0022766988
0.0021121992
0.0019586329
0.0018153711
0.0016818104
0.0015573727
0.0014415052
0.00133368
0.0012333941
0.0011401687
0.0010535488
0.00097310278
0.00089842179
0.0008291189
0.00076482853
0.00070520569
0.00064992516
0.00059868078
0.00055118263
0.00050716085
0.00046636648
0.00042855782
0.00039351175
0.0003610194
0.00033088538
0.00030292698
0.00027697351
0.00025286555
0.00023045427
0.00020960081
0.00019017561
0.00017205781
0.00015513473
0.00013930126
0.00012445934
0.00011051754
9.7390494e-05
8.4998537e-05
7.3267243e-05
6.2127051e-05
5.1512887e-05
4.1363825e-05
3.1622754e-05
2.2236075e-05
1.3153411e-05
4.3272996e-06
0.0032508611
0.0030245399
0.0028124297
0.0026137849
0.0024278927
0.0022540645
0.0020916356
0.0019399654
0.001798438
0.0016664619
0.0015434706
0.0014289218
0.0013222978
0.001223105
0.0011308735
0.0010451565
0.00096553017
0.00089159269
0.00082296379
0.00075928401
0.000700214
0.00064543377
0.00059464194
0.00054755494
0.00050390453
0.00046344081
0.000425934
0.00039116062
0.00035891456
0.00032900298
0.0003012455
0.00027547353
0.00025152955
0.00022926648
0.000208547
0.00018924299
0.00017123488
0.00015441112
0.00013866766
0.00012390739
0.00011003972
9.6980052e-05
8.4649408e-05
7.2973984e-05
6.1884774e-05
5.1317208e-05
4.1210808e-05
3.150887e-05
2.2158158e-05
1.3108624e-05
4.3131034e-06
0.0032132392
0.0029901949
0.0027811062
0.0025852425
0.002401907
0.0022304264
0.0020701507
0.0019204532
0.001780731
0.0016504051
0.0015289206
0.0014157464
0.0013103751
0.0012123228
0.0011211288
0.0010363548
0.00095758493
0.0008844247
0.00081650069
0.00075345977
0.00069496845
0.00064071214
0.00059039441
0.00054373628
0.00050047542
0.0004603639
0.0004231705
0.00038868333
0.0003566959
0.000327018
0.00029947167
0.0002738905
0.00025011898
0.00022801182
0.00020743337
0.00018825696
0.00017036437
0.00015364528
0.00013799671
0.00012332256
0.00010953311
9.6544591e-05
8.427873e-05
7.2662381e-05
6.1627126e-05
5.1108924e-05