/*--------------------------------*- C++ -*----------------------------------*\
| =========                 |                                                 |
| \\      /  F ield         | OpenFOAM: The Open Source CFD Toolbox           |
|  \\    /   O peration     | Version:  2312                                  |
|   \\  /    A nd           | Website:  www.openfoam.com                      |
|    \\/     M anipulation  |                                                 |
\*---------------------------------------------------------------------------*/
FoamFile
{
    version     2.0;
    format      ascii;
    arch        "LSB;label=32;scalar=64";
    class       volScalarField;
    location    "0.04";
    object      nut;
}
// * * * * * * * * * * * * * * * * * * * * * * * * * * * * * * * * * * * * * //

dimensions      [0 2 -1 0 0 0 0];

internalField   nonuniform List<scalar> 
3224
(
0.038879925
0.03917253
0.039470971
0.039775327
0.040085677
0.040402076
0.040724561
0.041053158
0.041387882
0.041728739
0.042075727
0.042428837
0.042788054
0.043153358
0.043524723
0.043902118
0.04428551
0.04467486
0.045070127
0.045471266
0.045878229
0.046290966
0.046709424
0.047133548
0.047563281
0.047998565
0.048439338
0.048885538
0.049337103
0.049793967
0.050256065
0.050723329
0.051195694
0.05167309
0.05215545
0.052642707
0.053134795
0.053631649
0.054133207
0.054639417
0.055150471
0.038881104
0.039173953
0.039472544
0.039776988
0.040087394
0.040403831
0.040726345
0.041054964
0.041389705
0.041730575
0.042077574
0.042430693
0.042789918
0.043155227
0.043526598
0.043903998
0.044287394
0.044676747
0.045072017
0.045473159
0.045880124
0.046292863
0.046711323
0.047135449
0.047565184
0.048000469
0.048441244
0.048887446
0.049339011
0.049795877
0.050257975
0.050725241
0.051197605
0.051675002
0.052157362
0.052644619
0.053136706
0.053633559
0.054135116
0.054641303
0.055152166
0.038882495
0.039175595
0.039474298
0.039778805
0.040089248
0.040405708
0.040728235
0.041056862
0.041391608
0.041732479
0.042079478
0.042432595
0.042791817
0.043157123
0.043528489
0.043905885
0.044289277
0.044678626
0.045073891
0.045475028
0.045881989
0.046294723
0.046713179
0.047137301
0.047567031
0.048002313
0.048443084
0.048889282
0.049340845
0.049797707
0.050259802
0.050727065
0.051199426
0.05167682
0.052159176
0.052646429
0.053138511
0.05363536
0.054136911
0.054643084
0.055153725
0.038884063
0.039177384
0.039476156
0.039780695
0.040091154
0.040407618
0.040730144
0.041058764
0.041393501
0.041734362
0.042081348
0.042434452
0.042793661
0.043158954
0.043530306
0.043907688
0.044291066
0.044680402
0.045075655
0.045476779
0.045883729
0.046296452
0.046714897
0.047139008
0.04756873
0.048004002
0.048444764
0.048890955
0.04934251
0.049799365
0.050261453
0.050728709
0.051201064
0.051678451
0.052160801
0.052648046
0.05314012
0.053636958
0.054138498
0.054644664
0.055155104
0.038598085
0.038886028
0.039179308
0.039478087
0.039782626
0.040093076
0.040409527
0.040732034
0.041060633
0.041395347
0.041736185
0.042083147
0.042436227
0.042795411
0.04316068
0.043532009
0.043909368
0.044292724
0.044682039
0.04507727
0.045478375
0.045885305
0.04629801
0.046716438
0.047140533
0.047570239
0.048005497
0.048446246
0.048892424
0.049343967
0.04980081
0.050262888
0.050730134
0.051202479
0.051679855
0.052162195
0.052649429
0.053141491
0.053638314
0.054139838
0.054645994
0.055156274
0.038600606
0.038888072
0.03918123
0.039479966
0.039784474
0.040094894
0.040411313
0.040733787
0.041062353
0.041397032
0.041737836
0.042084764
0.04243781
0.042796961
0.043162198
0.043533496
0.043910824
0.044294151
0.044683437
0.045078641
0.04547972
0.045886625
0.046299307
0.046717713
0.047141787
0.047571473
0.048006712
0.048447443
0.048893605
0.049345132
0.049801962
0.050264026
0.050731258
0.051203591
0.051680955
0.052163281
0.052650502
0.053142549
0.053639355
0.054140857
0.054647003
0.055157165
0.038602782
0.038890105
0.039183127
0.039481789
0.039786244
0.040096617
0.04041299
0.04073542
0.041063941
0.041398577
0.041739338
0.042086224
0.042439229
0.04279834
0.043163538
0.043534798
0.04391209
0.044295382
0.044684634
0.045079807
0.045480855
0.045887731
0.046300385
0.046718764
0.047142814
0.047572476
0.048007694
0.048448405
0.048894547
0.049346057
0.049802869
0.050264917
0.050732135
0.051204452
0.051681802
0.052164115
0.05265132
0.05314335
0.053640137
0.054141615
0.054647738
0.055157822
0.038604984
0.038892271
0.039185143
0.039483701
0.039788078
0.040098382
0.040414693
0.040737063
0.041065527
0.041400107
0.041740812
0.042087645
0.042440599
0.04279966
0.043164809
0.043536022
0.043913269
0.044296517
0.044685728
0.04508086
0.04548187
0.045888711
0.04630133
0.046719677
0.047143697
0.047573331
0.048008521
0.048449207
0.048895326
0.049346814
0.049803606
0.050265635
0.050732834
0.051205134
0.051682466
0.052164761
0.052651949
0.05314396
0.053640724
0.054142173
0.054648265
0.055158287
0.038325931
0.038607523
0.038894587
0.039187276
0.039485701
0.039789973
0.040100189
0.040416419
0.040738713
0.041067104
0.041401614
0.041742252
0.042089019
0.04244191
0.042800909
0.043165999
0.043537155
0.043914348
0.044297543
0.044686704
0.045081789
0.045482753
0.04588955
0.046302129
0.046720437
0.04714442
0.04757402
0.048009178
0.048449834
0.048895924
0.049347386
0.049804153
0.050266159
0.050733336
0.051205616
0.051682928
0.052165203
0.05265237
0.053144358
0.053641096
0.054142514
0.054648568
0.055158537
0.038329229
0.038610285
0.038897049
0.039189523
0.039487786
0.039791929
0.040102034
0.040418164
0.040740364
0.041068667
0.041403092
0.041743649
0.042090338
0.042443152
0.042802079
0.043167099
0.043538187
0.043915315
0.044298448
0.044687549
0.045082577
0.045483488
0.045890233
0.046302763
0.046721026
0.047144965
0.047574525
0.048009645
0.048450265
0.048896323
0.049347753
0.049804492
0.050266471
0.050733622
0.051205878
0.051683166
0.052165418
0.052652561
0.053144523
0.053641233
0.054142617
0.054648628
0.055158549
0.038058654
0.038332658
0.038613219
0.038899649
0.039191877
0.039489952
0.039793942
0.040103913
0.040419923
0.040742012
0.04107021
0.041404534
0.041744995
0.042091591
0.042444317
0.042803158
0.043168095
0.043539104
0.043916156
0.044299216
0.044688248
0.04508321
0.045484057
0.045890743
0.046303216
0.046721425
0.047145315
0.047574827
0.048009903
0.048450482
0.048896501
0.049347896
0.049804601
0.050266548
0.050733671
0.051205898
0.051683159
0.052165384
0.0526525
0.053144434
0.053641112
0.054142459
0.054648424
0.055158301
0.038062432
0.03833618
0.038616293
0.038902374
0.039194335
0.039492196
0.039796007
0.040105823
0.040421691
0.040743649
0.041071724
0.041405932
0.04174628
0.042092769
0.042445391
0.042804133
0.043168975
0.043539892
0.043916856
0.044299832
0.044688784
0.045083669
0.045484444
0.045891061
0.046303469
0.046721616
0.047145448
0.047574906
0.048009931
0.048450462
0.048896437
0.049347791
0.049804457
0.050266369
0.050733458
0.051205653
0.051682884
0.052165079
0.052652165
0.053144067
0.053640711
0.054142019
0.054647935
0.055157769
0.037799538
0.038066389
0.038339797
0.038619489
0.038905214
0.039196887
0.039494511
0.039798119
0.040107757
0.040423462
0.04074527
0.041073202
0.041407275
0.041747494
0.04209386
0.042446363
0.042804991
0.043169724
0.043540537
0.0439174
0.04430028
0.04468914
0.045083938
0.045484629
0.045891167
0.046303501
0.046721579
0.047145344
0.04757474
0.048009707
0.048450184
0.048896109
0.049347416
0.049804038
0.05026591
0.05073296
0.05120512
0.051682316
0.052164478
0.05265153
0.053143398
0.053640005
0.054141272
0.054647137
0.055156928
0.037803811
0.038070462
0.038343508
0.038622796
0.03890816
0.039199528
0.039496891
0.039800274
0.040109709
0.04042523
0.040746865
0.041074636
0.041408555
0.041748628
0.042094852
0.042447221
0.042805719
0.043170328
0.043541021
0.043917771
0.044300542
0.044689298
0.045083996
0.045484594
0.045891043
0.046303292
0.04672129
0.04714498
0.047574306
0.048009208
0.048449624
0.048895491
0.049346745
0.049803319
0.050265144
0.050732152
0.051204271
0.05168143
0.052163555
0.052650571
0.053142401
0.053638969
0.054140193
0.054646006
0.055155754
0.037548485
0.037808301
0.038074643
0.038347313
0.038626203
0.038911202
0.039202249
0.039499331
0.039802463
0.040111673
0.040426986
0.040748428
0.041076016
0.041409761
0.041749668
0.042095733
0.04244795
0.042806302
0.043170771
0.04354133
0.043917951
0.044300599
0.044689238
0.045083825
0.045484316
0.045890665
0.046302819
0.046720727
0.047144334
0.047573581
0.048008408
0.048448756
0.048894559
0.049345754
0.049802272
0.050264047
0.050731007
0.051203082
0.051680199
0.052162283
0.052649259
0.05314105
0.053637576
0.054138755
0.054644516
0.055154221
0.037553312
0.037812926
0.038078926
0.038351212
0.038629707
0.038914333
0.039205042
0.039501821
0.039804681
0.040113641
0.040428723
0.040749948
0.041077331
0.041410881
0.041750602
0.04209649
0.042448536
0.042806724
0.043171036
0.043541445
0.043917922
0.044300432
0.04468894
0.045083402
0.045483775
0.045890011
0.046302059
0.046719867
0.047143379
0.047572538
0.048007283
0.048447554
0.048893286
0.049344414
0.049800872
0.050262589
0.050729497
0.051201523
0.051678594
0.052160634
0.052647568
0.053139316
0.053635799
0.054136932
0.054642639
0.055152302
0.037305741
0.037558372
0.037817674
0.038083311
0.038355205
0.038633301
0.038917544
0.039207899
0.039504355
0.039806918
0.040115604
0.04043043
0.040751415
0.04107857
0.041411904
0.041751418
0.042097107
0.042448963
0.042806969
0.043171106
0.043541347
0.043917663
0.044300021
0.044688382
0.045082705
0.045482946
0.045889057
0.046300987
0.046718683
0.047142091
0.047571151
0.048005805
0.048445991
0.048891644
0.049342699
0.049799088
0.050260743
0.050727593
0.051199565
0.051676586
0.052158579
0.052645467
0.05313717
0.053633608
0.054134694
0.054640348
0.05514997
0.037311217
0.03756357
0.037822539
0.038087799
0.038359292
0.038636981
0.038920829
0.039210813
0.039506924
0.039809166
0.040117553
0.040432099
0.040752819
0.041079722
0.041412816
0.0417521
0.04209757
0.042449215
0.042807019
0.043170961
0.043541017
0.043917155
0.044299343
0.044687542
0.045081711
0.045481806
0.045887777
0.046299576
0.046717149
0.047140441
0.047569393
0.048003946
0.048444037
0.048889602
0.049340576
0.049796891
0.050258478
0.050725264
0.051197178
0.051674144
0.052156086
0.052642926
0.053134583
0.053630974
0.054132013
0.054637614
0.055147195
0.037316617
0.037568878
0.03782752
0.038092392
0.038363472
0.038640743
0.038924182
0.039213776
0.039509519
0.039811416
0.040119478
0.040433718
0.040754147
0.041080774
0.041413604
0.041752635
0.042097862
0.042449274
0.042806855
0.043170583
0.043540434
0.043916376
0.044298376
0.044686396
0.045080395
0.045480328
0.045886147
0.046297801
0.046715238
0.047138402
0.047567234
0.048001675
0.048441662
0.048887132
0.049338017
0.04979425
0.050255761
0.050722478
0.051194329
0.051671236
0.052153124
0.052639913
0.053131521
0.053627865
0.054128856
0.054634406
0.055143948
0.037322109
0.037574322
0.037832626
0.038097095
0.038367747
0.038644583
0.038927596
0.039216779
0.039512131
0.039813658
0.04012137
0.040435276
0.040755388
0.041081713
0.041414253
0.041753006
0.042097967
0.042449123
0.042806458
0.043169951
0.043539576
0.043915302
0.044297096
0.04468492
0.045078731
0.045478486
0.045884137
0.046295632
0.04671292
0.047135943
0.047564644
0.047998962
0.048438836
0.0488842
0.049334988
0.049791132
0.050252561
0.050719203
0.051190985
0.05166783
0.05214966
0.052636396
0.053127954
0.053624249
0.054125194
0.054630693
0.055140199
0.037082111
0.037328076
0.037579959
0.037837872
0.038101911
0.038372115
0.038648499
0.038931065
0.039219815
0.039514752
0.039815882
0.040123215
0.040436761
0.040756529
0.041082523
0.041414747
0.041753197
0.042097866
0.042448742
0.042805808
0.043169043
0.043538421
0.043913911
0.044295479
0.044683087
0.045076693
0.045476253
0.04588172
0.046293041
0.046710164
0.047133034
0.047561591
0.047995775
0.048435525
0.048880774
0.049331456
0.049787503
0.050248843
0.050715405
0.051187113
0.051663891
0.052145661
0.05263234
0.053123847
0.053620094
0.054120993
0.054626444
0.055135918
0.037088821
0.037334349
0.037585797
0.037843266
0.038106844
0.038376576
0.038652485
0.038934582
0.039222875
0.03951737
0.039818077
0.040125004
0.04043816
0.040757554
0.041083191
0.04141507
0.041753189
0.042097541
0.042448111
0.042804884
0.043167838
0.043536945
0.043912177
0.044293498
0.04468087
0.045074253
0.0454736
0.045878865
0.046289997
0.046706941
0.047129643
0.047558043
0.047992082
0.048431695
0.048876819
0.049327387
0.049783328
0.050244573
0.050711048
0.051182677
0.051659385
0.05214109
0.052627712
0.053119166
0.053615366
0.054116219
0.054621626
0.055131071
0.036625136
0.036857065
0.037095939
0.037340895
0.037591834
0.037848813
0.038111896
0.038381128
0.038656537
0.038938141
0.03922595
0.039519977
0.039820231
0.040126722
0.040439459
0.04075845
0.041083699
0.041415205
0.041752966
0.042096971
0.04244721
0.042803664
0.043166311
0.043535125
0.043910075
0.044291127
0.044678243
0.045071382
0.045470498
0.045875543
0.046286468
0.046703217
0.047125736
0.047553966
0.047987846
0.048427313
0.048872302
0.049322745
0.049778573
0.050239714
0.050706096
0.051177642
0.051654274
0.052135913
0.052622476
0.053113877
0.053610029
0.054110841
0.054616206
0.055125628
0.036407702
0.036633282
0.036865088
0.037103324
0.037347677
0.037598065
0.037854512
0.038117066
0.038385769
0.038660651
0.038941733
0.039229032
0.039522561
0.039822332
0.040128357
0.040440644
0.040759201
0.041084032
0.041415135
0.041752506
0.042096138
0.042446017
0.042802124
0.043164439
0.043532933
0.043907578
0.044288339
0.044675176
0.04506805
0.045466914
0.045871722
0.046282422
0.04669896
0.047121281
0.047549327
0.047983035
0.048422343
0.048867185
0.049317494
0.0497732
0.050234231
0.050700513
0.05117197
0.051648524
0.052130093
0.052616595
0.053107944
0.05360405
0.054104822
0.054610151
0.055119556
0.036416692
0.036641842
0.036873277
0.037110925
0.037354674
0.037604481
0.037860361
0.038122353
0.038390496
0.038664821
0.038945353
0.03923211
0.039525111
0.039824368
0.040129895
0.0404417
0.040759791
0.041084171
0.04141484
0.041751792
0.04209502
0.042444509
0.042800242
0.043162196
0.043530346
0.04390466
0.044285104
0.04467164
0.045064227
0.045462819
0.045867369
0.046277826
0.046694136
0.047116243
0.047544088
0.047977611
0.048416747
0.048861432
0.049311597
0.049767172
0.050228085
0.050694261
0.051165625
0.051642096
0.052123594
0.052610034
0.05310133
0.053597393
0.054098129
0.054603427
0.055112821
0.036425944
0.036650691
0.036881664
0.037118734
0.037361874
0.037611074
0.037866356
0.038127754
0.038395304
0.038669041
0.03894899
0.039235176
0.039527616
0.039826327
0.040131322
0.040442612
0.040760203
0.0410841
0.041414301
0.041750802
0.042093594
0.042442663
0.042797992
0.043159558
0.043527335
0.043901292
0.044281395
0.044667605
0.045059882
0.04545818
0.045862452
0.046272646
0.046688709
0.047110586
0.047538216
0.047971538
0.04841049
0.048855006
0.049305016
0.049760451
0.050221238
0.050687303
0.051158567
0.051634953
0.052116377
0.052602755
0.053094001
0.053590022
0.054090726
0.054596
0.055105392
0.036435504
0.036659812
0.036890271
0.037126753
0.037369271
0.037617841
0.037872493
0.038133263
0.038400188
0.038673303
0.038952638
0.039238217
0.039530063
0.039828194
0.040132623
0.040443362
0.04076042
0.041083798
0.041413498
0.041749515
0.042091839
0.042440457
0.042795351
0.043156499
0.043523874
0.043897446
0.044277181
0.044663041
0.045054983
0.045452965
0.045856937
0.046266848
0.046682646
0.047104274
0.047531672
0.047964781
0.048403535
0.048847868
0.049297713
0.049752999
0.050213653
0.050679599
0.051150761
0.051627057
0.052108406
0.052594722
0.053085918
0.053581902
0.05408258
0.054587837
0.055097236
0.036445401
0.036669216
0.036899119
0.03713499
0.037376863
0.037624777
0.037878767
0.038138876
0.038405141
0.0386776
0.038956285
0.039241224
0.039532441
0.039829955
0.040133783
0.040443936
0.040760423
0.041083248
0.041412412
0.041747909
0.042089731
0.042437865
0.042792292
0.04315299
0.043519934
0.043893093
0.044272433
0.044657915
0.045049499
0.04544714
0.04585079
0.046260398
0.04667591
0.047097271
0.047524422
0.0479573
0.048395842
0.048839982
0.049289651
0.049744779
0.050205291
0.050671113
0.051142166
0.051618371
0.052099643
0.052585898
0.053077047
0.053572998
0.054073656
0.054578904
0.05508832
0.036455655
0.036678919
0.036908222
0.03714345
0.037384652
0.037631878
0.037885175
0.038144587
0.038410157
0.038681924
0.038959923
0.039244185
0.039534736
0.039831596
0.040134785
0.040444314
0.040760194
0.041082429
0.04141102
0.041745962
0.042087247
0.042434862
0.042788789
0.043149007
0.043515488
0.043888204
0.04426712
0.044652198
0.045043397
0.045440672
0.045843977
0.04625326
0.046668467
0.047089542
0.047516427
0.047949059
0.048387375
0.048831309
0.049280791
0.049735751
0.050196114
0.050661806
0.051132747
0.051608857
0.052090052
0.052576246
0.053067351
0.053563274
0.05406392
0.054569169
0.055078614
0.036466284
0.036688933
0.036917592
0.03715214
0.037392637
0.037639143
0.03789171
0.038150389
0.038415227
0.038686264
0.03896354
0.039247087
0.039536933
0.039833102
0.040135613
0.04044448
0.040759715
0.041081321
0.041409302
0.041743652
0.042084364
0.042431425
0.042784818
0.04314452
0.043510508
0.043882749
0.044261211
0.044645856
0.045036644
0.045433529
0.045836464
0.046245399
0.04666028
0.04708105
0.047507651
0.047940022
0.048378097
0.048821812
0.049271095
0.049725878
0.050186084
0.05065164
0.051122464
0.051598478
0.052079596
0.052565732
0.053056797
0.053552698
0.054053339
0.0545586
0.055068088
0.036477293
0.036699269
0.036927236
0.037161064
0.037400819
0.037646567
0.037898368
0.038156276
0.038420342
0.038690612
0.038967125
0.039249917
0.039539019
0.039834457
0.04013625
0.040444416
0.040758965
0.041079904
0.041407235
0.041740955
0.042081057
0.042427528
0.042780351
0.043139504
0.043504964
0.043876699
0.044254677
0.044638861
0.045029209
0.045425677
0.045828218
0.046236781
0.046651314
0.04707176
0.047498059
0.047930151
0.048367971
0.048811453
0.049260527
0.049715123
0.050175165
0.050640578
0.051111283
0.051587199
0.05206824
0.05255432
0.05304535
0.053541236
0.054041882
0.054547167
0.055056711
0.036488688
0.036709934
0.03693716
0.037170224
0.037409196
0.037654146
0.037905141
0.038162239
0.038425494
0.038694955
0.038970665
0.039252661
0.039540978
0.039835643
0.040136679
0.040444102
0.040757925
0.041078156
0.041404799
0.04173785
0.042077302
0.042423145
0.042775362
0.043133932
0.043498829
0.043870026
0.044247488
0.044631179
0.045021059
0.045417083
0.045819205
0.046227374
0.046641536
0.047061636
0.047487615
0.047919411
0.048356961
0.048800197
0.049249051
0.04970345
0.050163321
0.050628587
0.051099169
0.051574985
0.05205595
0.052541978
0.053032979
0.053528858
0.05402952
0.054534843
0.055044459
0.036500468
0.036720931
0.036947365
0.037179619
0.037417764
0.037661876
0.037912023
0.038168269
0.038430672
0.038699283
0.038974147
0.039255306
0.039542796
0.039836646
0.040136881
0.040443519
0.040756575
0.041076058
0.04140197
0.041734312
0.042073076
0.042418253
0.042769826
0.043127775
0.043492076
0.0438627
0.044239614
0.044622783
0.045012165
0.045407717
0.045809393
0.046217142
0.046630912
0.047050646
0.047476285
0.047907769
0.048345032
0.04878801
0.049236631
0.049690825
0.050150517
0.050615631
0.051086087
0.051561803
0.052042695
0.052528675
0.053019653
0.053515535
0.054016225
0.0545216
0.055031305
0.036512631
0.036732259
0.036957848
0.037189246
0.037426519
0.037669748
0.037919005
0.038174357
0.038435864
0.038703581
0.038977558
0.039257837
0.039544456
0.039837448
0.040136839
0.040442649
0.040754896
0.041073587
0.041398728
0.041730319
0.042068356
0.042412827
0.042763718
0.043121009
0.043484677
0.043854694
0.044231028
0.044613641
0.045002496
0.045397548
0.045798752
0.046206057
0.04661941
0.047038756
0.047464037
0.04789519
0.048332153
0.048774858
0.049223236
0.049677216
0.050136723
0.05060168
0.051072008
0.051547624
0.052028445
0.052514382
0.053005345
0.053501241
0.054001972
0.054507415
0.055017229
0.036525173
0.036743915
0.036968602
0.037199096
0.037435453
0.037677754
0.037926076
0.038180489
0.038441057
0.038707838
0.038980882
0.039260237
0.039545942
0.039838032
0.040136535
0.040441473
0.040752866
0.041070723
0.041395051
0.04172585
0.042063117
0.042406842
0.042757013
0.043113609
0.043476608
0.043845982
0.044221701
0.044603728
0.044992024
0.045386548
0.045787252
0.046194087
0.046607001
0.047025938
0.04745084
0.047881646
0.048318292
0.048760712
0.049208836
0.049662592
0.050121907
0.050586704
0.051056902
0.051532421
0.052013174
0.052499074
0.052990032
0.053485953
0.053986739
0.054492268
0.055002211
0.036538081
0.036755887
0.03697962
0.037209162
0.037444555
0.037685883
0.037933225
0.038186654
0.038446238
0.038712037
0.038984105
0.039262491
0.039547237
0.03983838
0.04013595
0.040439973
0.040750467
0.041067446
0.041390917
0.041720882
0.042057338
0.042400278
0.042749688
0.04310555
0.043467843
0.043836539
0.044211609
0.044593017
0.044980724
0.045374689
0.045774866
0.046181206
0.046593656
0.047012163
0.047436667
0.047867108
0.048303423
0.048745544
0.049193403
0.049646928
0.050106046
0.050570678
0.051040746
0.051516168
0.051996858
0.052482729
0.052973691
0.05346965
0.053970509
0.054476143
0.054986237
0.036551342
0.036768163
0.036990889
0.03721943
0.037453811
0.037694119
0.037940436
0.038192837
0.038451391
0.038716163
0.038987209
0.039264581
0.039548323
0.039838474
0.040135067
0.040438129
0.040747681
0.041063737
0.041386307
0.041715395
0.042050999
0.042393112
0.042741721
0.043096811
0.04345836
0.043826343
0.044200729
0.044581484
0.044968571
0.045361948
0.045761571
0.046167389
0.046579353
0.046997407
0.047421494
0.047851553
0.04828752
0.048729331
0.049176914
0.0496302
0.050089115
0.05055358
0.051023518
0.051498846
0.051979479
0.052465329
0.052956307
0.053452319
0.053953267
0.054459028
0.054969297
0.036564937
0.036780724
0.037002394
0.037229884
0.037463206
0.037702448
0.037947693
0.038199019
0.038456499
0.038720198
0.038990177
0.039266489
0.039549181
0.039838296
0.040133866
0.040435923
0.040744487
0.041059577
0.041381203
0.041709371
0.04204408
0.042385324
0.042733093
0.043087372
0.04344814
0.043815372
0.04418904
0.04456911
0.044955546
0.045348305
0.045747345
0.046152617
0.04656407
0.046981651
0.047405301
0.04783496
0.048270566
0.048712052
0.049159351
0.049612391
0.050071097
0.050535394
0.051005203
0.05148044
0.051961022
0.052446861
0.052937868
0.053433948
0.053935005
0.054440915
0.054951385
0.036578842
0.036793548
0.037014116
0.037240501
0.03747272
0.03771085
0.037954978
0.038205184
0.038461543
0.038724125
0.038992991
0.039268198
0.039549795
0.039837827
0.040132331
0.040433337
0.04074087
0.041054949
0.041375587
0.041702791
0.042036563
0.042376898
0.042723787
0.043077216
0.043437165
0.043803611
0.044176526
0.044555878
0.04494163
0.045333743
0.045732173
0.046136873
0.046547792
0.046964877
0.047388071
0.047817314
0.048252544
0.048693695
0.049140699
0.049593486
0.050051981
0.050516108
0.050985789
0.051460941
0.05194148
0.052427319
0.052918368
0.053414534
0.053915721
0.054421805
0.054932503
0.036593029
0.036806608
0.03702603
0.037251258
0.037482329
0.037719303
0.037962268
0.03821131
0.038466504
0.038727923
0.038995631
0.039269688
0.039550146
0.039837051
0.040130443
0.040430354
0.040736811
0.041049837
0.041369444
0.041695643
0.042028435
0.04236782
0.042713789
0.043066329
0.043425422
0.043791046
0.044163174
0.044541774
0.044926813
0.04531825
0.045716042
0.046120145
0.046530507
0.046947075
0.047369795
0.047798605
0.048233446
0.04867425
0.049120952
0.049573479
0.050031759
0.050495717
0.050965272
0.051440345
0.05192085
0.052406701
0.052897808
0.05339408
0.053895418
0.054401701
0.054912657
0.036607462
0.036819872
0.037038104
0.03726213
0.037492007
0.03772778
0.03796954
0.038217373
0.038471359
0.038731571
0.038998078
0.039270942
0.039550216
0.03983595
0.040128186
0.040426958
0.040732297
0.041044226
0.04136276
0.041687911
0.042019684
0.042358078
0.042703088
0.043054701
0.043412901
0.043777668
0.044148975
0.044526792
0.044911086
0.045301819
0.045698947
0.046102428
0.04651221
0.046928242
0.047350469
0.047778831
0.048213269
0.048653716
0.049100107
0.04955237
0.050010434
0.050474222
0.050943657
0.051418656
0.051899138
0.052385014
0.052876197
0.053372593
0.053874108
0.054380618
0.054891863
0.036622103
0.036833302
0.037050304
0.037273085
0.037501724
0.037736255
0.037976768
0.03822335
0.038476085
0.038735049
0.039000312
0.039271939
0.039549987
0.039834508
0.040125545
0.040423137
0.040727315
0.041038105
0.041355525
0.041679588
0.042010302
0.042347667
0.042691678
0.043042327
0.043399599
0.043763473
0.044133927
0.04451093
0.04489445
0.045284449
0.045680889
0.046083723
0.046492903
0.04690838
0.047330097
0.047757997
0.048192019
0.0486321
0.049078173
0.049530168
0.049988014
0.050451635
0.050920953
0.051395888
0.051876357
0.052362274
0.05285355
0.053350094
0.05385181
0.054358577
0.054870143
0.036636903
0.036846855
0.037062588
0.037284091
0.037511443
0.037744694
0.037983921
0.038229214
0.038480658
0.038738333
0.039002312
0.039272662
0.039549443
0.039832709
0.040122507
0.040418878
0.040721855
0.041031466
0.041347732
0.041670668
0.042000284
0.042336581
0.042679559
0.043029208
0.043385516
0.043748466
0.044118033
0.044494192
0.044876909
0.04526615
0.045661875
0.04606404
0.046472598
0.0468875
0.047308691
0.047736114
0.04816971
0.048609416
0.049055166
0.04950689
0.049964517
0.050427974
0.050897182
0.051372062
0.051852532
0.052338505
0.052829895
0.053326609
0.053828553
0.054335608
0.05484753
0.036651809
0.03686048
0.037074913
0.037295102
0.03752113
0.037753065
0.037990969
0.038234936
0.038485052
0.038741401
0.039004057
0.039273092
0.039548567
0.03983054
0.040119061
0.040414171
0.040715909
0.041024303
0.041339378
0.04166115
0.041989631
0.042324826
0.042666734
0.04301535
0.043370662
0.043732655
0.044101306
0.044476591
0.044858479
0.045246935
0.045641922
0.046043397
0.046451313
0.046865623
0.047286273
0.047713208
0.048146368
0.048585691
0.049031112
0.049482563
0.049939974
0.05040327
0.050872376
0.051347212
0.051827695
0.052313743
0.052805266
0.053302176
0.053804377
0.054311752
0.054824067
0.036666754
0.036874122
0.037087228
0.037306074
0.037530747
0.037761332
0.03799788
0.038240486
0.03848924
0.038744228
0.039005528
0.039273212
0.039547346
0.039827991
0.040115197
0.040409012
0.040709475
0.041016617
0.041330465
0.041651038
0.04197835
0.042312409
0.042653216
0.043000767
0.043355053
0.043716059
0.044083766
0.04445815
0.044839183
0.045226832
0.045621058
0.046021822
0.04642908
0.046842782
0.047262878
0.047689312
0.048122027
0.048560961
0.049006051
0.049457229
0.049914425
0.050377566
0.050846577
0.05132138
0.051801894
0.052288033
0.052779714
0.053276845
0.053779333
0.054287061
0.054799805
0.036681651
0.036887716
0.037099478
0.037316961
0.037540253
0.037769453
0.038004617
0.038245834
0.038493196
0.038746792
0.039006703
0.039273005
0.039545767
0.039825051
0.040110912
0.040403399
0.040702553
0.041008411
0.041321
0.041640343
0.041966456
0.042299348
0.042639024
0.042985481
0.043338712
0.043698705
0.044065442
0.044438902
0.044819056
0.045205875
0.045599322
0.045999357
0.046405939
0.04681902
0.047238549
0.047664474
0.048096736
0.048535277
0.048980033
0.049430938
0.049887923
0.050350916
0.050819843
0.051294626
0.051775185
0.052261437
0.052753297
0.053250676
0.053753482
0.054261599
0.054774811
0.036696381
0.036901197
0.037111611
0.037327712
0.037549604
0.03777739
0.038011147
0.038250949
0.038496893
0.038749071
0.039007567
0.03927246
0.039543821
0.039821715
0.040106202
0.040397333
0.040695152
0.040999697
0.041311
0.041629085
0.04195397
0.042285669
0.042624186
0.042969523
0.043321675
0.043680632
0.044046377
0.044418889
0.044798145
0.045184114
0.045576764
0.045976056
0.046381948
0.046794395
0.047213348
0.047638755
0.048070559
0.048508704
0.048953125
0.049403759
0.049860538
0.050323391
0.050792244
0.051267021
0.051747643
0.052234028
0.052726091
0.053223747
0.053726901
0.054235442
0.054749162
0.036512959
0.036711028
0.03691453
0.037123575
0.037338278
0.037558752
0.037785105
0.038017432
0.038255799
0.038500305
0.038751043
0.039008102
0.039271563
0.039541501
0.039817984
0.040101074
0.040390824
0.040687284
0.040990492
0.041300485
0.041617288
0.041940923
0.042271405
0.042608742
0.042952938
0.04330399
0.043661889
0.044026621
0.044398169
0.044776509
0.045161613
0.045553451
0.045951985
0.046357176
0.04676898
0.047187348
0.047612232
0.048043575
0.048481321
0.048925409
0.049375776
0.049832355
0.050295076
0.050763867
0.051238652
0.051719355
0.052205895
0.052698187
0.053196146
0.053699682
0.054208683
0.05472295
0.03633733
0.036528777
0.036725522
0.036927662
0.037135318
0.037348609
0.037567652
0.037792559
0.038023436
0.038260355
0.038503407
0.03875269
0.039008296
0.039270308
0.039538806
0.03981386
0.040095535
0.040383887
0.040678969
0.040980823
0.041289486
0.041604989
0.041927356
0.042256603
0.042592743
0.042935781
0.043285715
0.04364254
0.044006244
0.044376813
0.044754223
0.04513845
0.045529464
0.045927231
0.046331712
0.046742865
0.047160644
0.047585
0.04801588
0.048453229
0.048896986
0.04934709
0.049803476
0.050266075
0.050734816
0.051209627
0.051690429
0.052177144
0.05266969
0.053167982
0.05367193
0.054181426
0.054696279
0.036169304
0.036354245
0.036544378
0.036739764
0.036940523
0.037146777
0.037358648
0.037576254
0.037799709
0.038029124
0.038264585
0.038506175
0.038753995
0.039008138
0.039268693
0.03953574
0.039809354
0.040089602
0.040376545
0.040670237
0.040970724
0.041278045
0.041592236
0.041913322
0.042241323
0.042576252
0.042918118
0.043266923
0.043622663
0.043985329
0.044354907
0.044731379
0.045114721
0.045504904
0.045901896
0.046305661
0.04671616
0.047133346
0.047557174
0.047987591
0.048424544
0.048867975
0.049317823
0.049774024
0.050236512
0.050705217
0.051180067
0.051660988
0.0521479
0.052640724
0.053139376
0.053643769
0.054153796
0.054669273
0.036187211
0.036370839
0.036559633
0.036753661
0.036953039
0.037157891
0.037368339
0.037584507
0.03780651
0.038034462
0.038268464
0.038508591
0.038754946
0.039007624
0.039266718
0.039532312
0.039804482
0.0400833
0.040368829
0.040661125
0.04096024
0.041266216
0.041579089
0.041898887
0.042225634
0.042559347
0.042900035
0.043247705
0.043602354
0.043963976
0.044332559
0.044708088
0.045090539
0.045479888
0.045876103
0.046279151
0.046688994
0.047105588
0.047528889
0.047958846
0.048395407