/*--------------------------------*- C++ -*----------------------------------*\
| =========                 |                                                 |
| \\      /  F ield         | OpenFOAM: The Open Source CFD Toolbox           |
|  \\    /   O peration     | Version:  2312                                  |
|   \\  /    A nd           | Website:  www.openfoam.com                      |
|    \\/     M anipulation  |                                                 |
\*---------------------------------------------------------------------------*/
FoamFile
{
    version     2.0;
    format      ascii;
    arch        "LSB;label=32;scalar=64";
    class       volScalarField;
    location    "0.04";
    object      O2;
}
// * * * * * * * * * * * * * * * * * * * * * * * * * * * * * * * * * * * * * //

dimensions      [0 0 0 0 0 0 0];

internalField   nonuniform List<scalar> 
3224
(
0.22381558
0.22426572
0.22468596
0.22507801
0.2254435
0.22578399
0.22610101
0.22639599
0.22667034
0.22692537
0.22716235
0.22738248
0.2275869
0.22777669
0.22795285
0.22811636
0.22826812
0.22840898
0.22853974
0.22866116
0.22877395
0.22887876
0.22897621
0.22906689
0.22915134
0.22923007
0.22930354
0.22937221
0.22943648
0.22949675
0.22955336
0.22960666
0.22965696
0.22970455
0.22974971
0.22979269
0.22983373
0.22987305
0.22991086
0.22994736
0.22998272
0.22381552
0.22426563
0.22468582
0.22507783
0.2254433
0.22578377
0.22610078
0.22639576
0.2266701
0.22692513
0.22716212
0.22738225
0.22758667
0.22777646
0.22795263
0.22811615
0.22826792
0.22840878
0.22853956
0.22866099
0.22877378
0.2288786
0.22897606
0.22906675
0.22915121
0.22922994
0.22930343
0.2293721
0.22943638
0.22949665
0.22955328
0.22960658
0.22965689
0.22970449
0.22974966
0.22979265
0.22983369
0.22987302
0.22991084
0.22994734
0.22998272
0.22381588
0.22426589
0.224686
0.22507795
0.22544336
0.22578379
0.22610076
0.22639571
0.22667003
0.22692505
0.22716202
0.22738214
0.22758656
0.22777634
0.22795251
0.22811602
0.22826778
0.22840865
0.22853942
0.22866086
0.22877365
0.22887847
0.22897594
0.22906664
0.2291511
0.22922984
0.22930333
0.22937201
0.2294363
0.22949657
0.2295532
0.22960652
0.22965683
0.22970444
0.22974961
0.22979261
0.22983366
0.22987299
0.22991082
0.22994733
0.22998271
0.22381662
0.22426649
0.22468649
0.22507835
0.22544368
0.22578405
0.22610096
0.22639586
0.22667014
0.22692512
0.22716206
0.22738216
0.22758655
0.22777631
0.22795246
0.22811596
0.22826772
0.22840858
0.22853935
0.22866077
0.22877357
0.22887839
0.22897586
0.22906655
0.22915102
0.22922976
0.22930325
0.22937193
0.22943622
0.22949651
0.22955314
0.22960646
0.22965678
0.22970439
0.22974957
0.22979257
0.22983363
0.22987297
0.2299108
0.22994732
0.22998271
0.2233365
0.22381772
0.22426744
0.2246873
0.22507904
0.22544427
0.22578455
0.22610138
0.22639621
0.22667043
0.22692535
0.22716225
0.2273823
0.22758666
0.22777639
0.22795252
0.22811599
0.22826773
0.22840858
0.22853933
0.22866075
0.22877353
0.22887834
0.22897581
0.2290665
0.22915096
0.2292297
0.22930319
0.22937188
0.22943617
0.22949645
0.22955309
0.22960641
0.22965673
0.22970435
0.22974953
0.22979254
0.2298336
0.22987295
0.22991079
0.22994731
0.2299827
0.22333797
0.22381912
0.22426866
0.22468838
0.22507998
0.22544509
0.22578526
0.22610199
0.22639674
0.22667088
0.22692573
0.22716257
0.22738257
0.22758688
0.22777657
0.22795266
0.22811611
0.22826782
0.22840864
0.22853937
0.22866077
0.22877354
0.22887835
0.2289758
0.22906648
0.22915094
0.22922967
0.22930316
0.22937184
0.22943613
0.22949642
0.22955305
0.22960638
0.2296567
0.22970432
0.22974951
0.22979251
0.22983358
0.22987293
0.22991077
0.2299473
0.2299827
0.22333978
0.22382076
0.22427012
0.22468968
0.22508113
0.2254461
0.22578614
0.22610276
0.2263974
0.22667145
0.22692623
0.22716299
0.22738293
0.22758719
0.22777683
0.22795288
0.22811629
0.22826796
0.22840876
0.22853947
0.22866084
0.2287736
0.22887838
0.22897582
0.2290665
0.22915094
0.22922967
0.22930315
0.22937183
0.22943611
0.2294964
0.22955303
0.22960635
0.22965668
0.2297043
0.22974948
0.22979249
0.22983356
0.22987292
0.22991076
0.2299473
0.2299827
0.22334206
0.22382278
0.22427193
0.2246913
0.22508257
0.22544737
0.22578726
0.22610375
0.22639827
0.22667221
0.22692689
0.22716356
0.22738343
0.22758761
0.2277772
0.22795319
0.22811655
0.22826818
0.22840894
0.22853962
0.22866097
0.2287737
0.22887846
0.22897588
0.22906654
0.22915097
0.22922969
0.22930316
0.22937183
0.22943611
0.22949639
0.22955302
0.22960634
0.22965666
0.22970428
0.22974947
0.22979248
0.22983355
0.22987291
0.22991075
0.22994729
0.2299827
0.22283103
0.22334478
0.22382522
0.22427413
0.22469327
0.22508433
0.22544894
0.22578865
0.22610498
0.22639935
0.22667316
0.22692773
0.22716429
0.22738406
0.22758817
0.22777767
0.2279536
0.22811691
0.22826849
0.2284092
0.22853984
0.22866115
0.22877385
0.22887859
0.22897599
0.22906662
0.22915104
0.22922974
0.2293032
0.22937186
0.22943613
0.2294964
0.22955302
0.22960634
0.22965666
0.22970427
0.22974946
0.22979247
0.22983354
0.2298729
0.22991075
0.22994728
0.22998269
0.22283446
0.22334797
0.22382812
0.22427674
0.22469562
0.22508644
0.22545082
0.22579033
0.22610646
0.22640067
0.22667433
0.22692875
0.22716519
0.22738485
0.22758886
0.22777828
0.22795413
0.22811736
0.22826888
0.22840954
0.22854013
0.2286614
0.22877406
0.22887876
0.22897613
0.22906674
0.22915114
0.22922982
0.22930326
0.22937191
0.22943617
0.22949642
0.22955304
0.22960635
0.22965666
0.22970427
0.22974946
0.22979246
0.22983353
0.22987289
0.22991074
0.22994728
0.22998269
0.22228994
0.22283853
0.2233517
0.2238315
0.22427981
0.22469839
0.22508892
0.22545304
0.22579231
0.22610823
0.22640224
0.22667571
0.22692998
0.22716628
0.22738581
0.2275897
0.22777901
0.22795477
0.22811792
0.22826937
0.22840996
0.22854049
0.22866171
0.22877433
0.22887899
0.22897633
0.22906691
0.22915127
0.22922993
0.22930335
0.22937198
0.22943622
0.22949647
0.22955307
0.22960637
0.22965668
0.22970428
0.22974946
0.22979246
0.22983353
0.22987289
0.22991074
0.22994728
0.22998269
0.22229514
0.22284326
0.22335602
0.22383543
0.22428337
0.2247016
0.22509181
0.22545563
0.22579462
0.22611029
0.22640407
0.22667735
0.22693143
0.22716756
0.22738694
0.2275907
0.22777989
0.22795554
0.2281186
0.22826996
0.22841048
0.22854094
0.2286621
0.22877466
0.22887928
0.22897657
0.22906712
0.22915145
0.22923008
0.22930348
0.22937208
0.22943631
0.22949653
0.22955312
0.22960641
0.22965671
0.2297043
0.22974947
0.22979247
0.22983354
0.22987289
0.22991074
0.22994728
0.22998269
0.22171632
0.22230116
0.22284872
0.22336098
0.22383994
0.22428746
0.22470529
0.22509513
0.22545861
0.22579729
0.22611268
0.2264062
0.22667924
0.22693311
0.22716906
0.22738827
0.22759187
0.22778093
0.22795645
0.2281194
0.22827066
0.22841109
0.22854148
0.22866257
0.22877507
0.22887963
0.22897687
0.22906737
0.22915167
0.22923027
0.22930363
0.22937221
0.22943641
0.22949662
0.2295532
0.22960647
0.22965675
0.22970434
0.2297495
0.22979249
0.22983355
0.22987289
0.22991074
0.22994728
0.22998269
0.22172396
0.22230806
0.22285496
0.22336665
0.22384509
0.22429212
0.2247095
0.22509892
0.22546202
0.22580035
0.22611541
0.22640865
0.22668142
0.22693505
0.22717078
0.2273898
0.22759323
0.22778213
0.22795752
0.22812034
0.22827149
0.22841182
0.22854211
0.22866312
0.22877555
0.22888005
0.22897724
0.22906769
0.22915194
0.2292305
0.22930383
0.22937238
0.22943655
0.22949674
0.22955329
0.22960654
0.22965681
0.22970438
0.22974953
0.22979251
0.22983356
0.2298729
0.22991074
0.22994728
0.22998269
0.22111034
0.22173264
0.22231589
0.22286204
0.22337308
0.22385092
0.2242974
0.22471426
0.22510322
0.22546588
0.22580382
0.22611852
0.22641143
0.22668391
0.22693727
0.22717276
0.22739155
0.22759479
0.22778351
0.22795874
0.22812142
0.22827244
0.22841266
0.22854285
0.22866377
0.22877612
0.22888054
0.22897767
0.22906806
0.22915226
0.22923077
0.22930406
0.22937257
0.22943672
0.22949687
0.2295534
0.22960663
0.22965688
0.22970444
0.22974957
0.22979254
0.22983358
0.22987292
0.22991075
0.22994728
0.22998269
0.22112115
0.22174242
0.22232472
0.22287003
0.22338033
0.22385749
0.22430334
0.22471963
0.22510805
0.22547023
0.22580773
0.22612203
0.22641457
0.22668671
0.22693978
0.22717499
0.22739355
0.22759656
0.22778509
0.22796014
0.22812265
0.22827354
0.22841362
0.2285437
0.22866452
0.22877677
0.22888112
0.22897817
0.22906849
0.22915263
0.22923109
0.22930434
0.22937281
0.22943692
0.22949704
0.22955354
0.22960675
0.22965697
0.22970451
0.22974963
0.22979259
0.22983361
0.22987294
0.22991076
0.22994729
0.22998269
0.22047247
0.22113329
0.22175338
0.22233462
0.222879
0.22338845
0.22386484
0.22430999
0.22472564
0.22511347
0.22547511
0.22581211
0.22612596
0.22641809
0.22668987
0.2269426
0.22717751
0.2273958
0.22759856
0.22778687
0.22796172
0.22812406
0.22827478
0.22841472
0.22854467
0.22866537
0.22877752
0.22888177
0.22897874
0.22906899
0.22915307
0.22923147
0.22930466
0.22937309
0.22943715
0.22949724
0.22955371
0.22960688
0.22965709
0.2297046
0.2297497
0.22979264
0.22983365
0.22987296
0.22991078
0.2299473
0.22998269
0.22048746
0.22114684
0.22176561
0.22234568
0.22288901
0.22339751
0.22387304
0.2243174
0.22473233
0.22511951
0.22548055
0.225817
0.22613035
0.22642204
0.2266934
0.22694576
0.22718034
0.22739832
0.22760081
0.22778887
0.2279635
0.22812564
0.22827618
0.22841596
0.22854577
0.22866634
0.22877838
0.22888252
0.2289794
0.22906957
0.22915357
0.2292319
0.22930504
0.22937341
0.22943743
0.22949747
0.2295539
0.22960705
0.22965722
0.22970471
0.22974978
0.2297927
0.2298337
0.229873
0.2299108
0.22994731
0.2299827
0.2205041
0.22116189
0.22177919
0.22235796
0.22290013
0.22340758
0.22388215
0.22432564
0.22473977
0.22512622
0.22548659
0.22582244
0.22613524
0.22642642
0.22669734
0.22694928
0.22718349
0.22740113
0.22760332
0.22779111
0.22796549
0.22812741
0.22827776
0.22841736
0.228547
0.22866743
0.22877934
0.22888337
0.22898014
0.22907022
0.22915414
0.2292324
0.22930546
0.22937378
0.22943774
0.22949774
0.22955413
0.22960723
0.22965737
0.22970483
0.22974988
0.22979278
0.22983376
0.22987304
0.22991083
0.22994732
0.2299827
0.22052248
0.2211785
0.22179421
0.22237156
0.22291243
0.22341871
0.22389222
0.22433474
0.22474799
0.22513364
0.22549328
0.22582846
0.22614065
0.22643128
0.2267017
0.22695319
0.22718699
0.22740426
0.22760612
0.22779361
0.22796772
0.22812939
0.22827952
0.22841892
0.22854839
0.22866866
0.22878042
0.22888433
0.22898098
0.22907096
0.22915478
0.22923296
0.22930595
0.2293742
0.2294381
0.22949805
0.22955438
0.22960745
0.22965755
0.22970498
0.22975
0.22979287
0.22983382
0.22987308
0.22991086
0.22994734
0.22998271
0.21984668
0.2205427
0.22119679
0.22181076
0.22238654
0.22292599
0.22343099
0.22390333
0.22434478
0.22475706
0.22514181
0.22550065
0.22583509
0.22614662
0.22643665
0.22670652
0.22695751
0.22719086
0.22740773
0.22760922
0.22779637
0.22797019
0.22813159
0.22828148
0.22842066
0.22854994
0.22867003
0.22878163
0.2288854
0.22898192
0.22907178
0.2291555
0.22923359
0.2293065
0.22937467
0.22943851
0.22949839
0.22955468
0.2296077
0.22965776
0.22970514
0.22975013
0.22979297
0.2298339
0.22987314
0.22991089
0.22994736
0.22998271
0.21987104
0.22056484
0.22121684
0.22182893
0.22240299
0.2229409
0.22344447
0.22391553
0.22435581
0.22476702
0.2251508
0.22550875
0.2258424
0.2261532
0.22644256
0.22671182
0.22696227
0.22719513
0.22741155
0.22761264
0.22779943
0.22797292
0.22813403
0.22828365
0.22842259
0.22855165
0.22867155
0.22878298
0.22888659
0.22898297
0.2290727
0.22915631
0.2292343
0.22930711
0.2293752
0.22943897
0.22949879
0.22955501
0.22960798
0.22965799
0.22970534
0.22975029
0.22979309
0.22983399
0.2298732
0.22991093
0.22994738
0.22998272
0.21838267
0.21916287
0.21989767
0.22058902
0.22123878
0.22184882
0.22242101
0.22295722
0.22345925
0.22392889
0.22436789
0.22477794
0.22516066
0.22551764
0.2258504
0.2261604
0.22644904
0.22671765
0.22696751
0.22719982
0.22741576
0.2276164
0.2278028
0.22797593
0.22813672
0.22828604
0.22842473
0.22855355
0.22867323
0.22878447
0.22888791
0.22898414
0.22907373
0.22915721
0.22923508
0.2293078
0.2293758
0.22943948
0.22949923
0.22955539
0.2296083
0.22965825
0.22970555
0.22975046
0.22979323
0.2298341
0.22987328
0.22991098
0.2299474
0.22998273
0.21759353
0.21841756
0.21919471
0.21992667
0.22061537
0.2212627
0.22187052
0.22244069
0.22297504
0.22347539
0.2239435
0.2243811
0.22478987
0.22517143
0.22552736
0.22585916
0.22616829
0.22645614
0.22672403
0.22697324
0.22720497
0.22742037
0.22762054
0.2278065
0.22797924
0.22813967
0.22828868
0.22842708
0.22855564
0.22867509
0.22878612
0.22888937
0.22898543
0.22907487
0.22915821
0.22923596
0.22930857
0.22937647
0.22944006
0.22949972
0.22955581
0.22960865
0.22965855
0.2297058
0.22975066
0.22979339
0.22983421
0.22987336
0.22991104
0.22994744
0.22998273
0.21763514
0.2184555
0.21922929
0.21995816
0.22064402
0.22128873
0.22189414
0.22246211
0.22299446
0.22349297
0.22395941
0.22439549
0.22480288
0.22518318
0.22553796
0.22586872
0.2261769
0.22646389
0.226731
0.2269795
0.22721059
0.22742542
0.22762506
0.22781055
0.22798286
0.22814291
0.22829157
0.22842966
0.22855794
0.22867714
0.22878794
0.22889097
0.22898685
0.22907612
0.22915932
0.22923693
0.22930941
0.2293772
0.2294407
0.22950027
0.22955628
0.22960905
0.22965888
0.22970607
0.22975088
0.22979356
0.22983435
0.22987346
0.2299111
0.22994747
0.22998275
0.21768021
0.21849663
0.21926679
0.21999231
0.22067508
0.22131696
0.22191979
0.22248538
0.22301555
0.22351208
0.22397671
0.22441114
0.22481703
0.22519596
0.2255495
0.22587913
0.22618628
0.22647233
0.2267386
0.22698633
0.22721673
0.22743093
0.22763
0.22781498
0.22798682
0.22814646
0.22829474
0.22843248
0.22856045
0.22867938
0.22878993
0.22889274
0.22898841
0.22907751
0.22916054
0.229238
0.22931035
0.22937802
0.2294414
0.22950088
0.2295568
0.22960949
0.22965925
0.22970638
0.22975113
0.22979376
0.2298345
0.22987357
0.22991118
0.22994751
0.22998276
0.21772894
0.21854111
0.21930736
0.22002928
0.22070872
0.22134754
0.22194756
0.2225106
0.22303843
0.22353281
0.22399548
0.22442813
0.22483238
0.22520984
0.22556202
0.22589043
0.22619647
0.22648151
0.22674686
0.22699377
0.22722341
0.22743692
0.22763538
0.2278198
0.22799115
0.22815032
0.22829819
0.22843557
0.22856321
0.22868183
0.22879211
0.22889468
0.22899013
0.22907902
0.22916187
0.22923917
0.22931138
0.22937892
0.22944218
0.22950155
0.22955738
0.22960998
0.22965966
0.22970672
0.22975141
0.22979398
0.22983467
0.22987369
0.22991126
0.22994756
0.22998277
0.2177815
0.21858911
0.21935115
0.22006919
0.22074507
0.2213806
0.2219776
0.22253786
0.22306317
0.22355524
0.2240158
0.22444652
0.22484901
0.22522487
0.2255756
0.22590268
0.22620752
0.22649147
0.22675583
0.22700183
0.22723066
0.22744344
0.22764123
0.22782505
0.22799585
0.22815453
0.22830196
0.22843893
0.22856621
0.22868451
0.22879449
0.22889679
0.22899201
0.22908068
0.22916334
0.22924046
0.22931251
0.2293799
0.22944304
0.22950229
0.22955801
0.22961052
0.22966012
0.22970709
0.22975171
0.22979422
0.22983485
0.22987383
0.22991135
0.22994761
0.22998279
0.21783809
0.21864081
0.21939833
0.22011221
0.22078425
0.22141625
0.22201
0.22256729
0.22308987
0.22357946
0.22403775
0.22446639
0.22486699
0.22524112
0.22559028
0.22591593
0.22621947
0.22650225
0.22676554
0.22701057
0.22723852
0.2274505
0.22764758
0.22783074
0.22800095
0.22815911
0.22830605
0.22844259
0.22856948
0.22868742
0.22879709
0.2288991
0.22899405
0.22908249
0.22916494
0.22924187
0.22931375
0.22938098
0.22944398
0.22950311
0.22955871
0.22961111
0.22966062
0.22970751
0.22975205
0.22979449
0.22983506
0.22987398
0.22991145
0.22994767
0.2299828
0.21789887
0.21869636
0.21944905
0.22015847
0.22082639
0.22145461
0.22204489
0.22259899
0.22311864
0.22360555
0.2240614
0.22448781
0.22488638
0.22525865
0.22560613
0.22593024
0.22623239
0.22651389
0.22677603
0.22702002
0.22724702
0.22745815
0.22765445
0.22783691
0.22800648
0.22816406
0.22831049
0.22844656
0.22857302
0.22869059
0.22879991
0.22890161
0.22899628
0.22908447
0.22916668
0.22924341
0.2293151
0.22938217
0.22944501
0.229504
0.22955948
0.22961177
0.22966117
0.22970797
0.22975243
0.22979479
0.22983529
0.22987415
0.22991157
0.22994773
0.22998282
0.21796403
0.21875593
0.21950346
0.22020811
0.22087164
0.22149582
0.22208238
0.22263306
0.22314958
0.22363362
0.22408684
0.22451087
0.22490726
0.22527754
0.2256232
0.22594566
0.2262463
0.22652644
0.22678735
0.22703021
0.2272562
0.2274664
0.22766187
0.22784357
0.22801247
0.22816943
0.2283153
0.22845086
0.22857687
0.22869402
0.22880296
0.22890433
0.2289987
0.22908661
0.22916858
0.22924508
0.22931657
0.22938345
0.22944613
0.22950497
0.22956031
0.22961248
0.22966177
0.22970847
0.22975284
0.22979512
0.22983555
0.22987434
0.22991169
0.2299478
0.22998285
0.21803372
0.21881969
0.21956171
0.22026128
0.22092013
0.22153998
0.22212257
0.2226696
0.22318277
0.22366375
0.22411416
0.22453562
0.22492967
0.22529784
0.22564155
0.22596225
0.22626128
0.22653996
0.22679953
0.22704119
0.22726609
0.2274753
0.22766987
0.22785076
0.22801892
0.22817522
0.22832049
0.22845551
0.22858102
0.22869773
0.22880628
0.22890728
0.22900132
0.22908894
0.22917064
0.2292469
0.22931817
0.22938485
0.22944735
0.22950603
0.22956123
0.22961326
0.22966243
0.22970902
0.22975329
0.22979548
0.22983583
0.22987454
0.22991183
0.22994788
0.22998287
0.21810814
0.21888778
0.21962395
0.22031812
0.22097197
0.22158723
0.22216558
0.22270873
0.22321833
0.22369603
0.22414345
0.22456217
0.22495371
0.2253196
0.22566125
0.22598005
0.22627736
0.22655448
0.22681263
0.227053
0.22727672
0.22748488
0.22767848
0.2278585
0.22802587
0.22818146
0.22832608
0.22846052
0.22858551
0.22870174
0.22880985
0.22891047
0.22900416
0.22909146
0.22917287
0.22924887
0.2293199
0.22938637
0.22944868
0.22950718
0.22956222
0.22961411
0.22966315
0.22970962
0.22975378
0.22979588
0.22983613
0.22987477
0.22991198
0.22994797
0.2299829
0.21818742
0.21896037
0.21969033
0.22037875
0.22102731
0.22163767
0.22221153
0.22275053
0.22325633
0.22373055
0.22417478
0.22459058
0.22497946
0.22534289
0.22568233
0.22599913
0.2262946
0.22657004
0.22682667
0.22706567
0.22728814
0.22749516
0.22768773
0.22786682
0.22803335
0.22818817
0.2283321
0.22846591
0.22859034
0.22870605
0.22881371
0.22891391
0.22900722
0.22909417
0.22917528
0.229251
0.22932177
0.22938802
0.22945012
0.22950843
0.2295633
0.22961503
0.22966393
0.22971028
0.22975432
0.22979631
0.22983647
0.22987502
0.22991215
0.22994806
0.22998293
0.21827173
0.21903758
0.21976097
0.22044331
0.22108624
0.22169142
0.2222605
0.2227951
0.22329687
0.22376739
0.22420822
0.22462092
0.22500696
0.22536781
0.22570487
0.22601951
0.22631304
0.2265867
0.22684171
0.22707923
0.22730037
0.22750617
0.22769765
0.22787575
0.22804137
0.22819537
0.22833856
0.22847171
0.22859553
0.2287107
0.22881786
0.22891761
0.22901051
0.2290971
0.22917787
0.22925329
0.2293238
0.2293898
0.22945167
0.22950978
0.22956446
0.22961603
0.22966478
0.22971098
0.2297549
0.22979678
0.22983683
0.22987529
0.22991234
0.22994817
0.22998296
0.2183612
0.21911956
0.219836
0.2205119
0.22114889
0.22174857
0.22231259
0.22284254
0.22334003
0.22380662
0.22424386
0.22465325
0.22503629
0.22539438
0.22572893
0.22604127
0.22633271
0.22660449
0.22685778
0.22709373
0.22731344
0.22751796
0.22770826
0.2278853
0.22804996
0.22820309
0.22834549
0.22847792
0.22860109
0.22871568
0.22882231
0.22892158
0.22901405
0.22910025
0.22918066
0.22925576
0.22932598
0.22939171
0.22945335
0.22951124
0.22956572
0.22961711
0.2296657
0.22971175
0.22975554
0.22979729
0.22983723
0.22987558
0.22991254
0.22994828
0.229983
0.21845595
0.21920641
0.21991552
0.22058463
0.22121534
0.22180922
0.22236789
0.22289292
0.22338588
0.22384831
0.22428174
0.22468765
0.22506749
0.22542267
0.22575455
0.22606446
0.22635368
0.22662344
0.22687491
0.2271092
0.2273274
0.22753054
0.22771959
0.2278955
0.22805914
0.22821134
0.2283529
0.22848457
0.22860705
0.22872101
0.22882708
0.22892584
0.22901785
0.22910363
0.22918366
0.22925842
0.22932832
0.22939377
0.22945515
0.22951281
0.22956708
0.22961828
0.22966669
0.22971258
0.22975622
0.22979784
0.22983766
0.2298759
0.22991275
0.22994841
0.22998304
0.21855608
0.21929823
0.21999962
0.22066159
0.22128567
0.22187345
0.22242648
0.22294631
0.22343449
0.22389254
0.22432194
0.22472416
0.22510062
0.22545271
0.22578178
0.22608912
0.22637599
0.2266436
0.22689313
0.22712567
0.22734226
0.22754394
0.22773167
0.22790638
0.22806893
0.22822014
0.22836081
0.22849167
0.22861342
0.22872672
0.22883218
0.22893039
0.22902191
0.22910724
0.22918687
0.22926126
0.22933083
0.22939598
0.22945708
0.22951449
0.22956854
0.22961953
0.22966775
0.22971348
0.22975696
0.22979843
0.22983813
0.22987625
0.22991299
0.22994854
0.22998308
0.21866166
0.21939509
0.22008838
0.22074283
0.22135996
0.22194131
0.22248841
0.22300277
0.22348592
0.22393934
0.2243645
0.22476283
0.22513573
0.22548456
0.22581065
0.22611527
0.22639967
0.22666502
0.22691248
0.22714314
0.22735805
0.22755819
0.22774452
0.22791795
0.22807935
0.22822952
0.22836924
0.22849924
0.22862021
0.2287328
0.22883762
0.22893526
0.22902625
0.2291111
0.22919031
0.2292643
0.22933352
0.22939834
0.22945916
0.2295163
0.22957011
0.22962088
0.2296689
0.22971444
0.22975775
0.22979908
0.22983863
0.22987662
0.22991324
0.22994869
0.22998313
0.21877273
0.21949702
0.22018182
0.2208284
0.22143824
0.22201285
0.22255372
0.22306234
0.22354021
0.22398877
0.22440946
0.22480369
0.22517284
0.22551824
0.22584119
0.22614295
0.22642473
0.22668771
0.22693299
0.22716167
0.22737478
0.2275733
0.22775815
0.22793024
0.22809041
0.22823948
0.22837819
0.22850728
0.22862742
0.22873927
0.22884341
0.22894044
0.22903087
0.22911522
0.22919396
0.22926755
0.22933638
0.22940087
0.22946137
0.22951823
0.22957178
0.22962232
0.22967012
0.22971547
0.22975861
0.22979976
0.22983917
0.22987702
0.22991352
0.22994885
0.22998318
0.21888929
0.21960405
0.22027998
0.22091832
0.22152054
0.22208808
0.22262243
0.22312504
0.22359737
0.22404083
0.22445684
0.22484677
0.22521198
0.22555378
0.22587343
0.22617218
0.22645121
0.22671168
0.22695468
0.22718128
0.22739249
0.22758928
0.22777259
0.22794325
0.22810214
0.22825003
0.22838768
0.22851581
0.22863508
0.22874614
0.22884956
0.22894594
0.22903578
0.2291196
0.22919786
0.229271
0.22933944
0.22940356
0.22946373
0.22952029
0.22957357
0.22962385
0.22967143
0.22971657
0.22975952
0.2298005
0.22983974
0.22987745
0.22991381
0.22994902
0.22998323
0.21901131
0.21971613
0.22038281
0.22101258
0.22160683
0.22216701
0.22269455
0.22319088
0.2236574
0.22409554
0.22450665
0.22489208
0.22525317
0.22559118
0.22590738
0.22620297
0.22647912
0.22673695
0.22697755
0.22720196
0.22741118
0.22760616
0.22778781
0.227957
0.22811453
0.22826119
0.22839772
0.22852484
0.22864319
0.22875341
0.22885608
0.22895177
0.22904099
0.22912424
0.22920199
0.22927466
0.22934268
0.22940642
0.22946624
0.22952248
0.22957547
0.22962549
0.22967283
0.22971775
0.22976049
0.22980129
0.22984036
0.22987791
0.22991413
0.2299492
0.22998329
0.21913871
0.2198332
0.22049027
0.22111111
0.22169708
0.22224959
0.22277003
0.22325981
0.2237203
0.22415287
0.22455887
0.22493961
0.22529638
0.22563045
0.22594303
0.22623531
0.22650844
0.22676352
0.22700161
0.22722373
0.22743086
0.22762394
0.22780386
0.22797147
0.22812759
0.22827295
0.22840832
0.22853436
0.22865175
0.22876109
0.22886296
0.22895793
0.22904649
0.22912915
0.22920636
0.22927854
0.22934611
0.22940945
0.2294689
0.22952481
0.22957749
0.22962723
0.22967431
0.229719
0.22976153
0.22980213
0.22984102
0.2298784
0.22991447
0.22994939
0.22998335
0.21927134
0.21995513
0.22060224
0.22121381
0.22179119
0.22233574
0.22284882
0.22333179
0.223786
0.22421279
0.22461346
0.22498931
0.2253416
0.22567155
0.22598036
0.2262692
0.22653917
0.22679137
0.22702684
0.22724656
0.22745152
0.22764261
0.22782072
0.22798668
0.2281413
0.22828533
0.22841946
0.22854438
0.22866075
0.22876917
0.22887021
0.22896442
0.2290523
0.22913433
0.22921097
0.22928264
0.22934974
0.22941265
0.22947171
0.22952727
0.22957962
0.22962907
0.22967589
0.22972032
0.22976263
0.22980302
0.22984172
0.22987893
0.22991483
0.2299496
0.22998342
0.21940899
0.22008175
0.22071856
0.22132055
0.22188905
0.22242535
0.22293081
0.22340673
0.22385443
0.22427522
0.22467037
0.22504115
0.22538877
0.22571445
0.22601934
0.22630459
0.22657129
0.22682049
0.22705322
0.22727045
0.22747313
0.22766215
0.22783838
0.22800263
0.22815568
0.22829828
0.22843114
0.2285549
0.22867021
0.22877766
0.22887783
0.22897124
0.2290584
0.22913977
0.22921582
0.22928695
0.22935356
0.22941601
0.22947467
0.22952986
0.22958187
0.22963101
0.22967755
0.22972172
0.22976379
0.22980396
0.22984246
0.22987948
0.22991521
0.22994982
0.22998349
0.21955137
0.22021279
0.220839
0.22143113
0.22199046
0.22251826
0.22301585
0.22348449
0.22392547
0.22434006
0.2247295
0.22509502
0.22543782
0.22575907
0.22605991
0.22634144
0.22660473
0.22685083
0.22708072
0.22729536
0.22749568
0.22768255
0.22785681
0.22801928
0.22817071
0.22831183
0.22844334
0.22856589
0.2286801
0.22878655
0.2288858
0.22897838
0.22906479
0.22914548
0.2292209
0.22929146
0.22935756
0.22941955
0.22947778
0.22953258
0.22958424
0.22963306
0.22967929
0.2297232
0.22976501
0.22980496
0.22984324
0.22988007
0.22991561
0.22995005
0.22998356
0.21969806
0.22034794
0.22096327
0.22154527
0.22209518
0.22261425
0.22310374
0.22356489
0.22399896
0.22440716
0.22479072
0.22515083
0.22548865
0.22580533
0.22610197
0.22637966
0.22663944
0.22688232
0.22710928
0.22732124
0.22751911
0.22770375
0.22787599
0.22803661
0.22818635
0.22832594
0.22845606
0.22857734
0.2286904
0.22879581
0.22889411
0.22898583
0.22907145
0.22915144
0.22922621
0.22929619
0.22936175
0.22942325
0.22948104
0.22953543
0.22958672
0.2296352
0.22968112
0.22972474
0.2297663
0.229806
0.22984406
0.22988068
0.22991603
0.2299503
0.22998364
0.2191761
0.2198489
0.22048683
0.22109103
0.22166266
0.22220293
0.22271305
0.22319424
0.22364772
0.22407469
0.22447634
0.22485386
0.22520841
0.22554112
0.2258531
0.22614543
0.22641917
0.22667533
0.2269149
0.22713883
0.22734803
0.22754338
0.22772572
0.22789586
0.22805457
0.22820257
0.22834058
0.22846926
0.22858923
0.22870109
0.22880543
0.22890275
0.22899358
0.22907839
0.22915763
0.22923174
0.2293011
0.2293661
0.2294271
0.22948443
0.2295384
0.22958931
0.22963743
0.22968303
0.22972636
0.22976764
0.22980709
0.22984492
0.22988132
0.22991648
0.22995056
0.22998372
0.21864853
0.21934339
0.22000319
0.22062896
0.2212218
0.22178287
0.22231331
0.22281431
0.22328704
0.22373268
0.2241524
0.22454737
0.22491872
0.22526758
0.22559505
0.22590222
0.22619014
0.22645983
0.22671229
0.22694846
0.22716928
0.22737564
0.2275684
0.22774838
0.22791636
0.22807311
0.22821932
0.2283557
0.2284829
0.22860152
0.22871216
0.22881537
0.22891169
0.2290016
0.22908557
0.22916405
0.22923746
0.22930619
0.22937062
0.2294311
0.22948795
0.22954148
0.22959199
0.22963975
0.22968502
0.22972804
0.22976903
0.22980823
0.22984582
0.22988199
0.22991694
0.22995082
0.22998381
0.21811691
0.21883279
0.21951363
0.22016026
0.22077371
0.22135506
0.22190541
0.22242589
0.22291762
0.22338176
0.22381944
0.2242318
0.22461995
0.22498502
0.22532809
0.22565024
0.22595251
0.22623593
0.22650149
0.22675015
0.22698286
0.22720051
0.22740397
0.22759408
0.22777164
0.22793742
0.22809215
0.22823654
0.22837125
0.22849692
0.22861416
0.22872354
0.22882561
0.22892088
0.22900985
0.22909296
0.22917066
0.22924336
0.22931145
0.22937529
0.22943522
0.22949158
0.22954466
0.22959476
0.22964215
0.22968707
0.22972977
0.22977048
0.2298094
0.22984674
0.22988269
0.22991742
0.2299511
0.2299839
0.21831846
0.21901929
0.21968599
0.22031936
0.2209204
0.22149016
0.2220297
0.22254011
0.22302249
0.22347795
0.22390758
0.22431248
0.22469375
0.22505246
0.22538967
0.22570642
0.22600372
0.22628257
0.22654394
0.22678876
0.22701795
0.22723238
0.22743289
0.2276203
0.2277954
0.22795894
0.22811162
0.22825414
0.22838715
0.22851128
0.22862711
0.2287352
0.2288361
0.22893031
0.2290183
0.22910055
0.22917744
0.22924941
0.22931684
0.22938007
0.22943945
0.22949531
0.22954793
0.22959761
0.22964461
0.22968918
0.22973156
0.22977197
0.22981061
0.2298477
0.22988341
0.22991792
0.22995139
0.22998399
0.21852125
0.21920701
0.21985954
0.22047962
0.22106822
0.22162635
0.22215504
0.22265536
0.22312834
0.22357508
0.22399662
0.22439403
0.22476837
0.22512067
0.22545198
0.22576328
0.22605557
0.22632982
0.22658696
0.2268279
0.22705353
0.2272647
0.22746223
0.22764692
0.22781953
0.22798079
0.2281314
0.22827203
0.22840332
0.22852587
0.22864027
0.22874707
0.22884678
0.22893991
0.22902692
0.22910826
0.22918436
0.22925559
0.22932233
0.22938495
0.22944377
0.22949912
0.22955127
0.22960052
0.22964713
0.22969134
0.22973339
0.22977349
0.22981185
0.22984868
0.22988414
0.22991842
0.22995169
0.22998408
0.21872404
0.21939478
0.22003319
0.22064003
0.22121624
0.22176278
0.22228067
0.2227709
0.22323451
0.22367253
0.22408599
0.22447591
0.22484332
0.22518922
0.22551461
0.22582047
0.22610774
0.22637737
0.22663027
0.22686732
0.22708938
0.22729728
0.22749182
0.22767377
0.22784387
0.22800285
0.22815137
0.2282901
0.22841965
0.22854062
0.22865358
0.22875906
0.22885758
0.22894962
0.22903564
0.22911608
0.22919134
0.22926183
0.2293279
0.2293899
0.22944815
0.22950298
0.22955466
0.22960348
0.22964969
0.22969353
0.22973524
0.22977503
0.22981311
0.22984967
0.22988489
0.22991894
0.22995199
0.22998418
0.21892538
0.21958127
0.22020572
0.22079947
0.22136341
0.22189848
0.22240566
0.22288591
0.22334023
0.22376961
0.22417505
0.22455754
0.22491806
0.2252576
0.22557712
0.22587756
0.22615984
0.22642488
0.22667356
0.22690673
0.22712523
0.22732987
0.22752142
0.22770064
0.22786825
0.22802494
0.22817138
0.2283082
0.22843602
0.22855541
0.22866693
0.2287711
0.22886842
0.22895937
0.2290444
0.22912393
0.22919837
0.2292681
0.22933349
0.22939487
0.22945255
0.22950686
0.22955807
0.22960645
0.22965226
0.22969574
0.22973711
0.22977659
0.22981438
0.22985067
0.22988564
0.22991946
0.22995229
0.22998428
0.21912366
0.21976498
0.22037574
0.22095664
0.22150853
0.22203235
0.222529
0.22299944
0.22344462
0.2238655
0.22426305
0.22463823
0.22499198
0.22532525
0.22563898
0.22593407
0.22621144
0.22647194
0.22671645
0.22694579
0.22716078
0.22736219
0.2275508
0.22772731
0.22789245
0.22804688
0.22819125
0.22832619
0.22845229
0.22857011
0.2286802
0.22878307
0.2288792
0.22896907
0.22905311
0.22913175
0.22920537
0.22927436
0.22933906
0.22939982
0.22945694
0.22951073
0.22956147
0.22960941
0.22965483
0.22969794
0.22973898
0.22977815
0.22981565
0.22985168
0.2298864