/*--------------------------------*- C++ -*----------------------------------*\
| =========                 |                                                 |
| \\      /  F ield         | OpenFOAM: The Open Source CFD Toolbox           |
|  \\    /   O peration     | Version:  2312                                  |
|   \\  /    A nd           | Website:  www.openfoam.com                      |
|    \\/     M anipulation  |                                                 |
\*---------------------------------------------------------------------------*/
FoamFile
{
    version     2.0;
    format      ascii;
    arch        "LSB;label=32;scalar=64";
    class       volScalarField;
    location    "0.04";
    object      omega;
}
// * * * * * * * * * * * * * * * * * * * * * * * * * * * * * * * * * * * * * //

dimensions      [0 0 -1 0 0 0 0];

internalField   nonuniform List<scalar> 
3224
(
210.24754
209.5081
208.80304
208.13096
207.49049
206.88041
206.29957
205.74695
205.22155
204.72247
204.24882
203.79977
203.37454
202.97236
202.5925
202.23426
201.89694
201.57988
201.28243
201.00396
200.74384
200.50147
200.27625
200.06759
199.87491
199.69764
199.53522
199.38711
199.25275
199.13161
199.02315
198.92686
198.84222
198.76872
198.70585
198.65313
198.61005
198.57614
198.55089
198.53386
198.52344
210.24643
209.50587
208.8001
208.12756
207.48676
206.87642
206.29537
205.74256
205.217
204.71777
204.24398
203.79482
203.36947
202.96718
202.58722
202.22888
201.89146
201.57432
201.27678
200.99823
200.73803
200.49559
200.27029
200.06156
199.86881
199.69148
199.52901
199.38084
199.24642
199.12523
199.01672
198.92038
198.83569
198.76215
198.69925
198.64648
198.60337
198.56942
198.54415
198.52716
198.51739
210.24554
209.50381
208.79743
208.1245
207.48342
206.87285
206.29161
205.73864
205.21293
204.71356
204.23965
203.79036
203.36489
202.9625
202.58243
202.22399
201.88648
201.56923
201.27161
200.99297
200.73269
200.49016
200.26479
200.05599
199.86317
199.68577
199.52323
199.37499
199.24052
199.11927
199.01071
198.91432
198.82959
198.756
198.69306
198.64026
198.59712
198.56314
198.53784
198.52085
198.51183
210.24504
209.50221
208.79539
208.12215
207.48084
206.87008
206.28868
205.73556
205.20972
204.71022
204.23618
203.78678
203.3612
202.95869
202.57852
202.21997
201.88236
201.56501
201.26729
200.98856
200.72819
200.48557
200.26012
200.05123
199.85833
199.68086
199.51824
199.36994
199.2354
199.11408
199.00547
198.90902
198.82424
198.75061
198.68762
198.63479
198.59162
198.55762
198.5323
198.51528
198.50692
211.02439
210.24397
209.50113
208.79408
208.12065
207.47917
206.86826
206.28673
205.73348
205.20752
204.7079
204.23375
203.78423
203.35854
202.95592
202.57563
202.21697
201.87926
201.56181
201.26398
200.98515
200.72468
200.48197
200.25641
200.04744
199.85445
199.67689
199.5142
199.36582
199.2312
199.10982
199.00114
198.90464
198.8198
198.74612
198.68309
198.63022
198.58703
198.55301
198.52768
198.51063
198.50277
211.02185
210.24321
209.50067
208.79359
208.12007
207.47849
206.86748
206.28585
205.7325
205.20643
204.70672
204.23246
203.78284
203.35704
202.95432
202.57393
202.21516
201.87734
201.55978
201.26186
200.98292
200.72235
200.47954
200.25389
200.04481
199.85174
199.67409
199.51131
199.36285
199.22816
199.10671
198.99796
198.9014
198.81651
198.74278
198.67971
198.62681
198.58358
198.54956
198.52423
198.50714
198.49962
211.02125
210.24299
209.5008
208.79381
208.12027
207.47864
206.86757
206.28587
205.73244
205.20629
204.70649
204.23214
203.78242
203.35652
202.9537
202.5732
202.21433
201.8764
201.55874
201.26071
200.98167
200.72099
200.47808
200.25233
200.04316
199.84999
199.67226
199.50939
199.36085
199.22608
199.10455
198.99574
198.89911
198.81416
198.74038
198.67726
198.62433
198.58108
198.54704
198.52172
198.50463
198.49731
211.02171
210.24334
209.50154
208.79472
208.12124
207.47961
206.86851
206.28676
205.73327
205.20705
204.70716
204.23273
203.78291
203.35691
202.95398
202.57338
202.2144
201.87636
201.55858
201.26044
200.98128
200.72049
200.47747
200.25161
200.04234
199.84906
199.67122
199.50826
199.35963
199.22477
199.10316
198.99427
198.89757
198.81256
198.73872
198.67556
198.62259
198.57932
198.54527
198.51996
198.50289
198.4957
211.83779
211.02194
210.24426
209.50295
208.79639
208.12304
207.48146
206.87037
206.28859
205.73506
205.20878
204.70882
204.2343
203.78438
203.35829
202.95525
202.57453
202.21544
201.87727
201.55938
201.26111
200.98183
200.72092
200.47777
200.2518
200.0424
199.84902
199.67107
199.508
199.35926
199.22431
199.10261
198.99363
198.89686
198.81178
198.73788
198.67467
198.62165
198.57836
198.5443
198.519
198.50197
198.49486
211.83638
211.02253
210.24582
209.50511
208.79889
208.12573
207.48426
206.87321
206.29144
205.73788
205.21155
204.71153
204.23693
203.78692
203.36073
202.95757
202.57674
202.21752
201.87923
201.56121
201.2628
200.98339
200.72235
200.47907
200.25296
200.04344
199.84993
199.67186
199.50868
199.35983
199.22477
199.10297
198.9939
198.89705
198.81189
198.73792
198.67466
198.6216
198.57827
198.5442
198.51892
198.50193
198.49488
212.6825
211.83578
211.02374
210.24814
209.5081
208.80231
208.1294
207.48808
206.87711
206.29537
205.74181
205.21545
204.71537
204.2407
203.7906
203.3643
202.96104
202.58009
202.22074
201.88231
201.56415
201.26561
200.98605
200.72486
200.48144
200.2552
200.04554
199.85189
199.67369
199.51038
199.36141
199.22624
199.10433
198.99516
198.89821
198.81297
198.73893
198.67561
198.6225
198.57915
198.54506
198.5198
198.50285
198.49584
212.68214
211.83623
211.02578
210.2513
209.51201
208.80671
208.13412
207.49299
206.88214
206.30047
205.74693
205.22055
204.72043
204.24569
203.79551
203.36911
202.96573
202.58465
202.22517
201.8866
201.5683
201.2696
200.98989
200.72855
200.48498
200.25858
200.04877
199.85497
199.67663
199.51318
199.36408
199.22878
199.10676
198.99748
198.90043
198.8151
198.74099
198.6776
198.62445
198.58105
198.54696
198.5217
198.5048
198.49782
213.56304
212.68253
211.83778
211.02879
210.25544
209.51694
208.81218
208.13996
207.49908
206.88839
206.30681
205.75331
205.22694
204.72678
204.25199
203.80173
203.37523
202.97174
202.59053
202.2309
201.89219
201.57373
201.27487
200.995
200.7335
200.48976
200.26319
200.05322
199.85927
199.68077
199.51718
199.36793
199.2325
199.11035
199.00096
198.9038
198.81837
198.74418
198.68072
198.62751
198.58408
198.54997
198.52472
198.50787
198.5009
213.56394
212.68402
211.84052
211.03288
210.26063
209.52297
208.81881
208.14701
207.50643
206.89594
206.31448
205.76105
205.2347
204.73453
204.25968
203.80935
203.38275
202.97914
202.5978
202.23803
201.89917
201.58054
201.28152
201.00147
200.73979
200.49588
200.26914
200.05899
199.86487
199.68621
199.52245
199.37306
199.23748
199.11519
199.00567
198.9084
198.82287
198.74858
198.68505
198.63178
198.58832
198.55419
198.52895
198.51213
198.50518
214.48139
213.56557
212.68672
211.84449
211.03814
210.267
209.53019
208.82668
208.15535
207.51511
206.90486
206.32356
205.77022
205.24391
204.74374
204.26886
203.81846
203.39176
202.98804
202.60657
202.24665
201.90762
201.58882
201.28962
201.0094
200.74753
200.50343
200.2765
200.06617
199.87187
199.69303
199.52911
199.37954
199.24381
199.12138
199.01172
198.91433
198.82869
198.7543
198.69069
198.63736
198.59385
198.5597
198.53447
198.51769
198.51075
214.48354
213.56836
212.6907
211.84976
211.04467
210.27462
209.53869
208.83587
208.16507
207.52521
206.91524
206.33413
205.78092
205.25467
204.75452
204.27961
203.82915
203.40236
202.99853
202.61692
202.25685
201.91765
201.59868
201.29929
201.01887
200.75681
200.51251
200.28539
200.07486
199.88036
199.70134
199.53723
199.38749
199.25159
199.129
199.0192
198.92167
198.83592
198.76143
198.69773
198.64434
198.60078
198.56661
198.54138
198.52464
198.5177
215.43788
214.48645
213.57241
212.69602
211.85637
211.05253
210.28358
209.54857
208.84647
208.17624
207.53682
206.92717
206.34629
205.79323
205.26707
204.76694
204.29202
203.84151
203.41465
203.01069
202.62895
202.26873
201.92936
201.6102
201.31062
201.03
200.76773
200.52322
200.29589
200.08515
199.89045
199.71122
199.54692
199.397
199.26092
199.13817
199.02821
198.93054
198.84466
198.77006
198.70627
198.65281
198.6092
198.575
198.54977
198.53307
198.52613
215.44097
214.49063
213.57781
212.70272
211.86439
211.0618
210.29396
209.55989
208.85857
208.18896
207.55001
206.94072
206.36011
205.80723
205.28118
204.78111
204.3062
203.85564
203.4287
203.02464
202.64276
202.28238
201.94284
201.62349
201.32371
201.04288
200.78039
200.53566
200.30811
200.09715
199.90223
199.72279
199.55829
199.40817
199.2719
199.14897
199.03885
198.94104
198.85502
198.78031
198.71642
198.66288
198.61922
198.58499
198.55975
198.54308
198.53614
215.44631
214.49623
213.5846
212.71085
211.87386
211.07253
210.30583
209.57275
208.87224
208.20329
207.56487
206.95599
206.37568
205.82302
205.29711
204.79712
204.32222
203.87164
203.44463
203.04047
202.65846
202.29792
201.9582
201.63865
201.33866
201.05761
200.7949
200.54994
200.32215
200.11096
199.91582
199.73615
199.57143
199.4211
199.28464
199.16152
199.05123
198.95326
198.8671
198.79226
198.72827
198.67465
198.63093
198.59667
198.57142
198.55478
198.54784
215.45318
214.50317
213.59278
212.72042
211.88481
211.08478
210.31927
209.5872
208.88756
208.21933
207.58148
206.97305
206.39309
205.84067
205.31494
204.81505
204.34019
203.8896
203.46253
203.05827
202.67613
202.31543
201.97553
201.65578
201.35558
201.0743
200.81135
200.56615
200.33812
200.1267
199.93131
199.75141
199.58646
199.43591
199.29924
199.17593
199.06546
198.96731
198.88101
198.80604
198.74194
198.68823
198.64445
198.61015
198.58489
198.56827
198.56133
216.45008
215.4599
214.51123
213.6023
212.73144
211.89728
211.09861
210.33432
209.60333
208.90461
208.23713
207.59992
206.99199
206.41241
205.86029
205.33475
204.83499
204.36019
203.90961
203.48249
203.07815
202.69588
202.33502
201.99494
201.67499
201.37457
201.09305
200.82987
200.58442
200.35614
200.14446
199.94882
199.76868
199.60348
199.45271
199.31582
199.1923
199.08164
198.98332
198.89685
198.82175
198.75753
198.70373
198.65988
198.62554
198.60027
198.58367
198.57672
216.45547
215.46725
214.5204
213.61316
212.74392
211.91129
211.11405
210.35103
209.62118
208.92343
208.25679
207.62025
207.01287
206.43373
205.88193
205.35664
204.85703
204.38232
203.93176
203.50461
203.10019
202.7178
202.3568
202.01653
201.69638
201.39573
201.11398
200.85054
200.60484
200.37629
200.16435
199.96845
199.78805
199.62261
199.4716
199.33448
199.21075
199.09988
199.00138
198.91475
198.83951
198.77517
198.72127
198.67735
198.64296
198.61767
198.60109
198.59414
218.55478
217.48831
216.46097
215.47538
214.53068
213.62534
212.75786
211.92687
211.13112
210.36947
209.64081
208.9441
208.27834
207.64255
207.03577
206.45711
205.90569
205.38068
204.88126
204.40666
203.95614
203.52898
203.1245
202.742
202.38085
202.04041
201.72005
201.41917
201.13718
200.87349
200.62752
200.39871
200.18649
199.99033
199.80966
199.64396
199.4927
199.35534
199.23138
199.12031
199.02162
198.93482
198.85942
198.79496
198.74095
198.69696
198.66252
198.63721
198.62064
198.61368
219.66584
218.55685
217.4914
216.46722
215.48443
214.54209
213.63884
212.77326
211.94401
211.14986
210.38964
209.66226
208.96667
208.30186
207.66687
207.06076
206.48263
205.93164
205.40694
204.90774
204.43329
203.98284
203.5557
203.15116
202.76857
202.40728
202.06666
201.7461
201.445
201.16276
200.89881
200.65257
200.42348
200.21099
200.01454
199.83361
199.66764
199.51612
199.37852
199.25432
199.14303
199.04414
198.95717
198.88161
198.81701
198.7629
198.71882
198.68433
198.659
198.64245
198.63547
219.66508
218.55884
217.49562
216.47443
215.49447
214.55464
213.65364
212.7901
211.96273
211.17027
210.41158
209.68556
208.99116
208.32738
207.69326
207.08788
206.51035
205.95983
205.4355
204.93657
204.46229
204.01195
203.58483
203.18026
202.79759
202.43617
202.09539
201.77463
201.4733
201.19082
200.9266
200.68009
200.45072
200.23795
200.04122
199.86
199.69376
199.54197
199.40411
199.27968
199.16817
199.06907
198.98191
198.90619
198.84145
198.78723
198.74306
198.70852
198.68316
198.66661
198.65963
219.66478
218.56127
217.50077
216.48257
215.5055
214.56832
213.66972
212.80838
211.983
211.19236
210.4353
209.71074
209.01762
208.35495
207.72178
207.11719
206.54033
205.99033
205.46642
204.9678
204.49374
204.04353
203.61647
203.21189
202.82915
202.46762
202.12668
201.80574
201.50419
201.22146
200.95698
200.71019
200.48054
200.26748
200.07046
199.88895
199.72243
199.57036
199.43225
199.30757
199.19582
199.09652
199.00916
198.93328
198.8684
198.81405
198.7698
198.73519
198.70981
198.69326
198.68627
219.66465
218.56413
217.50665
216.49156
215.51748
214.58309
213.68705
212.82805
212.00481
211.21611
210.4608
209.73779
209.04605
208.38458
207.75244
207.14873
206.57259
206.02319
205.49975
205.00149
204.52769
204.07765
203.65068
203.24612
202.86334
202.50171
202.16063
201.8395
201.53774
201.25477
200.99004
200.74297
200.51303
200.29968
200.10236
199.92056
199.75375
199.60141
199.46303
199.3381
199.22612
199.12659
199.03904
198.96299
198.89796
198.84349
198.79914
198.76447
198.73905
198.72251
198.7155
219.66442
218.56724
217.51307
216.50125
215.53032
214.59888
213.70557
212.84906
212.02811
211.24148
210.48804
209.76671
209.07645
208.41628
207.78526
207.18252
206.60718
206.05845
205.53553
205.03769
204.5642
204.11437
203.68752
203.28302
202.90022
202.53852
202.19732
201.87602
201.57405
201.29085
201.02586
200.77853
200.5483
200.33465
200.13704
199.95495
199.78785
199.63522
199.49657
199.37138
199.25916
199.15941
199.07166
198.99543
198.93024
198.87565
198.83121
198.79647
198.77102
198.75447
198.74745
219.66383
218.57038
217.51982
216.51149
215.5439
214.61559
213.72518
212.87135
212.05284
211.26843
210.51701
209.79748
209.10882
208.45005
207.82026
207.21856
206.64411
206.09612
205.57381
205.07644
204.60331
204.15374
203.72707
203.32265
202.93986
202.57811
202.23681
201.91536
201.6132
201.32978
201.06454
200.81694
200.58643
200.37249
200.17459
199.9922
199.8248
199.67189
199.53297
199.40752
199.29505
199.19508
199.10712
199.03071
198.96537
198.91065
198.86611
198.8313
198.80581
198.78926
198.78222
219.66262
218.57332
217.52668
216.5221
215.55806
214.63309
213.74578
212.89481
212.07892
211.2969
210.54763
209.83004
209.14311
208.48587
207.85741
207.25686
206.68339
206.13622
205.61459
205.11777
204.64506
204.1958
203.76934
203.36505
202.98232
202.62055
202.27916
201.95759
201.65526
201.37163
201.10615
200.85829
200.62751
200.41328
200.21509
200.0324
199.86472
199.71153
199.57232
199.44661
199.3339
199.2337
199.14554
199.06894
199.00344
198.9486
198.90395
198.86907
198.84354
198.82699
198.81993
219.66053
218.57581
217.53342
216.53287
215.57264
214.65123
213.76724
212.91933
212.10624
211.32679
210.57984
209.86434
209.17927
208.52368
207.89668
207.29739
206.725
206.17875
205.65787
205.16167
204.68946
204.24058
203.81438
203.41027
203.02763
202.66587
202.32444
202.00276
201.70029
201.41647
201.15077
200.90266
200.67162
200.45711
200.25863
200.07565
199.90768
199.7542
199.61473
199.48875
199.37579
199.27537
199.187
199.11022
199.04457
198.98959
198.94484
198.90988
198.88431
198.86775
198.86067
219.65728
218.57754
217.53976
216.54356
215.58742
214.66983
213.78938
212.94475
212.13468
211.35798
210.61353
209.90028
209.21722
208.56343
207.93801
207.3401
206.76891
206.22367
205.70365
205.20815
204.73651
204.28807
203.8622
203.45832
203.07581
202.71412
202.37268
202.05093
201.74833
201.46435
201.19845
200.95011
200.71881
200.50404
200.30528
200.12202
199.95377
199.80001
199.66027
199.53403
199.42083
199.32018
199.2316
199.15464
199.08883
199.03372
198.98886
198.95383
198.92822
198.91165
198.90455
219.65256
218.57823
217.54544
216.55393
215.60217
214.68868
213.81204
212.97092
212.16408
211.39034
210.64858
209.93775
209.25688
208.60503
207.98133
207.38494
206.81506
206.27095
205.75188
205.25718
204.78619
204.33826
203.9128
203.5092
203.12689
202.76531
202.4239
202.10212
201.79943
201.51531
201.24923
201.00069
200.76916
200.55413
200.35511
200.17158
200.00305
199.84903
199.70901
199.58253
199.46909
199.36821
199.27943
199.20229
199.13632
199.08107
199.03612
199.00101
198.97535
198.95877
198.95166
219.64603
218.57755
217.55016
216.56369
215.61664
214.70754
213.83498
212.99763
212.19426
211.42369
210.68483
209.97663
209.29812
208.64838
208.02655
207.43181
206.86338
206.32051
205.80252
205.30871
204.83846
204.39114
203.96615
203.56291
203.18086
202.81944
202.47811
202.15634
201.8536
201.56938
201.30316
201.05443
200.82269
200.60743
200.40816
200.22438
200.05559
199.9013
199.76104
199.6343
199.52063
199.41953
199.33056
199.25323
199.18711
199.13174
199.08668
199.0515
199.0258
199.0092
199.00207
219.63735
218.57514
217.55361
216.57254
215.63054
214.72615
213.85796
213.02466
212.22501
211.45785
210.7221
210.01673
209.34077
208.69333
208.07354
207.4806
206.91376
206.37228
205.85547
205.36268
204.89327
204.44665
204.02222
203.61942
203.23769
202.8765
202.5353
202.21359
201.91085
201.62657
201.36024
201.11136
200.87943
200.66397
200.46447
200.28045
200.11142
199.95689
199.81638
199.68941
199.57551
199.47421
199.38504
199.30754
199.24127
199.18577
199.14061
199.10536
199.07962
199.06301
199.05585
219.62612
218.57064
217.55542
216.58014
215.64356
214.74421
213.8807
213.05173
212.25608
211.49259
210.7602
210.05787
209.38468
208.73971
208.12215
207.53118
206.96608
206.42612
205.91063
205.41898
204.95053
204.50471
204.08094
203.67866
203.29733
202.93644
202.59545
202.27386
201.97116
201.68686
201.42046
201.17147
200.9394
200.72376
200.52406
200.33982
200.17057
200.01581
199.87507
199.74789
199.63378
199.53227
199.44292
199.36526
199.29884
199.24323
199.19797
199.16265
199.13687
199.12025
199.11307
219.61195
218.56368
217.5552
216.58614
215.65536
214.7614
213.90291
213.07858
212.28721
211.52766
210.79887
210.09983
209.42961
208.78734
208.17219
207.58338
207.02018
206.4819
205.96788
205.47749
205.01013
204.56523
204.14221
203.74055
203.35972
202.9992
202.65849
202.33708
202.0345
201.75023
201.48381
201.23475
201.00257
200.78679
200.58692
200.4025
200.23305
200.07809
199.93714
199.80975
199.69545
199.59376
199.50424
199.42642
199.35987
199.30414
199.25879
199.22341
199.19758
199.18095
199.17375
219.59443
218.55383
217.55257
216.59016
215.66557
214.77738
213.92425
213.10488
212.3181
211.56277
210.83785
210.14235
209.47535
208.83599
208.22346
207.637
207.07589
206.53946
206.02706
205.53808
205.07194
204.62807
204.20593
203.805
203.42476
203.0647
202.72435
202.4032
202.10079
201.81663
201.55025
201.30117
201.06892
200.85304
200.65304
200.46847
200.29885
200.14371
200.00258
199.87501
199.76053
199.65867
199.56899
199.49104
199.42436
199.36852
199.32309
199.28765
199.26179
199.24515
199.23793
219.5731
218.54068
217.54709
216.59181
215.67381
214.79178
213.94436
213.1303
212.34842
211.59761
210.87685
210.18515
209.52162
208.88541
208.27572
207.69181
207.13299
206.59858
206.08797
205.60056
205.13579
204.69309
204.27196
203.87186
203.49232
203.13283
202.79292
202.47212
202.16996
201.88597
201.61968
201.37064
201.13839
200.92245
200.72237
200.53768
200.36793
200.21264
200.07136
199.94364
199.829
199.727
199.63718
199.55909
199.4923
199.43637
199.39087
199.35538
199.32948
199.31283
199.30559
219.54752
218.52377
217.53832
216.59066
215.67968
214.80419
213.96286
213.15446
212.37782
211.63185
210.91554
210.22792
209.56812
208.93531
208.3287
207.74757
207.19123
206.65905
206.15041
205.66474
205.20148
204.76011
204.34011
203.94098
203.56225
203.20344
202.86408
202.54371
202.24188
201.95814
201.69203
201.44309
201.21088
200.99495
200.79483
200.61007
200.44023
200.28483
200.14344
200.01558
199.90082
199.79869
199.70875
199.63056
199.56368
199.50767
199.4621
199.42656
199.40064
199.38398
199.37673
219.51725
218.50268
217.52585
216.58626
215.68274
214.81421
213.97936
213.17699
212.40593
211.66513
210.95357
210.27034
209.61454
208.98538
208.3821
207.80397
207.25035
206.7206
206.21412
205.73037
205.2688
204.8289
204.41019
204.01217
203.63438
203.27635
202.93765
202.61782
202.31643
202.03301
201.76715
201.51839
201.2863
201.07043
200.87033
200.68555
200.51566
200.3602
200.21872
200.09078
199.97592
199.87369
199.78366
199.70538
199.63842
199.58234
199.53672
199.50115
199.47521
199.45855
199.45128
219.48182
218.47694
217.50922
216.57818
215.68257
214.82141
213.99345
213.19747
212.43236
211.69706
210.99058
210.31203
209.66053
209.0353
208.4356
207.86073
207.31004
206.78293
206.27883
205.79719
205.33749
204.89924
204.48196
204.08519
203.70848
203.35138
203.01345
202.69427
202.3934
202.11042
201.84489
201.59639
201.36449
201.14875
200.94873
200.764
200.59411
200.43863
200.29711
200.16911
200.05419
199.9519
199.8618
199.78346
199.71644
199.66032
199.61466
199.57906
199.55311
199.53645
199.52917
219.44083
218.44614
217.48801
216.56595
215.67875
214.82537
214.00468
213.21549
212.45668
211.72723
211.02618
210.35262
209.70572
209.0847
208.48885
207.91748
207.36998
206.84575
206.34423
205.8649
205.40727
204.97084
204.55517
204.15981
203.78432
203.42827
203.09125
202.77284
202.47261
202.19016
201.92507
201.67691
201.44528
201.22974
201.02987
200.84524
200.67542
200.51997
200.37847
200.25046
200.13551
200.03319
199.94306
199.86468
199.79763
199.74147
199.6958
199.66018
199.63423
199.61758
199.61028
219.39388
218.40987
217.46177
216.54916
215.67082
214.82566
214.01265
213.23062
212.4785
211.75526
211.05995
210.39171
209.74971
209.1332
208.54148
207.97389
207.42982
206.90869
206.40999
205.93319
205.47781
205.04341
204.62952
204.23573
203.86162
203.50678
203.1708
202.85327
202.55381
202.272
202.00744
201.75973
201.52845
201.3132
201.11355
200.9291
200.75941
200.60405
200.4626
200.33463
200.21971
200.11739
200.02726
199.94888
199.88182
199.82566
199.77998
199.74436
199.71842
199.70178
199.69447
219.34069
218.36775
217.43013
216.52739
215.65834
214.82183
214.01691
213.24245
212.49738
211.78071
211.0915
210.4289
209.79212
209.18042
208.59311
208.02956
207.48918
206.97141
206.47575
206.00169
205.54879
205.1166
204.70468
204.31265
203.94008
203.58659
203.25179
202.9353
202.63672
202.35567
202.09176
201.84459
201.61376
201.39888
201.19955
201.01534
200.84584
200.69064
200.54931
200.42143
200.30657
200.20431
200.11421
200.03586
199.96882
199.91267
199.86701
199.83141
199.80549
199.78887
199.78156
219.28113
218.31946
217.39269
216.50024
215.64091
214.8135
214.01708
213.25057
212.51293
211.80317
211.12041
210.46379
209.83254
209.22594
208.64334
208.0841
207.54767
207.03352
206.54113
206.07005
205.61983
205.19006
204.78031
204.3902
204.01935
203.66738
203.33392
203.01859
202.72104
202.44087
202.17771
201.9312
201.70093
201.48652
201.28757
201.10368
200.93446
200.77948
200.63833
200.5106
200.39586
200.29369
200.20367
200.12538
200.05839
200.00229
199.95666
199.9211
199.8952
199.87861
199.8713
219.21533
218.26464
217.34906
216.46733
215.61815
214.80029
214.01276
213.25458
212.52474
211.82227
211.14629
210.49597
209.87057
209.26938
208.69176
208.13712
207.60491
207.09461
206.60575
206.13787
205.69056
205.26341
204.85602
204.46804
204.09908
203.7488
203.41683
203.10281
202.80641
202.52725
202.26498
202.01923
201.78962
201.57577
201.37731
201.19383
201.02495
200.87027
200.72936
200.60183
200.48727
200.38524
200.29534
200.21715
200.15025
200.09422
200.04865
200.01314
199.98729
199.97073
199.96343
220.11534
219.14103
218.20265
217.29888
216.42834
215.58974
214.78186
214.00362
213.25416
212.53247
211.83763
211.16876
210.52507
209.90582
209.31033
208.73799
208.18822
207.66049
207.1543
206.6692
206.20476
205.76057
205.33625
204.93142
204.54575
204.17886
203.83043
203.50012
203.18758
202.89247
202.61446
202.35319
202.10832
201.87947
201.6663
201.46841
201.28543
201.11698
200.96266
200.82207
200.69481
200.58047
200.47863
200.3889
200.31085
200.24407
200.18814
200.14266
200.10722
200.08142
200.06491
200.05761
221.01582
220.01907
219.05861
218.13335
217.24194
216.38307
215.55546
214.75793
213.98939
213.249
212.53581
211.84892
211.18749
210.55073
209.93793
209.34843
208.78164
208.23701
207.71401
207.21218
206.73107
206.27029
205.82944
205.40816
205.0061
204.62292
204.25829
203.91189
203.58339
203.27247
202.9788
202.70207
202.44194
202.19806
201.9701
201.75769
201.56047
201.37808
201.21014
201.05626
200.91605
200.78912
200.67507
200.57348
200.48396
200.40609
200.33946
200.28366
200.23829
200.20294
200.17722
200.16076
200.15347
221.91393
220.89622
219.91459
218.96854
218.05686
217.17825
216.33143
215.51518
214.72836
213.9699
213.23889
212.53452
211.85589
211.20219
210.57264
209.96657
209.38334
208.82236
208.28311
207.76509
207.26785
206.79097
206.33407
205.89677
205.47874
205.07963
204.69913
204.33693
203.99272
203.66619
203.35704
203.06497
202.78965
202.53078
202.28802
202.06104
201.8495
201.65306
201.47134
201.30399
201.15063
201.01088
200.88434
200.77063
200.66934
200.58008
200.50243
200.43599
200.38036
200.33512
200.29988
200.27424
200.25784
200.25057
221.77009
220.76868
219.80259
218.87125
217.97346
217.10796
216.27351
215.46894
214.69313
213.94503
213.22372
212.52845
211.85835
211.21263
210.59056
209.99147
209.41475
208.85982
208.32619
207.81337
207.32095
206.84851
206.39569
205.96215
205.54754
205.15157
204.77393
204.41433
204.07247
203.74807
203.44085
203.1505
202.87673
202.61924
202.37771
202.15183
201.94127
201.74569
201.56474
201.39806
201.24529
201.10606
200.97998
200.86666
200.76573
200.67676
200.59938
200.53316
200.47772
200.43264
200.39753
200.372
200.35567
200.34842
221.6191
220.63412
219.6837
218.76724
217.88355
217.03139
216.20955
215.41688
214.65232
213.91483
213.20348
212.51753
211.85619
211.21869
210.60432
210.01242
209.44242
208.89376
208.36595
207.85854
207.37112
206.90332
206.45477
206.02516
205.61417
205.2215
204.84688
204.49004
204.15069
203.82856
203.52339
203.2349
202.9628
202.70681
202.46663
202.24195
202.03246
201.83783
201.65773
201.4918
201.3397
201.20105
201.07549
200.96263
200.86209
200.77347
200.69639
200.63043
200.57521
200.53031
200.49535
200.46993
200.45368
200.44646
221.46182
220.49335
219.55868
218.6572
217.78772
216.94903
216.13995
215.35935
214.60619
213.87947
213.17827
212.50182
211.84942
211.22032
210.61382
210.0293
209.46618
208.92395
208.40214
207.90031
207.41807
206.95506
206.51095
206.08542
205.6782
205.28899
204.91754
204.56359
204.22688
203.90716
203.60417
203.31765
203.04734
202.79296
202.55422
202.33084
202.12251
201.92892
201.74974
201.58464
201.43326
201.29527
201.17028
201.05792
200.95782
200.86959
200.79284
200.72718
200.6722
200.62751
200.59271
200.56742
200.55125
200.54406
221.29938
220.34742
219.4285
218.542
217.68676
216.86158
216.06531
215.29685
214.55518
213.83932
213.14838
212.48154
211.83819
211.21759
210.61908
210.04205
209.48595
208.95029
208.4346
207.93847
207.46153
207.00345
206.5639
206.14259
205.73925
205.35363
204.98547
204.63453
204.30058
203.98337
203.68267
203.39823
203.1298
202.87712
202.63992
202.41792
202.21083
202.01835
201.84016
201.67595
201.52536
201.38806
201.26369
201.15189
201.05227
200.96446
200.88808
200.82273
200.76802
200.72355
200.68893
200.66377
200.6477
200.64054
221.13326
220.19768
219.2944
218.42278
217.58168
216.76995
215.98644
215.23009
214.49988
213.79488
213.1142
212.45703
211.82276
211.21071
210.62023
210.05076
209.50174
208.9727
208.46321
207.97286
207.50131
207.04824
206.61333
206.19633
205.79697
205.41502
205.05024
204.7024
204.37129
204.05668
203.75836
203.47608
203.20961
202.95871
202.72312
202.50257
202.29678
202.10547
201.92833
201.76505
201.6153
201.47875
201.35504
201.24381
201.14471
201.05735
200.98136
200.91634
200.86191
200.81768
200.78325
200.75824
200.74226
200.73514
220.96544
220.04588
219.15793
218.30094
217.47378
216.6753
215.9044
215.16
214.44114
213.74689
213.07638
212.42882
211.80357
211.20002
210.61756
210.05561
209.51366
208.99125
208.48796
208.00342
207.53728
207.08924
206.65902
206.24636
205.85103
205.47279
205.11144
204.76676
204.43855
204.1266
203.8307
203.55063
203.28618
203.0371
202.80317
202.58412
202.37968
202.18959
202.01354
201.85123
201.70235
201.56657
201.44354
201.33292
201.23435
201.14746
201.07188
201.00721
200.95308
200.90909
200.87486
200.84999
200.83412
200.82703
220.79868
219.89408
219.02095
218.17819
217.36461
216.57907
215.82046
215.08776
214.37999
213.69626
213.03572
212.3976
211.78121
211.18603
210.61145
210.05692
209.52195
209.00609
208.50894
208.03014
207.56937
207.12633
206.70077
206.29244
205.90113
205.52661
205.16869
204.82717
204.50187
204.19259
203.89914
203.62131
203.35889
203.11167
202.87942
202.66189
202.45883
202.26996
202.09502
201.93371
201.78572
201.65072
201.5284
201.4184
201.32037
201.23395
201.15877
201.09446
201.04063
200.99689
200.96285
200.93813
200.92236
200.91531
221.55575
220.63419
219.7444
218.88558
218.05652
217.25603
216.48295
215.7362
215.01478
214.31772
213.64415
212.99325
212.36425
211.75648
211.1694
210.60247
210.05515
209.52696
209.01748
208.52631
208.05312
207.59759
207.15945
206.73846
206.33438
205.94701
205.57615
205.22161
204.88322
204.56079
204.25416
203.96313
203.68751
203.42712
203.18174
202.95116
202.73514
202.53345
202.34582
202.17199
202.01167
201.86456
201.73035
201.60872
201.49933
201.40184
201.31589
201.24112
201.17715
201.12361
201.08011
201.04627
201.0217
201.00602
200.99901
221.3809
220.47469
219.59937
218.75428
217.93828
217.15021
216.38896
215.65347
214.94274
214.25586
213.59194
212.95019
212.32987
211.73031
211.15096
210.59132
210.05088
209.52918
209.02579
208.54035
208.07253
207.62204
207.1886
206.772
206.37201
205.98844
205.62111
205.26984
204.93447
204.61483
204.31076
204.02208
203.74862
203.4902
203.24661
203.01766
202.80312
202.60276
202.41633
202.24357
202.08422
201.93797
201.80452
201.68356
201.57477
201.47779
201.39229
201.31791
201.25427
201.20101
201.15773
201.12407
201.09963
201.08404
201.07706
221.21636
220.32427
219.46239
218.63007
217.82621
217.04969
216.29943
215.57439
214.87361
214.19616
213.54121
212.90798
212.29573
211.70382
211.13167
210.57884
210.04483
209.52918
209.03149
208.55141
208.08862
207.64285
207.21383
206.80135
206.40521
206.02522
205.66121
205.31302
204.9805
204.6635
204.36185
204.07539
203.80398
203.54742
203.30553
203.07812
202.86498
202.66588
202.48059
202.30886
202.15041
202.00497
201.87224
201.75192
201.64367