/*--------------------------------*- C++ -*----------------------------------*\
| =========                 |                                                 |
| \\      /  F ield         | OpenFOAM: The Open Source CFD Toolbox           |
|  \\    /   O peration     | Version:  2312                                  |
|   \\  /    A nd           | Website:  www.openfoam.com                      |
|    \\/     M anipulation  |                                                 |
\*---------------------------------------------------------------------------*/
FoamFile
{
    version     2.0;
    format      ascii;
    arch        "LSB;label=32;scalar=64";
    class       surfaceScalarField;
    location    "0.04";
    object      phi;
}
// * * * * * * * * * * * * * * * * * * * * * * * * * * * * * * * * * * * * * //

dimensions      [1 0 -1 0 0 0 0];

oriented        oriented;

internalField   nonuniform List<scalar> 
6327
(
-1.3786689e-08
6.1389056e-10
-1.4869769e-08
6.1355218e-10
-1.5944929e-08
6.1332871e-10
-1.7011712e-08
6.132168e-10
-1.806967e-08
6.1320806e-10
-1.9118373e-08
6.1329852e-10
-2.0157408e-08
6.1348581e-10
-2.1186381e-08
6.1376756e-10
-2.2204922e-08
6.1414153e-10
-2.3212684e-08
6.146053e-10
-2.420935e-08
6.1515774e-10
-2.5194631e-08
6.1579775e-10
-2.6168268e-08
6.1652488e-10
-2.7130035e-08
6.1733997e-10
-2.807974e-08
6.1824323e-10
-2.9017225e-08
6.1923608e-10
-2.9942368e-08
6.2032039e-10
-3.0855082e-08
6.2149852e-10
-3.1755317e-08
6.2277324e-10
-3.2643059e-08
6.2414772e-10
-3.3518331e-08
6.2562536e-10
-3.4381191e-08
6.2720982e-10
-3.5231734e-08
6.289049e-10
-3.6070088e-08
6.3071444e-10
-3.6896417e-08
6.3264221e-10
-3.7710917e-08
6.346917e-10
-3.8513814e-08
6.3686594e-10
-3.9305366e-08
6.3916719e-10
-4.0085854e-08
6.4159662e-10
-4.0855587e-08
6.4415373e-10
-4.1614892e-08
6.4683569e-10
-4.2364113e-08
6.4963622e-10
-4.3103603e-08
6.5254423e-10
-4.3833715e-08
6.5554131e-10
-4.4554792e-08
6.586003e-10
-4.5267148e-08
6.6167587e-10
-4.5971069e-08
6.6472797e-10
-4.6666717e-08
6.6762046e-10
-4.7354536e-08
6.7062717e-10
-4.8034008e-08
6.7277849e-10
6.7803745e-10
-1.3780034e-08
1.1557875e-09
-1.4862967e-08
1.1594039e-09
-1.5937981e-08
1.1631315e-09
-1.7004616e-08
1.1669524e-09
-1.8062426e-08
1.1708452e-09
-1.9110981e-08
1.1747948e-09
-2.0149867e-08
1.1787873e-09
-2.1178693e-08
1.1828106e-09
-2.2197087e-08
1.1868547e-09
-2.3204703e-08
1.1909114e-09
-2.4201225e-08
1.1949751e-09
-2.5186362e-08
1.1990418e-09
-2.6159857e-08
1.2031103e-09
-2.7121483e-08
1.2071816e-09
-2.8071048e-08
1.2112583e-09
-2.9008394e-08
1.2153451e-09
-2.99334e-08
1.2194486e-09
-3.0845977e-08
1.2235773e-09
-3.1746077e-08
1.2277409e-09
-3.2633685e-08
1.2319512e-09
-3.3508824e-08
1.2362203e-09
-3.4371552e-08
1.2405618e-09
-3.5221964e-08
1.2449902e-09
-3.6060188e-08
1.2495202e-09
-3.6886388e-08
1.2541669e-09
-3.7700758e-08
1.258945e-09
-3.8503527e-08
1.2638686e-09
-3.929495e-08
1.2689504e-09
-4.007531e-08
1.2742009e-09
-4.0844915e-08
1.2796274e-09
-4.1604093e-08
1.2852323e-09
-4.2353187e-08
1.291011e-09
-4.3092551e-08
1.2969492e-09
-4.3822538e-08
1.3030177e-09
-4.4543494e-08
1.3091697e-09
-4.5255735e-08
1.3153219e-09
-4.5959552e-08
1.3214003e-09
-4.6655111e-08
1.3271375e-09
-4.7342843e-08
1.3330685e-09
-4.8022094e-08
1.3371305e-09
1.3476372e-09
-1.376558e-08
1.6976236e-09
-1.4848152e-08
1.7051899e-09
-1.5922806e-08
1.7128625e-09
-1.6989081e-08
1.7206104e-09
-1.8046532e-08
1.7283966e-09
-1.9094729e-08
1.7361985e-09
-2.013326e-08
1.7439898e-09
-2.1161732e-08
1.7517485e-09
-2.2179775e-08
1.7594564e-09
-2.3187045e-08
1.7671004e-09
-2.4183222e-08
1.7746696e-09
-2.5168018e-08
1.7821575e-09
-2.6141176e-08
1.7895619e-09
-2.7102468e-08
1.7968843e-09
-2.8051703e-08
1.8041293e-09
-2.8988723e-08
1.811305e-09
-2.9913406e-08
1.8184228e-09
-3.0825665e-08
1.8254971e-09
-3.1725449e-08
1.8325449e-09
-3.2612746e-08
1.8395861e-09
-3.3487577e-08
1.8466419e-09
-3.4350001e-08
1.8537359e-09
-3.5200111e-08
1.8608928e-09
-3.6038037e-08
1.8681384e-09
-3.6863942e-08
1.8754991e-09
-3.767802e-08
1.8830009e-09
-3.8480499e-08
1.8906688e-09
-3.9271634e-08
1.898526e-09
-4.0051709e-08
1.9065924e-09
-4.082103e-08
1.914883e-09
-4.1579926e-08
1.9234056e-09
-4.2328739e-08
1.9321578e-09
-4.3067825e-08
1.9411224e-09
-4.3797539e-08
1.9502604e-09
-4.451823e-08
1.9595068e-09
-4.5230219e-08
1.9687438e-09
-4.5933805e-08
1.9778635e-09
-4.6629169e-08
1.9864762e-09
-4.7316701e-08
1.9953211e-09
-4.799553e-08
2.0010669e-09
2.0170034e-09
-1.374332e-08
2.2393014e-09
-1.4825317e-08
2.2508085e-09
-1.5899396e-08
2.2624159e-09
-1.6965099e-08
2.274078e-09
-1.802198e-08
2.2857538e-09
-1.9069609e-08
2.2974005e-09
-2.0107577e-08
2.3089827e-09
-2.113549e-08
2.320469e-09
-2.2152979e-08
2.3318334e-09
-2.3159698e-08
2.3430579e-09
-2.4155331e-08
2.3541257e-09
-2.5139589e-08
2.3650283e-09
-2.6112213e-08
2.3757623e-09
-2.7072979e-08
2.3863297e-09
-2.8021693e-08
2.396737e-09
-2.8958199e-08
2.4069959e-09
-2.9882373e-08
2.4171224e-09
-3.079413e-08
2.4271369e-09
-3.169342e-08
2.4370634e-09
-3.2580227e-08
2.4469302e-09
-3.3454575e-08
2.4567675e-09
-3.4316522e-08
2.4666085e-09
-3.5166161e-08
2.4764885e-09
-3.6003621e-08
2.4864443e-09
-3.6829065e-08
2.4965134e-09
-3.7642688e-08
2.5067331e-09
-3.8444716e-08
2.5171393e-09
-3.9235404e-08
2.5277658e-09
-4.0015035e-08
2.5386417e-09
-4.0783916e-08
2.54979e-09
-4.1542375e-08
2.5612242e-09
-4.2290755e-08
2.572944e-09
-4.3029413e-08
2.5849303e-09
-4.3758704e-08
2.5971357e-09
-4.4478984e-08
2.6094793e-09
-4.5190581e-08
2.6218122e-09
-4.5893807e-08
2.633997e-09
-4.6588864e-08
2.6455312e-09
-4.7276118e-08
2.6573116e-09
-4.7954241e-08
2.6643068e-09
2.6862121e-09
-1.2624608e-08
2.7654193e-09
-1.3713282e-08
2.7807458e-09
-1.479449e-08
2.7961789e-09
-1.5867782e-08
2.8117074e-09
-1.6932699e-08
2.8272736e-09
-1.7988799e-08
2.8428236e-09
-1.9035652e-08
2.858304e-09
-2.0072848e-08
2.873667e-09
-2.1099996e-08
2.8888716e-09
-2.2116726e-08
2.903884e-09
-2.3122694e-08
2.9186795e-09
-2.4117583e-08
2.9332374e-09
-2.5101104e-08
2.9475465e-09
-2.6073e-08
2.9616023e-09
-2.7033045e-08
2.9754072e-09
-2.7981048e-08
2.9889697e-09
-2.8916851e-08
3.0023049e-09
-2.9840332e-08
3.0154335e-09
-3.0751405e-08
3.0283817e-09
-3.1650018e-08
3.0411807e-09
-3.2536159e-08
3.0538667e-09
-3.3409849e-08
3.066479e-09
-3.4271146e-08
3.0790606e-09
-3.5120144e-08
3.0916574e-09
-3.5956971e-08
3.1043169e-09
-3.6781789e-08
3.1170878e-09
-3.7594793e-08
3.1300184e-09
-3.8396208e-08
3.1431559e-09
-3.918629e-08
3.1565443e-09
-3.996532e-08
3.1702221e-09
-4.0733605e-08
3.1842204e-09
-4.1491473e-08
3.1985583e-09
-4.2239267e-08
3.2132387e-09
-4.2977344e-08
3.2282409e-09
-4.3706065e-08
3.2435109e-09
-4.4425785e-08
3.2589535e-09
-4.5136849e-08
3.2743968e-09
-4.5839572e-08
3.2896676e-09
-4.6534221e-08
3.3042074e-09
-4.7221046e-08
3.318894e-09
-4.7899008e-08
3.3273977e-09
3.3537193e-09
-1.1147197e-08
3.2411385e-09
-1.2110298e-08
3.2599025e-09
-1.3066792e-08
3.2787874e-09
-1.4016279e-08
3.2977728e-09
-1.4958355e-08
3.3167834e-09
-1.5892626e-08
3.3357532e-09
-1.6818716e-08
3.3546172e-09
-1.7736262e-08
3.3733176e-09
-1.8644916e-08
3.3918047e-09
-1.9544354e-08
3.4100379e-09
-2.043427e-08
3.4279856e-09
-2.1314385e-08
3.4456252e-09
-2.2184443e-08
3.4629425e-09
-2.3044216e-08
3.4799319e-09
-2.3893506e-08
3.4965961e-09
-2.4732143e-08
3.5129455e-09
-2.5559988e-08
3.5289979e-09
-2.6376932e-08
3.5447781e-09
-2.7182899e-08
3.5603177e-09
-2.7977844e-08
3.575654e-09
-2.8761755e-08
3.5908302e-09
-2.9534652e-08
3.6058937e-09
-3.0296585e-08
3.6208961e-09
-3.1047638e-08
3.6358924e-09
-3.1787923e-08
3.6509397e-09
-3.2517583e-08
3.6660966e-09
-3.323679e-08
3.6814212e-09
-3.3945744e-08
3.6969703e-09
-3.464467e-08
3.7127971e-09
-3.5333817e-08
3.7289487e-09
-3.6013456e-08
3.7454629e-09
-3.6683876e-08
3.7623646e-09
-3.7345382e-08
3.7796593e-09
-3.7998291e-08
3.7973256e-09
-3.8642924e-08
3.8153071e-09
-3.9279596e-08
3.8334892e-09
-3.9908644e-08
3.8517172e-09
-4.053026e-08
3.8696626e-09
-4.1145083e-08
3.8872108e-09
-4.1751839e-08
3.9033209e-09
-4.2356725e-08
3.9191277e-09
3.9336699e-09
-1.1418024e-08
3.7296967e-09
-1.2406735e-08
3.7519622e-09
-1.3388666e-08
3.7743769e-09
-1.4363397e-08
3.7968982e-09
-1.5330516e-08
3.8194345e-09
-1.6289622e-08
3.8419059e-09
-1.7240327e-08
3.8642353e-09
-1.8182258e-08
3.8863539e-09
-1.9115061e-08
3.9082035e-09
-2.0038402e-08
3.9297363e-09
-2.0951968e-08
3.9509148e-09
-2.1855472e-08
3.9717126e-09
-2.2748652e-08
3.9921131e-09
-2.3631275e-08
4.0121096e-09
-2.4503137e-08
4.0317051e-09
-2.5364063e-08
4.0509116e-09
-2.6213911e-08
4.0697499e-09
-2.705257e-08
4.0882491e-09
-2.7879961e-08
4.106446e-09
-2.8696039e-08
4.1243841e-09
-2.950079e-08
4.1421139e-09
-3.0294235e-08
4.159691e-09
-3.1076425e-08
4.1771758e-09
-3.1847446e-08
4.1946325e-09
-3.2607414e-08
4.2121283e-09
-3.3356474e-08
4.2297314e-09
-3.4094803e-08
4.2475103e-09
-3.4822605e-08
4.2655316e-09
-3.5540112e-08
4.2838577e-09
-3.6247577e-08
4.3025445e-09
-3.694528e-08
4.3216373e-09
-3.7633517e-08
4.3411664e-09
-3.8312601e-08
4.361141e-09
-3.8982858e-08
4.3815393e-09
-3.964462e-08
4.4023032e-09
-4.0298215e-08
4.4233019e-09
-4.0943993e-08
4.4443954e-09
-4.1582175e-08
4.4651201e-09
-4.2213381e-08
4.4857525e-09
-4.2836518e-08
4.5035367e-09
-4.3456805e-08
4.525909e-09
4.5302628e-09
-1.1686658e-08
4.2313166e-09
-1.2701424e-08
4.2571648e-09
-1.370923e-08
4.2831899e-09
-1.4709644e-08
4.3093272e-09
-1.5702242e-08
4.3354706e-09
-1.6686612e-08
4.3615255e-09
-1.7662359e-08
4.3874016e-09
-1.8629099e-08
4.4130198e-09
-1.9586471e-08
4.4383125e-09
-2.053413e-08
4.4632246e-09
-2.1471758e-08
4.4877126e-09
-2.2399059e-08
4.5117462e-09
-2.3315766e-08
4.5353061e-09
-2.4221639e-08
4.5583845e-09
-2.5116468e-08
4.5809845e-09
-2.6000077e-08
4.60312e-09
-2.6872317e-08
4.6248146e-09
-2.7733075e-08
4.6461018e-09
-2.8582271e-08
4.6670235e-09
-2.9419858e-08
4.68763e-09
-3.0245822e-08
4.7079787e-09
-3.1060184e-08
4.7281336e-09
-3.1862997e-08
4.7481641e-09
-3.2654347e-08
4.7681442e-09
-3.3434354e-08
4.7881506e-09
-3.4203168e-08
4.808262e-09
-3.4960968e-08
4.8285573e-09
-3.5707964e-08
4.8491128e-09
-3.6444392e-08
4.8700009e-09
-3.7170514e-08
4.8912861e-09
-3.7886614e-08
4.9130214e-09
-3.8592997e-08
4.9352432e-09
-3.9289985e-08
4.9579644e-09
-3.9977912e-08
4.981164e-09
-4.0657121e-08
5.0047823e-09
-4.1327954e-08
5.0286761e-09
-4.1990766e-08
5.0527124e-09
-4.2645824e-08
5.0763287e-09
-4.329366e-08
5.100065e-09
-4.3933536e-08
5.1198863e-09
-4.4568967e-08
5.1474794e-09
5.145078e-09
-1.0904459e-08
4.7170865e-09
-1.1952436e-08
4.7462517e-09
-1.2993696e-08
4.7757597e-09
-1.4027813e-08
4.805474e-09
-1.505434e-08
4.8353073e-09
-1.6072843e-08
4.8651385e-09
-1.7082902e-08
4.8948577e-09
-1.808411e-08
4.9243619e-09
-1.9076076e-08
4.9535605e-09
-2.0058428e-08
4.9823769e-09
-2.1030814e-08
5.0107483e-09
-2.1992908e-08
5.0386251e-09
-2.2944406e-08
5.0659727e-09
-2.3885036e-08
5.0927691e-09
-2.4814551e-08
5.1190051e-09
-2.5732738e-08
5.1446841e-09
-2.6639413e-08
5.1698216e-09
-2.7534426e-08
5.1944443e-09
-2.8417661e-08
5.2185896e-09
-2.9289035e-08
5.2423052e-09
-3.01485e-08
5.2656477e-09
-3.0996042e-08
5.2886821e-09
-3.1831682e-08
5.3114806e-09
-3.2655474e-08
5.3341219e-09
-3.3467508e-08
5.3566895e-09
-3.4267904e-08
5.3792705e-09
-3.5056816e-08
5.4019538e-09
-3.5834429e-08
5.4248288e-09
-3.6600956e-08
5.4479822e-09
-3.7356639e-08
5.4714961e-09
-3.8101747e-08
5.4954441e-09
-3.883657e-08
5.5198872e-09
-3.9561421e-08
5.5448679e-09
-4.027663e-08
5.5704037e-09
-4.098254e-08
5.5964746e-09
-4.1679506e-08
5.62302e-09
-4.236788e-08
5.6498871e-09
-4.3048026e-08
5.6769427e-09
-4.3720246e-08
5.7035564e-09
-4.4384988e-08
5.7304078e-09
-4.5041832e-08
5.7525906e-09
-4.5693014e-08
5.784438e-09
5.7780054e-09
-1.1139542e-08
5.2418875e-09
-1.2214613e-08
5.2747628e-09
-1.3282798e-08
5.3080024e-09
-1.434365e-08
5.3414826e-09
-1.5396712e-08
5.3750899e-09
-1.6441539e-08
5.408688e-09
-1.7477701e-08
5.4421514e-09
-1.850478e-08
5.4753638e-09
-1.9522378e-08
5.5082233e-09
-2.0530112e-08
5.5406436e-09
-2.1527624e-08
5.572554e-09
-2.2514578e-08
5.6038989e-09
-2.3490665e-08
5.634639e-09
-2.4455605e-08
5.6647492e-09
-2.5409146e-08
5.6942191e-09
-2.6351069e-08
5.7230523e-09
-2.7281186e-08
5.7512656e-09
-2.8199343e-08
5.7788888e-09
-2.9105423e-08
5.8059637e-09
-2.9999339e-08
5.8325432e-09
-3.0881042e-08
5.8586907e-09
-3.1750518e-08
5.8844785e-09
-3.2607788e-08
5.9099876e-09
-3.3452909e-08
5.9353058e-09
-3.4285969e-08
5.9605265e-09
-3.5107095e-08
5.985747e-09
-3.5916442e-08
6.0110671e-09
-3.6714199e-08
6.0365863e-09
-3.7500585e-08
6.0624022e-09
-3.8275848e-08
6.0886067e-09
-3.9040262e-08
6.115283e-09
-3.9794124e-08
6.1424998e-09
-4.0537755e-08
6.1703066e-09
-4.1271493e-08
6.1987255e-09
-4.1995691e-08
6.2277384e-09
-4.2710712e-08
6.2572835e-09
-4.3416922e-08
6.2872016e-09
-4.411469e-08
6.3173513e-09
-4.4804351e-08
6.3470632e-09
-4.548627e-08
6.3770381e-09
-4.6160345e-08
6.4019002e-09
-4.6827768e-08
6.4372694e-09
6.4291542e-09
-1.0260617e-08
5.7446112e-09
-1.1369824e-08
5.7804911e-09
-1.2472416e-08
5.8171128e-09
-1.3567947e-08
5.8541544e-09
-1.465595e-08
5.8914739e-09
-1.5735957e-08
5.928931e-09
-1.6807516e-08
5.9663731e-09
-1.7870184e-08
6.0036588e-09
-1.8923535e-08
6.0406581e-09
-1.9967161e-08
6.0772577e-09
-2.100067e-08
6.1133611e-09
-2.2023696e-08
6.1488897e-09
-2.3035895e-08
6.1837814e-09
-2.4036951e-08
6.217992e-09
-2.5026578e-08
6.2514934e-09
-2.6004517e-08
6.2842736e-09
-2.6970544e-08
6.3163362e-09
-2.7924469e-08
6.3476995e-09
-2.8866132e-08
6.3783963e-09
-2.9795413e-08
6.4084725e-09
-3.0712224e-08
6.4379866e-09
-3.1616515e-08
6.4670085e-09
-3.2508271e-08
6.4956184e-09
-3.3387513e-08
6.5239058e-09
-3.4254299e-08
6.5519678e-09
-3.5108721e-08
6.5799079e-09
-3.5950905e-08
6.6078338e-09
-3.6781013e-08
6.635856e-09
-3.7599236e-08
6.6640849e-09
-3.84058e-08
6.6926287e-09
-3.9200956e-08
6.7215895e-09
-3.9984985e-08
6.7510597e-09
-4.0758192e-08
6.781117e-09
-4.1520905e-08
6.8118174e-09
-4.227347e-08
6.8431881e-09
-4.3016248e-08
6.8752135e-09
-4.3749613e-08
6.9078309e-09
-4.4473943e-08
6.9408766e-09
-4.518961e-08
6.9741946e-09
-4.5896982e-08
7.0071e-09
-4.6596355e-08
7.0402194e-09
-4.728791e-08
7.0680558e-09
-4.7972072e-08
7.1064652e-09
7.0986358e-09
-1.0457191e-08
6.2934779e-09
-1.1594494e-08
6.333145e-09
-1.2725023e-08
6.3735717e-09
-1.3848306e-08
6.4144842e-09
-1.4963863e-08
6.4557132e-09
-1.6071217e-08
6.4970931e-09
-1.7169902e-08
6.5384536e-09
-1.8259469e-08
6.5796371e-09
-1.933948e-08
6.6205e-09
-2.0409517e-08
6.6609169e-09
-2.1469182e-08
6.7007812e-09
-2.2518098e-08
6.7400057e-09
-2.3555914e-08
6.7785218e-09
-2.4582309e-08
6.8162802e-09
-2.5596986e-08
6.8532494e-09
-2.6599685e-08
6.8894157e-09
-2.7590174e-08
6.9247825e-09
-2.8568259e-08
6.9593698e-09
-2.9533778e-08
6.993213e-09
-3.0486605e-08
7.0263623e-09
-3.1426653e-08
7.0588817e-09
-3.2353869e-08
7.0908479e-09
-3.3268238e-08
7.1223486e-09
-3.4169782e-08
7.1534822e-09
-3.5058559e-08
7.1843553e-09
-3.5934663e-08
7.2150813e-09
-3.6798224e-08
7.2457787e-09
-3.7649406e-08
7.2765688e-09
-3.8488406e-08
7.3075731e-09
-3.9315452e-08
7.3389103e-09
-4.0130804e-08
7.3706931e-09
-4.0934746e-08
7.4030237e-09
-4.1727592e-08
7.4359881e-09
-4.2509676e-08
7.4696497e-09
-4.3281352e-08
7.5040408e-09
-4.4042992e-08
7.5391489e-09
-4.4794977e-08
7.5749106e-09
-4.5537697e-08
7.6111592e-09
-4.6271533e-08
7.64772e-09
-4.6996875e-08
7.6839104e-09
-4.7713979e-08
7.7202154e-09
-4.8423264e-08
7.751297e-09
-4.9124632e-08
7.7924882e-09
7.7865476e-09
-9.4746371e-09
6.8143663e-09
-1.0646888e-08
6.8566563e-09
-1.1812698e-08
6.9001282e-09
-1.2971563e-08
6.944421e-09
-1.4122993e-08
6.9892686e-09
-1.5266495e-08
7.0344737e-09
-1.6401581e-08
7.0798454e-09
-1.7527776e-08
7.1251954e-09
-1.864462e-08
7.1703493e-09
-1.9751665e-08
7.2151496e-09
-2.0848485e-08
7.2594586e-09
-2.1934672e-08
7.3031591e-09
-2.3009841e-08
7.3461553e-09
-2.4073635e-08
7.3883717e-09
-2.5125722e-08
7.4297535e-09
-2.6165802e-08
7.4702657e-09
-2.7193607e-08
7.5098927e-09
-2.8208902e-08
7.5486378e-09
-2.9211487e-08
7.5865221e-09
-3.0201196e-08
7.6235837e-09
-3.1177903e-08
7.6598773e-09
-3.2141515e-08
7.6954722e-09
-3.309198e-08
7.7304518e-09
-3.4029282e-08
7.7649119e-09
-3.4953444e-08
7.7989592e-09
-3.5864524e-08
7.8327102e-09
-3.6762619e-08
7.8662885e-09
-3.7647861e-08
7.8998233e-09
-3.8520418e-08
7.9334469e-09
-3.9380491e-08
7.9672918e-09
-4.0228312e-08
8.0014878e-09
-4.1064146e-08
8.0361582e-09
-4.1888286e-08
8.0714148e-09
-4.270105e-08
8.1073527e-09
-4.3502781e-08
8.1440427e-09
-4.4293841e-08
8.1815225e-09
-4.507461e-08
8.2197832e-09
-4.5845478e-08
8.2587604e-09
-4.6606848e-08
8.2982862e-09
-4.7359108e-08
8.3381654e-09
-4.8102672e-08
8.3777307e-09
-4.8837779e-08
8.4172871e-09
-4.9565041e-08
8.4518631e-09
-5.0284041e-08
8.4957573e-09
8.4929971e-09
-9.6275008e-09
7.388349e-09
-1.0828822e-08
7.4344239e-09
-1.2023533e-08
7.4817379e-09
-1.321112e-08
7.5299538e-09
-1.4391075e-08
7.5787959e-09
-1.5562897e-08
7.6280387e-09
-1.6726086e-08
7.6774668e-09
-1.7880159e-08
7.7268729e-09
-1.9024643e-08
7.7760659e-09
-2.0159083e-08
7.8248738e-09
-2.1283042e-08
7.8731462e-09
-2.2396103e-08
7.9207554e-09
-2.3497873e-08
7.9675963e-09
-2.4587987e-08
8.0135862e-09
-2.5666107e-08
8.0586646e-09
-2.6731926e-08
8.102793e-09
-2.7785171e-08
8.1459535e-09
-2.88256e-08
8.1881489e-09
-2.9853009e-08
8.2294015e-09
-3.086723e-08
8.2697523e-09
-3.1868132e-08
8.3092598e-09
-3.2855621e-08
8.3479992e-09
-3.3829644e-08
8.3860603e-09
-3.4790185e-08
8.4235469e-09
-3.5737265e-08
8.4605746e-09
-3.6670945e-08
8.4972694e-09
-3.7591324e-08
8.5337654e-09
-3.8498536e-08
8.5702025e-09
-3.9392753e-08
8.6067241e-09
-4.0274178e-08
8.6434742e-09
-4.1143051e-08
8.6805935e-09
-4.1999641e-08
8.718216e-09
-4.2844247e-08
8.7564636e-09
-4.3677194e-08
8.7954405e-09
-4.4498833e-08
8.835225e-09
-4.5309532e-08
8.8758608e-09
-4.6109683e-08
8.9173429e-09
-4.6899684e-08
8.9596067e-09
-4.7679948e-08
9.0024839e-09
-4.8450877e-08
9.045759e-09
-4.9212905e-08
9.0887895e-09
-4.9966279e-08
9.1316878e-09
-5.0711762e-08
9.1699897e-09
-5.1448767e-08
9.2166423e-09
9.2180946e-09
-8.5342573e-09
7.9291139e-09
-9.7712905e-09
7.9772344e-09
-1.1002064e-08
8.027092e-09
-1.2226051e-08
8.0782878e-09
-1.3442725e-08
8.1304768e-09
-1.465157e-08
8.1833662e-09
-1.5852069e-08
8.2367026e-09
-1.7043717e-08
8.2902461e-09
-1.8226018e-08
8.34377e-09
-1.939849e-08
8.3970659e-09
-2.0560667e-08
8.449947e-09
-2.1712103e-08
8.5022502e-09
-2.2852373e-08
8.5538365e-09
-2.3981075e-08
8.6045913e-09
-2.5097837e-08
8.6544246e-09
-2.6202314e-08
8.7032698e-09
-2.7294191e-08
8.7510844e-09
-2.837319e-08
8.7978481e-09
-2.9439065e-08
8.8435633e-09
-3.0491606e-08
8.8882532e-09
-3.1530642e-08
8.9319613e-09
-3.2556039e-08
8.9747505e-09
-3.3567702e-08
9.016701e-09
-3.4565575e-08
9.0579097e-09
-3.5549641e-08
9.0984882e-09
-3.6519924e-08
9.138561e-09
-3.7476484e-08
9.1782638e-09
-3.8419422e-08
9.2177411e-09
-3.9348876e-08
9.2571438e-09
-4.026502e-08
9.2966265e-09
-4.1168062e-08
9.3363446e-09
-4.2058246e-08
9.3764502e-09
-4.2935848e-08
9.4170879e-09
-4.3801171e-08
9.45839e-09
-4.4654549e-08
9.5004698e-09
-4.5496338e-08
9.5434137e-09
-4.6326918e-08
9.5872716e-09
-4.7146685e-08
9.6320428e-09
-4.7956052e-08
9.6776634e-09
-4.8755442e-08
9.7239659e-09
-4.954527e-08
9.7707177e-09
-5.0325992e-08
9.8173067e-09
-5.1097886e-08
9.8636601e-09
-5.1861823e-08
9.9059044e-09
-5.2617161e-08
9.9554671e-09
9.9619508e-09
-8.6380227e-09
8.5295282e-09
-9.9050479e-09
8.5813422e-09
-1.1165637e-08
8.6349976e-09
-1.2419254e-08
8.6901083e-09
-1.3665365e-08
8.7463125e-09
-1.4903442e-08
8.8032947e-09
-1.6132959e-08
8.8607737e-09
-1.7353401e-08
8.9184852e-09
-1.8564262e-08
8.9761823e-09
-1.9765049e-08
9.0336391e-09
-2.0955287e-08
9.0906537e-09
-2.213452e-08
9.1470497e-09
-2.3302315e-08
9.2026765e-09
-2.4458263e-08
9.25741e-09
-2.5601981e-08
9.3111519e-09
-2.6733118e-08
9.3638299e-09
-2.7851354e-08
9.4153967e-09
-2.8956404e-08
9.4658298e-09
-3.0048017e-08
9.5151305e-09
-3.112598e-08
9.5633231e-09
-3.2190116e-08
9.6104535e-09
-3.3240289e-08
9.6565885e-09
-3.4276402e-08
9.701814e-09
-3.5298397e-08
9.7462335e-09
-3.6306258e-08
9.7899663e-09
-3.7300008e-08
9.8331461e-09
-3.8279709e-08
9.8759183e-09
-3.9245463e-08
9.9184379e-09
-4.0197411e-08
9.960867e-09
-4.1135729e-08
1.0003371e-08
-4.2060633e-08
1.0046118e-08
-4.2972369e-08
1.008927e-08
-4.3871218e-08
1.0132984e-08
-4.4757491e-08
1.0177402e-08
-4.5631528e-08
1.0222647e-08
-4.6493693e-08
1.0268813e-08
-4.7344373e-08
1.0315958e-08
-4.8183977e-08
1.0364084e-08
-4.9012925e-08
1.0413131e-08
-4.9831654e-08
1.0462934e-08
-5.0640597e-08
1.0513246e-08
-5.1440232e-08
1.0563491e-08
-5.223088e-08
1.0613432e-08
-5.3013492e-08
1.0659822e-08
-5.3787445e-08
1.0712511e-08
1.0724671e-08
-7.4269764e-09
9.0925905e-09
-8.7304163e-09
9.145574e-09
-1.0027777e-08
9.2010302e-09
-1.131852e-08
9.2584978e-09
-1.2602099e-08
9.3175486e-09
-1.3877974e-08
9.3778009e-09
-1.5145605e-08
9.438913e-09
-1.640446e-08
9.5005756e-09
-1.765401e-08
9.5625001e-09
-1.8893741e-08
9.6244187e-09
-2.012315e-08
9.6860876e-09
-2.1341753e-08
9.7472893e-09
-2.2549083e-08
9.8078337e-09
-2.3744698e-08
9.8675585e-09
-2.4928181e-08
9.9263294e-09
-2.6099142e-08
9.9840399e-09
-2.7257224e-08
1.0040611e-08
-2.8402099e-08
1.0095991e-08
-2.9533476e-08
1.0150155e-08
-3.0651099e-08
1.0203102e-08
-3.175475e-08
1.0254858e-08
-3.2844249e-08
1.0305471e-08
-3.3919458e-08
1.0355012e-08
-3.4980276e-08
1.0403572e-08
-3.6026646e-08
1.0451261e-08
-3.7058549e-08
1.0498207e-08
-3.8076009e-08
1.0544552e-08
-3.907909e-08
1.0590452e-08
-4.0067895e-08
1.0636071e-08
-4.1042568e-08
1.0681584e-08
-4.200329e-08
1.0727167e-08
-4.2950277e-08
1.0772999e-08
-4.3883784e-08
1.0819256e-08
-4.4804095e-08
1.0866104e-08
-4.571153e-08
1.0913696e-08
-4.6606433e-08
1.0962165e-08
-4.7489177e-08
1.1011614e-08
-4.836016e-08
1.1062108e-08
-4.9219797e-08
1.1113655e-08
-5.0068523e-08
1.1166197e-08
-5.0906787e-08
1.1219575e-08
-5.1735044e-08
1.1273535e-08
-5.2553794e-08
1.1327536e-08
-5.3363411e-08
1.1381215e-08
-5.41649e-08
1.1431942e-08
-5.495771e-08
1.1488014e-08
1.1506354e-08
-7.4761481e-09
9.7211776e-09
-8.8104194e-09
9.7775884e-09
-1.0138437e-08
9.8366889e-09
-1.1459646e-08
9.8979725e-09
-1.2773496e-08
9.9609798e-09
-1.4079438e-08
1.0025303e-08
-1.5376923e-08
1.0090572e-08
-1.666541e-08
1.0156451e-08
-1.794436e-08
1.0222624e-08
-1.9213249e-08
1.0288804e-08
-2.0471564e-08
1.0354728e-08
-2.1718809e-08
1.0420163e-08
-2.2954512e-08
1.0484904e-08
-2.4178219e-08
1.0548777e-08
-2.5389505e-08
1.0611637e-08
-2.6587975e-08
1.0673369e-08
-2.777326e-08
1.0733887e-08
-2.894503e-08
1.0793135e-08
-3.0102986e-08
1.0851084e-08
-3.1246867e-08
1.0907733e-08
-3.2376451e-08
1.0963107e-08
-3.3491555e-08
1.1017258e-08
-3.4592035e-08
1.1070259e-08
-3.5677791e-08
1.1122208e-08
-3.6748763e-08
1.1173221e-08
-3.7804932e-08
1.1223433e-08
-3.8846323e-08
1.1272996e-08
-3.9872999e-08
1.1322075e-08
-4.0885067e-08
1.1370847e-08
-4.1882672e-08
1.1419496e-08
-4.2866e-08
1.1468211e-08
-4.383527e-08
1.1517183e-08
-4.4790743e-08
1.1566597e-08
-4.5732708e-08
1.1616633e-08
-4.6661491e-08
1.1667454e-08
-4.7577445e-08
1.1719203e-08
-4.8480951e-08
1.1771993e-08
-4.9372414e-08
1.1825895e-08
-5.0252262e-08
1.1880926e-08
-5.1120941e-08
1.1937032e-08
-5.1978916e-08
1.199406e-08
-5.2826666e-08
1.2051759e-08
-5.3664712e-08
1.2109624e-08
-5.4493492e-08
1.2167198e-08
-5.5314039e-08
1.2222443e-08
-5.6125907e-08
1.2282174e-08
1.2307086e-08
-7.5115978e-09
1.0366141e-08
-8.8769881e-09
1.042599e-08
-1.0235947e-08
1.0488729e-08
-1.1587907e-08
1.0553827e-08
-1.2932309e-08
1.0620797e-08
-1.4268595e-08
1.0689203e-08
-1.5596207e-08
1.0758646e-08
-1.6914595e-08
1.0828762e-08
-1.8223211e-08
1.0899211e-08
-1.9521519e-08
1.0969682e-08
-2.0808996e-08
1.1039895e-08
-2.2085139e-08
1.1109598e-08
-2.3349463e-08
1.1178575e-08
-2.4601508e-08
1.1246637e-08
-2.5840841e-08
1.131363e-08
-2.7067056e-08
1.1379428e-08
-2.827978e-08
1.1443939e-08
-2.9478675e-08
1.1507101e-08
-3.0663436e-08
1.1568883e-08
-3.1833798e-08
1.1629281e-08
-3.2989533e-08
1.1688322e-08
-3.4130455e-08
1.1746058e-08
-3.5256418e-08
1.1802567e-08
-3.6367318e-08
1.1857952e-08
-3.7463094e-08
1.1912335e-08
-3.8543727e-08
1.1965861e-08
-3.9609241e-08
1.2018689e-08
-4.0659703e-08
1.2070995e-08
-4.1695219e-08
1.2122967e-08
-4.2715938e-08
1.2174799e-08
-4.3722048e-08
1.2226692e-08
-4.4713775e-08
1.227885e-08
-4.5691382e-08
1.233147e-08
-4.6655167e-08
1.2384743e-08
-4.7605461e-08
1.2438843e-08
-4.8542625e-08
1.2493924e-08
-4.9467047e-08
1.2550108e-08
-5.0379145e-08
1.2607476e-08
-5.1279355e-08
1.2666052e-08
-5.216814e-08
1.272579e-08
-5.304598e-08
1.2786546e-08
-5.3913378e-08
1.2848076e-08
-5.4770882e-08
1.2909915e-08
-5.5618993e-08
1.2971549e-08
-5.6458755e-08
1.3031483e-08
-5.7289845e-08
1.3095155e-08
1.3126945e-08
-7.5322701e-09
1.1027896e-08
-8.9290255e-09
1.1091201e-08
-1.0319183e-08
1.1157593e-08
-1.170215e-08
1.1226497e-08
-1.3077357e-08
1.1297425e-08
-1.4444234e-08
1.1369912e-08
-1.5802219e-08
1.1443534e-08
-1.7150747e-08
1.1517896e-08
-1.8489265e-08
1.1592636e-08
-1.9817225e-08
1.1667417e-08
-2.1134095e-08
1.174194e-08
-2.243936e-08
1.1815939e-08
-2.3732527e-08
1.1889179e-08
-2.5013127e-08
1.1961462e-08
-2.6280718e-08
1.203262e-08
-2.7534889e-08
1.2102519e-08
-2.8775258e-08
1.217106e-08
-3.0001479e-08
1.2238174e-08
-3.1213244e-08
1.2303826e-08
-3.2410281e-08
1.2368012e-08
-3.3592357e-08
1.2430757e-08
-3.4759283e-08
1.2492117e-08
-3.591091e-08
1.2552174e-08
-3.7047132e-08
1.2611033e-08
-3.8167885e-08
1.2668826e-08
-3.9273151e-08
1.2725704e-08
-4.0362954e-08
1.2781837e-08
-4.1437361e-08
1.2837409e-08
-4.2496481e-08
1.2892619e-08
-4.3540466e-08
1.2947674e-08
-4.4569507e-08
1.3002787e-08
-4.5583835e-08
1.3058172e-08
-4.6583718e-08
1.311404e-08
-4.756946e-08
1.3170592e-08
-4.8541398e-08
1.3228016e-08
-4.9499902e-08
1.3286476e-08
-5.0445371e-08
1.3346104e-08
-5.1378229e-08
1.3406991e-08
-5.2298929e-08
1.346917e-08
-5.3207945e-08
1.3532606e-08
-5.410578e-08
1.3597166e-08
-5.4992958e-08
1.3662623e-08
-5.5870056e-08
1.3728548e-08
-5.6737635e-08
1.3794411e-08
-5.7596743e-08
1.3859192e-08
-5.8447181e-08
1.3927086e-08
1.3965988e-08
-6.1023899e-09
1.1643568e-08
-7.5370073e-09
1.1706884e-08
-8.9653968e-09
1.1773762e-08
-1.0386984e-08
1.1843765e-08
-1.1801184e-08
1.1916454e-08
-1.3207415e-08
1.199132e-08
-1.4605101e-08
1.2067874e-08
-1.5993669e-08
1.2145664e-08
-1.7372548e-08
1.222427e-08
-1.8741173e-08
1.2303301e-08
-2.0098986e-08
1.2382398e-08
-2.1445445e-08
1.2461241e-08
-2.2780025e-08
1.2539547e-08
-2.4102225e-08
1.2617068e-08
-2.5411566e-08
1.269359e-08
-2.6707599e-08
1.2768935e-08
-2.7989903e-08
1.2842959e-08
-2.9258091e-08
1.2915553e-08
-3.051181e-08
1.2986645e-08
-3.1750745e-08
1.3056194e-08
-3.2974619e-08
1.3124195e-08
-3.4183196e-08
1.3190674e-08
-3.5376281e-08
1.3255687e-08
-3.6553721e-08
1.3319319e-08
-3.771541e-08
1.3381682e-08
-3.8861283e-08
1.3442914e-08
-3.9991319e-08
1.3503174e-08
-4.1105544e-08
1.356264e-08
-4.2204025e-08
1.3621508e-08
-4.3286875e-08
1.3679987e-08
-4.4354246e-08
1.3738296e-08
-4.5406335e-08
1.379666e-08
-4.6443377e-08
1.3855305e-08
-4.7465644e-08
1.3914455e-08
-4.8473449e-08
1.3974323e-08
-4.9467135e-08
1.4035109e-08
-5.044708e-08
1.4096988e-08
-5.1413693e-08
1.4160105e-08
-5.236741e-08
1.4224559e-08
-5.3308696e-08
1.4290398e-08
-5.4238043e-08
1.4357595e-08
-5.5155971e-08
1.4426037e-08
-5.6063034e-08
1.4495515e-08
-5.6959833e-08
1.4565642e-08
-5.784699e-08
1.4635897e-08
-5.8725543e-08
1.4705677e-08
-5.9595421e-08
1.4778061e-08
1.4824259e-08
-6.0579738e-09
1.2338025e-08
-7.5246974e-09
1.2404078e-08
-8.98493e-09
1.2474231e-08
-1.0438155e-08
1.2547784e-08
-1.1883779e-08
1.2624211e-08
-1.332122e-08
1.2702977e-08
-1.4749896e-08
1.2783567e-08
-1.6169225e-08
1.28655e-08
-1.7578627e-08
1.294833e-08
-1.8977529e-08
1.303164e-08
-2.0365363e-08
1.3115043e-08
-2.1741574e-08
1.31982e-08
-2.3105628e-08
1.3280811e-08
-2.4457016e-08
1.3362614e-08
-2.5795249e-08
1.3443381e-08
-2.7119871e-08
1.352292e-08
-2.8430453e-08
1.3601078e-08
-2.97266e-08
1.3677738e-08
-3.1007953e-08
1.375282e-08
-3.2274191e-08
1.3826281e-08
-3.3525031e-08
1.3898112e-08
-3.4760231e-08
1.3968339e-08
-3.5979595e-08
1.403702e-08
-3.7182965e-08
1.4104244e-08
-3.8370233e-08
1.4170128e-08
-3.9541332e-08
1.4234816e-08
-4.0696242e-08
1.4298476e-08
-4.1834987e-08
1.4361294e-08
-4.2957637e-08
1.4423476e-08
-4.4064306e-08
1.4485244e-08
-4.515515e-08
1.4546828e-08
-4.6230369e-08
1.4608464e-08
-4.7290202e-08
1.4670393e-08
-4.833493e-08
1.473285e-08
-4.9364869e-08
1.4796061e-08
-5.0380372e-08
1.4860239e-08
-5.1381825e-08
1.4925572e-08
-5.2369648e-08
1.4992215e-08
-5.3344289e-08
1.5060281e-08
-5.4306228e-08
1.512983e-08
-5.5255972e-08
1.520085e-08
-5.6194065e-08
1.5273249e-08
-5.7121084e-08
1.5346842e-08
-5.8037662e-08
1.5421286e-08
-5.8944471e-08
1.5496094e-08
-5.9842538e-08
1.5571012e-08
-6.0731914e-08
1.564814e-08
1.5701777e-08
-2.9792839e-09
1.2928603e-08
-4.4903033e-09
1.2986407e-08
-5.9952834e-09
1.3050758e-08
-7.4942035e-09
1.311987e-08
-8.9864548e-09
1.3193209e-08
-1.0471473e-08
1.3270226e-08
-1.1948673e-08
1.3350326e-08
-1.3417472e-08
1.3432935e-08
-1.4877279e-08
1.351751e-08
-1.6327507e-08
1.3603543e-08
-1.7767569e-08
1.369056e-08
-1.9196881e-08
1.3778119e-08
-2.0614863e-08
1.38658e-08
-2.2020951e-08
1.3953248e-08
-2.3414601e-08
1.4040147e-08
-2.4795293e-08
1.4126217e-08
-2.6162532e-08
1.4211217e-08
-2.7515853e-08
1.4294942e-08
-2.8854819e-08
1.4377228e-08
-3.0179028e-08
1.4457949e-08
-3.1488114e-08
1.4537019e-08
-3.2781749e-08
1.461439e-08
-3.4059646e-08
1.469005e-08
-3.5321557e-08
1.4764026e-08
-3.6567282e-08
1.4836377e-08
-3.7796661e-08
1.4907196e-08
-3.9009581e-08
1.4976603e-08
-4.0205976e-08
1.5044751e-08
-4.1385825e-08
1.5111813e-08
-4.2549151e-08
1.5177988e-08
-4.3696027e-08
1.5243492e-08
-4.4826567e-08
1.5308555e-08
-4.5940932e-08
1.5373422e-08
-4.7039325e-08
1.5438341e-08
-4.8121991e-08
1.5503566e-08
-4.9189217e-08
1.5569344e-08
-5.0241325e-08
1.5635917e-08
-5.1278678e-08
1.5703508e-08
-5.230167e-08
1.5772318e-08
-5.3310733e-08
1.5842518e-08
-5.4306329e-08
1.5914234e-08
-5.5288951e-08
1.5987539e-08
-5.6259126e-08
1.6062441e-08
-5.7217419e-08
1.613887e-08
-5.8164435e-08
1.621667e-08
-5.9100833e-08
1.6295543e-08
-6.0027334e-08
1.6375057e-08
-6.094495e-08
1.6455244e-08
-6.1853845e-08
1.6537354e-08
1.659854e-08