/*--------------------------------*- C++ -*----------------------------------*\
| =========                 |                                                 |
| \\      /  F ield         | OpenFOAM: The Open Source CFD Toolbox           |
|  \\    /   O peration     | Version:  2312                                  |
|   \\  /    A nd           | Website:  www.openfoam.com                      |
|    \\/     M anipulation  |                                                 |
\*---------------------------------------------------------------------------*/
FoamFile
{
    version     2.0;
    format      ascii;
    arch        "LSB;label=32;scalar=64";
    class       volScalarField;
    location    "0.07";
    object      alphat;
}
// * * * * * * * * * * * * * * * * * * * * * * * * * * * * * * * * * * * * * //

dimensions      [1 -1 -1 0 0 0 0];

internalField   nonuniform List<scalar> 
3257
(
0.061323243
0.061901029
0.062474695
0.063045413
0.063613205
0.064177813
0.064738831
0.065295477
0.06584426
0.066367131
0.066780181
0.067049575
0.067392579
0.067669823
0.067963395
0.068275557
0.06858941
0.068902554
0.069216769
0.069531318
0.069844385
0.070154557
0.070461639
0.070766328
0.071069623
0.071372365
0.071675061
0.071977905
0.072280895
0.072583955
0.072887029
0.073190152
0.073493463
0.073797202
0.074101667
0.074407136
0.07471378
0.075021517
0.075329869
0.075637818
0.075943663
0.076244919
0.076538254
0.0768195
0.077083734
0.07732546
0.077538864
0.077718179
0.077858095
0.077954088
0.078002425
0.058982552
0.059607441
0.060223437
0.060831074
0.061431208
0.062024378
0.062610604
0.063189769
0.063760825
0.064320112
0.064857874
0.065366112
0.065852965
0.066310949
0.066753986
0.06718663
0.067606984
0.06801512
0.068412089
0.06879925
0.069176772
0.069544886
0.069904432
0.07025676
0.070603328
0.070945382
0.071283822
0.07161924
0.071952016
0.072282425
0.072610727
0.072937224
0.073262284
0.073586338
0.073909841
0.074233208
0.074556715
0.074880366
0.075203756
0.075525917
0.075845187
0.076159092
0.076464288
0.076756562
0.077030918
0.077281746
0.077503094
0.077689033
0.077834097
0.077933622
0.077983713
0.057100436
0.057723956
0.058344314
0.058961154
0.059573881
0.060182018
0.060785159
0.061383021
0.061975268
0.062561235
0.063139194
0.063705888
0.064258517
0.064795054
0.065316716
0.065824623
0.066318755
0.066799727
0.067268451
0.06772542
0.068170793
0.068604852
0.069028244
0.069441918
0.069846915
0.070244199
0.070634574
0.071018692
0.071397098
0.071770289
0.072138761
0.072503047
0.072863725
0.073221425
0.073576769
0.07393032
0.074282478
0.074633356
0.074982638
0.075329423
0.075672086
0.076008155
0.076334247
0.07664605
0.076938412
0.077205505
0.077441106
0.077638982
0.077793358
0.077899262
0.077952472
0.055774527
0.056374931
0.056976446
0.057578355
0.058179898
0.058780383
0.059379206
0.059975848
0.060569825
0.061160581
0.061747273
0.062328536
0.062902623
0.063468086
0.064024221
0.06457062
0.065106885
0.06563286
0.066148506
0.066653723
0.067148395
0.067632543
0.068106412
0.068570441
0.069025163
0.069471126
0.06990885
0.070338822
0.070761516
0.071177419
0.071587055
0.071991005
0.072389907
0.072784445
0.073175303
0.073563097
0.073948276
0.074330997
0.074710976
0.075087329
0.075458419
0.075821725
0.076173758
0.076510036
0.076825155
0.077112958
0.077366821
0.077580068
0.077746472
0.077860622
0.077917866
0.05484056
0.055420199
0.0560024
0.056586571
0.05717214
0.057758554
0.058345288
0.058931835
0.059517694
0.060102323
0.060685086
0.061265195
0.061841749
0.062413867
0.062980797
0.063541896
0.064096588
0.064644376
0.065184822
0.065717506
0.066242053
0.066758198
0.067265817
0.067764919
0.068255608
0.068738057
0.069212478
0.06967913
0.070138314
0.070590393
0.071035805
0.071475064
0.071908761
0.07233754
0.072762054
0.073182897
0.073600496
0.074014989
0.074426068
0.074832813
0.075233525
0.075625581
0.076005328
0.076368045
0.076707998
0.077018605
0.077292734
0.077523145
0.077703045
0.077826474
0.077888273
0.054106655
0.054676542
0.055248904
0.055823329
0.05639943
0.056976825
0.057555126
0.058133939
0.058712854
0.059291438
0.059869213
0.060445665
0.061020238
0.061592378
0.062161551
0.062727248
0.063288975
0.063846251
0.064398601
0.064945558
0.065486681
0.066021583
0.066549955
0.067071567
0.067586267
0.068093976
0.068594681
0.069088441
0.069575392
0.070055757
0.07052985
0.070998085
0.071460962
0.071919045
0.072372918
0.07282311
0.073269993
0.073713651
0.074153722
0.074589219
0.075018353
0.075438365
0.075845403
0.076234464
0.07659943
0.07693323
0.077228146
0.077476289
0.077670209
0.077803317
0.077869875
0.053458195
0.054027076
0.054598092
0.055170909
0.055745229
0.056320752
0.056897173
0.057474175
0.058051431
0.058628595
0.059205309
0.059781195
0.060355871
0.060928955
0.06150007
0.062068845
0.062634909
0.063197886
0.06375739
0.064313031
0.064864419
0.065411186
0.065952992
0.066489542
0.06702059
0.067545946
0.068065483
0.068579147
0.069086968
0.069589066
0.070085664
0.070577085
0.071063749
0.071546143
0.072024778
0.072500118
0.072972475
0.073441877
0.0739079
0.074369488
0.074824753
0.075270796
0.075703558
0.076117736
0.076506809
0.076863183
0.077178509
0.077444195
0.077652069
0.077794853
0.077866181
0.05284792
0.05342049
0.053995033
0.054571233
0.055148812
0.055727491
0.05630699
0.056887024
0.057467301
0.058047525
0.058627393
0.059206599
0.059784839
0.060361818
0.06093724
0.061510818
0.062082265
0.062651289
0.063217592
0.063780868
0.064340806
0.064897098
0.065449448
0.065997579
0.066541245
0.067080239
0.067614408
0.068143661
0.068667984
0.069187452
0.069702239
0.070212617
0.070718954
0.071221687
0.071721276
0.072218139
0.072712543
0.073204473
0.073693461
0.074178392
0.074657296
0.075127146
0.075583686
0.07602133
0.076433152
0.076811031
0.077145972
0.077428643
0.077650114
0.077802371
0.077878378
0.052261952
0.052840169
0.053420398
0.054002325
0.054585663
0.05517013
0.055755443
0.056341322
0.056927485
0.05751365
0.058099535
0.058684863
0.05926936
0.059852768
0.060434825
0.061015283
0.061593896
0.062170421
0.062744611
0.063316217
0.063884987
0.064450668
0.065013013
0.065571788
0.066126779
0.066677801
0.067224715
0.067767437
0.068305951
0.068840326
0.069370722
0.069897396
0.070420694
0.070941028
0.071458838
0.071974515
0.072488308
0.073000178
0.073509636
0.074015532
0.074515838
0.075007426
0.075485872
0.075945328
0.07637849
0.076776724
0.077130383
0.077429388
0.077664016
0.077825487
0.077906056
0.051699045
0.052283444
0.05287003
0.053458484
0.054048507
0.054639807
0.055232093
0.055825078
0.056418478
0.05701201
0.0576054
0.058198372
0.058790668
0.059382034
0.059972222
0.060560995
0.061148124
0.061733383
0.062316551
0.062897407
0.063475731
0.064051306
0.06462392
0.065193373
0.065759482
0.066322093
0.06688109
0.067436409
0.067988051
0.068536096
0.06908071
0.069622152
0.070160767
0.070696965
0.071231179
0.071763797
0.072295067
0.072824951
0.073352957
0.073877928
0.074397805
0.074909391
0.075408128
0.075887943
0.076341185
0.076758729
0.077130293
0.077445037
0.077692429
0.077862878
0.077947895
0.051161378
0.05175186
0.052344776
0.052939801
0.053536628
0.054134955
0.054734482
0.055334915
0.055935966
0.056537347
0.05713878
0.057739992
0.058340724
0.058940718
0.059539729
0.06013752
0.060733864
0.06132854
0.061921333
0.062512032
0.063100432
0.063686333
0.064269542
0.06484988
0.065427186
0.066001327
0.066572208
0.067139784
0.067704074
0.068265171
0.068823254
0.069378592
0.069931535
0.070482499
0.071031923
0.071580205
0.072127601
0.072674091
0.0732192
0.073761786
0.074299784
0.074829961
0.075347663
0.075846632
0.076318907
0.076754904
0.077143713
0.077473733
0.077733589
0.077912851
0.078002246
0.050651165
0.051247393
0.05184633
0.05244765
0.053051039
0.053656188
0.054262791
0.054870549
0.055479167
0.056088356
0.05669783
0.057307322
0.057916561
0.05852529
0.059133258
0.059740226
0.060345963
0.060950247
0.061552861
0.062153596
0.062752251
0.06334863
0.063942549
0.064533839
0.065122351
0.065707964
0.066290597
0.066870216
0.067446854
0.068020616
0.068591689
0.06916035
0.069726959
0.070291936
0.070855732
0.071418754
0.071981279
0.072543312
0.073104411
0.073663459
0.074218419
0.07476605
0.075301642
0.075818787
0.076309253
0.076763029
0.077168593
0.077513574
0.077785725
0.07797373
0.078067476
0.050169697
0.050771271
0.051375837
0.051983068
0.052592646
0.053204255
0.053817588
0.05443234
0.055048214
0.055664916
0.056282162
0.056899679
0.057517193
0.058134442
0.058751174
0.059367144
0.059982118
0.060595867
0.061208174
0.061818826
0.06242762
0.063034362
0.063638868
0.064240974
0.064840534
0.065437434
0.066031599
0.066623002
0.067211682
0.067797749
0.068381399
0.06896291
0.069542645
0.070121033
0.070698528
0.071275553
0.071852404
0.072429118
0.073005291
0.073579852
0.07415081
0.074714951
0.075267539
0.075802058
0.076310045
0.076781086
0.077203076
0.077562847
0.077847249
0.07804402
0.078142142
0.04971727
0.050323805
0.050933609
0.051546355
0.052161721
0.05277939
0.05339905
0.054020397
0.05464313
0.05526695
0.055891581
0.056516739
0.05714215
0.05776755
0.058392683
0.059017302
0.059641167
0.060264048
0.060885722
0.061505973
0.062124595
0.062741393
0.063356183
0.063968798
0.064579095
0.065186962
0.065792323
0.066395158
0.066995504
0.067593475
0.068189264
0.068783152
0.069375501
0.06996674
0.070557327
0.071147697
0.071738165
0.072328802
0.072919245
0.073508488
0.074094605
0.074674433
0.075243247
0.075794465
0.076319431
0.076807364
0.077245582
0.077620114
0.07791685
0.078122509
0.078225079
0.049293403
0.049904552
0.050519235
0.051137125
0.051757898
0.052381235
0.053006824
0.053634359
0.054263537
0.05489406
0.055525652
0.056158024
0.056790902
0.057424021
0.058057122
0.058689956
0.05932228
0.05995386
0.060584472
0.061213896
0.061841923
0.062468357
0.063093011
0.063715718
0.064336334
0.064954745
0.065570878
0.066184708
0.066796274
0.067405687
0.068013136
0.068618899
0.069223332
0.069826862
0.070429948
0.071033032
0.071636449
0.072240297
0.072844268
0.073447431
0.074047938
0.074642707
0.07522706
0.075794391
0.076335896
0.076840463
0.077294837
0.077684237
0.077993521
0.078208294
0.078315445
0.048897087
0.049512545
0.050131787
0.050754486
0.051380318
0.052008962
0.052640107
0.053273445
0.053908669
0.05454549
0.055183623
0.055822782
0.056462692
0.057103085
0.057743703
0.058384293
0.059024612
0.059664425
0.060303503
0.060941626
0.061578583
0.062214176
0.062848216
0.063480536
0.06411099
0.064739462
0.065365879
0.065990214
0.066612503
0.06723285
0.067851441
0.068468546
0.069084514
0.069699763
0.070314752
0.070929927
0.071545637
0.072162011
0.072778802
0.073395157
0.074009329
0.074618341
0.075217601
0.075800525
0.076358207
0.076879247
0.077349838
0.077754353
0.078076549
0.07830079
0.078412725
0.048527
0.049146498
0.049770017
0.050397227
0.051027804
0.051661427
0.052297785
0.052936569
0.053577471
0.054220207
0.054864486
0.055510023
0.056156543
0.056803779
0.05745147
0.058099364
0.058747216
0.059394789
0.060041855
0.060688192
0.061333588
0.061977843
0.06262077
0.063262198
0.063901981
0.064540004
0.06517619
0.065810509
0.066442994
0.067073743
0.067702935
0.068330829
0.068957766
0.069584155
0.070210448
0.070837093
0.071464449
0.07209268
0.0727216
0.073350444
0.073977582
0.07460017
0.075213743
0.075811788
0.076385357
0.076922806
0.077409801
0.077829842
0.078165487
0.078399704
0.078516711
0.048181666
0.048804968
0.049432511
0.050063965
0.050699004
0.051337309
0.051978567
0.052622471
0.053268709
0.053917004
0.05456706
0.055218592
0.055871327
0.056524995
0.057179337
0.057834099
0.058489038
0.059143915
0.059798502
0.060452576
0.061105927
0.061758352
0.062409664
0.063059694
0.063708295
0.06435535
0.065000781
0.065644556
0.066286701
0.066927311
0.067566554
0.068204679
0.068842017
0.069478963
0.070115963
0.070753462
0.071391827
0.07203126
0.072671635
0.073312282
0.073951707
0.074587226
0.075214543
0.075827274
0.076416496
0.07697038
0.0774741
0.077910255
0.078260092
0.078504982
0.078627454
0.047859568
0.04848646
0.049117798
0.049753252
0.050392497
0.051035212
0.051681085
0.052329807
0.052981068
0.053634593
0.054290082
0.054947253
0.05560583
0.056265546
0.056926141
0.057587362
0.058248963
0.058910709
0.059572369
0.060233723
0.060894559
0.061554676
0.062213888
0.062872026
0.063528942
0.064184519
0.064838678
0.065491384
0.06614266
0.066792592
0.06744134
0.068089143
0.068736316
0.069383245
0.070030364
0.07067811
0.071326863
0.071976856
0.072628028
0.07327981
0.073930856
0.074578674
0.075219179
0.075846184
0.076450863
0.077021286
0.077542182
0.077995228
0.078360232
0.078616714
0.078745174
0.047559212
0.048189497
0.04882442
0.049463651
0.050106864
0.050753738
0.051403961
0.052057223
0.052713217
0.053371665
0.054032268
0.054694744
0.055358818
0.056024222
0.056690696
0.057357988
0.058025853
0.058694055
0.059362366
0.060030564
0.060698439
0.061365792
0.062032437
0.062698206
0.063362952
0.064026558
0.064688943
0.06535007
0.066009959
0.066668687
0.067326407
0.067983345
0.068639803
0.069296153
0.069952816
0.070610219
0.071268755
0.071928686
0.072590013
0.073252276
0.073914289
0.074573777
0.075226916
0.075867783
0.076487741
0.077074855
0.077613484
0.078084383
0.078465781
0.078735032
0.078870161
0.047279166
0.04791266
0.048550973
0.049193772
0.049840731
0.05049153
0.051145857
0.051803399
0.052463853
0.053126939
0.053792358
0.054459827
0.055129073
0.055799827
0.05647183
0.05714483
0.057818584
0.058492854
0.059167414
0.059842045
0.060516537
0.061190691
0.061864325
0.06253727
0.063209382
0.063880543
0.064550672
0.06521973
0.065887731
0.066554749
0.067220924
0.067886472
0.06855168
0.069216907
0.069882557
0.070549048
0.071216782
0.071886048
0.072556908
0.073229012
0.073901345
0.074571874
0.07523708
0.075891374
0.076526414
0.07713038
0.077687369
0.078177246
0.078576522
0.078860015
0.079002683
0.047018081
0.047654611
0.048296127
0.048942297
0.049592795
0.050247299
0.050905496
0.051567075
0.052231733
0.052899188
0.053569142
0.054241312
0.054915424
0.055591211
0.056268413
0.05694678
0.057626067
0.058306041
0.058986473
0.059667148
0.060347856
0.061028402
0.061708602
0.062388292
0.063067328
0.063745593
0.064423005
0.065099524
0.065775159
0.066449977
0.067124111
0.067797764
0.068471209
0.069144789
0.069818888
0.070493921
0.071170291
0.071848312
0.072528103
0.073209423
0.073891436
0.074572366
0.075249042
0.075916285
0.076566155
0.077187095
0.077763091
0.078273195
0.078692097
0.078991652
0.079142967
0.046774698
0.047414096
0.048058639
0.048707993
0.04936183
0.050019831
0.05068168
0.051347064
0.052015683
0.052687253
0.053361477
0.054038071
0.054716762
0.055397282
0.056079373
0.056762783
0.057447271
0.058132602
0.058818551
0.059504902
0.060191449
0.060877997
0.061564366
0.062250391
0.062935932
0.063620871
0.064305128
0.064988659
0.06567147
0.066353623
0.067035241
0.067716515
0.068397705
0.069079135
0.069761172
0.070444222
0.071128689
0.071814907
0.072503049
0.073192979
0.073884035
0.074574716
0.07526223
0.075941874
0.076606231
0.077244176
0.077839785
0.078371454
0.078811995
0.079129848
0.079291239
0.046547843
0.047189949
0.047837349
0.048489709
0.049146697
0.049807994
0.050473285
0.051142255
0.051814605
0.05249005
0.053168292
0.053849049
0.054532046
0.055217016
0.055903701
0.056591851
0.057281223
0.057971587
0.058662716
0.059354397
0.060046424
0.060738607
0.061430766
0.062122739
0.062814387
0.063505593
0.064196277
0.064886394
0.065575946
0.066264989
0.066953637
0.067642071
0.068330536
0.069019336
0.069708821
0.07039939
0.07109144
0.071785323
0.072481259
0.073179207
0.073878681
0.074578452
0.075276128
0.075967545
0.076645925
0.077300766
0.07791649
0.078471092
0.078935565
0.079274472
0.079447815
0.046336428
0.046981088
0.047631183
0.048286376
0.048946335
0.049610739
0.050279272
0.050951618
0.05162748
0.05230657
0.052988592
0.053673262
0.054360306
0.055049457
0.055740458
0.056433059
0.057127018
0.057822105
0.058518096
0.059214778
0.059911949
0.060609419
0.06130701
0.062004564
0.062701941
0.063399028
0.064095744
0.064792041
0.06548792
0.06618343
0.066878677
0.067573831
0.068269123
0.068964833
0.069661303
0.070358914
0.07105806
0.071759102
0.072462298
0.073167698
0.073874974
0.074583166
0.075290292
0.075992768
0.076684563
0.077356001
0.07799217
0.078571043
0.079062017
0.079425402
0.07961324
0.046139441
0.046786505
0.047439139
0.048097002
0.04875976
0.049427089
0.050098673
0.050774196
0.051453359
0.052135877
0.05282145
0.053509796
0.054200642
0.05489372
0.055588772
0.05628555
0.056983814
0.057683332
0.058383884
0.059085257
0.059787251
0.060489677
0.061192363
0.061895149
0.062597899
0.0633005
0.064002871
0.064704964
0.065406776
0.066108351
0.066809787
0.067511243
0.068212933
0.068915121
0.069618133
0.070322335
0.071028113
0.071735833
0.072445785
0.073158092
0.073872573
0.074588519
0.075304353
0.076017093
0.07672154
0.07740905
0.07806574
0.078670094
0.079190416
0.079582525
0.079788446
0.045955938
0.046605266
0.047260292
0.04792067
0.048586061
0.049256141
0.049930593
0.050609099
0.051291365
0.0519771
0.052666009
0.053357807
0.05405222
0.054748982
0.055447835
0.056148531
0.056850831
0.057554504
0.05825933
0.058965099
0.059671613
0.060378686
0.061086144
0.061793833
0.062501617
0.063209384
0.063917054
0.064624578
0.06533195
0.066039207
0.066746442
0.067453804
0.068161486
0.068869739
0.069578873
0.070289239
0.071001211
0.071715155
0.072431384
0.073150083
0.073871196
0.074594242
0.075318025
0.076040165
0.076756349
0.077459142
0.078136086
0.07876686
0.079319532
0.079745751
0.07997501
0.045785041
0.0464365
0.04709378
0.047756524
0.04842439
0.049097054
0.049774198
0.050455506
0.051140682
0.051829438
0.052521474
0.053216509
0.053914267
0.054614483
0.055316899
0.056021267
0.056727348
0.057434913
0.058143744
0.058853631
0.059564378
0.0602758
0.060987727
0.061700006
0.062412503
0.063125108
0.063837739
0.064550348
0.065262924
0.065975502
0.066688166
0.067401054
0.068114342
0.068828269
0.069543129
0.070259255
0.070977007
0.071696748
0.072418804
0.07314341
0.073870611
0.074600126
0.075331101
0.076061729
0.076788598
0.077505604
0.078202098
0.078859768
0.079447774
0.0799148
0.080175549
0.045625923
0.046279399
0.046938805
0.047603773
0.048273963
0.04894905
0.049628718
0.050312652
0.051000556
0.051692141
0.052387109
0.053085176
0.053786069
0.05448952
0.055195272
0.055903078
0.0566127
0.057323908
0.058036486
0.058750227
0.059464935
0.060180427
0.060896535
0.061613109
0.062330015
0.063047144
0.063764416
0.064481781
0.065199226
0.065916781
0.066634524
0.067352579
0.068071108
0.068790338
0.069510547
0.070232049
0.070955192
0.071680328
0.072407792
0.07313785
0.073870632
0.074606017
0.07534345
0.076081638
0.076818028
0.0775479
0.078262709
0.078947021
0.079572999
0.08008917
0.080393984
0.045477788
0.046133235
0.046794632
0.047461685
0.048134049
0.048811404
0.049493435
0.050179826
0.050870285
0.051564519
0.05226223
0.052963136
0.053666961
0.05437344
0.055082314
0.055793336
0.056506269
0.057220886
0.057936969
0.058654312
0.059372723
0.06009202
0.060812037
0.061532625
0.062253652
0.062975011
0.063696621
0.06441843
0.065140425
0.065862631
0.066585121
0.067308
0.068031425
0.068755608
0.06948081
0.070207328
0.070935494
0.071665649
0.072398128
0.073133219
0.073871111
0.074611811
0.075355006
0.076099842
0.076844532
0.077585679
0.078316974
0.079026624
0.079692085
0.080266845
0.080637083
0.045997295
0.046660583
0.047329576
0.048003968
0.04868344
0.04936768
0.050056369
0.050749215
0.051445926
0.052146204
0.052849764
0.053556331
0.054265639
0.054977431
0.05569146
0.056407488
0.057125289
0.057844646
0.058565356
0.059287226
0.060010077
0.060733745
0.061458081
0.062182957
0.062908265
0.063633925
0.064359885
0.065086129
0.065812677
0.066539597
0.067266979
0.067994972
0.068723776
0.069453634
0.070184828
0.070917671
0.071652493
0.072389621
0.073129357
0.073871929
0.074617438
0.075365758
0.07611638
0.076868154
0.077618832
0.078364217
0.07909648
0.079800445
0.080442442
0.080914909
0.045871073
0.046536024
0.047206806
0.047883083
0.04856453
0.04925083
0.049941665
0.050636741
0.051335765
0.052038439
0.052744478
0.053453607
0.054165558
0.054880076
0.055596911
0.056315829
0.057036602
0.057759016
0.058482868
0.059207967
0.059934135
0.060661209
0.061389043
0.062117509
0.062846502
0.06357594
0.064305772
0.065035978
0.065766579
0.066497627
0.067229207
0.067961459
0.06869457
0.069428766
0.070164315
0.07090151
0.071640669
0.072382109
0.073126132
0.073872994
0.074622858
0.075375732
0.076131365
0.076889089
0.077647547
0.078404259
0.079154909
0.079892177
0.080601951
0.081236531
0.045753812
0.046420321
0.047092765
0.047770796
0.048454081
0.049142303
0.049835139
0.050532295
0.051233479
0.051938389
0.052646741
0.05335826
0.054072677
0.054789736
0.055509191
0.056230804
0.05695435
0.057679614
0.058406396
0.059134505
0.059863765
0.060594014
0.061325109
0.062056922
0.062789349
0.063522308
0.064255748
0.064989648
0.065724024
0.066458917
0.067194407
0.067930626
0.068667746
0.069405981
0.070145581
0.070886825
0.071630011
0.072375447
0.073123431
0.07387423
0.074628047
0.075384979
0.076144953
0.076907636
0.077672294
0.078437629
0.079201696
0.079962619
0.08072226
0.081498239
0.045644917
0.04631289
0.046986884
0.047666547
0.048351545
0.049041556
0.049736256
0.050435352
0.051138547
0.051845542
0.05255605
0.053269796
0.053986512
0.054705941
0.055427836
0.05615196
0.056878089
0.05760601
0.058335521
0.059066433
0.059798573
0.06053178
0.061265911
0.062000841
0.062736465
0.063472703
0.064209502
0.06494684
0.06568473
0.0664232
0.067162328
0.067902236
0.068643086
0.069385078
0.070128444
0.070873449
0.071620374
0.072369514
0.073121158
0.073875575
0.07463299
0.075393556
0.076157311
0.076924137
0.077693694
0.078465382
0.079238466
0.080012999
0.080793239
0.081590275
0.045543851
0.046213192
0.046888631
0.047569814
0.048256405
0.048948081
0.049644517
0.050345418
0.051050487
0.051759423
0.052471939
0.053187759
0.053906615
0.05462825
0.055352416
0.056078879
0.056807412
0.057537804
0.058269855
0.059003377
0.059738196
0.060474155
0.06121111
0.061948939
0.062687537
0.063426824
0.064166748
0.064907284
0.065648439
0.066390234
0.067132743
0.06787608
0.068620396
0.069365877
0.070112741
0.070861237
0.071611631
0.072364202
0.073119229
0.073876977
0.074637678
0.075401516
0.076168596
0.076938923
0.077712382
0.078488741
0.079267778
0.08004987
0.080837875
0.081636024
0.045450111
0.046120729
0.046797511
0.047480108
0.04816818
0.048861405
0.049559456
0.050262035
0.050968847
0.051679588
0.052393972
0.053111721
0.053832568
0.054556254
0.055282533
0.05601117
0.056741939
0.057474629
0.058209041
0.058944988
0.059682298
0.060420813
0.061160394
0.061900916
0.062642277
0.063384398
0.064127224
0.064870731
0.065614916
0.066359798
0.067105447
0.067851967
0.068599499
0.069348218
0.070098329
0.070850063
0.071603672
0.072359421
0.073117575
0.073878391
0.074642103
0.075408906
0.07617894
0.076952279
0.07772892
0.0785088
0.079291875
0.080078414
0.080869831
0.081667396
0.045363229
0.046035033
0.046713064
0.047396973
0.048086422
0.048781085
0.049480635
0.050184774
0.050893205
0.051605624
0.052321743
0.053041285
0.053763981
0.054489574
0.055217816
0.055948471
0.056681317
0.057416141
0.058152746
0.058890945
0.059630567
0.060371456
0.061113473
0.061856495
0.062600421
0.063345171
0.06409069
0.064836954
0.065583949
0.066331694
0.067080254
0.067829725
0.06858024
0.06933196
0.070085079
0.070839813
0.071596401
0.07235509
0.073116135
0.073879781
0.074646257
0.07541576
0.076188449
0.076964427
0.077743745
0.07852641
0.079312423
0.080101903
0.08089541
0.08169317
0.045282764
0.045955667
0.046634857
0.047319984
0.048010709
0.048706706
0.049407649
0.050113236
0.050823169
0.051537145
0.052254875
0.052976081
0.053700494
0.054427855
0.055157918
0.055890447
0.05662522
0.057362023
0.058100661
0.058840949
0.059582715
0.060325805
0.061070081
0.061815421
0.062561724
0.063308911
0.064056927
0.064805745
0.065555342
0.06630574
0.067056996
0.067809201
0.068562477
0.069316977
0.07007288
0.070830392
0.071589735
0.072351144
0.073114859
0.073881115
0.074650132
0.075422107
0.076197199
0.076975528
0.077757168
0.078542148
0.079330475
0.080122169
0.080917369
0.081715973
0.045208304
0.045882223
0.046562485
0.04724874
0.047940649
0.048637883
0.049340116
0.050047045
0.050758372
0.051473792
0.052193015
0.052915763
0.053641767
0.054370768
0.055102519
0.055836785
0.056573342
0.05731198
0.058052502
0.058794724
0.059538476
0.060283605
0.061029972
0.061777458
0.062525963
0.063275406
0.064025734
0.064776914
0.065528919
0.06628177
0.06703552
0.067790253
0.068546084
0.069303154
0.070061633
0.070821713
0.071583603
0.072347525
0.073113706
0.073882369
0.074653725
0.075427965
0.076205248
0.076985698
0.077769396
0.078556381
0.079346653
0.080140184
0.080936929
0.08173669
0.04513946
0.045814317
0.046495571
0.04718287
0.047875874
0.048574254
0.049277682
0.049985854
0.050698471
0.051415228
0.052135834
0.05286001
0.053587487
0.054318006
0.055051319
0.055787192
0.056525401
0.057265737
0.058008002
0.058752013
0.059497602
0.060244617
0.060992919
0.06174239
0.062492929
0.063244459
0.063996924
0.064750286
0.065504516
0.066259634
0.067015689
0.067772758
0.068530948
0.069290392
0.07005125
0.070813701
0.071577943
0.072344185
0.073112641
0.073883523
0.074657033
0.075433353
0.07621264
0.076995018
0.077780569
0.078569336
0.079361316
0.08015646
0.080954656
0.081755678
0.04507587
0.045751592
0.046433761
0.047122024
0.04781604
0.04851548
0.049220013
0.049929335
0.050643146
0.051361139
0.052083024
0.052808521
0.05353736
0.054269282
0.05500404
0.055741399
0.056481135
0.057223039
0.057966914
0.058712579
0.059459865
0.060208621
0.06095871
0.061710014
0.062462433
0.063215889
0.063970328
0.064725702
0.065481985
0.066239195
0.066997376
0.0677566
0.068516967
0.069278601
0.070041653
0.070806291
0.071572701
0.072341082
0.073111635
0.073884562
0.074660054
0.075438287
0.076219412
0.077003551
0.077790787
0.078581164
0.079374679
0.080171281
0.08097084
0.081773117
0.045017194
0.04569371
0.046376722
0.047065875
0.047760826
0.048461245
0.049166799
0.049877183
0.050592097
0.051311232
0.052034298
0.052761015
0.053491112
0.05422433
0.054960422
0.055699152
0.056440297
0.057183648
0.05792901
0.0586762
0.059425052
0.060175414
0.06092715
0.061680145
0.062434297
0.06318953
0.063945788
0.064703015
0.06546119
0.066220327
0.066980467
0.067741677
0.068504049
0.069267701
0.070032773
0.070799425
0.071567833
0.072338184
0.073110668
0.073885476
0.074662792
0.075442783
0.076225595
0.077011347
0.077800123
0.078591967
0.079386881
0.080184815
0.080985647
0.081789126
0.044963112
0.045640357
0.046324144
0.047014117
0.047709931
0.048411253
0.04911775
0.049829114
0.050545044
0.051265233
0.051989389
0.052717231
0.053448488
0.054182901
0.054920222
0.055660216
0.05640266
0.057147345
0.057894075
0.05864267
0.059392964
0.060144805
0.06089806
0.06165261
0.062408358
0.063165226
0.063923158
0.06468209
0.065442006
0.066202916
0.066964858
0.067727894
0.068492111
0.069257618
0.07002455
0.070793055
0.0715633
0.072335461
0.073109721
0.073886259
0.074665251
0.075446857
0.076231219
0.077018451
0.077808637
0.078601825
0.079398018
0.080197178
0.080999193
0.081803799
0.044913324
0.045591236
0.046275735
0.046966464
0.047663073
0.048365228
0.049072593
0.049784859
0.050501727
0.051222886
0.051948045
0.052676923
0.053409248
0.054144762
0.054883215
0.055624372
0.056368011
0.057113922
0.057861912
0.058611799
0.059363419
0.06011662
0.060871269
0.06162725
0.062384465
0.063142837
0.063902305
0.064662804
0.065424318
0.066186857
0.066950454
0.067715168
0.068481078
0.06924829
0.070016928
0.070787135
0.071559067
0.072332892
0.073108781
0.073886908
0.074667439
0.075450528
0.076236311
0.077024901
0.077816381
0.0786108
0.079408169
0.080208455
0.081011566
0.08181722
0.044867551
0.045546071
0.046231222
0.046922647
0.047619988
0.04832291
0.049031074
0.049744171
0.0504619
0.051183952
0.051910033
0.052639864
0.053373171
0.054109696
0.054849189
0.055591414
0.056336151
0.05708319
0.057832336
0.058583409
0.059336245
0.060090695
0.060846624
0.061603918
0.062362479
0.063122231
0.063883106
0.064645041
0.065408022
0.066172054
0.066937169
0.06770342
0.068470884
0.069239658
0.070009861
0.070781627
0.071555106
0.072330456
0.07310784
0.073887424
0.074669366
0.075453814
0.0762409
0.077030735
0.077823401
0.07861895
0.079417398
0.080218721
0.081022842
0.081829464
0.044825528
0.0455046
0.04619035
0.046882414
0.04758043
0.048284057
0.048992956
0.049706816
0.050425336
0.051148206
0.051875135
0.052605839
0.053340048
0.0540775
0.054817947
0.055561154
0.056306897
0.057054968
0.057805174
0.058557334
0.059311285
0.060066878
0.06082398
0.061582476
0.06234227
0.063103285
0.063865447
0.064628698
0.06539302
0.066158419
0.066924922
0.067692581
0.068461466
0.06923167
0.070003305
0.070776499
0.071551393
0.072328138
0.073106891
0.073887808
0.074671041
0.075456734
0.076245014
0.077035988
0.077829741
0.078626326
0.079425764
0.080228039
0.081033092
0.081840605
0.044787005
0.045466579
0.046152879
0.046845532
0.047544169
0.048248444
0.048958016
0.049672575
0.05039182
0.05111544
0.051843145
0.05257465
0.053309685
0.054047987
0.054789308
0.055533411
0.056280075
0.057029091
0.057780266
0.05853342
0.05928839
0.060045028
0.060803202
0.061562797
0.062323717
0.063085887
0.063849224
0.064613676
0.065379223
0.06614587
0.066913642
0.067682586
0.068452769
0.069224279
0.069997222
0.07077172
0.071547907
0.072325927
0.073105929
0.073888064
0.074672478
0.075459308
0.076248679
0.077040697
0.077835444
0.078632977
0.079433323
0.080236471
0.081042381
0.081850711
0.044751751
0.045431778
0.046118583
0.04681178
0.047510988
0.048215858
0.048926047
0.049641246
0.050361152
0.051085459
0.051813872
0.05254611
0.0532819
0.054020979
0.054763098
0.055508021
0.056255526
0.057005404
0.057757463
0.058511524
0.059267424
0.060025015
0.060784166
0.061544763
0.06230671
0.063069932
0.06383434
0.064599886
0.06536655
0.066134334
0.066903262
0.067673377
0.068444743
0.069217443
0.069991578
0.070767264
0.07154463
0.072323812
0.073104954
0.073888199
0.07467369
0.075461558
0.076251925
0.077044894
0.07784055
0.07863895
0.079440126
0.080244074
0.081050769
0.081859849
0.044719543
0.04539998
0.046087253
0.046780953
0.047480687
0.048186102
0.048896854
0.049612636
0.050333146
0.051058078
0.051787138
0.052520045
0.053256523
0.053996311
0.054739158
0.055484828
0.056233099
0.056983762
0.057736626
0.058491512