/*--------------------------------*- C++ -*----------------------------------*\
| =========                 |                                                 |
| \\      /  F ield         | OpenFOAM: The Open Source CFD Toolbox           |
|  \\    /   O peration     | Version:  2312                                  |
|   \\  /    A nd           | Website:  www.openfoam.com                      |
|    \\/     M anipulation  |                                                 |
\*---------------------------------------------------------------------------*/
FoamFile
{
    version     2.0;
    format      ascii;
    arch        "LSB;label=32;scalar=64";
    class       volScalarField;
    location    "0.07";
    object      CH4;
}
// * * * * * * * * * * * * * * * * * * * * * * * * * * * * * * * * * * * * * //

dimensions      [0 0 0 0 0 0 0];

internalField   nonuniform List<scalar> 
3257
(
0.00070754954
0.00066615145
0.00062805283
0.00059284489
0.00056022502
0.00052998031
0.00050211387
0.00047736724
0.00045930762
0.00046268955
0.0005470148
0.00060092643
0.00063065111
0.00066167135
0.00068760252
0.00070671374
0.00072247885
0.0007352916
0.00074454937
0.00075038845
0.00075358925
0.0007547457
0.00075400443
0.00075124861
0.00074633128
0.00073918955
0.00072986457
0.00071847445
0.00070516924
0.00069011543
0.00067346661
0.0006553538
0.00063588004
0.00061511951
0.00059312155
0.00056991949
0.00054554448
0.00052004353
0.00049350036
0.00046605713
0.00043793469
0.00040944869
0.0003810192
0.00035317129
0.00032652476
0.00030177187
0.00027964324
0.00026086369
0.00024610172
0.00023591782
0.00023071784
0.0019525995
0.0018511897
0.0017558829
0.0016661943
0.001581712
0.0015020919
0.0014271161
0.0013568737
0.0012922302
0.0012357574
0.0011919256
0.0011537876
0.0011185513
0.0010885808
0.0010618765
0.0010370918
0.0010144679
0.00099350421
0.00097343689
0.00095388951
0.00093485588
0.00091630478
0.00089801524
0.00087965239
0.00086089378
0.0008415021
0.00082133862
0.00080034414
0.00077851085
0.0007558585
0.00073241568
0.00070820707
0.00068324595
0.00065753111
0.00063104864
0.00060377875
0.00057570768
0.00054684406
0.00051723851
0.00048700462
0.00045633892
0.00042553732
0.00039500527
0.00036525908
0.00033691605
0.00031067226
0.00028726765
0.00026744045
0.00025187459
0.00024114567
0.0002356722
0.0028304282
0.0027035563
0.0025820529
0.00246572
0.0023543618
0.0022477951
0.0021458704
0.0020485164
0.0019558167
0.0018680806
0.0017857448
0.0017084033
0.0016357099
0.0015678138
0.0015042908
0.0014447325
0.0013889551
0.0013366094
0.0012872681
0.0012406124
0.0011964354
0.001154515
0.0011145512
0.0010761945
0.0010391036
0.0010029854
0.00096760764
0.00093279353
0.00089840861
0.00086434694
0.00083051893
0.00079684196
0.0007632338
0.00072960946
0.00069588217
0.00066196885
0.00062780055
0.00059333741
0.00055858722
0.00052362587
0.00048861765
0.00045383269
0.00041965855
0.00038660304
0.00035528543
0.00032641418
0.00030075093
0.00027906209
0.00026206251
0.00025035698
0.00024438869
0.0034278494
0.0032909798
0.0031584733
0.0030302722
0.0029063022
0.0027864869
0.0026707539
0.0025590457
0.0024513335
0.0023476214
0.0022479357
0.0021522461
0.0020605169
0.0019727442
0.0018888423
0.0018087049
0.0017322342
0.0016592831
0.0015896738
0.0015232422
0.0014598375
0.0013992873
0.0013413781
0.0012858662
0.0012325016
0.0011810472
0.0011312892
0.0010830382
0.0010361257
0.00099039934
0.00094571703
0.00090194196
0.00085893896
0.00081657309
0.00077471129
0.00073322806
0.00069201549
0.00065099783
0.00061014989
0.00056951787
0.00052924086
0.00048957013
0.00045088306
0.00041368824
0.0003786183
0.00034640786
0.00031785595
0.00029377416
0.00027492491
0.00026195686
0.00025534767
0.0038816152
0.0037360156
0.0035945891
0.003457277
0.0033240082
0.0031947112
0.0030693166
0.0029477596
0.0028299821
0.0027159329
0.002605567
0.0024988387
0.0023957043
0.0022961218
0.0022000382
0.0021073936
0.0020181234
0.0019321492
0.0018493825
0.0017697326
0.0016931041
0.0016193867
0.0015484485
0.0014801389
0.0014142968
0.0013507586
0.0012893636
0.001229956
0.0011723847
0.0011165025
0.0010621632
0.0010092203
0.00095752468
0.00090692565
0.0008572731
0.00080842394
0.00076025239
0.00071266475
0.00066561828
0.00061914312
0.00057336559
0.00052852999
0.00048501552
0.00044334424
0.00040417577
0.00036828583
0.00033652673
0.00030977146
0.00028884567
0.00027445545
0.00026712289
0.004280152
0.0041228625
0.0039701369
0.0038218774
0.0036779786
0.0035383367
0.0034028514
0.0032714263
0.0031439691
0.0030203911
0.0029006069
0.0027845333
0.0026720897
0.0025631969
0.0024577758
0.0023557472
0.0022570319
0.0021615494
0.0020692181
0.0019799565
0.001893681
0.0018103021
0.0017297215
0.0016518323
0.0015765202
0.0015036662
0.001433148
0.0013648411
0.0012986188
0.0012343512
0.0011719042
0.0011111385
0.0010519088
0.0009940655
0.00093745711
0.00088193744
0.00082737597
0.00077367299
0.00072077923
0.00066871914
0.00061761622
0.00056771774
0.00051941487
0.00047325374
0.00042993247
0.0003902802
0.00035521572
0.00032568691
0.0003025956
0.00028671673
0.00027862533
0.0046624416
0.0044908515
0.0043244397
0.0041630745
0.0040066191
0.0038549377
0.0037078979
0.0035653709
0.0034272311
0.003293356
0.0031636259
0.0030379235
0.0029161337
0.0027981438
0.0026838427
0.0025731219
0.002465875
0.0023619982
0.0022613903
0.0021639529
0.0020695892
0.0019782026
0.0018896952
0.0018039671
0.0017209157
0.001640436
0.0015624206
0.0014867588
0.0014133361
0.0013420331
0.0012727245
0.0012052776
0.0011395523
0.0010754022
0.0010126777
0.00095123307
0.00089093691
0.00083168755
0.00077343344
0.0007161978
0.00066010609
0.00060541363
0.00055252905
0.00050202874
0.00045465631
0.00041130234
0.00037296111
0.00034066512
0.00031540216
0.00029802481
0.0002891679
0.0050401542
0.0048528936
0.0046714636
0.0044957092
0.0043254707
0.0041605893
0.0040009078
0.0038462718
0.0036965294
0.0035515312
0.0034111301
0.0032751814
0.0031435425
0.0030160731
0.0028926355
0.0027730948
0.0026573189
0.0025451795
0.002436552
0.0023313156
0.0022293534
0.0021305514
0.002034798
0.0019419831
0.0018519977
0.0017647328
0.0016800789
0.0015979245
0.0015181554
0.0014406524
0.0013652906
0.0012919376
0.0012204531
0.0011506903
0.0010824984
0.0010157301
0.00095025128
0.00088595742
0.0008227942
0.00076078357
0.0007000533
0.00064086741
0.00058365317
0.0005290189
0.00047775629
0.00043082107
0.00038928807
0.00035428064
0.00032687943
0.0003080213
0.00029840633
0.005413799
0.0052104606
0.0050135785
0.0048229808
0.0046384916
0.0044599345
0.0042871341
0.0041199166
0.00395811
0.0038015441
0.0036500506
0.0035034636
0.0033616189
0.0032243548
0.0030915123
0.0029629352
0.0028384704
0.0027179688
0.0026012851
0.0024882784
0.0023788121
0.0022727539
0.0021699754
0.0020703515
0.0019737598
0.0018800802
0.001789193
0.0017009784
0.0016153146
0.001532076
0.0014511315
0.0013723433
0.0012955661
0.0012206477
0.0011474324
0.0010757673
0.0010055128
0.00093655874
0.0008688455
0.00080239158
0.00073732494
0.00067391631
0.00061260964
0.00055404376
0.0004990577
0.00044867287
0.00040404676
0.00036639731
0.00033690298
0.00031659028
0.00030622913
0.0057806142
0.0055613543
0.0053491368
0.0051437761
0.0049450828
0.0047528663
0.0045669365
0.0043871039
0.0042131802
0.0040449787
0.003882314
0.003725003
0.0035728643
0.003425719
0.0032833908
0.0031457062
0.0030124952
0.0028835915
0.0027588329
0.0026380613
0.0025211236
0.0024078711
0.0022981594
0.0021918487
0.0020888025
0.0019888873
0.0018919715
0.0017979238
0.0017066118
0.0016179002
0.0015316487
0.0014477107
0.0013659325
0.0012861538
0.001208211
0.0011319431
0.0010572024
0.00098387016
0.0009118793
0.00084124207
0.00077208365
0.00070467824
0.00063948307
0.00057716408
0.00051860495
0.00046489133
0.00041726369
0.00037703697
0.00034549156
0.00032374846
0.00031265199
0.0061376428
0.0059029051
0.0056757591
0.0054560069
0.0052434466
0.0050378753
0.0048390895
0.004646886
0.0044610626
0.0042814181
0.0041077526
0.0039398682
0.003777569
0.0036206613
0.0034689541
0.0033222596
0.0031803932
0.0030431743
0.0029104262
0.0027819767
0.0026576584
0.0025373085
0.0024207689
0.0023078863
0.0021985112
0.0020924974
0.0019897014
0.0018899802
0.0017931903
0.0016991857
0.0016078159
0.0015189245
0.0014323482
0.0013479174
0.0012654591
0.0011848027
0.0011057909
0.0010282953
0.00095223895
0.00087762572
0.00080457508
0.00073336111
0.00066445024
0.00059853129
0.00053652881
0.00047959016
0.00042903834
0.00038628722
0.00035272322
0.00032956714
0.00031774267
0.0064826495
0.006233007
0.0059914745
0.0057578426
0.0055318974
0.005313424
0.0051022064
0.0048980289
0.0047006761
0.0045099337
0.0043255887
0.00414743
0.0039752483
0.0038088368
0.0036479915
0.0034925116
0.0033421998
0.0031968626
0.0030563108
0.0029203598
0.0027888297
0.0026615454
0.0025383369
0.0024190387
0.0023034897
0.0021915324
0.0020830119
0.0019777744
0.0018756658
0.0017765298
0.0016802058
0.0015865277
0.0014953225
0.0014064113
0.0013196113
0.0012347425
0.0011516372
0.0010701566
0.00099021292
0.00091179969
0.00083502815
0.00076016881
0.00068769304
0.00061830786
0.00055297435
0.00049289856
0.00043948525
0.00039424929
0.00035868786
0.00033412776
0.00032157809
0.0068142159
0.0065502888
0.0062949643
0.0060480216
0.0058092353
0.0055783784
0.0053552231
0.0051395414
0.0049311055
0.0047296888
0.0045350659
0.0043470129
0.0041653084
0.0039897334
0.0038200716
0.0036561102
0.0034976402
0.0033444564
0.003196358
0.0030531491
0.0029146385
0.0027806401
0.0026509729
0.0025254607
0.0024039319
0.0022862184
0.0021721552
0.0020615783
0.0019543241
0.0018502264
0.0017491155
0.0016508159
0.0015551458
0.001461917
0.0013709381
0.0012820194
0.0011949835
0.0011096808
0.0010260123
0.00094395971
0.00086362394
0.00078526858
0.00070936561
0.00063663539
0.00056807079
0.00050493316
0.0004487082
0.00040101427
0.000363465
0.00033750083
0.00032422291
0.0071315849
0.0068540004
0.0065854894
0.0063258195
0.006074754
0.005832054
0.0055974801
0.0053707921
0.0051517506
0.0049401168
0.0047356531
0.0045381241
0.0043472963
0.004162939
0.0039848243
0.0038127282
0.0036464303
0.0034857144
0.003330369
0.0031801874
0.0030349679
0.0028945142
0.0027586351
0.0026271445
0.0024998609
0.0023766067
0.0022572074
0.0021414898
0.0020292811
0.0019204065
0.0018146875
0.0017119403
0.0016119747
0.0015145945
0.0014196
0.0013267928
0.0012359861
0.0011470201
0.0010597839
0.00097424684
0.00089049735
0.00080878892
0.00072958978
0.00065362839
0.0005819243
0.00051579038
0.00045679236
0.00040665518
0.00036711599
0.00033973762
0.00032572501
0.0074344672
0.0071438422
0.0068627421
0.0065909233
0.0063281375
0.0060741344
0.0058286628
0.0055914711
0.0053623079
0.0051409228
0.0049270667
0.0047204925
0.0045209552
0.0043282128
0.0041420265
0.003962161
0.0037883852
0.0036204723
0.0034582006
0.0033013529
0.0031497178
0.0030030892
0.0028612661
0.0027240532
0.0025912596
0.0024626988
0.0023381873
0.0022175435
0.002100586
0.0019871318
0.0018769946
0.0017699828
0.0016658989
0.0015645394
0.001465697
0.0013691655
0.0012747496
0.0011822793
0.0010916322
0.0010027644
0.00091574994
0.00083082905
0.00074846167
0.00066937877
0.00059462082
0.00052554789
0.0004638046
0.00041122608
0.00036968159
0.00034086955
0.00032610857
0.0077228809
0.0074198153
0.0071267082
0.0068433048
0.0065693455
0.0063045686
0.0060487115
0.0058015111
0.0055627045
0.00533203
0.0051092271
0.0048940374
0.0046862049
0.0044854764
0.0042916024
0.0041043369
0.0039234385
0.0037486701
0.0035797997
0.0034166007
0.0032588518
0.0031063375
0.0029588479
0.0028161782
0.0026781291
0.0025445054
0.0024151151
0.0022897684
0.0021682762
0.0020504478
0.0019360896
0.001825003
0.0017169838
0.0016118218
0.0015093031
0.0014092147
0.0013113532
0.0012155392
0.0011216389
0.0010295943
0.00093946328
0.00085146981
0.00076606063
0.00068396305
0.00060623187
0.00053426914
0.00046979677
0.00041476427
0.00037118344
0.00034090391
0.00032537237
0.0079970348
0.0076821102
0.0073775606
0.0070831206
0.006798519
0.0065234832
0.0062577392
0.0060010128
0.00575303
0.0055135177
0.0052822045
0.005058821
0.0048431003
0.0046347787
0.004433596
0.004239296
0.0040516269
0.003870342
0.0036951995
0.0035259631
0.0033624024
0.0032042927
0.0030514151
0.0029035564
0.0027605086
0.0026220683
0.0024880355
0.0023582127
0.0022324032
0.0021104092
0.0019920303
0.0018770615
0.0017652925
0.0016565073
0.0015504862
0.0014470098
0.0013458675
0.0012468712
0.0011498755
0.0010548081
0.00096170894
0.00087078238
0.0007824568
0.00069744896
0.00061682028
0.00054200822
0.00047480955
0.00041729281
0.00037162518
0.00033982607
0.00032349184
0.0082572518
0.007931032
0.0076155875
0.0073106418
0.007015913
0.0067311175
0.0064559704
0.0061901865
0.0059334809
0.0056855697
0.0054461706
0.0052150035
0.0049917912
0.0047762595
0.0045681379
0.0043671603
0.0041730652
0.0039855959
0.0038045013
0.0036295361
0.0034604606
0.0032970415
0.0031390511
0.002986268
0.0028384759
0.0026954634
0.0025570229
0.0024229495
0.0022930394
0.0021670879
0.0020448884
0.00192623
0.0018108968
0.0016986676
0.0015893175
0.0014826216
0.001378363
0.001276345
0.0011764113
0.0010784743
0.00098255486
0.00088883405
0.00079771652
0.00070990066
0.00062644541
0.00054881524
0.00047887772
0.00041882467
0.00037099556
0.00033760311
0.00032042057
0.0085039208
0.0081669529
0.0078411442
0.0075262078
0.0072218511
0.0069277797
0.0066436981
0.0063693105
0.0061043214
0.0058484362
0.0056013624
0.0053628095
0.0051324899
0.0049101194
0.0046954177
0.004488109
0.0042879221
0.0040945912
0.003907856
0.0037274622
0.0035531614
0.0033847117
0.0032218772
0.0030644283
0.0029121408
0.0027647957
0.002622178
0.0024840756
0.0023502778
0.0022205739
0.0020947511
0.0019725931
0.0018538789
0.0017383828
0.0016258752
0.0015161265
0.0014089139
0.0013040331
0.0012013167
0.0011006619
0.0010020686
0.00090569162
0.00081190585
0.0007213828
0.00063516807
0.00055474248
0.00048203819
0.00041937422
0.00036927932
0.0003341924
0.00031609898
0.0087374672
0.0083902826
0.0080546249
0.0077301971
0.0074166963
0.0071138178
0.0068212556
0.0065387036
0.006265856
0.0060024082
0.0057480573
0.0055025029
0.0052654475
0.0050365974
0.0048156625
0.0046023576
0.0043964024
0.0041975221
0.0040054475
0.0038199156
0.0036406698
0.0034674597
0.0033000416
0.0031381779
0.0029816368
0.002830192
0.0026836212
0.0025417056
0.0024042281
0.0022709719
0.0021417186
0.0020162468
0.0018943312
0.0017757416
0.0016602446
0.0015476064
0.0014375989
0.0013300109
0.0012246644
0.0011214411
0.0010203189
0.00092142284
0.00082509256
0.00073196327
0.00064305473
0.00055985054
0.00048433785
0.00041896459
0.00036646873
0.00032955463
0.00031046748
0.0089583368
0.0086014512
0.0082564445
0.0079230098
0.0076008339
0.0072896022
0.0069889988
0.0066987075
0.0064184125
0.0061477994
0.0058865556
0.005634371
0.0053909386
0.0051559552
0.0049291218
0.0047101439
0.0044987323
0.0042946037
0.0040974802
0.0039070907
0.0037231702
0.0035454607
0.0033737104
0.0032076743
0.0030471133
0.0028917939
0.002741487
0.0025959674
0.0024550116
0.0023183973
0.0021859007
0.0020572959
0.0019323532
0.0018108389
0.0016925161
0.0015771473
0.0014645001
0.0013543566
0.001246529
0.0011408836
0.0010373751
0.00093609662
0.00083734667
0.00074171454
0.0006501801
0.00056421301
0.00048584122
0.00041763927
0.00036257512
0.00032366562
0.00030347781
0.0091669854
0.0088008997
0.0084470289
0.0081050567
0.0077746601
0.0074555147
0.0071472951
0.0068496754
0.0065623303
0.0062849357
0.0060171698
0.0057587131
0.0055092497
0.0052684671
0.0050360575
0.0048117178
0.0045951504
0.0043860632
0.0041841707
0.0039891933
0.0038008585
0.0036189005
0.0034430602
0.0032730852
0.0031087294
0.0029497524
0.0027959187
0.0026469966
0.0025027572
0.0023629723
0.0022274134
0.0020958503
0.0019680494
0.0018437739
0.0017227837
0.0016048385
0.0014897017
0.0013771499
0.001266986
0.0011590611
0.0010533069
0.0009497822
0.00084873958
0.00075071297
0.00065662714
0.00056791767
0.0004866333
0.00041546698
0.00035763462
0.00031652098
0.00029509625
0.0093638738
0.0089890733
0.0086268084
0.0082767533
0.0079385758
0.0076119419
0.007296517
0.0069919658
0.0066979539
0.0064141482
0.0061402177
0.0058758342
0.0056206728
0.0053744126
0.0051367372
0.0049073352
0.0046859007
0.0044721338
0.0042657409
0.0040664351
0.0038739361
0.0036879708
0.0035082731
0.0033345835
0.0031666491
0.0030042232
0.0028470638
0.0026949335
0.0025475975
0.0024048227
0.002266376
0.0021320231
0.002001527
0.0018746478
0.0017511433
0.0016307701
0.0015132888
0.0013984708
0.0012861106
0.0011760451
0.0010681828
0.00096254769
0.00085934228
0.00075903654
0.00066248454
0.00057106449
0.00048681909
0.00041254138
0.00035170761
0.00030813299
0.00028529732
0.0095494637
0.0091664184
0.0087962141
0.008438516
0.0080929825
0.0077592708
0.0074370371
0.0071259375
0.0068256285
0.0065357685
0.0062560178
0.0059860397
0.005725501
0.0054740724
0.0052314294
0.0049972528
0.0047712287
0.0045530497
0.0043424146
0.0041390291
0.0039426058
0.0037528647
0.0035695326
0.0033923436
0.0032210383
0.0030553636
0.0028950716
0.0027399193
0.0025896665
0.0024440754
0.0023029086
0.0021659278
0.0020328932
0.0019035622
0.0017776902
0.0016550322
0.0015353458
0.0014183983
0.0013039768
0.0011919049
0.0010820692
0.00097445844
0.00086922304
0.00076676179
0.00066784282
0.00057376119
0.00048651894
0.00040897792
0.00034487505
0.00029852285
0.00027405063
0.0097242153
0.0093333794
0.008955675
0.0085907587
0.0082382797
0.0078978863
0.0075692262
0.007251947
0.0069456969
0.006650126
0.0063648863
0.0060896331
0.005824025
0.0055677251
0.005320401
0.0050817259
0.0048513784
0.0046290439
0.0044144139
0.0042071872
0.0040070697
0.0038137744
0.0036270217
0.0034465394
0.0032720619
0.0031033301
0.0029400906
0.0027820948
0.0026290976
0.0024808567
0.0023371305
0.0021976773
0.0020622545
0.0019306172
0.0018025191
0.0016777133
0.0015559555
0.0014370096
0.0013206562
0.0012067073
0.0010950289
0.00098557569
0.00087844539
0.00077396057
0.00067278987
0.00057611818
0.00048586435
0.00040491115
0.00033723586
0.00028771281
0.0002613045
0.0098885852
0.009490397
0.0091056168
0.0087338919
0.0083748628
0.0080281692
0.0076934507
0.0073703467
0.0070584978
0.0067575458
0.0064671353
0.0061869136
0.0059165319
0.0056556456
0.005403915
0.005161006
0.0049265902
0.004700346
0.0044819581
0.0042711185
0.0040675267
0.0038708893
0.0036809206
0.0034973422
0.0033198826
0.0031482772
0.0029822671
0.0028215986
0.0026660221
0.0025152906
0.002369159
0.0022273824
0.0020897153
0.0019559112
0.001825722
0.0016988997
0.0015751985
0.0014543794
0.001336218
0.001220516
0.0011071209
0.00099595563
0.00088706641
0.00078069735
0.00067740697
0.00057824364
0.00048499408
0.00040049399
0.00032890858
0.00027572196
0.00024696784
0.010043024
0.0096379066
0.0092464593
0.0088683207
0.0085031219
0.0081504948
0.0078100712
0.0074814833
0.0071643639
0.0068583475
0.0065630712
0.0062781751
0.0060033031
0.0057381033
0.0054822292
0.0052353397
0.0049970998
0.0047671809
0.0045452616
0.0043310275
0.0041241717
0.003924395
0.0037314056
0.0035449194
0.0033646595
0.0031903557
0.0030217442
0.0028585663
0.002700568
0.0025474982
0.0023991084
0.0022551507
0.0021153772
0.0019795395
0.0018473885
0.001718675
0.0015931524
0.0014705796
0.001350728
0.0012333909
0.0011183998
0.0010056489
0.00089513587
0.00078702731
0.00068176531
0.00058023895
0.00048405063
0.00039589918
0.00032003924
0.00026256863
0.00023088878
0.010187975
0.0097763364
0.0093786165
0.0089944436
0.0086234405
0.0082652316
0.0079194419
0.0075856965
0.0072636213
0.0069528438
0.006652994
0.0063637049
0.0060846137
0.0058153617
0.0055555956
0.0053049678
0.0050631369
0.0048297681
0.0046045338
0.0043871136
0.0041771946
0.003974472
0.0037786485
0.0035894343
0.0034065474
0.0032297125
0.0030586608
0.0028931294
0.0027328597
0.0025775972
0.0024270897
0.0022810867
0.0021393383
0.0020015943
0.0018676046
0.0017371196
0.0016098917
0.0014856787
0.0013642488
0.0012453886
0.0011289161
0.0010147006
0.00090269596
0.00079299523
0.00068592329
0.00058219396
0.00048317525
0.00039132192
0.00031081672
0.00024828327
0.00021282588
0.01032387
0.0099061078
0.0095024959
0.0091126522
0.0087361944
0.0083727403
0.0080219088
0.0076833184
0.0073565885
0.00704134
0.006737196
0.0064437831
0.0061607317
0.005887677
0.0056242591
0.0053701244
0.0051249252
0.0048883209
0.004659978
0.0044395705
0.0042267799
0.0040212959
0.0038228159
0.0036310451
0.0034456963
0.0032664897
0.0030931517
0.0029254151
0.0027630175
0.0026057008
0.0024532096
0.002305291
0.0021616929
0.0020221639
0.0018864531
0.0017543102
0.0016254876
0.0014997421
0.0013768398
0.0012565622
0.0011387164
0.0010231509
0.00090978166
0.00079863527
0.00068992463
0.00058418243
0.00048250288
0.00038698128
0.00030149619
0.0002329401
0.00019240321
0.010451127
0.010027643
0.0096184982
0.0092233303
0.0088417509
0.0084733728
0.0081178091
0.0077746723
0.0074435754
0.0071241328
0.0068159615
0.0065186817
0.0062319176
0.0059552981
0.0056884577
0.0054310365
0.0051826814
0.0049430459
0.0047117912
0.0044885857
0.0042731058
0.0040650361
0.0038640688
0.0036699045
0.0034822513
0.0033008245
0.0031253467
0.0029555463
0.0027911573
0.0026319183
0.002477571
0.0023278601
0.0021825317
0.0020413332
0.0019040128
0.0017703203
0.0016400078
0.0015128318
0.0013885571
0.0012669615
0.0011478437
0.0010310356
0.00091642159
0.00080397146
0.00069379717
0.00058625691
0.00048215168
0.00038311557
0.00029242935
0.00021672319
0.00016903721
0.010141344
0.0097270175
0.0093268521
0.0089404673
0.008567471
0.0082074705
0.0078600721
0.0075248826
0.0072015104
0.0068895663
0.0065886645
0.0062984234
0.0060184662
0.0057484214
0.0054879239
0.005236615
0.0049941429
0.0047601635
0.0045343402
0.0043163446
0.0041058562
0.0039025627
0.00370616
0.0035163517
0.0033328492
0.0031553706
0.0029836408
0.0028173903
0.0026563544
0.0025002723
0.0023488864
0.0022019411
0.0020591828
0.0019203591
0.0017852196
0.0016535165
0.0015250066
0.0013994537
0.0012766332
0.0011563378
0.0010383866
0.00092263922
0.00080901907
0.00069755312
0.00058844438
0.00048220999
0.00037996596
0.00028409473
0.00020006991
0.00014180127
0.010247654
0.0098284344
0.0094235781
0.0090326889
0.0086553662
0.0082912106
0.0079398221
0.0076008016
0.0072737515
0.006958277
0.0066539866
0.006360493
0.0060774139
0.0058043726
0.0055409986
0.0052869281
0.0050418044
0.0048052783
0.0045770086
0.0043566621
0.0041439138
0.003938447
0.0037399531
0.0035481319
0.0033626904
0.0031833433
0.0030098118
0.002841823
0.0026791093
0.0025214077
0.0023684581
0.0022200037
0.0020757898
0.0019355634
0.0017990743
0.0016660748
0.0015363221
0.0014095797
0.0012856216
0.0011642362
0.0010452334
0.00092845424
0.00081378659
0.00070119068
0.0005907437
0.00048271937
0.0003777378
0.00027710357
0.00018395435
0.00010918378
0.010346898
0.0099231016
0.0095138538
0.0091187489
0.0087373783
0.0083693359
0.0080142159
0.0076716135
0.0073411253
0.0070223511
0.006714894
0.0064183613
0.0061323657
0.0058565254
0.0055904648
0.0053338154
0.0050862157
0.004847312
0.0046167584
0.0043942175
0.00417936
0.0039718649
0.0037714198
0.0035777203
0.0033904699
0.0032093797
0.0030341674
0.0028645572
0.0027002789
0.0025410669
0.0023866594
0.0022367981
0.0020912272
0.0019496937
0.0018119471
0.0016777403
0.0015468307
0.0014189823
0.0012939681
0.001171574
0.0010516033
0.000933884
0.00081827821
0.00070469759
0.00059312716
0.00048366072
0.00037653884
0.00027212068
0.00017047211
6.8631338e-05
0.010439434
0.010011365
0.0095980136
0.0091989688
0.0088138158
0.0084421423
0.008083537
0.0077375895
0.0074038912
0.0070820366
0.0067716236
0.0064722547
0.0061835376
0.0059050857
0.0056365188
0.0053774638
0.0051275549
0.0048864338
0.0046537507
0.0044291638
0.0042123398
0.0040029541
0.0038006902
0.0036052401
0.003416304
0.0032335894
0.0030568111
0.0028856904
0.0027199545
0.0025593356
0.0024035703
0.0022523987
0.0021055646
0.0019628142
0.0018238973
0.0016885673
0.001556582
0.001427706
0.001301712
0.0011783844
0.0010575223
0.0009389447
0.00082249633
0.00070805597
0.00059554757
0.00048495178
0.00037629852
0.00026954783
0.00016407136
5.7640999e-05
0.010525617
0.010093561
0.0096763804
0.0092736589
0.0088849761
0.0085099148
0.0081480581
0.0077989905
0.0074622986
0.0071375717
0.006824403
0.0065223904
0.0062311367
0.0059502511
0.005679349
0.0054180528
0.0051659925
0.0049228061
0.0046881395
0.0044616472
0.0042429921
0.0040318459
0.0038278887
0.003630809
0.0034403037
0.0032560772
0.0030778414
0.0029053151
0.002738223
0.0025762952
0.0024192667
0.0022668766
0.0021188676
0.0019749858
0.0018349811
0.0016986072
0.0015656228
0.0014357929
0.0013088904
0.001184699
0.0010630152
0.00094365232
0.00082644376
0.00071124754
0.00059795044
0.00048646912
0.00037673392
0.00026859762
0.00016152148
5.4475813e-05
0.010605787
0.010170016
0.009749266
0.0093431175
0.0089511453
0.008572927
0.0082080411
0.0078560671
0.0075165869
0.0071891852
0.0068734507
0.0065689767
0.006275362
0.0059922111
0.0057191356
0.0054557538
0.005201692
0.004956584
0.0047200722
0.0044918076
0.0042714494
0.004058666
0.0038531341
0.0036545392
0.0034625749
0.0032769429
0.0030973524
0.0029235196
0.0027551671
0.0025920231
0.002433821
0.0022802988
0.0021311985
0.0019862661
0.0018452514
0.0017079086
0.0015739971
0.0014432825
0.0013155383
0.0011905478
0.0010681062
0.00094802313
0.00083012512
0.00071425777
0.00060028695
0.00048809672
0.0003775762
0.00026856749
0.00016071295
5.3558071e-05
0.010680273
0.010241042
0.00981697
0.0094076316
0.0090125978
0.0086314417
0.0082637372
0.0079090594
0.0075669857
0.0072370963
0.0069189758
0.0066122133
0.0063164034
0.0060311469
0.0057560513
0.0054907313
0.0052348093
0.0049879158
0.0047496898
0.0045197785
0.0042978383
0.0040835342
0.0038765398
0.0036765377
0.0034832186
0.0032962817
0.0031154334
0.0029403878
0.0027708654
0.0026065926
0.0024473015
0.002292729
0.0021426164
0.0019967094
0.0018547581
0.0017165171
0.0015817463
0.0014502122
0.0013216888
0.0011959594
0.0010728186
0.00095207385
0.00083354753
0.00071707794
0.00060251956
0.00048974071
0.00037861501
0.00026899513
0.00016064598
5.3338858e-05
0.010749389
0.010306942
0.0098797799
0.0094674762
0.0090695967
0.0086857105
0.0083153871
0.0079581974
0.0076137144
0.0072815146
0.0069611783
0.0066522907
0.0063544428
0.0060672315
0.0057902607
0.0055231417
0.0052654935
0.0050169431
0.0047771263
0.0045456874
0.0043222795
0.0041065646
0.0038982137
0.0036969064
0.0035023309
0.0033141838
0.0031321694
0.0029559994
0.0027853924
0.0026200734
0.0024597731
0.0023042273
0.0021531768
0.0020063672
0.0018635484
0.0017244757
0.0015889095
0.0014566171
0.0013273729
0.0012009608
0.0010771749
0.00095582155
0.00083672051
0.00071970577
0.00060462551
0.00049134032
0.00037971822
0.00026962202
0.00016088187
5.3351117e-05
0.010813436
0.010368001
0.009937971
0.0095229146
0.009122394
0.0087359742
0.0083632208
0.0080037007
0.007656983
0.0073226403
0.0070002491
0.0066893911
0.0063896535
0.0061006301
0.0058219211
0.0055531347
0.0052938865
0.0050438007
0.0048025099
0.0045696554
0.0043448876
0.0041278658
0.0039182583
0.0037157421
0.003520003
0.0033307352
0.0031476409
0.0029704298
0.0027988189
0.0026325316
0.0024712971
0.0023148507
0.0021629325
0.0020152878
0.0018716668
0.0017318249
0.0015955234
0.00146253
0.00133262
0.0012055775
0.0010811968
0.00095928334
0.00083965535
0.00072214412
0.0006065941
0.00049286175
0.00038081268
0.00027031564
0.00016123156
5.3441866e-05
0.010872702
0.010424496
0.0099918064
0.0095741983
0.00917123
0.0087824626
0.008407458
0.0080457792
0.0076969917
0.0073606644
0.0070363704
0.0067236879
0.006422201
0.0061315
0.0058511821
0.0055808524
0.0053201236
0.0050686168
0.004825962
0.0045917978
0.004365772
0.0041475411
0.0039367711
0.0037331368
0.0035363215
0.0033460173
0.0031619245
0.002983751
0.0028112119
0.0026440294
0.0024819318
0.0023246531
0.0021719332
0.0020235171
0.0018791551
0.001738603
0.0016016226
0.0014679822
0.0013374578
0.0012098339
0.001084905
0.00096247608
0.00084236433
0.00072439923
0.00060842279
0.00049428883
0.00038186134
0.00027101159
0.00016161354
5.3557061e-05
0.010927462
0.010476689
0.010041537
0.0096215676
0.0092163344
0.0088253952
0.0084483083
0.0080846329
0.0077339313
0.0073957689
0.0070697156
0.0067553466
0.0064522426
0.006159991
0.0058781862
0.0056064303
0.0053443332
0.0050915136
0.0048475986
0.0046122244
0.0043850362
0.0041656886
0.0039538449
0.0037491778
0.0035513686
0.0033601075
0.0031750928
0.0029960306
0.0028226349
0.0026546262
0.0024917319
0.0023336854
0.0021802259
0.0020310982
0.0018860528
0.0017448458
0.0016072394
0.0014730027
0.0013419122
0.0012137528
0.0010883191
0.00096541611
0.00084486012
0.00072647932
0.00061011392
0.00049561574
0.00038284725
0.00027168002
0.00016199268
5.3676396e-05
0.010977977
0.010524831
0.010087403
0.0096652513
0.0092579259
0.008864981
0.0084859711
0.0081204523
0.0077679835
0.0074281271
0.0071004499
0.0067845242
0.0064799279
0.0061862456
0.0059030688
0.005629997
0.0053666376
0.0051126068
0.0048675293
0.004631039
0.0044027789
0.0041824012
0.0039695673
0.0037639479
0.0035652223
0.0033730789
0.0031872143
0.0030073331
0.0028331478
0.0026643778
0.0025007495
0.0023419955
0.0021878548
0.0020380718
0.0018923971
0.0017505872
0.0016124046
0.0014776191
0.0013460076
0.0012173556
0.0010914578
0.00096811913
0.00084715533
0.00072839355
0.00061167253
0.0004968424
0.00038376402
0.00027230811
0.00016235408
5.3791958e-05
0.011024496
0.01056916
0.010129632
0.0097054673
0.0092962129
0.0089014189
0.0085206365
0.0081534186
0.0077993211
0.0074579036
0.0071287302
0.0068113703
0.0065053992
0.0062103989
0.0059259584
0.0056516746
0.0053871527
0.0051320065
0.0048858584
0.0046483403
0.0044190932
0.0041977671
0.0039840216
0.0037775255
0.0035779564
0.0033850009
0.0031983541
0.0030177193
0.0028428075
0.0026733371
0.0025090336
0.002349629
0.0021948618
0.0020444763
0.0018982231
0.001755859
0.0016171469
0.0014818571
0.001349767
0.0012206625
0.0010943386
0.00097060009
0.00084926226
0.00073015141
0.00061310505
0.00049797173
0.0003846107
0.00027289124
0.00016269189
5.3900691e-05
0.011067258
0.010609902
0.01016844
0.0097424229
0.0093313934
0.0089348981
0.008552485
0.008183704
0.0078281083
0.0074852549
0.0071547054
0.0068360267
0.0065287915
0.0062325793
0.005946977
0.005671579
0.0054059885
0.0051498169
0.0049026848
0.004664222
0.0044340676
0.0042118699
0.0039972867
0.0037899849
0.0035896407
0.0033959391
0.0032085738
0.0030272466
0.0028516675
0.0026815539
0.0025166305
0.0023566286
0.0022012863
0.0020503479