/*--------------------------------*- C++ -*----------------------------------*\
| =========                 |                                                 |
| \\      /  F ield         | OpenFOAM: The Open Source CFD Toolbox           |
|  \\    /   O peration     | Version:  2312                                  |
|   \\  /    A nd           | Website:  www.openfoam.com                      |
|    \\/     M anipulation  |                                                 |
\*---------------------------------------------------------------------------*/
FoamFile
{
    version     2.0;
    format      ascii;
    arch        "LSB;label=32;scalar=64";
    class       volScalarField;
    location    "0.07";
    object      CO2;
}
// * * * * * * * * * * * * * * * * * * * * * * * * * * * * * * * * * * * * * //

dimensions      [0 0 0 0 0 0 0];

internalField   nonuniform List<scalar> 
3257
(
0.00066396787
0.00063145069
0.00060130348
0.00057319925
0.00054692582
0.00052235597
0.00049957556
0.00047942762
0.00046568472
0.00047373778
0.00056544217
0.00062672296
0.00066353652
0.00070226106
0.00073597213
0.00076271472
0.00078609649
0.00080641581
0.00082292026
0.0008356847
0.00084549878
0.0008529476
0.00085812387
0.00086083346
0.00086085327
0.00085806434
0.00085247026
0.00084416729
0.00083329662
0.00082002108
0.00080449499
0.00078685134
0.0007671945
0.00074559875
0.00072211248
0.00069676889
0.0006696028
0.00064067299
0.00061008822
0.00057803453
0.00054480068
0.00051079855
0.0004765751
0.00044281294
0.00041031681
0.00037998474
0.00035276384
0.00032959321
0.00031133862
0.00029872569
0.00029227961
0.001833209
0.0017554765
0.0016816547
0.0016114103
0.0015444997
0.0014807415
0.0014200712
0.0013627284
0.0013097475
0.0012639345
0.0012301013
0.0012013232
0.0011748542
0.0011532704
0.0011345423
0.001117317
0.001101907
0.0010878027
0.0010742013
0.0010607161
0.0010473555
0.0010340878
0.001020662
0.0010066948
0.00099181417
0.0009757421
0.00095831152
0.00093944593
0.00091912872
0.00089737618
0.00087421639
0.00084967446
0.00082376354
0.00079648123
0.0007678117
0.00073773423
0.00070623805
0.00067334298
0.00063912414
0.00060373847
0.00056745011
0.00053065123
0.00049387495
0.00045779677
0.0004232218
0.00039105585
0.00036226038
0.00033779361
0.0003185426
0.00030525351
0.00029846848
0.0026580002
0.0025642912
0.0024733002
0.0023849575
0.0022992165
0.0022160438
0.0021354347
0.0020574579
0.0019823353
0.0019105174
0.0018425889
0.0017782726
0.0017173471
0.0016600964
0.0016061926
0.0015553168
0.0015073768
0.0014620881
0.0014190722
0.0013780589
0.0013388896
0.001301376
0.0012652325
0.0012301092
0.001195658
0.001161579
0.0011276361
0.0010936523
0.0010594959
0.0010250654
0.00099027635
0.00095505036
0.00091930813
0.00088296586
0.00084593691
0.00080813904
0.00076950784
0.00073001586
0.00068969632
0.00064866927
0.00060716758
0.00056555919
0.00052436194
0.00048424708
0.00044602783
0.00041063062
0.0003790485
0.00035227885
0.00033125059
0.00031674901
0.00030934918
0.0032183793
0.0031208171
0.0030248136
0.0029304144
0.0028376644
0.0027466085
0.0026572946
0.0025697825
0.002484158
0.0024005377
0.0023190591
0.0022398015
0.0021628389
0.0020882778
0.0020161363
0.00194641
0.0018790991
0.0018141461
0.0017514555
0.0016909411
0.0016325248
0.0015760963
0.0015214923
0.0014685085
0.0014169265
0.0013665367
0.0013171497
0.0012685989
0.0012207374
0.0011734323
0.0011265587
0.0010799944
0.0010336156
0.00098729612
0.00094090941
0.00089433648
0.00084747891
0.00080027759
0.00075273642
0.00070494908
0.00065712661
0.00060962213
0.00056294876
0.00051778603
0.00047497051
0.00043546738
0.00040032193
0.00037059273
0.00034727227
0.00033120387
0.00032300798
0.0036422814
0.0035408343
0.0034405915
0.0033415965
0.0032438887
0.0031475074
0.0030524932
0.0029588889
0.0028667415
0.0027761025
0.0026870278
0.0025995714
0.0025137887
0.0024297365
0.0023474593
0.002266994
0.0021883708
0.0021116037
0.0020366934
0.0019636356
0.0018924171
0.0018230039
0.0017553333
0.0016893172
0.0016248507
0.0015618213
0.0015001149
0.0014396187
0.0013802207
0.0013218089
0.0012642684
0.0012074793
0.0011513154
0.0010956443
0.0010403316
0.00098524881
0.00093028683
0.00087537507
0.00082050567
0.00076576166
0.00071134691
0.00065761404
0.00060508606
0.00055446641
0.00050663211
0.00046260583
0.00042350511
0.00039047034
0.00036457729
0.00034674454
0.00033765052
0.0040130133
0.0039044309
0.0037971979
0.0036913324
0.0035868471
0.0034837551
0.0033820704
0.0032818081
0.0031829845
0.0030856163
0.0029897215
0.0028953179
0.0028024243
0.0027110596
0.0026212414
0.0025329861
0.0024463084
0.0023612203
0.0022777307
0.0021958464
0.0021155698
0.0020368935
0.0019597975
0.0018842485
0.0018102016
0.0017376027
0.0016663905
0.001596497
0.0015278478
0.0014603606
0.0013939444
0.0013284977
0.0012639083
0.0012000545
0.0011368095
0.00107405
0.0010116699
0.00094959958
0.00088783109
0.00082644815
0.00076565854
0.00070582566
0.0006474942
0.00059140416
0.00053848677
0.00048983728
0.00044666169
0.00041019886
0.00038162403
0.00036194518
0.00035190938
0.0043676064
0.0042493019
0.0041326554
0.0040176688
0.0039043382
0.0037926582
0.0036826232
0.0035742273
0.0034674643
0.0033623277
0.0032588102
0.0031569041
0.0030566015
0.0029578938
0.0028607724
0.0027652287
0.0026712545
0.0025788416
0.0024879827
0.0023986709
0.0023108985
0.0022246555
0.0021399274
0.0020566944
0.0019749308
0.0018946049
0.0018156785
0.0017381065
0.0016618358
0.0015868037
0.0015129362
0.0014401472
0.0013683377
0.0012973973
0.0012272087
0.001157656
0.0010886391
0.0010200924
0.00095201204
0.00088448649
0.00081773225
0.00075212876
0.00068824844
0.00062687475
0.00056900123
0.00051580514
0.00046859179
0.0004287103
0.00039744729
0.000375911
0.0003649256
0.0047173432
0.0045880014
0.0044606342
0.0043352377
0.0042118021
0.0040903142
0.0039707591
0.0038531198
0.0037373778
0.0036235128
0.0035115032
0.0034013256
0.0032929555
0.0031863674
0.0030815351
0.002978432
0.0028770319
0.0027773089
0.0026792384
0.0025827967
0.0024879612
0.0023947096
0.002303019
0.002212865
0.0021242212
0.0020370579
0.0019513411
0.0018670316
0.0017840825
0.001702438
0.0016220313
0.0015427827
0.0014645993
0.0013873765
0.0013110016
0.0012353627
0.0011603625
0.0010859376
0.0010120864
0.00093890136
0.00086660726
0.00079559975
0.0007264796
0.0006600752
0.00059744504
0.00053985251
0.000488708
0.0004454783
0.00041156971
0.00038819882
0.00037627354
0.0050628991
0.0049221184
0.0047835928
0.004647318
0.0045132841
0.0043814768
0.004251878
0.0041244666
0.0039992187
0.0038761074
0.0037551036
0.0036361758
0.0035192905
0.0034044124
0.003291505
0.003180531
0.0030714524
0.0029642315
0.002858831
0.0027552148
0.0026533475
0.002553195
0.0024547237
0.0023579003
0.0022626908
0.00216906
0.0020769696
0.0019863773
0.0018972345
0.0018094841
0.0017230584
0.0016378775
0.0015538485
0.0014708664
0.001388818
0.0013075906
0.0012270852
0.0011472372
0.0010680434
0.00098959725
0.00091212855
0.00083604615
0.00076197633
0.00069079007
0.00062360939
0.00056178398
0.00050683155
0.00046034082
0.00042384366
0.00039867141
0.00038582139
0.0054017929
0.00524968
0.0051000644
0.0049529438
0.0048083105
0.0046661513
0.0045264485
0.0043891802
0.0042543206
0.0041218403
0.0039917067
0.0038638844
0.0037383352
0.0036150188
0.003493893
0.0033749142
0.0032580377
0.0031432183
0.0030304109
0.0029195709
0.0028106542
0.0027036177
0.0025984192
0.0024950169
0.0023933693
0.0022934337
0.0021951657
0.0020985169
0.0020034333
0.0019098532
0.0018177045
0.0017269032
0.0016373524
0.0015489431
0.0014615584
0.001375081
0.0012894073
0.0012044676
0.0011202541
0.0010368575
0.00095450866
0.00087362532
0.00079485461
0.00071910551
0.00064755981
0.00058165128
0.000523005
0.00047333429
0.0004343014
0.00040735834
0.00039359735
0.0057313155
0.0055682215
0.0054078371
0.0052501628
0.0050951934
0.004942918
0.0047933202
0.0046463785
0.0045020669
0.0043603553
0.0042212097
0.0040845927
0.003950464
0.0038187803
0.0036894964
0.0035625649
0.0034379372
0.0033155636
0.0031953942
0.0030773788
0.0029614676
0.0028476114
0.0027357616
0.0026258702
0.0025178891
0.0024117694
0.0023074605
0.002204908
0.0021040523
0.0020048258
0.0019071511
0.0018109388
0.0017160865
0.00162248
0.0015299965
0.0014385128
0.0013479187
0.0012581373
0.001169154
0.0010810532
0.00099406354
0.00090860663
0.00082534518
0.0007452206
0.0006694694
0.00059960597
0.00053736184
0.00048457707
0.00044304916
0.00041435718
0.00039969446
0.0060494157
0.0058757921
0.0057050693
0.0055372501
0.0053723321
0.0052103066
0.0050511586
0.0048948675
0.0047414077
0.0045907488
0.0044428564
0.0042976921
0.0041552142
0.0040153778
0.0038781357
0.0037434381
0.0036112339
0.0034814706
0.0033540947
0.0032290526
0.0031062905
0.0029857549
0.0028673928
0.0027511513
0.0026369775
0.0025248175
0.0024146155
0.002306312
0.002199842
0.0020951328
0.0019921016
0.0018906538
0.0017906816
0.0016920652
0.0015946759
0.0014983841
0.0014030723
0.0013086556
0.0012151108
0.0011225141
0.001031088
0.00094125391
0.00085368444
0.00076934738
0.00068952827
0.00061581805
0.00055005346
0.0004942036
0.00045020693
0.00041977721
0.00040421624
0.0063548026
0.0061711306
0.0059905351
0.0058130215
0.0056385899
0.0054672333
0.0052989382
0.0051336848
0.004971448
0.0048121974
0.0046558982
0.0045025114
0.0043519941
0.0042043005
0.0040593815
0.003917186
0.0037776607
0.0036407507
0.0035064004
0.0033745532
0.0032451525
0.0031181417
0.0029934641
0.0028710633
0.0027508826
0.0026328639
0.0025169473
0.002403069
0.0022911596
0.0021811417
0.0020729282
0.0019664195
0.0018615032
0.0017580544
0.0016559391
0.0015550215
0.0014551772
0.0013563128
0.0012583958
0.0011614925
0.0010658164
0.00097178422
0.00088007305
0.00079167067
0.0007079055
0.00063044059
0.00056121656
0.00050233445
0.00045588061
0.00042371284
0.00040724983
0.0066468048
0.0064535624
0.0062635612
0.0060768089
0.0058933078
0.0057130526
0.0055360307
0.0053622233
0.0051916053
0.0050241465
0.0048598116
0.0046985609
0.0045403509
0.0043851344
0.004232861
0.004083478
0.0039369304
0.0037931614
0.0036521132
0.0035137269
0.0033779435
0.0032447035
0.0031139476
0.0029856163
0.0028596495
0.0027359859
0.002614562
0.0024953104
0.0023781578
0.0022630232
0.0021498152
0.0020384308
0.0019287532
0.0018206535
0.001713993
0.0016086306
0.0015044353
0.0014013058
0.0012991997
0.0011981718
0.0010984243
0.0010003651
0.00090467004
0.00081234012
0.00072474007
0.00064360005
0.00057096326
0.00050906629
0.00046015203
0.00042623326
0.00040885989
0.0069251907
0.00672284
0.0065238868
0.006328341
0.0061362067
0.0059474798
0.0057621488
0.0055801952
0.0054015944
0.0052263158
0.0050543237
0.0048855778
0.0047200334
0.0045576422
0.0043983526
0.0042421101
0.0040888582
0.0039385382
0.0037910901
0.0036464531
0.0035045657
0.003365366
0.0032287921
0.0030947817
0.0029632718
0.0028341983
0.0027074943
0.0025830891
0.0024609065
0.0023408619
0.0022228608
0.0021067969
0.0019925502
0.0018799883
0.0017689689
0.0016593462
0.0015509835
0.001443772
0.0013376591
0.0012326872
0.0011290447
0.0010271264
0.00092760105
0.00083147586
0.00074014439
0.00065539827
0.00057938162
0.00051447092
0.00046307619
0.00042738147
0.00040908027
0.0071900167
0.0069790006
0.0067715314
0.006567621
0.0063672749
0.0061704904
0.0059772566
0.0057875553
0.005601362
0.0054186456
0.0052393702
0.0050634943
0.0048909725
0.004721755
0.0045557889
0.0043930182
0.0042333844
0.004076827
0.0039232841
0.0037726926
0.0036249888
0.0034801084
0.003337987
0.0031985596
0.0030617606
0.0029275228
0.0027957766
0.0026664484
0.0025394588
0.0024147206
0.0022921365
0.0021715973
0.0020529805
0.0019361512
0.0018209639
0.0017072694
0.0015949259
0.0014838172
0.0013738808
0.0012651458
0.0011577841
0.0010521736
0.00094896962
0.00084917767
0.00075421174
0.00066591818
0.00058653984
0.00051859815
0.00046468314
0.00042716941
0.00040791241
0.0074415173
0.00722226
0.007006693
0.0067948297
0.0065866773
0.0063822338
0.0061814891
0.0059844252
0.0057910173
0.0056012341
0.0054150389
0.0052323895
0.0050532391
0.0048775368
0.0047052281
0.0045362554
0.0043705583
0.0042080745
0.00404874
0.0038924895
0.003739257
0.0035889759
0.0034415791
0.0032969991
0.0031551676
0.0030160146
0.0028794679
0.0027454509
0.0026138817
0.0024846704
0.0023577171
0.0022329107
0.0021101265
0.0019892276
0.0018700663
0.0017524905
0.0016363539
0.0015215339
0.0014079579
0.0012956406
0.0011847355
0.001075599
0.00096886669
0.00086553332
0.00076702356
0.00067523009
0.00059249127
0.00052147906
0.00046497953
0.00042558095
0.00040532756
0.0076800321
0.0074529409
0.0072296774
0.0070102568
0.0067946876
0.0065829687
0.0063750903
0.0061710346
0.0059707766
0.0057742846
0.005581521
0.0053924427
0.0052070018
0.005025146
0.0048468192
0.004671962
0.0045005123
0.0043324059
0.0041675765
0.0040059567
0.0038474781
0.0036920717
0.003539668
0.0033901968
0.0032435871
0.0030997664
0.0029586594
0.0028201872
0.0026842651
0.0025508009
0.0024196927
0.0022908273
0.0021640786
0.0020393082
0.0019163667
0.0017950999
0.001675358
0.001557012
0.0014399794
0.00132426
0.0012099864
0.0010974894
0.00098737755
0.00088062525
0.00077865612
0.00068339857
0.00059728117
0.0005231316
0.00046395273
0.00042257623
0.00040126897
0.0079059593
0.0076714261
0.0074408527
0.0072142555
0.0069916444
0.006773019
0.00655837
0.0063476796
0.0061409225
0.0059380665
0.0057390732
0.0055438985
0.0053524932
0.0051648036
0.0049807721
0.0048003376
0.004623436
0.0044500012
0.0042799647
0.0041132569
0.0039498071
0.0037895438
0.003632395
0.0034782879
0.0033271489
0.0031789026
0.0030334713
0.0028907733
0.0027507216
0.0026132218
0.00247817
0.0023454515
0.002214939
0.0020864929
0.0019599632
0.0018351938
0.0017120319
0.001590343
0.0014700348
0.0013510915
0.0012336229
0.0011179298
0.0010045864
0.00089453576
0.00078918685
0.00069049024
0.00060095678
0.00052357466
0.00046158468
0.00041810283
0.00039566297
0.008119728
0.0078781313
0.0076406206
0.0074072139
0.0071779222
0.006952746
0.0067316762
0.006514695
0.0063017767
0.0060928887
0.0058879918
0.0056870407
0.005489985
0.0052967697
0.0051073355
0.0049216196
0.0047395562
0.0045610768
0.004386111
0.004214587
0.0040464317
0.0038815712
0.0037199309
0.0035614354
0.0034060085
0.0032535721
0.0031040459
0.0029573458
0.0028133823
0.002672059
0.0025332703
0.0023969001
0.0022628204
0.0021308909
0.0020009611
0.0018728737
0.0017464737
0.0016216216
0.0014982156
0.0013762238
0.0012557316
0.0011370059
0.0010205789
0.00090735069
0.00079869972
0.00069658167
0.00060357747
0.00052283777
0.0004578663
0.00041211221
0.00038843566
0.0083217824
0.0080734878
0.0078293997
0.0075895378
0.0073539142
0.00712253
0.0068953764
0.0066724356
0.0064536818
0.0062390815
0.0060285948
0.0058221753
0.0056197716
0.005421327
0.0052267807
0.0050360682
0.0048491218
0.004665871
0.0044862435
0.004310165
0.0041375601
0.0039683526
0.0038024653
0.0036398203
0.0034803387
0.0033239399
0.0031705409
0.0030200552
0.0028723911
0.0027274502
0.0025851254
0.0024452996
0.002307844
0.0021726181
0.0020394713
0.001908246
0.0017787851
0.001650945
0.0015246147
0.0013997464
0.0012763998
0.0011548042
0.0010354431
0.00091916109
0.0008072886
0.00070176528
0.00060522435
0.0005209759
0.0004528123
0.00040457468
0.00037952725
0.0085125724
0.0082579332
0.0080076156
0.0077616405
0.0075200212
0.0072827596
0.0070498472
0.0068212661
0.0065969902
0.0063769854
0.006161211
0.0059496196
0.0057421584
0.0055387695
0.0053393905
0.0051439552
0.0049523939
0.0047646343
0.004580602
0.0044002205
0.0042234121
0.0040500982
0.0038801991
0.0037136344
0.0035503226
0.0033901806
0.0032331229
0.0030790605
0.0029278997
0.0027795402
0.0026338737
0.0024907818
0.0023501356
0.0022117947
0.0020756086
0.0019414196
0.0018090698
0.0016784115
0.0015493256
0.0014217487
0.0012957141
0.0011714112
0.0010492682
0.00093006246
0.00081505727
0.000706151
0.00060600398
0.0005180753
0.00044646831
0.00039548534
0.00036889629
0.0086925486
0.0084319062
0.0081756946
0.0079239363
0.0076766457
0.0074338255
0.0071954673
0.0069615535
0.0067320573
0.0065069442
0.0062861727
0.0060696944
0.0058574552
0.0056493958
0.0054454524
0.005245557
0.0050496383
0.004857622
0.0046694315
0.0044849884
0.0043042127
0.0041270233
0.0039533383
0.0037830746
0.0036161483
0.0034524738
0.0032919632
0.0031345252
0.002980064
0.0028284777
0.0026796566
0.0025334817
0.0023898238
0.0022485428
0.0021094888
0.0019725046
0.0018374317
0.0017041194
0.0015724412
0.0014423189
0.0013137597
0.0011869115
0.0010621426
0.00094015209
0.00082211648
0.00070986373
0.00060604767
0.00051425325
0.00043891029
0.00038486023
0.00035651174
0.0088621588
0.0085958427
0.0083340609
0.0080768374
0.0078241881
0.0075761161
0.0073326137
0.0070936629
0.0068592369
0.0066293004
0.0064038111
0.0061827196
0.0059659708
0.0057535039
0.0055452537
0.0053411505
0.0051411212
0.0049450899
0.0047529778
0.0045647045
0.0043801878
0.0041993444
0.0040220899
0.0038483389
0.0036780051
0.0035110003
0.0033472342
0.0031866137
0.0030290407
0.0028744118
0.0027226162
0.0025735343
0.0024270367
0.0022829841
0.0021412272
0.0020016099
0.0018639735
0.0017281652
0.0015940521
0.0014615424
0.0013306182
0.0012013861
0.001074151
0.0009495251
0.00082857893
0.00071303779
0.00060550562
0.00050965419
0.00043023982
0.00037272653
0.00034233653
0.0090218465
0.008750174
0.0084831337
0.0082207511
0.0079630437
0.0077100154
0.0074616586
0.0072179554
0.0069788786
0.0067443924
0.0065144535
0.0062890118
0.0060680108
0.0058513887
0.0056390785
0.0054310093
0.0052271062
0.0050272914
0.0048314844
0.0046396026
0.0044515617
0.0042672762
0.0040866595
0.0039096239
0.0037360806
0.0035659391
0.0033991071
0.0032354889
0.003074985
0.0029174904
0.0027628931
0.0026110731
0.0024619013
0.0023152387
0.0021709375
0.0020288425
0.0018887956
0.0017506428
0.0016142459
0.001479501
0.0013463671
0.0012149104
0.001085372
0.00095827055
0.00083455385
0.00071581065
0.00060454187
0.00050444614
0.00042058069
0.00035911259
0.00032630698
0.0091720492
0.0088953253
0.008623326
0.0083560783
0.0080936016
0.0078359006
0.007582968
0.0073347856
0.0070913259
0.0068525526
0.0066184215
0.0063888816
0.0061638754
0.0059433396
0.0057272062
0.0055154025
0.0053078521
0.0051044755
0.0049051903
0.004709912
0.0045185543
0.0043310296
0.004147249
0.0039671227
0.0037905594
0.0036174666
0.0034477497
0.0032813111
0.0031180494
0.0029578584
0.002800625
0.0026462289
0.0024945411
0.0023454237
0.00219873
0.0020543062
0.0019119954
0.0017716429
0.0016331066
0.0014962723
0.0013610784
0.0012275533
0.0010958758
0.00096646809
0.00084014194
0.00071831675
0.0006033292
0.00049881976
0.00041008095
0.00034404263
0.00030831008
0.0093131973
0.0090317145
0.008755043
0.0084832122
0.0082162432
0.0079541417
0.0076969003
0.0074445008
0.0071969151
0.0069541064
0.0067160297
0.006482633
0.0062538578
0.0060296398
0.0058099094
0.0055945927
0.0053836117
0.0051768852
0.0049743291
0.004775857
0.0045813807
0.0043908105
0.0042040555
0.0040210236
0.0038416215
0.0036657545
0.0034933258
0.0033242361
0.0031583823
0.0029956567
0.0028359457
0.0026791285
0.0025250764
0.0023736524
0.0022247113
0.0020781012
0.0019336662
0.0017912521
0.0016507139
0.0015119293
0.0013748187
0.0012393767
0.0011057233
0.00097418554
0.00084543113
0.00072068175
0.00060204477
0.00049299016
0.0003989226
0.00032753955
0.00028815681
0.0094457139
0.0091597509
0.0088786809
0.0086025366
0.0083313408
0.0080650997
0.0078038056
0.00754744
0.0072959743
0.007049371
0.0068075845
0.006570562
0.0063382439
0.0061105647
0.0058874538
0.0056688357
0.005454631
0.005244757
0.0050391279
0.0048376555
0.0046402497
0.004446819
0.0042572704
0.0040715097
0.0038894416
0.0037109693
0.0035359942
0.0033644151
0.0031961273
0.0030310219
0.0028689846
0.0027098943
0.0025536228
0.0024000339
0.0022489841
0.0021003232
0.0019538974
0.0018095529
0.0016671434
0.0015265403
0.0013876492
0.0012504354
0.0011149659
0.00098147762
0.00085049319
0.00072301669
0.00060086375
0.00048720004
0.00038734066
0.00030964095
0.00026554619
0.0095700146
0.0092798329
0.0089946244
0.0087144254
0.0084392572
0.0081691263
0.0079040246
0.007643933
0.0073888224
0.0071386549
0.0068933841
0.0066529563
0.0064173111
0.006186382
0.0059600969
0.0057383794
0.0055211485
0.0053083201
0.0050998066
0.0048955184
0.0046953636
0.0044992487
0.0043070788
0.0041187579
0.0039341886
0.0037532723
0.0035759083
0.0034019939
0.0032314229
0.0030640854
0.0028998661
0.002738644
0.0025802912
0.0024246726
0.0022716462
0.0021210639
0.0019727738
0.0018266236
0.0016824664
0.0015401692
0.001399626
0.0012607778
0.0011236458
0.00098838565
0.00085538139
0.00072541233
0.00059995327
0.00048172157
0.00037565254
0.00029043855
0.00024000917
0.0096865088
0.0093923406
0.0091032466
0.0088192408
0.0085403446
0.0082665632
0.0079978883
0.0077343001
0.0074757693
0.0072222574
0.0069737173
0.0067300948
0.0064913283
0.0062573505
0.0060280882
0.0058034637
0.0055833949
0.0053677959
0.005156578
0.0049496498
0.0047469177
0.0045482865
0.0043536595
0.0041629389
0.0039760253
0.0037928184
0.0036132157
0.0034371128
0.0032644024
0.0030949732
0.0029287096
0.0027654903
0.0026051879
0.0024476683
0.0022927911
0.0021404104
0.0019903764
0.0018425385
0.0016967502
0.0015528758
0.0014108006
0.0012704467
0.0011317973
0.00099493827
0.0008601292
0.00072793282
0.00059945919
0.00047685061
0.00036429582
0.00027016081
0.00021081732
0.0094976511
0.0092049057
0.0089173342
0.0086349446
0.0083577419
0.0080857174
0.0078188516
0.0075571148
0.0073004679
0.0070488637
0.0068022468
0.0065605552
0.0063237205
0.0060916685
0.0058643203
0.0056415925
0.0054233982
0.0052096469
0.0050002459
0.0047951
0.0045941123
0.0043971844
0.0042042166
0.0040151081
0.0038297565
0.0036480579
0.0034699064
0.0032951932
0.0031238062
0.0029556292
0.0027905408
0.0026284139
0.0024691158
0.0023125075
0.0021584451
0.0020067812
0.0018573674
0.001710058
0.001564716
0.0014212209
0.0012794803
0.001139448
0.0010011532
0.0008647505
0.0007306104
0.00059949006
0.00047288633
0.00035386638
0.00024935252
0.00017681406
0.0095960839
0.0092999516
0.0090090477
0.008723389
0.0084429832
0.0081678224
0.0078978875
0.0076331485
0.0073735663
0.0071190929
0.0068696725
0.0066252424
0.0063857331
0.0061510697
0.0059211721
0.0056959558
0.0054753325
0.0052592106
0.0050474957
0.0048400913
0.0046368989
0.0044378184
0.0042427487
0.004051587
0.0038642295
0.0036805707
0.0035005033
0.0033239173
0.0031506997
0.0029807337
0.0028138979
0.0026500657
0.0024891053
0.0023308795
0.0021752463
0.0020220606
0.0018711763
0.0017224493
0.0015757424
0.0014309314
0.0012879136
0.001146621
0.0010070396
0.00086924184
0.00073344234
0.00060009604
0.00047008283
0.00034512555
0.00022922984
0.00013611437
0.0096880381
0.0093887349
0.0090947149
0.008805999
0.0085225972
0.0082445028
0.0079716969
0.0077041497
0.0074418217
0.0071846647
0.0069326222
0.0066856308
0.0064436204
0.006206515
0.0059742336
0.0057466905
0.0055237963
0.0053054582
0.0050915804
0.004882065
0.004676812
0.0044757199
0.0042786859
0.0040856058
0.0038963741
0.0037108839
0.0035290266
0.0033506911
0.0031757636
0.0030041267
0.0028356591
0.0026702347
0.0025077224
0.0023479868
0.0021908878
0.0020362826
0.0018840275
0.0017339803
0.0015860043
0.0014399735
0.0012957787
0.0011533362
0.0010126013
0.00087358677
0.00073639298
0.00060125185
0.00046857213
0.00033890018
0.00021240975
8.554561e-05
0.0097738604
0.0094715897
0.0091746568
0.008883084
0.0085968826
0.008316047
0.0080405584
0.0077703871
0.0075054934
0.0072458288
0.0069913365
0.0067419522
0.0064976051
0.0062582185
0.0060237104
0.0057939941
0.005568979
0.0053485712
0.0051326737
0.0049211872
0.0047140104
0.0045110402
0.0043121725
0.0041173016
0.0039263206
0.0037391212
0.0035555935
0.0033756255
0.0031991026
0.003025907
0.0028559172
0.0026890075
0.0025250481
0.0023639047
0.0022054393
0.0020495114
0.0018959795
0.0017447036
0.0015955483
0.0014483869
0.0013031061
0.0011596124
0.0010178402
0.00087776193
0.00073940268
0.00060285412
0.00046826408
0.00033568493
0.00020442765
7.1839448e-05
0.0098538779
0.0095488346
0.0092491815
0.0089549415
0.0086661268
0.0083827322
0.0081047393
0.0078321185
0.00756483
0.007302825
0.007046046
0.0067944285
0.0065479008
0.0063063854
0.0060697996
0.0058380556
0.0056110619
0.0053887233
0.0051709418
0.0049576167
0.0047486456
0.004543924
0.0043433463
0.0041468055
0.0039541935
0.0037654007
0.0035803159
0.0033988263
0.0032208164
0.0030461681
0.0028747599
0.0027064665
0.0025411589
0.0023787043
0.0022189666
0.0020618073
0.0019070873
0.0017546688
0.0016044181
0.0014562085
0.001309925
0.0011654678
0.0010227582
0.00088174343
0.00074240288
0.00060474898
0.00046880671
0.0003344977
0.00020124929
6.7892289e-05
0.0099284045
0.0096207744
0.009318584
0.0090218566
0.0087306049
0.0084448242
0.0081644962
0.0078895914
0.00762007
0.0073558827
0.0070969719
0.0068432723
0.0065947118
0.0063512122
0.0061126897
0.0058790559
0.0056502181
0.0054260803
0.0052065433
0.0049915052
0.0047808623
0.0045745091
0.0043723386
0.0041742426
0.0039801115
0.0037898347
0.0036033001
0.0034203937
0.0032409994
0.0030649989
0.0028922705
0.0027226894
0.0025561274
0.002392453
0.0022315317
0.0020732273
0.0019174029
0.0017639227
0.0016126549
0.0014634739
0.0013162637
0.0011709212
0.0010273597
0.00088551198
0.00074533175
0.00060679142
0.00046986548
0.00033446444
0.00020024497
6.6748967e-05
0.0099977411
0.009687701
0.009383147
0.0090841025
0.0087905808
0.0085025775
0.0082200745
0.0079430424
0.0076714412
0.0074052216
0.0071443254
0.006888687
0.0066382336
0.0063928864
0.0061525608
0.0059171675
0.0056866132
0.0054608006
0.0052396295
0.0050229972
0.0048107986
0.0046029272
0.0043992746
0.0041997316
0.0040041874
0.0038125303
0.0036246471
0.003440423
0.0032597415
0.0030824836
0.0029085279
0.0027377497
0.0025700219
0.0024052139
0.002243193
0.0020838249
0.0019269748
0.0017725091
0.0016202978
0.0014702166
0.0013221495
0.0011759918
0.0010316523
0.00088905543
0.00074814133
0.00060886333
0.00047117732
0.00033500849
0.00020016848
6.6477905e-05
0.010062176
0.0097498937
0.0094431407
0.0091419403
0.0088463066
0.0085562354
0.0082717089
0.0079926976
0.0077191617
0.0074510514
0.0071883084
0.0069308666
0.0066786526
0.006431587
0.0061895846
0.0059525553
0.0057204048
0.005493035
0.0052703449
0.0050522305
0.0048385859
0.0046293033
0.0044242734
0.0042233857
0.0040265285
0.0038335888
0.0036444528
0.0034590048
0.0032771277
0.0030987022
0.0029236067
0.0027517172
0.002582907
0.0024170469
0.0022540056
0.0020936505
0.0019358488
0.0017804692
0.0016273833
0.0014764683
0.0013276088
0.0011806994
0.0010356465
0.00089236973
0.00075080206
0.00061088774
0.00047257626
0.00033580645
0.0002004726
6.6496517e-05
0.010121985
0.0098076194
0.0094988231
0.0091956195
0.0088980231
0.0086060302
0.0083196233
0.0080387729
0.0077634391
0.0074935722
0.0072291133
0.006969996
0.0067161465
0.0064674847
0.0062239247
0.0059853759
0.005751743
0.0055229273
0.0052988266
0.0050793362
0.0048643491
0.0046537565
0.0044474481
0.0042453123
0.0040472365
0.0038531068
0.0036628083
0.0034762248
0.0032932386
0.00311373
0.0029375776
0.0027646575
0.0025948438
0.0024280083
0.0022640211
0.0021027513
0.001944068
0.0017878416
0.0016339458
0.0014822591
0.001332667
0.0011850639
0.001039355
0.0008954573
0.00075329954
0.0006128214
0.00047396991
0.00033669202
0.00020092117
6.6613861e-05
0.01017743
0.0098611329
0.0095504406
0.0092453778
0.0089459599
0.0086521834
0.0083640312
0.008081474
0.0078044717
0.0075329745
0.0072669235
0.0070062516
0.0067508846
0.0065007419
0.006255737
0.0060157787
0.0057807709
0.005550614
0.0053252052
0.0051044388
0.0048882069
0.0046763998
0.0044689062
0.0042656136
0.0040664083
0.0038711757
0.0036798
0.0034921643
0.0033081505
0.0031276387
0.0029505073
0.0027766328
0.0026058899
0.0024381513
0.0022732884
0.002111172
0.0019516727
0.0017946628
0.0016400178
0.0014876174
0.0013373482
0.001189105
0.0010427921
0.00089832483
0.00075562958
0.00061464319
0.00047531114
0.00033758403
0.00020141211
6.6762391e-05
0.010228764
0.009910677
0.0095982278
0.009291442
0.0089903356
0.0086949059
0.0084051359
0.0081209966
0.007842448
0.00756944
0.0073019134
0.0070398009
0.0067830278
0.006531513
0.0062851696
0.0060439054
0.005807624
0.005576225
0.0053496047
0.0051276567
0.0049102722
0.0046973406
0.0044887497
0.0042843862
0.0040841354
0.003887882
0.0036955095
0.0035069003
0.0033219358
0.0031404958
0.0029624589
0.0027877017
0.0026160995
0.0024475259
0.0022818535
0.0021189544
0.0019587009
0.001800967
0.0016456296
0.00149257
0.0013416756
0.0011928417
0.0010459722
0.00090098156
0.00075779422
0.00061634505
0.00047657805
0.00033844463
0.00020190122
6.6916658e-05
0.010276226
0.009956483
0.0096424083
0.0093340277
0.0090313584
0.0087343982
0.0084431307
0.008157527
0.0078775471
0.0076031409
0.0073342488
0.0070708032
0.0068127291
0.0065599448
0.0063123629
0.0060698909
0.0058324314
0.0055998835
0.0053721428
0.0051491021
0.0049306518
0.0047166806
0.0045070753
0.0043017218
0.0041005048
0.003903308
0.0037100142
0.0035205055
0.0033346627
0.0031523653
0.002973492
0.0027979196
0.0026255239
0.0024561794
0.0022897596
0.002126138
0.0019651883
0.0018067862
0.0016508098
0.0014971419
0.0013456709
0.0011962923
0.0010489102
0.00090343799
0.00075979894
0.00061792616
0.00047776205
0.0003392573
0.00020236965
6.7066691e-05
0.010320043
0.0099987712
0.0096831947
0.0093733401
0.009069226
0.0087708511
0.0084781993
0.0081912421
0.0079099395
0.0076342411
0.0073640872
0.0070994098
0.0068401336
0.0065861766
0.0063374507
0.0060938628
0.0058553153
0.0056217065
0.0053929312
0.0051688815
0.0049494473
0.0047345162
0.0045239746
0.0043177074
0.0041155986
0.0039175312
0.0037233875
0.0035330489
0.0033463958
0.0031633076
0.0029836629
0.0028073388
0.0026342115
0.0024641562
0.0022970475
0.0021327599
0.0019711686
0.0018121505
0.0016555854
0.001501357
0.0013493546
0.0011994744
0.0010516203
0.00090570508
0.00076165098
0.00061938952
0.00047886141
0.00034001587
0.00020280982
6.7208598e-05
0.010360431
0.010037751
0.009720789
0.0094095741
0.0091041264
0.0088044455
0.0085105161
0.0082223098
0.0079397866
0.007662896
0.007391578
0.0071257643
0.0068653793
0.0066103404
0.0063605594
0.0061159426
0.0058763917
0.0056418046
0.0054120754
0.0051870957
0.0049667545
0.0047509388
0.0045395343
0.0043324251
0.0041294946
0.0039306252
0.0037356985
0.0035445955
0.0033571961
0.0031733798
0.0029930248
0.0028160086
0.0026422078
0.0024714982
0.0023037554
0.0021388549
0.0019766732
0.0018170884
0.0016599815
0.0015052374
0.0013527461
0.0012024044
0.0010541162