/*--------------------------------*- C++ -*----------------------------------*\
| =========                 |                                                 |
| \\      /  F ield         | OpenFOAM: The Open Source CFD Toolbox           |
|  \\    /   O peration     | Version:  2312                                  |
|   \\  /    A nd           | Website:  www.openfoam.com                      |
|    \\/     M anipulation  |                                                 |
\*---------------------------------------------------------------------------*/
FoamFile
{
    version     2.0;
    format      ascii;
    arch        "LSB;label=32;scalar=64";
    class       volScalarField;
    location    "0.07";
    object      f_Bilger;
}
// * * * * * * * * * * * * * * * * * * * * * * * * * * * * * * * * * * * * * //

dimensions      [0 0 0 0 0 0 0];

internalField   nonuniform List<scalar> 
3257
(
0.00094970578
0.00089643817
0.00084732916
0.0008018564
0.00075964291
0.0007204301
0.00068425175
0.00065215571
0.0006290836
0.00063540025
0.00075315737
0.00082940959
0.00087255527
0.00091769369
0.0009559155
0.00098477701
0.0010090674
0.0010292891
0.0010445654
0.0010550597
0.0010618402
0.0010657142
0.0010668618
0.0010650953
0.0010601863
0.0010520285
0.0010406644
0.0010262473
0.0010089786
0.00098908432
0.00096677437
0.00094222829
0.00091558722
0.00088695246
0.00085639101
0.00082394835
0.00078966834
0.00075361945
0.00071592506
0.00067679518
0.00063655591
0.00059567308
0.00055476616
0.00051460906
0.00047611498
0.00044030357
0.00040825073
0.00038102363
0.00035960641
0.0003448241
0.00033727402
0.0026211271
0.0024913491
0.0023690905
0.0022537549
0.0021448478
0.0020419607
0.0019448514
0.0018536944
0.0017697307
0.0016965539
0.0016403869
0.0015917572
0.0015468709
0.0015090316
0.0014754998
0.0014444356
0.0014161942
0.0013900893
0.0013650644
0.001340602
0.001316699
0.0012933124
0.0012701296
0.0012466759
0.0012224931
0.0011972426
0.0011707247
0.0011428523
0.0011136116
0.0010830284
0.0010511415
0.0010179847
0.00098357631
0.00094791414
0.00091097858
0.00087274231
0.00083318767
0.00079233053
0.00075024893
0.00070711366
0.00066321757
0.00061899954
0.00057505938
0.00053215964
0.00049121119
0.00045324029
0.00041933742
0.00039059014
0.00036800576
0.0003524319
0.00034448469
0.0037996353
0.0036385749
0.0034838659
0.0033352928
0.003192648
0.0030557378
0.0029244109
0.0027986194
0.0026785264
0.0025646044
0.0024575023
0.0023567123
0.0022618072
0.0021730393
0.0020898648
0.0020117591
0.0019385047
0.0018696488
0.001804626
0.0017430191
0.0016845632
0.0016289677
0.0015758281
0.0015246674
0.0014750173
0.0014264753
0.0013787231
0.0013315195
0.0012846819
0.0012380675
0.0011915558
0.0011450357
0.0010983962
0.0010515217
0.0010042939
0.00095659964
0.00090834666
0.00085948506
0.00081003474
0.00076011538
0.00070997617
0.00066002138
0.00061082737
0.00056314665
0.00051789498
0.00047611858
0.00043894111
0.00040749262
0.00038282658
0.00036583408
0.00035716794
0.0046012945
0.0044288424
0.004261317
0.004098681
0.0039408797
0.0037878543
0.00363955
0.0034959306
0.0033569976
0.003222797
0.0030934049
0.0029688192
0.0028490312
0.0027340756
0.002623873
0.0025183155
0.0024173056
0.0023206749
0.0022282109
0.0021397181
0.0020550172
0.0019738955
0.0018960799
0.0018212522
0.0017490827
0.0016792579
0.001611495
0.0015455437
0.0014811821
0.0014182093
0.0013564378
0.0012956862
0.0012357742
0.0011765208
0.001117747
0.0010592839
0.0010009876
0.00094276099
0.00088458017
0.00082652557
0.00076881321
0.00071182309
0.00065611968
0.00060245932
0.0005517796
0.00050516707
0.00046380182
0.00042888137
0.00040152999
0.00038270374
0.00037310645
0.0052095505
0.0050269609
0.0048489811
0.0046755699
0.0045066716
0.0043422298
0.0041821903
0.0040265037
0.0038751289
0.0037280332
0.0035851917
0.0034465784
0.0033121694
0.0031819436
0.0030558639
0.0029338839
0.0028159499
0.0027019887
0.002591912
0.0024856275
0.002383035
0.0022840118
0.0021884031
0.0020960262
0.0020066816
0.0019201648
0.0018362735
0.0017548105
0.0016755842
0.0015984064
0.0015230891
0.0014494419
0.00137727
0.0013063743
0.0012365556
0.0011676241
0.0010994143
0.0010318067
0.00096475573
0.00089832179
0.00083270552
0.00076827979
0.00070561451
0.00064548817
0.00058888016
0.00053693903
0.00049092455
0.00045212547
0.00042175961
0.00040086794
0.00039021984
0.0057432149
0.005546339
0.005354518
0.0051676608
0.0049856671
0.0048084382
0.0046358791
0.0044678991
0.0043044118
0.0041453348
0.003990589
0.0038400979
0.0036937874
0.0035515853
0.0034134187
0.0032792145
0.0031488989
0.0030223955
0.0028996262
0.0027805119
0.0026649697
0.0025529076
0.0024442201
0.0023387878
0.0022364803
0.0021371586
0.0020406782
0.00194689
0.0018556399
0.001766768
0.0016801071
0.0015954808
0.0015127031
0.0014315799
0.0013519135
0.0012735129
0.0011962087
0.0011198759
0.0010444624
0.00097002305
0.00089675724
0.00082504467
0.0007554751
0.00068886446
0.00062625039
0.00056886135
0.00051805581
0.00047523334
0.00044172421
0.00041867083
0.00040692053
0.0062547661
0.0060400471
0.0058311105
0.0056278252
0.0054300527
0.0052376554
0.0050504992
0.0048684531
0.0046913896
0.0045191838
0.0043517135
0.0041888586
0.0040305009
0.0038765246
0.0037268156
0.0035812621
0.0034397546
0.0033021865
0.0031684538
0.0030384556
0.0029120924
0.0027892638
0.0026698667
0.0025537939
0.0024409336
0.0023311691
0.002224379
0.0021204363
0.002019207
0.001920549
0.0018243099
0.0017303256
0.00163842
0.0015484063
0.0014600923
0.0013732901
0.0012878315
0.0012035912
0.0011205161
0.0010386618
0.00095823251
0.00087962203
0.00080344766
0.00073057142
0.00066209919
0.00059935076
0.0005437963
0.00049696021
0.00046029932
0.00043507025
0.00042220822
0.0067599803
0.0065255673
0.0062977048
0.0060762358
0.0058609971
0.0056518249
0.0054485569
0.0052510326
0.0050590934
0.0048725828
0.0046913458
0.0045152291
0.0043440812
0.0041777526
0.0040160959
0.0038589665
0.0037062228
0.0035577269
0.0034133454
0.0032729488
0.003136412
0.0030036127
0.0028744311
0.0027487483
0.0026264454
0.0025074028
0.0023914985
0.0022786068
0.0021685962
0.0020613274
0.001956651
0.0018544054
0.0017544168
0.0016565
0.0015604632
0.0014661183
0.0013732957
0.0012818677
0.0011917795
0.0011030867
0.0010159991
0.00093092488
0.00084851038
0.00076966596
0.00069556923
0.00062763656
0.00056745701
0.00051668869
0.00047692496
0.00044954621
0.00043558344
0.0072596079
0.0070049467
0.0067575638
0.0065172856
0.0062839323
0.0060573224
0.0058372741
0.0056236059
0.0054161372
0.0052146881
0.0050190798
0.0048291348
0.0046446768
0.0044655313
0.0042915257
0.0041224904
0.0039582584
0.0037986667
0.0036435567
0.0034927741
0.0033461695
0.0032035981
0.0030649192
0.0029299957
0.0027986929
0.0026708775
0.0025464162
0.0024251736
0.0023070101
0.0021917794
0.0020793259
0.0019694824
0.0018620697
0.0017568975
0.0016537688
0.0015524895
0.0014528841
0.0013548187
0.0012582326
0.0011631783
0.0010698676
0.00097872025
0.00089040862
0.00080588904
0.00072640966
0.00065348399
0.00058882288
0.00053422352
0.00049142286
0.00046193275
0.00044688662
0.0077499799
0.0074752655
0.0072085037
0.006949508
0.0066980861
0.0064540427
0.0062171813
0.0059873045
0.0057642146
0.0055477143
0.0053376064
0.0051336948
0.0049357842
0.004743681
0.0045571935
0.0043761323
0.0042003111
0.0040295472
0.0038636618
0.0037024806
0.0035458345
0.0033935589
0.0032454943
0.0031014854
0.0029613807
0.0028250312
0.0026922889
0.002563005
0.0024370274
0.0023141983
0.0021943511
0.0020773086
0.0019628817
0.0018508705
0.0017410687
0.0016332725
0.0015272964
0.0014229964
0.0013203025
0.0012192599
0.001120078
0.0010231834
0.00092926924
0.00083933283
0.00075468877
0.00067694548
0.00060793596
0.00054959983
0.00050382349
0.00047225732
0.00045614372
0.0082271503
0.0079329544
0.0076473376
0.0073701023
0.0071010449
0.0068399584
0.0065866334
0.006340859
0.0061024235
0.0058711147
0.0056467204
0.0054290291
0.0052178301
0.0050129139
0.0048140732
0.0046211027
0.0044338002
0.0042519669
0.0040754079
0.0039039328
0.0037373559
0.0035754966
0.0034181791
0.0032652324
0.0031164896
0.0029717868
0.0028309618
0.0026938519
0.002560292
0.0024301112
0.002303131
0.0021791622
0.0020580044
0.0019394461
0.0018232697
0.0017092597
0.0015972186
0.0014869899
0.0013784913
0.0012717575
0.0011669913
0.0010646205
0.00096535316
0.00087022133
0.00078060043
0.00069819
0.00062494438
0.00056294835
0.00051424367
0.0004806268
0.0004634564
0.0086881354
0.0083751957
0.0080714229
0.0077766089
0.0074905394
0.0072129959
0.0069437572
0.0066826
0.0064292998
0.0061836312
0.0059453686
0.0057142867
0.0054901612
0.005272769
0.0050618886
0.0048573014
0.0046587911
0.0044661453
0.0042791553
0.0040976168
0.0039213303
0.0037501014
0.0035837405
0.0034220631
0.0032648886
0.00311204
0.0029633419
0.0028186189
0.0026776932
0.0025403821
0.0024064947
0.0022758303
0.0021481768
0.0020233115
0.0019010048
0.0017810293
0.0016631746
0.0015472708
0.0014332217
0.0013210486
0.0012109438
0.0011033316
0.00099892846
0.00089879434
0.00080435904
0.00071740874
0.00064001789
0.00057441934
0.00052281701
0.00048716249
0.00046893935
0.0091310462
0.0088001581
0.0084789937
0.0081673344
0.0078649549
0.0075716259
0.0072871145
0.0070111856
0.0067436024
0.006484127
0.0062325214
0.0059885475
0.0057519682
0.0055225477
0.005300052
0.0050842496
0.0048749118
0.0046718138
0.0044747343
0.0042834568
0.0040977694
0.0039174655
0.0037423434
0.0035722063
0.0034068618
0.003246121
0.0030897966
0.0029377017
0.0027896472
0.0026454388
0.0025048749
0.0023677439
0.0022338228
0.002102878
0.0019746692
0.0018489572
0.0017255192
0.0016041717
0.0014848035
0.0013674207
0.0012522021
0.001139563
0.0010302225
0.00092526085
0.0008261555
0.00073477416
0.00065331013
0.00058414788
0.0005296617
0.00049196933
0.00047268902
0.0095548806
0.0092068458
0.0088690654
0.0085413105
0.008223345
0.0079149284
0.0076158166
0.0073257628
0.0070445182
0.0067718331
0.006507457
0.00625114
0.0060026326
0.005761687
0.0055280571
0.0053014994
0.0050817735
0.0048686426
0.004661874
0.0044612396
0.0042665162
0.0040774858
0.0038939357
0.0037156579
0.003542449
0.0033741093
0.0032104408
0.003051246
0.0028963254
0.0027454744
0.0025984814
0.002455125
0.0023151724
0.0021783805
0.0020444988
0.0019132777
0.0017844825
0.0016579164
0.0015334531
0.001411082
0.001290965
0.0011735045
0.0010594149
0.00094978995
0.00084614663
0.0007504288
0.00066494718
0.00059224225
0.00053486894
0.00049512387
0.0004747769
0.0099592649
0.0095948687
0.0092412353
0.0088981252
0.0085652917
0.0082424832
0.0079294443
0.0076259167
0.0073316399
0.0070463524
0.0067697921
0.0065016971
0.0062418061
0.0059898596
0.0057455999
0.0055087718
0.0052791236
0.0050564073
0.0048403789
0.0046307995
0.004427435
0.0042300567
0.0040384413
0.0038523704
0.0036716306
0.0034960117
0.0033253059
0.0031593058
0.0029978023
0.0028405815
0.0026874227
0.0025380955
0.0023923587
0.0022499605
0.0021106416
0.0019741428
0.0018402189
0.0017086601
0.001579325
0.0014521849
0.0013273827
0.0012053024
0.0010866479
0.00097251736
0.00086445943
0.00076448751
0.00067502806
0.00059878276
0.00053849961
0.00049667327
0.0004752396
0.010344238
0.0099642414
0.009595496
0.0092377515
0.0088907505
0.0085542304
0.0082279245
0.0079115634
0.007604875
0.0073075863
0.0070194237
0.0067401136
0.0064693834
0.0062069619
0.0059525802
0.0057059719
0.0054668742
0.0052350281
0.0050101789
0.004792077
0.004580478
0.0043751429
0.0041758381
0.0039823356
0.0037944117
0.0036118468
0.0034344238
0.0032619259
0.003094135
0.0029308287
0.0027717777
0.002616744
0.0024654784
0.0023177217
0.0021732069
0.0020316665
0.0018928454
0.001756522
0.0016225394
0.0014908503
0.0013615754
0.0012350762
0.0011120384
0.000993556
0.00088119943
0.00077704401
0.00068362954
0.00060382495
0.0005405864
0.00049662926
0.00047407649
0.010710093
0.010315233
0.0099320928
0.0095604119
0.0091999223
0.0088503507
0.0085114195
0.0081828479
0.0078643528
0.0075556497
0.0072564538
0.0069664802
0.006685445
0.006413066
0.006149063
0.0058931589
0.0056450799
0.0054045564
0.0051713234
0.0049451208
0.0047256941
0.0045127943
0.0043061781
0.0041056078
0.0039108503
0.0037216767
0.0035378608
0.0033591771
0.0031853991
0.0030162961
0.0028516315
0.0026911596
0.0025346247
0.0023817609
0.0022322946
0.002085951
0.0019424661
0.001801607
0.001663202
0.0015271839
0.0013936487
0.0012629306
0.0011356898
0.0010130056
0.00089645921
0.00078817811
0.00069081184
0.00060740327
0.00054113546
0.00049497144
0.00047125265
0.011057278
0.010648266
0.010251425
0.009866483
0.009493162
0.009131178
0.0087802426
0.0084400642
0.0081103487
0.0077908005
0.0074811238
0.0071810227
0.0068902023
0.0066083695
0.0063352333
0.0060705061
0.0058139034
0.0055651455
0.0053239569
0.0050900677
0.0048632134
0.0046431354
0.0044295809
0.0042223026
0.0040210586
0.0038256108
0.0036357245
0.0034511657
0.0032716998
0.0030970887
0.0029270885
0.0027614469
0.0025999023
0.0024421828
0.0022880092
0.0021371003
0.0019891844
0.001844018
0.0017014145
0.0015612863
0.0014237025
0.0012889647
0.0011576995
0.0010309606
0.00091032599
0.00079796351
0.00069662633
0.00060953738
0.00054013106
0.00049165249
0.00046670112
0.011386326
0.010963853
0.010553982
0.010156433
0.0097709163
0.0093971382
0.0090347997
0.0086835985
0.0083432298
0.0080133873
0.0076937644
0.0073840545
0.0070839521
0.0067931534
0.0065113572
0.0062382652
0.0059735829
0.0057170205
0.0054682926
0.0052271196
0.0049932273
0.0047663478
0.004546219
0.0043325846
0.0041251936
0.0039237996
0.0037281592
0.0035380306
0.0033531714
0.0031733363
0.0029982748
0.0028277286
0.0026614306
0.002499104
0.0023404645
0.0021852256
0.0020331087
0.0018838605
0.0017372799
0.0015932583
0.0014518356
0.0013132762
0.0011781643
0.0010475154
0.00092288885
0.00080647685
0.00070112721
0.0006102486
0.00053755148
0.00048661078
0.00046033557
0.01169782
0.011262554
0.010840305
0.010430781
0.010033685
0.0096487111
0.0092755509
0.0089138915
0.0085634178
0.0082238133
0.0078947607
0.0075759431
0.0072670448
0.0069677516
0.0066777522
0.0063967383
0.0061244056
0.0058604543
0.0056045897
0.0053565225
0.0051159694
0.0048826533
0.0046563031
0.0044366537
0.0042234456
0.004016424
0.0038153374
0.0036199363
0.003429971
0.0032451894
0.0030653348
0.0028901434
0.0027193431
0.0025526528
0.0023897841
0.0022304458
0.0020743533
0.0019212445
0.0017709043
0.0016232026
0.0014781484
0.0013359641
0.0011971833
0.0010627694
0.00093424493
0.00081380671
0.00070438309
0.00060957092
0.00053338574
0.0004797894
0.00045206957
0.011992366
0.011544958
0.011110961
0.010690077
0.010281996
0.0098864057
0.0095029859
0.0091314142
0.0087713654
0.0084225127
0.008084529
0.0077570873
0.0074398619
0.0071325288
0.0068347668
0.0065462579
0.0062666884
0.005995749
0.0057331357
0.0054785501
0.0052317
0.0049922992
0.0047600682
0.0045347334
0.004316027
0.0041036859
0.0038974511
0.0036970655
0.0035022725
0.0033128136
0.0031284264
0.0029488418
0.0027737835
0.0026029665
0.0024360989
0.0022728859
0.0021130376
0.0019562837
0.0018023961
0.0016512233
0.001502742
0.0013571288
0.0012148584
0.0010768282
0.00094450316
0.00082006037
0.00070648808
0.00060756788
0.00052765056
0.00047115337
0.00044183307
0.012270585
0.011811663
0.011366531
0.01093488
0.010516393
0.010110745
0.0097176097
0.0093366529
0.0089675404
0.0086099356
0.0082635017
0.0079279022
0.0076028015
0.0072878663
0.006982766
0.0066871732
0.006400765
0.0061232231
0.0058542345
0.005593492
0.0053406948
0.0050955483
0.0048577643
0.0046270613
0.0044031634
0.0041857998
0.003974704
0.0037696118
0.00357026
0.003376384
0.0031877159
0.0030039822
0.0028249023
0.0026501881
0.0024795449
0.0023126747
0.0021492834
0.0019890936
0.0018318648
0.001677425
0.0015257178
0.0013768712
0.0012312938
0.001089803
0.00095378431
0.00082536568
0.00070756601
0.00060433965
0.00052039869
0.00046069646
0.00042957721
0.012533101
0.012063276
0.011607601
0.011165758
0.010737422
0.010322259
0.0099199324
0.0095300996
0.0091524168
0.0087865383
0.0084321177
0.0080888093
0.0077562685
0.0074341526
0.0071221221
0.0068198407
0.0065269765
0.0062432026
0.0059681975
0.0057016455
0.0054432374
0.0051926704
0.0049496485
0.004713882
0.0044850875
0.0042629869
0.0040473063
0.0038377749
0.0036341231
0.0034360806
0.0032433743
0.0030557265
0.0028728531
0.0026944633
0.0025202598
0.0023499424
0.0021832136
0.0020197899
0.0018594196
0.0017019109
0.0015471752
0.0013952901
0.0012465924
0.0011018072
0.00096221744
0.00082986811
0.0007077697
0.00060002253
0.0005117181
0.00044843671
0.00041526505
0.012780541
0.012300402
0.011834756
0.011383277
0.010945631
0.010521476
0.010110464
0.0097122464
0.0093264689
0.0089527771
0.0085908161
0.0082402309
0.0079006683
0.0075717769
0.0072532084
0.0069446179
0.0066456653
0.0063560152
0.0060753378
0.0058033095
0.0055396129
0.0052839376
0.0050359798
0.0047954422
0.0045620342
0.0043354703
0.00411547
0.0039017561
0.0036940528
0.0034920845
0.0032955733
0.0031042376
0.0029177902
0.0027359378
0.0025583814
0.0023848189
0.0022149502
0.0020484868
0.0018851673
0.0017247818
0.0015672103
0.0014124803
0.0012608536
0.0011129519
0.00096993407
0.00083372426
0.00070727416
0.00059478455
0.00050172665
0.00043440506
0.00039885254
0.013013524
0.012523642
0.012048578
0.011588
0.011141564
0.01070892
0.010289712
0.0098835812
0.0094901667
0.0091091049
0.0087400324
0.0083825858
0.0080364033
0.0077011253
0.0073763952
0.00706186
0.0067571715
0.0064619861
0.0061759665
0.0058987811
0.0056301051
0.0053696205
0.005117016
0.0048719874
0.0046342367
0.004403472
0.0041794061
0.0039617555
0.0037502391
0.0035445758
0.0033444836
0.0031496771
0.0029598663
0.0027747558
0.0025940454
0.0024174317
0.0022446126
0.0020752959
0.0019092117
0.0017461342
0.0015859142
0.0014285307
0.0012741692
0.0011233415
0.00097706184
0.00083709456
0.00070627057
0.00058882136
0.00049056822
0.00041863391
0.0003802646
0.013232669
0.012733592
0.012249644
0.011780484
0.011325758
0.010885109
0.010458174
0.010044586
0.009643974
0.009255968
0.0088801959
0.0085162864
0.0081638697
0.0078225782
0.0074920474
0.0071719166
0.0068618296
0.0065614357
0.0062703898
0.005988353
0.0057149932
0.0054499852
0.0051930109
0.004943759
0.0047019251
0.0044672105
0.004239322
0.0040179702
0.0038028687
0.0035937316
0.0033902727
0.0031922033
0.0029992308
0.0028110583
0.0026273843
0.0024479049
0.0022723168
0.0021003247
0.0019316523
0.0017660598
0.0016033721
0.0014435224
0.0012866221
0.0011330693
0.00098371866
0.00084013611
0.00070496056
0.00058235525
0.00047841518
0.00040115104
0.00035936873
0.013438581
0.012930839
0.012438521
0.011961275
0.011498742
0.011050555
0.010616344
0.010195733
0.0097883464
0.0093938044
0.0090117277
0.0086417374
0.008283456
0.0079365083
0.0076005222
0.0072751298
0.0069599677
0.0066546776
0.0063589074
0.0060723113
0.0057945503
0.0055252924
0.0052642127
0.0050109935
0.004765324
0.0045268993
0.0042954204
0.0040705925
0.0038521238
0.0036397243
0.0034331037
0.0032319701
0.003036029
0.0028449818
0.0026585264
0.0024763585
0.0022981744
0.0021236768
0.0019525842
0.0017846455
0.0016196628
0.0014575286
0.0012982841
0.0011422153
0.00099000769
0.000842996
0.00070355114
0.00057563729
0.00046547981
0.00038198298
0.00033594403
0.013631858
0.013115962
0.012615767
0.012130914
0.011661035
0.011205757
0.010764701
0.010337487
0.0099237295
0.0095230425
0.0091350395
0.008759334
0.0083955413
0.0080432792
0.0077021684
0.0073718338
0.0070519051
0.0067420173
0.0064418114
0.0061509351
0.0058690426
0.0055957956
0.005330863
0.0050739207
0.0048246519
0.004582746
0.0043478984
0.004119809
0.0038981813
0.0036827211
0.0034731345
0.0032691268
0.0030704012
0.0028766583
0.0026875953
0.0025029079
0.0023222925
0.0021454508
0.0019720976
0.0018019726
0.0016348593
0.0014706144
0.0013092162
0.001150844
0.00099601346
0.00084580451
0.00070224731
0.00056895106
0.00045203659
0.00036117384
0.0003096392
0.013813084
0.013289526
0.01278193
0.012289928
0.011813145
0.011351203
0.010903717
0.010470299
0.010050558
0.0096441
0.0092505321
0.008869461
0.008500495
0.0081432448
0.0077973247
0.0074623529
0.0071379523
0.0068237516
0.0065193853
0.0062244947
0.0059387281
0.0056617408
0.0053931958
0.0051327632
0.0048801204
0.0046349514
0.0043969463
0.0041658001
0.0039412119
0.0037228834
0.0035105174
0.0033038165
0.0031024824
0.0029062142
0.0027147092
0.0025276633
0.0023447732
0.0021657405
0.0019902776
0.0018181174
0.0016490284
0.0014828376
0.0013194686
0.0011590047
0.001001799
0.00084866843
0.00070124494
0.00056261484
0.00043845637
0.00033883124
0.00027990726
0.013982827
0.013452093
0.012937547
0.012438832
0.011955568
0.011487371
0.011033849
0.01059461
0.010169254
0.0097573828
0.0093585954
0.0089724922
0.0085986752
0.0082367486
0.0078863201
0.0075470017
0.0072184102
0.0069001679
0.0065919035
0.0062932522
0.0060038564
0.0057233657
0.0054514373
0.005187736
0.0049319338
0.0046837093
0.0044427479
0.0042087398
0.00398138
0.0037603663
0.0035453986
0.0033361771
0.0031324016
0.0029337706
0.0027399811
0.0025507297
0.0023657137
0.0021846351
0.0020072049
0.0018331515
0.0016622319
0.0014942494
0.0013290824
0.0011667319
0.0010074045
0.00085166371
0.00070071534
0.00055697479
0.00042525042
0.00031522261
0.00024589908
0.013604201
0.013083141
0.012578129
0.012088786
0.011614722
0.011155543
0.010710846
0.010280229
0.0098632845
0.0094596068
0.0090687897
0.0086904289
0.0083241226
0.0079694725
0.0076260844
0.0072935693
0.0069715439
0.0066596309
0.0063574601
0.0060646681
0.0057808994
0.0055058056
0.0052390464
0.0049802886
0.0047292062
0.0044854796
0.004248795
0.0040188432
0.0037953187
0.0035779183
0.0033663401
0.0031602824
0.0029594429
0.0027635188
0.002572207
0.0023852062
0.0022022188
0.0020229557
0.0018471423
0.0016745272
0.0015048959
0.0013380912
0.0011740472
0.0010128471
0.00085482908
0.00070078645
0.0005523812
0.00041311451
0.000290984
0.00020626646
0.013746409
0.013219222
0.012708303
0.012213264
0.011733706
0.011269227
0.010819422
0.010383878
0.0099621858
0.0095539313
0.0091587031
0.0087760911
0.0084056876
0.0080470885
0.0076998942
0.00736371
0.0070381471
0.0067228228
0.0064173616
0.0061213951
0.0058345624
0.0055565102
0.0052868933
0.0050253737
0.0047716209
0.0045253108
0.0042861257
0.0040537525
0.0038278827
0.0036082102
0.0033944312
0.0031862424
0.002983341
0.0027854243
0.00259219
0.0024033377
0.0022185712
0.0020376016
0.0018601528
0.0016859678
0.0015148192
0.0013465232
0.0011809625
0.0010181238
0.00085816243
0.00070151816
0.00054913208
0.00040293745
0.00026753285
0.00015881071
0.01387919
0.01334627
0.012829823
0.012329453
0.011844755
0.01137532
0.010920735
0.010480586
0.010054454
0.0096419211
0.0092425699
0.0088559847
0.0084817525
0.0081194638
0.0077687135
0.0074291018
0.0071002347
0.0067817245
0.0064731907
0.0061742598
0.0058845663
0.0056037522
0.0053314676
0.0050673701
0.0048111248
0.0045624036
0.0043208849
0.0040862524
0.0038581942
0.003636402
0.0034205699
0.0032103934
0.0030055691
0.0028057945
0.0026107682
0.0024201908
0.0022337675
0.0020512104
0.0018722427
0.0016966041
0.0015240584
0.0013544029
0.0011874834
0.0010232163
0.00086162308
0.00070288221
0.0005473834
0.00039568553
0.00024791859
9.9821501e-05
0.014003027
0.013464752
0.01294314
0.012437788
0.011948286
0.01147422
0.011015172
0.010570721
0.010140443
0.0097239151
0.0093207146
0.0089304205
0.0085526145
0.0081868823
0.0078328136
0.0074900037
0.0071580538
0.0068365714
0.0065251714
0.0062234756
0.005931114
0.0056477243
0.0053729521
0.0051064509
0.0048478817
0.0045969128
0.0043532189
0.0041164805
0.0038863828
0.0036626152
0.00344487
0.0032328416
0.0030262262
0.0028247213
0.0026280264
0.0024358433
0.0022478787
0.0020638458
0.0018834682
0.0017064837
0.0015326505
0.0013617534
0.001193613
0.0010280982
0.00086514209
0.00070475869
0.00054703186
0.00039194112
0.00023860765
8.3834177e-05
0.014118394
0.013575121
0.013048688
0.012538687
0.012044702
0.011566315
0.011103103
0.010654638
0.010220493
0.0098002391
0.0093934489
0.0089996965
0.0086185588
0.0082496164
0.0078924546
0.007546664
0.0072118411
0.0068875891
0.0065735184
0.0062692467
0.0059743995
0.0056886106
0.0054115213
0.0051427814
0.0048820482
0.0046289863
0.004383267
0.0041445679
0.0039125716
0.0036869653
0.0034674397
0.003253688
0.003045406
0.0028422915
0.0026440446
0.0024503686
0.0022609715
0.002075568
0.0018938823
0.0017156518
0.0015406312
0.0013685973
0.0011993548
0.0010327427
0.00086863999
0.000706968
0.00054766618
0.00039055893
0.0002348992
7.923004e-05
0.014225747
0.013677815
0.013146887
0.012632552
0.012134389
0.011651975
0.011184882
0.010732678
0.01029493
0.0098712054
0.0094610719
0.0090640988
0.0086798585
0.0083079272
0.0079478856
0.0075993201
0.0072618231
0.0069349933
0.0066184371
0.0063117683
0.0060146083
0.0057265869
0.0054473421
0.0051765197
0.0049137735
0.0046587648
0.0044111619
0.0041706395
0.0039368779
0.0037095622
0.0034883814
0.0032730279
0.0030631972
0.0028585871
0.0026588985
0.002463836
0.0022731089
0.0020864335
0.0019035351
0.0017241511
0.0015480347
0.0013749577
0.0012047151
0.001037128
0.0008720454
0.00070934124
0.0005488954
0.00039051746
0.00023372485
7.7895588e-05
0.014325522
0.013773253
0.01323814
0.01271977
0.012217718
0.011731556
0.01126085
0.010805166
0.010364067
0.0099371133
0.0095238697
0.0091239009
0.008736775
0.0083620641
0.0079993448
0.0076481994
0.0073082161
0.00697899
0.0066601235
0.0063512265
0.0060519171
0.0057618212
0.0054805733
0.0052078159
0.0049431995
0.0046863823
0.0044370298
0.004194814
0.0039594129
0.0037305098
0.0035077923
0.0032909519
0.0030796836
0.0028736855
0.0026726592
0.0024763105
0.00228435
0.0020964956
0.0019124738
0.0017320226
0.0015548944
0.0013808584
0.0012097038
0.0010412412
0.00087530331
0.00071174149
0.00055041327
0.00039114409
0.00023363032
7.7577666e-05
0.014418141
0.013861837
0.013322833
0.012800712
0.012295044
0.011805397
0.011331335
0.010872417
0.010428202
0.0099982489
0.0095821158
0.0091793642
0.0087895581
0.0084122657
0.0080470596
0.0076935184
0.0073512266
0.0070197757
0.0066987643
0.0063877991
0.0060864944
0.0057944731
0.0055113662
0.0052368132
0.0049704614
0.0047119663
0.0044609906
0.004217204
0.0039802823
0.0037499071
0.0035257646
0.0033075455
0.0030949446
0.00288766
0.0026853941
0.0024878535
0.0022947506
0.0021058044
0.0019207429
0.0017393048
0.0015612425
0.0013863237
0.0012143341
0.0010450784
0.00087838021
0.00071407995
0.00055202717
0.00039206243
0.00023397739
7.7596811e-05
0.014504004
0.013943953
0.013401336
0.012875731
0.012366706
0.011873824
0.011396646
0.010934727
0.010487622
0.010054885
0.0096360715
0.0092307383
0.008838446
0.0084587591
0.0080912468
0.0077354838
0.0073910514
0.0070575375
0.0067345376
0.0064216549
0.0061185007
0.0058246947
0.0055398648
0.0052636476
0.0049956877
0.0047356378
0.0044831582
0.0042379163
0.0039995861
0.0037678474
0.0035423853
0.0033228897
0.003109055
0.0029005795
0.0026971663
0.002498523
0.0023043631
0.0021144071
0.0019283842
0.0017460344
0.0015671099
0.001391378
0.0012186221
0.0010486433
0.00088126016
0.00071630706
0.0005536303
0.00039307936
0.00023449088
7.7730428e-05
0.014583495
0.014019968
0.013474
0.012945165
0.012433028
0.011937149
0.011457083
0.010992383
0.010542599
0.010107283
0.0096859856
0.0092782609
0.0088836657
0.0085017611
0.0081321128
0.0077742924
0.0074278777
0.0070924537
0.0067676127
0.0064529548
0.0061480884
0.0058526303
0.0055662057
0.0052884482
0.0050190001
0.0047575115
0.0045036405
0.0042570523
0.0040174192
0.0037844194
0.0035577369
0.0033370609
0.0031220855
0.0029125092
0.0027080356
0.0025083732
0.0023132367
0.0021223479
0.0019354374
0.0017522458
0.0015725261
0.0013960452
0.0012225852
0.0010519448
0.00088393912
0.00071839897
0.00055516847
0.00039410089
0.00023505208
7.789985e-05
0.01465698
0.014090234
0.013541163
0.013009338
0.012494321
0.011995666
0.011512928
0.011045654
0.010593393
0.01015569
0.0097320952
0.0093221584
0.0089254333
0.0085414776
0.008169854
0.0078101311
0.0074618836
0.0071246936
0.0067981504
0.0064818515
0.0061754024
0.0058784172
0.0055905186
0.0053113378
0.0050405144
0.0047776965
0.0045225399
0.004274708
0.0040338713
0.0037997068
0.0035718973
0.0033501315
0.0031341029
0.0029235105
0.0027180582
0.0025174553
0.0023214178
0.0021296686
0.0019419393
0.0017579717
0.0015775192
0.0014003487
0.0012262414
0.0010549943
0.00088642016
0.00072034694
0.00055661674
0.00039508343
0.00023560974
7.8075497e-05
0.014724809
0.014155086
0.013603146
0.013068558
0.012550878
0.012049659
0.011564452
0.0110948
0.010640249
0.010200343
0.009774626
0.0093626462
0.0089639541
0.0085781045
0.0082046572
0.0078431778
0.0074932383
0.0071544179
0.0068263035
0.0065084898
0.00620058
0.0059021855
0.0056129267
0.0053324324
0.0050603401
0.0047962958
0.0045399532
0.0042909741
0.0040490274
0.0038137888
0.0035849402
0.0033621696
0.0031451703
0.0029336413
0.0027272871
0.0025258177
0.00232895
0.0021364082
0.0019479248
0.0017632427
0.0015821157
0.0014043108
0.0012296087
0.0010578049
0.00088871034
0.00072215061
0.00055796562
0.00039600812
0.00023614212
7.8245821e-05
0.014787314
0.014214843
0.013660255
0.013123116
0.01260298
0.012099396
0.011611911
0.011140067
0.010683405
0.010241466
0.0098137921
0.0093999288
0.0089994234
0.008611828
0.0082366996
0.0078736011
0.0075221022
0.0071817793
0.006852217
0.0065330074
0.0062237515
0.0059240585
0.0056335465
0.0053518422
0.0050785811
0.004813407
0.0045559722
0.0043059367
0.0040629679
0.0038267404
0.0035969352
0.0033732397
0.003155347
0.0029429563
0.0027357722
0.0025335057
0.0023358744
0.0021426035
0.0019534268
0.0017680876
0.0015863407
0.0014079529
0.0012327046
0.0010603901
0.00089081873
0.00072381398
0.00055921352
0.00039686811
0.00023664058
7.8406349e-05
0.014844811
0.014269806
0.013712779
0.013173291
0.012650893
0.012145132
0.01165555
0.011181687
0.010723081
0.010279271
0.0098497972
0.0094342004
0.0090320264
0.0086428245
0.0082661493
0.0079015613
0.0075486276
0.0072069225
0.0068760281
0.0065555345
0.0062450405
0.0059441531
0.0056524885
0.0053696714
0.0050953354
0.0048291226
0.0045706836
0.0043196769
0.0040757686
0.0038386322
0.003607948
0.0033834026
0.0031646892
0.0029515068
0.0027435605
0.0025405619
0.0023422295
0.0021482893
0.001958476
0.0017725338
0.0015902179
0.0014112952
0.0012355459
0.0010627633
0.0008927552
0.00072534322
0.00056036276
0.00039766227
0.00023710241
7.8555532e-05
0.014897601
0.014320266
0.013760995
0.013219348
0.012694872
0.012187109
0.011695601
0.011219883
0.010759491
0.010313963
0.0098828342
0.0094656452
0.0090619386
0.0086712614
0.0082931657