/*--------------------------------*- C++ -*----------------------------------*\
| =========                 |                                                 |
| \\      /  F ield         | OpenFOAM: The Open Source CFD Toolbox           |
|  \\    /   O peration     | Version:  2312                                  |
|   \\  /    A nd           | Website:  www.openfoam.com                      |
|    \\/     M anipulation  |                                                 |
\*---------------------------------------------------------------------------*/
FoamFile
{
    version     2.0;
    format      ascii;
    arch        "LSB;label=32;scalar=64";
    class       volScalarField;
    location    "0.07";
    object      k;
}
// * * * * * * * * * * * * * * * * * * * * * * * * * * * * * * * * * * * * * //

dimensions      [0 2 -2 0 0 0 0];

internalField   nonuniform List<scalar> 
3257
(
10.998312
10.992631
10.987142
10.981914
10.976957
10.972293
10.967955
10.964002
10.960225
10.954194
10.932989
10.907685
10.886894
10.8662
10.846796
10.828202
10.811577
10.795859
10.780263
10.764814
10.750013
10.735982
10.722596
10.709781
10.697603
10.686201
10.67572
10.666275
10.657953
10.650822
10.644954
10.640423
10.637314
10.635717
10.635716
10.637381
10.640757
10.645845
10.652593
10.660887
10.670539
10.681287
10.692801
10.704687
10.716506
10.727795
10.738086
10.746936
10.753951
10.758797
10.761238
10.882621
10.881806
10.879546
10.875892
10.871208
10.86582
10.859874
10.853541
10.846871
10.83962
10.830694
10.819814
10.807788
10.795054
10.782335
10.769822
10.757673
10.745558
10.73329
10.721044
10.709059
10.697427
10.686166
10.675342
10.665091
10.655568
10.646912
10.639231
10.632609
10.627117
10.62283
10.619826
10.618193
10.618024
10.619405
10.62241
10.627084
10.633427
10.641388
10.650849
10.661617
10.673424
10.685932
10.698739
10.711395
10.723428
10.734359
10.743737
10.751154
10.75627
10.758844
10.683044
10.685417
10.687108
10.68812
10.688462
10.688194
10.687384
10.686146
10.684615
10.682914
10.680996
10.678475
10.674909
10.670218
10.664616
10.658374
10.651669
10.644671
10.637551
10.630453
10.623481
10.616702
10.610182
10.604013
10.598308
10.593183
10.588742
10.585076
10.582266
10.580392
10.579538
10.579796
10.581267
10.584054
10.588255
10.593954
10.601202
10.610009
10.620326
10.632034
10.644938
10.658763
10.673158
10.687709
10.701952
10.715395
10.727542
10.737923
10.74611
10.751741
10.754553
10.51268
10.513417
10.514314
10.515325
10.516408
10.517534
10.518696
10.519909
10.521204
10.522613
10.524117
10.525581
10.526773
10.527529
10.527799
10.52761
10.527013
10.526095
10.524953
10.523674
10.522331
10.521
10.519769
10.518736
10.518011
10.517699
10.517895
10.51869
10.520169
10.52242
10.525536
10.529618
10.534773
10.541113
10.548741
10.557745
10.568182
10.580063
10.593339
10.607888
10.623508
10.639912
10.656734
10.673539
10.689842
10.705125
10.718866
10.730565
10.739767
10.746073
10.749196
10.399391
10.39653
10.394291
10.392644
10.391558
10.391006
10.390963
10.391411
10.392335
10.393716
10.395521
10.397685
10.400117
10.402726
10.405442
10.408216
10.411023
10.413854
10.416719
10.419627
10.422598
10.425662
10.428865
10.432271
10.43595
10.43998
10.444437
10.4494
10.454952
10.461179
10.468175
10.476046
10.4849
10.494848
10.505997
10.518434
10.532215
10.547351
10.563787
10.581395
10.59996
10.619181
10.638672
10.657974
10.676574
10.693923
10.709464
10.722659
10.733015
10.740089
10.743563
10.323145
10.317663
10.312913
10.308892
10.305596
10.303017
10.301148
10.299975
10.299488
10.299667
10.300488
10.301921
10.303926
10.306461
10.309487
10.312968
10.316872
10.321174
10.325849
10.33088
10.336251
10.341958
10.348009
10.354425
10.361236
10.368482
10.376211
10.38448
10.393354
10.402907
10.413224
10.424403
10.436544
10.449756
10.464137
10.479769
10.496704
10.514943
10.534426
10.555012
10.576474
10.598491
10.620654
10.642478
10.663417
10.682885
10.700285
10.715035
10.726597
10.734476
10.738316
10.263863
10.257092
10.251047
10.245737
10.241171
10.237354
10.234291
10.231981
10.230423
10.229609
10.229532
10.23018
10.231539
10.233594
10.236333
10.239738
10.243796
10.248489
10.2538
10.259711
10.266204
10.273268
10.280894
10.289084
10.297845
10.307196
10.317161
10.327779
10.339096
10.351173
10.364081
10.377905
10.392736
10.408671
10.425799
10.444193
10.463894
10.484895
10.507123
10.530426
10.554559
10.579182
10.603862
10.628085
10.65127
10.672792
10.692008
10.708289
10.721043
10.729723
10.733926
10.211531
10.20432
10.197821
10.192047
10.18701
10.182719
10.179182
10.176406
10.174394
10.173148
10.172669
10.172956
10.174009
10.175827
10.17841
10.181757
10.185865
10.190731
10.196349
10.202712
10.209811
10.217638
10.226189
10.23546
10.245455
10.256184
10.267663
10.27992
10.292993
10.306931
10.321798
10.337667
10.354622
10.372747
10.392124
10.412815
10.434851
10.458216
10.482824
10.508511
10.535017
10.561982
10.588949
10.615374
10.640643
10.664089
10.685022
10.702761
10.716661
10.726112
10.730663
10.16236
10.155128
10.148614
10.14283
10.137786
10.133493
10.129957
10.127186
10.125187
10.123963
10.12352
10.123862
10.124994
10.126921
10.12965
10.133185
10.137533
10.142697
10.148681
10.155485
10.16311
10.171556
10.180823
10.190913
10.201832
10.213591
10.226205
10.2397
10.254112
10.269487
10.285884
10.30337
10.322024
10.341923
10.363143
10.385738
10.409732
10.435099
10.461747
10.489499
10.518081
10.547118
10.57613
10.604546
10.631717
10.656937
10.679469
10.698577
10.713561
10.723746
10.728627
10.115331
10.108246
10.101903
10.096312
10.09148
10.087416
10.084126
10.081616
10.079893
10.078962
10.078828
10.079497
10.080975
10.083271
10.086392
10.090345
10.095139
10.100782
10.107281
10.114642
10.122871
10.131973
10.141954
10.15282
10.164581
10.177251
10.190849
10.205403
10.220948
10.237531
10.25521
10.274051
10.29413
10.315522
10.338297
10.362506
10.388169
10.415253
10.443662
10.473211
10.503616
10.534487
10.565327
10.595539
10.624445
10.651298
10.675316
10.695709
10.711718
10.722599
10.727791
10.070448
10.063552
10.057433
10.052098
10.047554
10.043806
10.040859
10.038719
10.037391
10.036879
10.037187
10.038323
10.040292
10.043102
10.046761
10.051276
10.056656
10.06291
10.070046
10.078073
10.086998
10.09683
10.107576
10.119248
10.131857
10.145421
10.159961
10.175507
10.192098
10.20978
10.228612
10.248662
10.270003
10.292709
10.316849
10.342473
10.369597
10.398188
10.428146
10.459281
10.491306
10.523818
10.556307
10.588155
10.618654
10.647022
10.672431
10.694038
10.711021
10.722569
10.728055
10.027991
10.021266
10.015359
10.010276
10.006021
10.002598
10.000011
9.9982646
9.9973616
9.9973061
9.9981015
9.9997546
10.00227
10.005654
10.009914
10.015057
10.02109
10.028023
10.035863
10.044618
10.054297
10.06491
10.076465
10.088974
10.102451
10.116915
10.13239
10.148907
10.166504
10.185232
10.205149
10.226323
10.248827
10.272735
10.298115
10.325016
10.353454
10.383398
10.414746
10.447308
10.480794
10.514797
10.548792
10.582147
10.614126
10.643916
10.670643
10.69341
10.711333
10.723526
10.729295
9.9882189
9.9816234
9.9758899
9.9710225
9.9670247
9.9638993
9.961649
9.9602763
9.9597838
9.960174
9.9614506
9.9636186
9.9666816
9.9706451
9.9755147
9.9812968
9.9879982
9.995626
10.004187
10.01369
10.024142
10.035552
10.04793
10.061286
10.075637
10.091001
10.107402
10.124873
10.143452
10.163191
10.184146
10.206387
10.229986
10.255017
10.281547
10.309625
10.33927
10.370449
10.403065
10.43693
10.471753
10.507125
10.542515
10.577275
10.610649
10.64179
10.669782
10.693674
10.712516
10.725345
10.731391
9.9512806
9.9447665
9.9391595
9.9344626
9.9306781
9.9278079
9.9258535
9.9248164
9.9246982
9.9255
9.9272264
9.9298796
9.9334631
9.9379808
9.9434377
9.9498388
9.9571896
9.9654962
9.9747646
9.9850015
9.9962138
10.008409
10.021597
10.035789
10.050999
10.067245
10.084552
10.102952
10.122484
10.143198
10.165151
10.18841
10.213047
10.239136
10.266744
10.295919
10.326681
10.359002
10.392786
10.427851
10.46391
10.500553
10.537248
10.573335
10.608037
10.640479
10.669703
10.694701
10.714457
10.727921
10.734242
9.9172034
9.9107257
9.9052
9.9006284
9.8970121
9.8943522
9.8926491
9.8919037
9.8921162
9.8932877
9.8954216
9.898519
9.9025825
9.9076153
9.9136211
9.9206039
9.928568
9.9375184
9.94746
9.9583981
9.9703389
9.983289
9.9972568
10.012253
10.02829
10.045387
10.063568
10.082862
10.103309
10.124957
10.147862
10.17209
10.197712
10.2248
10.253419
10.28362
10.315423
10.348802
10.383668
10.419846
10.457053
10.494886
10.53281
10.570159
10.606141
10.639851
10.670289
10.696391
10.717068
10.731179
10.737779
9.8859172
9.8794378
9.8739541
9.8694675
9.8659785
9.8634871
9.8619931
9.8614965
9.8619963
9.8634942
9.8659916
9.8694892
9.8739886
9.8794922
9.8860026
9.8935229
9.9020565
9.9116071
9.9221785
9.9337751
9.9464019
9.9600646
9.9747705
9.9905291
10.007353
10.025259
10.04427
10.064415
10.085732
10.108268
10.132077
10.157222
10.183774
10.211801
10.241369
10.272527
10.305299
10.339661
10.375531
10.412742
10.451019
10.489969
10.529059
10.567619
10.604843
10.639802
10.671453
10.698673
10.720295
10.735077
10.741966
9.8572848
9.8507734
9.8452998
9.8408648
9.8374681
9.8351091
9.8337868
9.8335005
9.834248
9.8360317
9.8388511
9.8427063
9.8475983
9.8535286
9.860499
9.8685115
9.8775687
9.8876732
9.8988281
9.9110366
9.9243026
9.9386311
9.9540282
9.9705025
9.9880656
10.006733
10.026527
10.047475
10.069613
10.092985
10.117646
10.143655
10.17108
10.199988
10.230442
10.262493
10.296164
10.331438
10.368238
10.406407
10.445684
10.485684
10.525884
10.565612
10.604054
10.640255
10.673133
10.701502
10.724109
10.739601
10.746796
9.8311306
9.8245641
9.8190757
9.8146656
9.8113327
9.8090759
9.8078936
9.8077844
9.8087451
9.8107784
9.8138822
9.8180563
9.8233008
9.8296165
9.8370044
9.8454657
9.8550021
9.8656154
9.8773076
9.8900813
9.9039395
9.918886
9.9349262
9.9520678
9.9703212
9.9897011
10.010228
10.031928
10.054835
10.078993
10.104451
10.131269
10.15951
10.18924
10.22052
10.2534
10.287904
10.324021
10.361682
10.40074
10.440949
10.481938
10.523196
10.564057
10.6037
10.641149
10.675282
10.704847
10.728499
10.744754
10.752278
9.8072617
9.8006233
9.7951015
9.7906954
9.7874038
9.7852247
9.7841561
9.7841959
9.7853403
9.7875918
9.7909471
9.7954055
9.8009666
9.8076302
9.8153967
9.8242667
9.8342409
9.8453203
9.8575064
9.8708006
9.8852054
9.9007236
9.9173599
9.935121
9.9540163
9.9740595
9.9952695
10.017671
10.041297
10.066188
10.092391
10.119963
10.148965
10.179459
10.211506
10.245153
10.280428
10.317323
10.355777
10.395657
10.436734
10.478654
10.520923
10.562886
10.60372
10.642432
10.67786
10.708686
10.733459
10.750548
10.758433
9.7854836
9.7787616
9.7731923
9.7687745
9.7655064
9.7633854
9.7624091
9.7625745
9.7638777
9.7663204
9.7698987
9.7746113
9.780457
9.7874351
9.7955453
9.8047873
9.8151614
9.8266679
9.8393073
9.8530805
9.8679891
9.8840354
9.9012231
9.919558
9.9390489
9.9597081
9.9815534
10.004608
10.028903
10.054476
10.081373
10.109646
10.139355
10.170558
10.203314
10.23767
10.273655
10.311265
10.35045
10.391088
10.43297
10.475765
10.519
10.562036
10.604055
10.644052
10.680828
10.712992
10.738983
10.756993
10.765279
9.7656092
9.7587955
9.7531687
9.7487274
9.7454688
9.7433903
9.7424887
9.7427602
9.7442013
9.7468122
9.7505888
9.7555291
9.7616314
9.7688944
9.777317
9.7868984
9.7976382
9.809536
9.8225917
9.8368056
9.8521785
9.8687121
9.8864095
9.9052756
9.9253182
9.9465489
9.9689838
9.9926451
10.017561
10.043768
10.071309
10.100235
10.130599
10.162459
10.19587
10.23088
10.267517
10.305784
10.345637
10.386973
10.4296
10.473213
10.517368
10.561448
10.604648
10.645956
10.684138
10.717735
10.745059
10.764103
10.772839
9.7474638
9.7405532
9.7348619
9.7303879
9.7271282
9.7250796
9.7242383
9.7245999
9.7261607
9.7289203
9.7328739
9.7380189
9.7443532
9.7518747
9.7605818
9.7704733
9.7815478
9.7938046
9.8072429
9.8218625
9.8376635
9.854647
9.8728154
9.8921729
9.9127266
9.9344869
9.9574687
9.9816928
10.007186
10.033981
10.06212
10.091649
10.12262
10.155088
10.189104
10.224715
10.261951
10.300819
10.341284
10.383258
10.42657
10.470947
10.515973
10.561065
10.605439
10.648083
10.687738
10.722874
10.75167
10.771886
10.781139
9.7308874
9.7238767
9.718116
9.7136027
9.7103334
9.7083044
9.7075115
9.7079496
9.709615
9.7125062
9.7166182
9.7219479
9.7284923
9.736249
9.7452158
9.7553909
9.7667724
9.7793589
9.7931493
9.8081425
9.8243384
9.8417374
9.8603412
9.8801535
9.9011804
9.9234314
9.9469204
9.9716664
9.9976944
10.025036
10.053729
10.083817
10.11535
10.148378
10.182953
10.219117
10.256902
10.296318
10.337341
10.379896
10.423837
10.468919
10.514765
10.560832
10.606365
10.650368
10.691565
10.728359
10.75879
10.780352
10.79021
9.715735
9.7086226
9.7027891
9.6982315
9.694946
9.6929283
9.6921739
9.692677
9.6944337
9.697442
9.7016961
9.7071924
9.7139277
9.7218988
9.731103
9.7415379
9.7532013
9.766091
9.7802055
9.7955434
9.8121037
9.8298866
9.8488931
9.8691262
9.8905914
9.9132972
9.9372563
9.9624863
9.9890104
10.016858
10.046064
10.076671
10.108723
10.14227
10.177358
10.21403
10.252318
10.292235
10.333765
10.376848
10.421359
10.467088
10.513699
10.560694
10.607364
10.652741
10.695546
10.734125
10.76638
10.789503
10.800084
9.701876
9.6946614
9.688753
9.6841474
9.6808403
9.6788271
9.6781028
9.678661
9.6804977
9.68361
9.6879919
9.6936392
9.7005479
9.7087147
9.7181362
9.7288095
9.7407319
9.7539008
9.7683141
9.7839699
9.8008669
9.8190046
9.8383837
9.8590065
9.8808776
9.9040048
9.9283998
9.9540785
9.9810627
10.009379
10.039062
10.070148
10.102681
10.136706
10.172267
10.209406
10.248154
10.288528
10.330517
10.374076
10.419104
10.46542
10.512735
10.560603
10.608374
10.655125
10.699596
10.740094
10.774387
10.799345
10.810812
9.6891928
9.6818763
9.6758918
9.6712355
9.6679028
9.6658885
9.6651872
9.6657919
9.6676986
9.6709036
9.6754004
9.6811844
9.6882512
9.6965967
9.7062173
9.7171096
9.7292702
9.7426963
9.7573851
9.7733345
9.7905426
9.8090086
9.8287324
9.849716
9.8719633
9.8954811
9.9202801
9.9463749
9.9737856
10.002537
10.03266
10.06419
10.097168
10.131634
10.167632
10.2052
10.244369
10.285158
10.327564
10.371552
10.417042
10.463887
10.51184
10.560517
10.609336
10.657444
10.703623
10.746174
10.782747
10.809877
10.822466
9.6775796
9.6701623
9.6641014
9.6593926
9.6560309
9.6540108
9.6533264
9.6539704
9.6559382
9.6592257
9.663826
9.669734
9.6769447
9.6854538
9.695257
9.7063504
9.7187303
9.7323934
9.7473366
9.7635571
9.7810529
9.7998224
9.8198654
9.8411832
9.863779
9.8876589
9.9128324
9.9393131
9.9671191
9.9962737
10.026805
10.058746
10.092135
10.127009
10.163408
10.20137
10.240926
10.282094
10.324876
10.369249
10.415152
10.462465
10.510989
10.560401
10.610199
10.65962
10.707527
10.752253
10.791374
10.8211
10.835166
9.666941
9.6594246
9.6532877
9.6485255
9.6451323
9.6431025
9.6424299
9.6431065
9.6451276
9.6484887
9.6531822
9.6592026
9.6665446
9.6752033
9.685174
9.6964523
9.7090342
9.7229158
9.7380937
9.7545647
9.7723264
9.7913769
9.8117155
9.8333427
9.8562615
9.880477
9.9059977
9.9328361
9.9610086
9.9905367
10.021446
10.053768
10.087536
10.122787
10.159558
10.197882
10.237791
10.279304
10.322427
10.367146
10.413414
10.46114
10.510166
10.560232
10.610921
10.661582
10.711199
10.758201
10.800154
10.833005
10.849118
9.6571905
9.649578
9.6433662
9.6385499
9.6351235
9.6330808
9.6324154
9.633119
9.6351866
9.6386131
9.6433905
9.649513
9.6569747
9.6657703
9.6758946
9.687343
9.7001108
9.714194
9.7295886
9.7462912
9.7642988
9.7836092
9.8042213
9.8261353
9.8493533
9.8738798
9.8997224
9.9268923
9.9554045
9.9852788
10.016539
10.049213
10.083333
10.118931
10.156044
10.194702
10.234935
10.276763
10.320194
10.365222
10.411814
10.4599
10.509361
10.559995
10.611473
10.663269
10.714529
10.763857
10.808935
10.845568
10.864658
9.6482493
9.6405461
9.6342606
9.6293902
9.6259289
9.6238707
9.6232088
9.6239344
9.6260424
9.629527
9.63438
9.640595
9.6481659
9.6570867
9.6673521
9.6789568
9.691896
9.706165
9.7217597
9.7386762
9.7569112
9.7764622
9.7973276
9.8195071
9.8430023
9.867817
9.8939579
9.921435
9.9502621
9.980457
10.012042
10.045042
10.079487
10.115407
10.152835
10.191801
10.232331
10.274446
10.318158
10.363463
10.41034
10.458739
10.508571
10.559687
10.611841
10.664634
10.717406
10.76903
10.817485
10.858711
10.882378
9.632259
9.6259022
9.6209776
9.6174804
9.6154045
9.6147428
9.6154861
9.6176289
9.6211652
9.6260863
9.6323853
9.6400556
9.6490911
9.6594859
9.6712344
9.6843313
9.6987718
9.7145511
9.7316653
9.7501105
9.769884
9.7909838
9.8134091
9.8371611
9.8622428
9.8886601
9.9164219
9.9455407
9.9760326
10.007918
10.04122
10.075966
10.112183
10.149902
10.189151
10.229955
10.272334
10.3163
10.361855
10.408984
10.457653
10.507799
10.559314
10.612027
10.665656
10.719741
10.773495
10.825442
10.87221
10.903215
9.624659
9.6182287
9.6132497
9.6097159
9.6076206
9.6069563
9.6077135
9.6098865
9.6134686
9.6184508
9.624826
9.6325871
9.6417275
9.652241
9.6641217
9.6773639
9.6919624
9.7079122
9.7252089
9.7438485
9.7638278
9.7851444
9.8077974
9.831787
9.857116
9.8837893
9.9118148
9.9412037
9.9719707
10.004134
10.037716
10.07274
10.109232
10.14722
10.18673
10.227786
10.270406
10.314604
10.360384
10.407737
10.45664
10.507049
10.558891
10.612049
10.666342
10.721485
10.77703
10.832215
10.885241
10.928571
9.6176838
9.6111823
9.6061496
9.6025789
9.6004629
9.5997939
9.6005618
9.6027606
9.6063833
9.6114206
9.6178648
9.6257086
9.634945
9.6455675
9.6575697
9.6709456
9.6856898
9.7017969
9.7192621
9.7380813
9.7582509
9.7797681
9.8026316
9.8268413
9.8523991
9.8793094
9.907579
9.9372181
9.9682398
10.000661
10.034501
10.069782
10.106529
10.144765
10.184516
10.225804
10.268646
10.313056
10.359039
10.406591
10.455698
10.506328
10.558434
10.611939
10.666734
10.722661
10.77952
10.837136
10.895641
10.956681
9.6112806
9.6047106
9.5996255
9.5960182
9.5938807
9.593205
9.5939808
9.5962017
9.5998604
9.6049471
9.6114539
9.6193731
9.6286974
9.6394198
9.6515337
9.6650327
9.6799111
9.6961633
9.7137841
9.7327692
9.7531146
9.7748173
9.7978754
9.8222887
9.8480583
9.8751878
9.9036834
9.9335539
9.9648113
9.9974706
10.03155
10.067069
10.10405
10.142517
10.18249
10.223991
10.267038
10.311641
10.357809
10.40554
10.454825
10.505643
10.557961
10.611732
10.666892
10.72336
10.781062
10.840033
10.900743
10.964387
9.6054022
9.5987665
9.5936305
9.5899869
9.5878274
9.5871437
9.587925
9.5901648
9.5938553
9.5989865
9.60555
9.6135379
9.6229425
9.6337565
9.645973
9.6595853
9.6745873
9.6909733
9.7087377
9.7278759
9.7483837
9.7702578
9.7934959
9.8180973
9.8440628
9.8713952
9.9000997
9.9301843
9.9616597
9.9945394
10.02884
10.064579
10.101777
10.140456
10.180634
10.222333
10.265567
10.310348
10.356685
10.404577
10.454019
10.504996
10.557487
10.611462
10.666882
10.723708
10.781917
10.841567
10.902988
10.966636
9.6000058
9.593307
9.5881217
9.5844425
9.5822608
9.5815679
9.5823528
9.5846086
9.5883272
9.5934984
9.6001133
9.6081638
9.6176419
9.6285399
9.6408506
9.6545671
9.669683
9.6861922
9.704089
9.7233685
9.7440262
9.7660586
9.789463
9.8142383
9.8403848
9.8679046
9.8968024
9.9270849
9.9587617
9.9918451
10.02635
10.062292
10.099691
10.138565
10.178934
10.220814
10.264221
10.309166
10.355656
10.403694
10.453276
10.504391
10.557026
10.611158
10.666764
10.723823
10.782326
10.842309
10.903936
10.967335
9.5950521
9.5882928
9.5830601
9.5793462
9.5771423
9.5764394
9.5772262
9.5794955
9.583239
9.588446
9.5951076
9.6032152
9.6127604
9.6237353
9.6361326
9.6499449
9.6651656
9.6817883
9.6998072
9.719217
9.740013
9.7621915
9.7857494
9.8106853
9.8369989
9.8646919
9.8937681
9.9242335
9.9560964
9.9893679
10.024061
10.060192
10.097776
10.136831
10.177374
10.219422
10.262988
10.308084
10.354715
10.402886
10.452593
10.503829
10.556584
10.610842
10.666585
10.7238
10.782477
10.84263
10.904319
10.967561
9.5905053
9.5836882
9.57841
9.5746624
9.5724366
9.5717231
9.5725105
9.5747911
9.5785567
9.583796
9.5904998
9.5986593
9.6082659
9.6193114
9.631788
9.6456884
9.6610054
9.6777327
9.695864
9.715394
9.7363176
9.7586307
9.7823303
9.8074143
9.8338822
9.8617351
9.890976
9.9216101
9.9536449
9.9870901
10.021958
10.058261
10.096016
10.135239
10.175943
10.218146
10.261859
10.307093
10.353854
10.402145
10.451965
10.503309
10.556168
10.610528
10.666377
10.723701
10.78249
10.842739
10.904459
10.96763
9.5863327
9.5794606
9.5741388
9.5703588
9.5681114
9.567387
9.5681738
9.5704641
9.574249
9.5795173
9.5862595
9.5944663
9.604129
9.6152391
9.6277886
9.6417698
9.6571755
9.673999
9.6922338
9.7118743
9.7329155
9.7553528
9.7791829
9.8044036
9.8310137
9.859014
9.8884068
9.9191966
9.9513899
9.9849954
10.020024
10.056487
10.0944
10.133776
10.17463
10.216975
10.260823
10.306184
10.353064
10.401466
10.451389
10.502829
10.555778
10.610226
10.66616
10.723566
10.782432
10.842745
10.904492
10.967645
9.5825044
9.5755801
9.5702168
9.5664057
9.5641372
9.5634018
9.5641872
9.5664855
9.5702876
9.575582
9.5823589
9.5906089
9.6003229
9.6114921
9.6241084
9.6381639
9.653651
9.6705628
9.6888929
9.7086353
9.7297846
9.7523363
9.7762867
9.8016332
9.8283744
9.8565105
9.8860433
9.9169766
9.949316
9.9830691
10.018246
10.054857
10.092915
10.132433
10.173424
10.2159
10.259873
10.305351
10.352341
10.400844
10.45086
10.502387
10.555416
10.609939
10.665944
10.723417
10.782342
10.842703
10.904479
10.967641
9.5789931
9.5720195
9.5666167
9.5627758
9.5604871
9.5597406
9.560524
9.562829
9.5666463
9.5719642
9.5787726
9.5870619
9.5968227
9.6080461
9.6207236
9.6348472
9.6504091
9.6674022
9.6858198
9.7056558
9.7269046
9.7495615
9.7736226
9.7990849
9.8259468
9.854208
9.8838697
9.9149351
9.947409
9.9812981
10.016611
10.053358
10.09155
10.131199
10.172316
10.214914
10.259002
10.304587
10.351677
10.400273
10.450375
10.50198
10.555081
10.60967
10.665736
10.723264
10.782239
10.842641
10.904447
10.967629
9.5757739
9.5687537
9.5633136
9.5594444
9.5571363
9.5563789
9.5571598
9.5594703
9.5633011
9.5686402
9.5754771
9.5838022
9.5936058
9.6048787
9.6176124
9.6317984
9.6474289
9.6644967
9.6829947
9.7029166
9.7242569
9.7470106
9.7711734
9.7967422
9.8237151
9.8520912
9.8818715
9.9130584
9.945656
9.9796703
10.015109
10.051981
10.090296
10.130065
10.171299
10.214008
10.258201
10.303886
10.351068
10.399749
10.449929
10.501605
10.554772
10.60942
10.665539
10.723116
10.782133
10.842572
10.904408
10.967615
9.572824
9.5657599
9.5602846
9.5563887
9.554062
9.553294
9.5540721
9.5563872
9.56023
9.5655881
9.5724511
9.5808087
9.5906514
9.6019697
9.6147547
9.6289979
9.6446914
9.6618276
9.6803993
9.7004003
9.7218246
9.744667
9.7689232
9.7945899
9.8216647
9.8501465
9.8800357
9.9113342
9.9440455
9.9781748
10.013729
10.050715
10.089143
10.129023
10.170364
10.213176
10.257466
10.303242
10.350508
10.399268
10.449519
10.50126
10.554486
10.609187
10.665354
10.722974
10.782029
10.842501
10.904367
10.967601
9.5701224
9.5630172
9.5575088
9.5535878
9.5512435
9.5504653
9.5512403
9.5535594
9.5574128
9.5627881
9.5696746
9.578062
9.5879403
9.5993001
9.6121321
9.6264278
9.6421789
9.6593777
9.6780172
9.6980905
9.7195918
9.7425157
9.7668577
9.7926141
9.8197824
9.8483611
9.8783502
9.9097512
9.9425668
9.9768016
10.012461
10.049553
10.088086
10.128067
10.169506
10.212412
10.256791
10.302651
10.349995
10.398826
10.449143
10.500943
10.554222
10.608972
10.665182
10.72284
10.78193
10.842432
10.904327
10.967587
9.5676499
9.5605062
9.554967
9.5510225
9.5486617
9.5478737
9.5486456
9.5509679
9.5548309
9.5602217
9.5671296
9.5755441
9.585455
9.5968526
9.6097277
9.6240713
9.6398752
9.6571315
9.6758328
9.6959725
9.7175443
9.7405428
9.7649633
9.790802
9.8180559
9.8467235
9.8768042
9.908299
9.9412103
9.9755417
10.011299
10.048487
10.087115
10.127189
10.168718
10.21171
10.256172
10.302108
10.349523
10.39842
10.448797
10.500652
10.55398
10.608773
10.665022
10.722715
10.781836
10.842367
10.904288
10.967574
9.5653889
9.5582094
9.5526416
9.5486751
9.5462989
9.5455018
9.5462707
9.5485957
9.5524672
9.5578721
9.5647994
9.5732386
9.5831792
9.5946114
9.6075258
9.6219133
9.6377654
9.6550742
9.6738322
9.6940325
9.7156689
9.7387357
9.763228
9.7891419
9.8164742
9.8452231
9.8753876
9.9069683
9.939967
9.974387
10.010233
10.04751
10.086225
10.126384
10.167996
10.211067
10.255603
10.30161
10.349091
10.398047
10.448479
10.500383
10.553756
10.608589
10.664874
10.722599
10.781748
10.842305
10.904251
10.967561
9.5633234
9.5561106
9.5505162
9.5465297
9.5441392
9.5433336
9.5440994
9.5464268
9.5503059
9.5557236
9.5626686
9.5711303
9.581098
9.5925618
9.6055121
9.6199396
9.6358358
9.6531926
9.6720024
9.6922581
9.7139534
9.7370825
9.7616405
9.7876231
9.8150271
9.8438501
9.8740912
9.9057504
9.9388291
9.9733299
10.009257
10.046615
10.085409
10.125647
10.167334
10.210477
10.255082
10.301153
10.348694
10.397705
10.448187
10.500137
10.55355
10.60842
10.664737
10.72249
10.781666
10.842247
10.904216
10.967549
9.5614383
9.5541947
9.5485761
9.5445712
9.5421678
9.5413542
9.5421172
9.5444467
9.5483326
9.5537618
9.560723
9.5692052
9.5791977
9.5906903
9.6036733
9.6181374
9.6340738
9.6514744
9.6703313
9.6906376
9.7123867
9.7355727
9.7601905
9.7862358
9.813705
9.8425958
9.8729067
9.9046374
9.937789
9.9723636
10.008364
10.045796
10.084663
10.124972
10.166728
10.209938
10.254605
10.300735
10.34833
10.397391
10.447919
10.49991
10.55336
10.608263
10.66461
10.72239
10.781589
10.842193
10.904184
10.967538
9.5597199
9.5524481
9.5468076
9.5427861
9.5403709
9.5395502
9.5403105
9.5426418
9.5465339
9.5519737
9.5589495
9.5674504
9.5774655
9.5889844
9.6019972
9.6164946
9.6324677
9.6499081
9.6688081
9.6891603
9.7109584
9.7341961
9.7588684
9.7849707
9.8124994
9.8414518
9.8718262
9.9036221
9.9368401
9.9714818
10.00755
10.045049
10.083982
10.124356
10.166175
10.209444
10.254169
10.300352
10.347997
10.397104
10.447673
10.499702
10.553186
10.608119
10.664493
10.722297
10.781519
10.842143
10.904154
10.967528
9.5581554
9.5508581
9.545198
9.5411617
9.5387361
9.5379089
9.5386668
9.5409997
9.5448976
9.5503469
9.5573361
9.565854
9.5758897
9.5874325
9.6004726
9.6150003
9.6310067
9.6484834
9.6674224
9.6878165
9.709659
9.7329438
9.7576656
9.7838197
9.8114024
9.8404107
9.8708428
9.9026978
9.935976
9.9706787
10.006808
10.044368
10.083362
10.123794
10.16567
10.208994
10.253771
10.300003
10.347693
10.396841
10.447449
10.499512
10.553027
10.607987
10.664386
10.722212
10.781453
10.842096
10.904125
10.967519
9.5567329
9.5494128
9.5437358
9.5396867
9.5372518
9.5364189
9.5371747
9.5395091
9.5434121
9.5488702
9.5558716
9.5644051
9.5744595
9.5860242
9.599089
9.6136442
9.6296809
9.6471905
9.6661649
9.6865969
9.7084797
9.7318072
9.7565738
9.7827749
9.8104064
9.8394655
9.8699498
9.9018584
9.9351912
9.9699491
10.006134
10.043749
10.082797
10.123283
10.165211
10.208584
10.253408
10.299684
10.347415
10.396602
10.447243
10.499338
10.552881
10.607866
10.664287
10.722133
10.781393
10.842053
10.9041
10.96751
9.5554411
9.5481017
9.5424104
9.5383504
9.5359075
9.5350696
9.5358236
9.5381594
9.5420671
9.5475331
9.5545458
9.5630934
9.5731649
9.5847494
9.5978367
9.612417
9.6284811
9.6460204
9.6650269
9.6854933
9.7074125
9.7307785
9.7555856
9.7818291
9.8095049
9.8386097
9.8691412
9.9010982
9.9344803
9.9692881
10.005523
10.043188
10.082286
10.12282
10.164794
10.208212
10.253078
10.299395
10.347163
10.396384
10.447057
10.499179
10.552747
10.607756
10.664197
10.722061
10.781338
10.842014
10.904076
10.967502
9.5542688
9.5469153
9.5412124
9.5371431
9.5346934
9.5338512
9.5346036
9.5369407
9.5408527
9.5463261
9.553349
9.5619096
9.5719967
9.5835992
9.5967068
9.6113097
9.6273986
9.6449649
9.6640004
9.6844976
9.7064497
9.7298504
9.7546941
9.7809758
9.8086913
9.8378374
9.8684114
9.900412
9.9338384
9.9686911
10.004971
10.042681
10.081823
10.122401
10.164417
10.207876
10.25278
10.299132
10.346934
10.396186
10.446887
10.499035
10.552626
10.607655
10.664115
10.721996
10.781288
10.841978
10.904054
10.967494
9.5532046
9.5458456
9.5401329
9.536056
9.5336006
9.5327547
9.5335057
9.5358441
9.5397601
9.5452402
9.5522724
9.5608449
9.5709462
9.5825651
9.5956911
9.6103145
9.6264257
9.6440162
9.6630777
9.6836028
9.7055844
9.7290163
9.7538927
9.7802087
9.8079599
9.837143
9.8677552
9.8997948
9.933261
9.968154
10.004475
10.042225
10.081406
10.122023
10.164077
10.207572
10.252511
10.298896
10.346727
10.396007
10.446733
10.498904
10.552516
10.607564
10.66404
10.721936
10.781242
10.841945
10.904035
10.967488
9.5448833
9.539164
9.5350809
9.5326207
9.5317717
9.5325216
9.5348611
9.5387807
9.544267
9.5513079
9.5598913
9.5700054
9.5816391
9.5947818
9.6094236
9.6255549
9.6431671
9.662252
9.6828019
9.70481
9.7282698
9.7531755
9.7795221
9.8073052
9.8365213
9.8671675
9.8992421
9.9327438
9.9676727
10.004029
10.041815
10.081033
10.121684
10.163772
10.207299
10.252269
10.298683
10.346541
10.395846
10.446595
10.498787
10.552417
10.607482
10.663973
10.721883
10.781201
10.841916
10.904017
10.967482
9.5440236
9.5382986
9.5342104
9.5317461
9.5308944
9.5316433
9.533984
9.537907
9.543399
9.5504478
9.5590411
9.569167
9.5808141
9.5939718
9.60863
9.6247793
9.6424109
9.6615166
9.6820888
9.7041204
9.7276049
9.7525367
9.7789106
9.8067221
9.8359675
9.866644
9.8987495
9.9322828
9.9672436
10.003632
10.04145
10.080699
10.121381
10.163499
10.207056
10.252053
10.298492
10.346375
10.395701
10.446471
10.498681
10.552328
10.607407
10.663912
10.721834
10.781164
10.84189
10.904001
10.967477
9.5432527
9.5375305
9.5334375
9.5309697
9.5301158
9.5308638
9.5332054
9.5371315
9.5426288
9.549685
9.5582874
9.568424
9.5800831
9.5932543
9.6079272
9.6240925
9.6417414
9.6608655
9.6814574
9.7035097
9.7270163
9.7519711
9.778369
9.8062055
9.8354769
9.8661801
9.8983129
9.9318741
9.9668631
10.00328
10.041126
10.080403
10.121113
10.163257
10.206839
10.25186
10.298322
10.346226
10.395572
10.44636
10.498586
10.552248
10.607341
10.663858
10.721791
10.781131
10.841866
10.903987
10.967472
9.536852
9.5327558
9.530285
9.529429
9.5301763
9.5325187
9.5364476
9.5419498
9.5490128
9.5576236
9.5677698
9.5794398
9.5926229
9.6073089
9.6234884
9.6411525
9.6602929
9.680902
9.7029727
9.7264985
9.7514735
9.7778926
9.805751
9.8350451
9.8657717
9.8979285
9.9315141
9.9665278
10.00297
10.04084
10.080142
10.120875
10.163043
10.206647
10.251689
10.298171
10.346094
10.395458
10.446261
10.498502
10.552177
10.607282
10.663809
10.721752
10.781101
10.841845
10.903975
10.967468
9.5362599
9.5321591
9.5296858
9.5288279
9.5295743
9.5319174
9.5358488
9.5413555
9.5484249
9.5570434
9.5671983
9.578878
9.5920717
9.6067693
9.6229612
9.6406386
9.6597932
9.6804174