/*--------------------------------*- C++ -*----------------------------------*\
| =========                 |                                                 |
| \\      /  F ield         | OpenFOAM: The Open Source CFD Toolbox           |
|  \\    /   O peration     | Version:  2312                                  |
|   \\  /    A nd           | Website:  www.openfoam.com                      |
|    \\/     M anipulation  |                                                 |
\*---------------------------------------------------------------------------*/
FoamFile
{
    version     2.0;
    format      ascii;
    arch        "LSB;label=32;scalar=64";
    class       volScalarField;
    location    "0.07";
    object      N2;
}
// * * * * * * * * * * * * * * * * * * * * * * * * * * * * * * * * * * * * * //

dimensions      [0 0 0 0 0 0 0];

internalField   nonuniform List<scalar> 
3257
(
0.76926933
0.76931027
0.76934798
0.76938289
0.76941532
0.76944545
0.76947327
0.76949796
0.76951571
0.76951084
0.76942019
0.76936148
0.76932827
0.76929352
0.7692641
0.76924189
0.76922319
0.76920763
0.76919588
0.76918781
0.7691826
0.76917963
0.76917876
0.76918012
0.76918391
0.76919019
0.76919894
0.76921004
0.76922334
0.76923865
0.76925582
0.76927471
0.76929522
0.76931726
0.76934078
0.76936575
0.76939213
0.76941988
0.76944889
0.76947901
0.76950998
0.76954145
0.76957294
0.76960385
0.76963348
0.76966105
0.76968572
0.76970668
0.76972317
0.76973455
0.76974036
0.76798309
0.76808286
0.76817679
0.7682654
0.76834908
0.76842818
0.76850287
0.768573
0.76863762
0.76869394
0.76873718
0.76877462
0.76880918
0.76883831
0.76886412
0.76888804
0.76890979
0.76892989
0.76894916
0.768968
0.76898641
0.76900442
0.76902228
0.76904034
0.76905896
0.7690784
0.76909882
0.76912028
0.76914279
0.76916633
0.76919087
0.76921639
0.76924288
0.76927033
0.76929875
0.76932818
0.76935863
0.76939008
0.76942247
0.76945567
0.76948946
0.7695235
0.76955732
0.76959034
0.76962186
0.76965109
0.76967719
0.76969932
0.7697167
0.76972869
0.76973481
0.76707575
0.76719962
0.76731856
0.76743278
0.76754246
0.76764775
0.76774879
0.76784558
0.76793801
0.7680257
0.76810814
0.76818573
0.7682588
0.76832714
0.76839117
0.7684513
0.7685077
0.76856071
0.76861078
0.76865821
0.76870322
0.76874602
0.76878694
0.76882633
0.76886456
0.76890193
0.76893869
0.76897503
0.76901109
0.76904697
0.76908277
0.76911858
0.76915448
0.76919056
0.76922692
0.76926363
0.76930077
0.76933838
0.76937645
0.76941487
0.76945347
0.76949192
0.76952979
0.76956649
0.76960132
0.76963348
0.7696621
0.76968631
0.76970529
0.76971838
0.76972505
0.76645829
0.76659099
0.76671987
0.76684498
0.76696638
0.76708412
0.76719825
0.76730878
0.76741572
0.76751902
0.76761862
0.76771453
0.76780675
0.76789525
0.76798009
0.76806135
0.76813912
0.76821351
0.7682847
0.76835283
0.76841804
0.76848049
0.7685404
0.76859801
0.76865357
0.76870733
0.76875949
0.76881026
0.76885981
0.76890829
0.76895584
0.76900261
0.76904872
0.76909434
0.76913958
0.76918458
0.76922945
0.76927427
0.76931906
0.76936375
0.76940817
0.76945204
0.76949492
0.76953623
0.76957524
0.76961112
0.76964296
0.76966984
0.7696909
0.76970539
0.76971278
0.76598977
0.76613031
0.7662673
0.76640076
0.76653075
0.76665731
0.7667805
0.76690033
0.76701686
0.76713009
0.76724005
0.76734676
0.76745023
0.76755049
0.76764755
0.76774146
0.76783225
0.76791998
0.76800472
0.76808655
0.76816553
0.76824176
0.76831537
0.76838649
0.76845527
0.76852187
0.76858645
0.76864917
0.76871016
0.76876957
0.76882755
0.76888424
0.7689398
0.76899437
0.76904812
0.76910118
0.76915369
0.76920573
0.76925734
0.76930848
0.76935899
0.76940858
0.76945682
0.7695031
0.76954668
0.76958666
0.76962208
0.76965195
0.76967532
0.7696914
0.7696996
0.76557878
0.76573034
0.76587802
0.76602186
0.76616196
0.76629839
0.76643123
0.76656054
0.76668639
0.76680885
0.76692798
0.76704384
0.76715647
0.76726595
0.76737231
0.76747563
0.76757595
0.76767334
0.76776785
0.76785955
0.7679485
0.76803477
0.76811845
0.76819961
0.76827837
0.76835483
0.76842911
0.76850131
0.76857155
0.76863997
0.76870668
0.76877182
0.76883554
0.76889799
0.76895932
0.76901967
0.76907918
0.76913794
0.76919599
0.76925329
0.76930968
0.76936489
0.76941844
0.76946971
0.76951791
0.76956209
0.7696012
0.76963416
0.76965995
0.7696777
0.76968674
0.76518489
0.76535021
0.76551107
0.76566758
0.76581984
0.76596796
0.76611204
0.76625219
0.7663885
0.76652107
0.76664999
0.76677537
0.76689728
0.76701582
0.76713107
0.76724312
0.76735206
0.76745797
0.76756092
0.767661
0.76775828
0.76785283
0.76794475
0.76803411
0.76812099
0.76820549
0.7682877
0.76836772
0.76844564
0.76852159
0.76859568
0.76866802
0.76873877
0.76880806
0.76887605
0.76894287
0.76900865
0.7690735
0.76913744
0.76920045
0.76926236
0.76932288
0.76938151
0.76943761
0.76949032
0.76953862
0.76958138
0.76961743
0.76964565
0.76966507
0.76967497
0.76479594
0.76497642
0.76515186
0.76532237
0.76548808
0.76564912
0.76580561
0.76595767
0.76610544
0.76624902
0.76638855
0.76652413
0.76665589
0.76678394
0.76690839
0.76702936
0.76714694
0.76726126
0.76737241
0.7674805
0.76758561
0.76768784
0.76778729
0.76788404
0.76797819
0.76806983
0.76815906
0.76824596
0.76833065
0.76841323
0.76849381
0.76857252
0.76864949
0.76872486
0.76879879
0.76887141
0.76894287
0.76901324
0.76908259
0.76915086
0.7692179
0.76928339
0.76934682
0.76940752
0.76946455
0.76951684
0.76956317
0.76960225
0.76963285
0.76965393
0.76966468
0.76441132
0.76460739
0.76479785
0.76498284
0.7651625
0.76533696
0.76550637
0.76567087
0.76583059
0.76598568
0.76613627
0.7662825
0.7664245
0.76656242
0.76669638
0.76682651
0.76695294
0.7670758
0.76719521
0.76731129
0.76742415
0.7675339
0.76764066
0.76774453
0.76784561
0.767944
0.76803982
0.76813315
0.76822411
0.76831282
0.76839938
0.76848394
0.76856662
0.76864758
0.76872697
0.76880493
0.76888161
0.76895709
0.76903144
0.76910461
0.76917644
0.7692466
0.76931457
0.76937963
0.76944081
0.76949695
0.76954672
0.76958875
0.76962169
0.76964439
0.76965597
0.76403384
0.76424534
0.76445072
0.76465012
0.76484369
0.76503157
0.76521392
0.7653909
0.76556265
0.76572932
0.76589108
0.76604806
0.76620042
0.76634831
0.76649188
0.76663127
0.76676662
0.76689808
0.76702579
0.76714987
0.76727046
0.76738769
0.76750167
0.76761253
0.76772039
0.76782535
0.76792754
0.76802706
0.76812404
0.76821859
0.76831085
0.76840095
0.76848903
0.76857525
0.76865978
0.76874275
0.76882433
0.76890462
0.76898367
0.76906144
0.76913779
0.76921237
0.76928466
0.76935389
0.76941904
0.76947888
0.769532
0.76957691
0.76961214
0.76963644
0.76964884
0.76366653
0.76389303
0.76411292
0.76432636
0.7645335
0.76473451
0.76492953
0.76511875
0.76530231
0.76548038
0.76565313
0.76582072
0.76598332
0.76614107
0.76629415
0.76644271
0.7665869
0.76672688
0.7668628
0.76699481
0.76712304
0.76724765
0.76736875
0.76748649
0.767601
0.76771239
0.7678208
0.76792635
0.76802916
0.76812937
0.76822712
0.76832255
0.76841582
0.76850708
0.76859651
0.76868427
0.76877051
0.76885536
0.76893888
0.76902104
0.76910168
0.76918048
0.76925689
0.76933011
0.7693991
0.76946253
0.76951891
0.76956663
0.76960412
0.76962999
0.76964321
0.76331168
0.76355261
0.76378648
0.76401345
0.76423369
0.76444736
0.76465464
0.76485569
0.7650507
0.76523983
0.76542325
0.76560115
0.7657737
0.76594106
0.7661034
0.7662609
0.76641372
0.76656203
0.76670598
0.76684573
0.76698144
0.76711326
0.76724132
0.76736578
0.76748678
0.76760444
0.76771891
0.76783032
0.7679388
0.7680445
0.76814757
0.76824815
0.76834641
0.76844253
0.76853668
0.76862903
0.76871975
0.76880897
0.76889676
0.7689831
0.76906785
0.76915068
0.76923105
0.76930812
0.76938081
0.76944773
0.7695073
0.76955779
0.76959751
0.76962496
0.76963898
0.76297075
0.7632255
0.76347275
0.76371269
0.76394548
0.76417131
0.76439034
0.76460277
0.76480877
0.76500853
0.76520223
0.76539005
0.76557218
0.7657488
0.76592009
0.76608622
0.76624737
0.76640373
0.76655544
0.76670269
0.76684564
0.76698444
0.76711925
0.76725022
0.76737751
0.76750125
0.76762158
0.76773867
0.76785264
0.76796365
0.76807185
0.76817741
0.7682805
0.76838129
0.76847999
0.76857675
0.76867177
0.76876518
0.76885706
0.76894741
0.7690361
0.7691228
0.76920696
0.76928775
0.76936403
0.76943437
0.76949707
0.7695503
0.76959224
0.76962125
0.76963609
0.76264451
0.76291246
0.76317251
0.76342483
0.76366962
0.76390706
0.76413733
0.76436063
0.76457715
0.76478708
0.76499061
0.76518793
0.76537925
0.76556474
0.76574459
0.76591901
0.76608816
0.76625223
0.76641141
0.76656586
0.76671576
0.76686128
0.76700258
0.76713982
0.76727315
0.76740274
0.76752873
0.76765128
0.76777053
0.76788666
0.76799981
0.76811016
0.76821789
0.76832319
0.76842624
0.76852725
0.76862639
0.76872382
0.76881962
0.76891381
0.76900627
0.76909668
0.76918449
0.76926887
0.76934864
0.76942231
0.76948811
0.76954407
0.76958823
0.76961882
0.76963448
0.76233325
0.76261379
0.76288604
0.76315019
0.76340642
0.76365494
0.76389593
0.76412961
0.76435615
0.76457578
0.76478869
0.76499508
0.76519516
0.76538912
0.76557716
0.76575948
0.76593627
0.76610772
0.76627402
0.76643536
0.76659191
0.76674386
0.76689136
0.7670346
0.76717373
0.76730892
0.76744033
0.76756811
0.76769244
0.76781346
0.76793136
0.76804631
0.76815849
0.7682681
0.76837534
0.76848041
0.7685835
0.76868476
0.76878432
0.76888218
0.76897824
0.76907221
0.76916353
0.76925138
0.76933455
0.76941149
0.76948034
0.76953903
0.76958543
0.76961762
0.76963412
0.76203693
0.76232948
0.76261337
0.76288878
0.76315592
0.76341499
0.7636662
0.76390975
0.76414585
0.76437472
0.76459656
0.76481158
0.76502
0.76522202
0.76541786
0.7656077
0.76579177
0.76597025
0.76614334
0.76631124
0.76647413
0.76663219
0.76678562
0.76693458
0.76707924
0.76721978
0.76735635
0.76748914
0.7676183
0.76774401
0.76786644
0.76798578
0.76810222
0.76821595
0.76832719
0.76843614
0.768543
0.76864793
0.76875106
0.76885242
0.76895193
0.76904929
0.76914399
0.76923518
0.76932166
0.76940182
0.76947372
0.76953514
0.76958381
0.76961765
0.76963501
0.76175534
0.76205933
0.7623543
0.76264044
0.76291796
0.76318708
0.763448
0.76370095
0.76394614
0.7641838
0.76441413
0.76463736
0.76485371
0.7650634
0.76526664
0.76546364
0.76565461
0.76583977
0.76601932
0.76619345
0.76636237
0.76652626
0.76668531
0.76683971
0.76698963
0.76713525
0.76727675
0.7674143
0.76754807
0.76767824
0.76780499
0.76792851
0.76804901
0.76816667
0.76828172
0.76839437
0.76850482
0.76861324
0.76871977
0.76882447
0.76892725
0.76902786
0.76912579
0.76922022
0.76930992
0.76939325
0.76946819
0.76953239
0.76958339
0.76961892
0.76963717
0.76148812
0.76180301
0.76210852
0.76240486
0.76269226
0.76297094
0.7632411
0.76350299
0.76375682
0.76400282
0.76424122
0.76447225
0.76469613
0.76491309
0.76512336
0.76532715
0.76552469
0.76571619
0.76590185
0.7660819
0.76625654
0.76642595
0.76659034
0.7667499
0.76690482
0.76705527
0.76720144
0.76734351
0.76748165
0.76761606
0.76774692
0.76787443
0.76799877
0.76812018
0.76823885
0.76835501
0.76846887
0.7685806
0.76869037
0.76879822
0.76890412
0.76900783
0.76910886
0.7692064
0.76929924
0.76938572
0.76946371
0.76953074
0.76958416
0.76962147
0.76964068
0.76123487
0.76156011
0.76187565
0.76218171
0.76247849
0.76276624
0.76304519
0.76331556
0.76357759
0.76383151
0.76407757
0.76431599
0.76454702
0.76477088
0.76498782
0.76519805
0.7654018
0.76559931
0.76579078
0.76597643
0.76615648
0.76633113
0.76650058
0.76666504
0.76682468
0.76697971
0.76713031
0.76727666
0.76741896
0.76755739
0.76769214
0.76782342
0.76795143
0.76807638
0.76819849
0.76831798
0.76843507
0.76854995
0.76866277
0.76877362
0.76888248
0.76898912
0.76909311
0.76919366
0.76928958
0.76937917
0.76946025
0.76953019
0.76958615
0.76962535
0.76964557
0.76099513
0.76133022
0.76165529
0.76197056
0.76227626
0.76257263
0.7628599
0.76313832
0.76340813
0.76366957
0.76392288
0.76416832
0.76440611
0.76463652
0.76485976
0.76507609
0.76528574
0.76548893
0.76568589
0.76587685
0.76606203
0.76624163
0.76641587
0.76658495
0.76674908
0.76690843
0.76706322
0.76721364
0.76735986
0.7675021
0.76764054
0.76777539
0.76790687
0.76803517
0.76816054
0.76828319
0.76840333
0.76852118
0.7686369
0.76875059
0.76886223
0.76897167
0.76907848
0.76918193
0.76928084
0.76937353
0.76945775
0.76953072
0.76958935
0.76963061
0.76965194
0.76076844
0.76111288
0.76144699
0.76177101
0.76208516
0.7623897
0.76268487
0.76297092
0.7632481
0.76351665
0.76377684
0.76402892
0.76427312
0.76450971
0.76473893
0.76496103
0.76517624
0.76538481
0.76558697
0.76578295
0.76597297
0.76615726
0.76633602
0.76650948
0.76667783
0.76684129
0.76700004
0.76715429
0.76730423
0.76745007
0.767592
0.76773023
0.76786498
0.76799646
0.7681249
0.76825053
0.76837357
0.76849422
0.76861267
0.76872903
0.76884331
0.76895538
0.76906488
0.76917111
0.76927295
0.76936873
0.76945613
0.76953227
0.76959377
0.76963726
0.76965982
0.76055432
0.76090763
0.76125031
0.76158261
0.76190478
0.76221706
0.7625197
0.76281298
0.76309713
0.76337242
0.76363912
0.76389747
0.76414773
0.76439018
0.76462504
0.76485259
0.76507307
0.76528672
0.76549379
0.7656945
0.7658891
0.76607781
0.76626085
0.76643844
0.76661079
0.7667781
0.7669406
0.76709847
0.76725192
0.76740115
0.76754638
0.7676878
0.76782565
0.76796013
0.76809148
0.76821992
0.76834568
0.76846898
0.76859
0.76870887
0.76882564
0.7689402
0.76905224
0.76916114
0.76926582
0.76936465
0.76945531
0.76953476
0.76959936
0.76964532
0.76966927
0.76035229
0.76071399
0.76106479
0.76140494
0.76173468
0.76205429
0.76236401
0.76266411
0.76295486
0.76323652
0.76350936
0.76377365
0.76402964
0.76427761
0.76451781
0.76475051
0.76497595
0.7651944
0.76540609
0.76561128
0.7658102
0.76600308
0.76619015
0.76637163
0.76654775
0.76671871
0.76688473
0.76704602
0.76720278
0.76735522
0.76750355
0.76764799
0.76778875
0.76792606
0.76806015
0.76819125
0.76831958
0.76844537
0.7685688
0.76869003
0.76880913
0.76892603
0.76904047
0.76915191
0.76925934
0.7693612
0.76945517
0.76953809
0.76960606
0.76965476
0.76968029
0.76016187
0.76053151
0.76088998
0.76123755
0.76157446
0.76190098
0.76221739
0.76252395
0.76282093
0.7631086
0.76338724
0.76365713
0.76391853
0.76417171
0.76441694
0.76465449
0.76488463
0.76510759
0.76532366
0.76553306
0.76573604
0.76593285
0.76612372
0.76630888
0.76648855
0.76666294
0.76683229
0.76699679
0.76715667
0.76731213
0.76746339
0.76761067
0.76775418
0.76789416
0.76803082
0.76816442
0.76829516
0.76842329
0.768549
0.76867244
0.76879372
0.76891281
0.76902951
0.76914334
0.76925341
0.76935824
0.76945556
0.76954213
0.76961376
0.76966557
0.76969294
0.75998258
0.76035972
0.76072544
0.76108001
0.76142368
0.76175674
0.76207946
0.7623921
0.76269496
0.76298831
0.76327242
0.76354759
0.76381408
0.76407218
0.76432216
0.76456428
0.76479883
0.76502606
0.76524623
0.7654596
0.76566642
0.76586693
0.76606137
0.76624999
0.76643299
0.76661062
0.7667831
0.76695063
0.76711344
0.76727175
0.76742576
0.76757571
0.76772181
0.76786429
0.76800339
0.76813933
0.76827235
0.76840267
0.7685305
0.76865602
0.76877933
0.76890047
0.76901927
0.76913535
0.76924793
0.76935566
0.76945634
0.76954674
0.76962236
0.76967773
0.76970726
0.75981395
0.76019816
0.76057072
0.76093189
0.76128195
0.76162117
0.76194983
0.76226822
0.76257661
0.7628753
0.76316458
0.76344471
0.763716
0.76397873
0.76423317
0.7644796
0.7647183
0.76494954
0.76517358
0.76539068
0.76560111
0.7658051
0.76600291
0.76619477
0.76638092
0.76656159
0.766737
0.76690738
0.76707295
0.76723393
0.76739054
0.76754299
0.76769153
0.76783637
0.76797774
0.76811589
0.76825103
0.76838342
0.76851324
0.76864069
0.76876591
0.76888894
0.7690097
0.76912788
0.76924282
0.76935333
0.76945736
0.76955173
0.76963172
0.76969119
0.76972335
0.7596555
0.76004638
0.76042539
0.76079278
0.76114884
0.76149386
0.76182813
0.76215192
0.76246553
0.76276925
0.76306337
0.76334819
0.76362399
0.76389107
0.76414971
0.76440019
0.7646428
0.7648778
0.76510548
0.76532609
0.7655399
0.76574716
0.76594813
0.76614304
0.76633214
0.76651567
0.76669384
0.7668669
0.76703506
0.76719855
0.76735759
0.7675124
0.76766322
0.76781027
0.76795378
0.768094
0.76823114
0.76836545
0.76849714
0.7686264
0.76875338
0.76887817
0.76900073
0.76912085
0.76923799
0.76935114
0.76945846
0.76955691
0.76964169
0.76970596
0.76974139
0.75950678
0.75990394
0.760289
0.76066225
0.76102397
0.76137445
0.76171397
0.76204285
0.76236136
0.76266981
0.76296849
0.76325771
0.76353776
0.76380892
0.76407151
0.76432579
0.76457206
0.76481061
0.76504169
0.7652656
0.76548259
0.76569292
0.76589685
0.76609463
0.7662865
0.7664727
0.76665347
0.76682904
0.76699963
0.76716547
0.76732679
0.76748382
0.76763678
0.7677859
0.76793142
0.76807358
0.76821259
0.76834871
0.76848213
0.76861307
0.76874169
0.76886811
0.76899233
0.76911422
0.76923338
0.76934899
0.76945947
0.76956206
0.76965205
0.76972199
0.76976165
0.75936734
0.75977039
0.76016115
0.7605399
0.76090693
0.76126254
0.76160702
0.76194066
0.76226378
0.76257667
0.76287964
0.76317298
0.76345701
0.76373201
0.7639983
0.76425615
0.76450586
0.76474773
0.76498202
0.76520901
0.76542898
0.76564219
0.7658489
0.76604936
0.76624383
0.76643254
0.76661574
0.76679366
0.76696653
0.76713458
0.76729804
0.76745714
0.7676121
0.76776317
0.76791057
0.76805454
0.7681953
0.7683331
0.76846815
0.76860066
0.7687308
0.76885871
0.76898445
0.76910795
0.76922894
0.76934679
0.76946025
0.76956695
0.76966251
0.76973919
0.76978454
0.75923674
0.75964531
0.76004142
0.76042534
0.76079735
0.76115777
0.76150689
0.76184502
0.76217246
0.76248951
0.7627965
0.76309372
0.76338148
0.76366008
0.76392983
0.76419103
0.76444397
0.76468894
0.76492623
0.76515612
0.76537888
0.76559478
0.7658041
0.76600708
0.76620397
0.76639504
0.76658051
0.76676063
0.76693563
0.76710575
0.76727121
0.76743224
0.76758909
0.76774197
0.76789113
0.76803679
0.7681792
0.76831857
0.76845513
0.7685891
0.76872065
0.76884993
0.76897706
0.76910201
0.76922463
0.7693445
0.76946067
0.7695713
0.76967268
0.76975737
0.76981072
0.75952828
0.7599294
0.76031816
0.76069486
0.76105979
0.76141327
0.76175559
0.76208708
0.76240804
0.76271879
0.76301963
0.76331089
0.76359286
0.76386586
0.76413019
0.76438615
0.76463403
0.76487413
0.76510672
0.7653321
0.76555053
0.76576227
0.76596761
0.76616678
0.76636004
0.76654764
0.76672982
0.76690682
0.76707886
0.76724619
0.76740905
0.76756765
0.76772223
0.76787303
0.76802028
0.76816421
0.76830505
0.76844302
0.76857834
0.76871119
0.76884175
0.76897013
0.76909639
0.76922045
0.76934207
0.76946062
0.76957484
0.76968203
0.76977603
0.76984123
0.75941887
0.75982471
0.76021801
0.76059909
0.76096825
0.76132581
0.76167206
0.76200734
0.76233196
0.76264623
0.76295046
0.76324499
0.76353012
0.76380616
0.76407341
0.7643322
0.7645828
0.76482552
0.76506065
0.76528846
0.76550925
0.76572327
0.7659308
0.7661321
0.76632742
0.76651701
0.76670111
0.76687997
0.76705382
0.7672229
0.76738744
0.76754768
0.76770385
0.76785618
0.76800491
0.76815026
0.76829247
0.76843176
0.76856833
0.76870239
0.76883412
0.76896365
0.76909107
0.7692164
0.76933951
0.76946007
0.76957735
0.76968987
0.76979409
0.76987776
0.75931671
0.75972696
0.76012452
0.76050971
0.76088282
0.76124419
0.76159412
0.76193295
0.76226098
0.76257854
0.76288595
0.76318353
0.76347161
0.76375048
0.76402048
0.76428189
0.76453504
0.76478021
0.7650177
0.7652478
0.76547079
0.76568694
0.76589652
0.7660998
0.76629703
0.76648848
0.76667437
0.76685497
0.7670305
0.76720121
0.76736734
0.76752911
0.76768675
0.76784052
0.76799062
0.7681373
0.76828079
0.76842129
0.76855904
0.76869422
0.76882702
0.76895759
0.76908606
0.76921249
0.76933685
0.76945902
0.7695787
0.76969545
0.76980919
0.76992317
0.75922144
0.75963581
0.76003735
0.76042636
0.76080318
0.76116811
0.76152148
0.76186361
0.76219483
0.76251547
0.76282584
0.76312628
0.7634171
0.76369863
0.76397117
0.76423505
0.76449057
0.76473803
0.76497772
0.76520995
0.76543499
0.76565312
0.76586461
0.76606974
0.76626876
0.76646194
0.76664951
0.76683172
0.76700882
0.76718106
0.76734865
0.76751184
0.76767087
0.76782596
0.76797735
0.76812527
0.76826994
0.76841158
0.76855041
0.76868662
0.76882041
0.76895194
0.76908135
0.76920873
0.76933415
0.76945759
0.76957898
0.76969834
0.76981636
0.76993548
0.75913268
0.7595509
0.75995615
0.76034875
0.76072901
0.76109727
0.76145384
0.76179906
0.76213326
0.76245676
0.76276989
0.76307299
0.76336638
0.76365037
0.7639253
0.76419147
0.7644492
0.76469879
0.76494054
0.76517474
0.76540169
0.76562167
0.76583495
0.7660418
0.76624249
0.76643727
0.7666264
0.76681012
0.76698868
0.76716233
0.76733129
0.76749581
0.76765612
0.76781245
0.76796503
0.7681141
0.76825987
0.76840256
0.7685424
0.76867957
0.76881428
0.76894668
0.76907694
0.76920517
0.76933146
0.76945589
0.76957849
0.76969941
0.76981921
0.76993902
0.7590501
0.7594719
0.75988061
0.76027654
0.76066002
0.76103137
0.76139093
0.76173903
0.762076
0.76240217
0.76271788
0.76302346
0.76331923
0.76360552
0.76388267
0.76415097
0.76441076
0.76466233
0.76490599
0.76514204
0.76537077
0.76559246
0.7658074
0.76601585
0.76621809
0.76641437
0.76660495
0.76679007
0.76696999
0.76714495
0.76731519
0.76748094
0.76764244
0.76779992
0.76795361
0.76810374
0.76825054
0.76839421
0.76853498
0.76867304
0.76880859
0.76894179
0.76907282
0.7692018
0.76932885
0.76945407
0.76957755
0.76969944
0.76982012
0.76994005
0.75897334
0.75939849
0.75981042
0.76020945
0.76059592
0.76097016
0.7613325
0.76168328
0.76202282
0.76235148
0.76266958
0.76297746
0.76327545
0.76356389
0.76384309
0.76411338
0.76437508
0.76462849
0.76487393
0.7651117
0.76534208
0.76556537
0.76578185
0.76599179
0.76619546
0.76639313
0.76658505
0.76677148
0.76695267
0.76712885
0.76730026
0.76746716
0.76762976
0.76778831
0.76794303
0.76809415
0.76824189
0.76838647
0.76852811
0.76866699
0.76880331
0.76893726
0.76906898
0.76919864
0.76932635
0.76945223
0.76957639
0.76969897
0.76982019
0.76994029
0.7589021
0.75933035
0.75974527
0.76014719
0.76053645
0.76091337
0.76127829
0.76163155
0.7619735
0.76230446
0.76262478
0.76293481
0.76323486
0.76352528
0.76380639
0.76407853
0.764342
0.76459713
0.76484422
0.76508357
0.76531549
0.76554026
0.76575817
0.76596949
0.7661745
0.76637346
0.76656663
0.76675427
0.76693662
0.76711393
0.76728645
0.7674544
0.76761803
0.76777757
0.76793324
0.76808528
0.7682339
0.76837932
0.76852175
0.76866139
0.76879843
0.76893306
0.76906542
0.76919569
0.76932398
0.76945043
0.76957515
0.76969826
0.76981993
0.76994028
0.75883606
0.75926719
0.75968489
0.76008949
0.76048133
0.76086074
0.76122806
0.76158363
0.7619278
0.7622609
0.76258329
0.7628953
0.76319726
0.76348953
0.76377241
0.76404626
0.76431138
0.76456809
0.76481671
0.76505754
0.76529088
0.76551702
0.76573625
0.76594886
0.7661551
0.76635526
0.76654959
0.76673834
0.76692178
0.76710014
0.76727367
0.7674426
0.76760718
0.76776764
0.76792419
0.76807708
0.76822651
0.76837271
0.76851588
0.76865622
0.76879392
0.76892917
0.76906213
0.76919295
0.76932177
0.76944872
0.76957392
0.76969748
0.76981953
0.76994018
0.75877492
0.75920872
0.759629
0.76003609
0.76043032
0.76081204
0.76118158
0.76153929
0.76188552
0.76222061
0.76254491
0.76285875
0.76316249
0.76345646
0.76374099
0.76401642
0.76428306
0.76454124
0.76479128
0.76503347
0.76526813
0.76549554
0.765716
0.76592979
0.76613718
0.76633844
0.76653384
0.76672363
0.76690807
0.7670874
0.76726187
0.76743171
0.76759716
0.76775846
0.76791584
0.7680695
0.76821969
0.7683666
0.76851045
0.76865144
0.76878976
0.76892558
0.76905908
0.76919041
0.76931971
0.76944711
0.76957274
0.7696967
0.7698191
0.76994005
0.7587184
0.75915468
0.75957735
0.75998674
0.76038319
0.76076704
0.76113864
0.76149833
0.76184646
0.76218339
0.76250945
0.762825
0.76313037
0.76342592
0.76371197
0.76398886
0.76425691
0.76451645
0.7647678
0.76501125
0.76524713
0.76547572
0.76569731
0.76591219
0.76612064
0.76632292
0.76651931
0.76671006
0.76689542
0.76707565
0.76725098
0.76742166
0.76758793
0.76775001
0.76790813
0.76806252
0.7682134
0.76836098
0.76850546
0.76864704
0.76878592
0.76892228
0.76905627
0.76918807
0.7693178
0.76944562
0.76957162
0.76969594
0.76981867
0.76993991
0.75866623
0.75910481
0.75952969
0.7599412
0.7603397
0.76072552
0.76109902
0.76146054
0.76181043
0.76214905
0.76247675
0.76279387
0.76310076
0.76339776
0.76368521
0.76396345
0.76423281
0.7644936
0.76474615
0.76499077
0.76522777
0.76545744
0.76568008
0.76589597
0.7661054
0.76630862
0.76650592
0.76669755
0.76688377
0.76706482
0.76724095
0.76741241
0.76757942
0.76774222
0.76790104
0.7680561
0.76820761
0.7683558
0.76850086
0.76864299
0.76878239
0.76891923
0.76905369
0.76918591
0.76931604
0.76944423
0.76957059
0.76969523
0.76981826
0.76993978
0.75861817
0.75905886
0.75948577
0.75989925
0.76029964
0.76068728
0.76106252
0.76142573
0.76177725
0.76211743
0.76244663
0.7627652
0.76307349
0.76337183
0.76366058
0.76394006
0.76421062
0.76447257
0.76472623
0.76497193
0.76520996
0.76544063
0.76566423
0.76588105
0.76609137
0.76629547
0.76649361
0.76668605
0.76687305
0.76705487
0.76723173
0.7674039
0.7675716
0.76773506
0.76789452
0.76805019
0.76820229
0.76835104
0.76849663
0.76863927
0.76877914
0.76891643
0.76905131
0.76918392
0.76931442
0.76944295
0.76956963
0.76969457
0.76981788
0.76993966
0.75857396
0.7590166
0.75944539
0.75986067
0.7602628
0.76065211
0.76102897
0.76139373
0.76174675
0.76208837
0.76241895
0.76273885
0.76304842
0.763348
0.76363794
0.76391857
0.76419022
0.76445324
0.76470793
0.76495461
0.76519359
0.76542518
0.76564967
0.76586735
0.7660785
0.76628339
0.7664823
0.76667549
0.76686321
0.76704573
0.76722327
0.76739609
0.76756442
0.76772849
0.76788853
0.76804477
0.76819741
0.76834667
0.76849275
0.76863585
0.76877617
0.76891387
0.76904912
0.7691821
0.76931294
0.76944178
0.76956875
0.76969396
0.76981753
0.76993954
0.75853337
0.7589778
0.75940832
0.75982526
0.76022899
0.76061984
0.76099818
0.76136437
0.76171876
0.7620617
0.76239356
0.76271468
0.76302543
0.76332614
0.76361717
0.76389885
0.76417152
0.76443551
0.76469114
0.76493873
0.76517859
0.76541102
0.76563632
0.76585478
0.76606669
0.76627232
0.76647194
0.76666581
0.7668542
0.76703735
0.76721551
0.76738893
0.76755784
0.76772247
0.76788305
0.7680398
0.76819293
0.76834266
0.7684892
0.76863272
0.76877344
0.76891151
0.76904713
0.76918043
0.76931157
0.7694407
0.76956794
0.7696934
0.7698172
0.76993944
0.75849619
0.75894227
0.75937437
0.75979283
0.76019802
0.76059029
0.76096999
0.76133748
0.76169312
0.76203728
0.7623703
0.76269255
0.76300438
0.76330613
0.76359816
0.7638808
0.7641544
0.76441929
0.76467578
0.7649242
0.76516486
0.76539806
0.76562411
0.76584329
0.76605589
0.76626219
0.76646246
0.76665696
0.76684595
0.76702969
0.76720842
0.76738239
0.76755183
0.76771697
0.76787804
0.76803526
0.76818884
0.76833901
0.76848595
0.76862986
0.76877094
0.76890936
0.7690453
0.7691789
0.76931033
0.76943972
0.7695672
0.76969289
0.7698169
0.76993934
0.7584622
0.75890979
0.75934334
0.7597632
0.76016972
0.76056328
0.76094422
0.76131291
0.76166971
0.76201497
0.76234906
0.76267233
0.76298515
0.76328785
0.76358079
0.76386432
0.76413877
0.76440447
0.76466175
0.76491093
0.76515232
0.76538623
0.76561295
0.76583279
0.76604603
0.76625294
0.7664538
0.76664888
0.76683842
0.7670227
0.76720195
0.76737642
0.76754634
0.76771194
0.76787346
0.76803111
0.76818511
0.76833567
0.76848298
0.76862726
0.76876867
0.7689074
0.76904363
0.76917751
0.76930919
0.76943882
0.76956652
0.76969242
0.76981663
0.76993925
0.75843121
0.75888018
0.75931505
0.75973618
0.76014393
0.76053866
0.76092074
0.76129052
0.76164836
0.76199464
0.7623297
0.76265391
0.76296762
0.76327119
0.76356497
0.7638493
0.76412452
0.76439097
0.76464896
0.76489884
0.76514089
0.76537545
0.7656028
0.76582323
0.76603705
0.76624452
0.76644592
0.76664152
0.76683157
0.76701633
0.76719606
0.76737098
0.76754134
0.76770737
0.7678693
0.76802734
0.76818172
0.76833263
0.76848029
0.76862488
0.7687666
0.76890562
0.76904211
0.76917624
0.76930816
0.769438
0.7695659
0.76969199
0.76981638
0.76993917
0.75840304
0.75885326
0.75928933
0.75971162
0.76012048
0.76051628
0.76089939
0.76127016
0.76162896
0.76197616
0.7623121
0.76263716
0.7629517
0.76325606
0.76355059
0.76383565
0.76411158
0.7643787
0.76463735
0.76488785
0.76513052
0.76536565
0.76559357
0.76581455
0.76602889
0.76623687
0.76643876
0.76663484
0.76682535
0.76701055
0.76719071
0.76736604
0.7675368
0.76770322
0.76786552
0.76802392
0.76817863
0.76832987
0.76847784
0.76862273
0.76876472
0.768904
0.76904074
0.76917509
0.76930722
0.76943726
0.76956534
0.7696916
0.76981615
0.7699391
0.7583775
0.75882886
0.75926602
0.75968935
0.76009922
0.76049599
0.76088004
0.76125171
0.76161138
0.76195941
0.76229616
0.76262199
0.76293727
0.76324234
0.76353756
0.76382329
0.76409985
0.76436759
0.76462683
0.7648779
0.76512112
0.76535679
0.76558521
0.76580669
0.76602151
0.76622995
0.76643228
0.76662879
0.76681971
0.76700532
0.76718586
0.76736158
0.7675327
0.76769947
0.7678621
0.76802082
0.76817585
0.76832738
0.76847563
0.76862078
0.76876302
0.76890254
0.76903949
0.76917405
0.76930637
0.76943659
0.76956484
0.76969125
0.76981595
0.76993903
0.75835444
0.75880683
0.75924497
0.75966924
0.76008002
0.76047767
0.76086256
0.76123505
0.7615955
0.76194429
0.76228176
0.76260829
0.76292423
0.76322995
0.7635258
0.76381212
0.76408926
0.76435755
0.76461733
0.76486892
0.76511263
0.76534878
0.76557767
0.76579959
0.76601484
0.7662237
0.76642644
0.76662333
0.76681463
0.7670006
0.76718149
0.76735755
0.767529
0.76769608
0.76785901
0.76801803
0.76817333
0.76832513
0.76847363
0.76861902
0.76876149
0.76890122
0.76903837
0.76917312
0.7693056
0.76943598
0.76956438
0.76969094
0.76981576
0.76993897
0.75833369
0.758787
0.75922603
0.75965114
0.76006274
0.76046118
0.76084683
0.76122005
0.76158122
0.76193068
0.7622688
0.76259596
0.76291251
0.76321881
0.76351521
0.76380207
0.76407973
0.76434853
0.76460878
0.76486084
0.765105
0.76534158
0.76557088
0.76579321
0.76600885
0.76621808
0.76642118
0.76661842
0.76681006
0.76699636
0.76717757
0.76735392
0.76752567
0.76769303
0.76785624
0.76801552
0.76817107
0.76832311
0.76847183
0.76861744
0.76876011
0.76890003
0.76903736
0.76917227
0.76930492
0.76943544
0.76956398
0.76969066
0.7698156
0.76993892
0.75831512
0.75876925
0.75920905
0.75963492
0.76004725
0.7604464
0.76083274
0.76120662
0.76156841
0.76191849
0.7622572
0.76258492
0.76290201
0.76320883
0.76350573
0.76379307
0.7640712
0.76434044
0.76460113
0.7648536
0.76509816
0.76533513
0.76556481
0.76578749
0.76600348
0.76621304
0.76641647
0.76661402
0.76680597
0.76699256
0.76717405
0.76735068
0.76752269
0.76769031
0.76785376
0.76801327
0.76816905
0.7683213
0.76847023
0.76861603
0.76875888