/*--------------------------------*- C++ -*----------------------------------*\
| =========                 |                                                 |
| \\      /  F ield         | OpenFOAM: The Open Source CFD Toolbox           |
|  \\    /   O peration     | Version:  2312                                  |
|   \\  /    A nd           | Website:  www.openfoam.com                      |
|    \\/     M anipulation  |                                                 |
\*---------------------------------------------------------------------------*/
FoamFile
{
    version     2.0;
    format      ascii;
    arch        "LSB;label=32;scalar=64";
    class       volScalarField;
    location    "0.07";
    object      nut;
}
// * * * * * * * * * * * * * * * * * * * * * * * * * * * * * * * * * * * * * //

dimensions      [0 2 -1 0 0 0 0];

internalField   nonuniform List<scalar> 
3257
(
0.054085267
0.054540051
0.054994755
0.055449819
0.055904841
0.056359223
0.056812269
0.057263097
0.057709166
0.058138389
0.058495466
0.058838619
0.059191446
0.059535343
0.059875421
0.060210695
0.060543256
0.060870079
0.061189124
0.061500293
0.061804572
0.062102171
0.06239284
0.062676514
0.062953485
0.063224218
0.063489168
0.06374869
0.064003048
0.064252463
0.064497156
0.064737378
0.064973415
0.065205578
0.065434173
0.065659449
0.065881556
0.06610046
0.066315876
0.066527197
0.066733437
0.066933182
0.067124583
0.06730537
0.067472912
0.067624319
0.067756577
0.067866725
0.067952045
0.068010234
0.068039636
0.053684916
0.054141473
0.054593231
0.055040379
0.055483488
0.05592285
0.056358303
0.056789648
0.057216168
0.057635692
0.05804278
0.058437269
0.058821517
0.059195754
0.059562247
0.059921417
0.060273301
0.060616826
0.060951398
0.061277367
0.061595201
0.061905083
0.062207108
0.062501553
0.062788879
0.063069596
0.063344152
0.063612895
0.063876103
0.064134016
0.064386885
0.064634989
0.064878641
0.065118176
0.065353917
0.065586137
0.065814995
0.066040461
0.066262252
0.066479757
0.066691971
0.066897459
0.067094333
0.067280275
0.067452593
0.067608325
0.067744373
0.067857687
0.067945458
0.068005304
0.068035494
0.053054273
0.053510955
0.053965072
0.054416347
0.054864314
0.055308607
0.055748923
0.056185093
0.056616992
0.057044397
0.057466508
0.057881657
0.058288039
0.058684834
0.059072326
0.05945095
0.059820857
0.060182257
0.060535397
0.060880446
0.061217474
0.061546517
0.061867674
0.062181166
0.062487301
0.062786407
0.063078789
0.063364717
0.063644441
0.063918217
0.064186327
0.064449091
0.064706862
0.064960022
0.065208931
0.065453895
0.065695099
0.065932536
0.066165936
0.066394682
0.066617753
0.066833674
0.067040499
0.067235824
0.067416852
0.067580483
0.067723473
0.067842609
0.067934922
0.067997866
0.068029566
0.052519522
0.052964912
0.053410057
0.05385438
0.054297283
0.054738239
0.055176805
0.055612632
0.056045435
0.056474924
0.05690065
0.05732181
0.057737285
0.05814615
0.058547858
0.058942107
0.059328684
0.059707514
0.06007858
0.06044184
0.060797248
0.061144798
0.061484566
0.061816705
0.062141418
0.062458923
0.062769434
0.063073166
0.063370341
0.063661204
0.063946042
0.064225181
0.06449899
0.064767855
0.065032155
0.065292202
0.065548191
0.065800118
0.066047703
0.06629031
0.066526881
0.066755877
0.066975263
0.067182515
0.067374678
0.067548469
0.067700427
0.067827111
0.067925321
0.067992278
0.068025928
0.052160603
0.052591034
0.053022249
0.053453737
0.053885015
0.054315628
0.054745161
0.05517323
0.055599477
0.056023536
0.05644499
0.056863327
0.057277942
0.057688226
0.058093624
0.058493658
0.058887919
0.059276074
0.05965784
0.06003296
0.060401213
0.060762443
0.06111657
0.061463588
0.061803543
0.06213652
0.062462632
0.062782018
0.063094851
0.063401348
0.06370177
0.063996433
0.064285692
0.064569925
0.0648495
0.065124723
0.065395777
0.065662642
0.065925018
0.066182233
0.066433171
0.066676216
0.06690922
0.06712951
0.067333944
0.067519008
0.067680978
0.067816132
0.067920982
0.067992464
0.068028306
0.05191966
0.052339127
0.05275943
0.053180193
0.053601072
0.054021731
0.054441843
0.054861085
0.055279133
0.05569566
0.056110313
0.05652272
0.056932481
0.057339183
0.057742418
0.058141791
0.058536922
0.058927448
0.059313022
0.059693315
0.060068025
0.060436894
0.060799718
0.061156349
0.061506695
0.061850711
0.062188398
0.062519805
0.062845035
0.063164246
0.063477655
0.063785538
0.064088219
0.064386046
0.064679361
0.064968446
0.065253457
0.065534351
0.065810789
0.066082057
0.066346975
0.066603836
0.066850369
0.067083738
0.06730059
0.067497156
0.067669419
0.067813332
0.067925081
0.068001277
0.068039401
0.051734895
0.052148128
0.052562023
0.052976274
0.053390613
0.05380477
0.05421848
0.054631472
0.055043475
0.05545421
0.055863392
0.056270727
0.056675919
0.057078668
0.057478671
0.057875629
0.058269239
0.058659199
0.059045205
0.059426958
0.059804166
0.06017656
0.0605439
0.060905983
0.061262646
0.061613769
0.061959283
0.062299169
0.062633468
0.062962285
0.063285789
0.063604212
0.063917837
0.064226977
0.064531937
0.064832968
0.065130196
0.065423541
0.065712631
0.065996701
0.066274508
0.066544253
0.066803541
0.067049368
0.067278165
0.067485896
0.067668229
0.067820773
0.06793936
0.068020247
0.06806064
0.051573177
0.051983346
0.052394069
0.05280507
0.053216102
0.053626921
0.054037285
0.054446951
0.054855673
0.055263207
0.055669305
0.056073718
0.0564762
0.056876513
0.057274413
0.05766966
0.058062014
0.058451232
0.058837069
0.059219276
0.05959761
0.059971832
0.060341722
0.060707078
0.061067728
0.061423536
0.061774405
0.06212029
0.062461203
0.062797216
0.063128469
0.063455162
0.063777548
0.064095907
0.064410518
0.0647216
0.065029251
0.065333364
0.065633531
0.065928945
0.066218306
0.066499731
0.066770709
0.067028074
0.067268047
0.067486324
0.067678251
0.067839082
0.067964274
0.068049714
0.068092307
0.051420882
0.051829774
0.052239218
0.052648945
0.053058711
0.053468276
0.053877405
0.054285861
0.05469341
0.055099819
0.055504859
0.055908301
0.056309924
0.056709515
0.05710686
0.057501751
0.057893982
0.058283349
0.058669647
0.05905267
0.059432215
0.059808082
0.060180081
0.060548037
0.060911796
0.061271231
0.061626254
0.061976819
0.062322934
0.062664665
0.06300214
0.063335546
0.063665121
0.063991128
0.064313827
0.064633419
0.064949983
0.065263392
0.065573218
0.065878621
0.066178256
0.066470173
0.066751756
0.067019696
0.067270012
0.067498142
0.067699115
0.06786782
0.067999334
0.068089153
0.068133862
0.051273754
0.051682325
0.052091515
0.052501059
0.052910711
0.053320229
0.053729375
0.054137914
0.054545613
0.054952245
0.055357584
0.055761409
0.056163514
0.05656369
0.056961737
0.05735746
0.057750672
0.058141187
0.058528822
0.058913397
0.059294736
0.059672666
0.060047025
0.060417663
0.060784447
0.061147273
0.061506066
0.061860795
0.062211477
0.062558185
0.062901049
0.063240258
0.063576042
0.063908663
0.064238371
0.064565361
0.064889706
0.065211271
0.065529617
0.065843891
0.066152716
0.066454093
0.066745321
0.067022967
0.067282866
0.067520212
0.067729721
0.067905919
0.068043491
0.068137526
0.068184267
0.051131317
0.051540079
0.051949566
0.052359513
0.052769674
0.053179802
0.053589658
0.053999004
0.05440761
0.054815245
0.055221687
0.05562672
0.056030138
0.056431736
0.056831317
0.057228692
0.057623681
0.058016104
0.058405792
0.058792575
0.059176293
0.05955679
0.059933921
0.060307554
0.060677576
0.061043896
0.061406459
0.061765248
0.062120293
0.062471676
0.062819537
0.063164067
0.063505504
0.063844107
0.064180129
0.064513766
0.064845093
0.065173978
0.065499985
0.065822261
0.066139414
0.066449413
0.066749499
0.067036129
0.067304981
0.067551015
0.067768645
0.067952032
0.068095455
0.068193581
0.068242292
0.050994315
0.051403555
0.05181364
0.052224309
0.052635311
0.0530464
0.053457334
0.053867876
0.054277792
0.054686855
0.055094838
0.055501534
0.055906731
0.056310226
0.056711825
0.057111339
0.05750859
0.057903402
0.058295608
0.058685047
0.059071563
0.059455011
0.059835255
0.060212174
0.060585666
0.060955655
0.061322096
0.061684983
0.062044358
0.062400313
0.062752995
0.063102601
0.063449372
0.063793573
0.064135461
0.064475236
0.064812983
0.065148581
0.065481608
0.065811218
0.066136026
0.06645399
0.066762308
0.067057354
0.067334661
0.067588977
0.067814419
0.068004783
0.068153928
0.06825608
0.068306729
0.050863648
0.051273537
0.051684395
0.052095963
0.052507989
0.052920225
0.05333243
0.053744365
0.054155798
0.054566498
0.054976246
0.055384832
0.055792042
0.056197676
0.056601539
0.057003444
0.05740321
0.057800666
0.058195644
0.058587985
0.058977538
0.05936416
0.059747723
0.060128111
0.060505228
0.060879007
0.06124941
0.06161644
0.061980144
0.062340621
0.062698023
0.063052552
0.063404452
0.063753991
0.064101429
0.064446976
0.064790727
0.065132578
0.065472127
0.065808549
0.066140481
0.066465887
0.066781943
0.067084959
0.067370343
0.067632645
0.0678657
0.06806292
0.068217739
0.068323908
0.068376489
0.050739983
0.051150634
0.051562376
0.051974948
0.0523881
0.052801584
0.053215157
0.053628584
0.05404163
0.054454064
0.054865676
0.055276248
0.05568557
0.056093441
0.056499668
0.056904063
0.057306448
0.057706648
0.058104499
0.058499842
0.058892527
0.059282415
0.059669378
0.060053305
0.060434105
0.060811713
0.061186097
0.061557264
0.061925265
0.062290201
0.062652227
0.063011545
0.063368402
0.063723065
0.0640758
0.064426822
0.064776239
0.065123968
0.06546963
0.065812436
0.066151056
0.066483475
0.06680687
0.067117505
0.067410685
0.067680774
0.067921328
0.068125379
0.0682859
0.068396136
0.068450675
0.05062367
0.051035165
0.051447864
0.05186151
0.052275849
0.052690635
0.053105628
0.053520589
0.053935287
0.054349492
0.054762997
0.05517558
0.055587035
0.055997163
0.056405768
0.056812666
0.057217678
0.05762063
0.058021358
0.058419704
0.05881552
0.059208667
0.059599019
0.059986468
0.060370925
0.060752327
0.061130645
0.061505886
0.061878104
0.062247401
0.06261393
0.062977892
0.063339531
0.063699116
0.064056911
0.064413141
0.064767925
0.0651212
0.065472618
0.065821435
0.066166365
0.066505434
0.066835833
0.067153808
0.067454578
0.067732338
0.067980365
0.068191304
0.068357634
0.068472048
0.068528603
0.050514766
0.050927169
0.051340883
0.05175565
0.052171216
0.052587338
0.053003773
0.053420286
0.053836643
0.054252623
0.054668013
0.055082596
0.055496165
0.055908522
0.056319475
0.056728838
0.057136432
0.057542088
0.057945639
0.058346931
0.058745815
0.059142154
0.059535824
0.059926717
0.060314747
0.060699852
0.061082004
0.061461211
0.061837526
0.062211048
0.062581929
0.062950367
0.063316602
0.063680898
0.064043522
0.0644047
0.064764567
0.065123078
0.065479925
0.065834413
0.066185313
0.066530705
0.066867822
0.067192909
0.067501123
0.067786506
0.068042062
0.068260034
0.06843237
0.068551145
0.068609812
0.050413112
0.050826477
0.051241251
0.051657174
0.052073996
0.052491471
0.052909359
0.053327426
0.053745434
0.054163174
0.054580426
0.054996975
0.055412617
0.055827156
0.056240398
0.056652162
0.057062268
0.057470548
0.057876839
0.058280984
0.058682839
0.059082267
0.059479145
0.059873369
0.060264851
0.060653532
0.061039383
0.061422413
0.061802672
0.062180259
0.062555319
0.062928046
0.063298674
0.063667463
0.064034678
0.06440055
0.06476522
0.06512867
0.065490634
0.065850473
0.066207025
0.066558443
0.06690202
0.06723403
0.067549593
0.067842616
0.06810584
0.068331082
0.068509715
0.068633117
0.068694035
0.050318401
0.050732774
0.051148645
0.051565754
0.05198385
0.052402689
0.052822032
0.053241645
0.05366129
0.054080765
0.054499844
0.054918317
0.055335981
0.05575264
0.056168104
0.05658219
0.056994723
0.057405534
0.057814462
0.058221353
0.058626062
0.059028457
0.059428415
0.059825832
0.060220625
0.060612733
0.061002128
0.061388818
0.061772852
0.062154323
0.062533374
0.06291019
0.063285
0.063658057
0.064029624
0.064399933
0.064769132
0.065137233
0.065504013
0.065868893
0.066230793
0.066587954
0.066937758
0.06727653
0.067599388
0.067900127
0.068171232
0.06840408
0.068589411
0.068717801
0.068781159
0.05023025
0.050645668
0.051062665
0.05148098
0.051900363
0.05232057
0.052741364
0.05316251
0.053583771
0.054004949
0.054425817
0.054846166
0.055265795
0.055684508
0.056102119
0.056518444
0.056933312
0.057346553
0.05775801
0.05816753
0.058574971
0.058980201
0.0593831
0.059783567
0.060181517
0.060576894
0.060969667
0.061359845
0.061747472
0.06213264
0.062515483
0.062896183
0.063274957
0.063652056
0.064027735
0.064402225
0.064775687
0.065148158
0.06551946
0.065889082
0.066256033
0.066618666
0.066974471
0.067319863
0.067649988
0.067958567
0.068237841
0.06847873
0.068671273
0.06880512
0.068871167
0.050148235
0.050564727
0.050982872
0.051402407
0.051823083
0.052244657
0.052666892
0.053089552
0.053512406
0.053935252
0.054357865
0.054780039
0.055201573
0.055622273
0.056041953
0.056460432
0.05687754
0.05729311
0.057706986
0.058119016
0.058529062
0.058936994
0.059342693
0.059746061
0.060147014
0.060545496
0.060941479
0.061334967
0.061726004
0.062114676
0.062501114
0.062885489
0.063268013
0.063648927
0.064028482
0.064406903
0.064784366
0.065160933
0.065536471
0.065910542
0.066282256
0.06665009
0.067011672
0.067363544
0.067700924
0.068017495
0.068305286
0.068554745
0.06875514
0.068895035
0.068964087
0.050071933
0.050489519
0.050908825
0.051329587
0.051751555
0.052174489
0.052598149
0.053022301
0.053446717
0.053871194
0.054295508
0.054719453
0.05514283
0.055565447
0.055987118
0.056407666
0.05682692
0.057244716
0.0576609
0.058075324
0.05848785
0.05889835
0.05930671
0.059712831
0.060116632
0.060518058
0.060917081
0.061313704
0.061707969
0.062099956
0.06248979
0.062877636
0.063263697
0.063648205
0.064031403
0.064413515
0.064794726
0.065175124
0.065554621
0.065932854
0.066309041
0.066681801
0.067048928
0.06740713
0.067751745
0.068076474
0.068373171
0.068631814
0.068840826
0.068987503
0.06905996
0.050000935
0.050419626
0.050840097
0.051262084
0.051685339
0.052109617
0.052534683
0.052960301
0.053386244
0.05381231
0.054238276
0.054663937
0.055089094
0.055513557
0.055937142
0.056359672
0.05678098
0.057200902
0.057619287
0.058035989
0.058450871
0.05886381
0.059274693
0.059683423
0.060089921
0.060494133
0.060896031
0.061295617
0.06169293
0.062088046
0.062481084
0.062872202
0.063261593
0.063649481
0.064036097
0.064421667
0.064806384
0.065190357
0.065573545
0.065955658
0.066336028
0.066713432
0.067085853
0.067450207
0.067802012
0.068135051
0.06844106
0.068709574
0.068928102
0.06908246
0.069158827
0.049934857
0.050354655
0.050776288
0.051199492
0.051624017
0.052049621
0.052476067
0.052903119
0.053330552
0.053758163
0.05418573
0.054613049
0.055039922
0.05546616
0.05589158
0.056316009
0.056739277
0.057161227
0.057581707
0.058000573
0.058417694
0.058832945
0.059246217
0.059657416
0.060066464
0.060473309
0.060877921
0.061280303
0.061680491
0.062078557
0.062474613
0.062868809
0.063261331
0.063652392
0.064042213
0.064431018
0.064819008
0.065206312
0.065592929
0.065978646
0.066362911
0.066744663
0.067122102
0.067492392
0.067851294
0.068192754
0.068508476
0.068787601
0.069016682
0.069179821
0.069260746
0.049873343
0.050294241
0.050717025
0.051141431
0.051567208
0.051994112
0.052421907
0.052850355
0.053279237
0.053708345
0.054137459
0.054566376
0.0549949
0.055422842
0.05585002
0.056276262
0.056701402
0.057125282
0.057547754
0.057968676
0.058387917
0.058805358
0.059220891
0.059634424
0.060045881
0.060455209
0.060862382
0.061267399
0.061670294
0.062071136
0.062470031
0.06286712
0.063262583
0.063656618
0.064049439
0.064441269
0.064832311
0.065222712
0.06561251
0.066001562
0.06638943
0.066775224
0.067157376
0.067533337
0.067899177
0.068249102
0.068574899
0.068865408
0.069106224
0.069279498
0.069365821
0.049816068
0.050238052
0.05066197
0.051087556
0.051514557
0.051942731
0.052371839
0.052801645
0.053231928
0.053662483
0.054093089
0.054523544
0.054953652
0.055383225
0.055812083
0.056240055
0.056666977
0.057092693
0.057517056
0.057939927
0.058361178
0.05878069
0.05919836
0.059614095
0.060027824
0.060439495
0.060849079
0.061256577
0.061662019
0.062065471
0.062467033
0.062866839
0.06326506
0.063661879
0.064057507
0.064452161
0.064846046
0.065239323
0.065632063
0.06602419
0.066415373
0.066804894
0.067191425
0.067572736
0.067945274
0.068303615
0.068639774
0.068942446
0.069196329
0.069381414
0.069474267
0.049762733
0.050185782
0.050610811
0.05103755
0.051465746
0.051895153
0.052325535
0.052756653
0.053188291
0.053620238
0.054052278
0.054484208
0.054915832
0.055346965
0.055777426
0.056207047
0.056635663
0.057063122
0.057489278
0.057913995
0.058337146
0.058758615
0.059178301
0.059596114
0.060011984
0.06042586
0.060837713
0.061247544
0.06165538
0.062061283
0.062465348
0.062867703
0.063268506
0.063667931
0.064066182
0.064463471
0.064860002
0.065255946
0.065651404
0.066046356
0.066440574
0.066833499
0.06722405
0.067610336
0.067989241
0.068355826
0.068702523
0.069018103
0.069286539
0.069485522
0.069586474
0.049713065
0.050137153
0.050563266
0.050991127
0.051420481
0.051851083
0.052282696
0.05271508
0.053148019
0.053581304
0.054014719
0.054448059
0.054881132
0.055313752
0.05574574
0.056176927
0.056607152
0.057036264
0.057464118
0.05789058
0.058315525
0.058738842
0.059160429
0.059580199
0.059998084
0.060414033
0.060828019
0.061240041
0.061650124
0.062058327
0.062464739
0.062869482
0.063272701
0.063674563
0.064075264
0.064475009
0.064874
0.065272416
0.065670381
0.066067923
0.066464904
0.066860914
0.067255108
0.067645945
0.068030789
0.068405304
0.068762547
0.069091684
0.06937629
0.069591789
0.069703127
0.04966681
0.050091909
0.050519076
0.050948025
0.051378499
0.051810253
0.05224305
0.052676649
0.053110836
0.053545403
0.053980131
0.054414818
0.054849272
0.055283306
0.055716745
0.056149419
0.056581169
0.057011844
0.057441303
0.057869413
0.058296053
0.05872111
0.059144486
0.059566098
0.059985877
0.060403774
0.060819763
0.06123384
0.061646031
0.062056389
0.062464999
0.062871978
0.063277455
0.063681593
0.06408458
0.064486613
0.064887892
0.065288597
0.065688872
0.066088784
0.066488271
0.066887055
0.067284511
0.067679435
0.0680697
0.068451665
0.068819243
0.0691624
0.069464861
0.069700149
0.069825377
0.04962373
0.050049817
0.050478006
0.050908007
0.051339559
0.05177242
0.052206351
0.052641113
0.053076494
0.053512283
0.053948263
0.054384233
0.054819999
0.055255377
0.055690191
0.056124273
0.056557466
0.056989619
0.057420593
0.057850258
0.058278492
0.058705187
0.059130247
0.059553589
0.059975147
0.060394873
0.060812739
0.061228743
0.061642907
0.062055283
0.062465951
0.062875018
0.063282603
0.063688867
0.064093985
0.06449815
0.064901553
0.065304379
0.065706782
0.06610886
0.066510613
0.066911877
0.067312217
0.067710747
0.068105836
0.0684946
0.068872015
0.069229336
0.069551285
0.069810422
0.069955093
0.049583589
0.050010675
0.050439847
0.050870858
0.051303442
0.05173736
0.052172374
0.052608247
0.053044764
0.053481717
0.053918888
0.054356075
0.054793087
0.055229738
0.055665854
0.056101268
0.056535822
0.05696937
0.057401772
0.0578329
0.058262635
0.05869087
0.059117511
0.059542477
0.059965703
0.060387142
0.060806767
0.061224574
0.061640586
0.062054849
0.062467441
0.062878455
0.063288009
0.063696254
0.064103359
0.064509506
0.064914884
0.065319673
0.065724036
0.066128093
0.066531895
0.066935366
0.067338232
0.067739883
0.06813915
0.068533903
0.06892032
0.069291438
0.069634163
0.069922045
0.070095418
0.049974281
0.050404411
0.050836381
0.051269948
0.051704871
0.052140917
0.052577845
0.053015442
0.0534535
0.0538918
0.054330141
0.054768331
0.055206186
0.055643532
0.056080202
0.056516041
0.056950902
0.057384648
0.057817151
0.058248296
0.058677977
0.059106101
0.059532588
0.059957377
0.060380419
0.06080169
0.061221184
0.061638922
0.062054948
0.062469335
0.062882166
0.063293555
0.063703647
0.064112601
0.064520592
0.064927802
0.065334408
0.065740578
0.066146446
0.066552098
0.06695753
0.067362594
0.067766906
0.068169691
0.068569506
0.068963735
0.069347543
0.06971141
0.070033502
0.070251362
0.049940551
0.050371527
0.050804395
0.05123889
0.051674767
0.05211179
0.052549719
0.05298834
0.053427444
0.053866812
0.054306244
0.054745548
0.055184539
0.055623044
0.056060898
0.056497946
0.056934041
0.05736905
0.057802845
0.058235312
0.058666347
0.05909586
0.059523773
0.059950022
0.060374565
0.060797373
0.061218442
0.061637791
0.062055463
0.062471523
0.062886046
0.063299144
0.063710955
0.064121629
0.064531334
0.064940243
0.065348533
0.065756368
0.066163895
0.066571222
0.066978396
0.067385366
0.067791921
0.068197595
0.068601505
0.069002077
0.069396559
0.069779912
0.070140191
0.070430736
0.049909223
0.050341008
0.050774724
0.051210095
0.051646875
0.052084823
0.052523698
0.052963287
0.053403379
0.053843756
0.054284217
0.05472457
0.055164631
0.055604227
0.056043194
0.056481378
0.056918633
0.057354826
0.057789831
0.058223537
0.058655841
0.059086653
0.059515897
0.059943512
0.060369454
0.060793698
0.061216237
0.061637088
0.062056294
0.06247391
0.062890008
0.063304697
0.063718105
0.064130378
0.064541674
0.064952161
0.065362007
0.065771379
0.066180426
0.066589272
0.066998
0.067406625
0.067815061
0.068223066
0.06863016
0.069035528
0.069437957
0.069836169
0.070230677
0.070632676
0.049880127
0.050312686
0.050747204
0.051183405
0.051621036
0.052059857
0.052499625
0.052940127
0.053381151
0.053822478
0.054263908
0.054705248
0.055146315
0.055586936
0.056026948
0.056466196
0.056904538
0.05734184
0.057777979
0.058212843
0.058646332
0.059078358
0.059508845
0.059937734
0.060364982
0.060790563
0.061214471
0.061636722
0.062057356
0.062476417
0.06289398
0.063310147
0.063725039
0.064138796
0.064551569
0.064963517
0.065374805
0.065785594
0.066196036
0.066606264
0.067016383
0.067426452
0.067836468
0.068246338
0.068655844
0.069064633
0.069472295
0.069878967
0.070287523
0.070705965
0.049853115
0.05028641
0.050721687
0.051158669
0.051597103
0.052036746
0.052477356
0.052918717
0.053360617
0.053802838
0.054245178
0.054687444
0.055129456
0.055571038
0.056012029
0.056452275
0.056891634
0.057329973
0.057767171
0.058203117
0.058637712
0.059070869
0.059502516
0.059932592
0.060361056
0.060787882
0.061213064
0.061636618
0.062058578
0.062478981
0.062897904
0.063315442
0.063731712
0.064146845
0.064560986
0.064974288
0.065386909
0.065799006
0.06621073
0.066622218
0.067033587
0.067444926
0.067856281
0.068267648
0.068678965
0.069090124
0.069501058
0.069912149
0.070325501
0.070744287
0.04982805
0.050262041
0.050698034
0.051135752
0.05157494
0.052015357
0.052456757
0.052898925
0.053341648
0.053784707
0.054227901
0.054671036
0.055113932
0.055556414
0.055998321
0.056439499
0.056879808
0.057319116
0.057757302
0.058194256
0.058629883
0.059064095
0.05949682
0.059928001
0.060357596
0.06078558
0.061211946
0.06163671
0.062059899
0.062481549
0.062901732
0.063320542
0.063738088
0.064154496
0.064569903
0.064984458
0.065398311
0.065811615
0.066224517
0.066637157
0.067049657
0.067462121
0.067874625
0.068287214
0.068699905
0.069112702
0.069525653
0.069939053
0.07035403
0.070771581
0.049804804
0.050239451
0.050676117
0.051114526
0.051554424
0.051995566
0.052437707
0.052880631
0.053324126
0.05376797
0.054211963
0.054655911
0.055099633
0.055542957
0.055985718
0.056427768
0.056868962
0.057309173
0.05774828
0.058186174
0.058622759
0.059057952
0.059491681
0.059923889
0.060354535
0.060783593
0.061211059
0.061636945
0.062061272
0.062484076
0.062905427
0.063325414
0.063744141
0.064161729
0.064578309
0.064994021
0.065409012
0.065823429
0.066237415
0.066651109
0.067064635
0.067478104
0.067891608
0.068305218
0.068718986
0.069132958
0.069547205
0.069961901
0.07037756
0.070794391
0.04978326
0.050218521
0.050655818
0.051094875
0.051535437
0.051977258
0.052420094
0.052863726
0.053307941
0.05375252
0.054197259
0.054641967
0.055086461
0.055530568
0.055974128
0.056416988
0.056859008
0.057300059
0.057740022
0.05817879
0.058616267
0.059052371
0.059487031
0.059920191
0.060351811
0.060781867
0.061210351
0.061637278
0.062062656
0.062486528
0.06290896
0.063330035
0.063749855
0.064168533
0.064586195
0.065002977
0.065419018
0.06583446
0.066249443
0.066664102
0.067078562
0.067492937
0.067907324
0.068321806
0.06873645
0.069151316
0.069566463
0.069981983
0.070398075
0.070814692
0.049763305
0.05019914
0.050637028
0.051076691
0.051517873
0.051960329
0.052403813
0.052848106
0.053292995
0.053738258
0.054183694
0.05462911
0.055074323
0.055519161
0.055963463
0.056407078
0.056849865
0.057291697
0.057732455
0.058172034
0.058610339
0.059047287
0.059482811
0.059916854
0.060349377
0.060780355
0.061209783
0.06163767
0.062064021
0.06248888
0.062912309
0.06333439
0.063755218
0.064174902
0.064593563
0.065011331
0.06542834
0.065844726
0.066260626
0.06667617
0.067091482
0.067506676
0.067921851
0.068337094
0.068752477
0.06916806
0.069583891
0.070000012
0.070416476
0.070833164
0.049744834
0.050181204
0.050619643
0.051059871
0.051501632
0.051944681
0.052388769
0.052833679
0.053279195
0.053725096
0.054171181
0.054617256
0.055063138
0.055508655
0.055953647
0.056397962
0.056841462
0.057284019
0.057725515
0.058165845
0.058604916
0.059042647
0.059478969
0.059913829
0.060347187
0.060779019
0.06120932
0.061638092
0.06206534
0.06249111
0.06291546
0.063338468
0.063760225
0.064180836
0.064600418
0.065019094
0.065436994
0.065854249
0.066270991
0.066687346
0.067103437
0.067519374
0.067935257
0.068351175
0.068767199
0.069183386
0.069599775
0.070016382
0.070433201
0.070850094
0.04972775
0.050164617
0.050603568
0.051044322
0.051486623
0.051930223
0.052374874
0.052820357
0.053266457
0.053712952
0.05415964
0.054606326
0.05505283
0.055498978
0.05594461
0.056389575
0.056833735
0.057276963
0.057719141
0.058160167
0.058599947
0.059038401
0.059475462
0.059911076
0.060345205
0.060777825
0.061208931
0.061638518
0.062066594
0.062493203
0.062918401
0.063342262
0.063764875
0.064186341
0.06460677
0.065026281
0.065445
0.065863054
0.066280568
0.066697667
0.067114468
0.067531082
0.067947606
0.068364127
0.068780717
0.069197429
0.069614297
0.070031325
0.070448485
0.070865639
0.04971196
0.050149289
0.050588715
0.051029958
0.05147276
0.051916873
0.052362047
0.052808063
0.053254705
0.053701751
0.054148997
0.054596252
0.055043331
0.055490063
0.055936288
0.056381855
0.056826626
0.057270474
0.057713284
0.058154951
0.058595386
0.059034507
0.05947225
0.05990856
0.0603434
0.060776746
0.061208594
0.06163893
0.062067768
0.062495148
0.062921126
0.063345772
0.063769172
0.064191423
0.06461263
0.065032909
0.06545238
0.065871166
0.066289389
0.066707169
0.06712462
0.06754185
0.067958956
0.068376021
0.068793117
0.069210295
0.069627585
0.070044989
0.070462473
0.070879904
0.04969738
0.050135134
0.050575001
0.051016697
0.051459964
0.051904552
0.052350212
0.052796722
0.053243866
0.053691422
0.054139187
0.054586966
0.055034579
0.055481851
0.055928624
0.056374747
0.056820082
0.057264503
0.057707895
0.058150155
0.058591193
0.059030929
0.059469299
0.05990625
0.060341745
0.06077576
0.061208289
0.061639313
0.06206885
0.062496939
0.062923633
0.063349001
0.063773123
0.064196093
0.064618015
0.065038998
0.065459159
0.065878616
0.066297488
0.06671589
0.067133935
0.067551727
0.067969361
0.068386919
0.068804471
0.069222067
0.069639736
0.070057481
0.070475271
0.070892974
0.049683927
0.050122074
0.050562347
0.051004463
0.051448161
0.05189319
0.0523393
0.052786266
0.053233875
0.053681903
0.054130146
0.054578412
0.055026516
0.055474288
0.055921566
0.056368202
0.056814057
0.057259005
0.057702933
0.058145739
0.058587332
0.059027634
0.059466581
0.059904121
0.060340217
0.060774847
0.061208
0.061639655
0.062069834
0.062498573
0.062925923
0.063351951
0.063776735
0.064200366
0.064622941
0.06504457
0.065465362
0.065885433
0.066304898
0.06672387
0.067142457
0.067560761
0.067978874
0.06839688
0.068814844
0.069232818
0.069650831
0.070068889
0.070486964
0.070904928
0.049671528
0.050110034
0.050550683
0.050993188
0.051437284
0.051882721
0.052329245
0.052776634
0.053224672
0.053673135
0.05412182
0.054570534
0.055019092
0.055467323
0.055915067
0.056362175
0.056808508
0.057253942
0.057698363
0.058141669
0.058583772
0.059024593
0.05946407
0.05990215
0.060338798
0.060773992
0.061207715
0.061639948
0.062070714
0.062500048
0.062927999
0.063354631
0.063780021
0.064204255
0.064627429
0.065049647
0.065471016
0.065891648
0.066311655
0.066731146
0.067150227
0.067568997
0.067987548
0.068405959
0.068824298
0.069242615
0.069660941
0.070079284
0.070497624
0.070915833
0.04966011
0.050098946
0.050539941
0.050982804
0.051427269
0.051873082
0.05231999
0.052767767
0.0532162
0.053665065
0.054114157
0.054563282
0.055012258
0.055460912
0.055909084
0.056356625
0.056803398
0.057249277
0.05769415
0.058137916
0.058580485
0.059021782
0.059461744
0.059900319
0.060337471
0.060773181
0.061207424
0.061640187
0.062071489
0.062501366
0.062929865
0.06335705
0.063782992
0.064207777
0.064631497
0.065054253
0.065476149
0.065897293
0.066317793
0.066737758
0.067157288
0.067576483
0.06799543
0.06841421
0.068832889
0.069251517
0.069670129
0.070088733
0.070507318
0.070925757
0.049649608
0.050088744
0.050530058
0.050973253
0.051418058
0.051864218
0.052311478
0.052759613
0.053208409
0.053657642
0.054107108
0.054556612
0.055005971
0.055455014
0.055903578
0.056351516
0.056798691
0.057244978
0.057690265
0.058134451
0.058577447
0.059019179
0.059459583
0.05989861
0.060336224
0.060772405
0.061207122
0.061640366
0.062072157
0.062502529
0.062931529
0.063359217
0.063785663
0.06421095
0.064635167
0.065058413
0.065480788
0.065902398
0.066323348
0.066743742
0.067163682
0.067583262
0.06800257
0.068421684
0.068840671
0.069259583
0.069678454
0.070097298
0.070516109
0.07093476
0.049639958
0.050079368
0.050520975
0.050964477
0.051409596
0.051856075
0.052303659
0.052752122
0.053201251
0.053650822
0.05410063
0.054550481
0.055000192
0.05544959
0.055898514
0.056346815
0.056794358
0.057241017
0.057686681
0.05813125
0.058574636
0.059016765
0.059457573
0.059897011
0.060335046
0.060771655
0.061206802
0.061640485
0.062072721
0.062503543
0.062932998
0.063361143
0.063788047
0.06421379
0.06463846
0.06506215
0.065484961
0.065906994
0.066328352
0.066749137
0.067169448
0.067589377
0.068009012
0.06842843
0.068847697
0.069266866
0.069685973
0.070105037
0.070524056
0.070942904
0.049631101
0.050070759
0.050512639
0.050956424
0.051401834
0.051848606
0.052296486
0.052745249
0.053194682
0.053644561
0.054094683
0.054544851
0.054994883
0.055444606
0.055893858
0.056342491
0.056790369
0.057237368
0.057683376