/*--------------------------------*- C++ -*----------------------------------*\
| =========                 |                                                 |
| \\      /  F ield         | OpenFOAM: The Open Source CFD Toolbox           |
|  \\    /   O peration     | Version:  2312                                  |
|   \\  /    A nd           | Website:  www.openfoam.com                      |
|    \\/     M anipulation  |                                                 |
\*---------------------------------------------------------------------------*/
FoamFile
{
    version     2.0;
    format      ascii;
    arch        "LSB;label=32;scalar=64";
    class       volScalarField;
    location    "0.07";
    object      omega;
}
// * * * * * * * * * * * * * * * * * * * * * * * * * * * * * * * * * * * * * //

dimensions      [0 0 -1 0 0 0 0];

internalField   nonuniform List<scalar> 
3257
(
203.35135
201.55153
199.78527
198.0514
196.35074
194.68496
193.0561
191.46715
189.92174
188.41584
186.90318
185.3831
183.92682
182.51679
181.15608
179.83851
178.57607
177.35905
176.1794
175.0368
173.93557
172.87611
171.85619
170.87391
169.92868
169.02069
168.15026
167.31756
166.52258
165.7652
165.04532
164.3629
163.71795
163.11053
162.54069
162.00838
161.51344
161.05553
160.63413
160.24855
159.89793
159.58135
159.29784
159.04655
158.82679
158.63812
158.48034
158.35354
158.25795
158.19379
158.16131
202.71282
200.98836
199.28379
197.59842
195.93591
194.30019
192.69342
191.11831
189.57702
188.07131
186.59848
185.15262
183.73869
182.36196
181.02634
179.73243
178.48156
177.27022
176.09588
174.95928
173.86191
172.8037
171.78368
170.80123
169.85637
168.94936
168.08042
167.24959
166.45675
165.70173
164.98437
164.30459
163.66238
163.05776
162.49072
161.96121
161.46903
161.01382
160.59503
160.21191
159.86357
159.54902
159.26729
159.01746
158.79886
158.61105
158.45389
158.32748
158.23212
158.16811
158.13575
201.36067
199.68653
198.0375
196.41377
194.81629
193.24648
191.70565
190.19539
188.71746
187.27367
185.86472
184.48807
183.14065
181.82242
180.53489
179.28012
178.05946
176.87391
175.72448
174.61194
173.53674
172.49883
171.498
170.53416
169.60739
168.71777
167.86533
167.04999
166.27165
165.53015
164.82541
164.15741
163.52619
162.93181
162.37431
161.85369
161.36976
160.92221
160.51048
160.13382
159.7913
159.48192
159.20464
158.95855
158.74298
158.55753
158.40213
158.27697
158.18242
158.1188
158.08646
200.16709
198.49777
196.86019
195.25478
193.68202
192.14236
190.6362
189.16401
187.72633
186.32362
184.956
183.62263
182.32193
181.05291
179.81527
178.60933
177.43548
176.2943
175.18645
174.1124
173.07249
172.06698
171.09608
170.16009
169.25928
168.39385
167.56396
166.76965
166.01092
165.28779
164.60027
163.94843
163.33238
162.75223
162.20808
161.69994
161.22767
160.79094
160.38921
160.0217
159.68746
159.3854
159.11448
158.87377
158.6626
158.48065
158.3279
158.20467
158.1114
158.04843
158.01616
199.37252
197.68635
196.0364
194.42314
192.8469
191.30785
189.80605
188.34153
186.91425
185.5241
184.17084
182.85397
181.5728
180.32668
179.11504
177.93752
176.79386
175.68394
174.60771
173.56511
172.55611
171.58069
170.63892
169.73091
168.85683
168.01681
167.21097
166.43938
165.70214
164.99931
164.331
163.69734
163.09849
162.53462
162.00583
161.51215
161.05345
160.6294
160.23942
159.88271
159.55824
159.2649
159.00159
158.76735
158.56155
158.38389
158.23447
158.11369
158.02208
157.95999
157.92783
198.82921
197.13097
195.47051
193.84834
192.26473
190.71987
189.21379
187.74648
186.31782
184.92763
183.57567
182.2616
180.98502
179.74552
178.5427
177.37616
176.24555
175.15053
174.09077
173.06594
172.07576
171.11995
170.19831
169.31071
168.45704
167.63723
166.85124
166.09905
165.38067
164.69613
164.04551
163.42893
162.84654
162.29845
161.78478
161.30552
160.8605
160.44934
160.07141
159.72584
159.41155
159.12733
158.87204
158.64468
158.44463
158.27164
158.12586
158.0078
157.91806
157.85697
157.82496
198.39343
196.69147
195.02764
193.40237
191.81594
190.26852
188.76019
187.29097
185.86077
184.46948
183.11692
181.80287
180.52709
179.2893
178.08923
176.9266
175.80109
174.71239
173.66016
172.64405
171.6637
170.71876
169.80891
168.93387
168.09338
167.28721
166.51518
165.77716
165.07303
164.40275
163.76632
163.1638
162.59524
162.06073
161.56029
161.09385
160.66118
160.2618
159.89503
159.55988
159.25518
158.97964
158.73204
158.51134
158.31689
158.14848
158.00633
157.89098
157.80313
157.74307
157.71121
198.00081
196.29978
194.63694
193.01266
191.42721
189.88073
188.37331
186.90498
185.4757
184.08538
182.7339
181.42112
180.14684
178.91089
177.71304
176.55309
175.43079
174.34587
173.29805
172.28701
171.31242
170.37396
169.47128
168.60407
167.77201
166.97482
166.21226
165.4841
164.79018
164.13038
163.50465
162.91294
162.35528
161.83166
161.34203
160.88624
160.46396
160.07465
159.71751
159.39147
159.09524
158.82743
158.58674
158.37206
158.18273
158.01852
157.8797
157.76689
157.6808
157.6217
157.58995
197.631
195.93231
194.27194
192.65021
191.06733
189.52346
188.01865
186.55293
185.12627
183.73859
182.3898
181.07976
179.80833
178.57534
177.38061
176.22394
175.10513
174.02393
172.98009
171.97334
171.00339
170.06992
169.17264
168.31121
167.48533
166.69472
165.9391
165.21823
164.53193
163.88003
163.26245
162.67911
162.12996
161.61496
161.13398
160.68681
160.27305
159.89207
159.54299
159.22463
158.93561
158.67445
158.43973
158.23029
158.04542
157.8849
157.74902
157.63844
157.55392
157.49566
157.46395
197.28087
195.58419
193.92608
192.30682
190.7266
189.18553
187.68366
186.221
184.79751
183.41311
182.0677
180.76115
179.49332
178.26403
177.0731
175.92035
174.80557
173.72852
172.68895
171.68662
170.72125
169.79253
168.90019
168.0439
167.22338
166.43835
165.68852
164.97368
164.2936
163.64815
163.03718
162.46062
161.91839
161.41039
160.93648
160.49637
160.08962
159.71554
159.37316
159.06123
158.7783
158.52277
158.29314
158.08819
157.90714
157.74978
157.61642
157.50776
157.42458
157.36702
157.33529
196.95264
195.25682
193.59995
191.98227
190.40394
188.86505
187.36562
185.90564
184.48506
183.10378
181.76169
180.45865
179.1945
177.96905
176.78212
175.63351
174.52297
173.45029
172.4152
171.41745
170.45674
169.5328
168.64533
167.79403
166.97861
166.19878
165.45428
164.74486
164.07034
163.43054
162.82534
162.25462
161.71831
161.21628
160.74834
160.3142
159.91336
159.54509
159.20837
158.90188
158.62411
158.37338
158.14811
157.947
157.76921
157.61454
157.48332
157.37628
157.29422
157.23722
157.20538
196.64919
194.95278
193.29581
191.67847
190.10091
188.56318
187.06528
185.60718
184.1888
182.81004
181.47075
180.17078
178.90995
177.68805
176.50488
175.36021
174.2538
173.18538
172.15469
171.16145
170.20537
169.28615
168.40347
167.55704
166.74655
165.97173
165.23229
164.528
163.85864
163.22406
162.6241
162.05866
161.52763
161.03087
160.56819
160.13924
159.74352
159.38027
159.04841
158.74662
158.4733
158.22672
158.00521
157.8074
157.63243
157.48006
157.35065
157.24496
157.16384
157.10726
157.07523
196.37245
194.67398
193.01551
191.39722
189.8192
188.2815
186.78408
185.3269
183.90983
182.53277
181.19554
179.89796
178.63984
177.42095
176.24105
175.09989
173.99721
172.93271
171.90612
170.91713
169.96543
169.05069
168.17259
167.33083
166.52507
165.75502
165.0204
164.32096
163.65648
163.02678
162.4317
161.87112
161.34492
160.85294
160.39497
159.97066
159.57947
159.22062
158.89303
158.59535
158.32592
158.08297
157.86475
157.66985
157.49733
157.34695
157.21907
157.11453
157.03417
156.97792
156.94562
196.12306
194.42118
192.75992
191.13944
189.55981
188.02102
186.52305
185.06579
183.64913
182.2729
180.93692
179.64099
178.38487
177.16832
175.99108
174.85287
173.75339
172.69234
171.6694
170.68425
169.73654
168.82594
167.9521
167.11468
166.31335
165.5478
164.81771
164.12283
163.46292
162.83777
162.24723
161.69116
161.1694
160.68179
160.2281
159.80796
159.42082
159.06589
158.74209
158.44804
158.18205
157.94231
157.72702
157.53468
157.36433
157.21569
157.08914
156.98557
156.90584
156.84981
156.81718
195.90052
194.19406
192.52889
190.90513
189.32284
187.78199
186.2825
184.82427
183.40713
182.03091
180.6954
179.40036
178.14554
176.93067
175.75545
174.61958
173.52274
172.46459
171.4448
170.463
169.51884
168.61195
167.74197
166.90852
166.11126
165.34984
164.62394
163.93328
163.27761
162.65669
162.07036
161.51843
161.00076
160.51714
160.06734
159.65096
159.26746
158.91602
158.59559
158.30475
158.04182
157.80494
157.59226
157.40223
157.23382
157.08672
156.96134
156.85858
156.77938
156.7235
156.69047
195.70351
193.9915
192.32147
190.69353
189.1077
187.56392
186.0621
184.60209
183.18372
181.80677
180.47101
179.17618
177.922
176.70816
175.53435
174.40024
173.30547
172.2497
171.23253
170.2536
169.31252
168.40889
167.54233
166.71244
165.91884
165.16118
164.4391
163.75231
163.10051
162.48348
161.90099
161.35287
160.83892
160.35894
159.91265
159.49965
159.11939
158.77108
158.45362
158.16563
157.90542
157.67109
157.46077
157.27283
157.10617
156.96047
156.83612
156.73407
156.65532
156.59953
156.56603
195.53018
193.81185
192.13621
190.50335
188.91326
187.36585
185.86101
184.39856
182.9783
181.59999
180.26336
178.96814
177.71401
176.50064
175.32769
174.19479
173.10158
172.04766
171.03263
170.05609
169.11763
168.21682
167.35325
166.5265
165.73617
164.98187
164.26324
163.57995
162.93167
162.31816
161.73918
161.1945
160.68393
160.20722
159.76409
159.35411
158.97674
158.63118
158.31635
158.03087
157.77305
157.54101
157.33282
157.14679
156.98176
156.83733
156.71391
156.6125
156.53413
156.47841
156.44438
195.37844
193.6532
191.97137
190.33302
188.73809
187.1865
185.67808
184.21265
182.78996
181.40976
180.07175
178.77562
177.52104
176.30764
175.13506
174.00291
172.91078
171.85826
170.84493
169.87035
168.93407
168.03567
167.17468
166.35068
165.56323
164.81192
164.09637
163.41621
162.7711
162.16077
161.58494
161.04337
160.53583
160.06206
159.62174
159.21444
158.83962
158.49647
158.18393
157.90064
157.64494
157.41493
157.20868
157.02441
156.86089
156.71766
156.59511
156.49428
156.41626
156.36057
156.32593
195.24613
193.51356
191.82511
190.18083
188.58064
187.02443
185.51201
184.04315
182.61761
181.23509
179.89527
178.59782
177.34236
176.12852
174.9559
173.82408
172.73263
171.68112
170.66908
169.69606
168.76159
167.86521
167.00644
166.18481
165.39989
164.65122
163.9384
163.26103
162.61876
162.01127
161.43827
160.89949
160.39466
159.9235
159.48566
159.08073
158.70812
158.36707
158.05651
157.77512
157.52126
157.29306
157.08856
156.90594
156.74386
156.60177
156.48004
156.37974
156.30203
156.24634
156.21098
195.13117
193.39097
191.6956
190.04508
188.43932
186.87816
185.36141
183.88881
182.46008
181.0749
179.73294
178.43381
177.17714
175.96252
174.78951
173.65767
172.56656
171.5157
170.50461
169.53282
168.59981
167.70512
166.84823
166.02865
165.24592
164.49957
163.78916
163.11427
162.47452
161.86957
161.29909
160.76279
160.26037
159.79152
159.35587
158.953
158.58232
158.24306
157.93419
157.65442
157.40216
157.17556
156.97265
156.79157
156.63088
156.48992
156.36897
156.26916
156.19171
156.13597
156.09978
195.0316
193.28359
191.5811
189.92414
188.31258
186.74625
185.22494
183.74835
182.31618
180.92809
179.58371
178.28265
177.02449
175.8088
174.63512
173.50299
172.41192
171.36142
170.35099
169.38012
168.44829
167.55498
166.69968
165.88186
165.10104
164.35671
163.64842
162.97572
162.33821
161.73551
161.16728
160.63318
160.13289
159.66607
159.23234
158.83126
158.46223
158.1245
157.81705
157.53865
157.28775
157.06255
156.86109
156.68147
156.52214
156.3823
156.26214
156.16278
156.08556
156.02975
155.99255
194.94563
193.18971
191.48
189.81647
188.19898
186.62735
185.1013
183.62056
182.18477
180.79358
179.44659
178.14339
176.88352
175.66654
174.49197
173.3593
172.26804
171.21766
170.20764
169.23745
168.30653
167.41436
166.56038
165.74406
164.96488
164.22232
163.51589
162.84513
162.2096
161.60891
161.04266
160.51051
160.0121
159.54706
159.11501
158.71547
158.34785
158.01139
157.70513
157.42785
157.17809
156.9541
156.75396
156.57573
156.41776
156.27908
156.15974
156.06084
155.98384
155.92795
155.88956
194.87164
193.1078
191.39083
189.72069
188.09721
186.52017
184.98931
183.5043
182.06478
180.67035
179.32061
178.01511
176.75338
175.53494
174.35928
173.22589
172.13424
171.08378
170.07397
169.10423
168.17402
167.28276
166.42989
165.61484
164.83708
164.09605
163.39126
162.72221
162.08844
161.48951
160.92503
160.3946
159.89784
159.43436
159.00376
158.60554
158.23911
157.90371
157.59841
157.32205
157.07323
156.85028
156.65131
156.4744
156.3178
156.18035
156.06193
155.96355
155.88681
155.83087
155.79113
194.80818
193.03647
191.31227
189.63551
188.00603
186.42358
184.88786
183.39852
181.95519
180.55745
179.20487
177.89696
176.63324
175.41321
174.23634
173.10208
172.00988
170.95917
169.94939
168.97994
168.05024
167.15971
166.30775
165.49378
164.71723
163.97755
163.27419
162.60665
161.97442
161.37707
160.81414
160.28523
159.78993
159.32781
158.89847
158.50138
158.13594
157.8014
157.49687
157.22124
156.97317
156.75108
156.55315
156.37749
156.22227
156.08617
155.96881
155.87107
155.79465
155.73877
155.69749
194.75395
192.97447
191.24312
189.55981
187.92436
186.33651
184.79593
183.30226
181.8551
180.45401
179.09851
177.78813
176.52235
175.30064
174.12244
172.9872
171.89433
170.84324
169.83335
168.86404
167.9347
167.04473
166.19352
165.38046
164.60496
163.86644
163.16434
162.49812
161.86727
161.2713
160.70976
160.18219
159.68816
159.22724
158.79898
158.40285
158.03823
157.70439
157.40047
157.12539
156.87789
156.65649
156.45947
156.28497
156.13115
155.99651
155.88041
155.78348
155.7075
155.65184
155.60887
194.70781
192.9207
191.18231
189.49255
187.85121
186.25802
184.71263
183.21465
181.76366
180.35921
179.00079
177.6879
176.42
175.19654
174.01694
172.88063
171.78699
170.73542
169.7253
168.75601
167.82691
166.93737
166.08676
165.27447
164.49986
163.76236
163.06136
162.39631
161.76667
161.17194
160.61161
160.08523
159.59232
159.13245
158.70513
158.30981
157.94587
157.61259
157.30911
157.03444
156.78736
156.56649
156.37022
156.19678
156.04434
155.91127
155.79666
155.70081
155.62543
155.5702
155.52542
194.66874
192.87418
191.1289
189.43281
187.7857
186.18725
184.63712
183.13489
181.68012
180.27231
178.91098
177.59557
176.32553
175.10029
173.91925
172.7818
171.68732
170.63518
169.62475
168.65537
167.7264
166.83717
165.98706
165.1754
164.40157
163.66494
162.96491
162.30089
161.67233
161.07868
160.51944
159.9941
159.50219
159.04324
158.61672
158.22209
157.85871
157.52586
157.22272
156.94832
156.70152
156.48104
156.28536
156.11285
155.96172
155.83032
155.71743
155.62298
155.54844
155.49391
155.44735
194.63584
192.83403
191.08203
189.37977
187.72701
186.12344
184.56866
183.06226
181.60376
180.19266
178.82843
177.51052
176.23834
175.0113
173.82878
172.69016
171.5948
170.54203
169.53121
168.56167
167.63273
166.74373
165.894
165.08288
164.3097
163.57383
162.87465
162.21155
161.58394
160.99127
160.43299
159.90857
159.41754
158.95939
158.53358
158.13952
157.7766
157.44409
157.14118
156.86694
156.62031
156.40007
156.20484
156.0331
155.88318
155.75344
155.64251
155.54985
155.47651
155.42298
155.375
194.60832
192.79947
191.04095
189.33269
187.67445
186.06588
184.50658
182.99611
181.53397
180.11964
178.75257
177.43218
176.15788
174.92904
173.74504
172.60523
171.50894
170.4555
169.44424
168.47446
167.54549
166.65664
165.80721
164.99653
164.22391
163.48871
162.79027
162.12798
161.50122
160.90941
160.35198
159.82839
159.33815
158.8807
158.45549
158.06193
157.69938
157.36713
157.06437
156.79021
156.54364
156.32352
156.12858
155.95744
155.80858
155.68043
155.57159
155.48115
155.40956
155.35744
155.30904
194.58554
192.76976
191.00495
189.2909
187.62735
186.01395
184.45028
182.93585
181.47017
180.05269
178.68284
177.36003
176.08363
174.85302
173.66754
172.52653
171.42929
170.37515
169.36341
168.39336
167.4643
166.57552
165.72632
164.916
164.14387
163.40924
162.71146
162.04988
161.42387
160.83283
160.27616
159.75332
159.26377
158.80694
158.38226
157.98913
157.62689
157.29483
156.99216
156.71801
156.47142
156.25132
156.05654
155.88581
155.73779
155.61107
155.5043
155.41645
155.34739
155.2974
155.25092
192.74432
190.97341
189.25379
187.58514
185.96709
184.39919
182.88095
181.41184
179.99131
178.61876
177.29358
176.01514
174.78279
173.59585
172.45363
171.35544
170.30058
169.28833
168.31796
167.38877
166.50001
165.65098
164.84096
164.06924
163.33512
162.63792
161.97697
161.35163
160.76128
160.20529
159.68311
159.19418
158.7379
158.31369
157.92092
157.55893
157.22702
156.92439
156.65021
156.40354
156.18338
155.98863
155.81816
155.67075
155.54517
155.44027
155.35511
155.28938
155.24299
155.20289
192.72233
190.94574
189.22083
187.54731
185.9248
184.35284
182.83092
181.35851
179.93503
178.55987
177.2324
175.95197
174.71791
173.52954
172.38614
171.28701
170.23141
169.21863
168.24793
167.31856
166.42979
165.58088
164.7711
163.99972
163.26604
162.56935
161.90897
161.28423
160.69449
160.13911
159.61754
159.12916
158.67337
158.24957
157.85712
157.49534
157.16353
156.86092
156.58667
156.33988
156.11959
155.92479
155.75441
155.60738
155.48262
155.37917
155.29632
155.234
155.19263
155.16764
192.70354
190.92153
189.19157
187.5134
185.88662
184.31077
182.78534
181.30975
179.88343
178.50576
177.17608
175.89373
174.65802
173.46824
172.32368
171.22361
170.16729
169.15398
168.18291
167.25334
166.36452
165.51569
164.70611
163.93503
163.20173
162.50549
161.84561
161.22141
160.63221
160.0774
159.55636
159.06848
158.61314
158.1897
157.79752
157.43593
157.1042
156.80158
156.52723
156.2803
156.05985
155.86492
155.69453
155.54767
155.42341
155.32091
155.23959
155.17942
155.14077
155.12199
192.68757
190.90038
189.1656
187.483
185.85215
184.2726
182.7438
181.26518
179.83615
178.45606
177.12425
175.84004
174.60273
173.4116
172.26592
171.16493
170.10789
169.09404
168.1226
167.19282
166.30391
165.45513
164.6457
163.87487
163.14191
162.44607
161.78664
161.16292
160.57422
160.01991
159.49936
159.01193
158.55699
158.13388
157.74195
157.38051
157.04884
156.74619
156.47175
156.22465
156.00402
155.80892
155.63842
155.4916
155.36757
155.26557
155.18506
155.12583
155.08788
155.07018
192.67406
190.88192
189.14258
187.45575
185.82104
184.23795
182.70595
181.22444
179.79281
178.41041
177.07657
175.79059
174.55174
173.3593
172.21253
171.11065
170.0529
169.03851
168.0667
167.13668
166.24768
165.39892
164.58961
163.819
163.08632
162.39084
161.73181
161.10852
160.52027
159.96643
159.44632
158.95931
158.50472
158.08191
157.6902
157.32889
156.99728
156.69459
156.42004
156.17278
155.95195
155.75665
155.586
155.4391
155.31512
155.21333
155.13313
155.07415
155.03605
155.01797
192.66269
190.86585
189.12216
187.43134
185.79296
184.20652
182.67147
181.18721
179.75311
178.36852
177.03273
175.74505
174.50473
173.31104
172.16321
171.06047
170.00203
168.98712
168.01493
167.08468
166.19556
165.34679
164.53758
163.76716
163.03474
162.33956
161.6809
161.05799
160.47016
159.91673
159.39704
158.91039
158.45614
158.03359
157.64208
157.2809
156.94933
156.6466
156.37194
156.12452
155.9035
155.70799
155.53715
155.39011
155.26607
155.16429
155.08414
155.0251
154.98666
154.96807
192.65314
190.85186
189.10407
187.40947
185.76761
184.178
182.64006
181.1532
179.71676
178.33007
176.99244
175.70314
174.46142
173.26653
172.11769
171.01412
169.95502
168.93959
167.96703
167.03654
166.1473
165.29851
164.48938
163.7191
162.98691
162.29202
161.63367
161.01112
160.42366
159.87062
159.3513
158.865
158.41104
157.98874
157.59741
157.23634
156.90481
156.60205
156.32729
156.07971
155.85849
155.66278
155.49174
155.34453
155.22035
155.11849
155.03825
154.97906
154.94029
154.92132
192.64518
190.83972
189.08805
187.38988
185.74474
184.15213
182.61147
181.12214
179.68349
178.29482
176.95544
175.6646
174.42155
173.22552
172.07571
170.97135
169.91161
168.89568
167.92276
166.99203
166.10265
165.25383
164.44476
163.67462
162.94262
162.24798
161.58992
160.96769
160.38058
159.82789
159.30891
158.82292
158.36925
157.94718
157.55601
157.19505
156.86354
156.56075
156.2859
156.03818
155.81678
155.62087
155.44962
155.30222
155.17789
155.07588
154.99552
154.93614
154.89712
154.87789
192.63859
190.82918
189.07387
187.37234
185.72412
184.12868
182.58545
181.0938
179.65305
178.26252
176.92148
175.62919
174.38488
173.18776
172.03704
170.93192
169.87156
168.85516
167.88189
166.95092
166.06141
165.21255
164.40351
163.63348
162.90166
162.20725
161.54945
160.92751
160.34072
159.78836
159.26969
158.78399
158.33057
157.90871
157.51771
157.15684
156.82537
156.52255
156.24761
155.99976
155.77818
155.58208
155.41064
155.26305
155.13855
155.03639
154.95587
154.89633
154.85711
154.83771
192.63316
190.82006
189.06133
187.35664
185.70552
184.10743
182.56179
181.06794
179.62523
178.23294
176.89035
175.59668
174.35118
173.15304
172.00145
170.8956
169.83467
168.81781
167.8442
166.91299
166.02335
165.17444
164.36544
163.59551
162.86384
162.16962
161.51206
160.89039
160.3039
159.75183
159.23345
158.74803
158.29484
157.87318
157.48232
157.12154
156.79011
156.48727
156.21225
155.96428
155.74255
155.54627
155.37464
155.22687
155.1022
154.99988
154.91921
154.85952
154.82016
154.80065
192.62873
190.81217
189.05024
187.3426
185.68876
184.08819
182.54028
181.04438
179.59982
178.20589
176.86182
175.56687
174.32024
173.12114
171.96873
170.86221
169.80072
168.78343
167.80949
166.87806
165.98828
165.13932
164.33034
163.56049
162.82896
162.13492
161.47757
160.85616
160.26993
159.71814
159.20003
158.71485
158.26189
157.84041
157.4497
157.089
156.75761
156.45475
156.17966
155.93158
155.70972
155.51328
155.34147
155.19353
155.06869
154.96622
154.88542
154.82559
154.78612
154.76653
192.62515
190.80537
189.04045
187.33005
185.67367
184.07077
182.52074
181.02293
179.57664
178.18116
176.83572
175.53956
174.29188
173.09187
171.9387
170.83153
169.76952
168.75182
167.77757
166.84592
165.95602
165.107
164.29803
163.52825
162.79684
162.10297
161.44582
160.82463
160.23866
159.68712
159.16926
158.68432
158.23156
157.81025
157.41967
157.05906
156.7277
156.42483
156.14969
155.90152
155.67952
155.48294
155.31097
155.16287
155.03788
154.93527
154.85433
154.7944
154.75483
154.73519
192.62231
190.79953
189.03182
187.31885
185.6601
184.05503
182.50303
181.00342
179.55552
178.15859
176.81187
175.51458
174.26592
173.06506
171.91116
170.80339
169.74089
168.72281
167.74827
166.81641
165.92638
165.07731
164.26834
163.49863
162.76733
162.0736
161.41663
160.79566
160.20992
159.65861
159.14098
158.65626
158.20369
157.78255
157.39209
157.03156
156.70024
156.39737
156.12218
155.87392
155.65182
155.4551
155.283
155.13475
155.00961
154.90687
154.82582
154.76579
154.72615
154.70645
192.62009
190.79452
189.02423
187.30886
185.64791
184.04082
182.48697
180.9857
179.5363
178.13802
176.79011
175.49177
174.24218
173.04053
171.88596
170.77763
169.71467
168.69622
167.72141
166.78936
165.89921
165.05008
164.24112
163.47146
162.74026
162.04666
161.38986
160.76909
160.18356
159.63247
159.11505
158.63053
158.17814
157.75715
157.36681
157.00637
156.67508
156.37221
156.09699
155.84866
155.62646
155.42962
155.25739
155.10901
154.98375
154.88089
154.79973
154.73961
154.6999
154.68018
192.61839
190.79025
189.01756
187.29997
185.63697
184.02801
182.47245
180.96963
179.51883
178.11931
176.77029
175.47096
174.22052
173.01813
171.86294
170.75408
169.69069
168.67191
167.69683
166.7646
165.87434
165.02516
164.2162
163.44659
162.71547
162.022
161.36535
160.74476
160.15943
159.60855
159.09132
158.60699
158.15477
157.73392
157.34369
156.98333
156.65209
156.34922
156.07397
155.82558
155.6033
155.40636
155.23401
155.08551
154.96013
154.85717
154.77592
154.71572
154.67596
154.6562
192.61715
190.78664
189.01173
187.29207
185.62718
184.01648
182.45934
180.95508
179.50299
178.10231
176.75226
175.45203
174.2008
172.99772
171.84194
170.7326
169.66882
168.64971
167.6744
166.742
165.85163
165.0024
164.19344
163.42387
162.69283
161.99947
161.34297
160.72256
160.1374
159.58671
159.06967
158.5855
158.13345
157.71274
157.32261
156.96233
156.63113
156.32827
156.053
155.80456
155.5822
155.38517
155.21272
155.06412
154.93864
154.83558
154.75424
154.69398
154.65417
154.63439
192.61629
190.78359
189.00664
187.28508
185.61843
184.00612
182.44752
180.94194
179.48866
178.08691
176.7359
175.43484
174.18287
172.97916
171.82285
170.71306
169.64891
168.62951
167.65398
166.72142
165.83094
164.98167
164.1727
163.40318
162.67221
161.97895
161.32259
160.70233
160.11735
159.56682
159.04995
158.56595
158.11405
157.69346
157.30344
156.94323
156.61208
156.30923
156.03395
155.78547
155.56304
155.36593
155.1934
155.0447
154.91913
154.81598
154.73457
154.67425
154.6344
154.6146
192.61576
190.78106
189.00221
187.2789
185.61063
183.99684
182.4369
180.9301
179.47572
178.07298
176.7211
175.41926
174.16662
172.96233
171.80552
170.69532
169.63083
168.61116
167.63542
166.70272
165.81215
164.96283
164.15387
163.38438
162.65348
161.96031
161.30408
160.68396
160.09914
159.54877
159.03206
158.54821
158.09644
157.67598
157.28606
156.92592
156.59481
156.29198
156.01669
155.76818
155.5457
155.34852
155.17591
155.02713
154.90148
154.79826
154.71678
154.6564
154.61652
154.59669
192.61551
190.77898
188.99839
187.27346
185.60371
183.98856
182.42737
180.91946
179.46407
178.06043
176.70775
175.4052
174.15194
172.94711
171.78985
170.67926
169.61446
168.59455
167.61862
166.68579
165.79514
164.94578
164.13681
163.36735
162.63651
161.94343
161.28732
160.66734
160.08266
159.53244
159.01588
158.53217
158.08053
157.66018
157.27035
156.91028
156.57922
156.27641
156.00111
155.75257
155.53006
155.33282
155.16014
155.01129
154.88557
154.78228
154.70074
154.64032
154.6004
154.58056
192.61551
190.77731
188.99512
187.2687
185.59757
183.98118
182.41886
180.90992
179.45361
178.04915
176.69573
175.39253
174.13871
172.93339
171.77571
170.66477
169.59969
168.57955
167.60346
166.6705
165.77978
164.93038
164.12141
163.35198
162.6212
161.9282
161.2722
160.65235
160.0678
159.51773
159.0013
158.51772
158.0662
157.64595
157.25621
156.89621
156.56519
156.26241
155.98711
155.73855
155.516
155.31872
155.14598
154.99707
154.87128
154.76793
154.68635
154.62588
154.58593
154.56607
192.61574
190.776
188.99234
187.26454
185.59217
183.97463
182.41129
180.90142
179.44427
178.03906
176.68497
175.38118
174.12683
172.92107
171.76301
170.65176
169.58641
168.56608
167.58983
166.65676
165.76597
164.91654
164.10757
163.33817
162.60744
161.91452
161.25863
160.63889
160.05447
159.50452
158.98822
158.50476
158.05335
157.6332
157.24354
156.88361
156.55263
156.24987
155.97458
155.72601
155.50343
155.3061
155.13331
154.98435
154.85851
154.75511
154.67348
154.61297
154.57299
154.55312
192.61619
190.77503
188.98999
187.26094
185.58742
183.96886
182.40458
180.89387
179.43596
178.03007
176.67537
175.37104
174.11622
172.91005
171.75165
170.64011
169.57453
168.55401
167.57763
166.64446
165.75361
164.90415
164.09519
163.32582
162.59513
161.90229
161.24649
160.62686
160.04255
159.49272
158.97654
158.49319
158.04189
157.62183
157.23225
156.87237
156.54144
156.23871
155.96342
155.71484
155.49224
155.29488
155.12205
154.97304
154.84715
154.74371
154.66204
154.6015
154.5615
154.54161
192.61689
190.77434
188.98805
187.25784
185.58328
183.96378
182.39867
180.8872
179.42861
178.0221
176.66685
175.36203
174.10678
172.90025
171.74153
170.62974
169.56395
168.54327
167.56676
166.63351
165.7426
164.89312
164.08416
163.31482
162.58418
161.89141
161.2357
160.61617
160.03196
159.48224
158.96616
158.48292
158.03171
157.61175
157.22224
156.86242
156.53153
156.22882
155.95355
155.70496
155.48234
155.28495
155.11209
154.96304
154.83712
154.73363
154.65193
154.59136
154.55133
154.53144
192.61789
190.77388
188.98645
187.25519
185.57969
183.95936
182.39349
180.88135
179.42214
178.01508
176.65933
175.35407
174.09844
172.89158
171.73258
170.62056
169.55458
168.53375
167.55713
166.62381
165.73286
164.88336
164.07441
163.30509
162.57449
161.88179
161.22616
160.60672
160.02261
159.47299
158.95701
158.47387
158.02275
157.60286
157.21342
156.85366
156.52281
156.22013
155.94486
155.69628
155.47364
155.27624
155.10334
154.95426
154.8283
154.72479
154.64305
154.58246
154.54241
154.52251
190.77366
188.98516
187.25294
185.57661
183.95553
182.389
180.87625
179.41651
178.00895
176.65275
175.3471
174.09112
172.88396
171.72471
170.61248
169.54635
168.52538
167.54867
166.61528
165.72429
164.87478
164.06584
163.29654
162.56599
161.87335
161.2178
160.59844
160.01442
159.46489
158.949
158.46595
158.01491
157.59509
157.20572
156.84601
156.5152
156.21254
155.93729
155.68871
155.46606
155.26864
155.09572
154.94662
154.82063
154.71709
154.63533
154.57471
154.53464
154.51473
190.77356
188.98412
187.25106
185.57398
183.95225
182.38513
180.87186
179.41163
178.00363
176.64704
175.34103
174.08475
172.87732
171.71785
170.60544
169.53916
168.51808
167.54129
166.60784
165.71682
164.8673
164.05837
163.28909
162.55858
161.86601
161.21052
160.59124
160.0073
159.45785
158.94206
158.45908
158.00812
157.58837
157.19905
156.83939
156.50862
156.20599
155.93075
155.68217
155.45952
155.26209
155.08915
154.94002
154.81401
154.71045
154.62867
154.56803
154.52795
154.50803
190.77379
188.98328
187.24951
185.57177
183.94947
182.38185
180.86812
179.40748
177.99909
176.64214
175.33581
174.07925
172.87159
171.71193
170.59936
169.53295
168.51178
167.53491
166.60142
165.71037
164.86085
164.05192
163.28267
162.5522
161.85968
161.20426
160.58505
160.00119
159.45181
158.93609
158.45319
158.0023
157.58261
157.19335
156.83373
156.503
156.20039
155.92517
155.6766
155.45395
155.2565
155.08355
154.9344
154.80837
154.70479
154.62299
154.56235
154.52225
154.50232
188.98264
187.24824
185.56994
183.94716
182.37911
180.86499
179.40398
177.99525
176.63799
175.33138
174.07457
172.8667
171.70687
170.59416
169.52764
168.50639
167.52946
166.59594
165.70487
164.85534
164.04643
163.2772
162.54676
161.8543
161.19893
160.57979
159.996
159.4467
158.93104
158.44821
157.99738
157.57775
157.18854
156.82896
156.49826
156.19568
155.92047
155.67191
155.44926
155.2518
155.07885
154.92969
154.80364
154.70004
154.61824
154.55758
154.51747
154.49753
188.98211
187.24722
185.56845
183.94526
182.37686
180.86242
179.4011
177.99207
176.63452
175.32766
174.07065
172.8626
171.70262
170.58979
169.52318