/*--------------------------------*- C++ -*----------------------------------*\
| =========                 |                                                 |
| \\      /  F ield         | OpenFOAM: The Open Source CFD Toolbox           |
|  \\    /   O peration     | Version:  2312                                  |
|   \\  /    A nd           | Website:  www.openfoam.com                      |
|    \\/     M anipulation  |                                                 |
\*---------------------------------------------------------------------------*/
FoamFile
{
    version     2.0;
    format      ascii;
    arch        "LSB;label=32;scalar=64";
    class       volScalarField;
    location    "0.07";
    object      T;
}
// * * * * * * * * * * * * * * * * * * * * * * * * * * * * * * * * * * * * * //

dimensions      [0 0 0 1 0 0 0];

internalField   nonuniform List<scalar> 
3257
(
305.67357
305.38285
305.11599
304.86943
304.64068
304.42778
304.22938
304.04553
303.8812
303.76076
303.78866
304.40614
304.69091
305.14942
305.51945
305.79071
306.0446
306.27413
306.46373
306.61502
306.73994
306.8453
306.93078
306.9933
307.03018
307.0403
307.02389
306.98205
306.91626
306.82809
306.71902
306.59027
306.4428
306.27727
306.09407
305.89342
305.67553
305.44079
305.19
304.92464
304.64711
304.36093
304.07084
303.78283
303.50407
303.24258
303.00693
302.80564
302.64663
302.53654
302.48022
315.02608
314.41002
313.8244
313.26664
312.73491
312.2276
311.74344
311.28184
310.84402
310.43615
310.07577
309.79421
309.5449
309.36122
309.20482
309.06226
308.94365
308.84184
308.74621
308.65248
308.562
308.47468
308.38742
308.29583
308.19596
308.08504
307.96148
307.82455
307.67409
307.51023
307.3332
307.14318
306.94027
306.7244
306.49539
306.25294
305.99686
305.72717
305.44438
305.1497
304.8453
304.53452
304.22195
303.91353
303.6164
303.33868
303.08906
302.87624
302.70834
302.59221
302.53286
321.28115
320.59116
319.9174
319.25973
318.61823
317.99295
317.38394
316.79136
316.21576
315.65859
315.12273
314.61208
314.12626
313.66891
313.23656
312.82734
312.44238
312.07964
311.7358
311.40883
311.09794
310.80169
310.5174
310.24172
309.97136
309.70357
309.43622
309.16769
308.8968
308.62263
308.34439
308.06139
307.7729
307.47814
307.1763
306.86657
306.5483
306.22109
305.88509
305.5412
305.19129
304.83848
304.48722
304.1434
303.81424
303.50803
303.23375
303.00051
302.8168
302.68987
302.62503
325.39981
324.7123
324.03119
323.35701
322.69036
322.03181
321.38188
320.74111
320.11006
319.48944
318.88011
318.28309
317.6992
317.12945
316.5742
316.03394
315.50947
315.00093
314.50805
314.03067
313.56863
313.12137
312.68769
312.26598
311.85448
311.45149
311.05545
310.66502
310.279
309.89628
309.51583
309.13664
308.75767
308.37782
307.99599
307.6111
307.22222
306.82874
306.43055
306.02835
305.62382
305.21995
304.82114
304.43336
304.06402
303.72179
303.41614
303.15675
302.95272
302.81187
302.73996
328.52037
327.81819
327.12013
326.42656
325.73783
325.05432
324.3764
323.70447
323.03889
322.38008
321.72842
321.08434
320.44824
319.82055
319.20168
318.59213
317.99247
317.40319
316.82469
316.25734
315.70141
315.15696
314.62374
314.10128
313.58891
313.0859
312.59148
312.10486
311.62524
311.15181
310.68372
310.22005
309.75981
309.30195
308.84533
308.38887
307.93159
307.47281
307.01238
306.5509
306.09003
305.63273
305.18352
304.74855
304.33562
303.95393
303.61362
303.32514
303.0984
302.94192
302.86205
331.29371
330.54509
329.8019
329.06427
328.3323
327.60611
326.88583
326.17161
325.46357
324.76186
324.06662
323.37796
322.69602
322.02092
321.35282
320.69194
320.03855
319.39295
318.75544
318.12634
317.50593
316.8944
316.29182
315.69818
315.11331
314.53701
313.96898
313.40885
312.85619
312.31051
311.77119
311.23755
310.70876
310.18391
309.66199
309.142
308.62303
308.10446
307.58615
307.06874
306.55392
306.04475
305.54595
305.064
304.60718
304.18536
303.80949
303.49094
303.2406
303.06782
302.97961
333.97785
333.16195
332.35356
331.55273
330.75944
329.97367
329.19542
328.42467
327.66139
326.90557
326.15717
325.41614
324.68245
323.95603
323.23687
322.52497
321.82035
321.12311
320.43334
319.75117
319.07672
318.4101
317.75141
317.10068
316.45792
315.82306
315.196
314.57658
313.96456
313.35962
312.76132
312.16912
311.58235
311.00021
310.42181
309.84625
309.27268
308.70056
308.12978
307.56105
306.99614
306.43825
305.89233
305.36524
304.86582
304.40467
303.99368
303.64524
303.37128
303.18213
303.08553
336.63769
335.7452
334.86211
333.98845
333.12417
332.26924
331.42359
330.58714
329.75981
328.9415
328.13209
327.33146
326.53946
325.75597
324.98085
324.21398
323.45526
322.70461
321.96198
321.22733
320.50066
319.78196
319.07121
318.36842
317.67355
316.98656
316.30737
315.63587
314.97186
314.31509
313.66519
313.02169
312.38397
311.75131
311.12287
310.49779
309.87529
309.25483
308.63635
308.02058
307.40938
306.80607
306.21583
305.64592
305.10574
304.60667
304.16155
303.78387
303.48669
303.28139
303.1765
339.26687
338.29562
337.33527
336.38586
335.44738
334.5198
333.60306
332.69707
331.80174
330.91694
330.04253
329.17835
328.32425
327.48004
326.64554
325.82057
325.00497
324.19858
323.40126
322.61287
321.8333
321.06246
320.30025
319.5466
318.80141
318.0646
317.33605
316.61563
315.90314
315.19831
314.50078
313.81007
313.12559
312.44661
311.7723
311.10181
310.43435
309.76938
309.10684
308.44745
307.79311
307.14725
306.51525
305.90473
305.32563
304.79009
304.31195
303.90581
303.58592
303.36474
303.25168
341.84158
340.79298
339.75648
338.73212
337.71994
336.71994
335.73207
334.75626
333.79242
332.84045
331.9002
330.97151
330.05421
329.14813
328.25306
327.36881
326.49518
325.63197
324.77901
323.9361
323.10309
322.27981
321.46612
320.66188
319.86695
319.08121
318.30449
317.53661
316.77734
316.02639
315.28336
314.54777
313.81897
313.09624
312.37871
311.66551
310.95581
310.24904
309.54511
308.8447
308.14972
307.46365
306.79204
306.1428
305.5264
304.95571
304.44553
304.01163
303.66947
303.43267
303.31155
344.33966
343.21672
342.10684
341.0101
339.92656
338.85624
337.79915
336.75522
335.72438
334.70655
333.70159
332.70936
331.7297
330.76242
329.80734
328.86426
327.93297
327.01327
326.10494
325.20779
324.32162
323.44625
322.5815
321.72719
320.88316
320.04923
319.22521
318.41089
317.60601
316.81022
316.02312
315.24417
314.47271
313.70797
312.94906
312.19505
311.44509
310.69854
309.95524
309.21586
308.48223
307.75788
307.04844
306.36211
305.70978
305.10505
304.56365
304.10253
303.73842
303.48616
303.35704
346.74552
345.5518
344.37195
343.20608
342.05429
340.91662
339.7931
338.6837
337.58837
336.50702
335.43956
334.38585
333.34574
332.31906
331.30563
330.30526
329.31774
328.34286
327.38041
326.43019
325.49199
324.56561
323.65084
322.74751
321.85541
320.97436
320.10414
319.2445
318.39516
317.55577
316.72586
315.90488
315.09214
314.28683
313.48803
312.69478
311.90616
311.12149
310.34054
309.56388
308.79332
308.03234
307.28664
306.5646
305.87754
305.23968
304.66771
304.17976
303.79389
303.52622
303.38912
349.04996
347.7891
346.54283
345.31127
344.09457
342.89279
341.70597
340.53412
339.3772
338.23515
337.10788
335.99526
334.89718
333.81346
332.74393
331.68842
330.64671
329.61861
328.60391
327.60239
326.61384
325.63806
324.67485
323.72399
322.78529
321.85855
320.94351
320.03994
319.14752
318.26586
317.39451
316.53287
315.68023
314.83575
313.9985
313.16746
312.34167
311.5204
310.70334
309.89098
309.08504
308.28895
307.50841
306.75194
306.03118
305.36098
304.75894
304.24441
303.83682
303.55369
303.40854
351.24866
349.92419
348.61495
347.32111
346.04281
344.78017
343.53324
342.30204
341.08655
339.88673
338.70251
337.53377
336.38041
335.24226
334.11916
333.01094
331.91741
330.83836
329.77358
328.72287
327.68601
326.66279
325.65301
324.65646
323.67292
322.70218
321.744
320.79809
319.86415
318.94177
318.03047
317.12964
316.23857
315.35639
314.48213
313.61476
312.75329
311.89691
311.04526
310.19872
309.35891
308.52916
307.71514
306.92542
306.17194
305.47008
304.83835
304.29733
303.86793
303.56918
303.41587
353.34065
351.95591
350.58701
349.23413
347.89745
346.57709
345.27314
343.98563
342.71456
341.4599
340.22159
338.99953
337.79362
336.60371
335.42965
334.27127
333.12837
332.00077
330.88825
329.79061
328.70764
327.63912
326.58483
325.54458
324.51814
323.50528
322.50576
321.51929
320.54553
319.58409
318.63447
317.69605
316.76809
315.84974
314.93999
314.0378
313.14215
312.25217
311.36744
310.48824
309.61605
308.75408
307.9079
307.0861
306.3008
305.56788
304.90672
304.33917
303.88772
303.57306
303.41139
355.32707
353.88523
352.45979
351.05096
349.65894
348.28388
346.92587
345.58497
344.2612
342.95454
341.66493
340.39229
339.13653
337.8975
336.67506
335.46905
334.27927
333.10553
331.94764
330.80538
329.67853
328.56689
327.47024
326.38836
325.32103
324.26801
323.22905
322.20385
321.19208
320.19333
319.20707
318.23271
317.26949
316.31654
315.37287
314.43741
313.5091
312.58706
311.67077
310.76042
309.85735
308.9646
308.08759
307.23484
306.41858
305.65512
304.96467
304.37038
303.89646
303.56542
303.39511
357.21033
355.71437
354.23535
352.7735
351.32904
349.90214
348.49291
347.10143
345.72772
344.37177
343.03355
341.71298
340.40996
339.12437
337.85607
336.6049
335.37066
334.15317
332.95223
331.76763
330.59915
329.44657
328.30967
327.18824
326.08205
324.99084
323.91437
322.85232
321.80436
320.77006
319.7489
318.74028
317.74344
316.75751
315.7815
314.81432
313.85492
312.90235
311.95605
311.01607
310.08361
309.16151
308.25499
307.3724
306.526
305.73242
305.01267
304.39124
303.89418
303.5461
303.3667
358.99354
357.44631
355.91652
354.40444
352.9103
351.43429
349.97654
348.53714
347.11612
345.7135
344.32923
342.96326
341.61549
340.28581
338.97408
337.68012
336.40378
335.14485
333.90313
332.6784
331.47046
330.27908
329.10404
327.9451
326.80204
325.67461
324.56252
323.46548
322.38314
321.31506
320.26073
319.21953
318.19072
317.17342
316.16665
315.16932
314.18037
313.19881
312.22401
311.25593
310.29557
309.34555
308.41082
307.49949
306.62373
305.80037
305.05114
304.40191
303.88075
303.51466
303.32559
360.68017
359.08439
357.50653
355.94687
354.40569
352.88317
351.37948
349.89471
348.42891
346.9821
345.55425
344.14531
342.75518
341.38377
340.03093
338.6965
337.3803
336.08215
334.80183
333.53914
332.29385
331.06574
329.85457
328.66012
327.48215
326.32038
325.17455
324.04434
322.9294
321.82928
320.74347
319.67136
318.6122
317.56513
316.52916
315.50323
314.48625
313.47722
312.47543
311.48073
310.49395
309.51743
308.5558
307.61683
306.71244
305.85954
305.08049
304.40252
303.85593
303.47051
303.27095
362.27388
360.63214
359.00877
357.4041
355.81839
354.25187
352.7047
351.177
349.66883
348.18022
346.71114
345.26155
343.83137
342.42049
341.02877
339.65606
338.30218
336.96694
335.65013
334.35153
333.07092
331.80807
330.56275
329.33471
328.1237
326.92945
325.75169
324.59008
323.44426
322.3138
321.19818
320.09678
319.00886
317.93357
316.86995
315.81692
314.7734
313.73838
312.71108
311.69125
310.6795
309.67789
308.69066
307.72514
306.79286
305.91063
305.10124
304.39333
303.81958
303.41309
303.20193
363.77836
362.09316
360.42676
358.77951
357.15169
355.54356
353.95529
352.387
350.83877
349.31063
347.80258
346.31457
344.84653
343.39835
341.96989
340.56101
339.17153
337.80124
336.44995
335.11743
333.80346
332.50779
331.23019
329.9704
328.72817
327.50323
326.29527
325.10397
323.92897
322.7698
321.62597
320.49686
319.38173
318.27975
317.18995
316.1113
315.0427
313.98313
312.93176
311.88823
310.85294
309.82765
308.81614
307.82519
306.8658
305.95444
305.11415
304.37482
303.7718
303.34202
303.11781
365.19732
363.47105
361.764
360.07651
358.40891
356.76145
355.13434
353.5277
351.94163
350.37616
348.8313
347.307
345.8032
344.3198
342.85666
341.41363
339.99052
338.58716
337.20332
335.83877
334.4933
333.16665
331.85858
330.56882
329.29712
328.04319
326.80672
325.58738
324.3848
323.19852
322.02804
320.87273
319.73188
318.60467
317.49015
316.3873
315.29503
314.21231
313.13827
312.07243
311.01502
309.96744
308.93299
307.91781
306.93218
305.99198
305.12021
304.34786
303.71302
303.25719
303.01807
366.53441
364.76938
363.02395
361.29847
359.59331
357.90874
356.24496
354.60213
352.98034
351.37963
349.80003
348.24149
346.70395
345.18731
343.69145
342.21619
340.76138
339.32681
337.91226
336.51752
335.14233
333.78646
332.44965
331.13163
329.83212
328.55084
327.28748
326.04169
324.81308
323.60121
322.40557
321.22554
320.06042
318.9094
317.77155
316.64586
315.53127
314.42675
313.33139
312.24461
311.16643
310.09795
309.04193
308.0038
306.99293
306.02436
305.12067
304.31359
303.64401
303.15872
302.90226
367.79324
365.99166
364.21003
362.44873
360.70815
358.98857
357.29021
355.61324
353.95776
352.32384
350.71148
349.12065
347.5513
346.00334
344.47662
342.971
341.48629
340.02231
338.57883
337.15562
335.75244
334.36903
333.00513
331.66047
330.33476
329.02771
327.739
326.46827
325.21513
323.97913
322.75977
321.55643
320.36842
319.19495
318.03511
316.88791
315.75231
314.62728
313.51189
312.40547
311.30787
310.21986
309.14367
308.08395
307.04903
306.05278
305.11694
304.27346
303.56584
303.04687
302.76988
368.97734
367.14133
365.3256
363.53055
361.75659
360.00402
358.27308
356.56395
354.87674
353.21151
351.56829
349.94706
348.34775
346.77027
345.21449
343.68027
342.16742
340.67574
339.20501
337.755
336.32546
334.91612
333.52672
332.15698
330.80661
329.47529
328.1627
326.86849
325.59225
324.33353
323.09182
321.86653
320.65696
319.46235
318.2818
317.11436
315.959
314.8147
313.68051
312.55571
311.43997
310.33377
309.23882
308.15895
307.10135
306.07844
305.11055
304.22918
303.47987
302.92193
302.62003
370.09018
368.22177
366.37394
364.54711
362.74172
360.9581
359.1965
357.45709
355.74001
354.04533
352.37307
350.72321
349.09571
347.49046
345.90734
344.34621
342.80687
341.28914
339.79278
338.31755
336.86321
335.42948
334.0161
332.62276
331.24918
329.89504
328.55999
327.24368
325.94571
324.66561
323.40288
322.15693
320.92708
319.71258
318.51255
317.32608
316.15215
314.98977
313.83797
312.69597
311.56334
310.44025
309.32794
308.22944
307.15071
306.10247
305.1031
304.18267
303.38774
302.7842
302.45128
371.13514
369.23627
367.35824
365.50153
363.66658
361.85376
360.06332
358.29544
356.55028
354.8279
353.12833
351.45156
349.79755
348.16619
346.55737
344.97094
343.40671
341.86448
340.34403
338.8451
337.36745
335.9108
334.47487
333.05937
331.66398
330.28838
328.93223
327.59515
326.27675
324.97656
323.69407
322.4287
321.17979
319.94659
318.72827
317.52392
316.33257
315.15322
313.98493
312.82688
311.67851
310.53978
309.41149
308.29591
307.19774
306.12587
305.09615
304.13608
303.29154
302.63414
302.26126
372.11555
370.18803
368.28161
366.39681
364.53409
362.69383
360.8763
359.08169
357.31014
355.56174
353.83652
352.13448
350.45557
348.79969
347.16673
345.55654
343.96893
342.40369
340.86061
339.33943
337.8399
336.36173
334.90463
333.4683
332.05243
330.65669
329.28072
327.92415
326.58656
325.2675
323.96646
322.68286
321.41605
320.16531
318.92982
317.70869
316.50099
315.30576
314.12204
312.949
311.78601
310.63282
309.48986
308.35872
307.24294
306.14944
305.09117
304.09179
303.19404
302.47263
302.04617
373.03462
371.08015
369.14705
367.23587
365.34709
363.48109
361.63813
359.81843
358.02213
356.24931
354.50002
352.77426
351.07198
349.39309
347.73748
346.10499
344.49544
342.90863
341.34432
339.80226
338.28219
336.78383
335.30687
333.85102
332.41594
331.0013
329.60674
328.23188
326.8763
325.53954
324.2211
322.9204
321.6368
320.3696
319.11801
317.88116
316.65815
315.44804
314.2499
313.06288
311.88629
310.71975
309.56337
308.41816
307.28659
306.17374
305.08941
304.05233
303.09897
302.30161
301.79989
373.89556
371.91554
369.95743
368.02154
366.10833
364.2182
362.35141
360.50819
358.68868
356.89297
355.12112
353.37312
351.64893
349.94847
348.27162
346.61823
344.98812
343.38107
341.79686
340.23524
338.69592
337.17863
335.68307
334.20891
332.75583
331.32348
329.9115
328.5195
327.14706
325.79371
324.45896
323.14224
321.84292
320.5603
319.29363
318.04206
316.80472
315.58069
314.36908
313.16903
311.97981
310.80093
309.63228
308.47438
307.32882
306.19904
305.09178
304.0202
303.01117
302.12513
301.51183
372.69713
370.71552
368.75651
366.82046
364.90774
363.01865
361.1534
359.31215
357.49501
355.70202
353.93319
352.18848
350.46782
348.77108
347.09811
345.44874
343.82275
342.2199
340.63995
339.08261
337.5476
336.03461
334.54331
333.07338
331.62445
330.19616
328.78812
327.39989
326.03102
324.68101
323.34929
322.03525
320.7382
319.45741
318.19207
316.94133
315.7043
314.48011
313.26791
312.06696
310.87669
309.69681
308.52749
307.36964
306.22534
305.09873
303.99759
302.93705
301.95229
301.16184
373.42724
371.42398
369.44344
367.48604
365.55222
363.64226
361.7564
359.89482
358.05761
356.24485
354.45653
352.69262
350.95305
349.2377
347.54642
345.87902
344.2353
342.61502
341.01793
339.44373
337.89214
336.36285
334.85552
333.36982
331.90539
330.46184
329.03879
327.6358
326.25242
324.88813
323.54239
322.21458
320.90405
319.61007
318.33187
317.0686
315.81943
314.5835
313.35999
312.14814
310.94733
309.75717
308.57757
307.40893
306.25237
305.11011
303.98584
302.88441
301.80766
300.72558
374.10905
372.08555
370.0849
368.10757
366.15402
364.22456
362.31945
360.43886
358.5829
356.75165
354.94511
353.16326
351.40601
349.67326
347.96485
346.28061
344.62032
342.98375
341.37063
339.78068
338.21359
336.66907
335.14676
333.64633
332.1674
330.70961
329.27254
327.85576
326.45881
325.08118
323.72234
322.38169
321.05856
319.75227
318.46205
317.1871
315.9266
314.67973
313.44568
312.2237
311.01315
309.81357
308.62468
307.44655
306.27969
305.12511
303.9843
302.85791
301.74062
300.6109
374.74522
372.70279
370.68336
368.68743
366.71546
364.7678
362.84471
360.94637
359.0729
357.22438
355.40083
353.60221
351.82846
350.07946
348.35506
346.65509
344.97933
343.32753
341.69945
340.09479
338.51324
336.95449
335.4182
333.90401
332.41156
330.94046
329.49031
328.06066
326.65105
325.26099
323.88993
322.53728
321.20241
319.88463
318.5832
317.29736
316.02631
314.76924
313.52538
312.294
311.07443
309.86617
308.66886
307.48234
306.30675
305.14246
303.98994
302.84879
301.71476
300.57881
375.33823
373.27813
371.24118
369.22789
367.23875
365.27412
363.33425
361.41935
359.52955
357.66492
355.82549
354.01123
352.22208
350.45792
348.71861
347.00396
345.31376
343.64777
342.00573
340.38734
338.7923
337.22029
335.67096
334.14395
332.63888
331.15538
329.69302
328.25137
326.82997
325.42831
324.04586
322.68203
321.33622
320.00773
318.69587
317.39988
316.119
314.85245
313.59947
312.35935
311.13143
309.91518
308.71018
307.51617
306.33307
305.16094
303.99984
302.84935
301.70709
300.56982
375.89047
373.81389
371.76061
369.73116
367.72602
365.74556
363.79007
361.85973
359.9547
358.07506
356.22083
354.392
352.58849
350.8102
349.05698
347.32865
345.625
343.94579
342.29074
340.65956
339.05195
337.46758
335.9061
334.36714
332.85033
331.35527
329.88155
328.42873
326.99633
325.58388
324.19082
322.8166
321.46059
320.12215
318.80058
317.49515
316.20513
314.92976
313.6683
312.42007
311.18441
309.96079
308.74875
307.54797
306.35827
305.17956
304.01178
302.85463
301.707
300.56786
376.40421
374.31229
372.24381
370.1993
368.17927
366.18408
364.21404
362.26934
360.35013
358.45651
356.5885
354.7461
352.92922
351.13778
349.37161
347.63055
345.91437
344.22284
342.55569
340.91261
339.2933
337.69743
336.12464
334.57456
333.04682
331.54101
330.05672
328.5935
327.15089
325.72839
324.32547
322.94158
321.5761
320.2284
318.8978
317.5836
316.28508
315.00152
313.7322
312.47644
311.23361
310.00317
308.78466
307.57772
306.38212
305.1977
304.02436
302.86194
301.70996
300.56819
376.88161
374.77544
372.69283
370.63432
368.60044
366.59156
364.60798
362.64992
360.71753
358.8109
356.93008
355.07505
353.24574
351.44206
349.66386
347.91095
346.18313
344.48015
342.80174
341.14759
339.51741
337.91084
336.32754
334.76713
333.22923
331.71343
330.21931
328.74644
327.29433
325.8625
324.45042
323.05754
321.68327
320.32697
318.98799
317.66565
316.35925
315.06809
313.79147
312.52873
311.27927
310.04253
308.81805
307.60547
306.40452
305.21501
304.03684
302.86991
301.71405
300.5693
377.32475
375.20534
373.10962
371.03811
368.99136
366.96976
364.97361
363.00313
361.05849
359.13979
357.24706
355.3803
353.53945
351.7244
349.93501
348.17111
346.43247
344.71885
343.02998
341.36556
339.72527
338.10878
336.51572
334.94571
333.39838
331.87331
330.37008
328.88823
327.42732
325.98683
324.56626
323.16504
321.78261
320.41834
319.07159
317.7417
316.428
315.12979
313.8464
312.5772
311.32159
310.07902
308.84905
307.63128
306.42544
305.23134
304.04884
302.8779
301.71846
300.57064
377.7356
375.60393
373.49604
371.41248
369.3538
367.32039
365.31257
363.33057
361.37456
359.44465
357.54087
355.66323
353.81166
351.98607
350.1863
348.41219
346.66352
344.94003
343.24146
341.56751
339.91786
338.29215
336.69004
335.11114
333.55506
332.0214
330.50971
329.01956
327.55047
326.10197
324.67352
323.26458
321.87459
320.50294
319.149
317.81212
316.49164
315.18691
313.89727
312.62209
311.36079
310.11284
308.87778
307.65524
306.44492
305.24662
304.06019
302.8856
301.72283
300.57202
378.11605
375.97303
373.85387
371.75914
369.6894
367.64505
365.62641
363.63374
361.6672
359.72689
357.81288
355.92515
354.06365
352.22828
350.4189
348.63533
346.87735
345.14473
343.43718
341.75439
340.09606
338.46183
336.85133
335.2642
333.70002
332.15839
330.63888
329.14104
327.6644
326.20846
324.77273
323.35665
321.95967
320.58118
319.22059
317.87724
316.55051
315.23975
313.94432
312.66361
311.39706
310.14414
308.9044
307.67745
306.46301
305.26085
304.07082
302.89288
301.72703
300.57337
378.46787
376.31437
374.1848
372.07973
369.99975
367.94527
365.91663
363.91407
361.93777
359.98785
358.06436
356.16729
354.2966
352.45218
350.63391
348.84159
347.07501
345.33392
343.61806
341.92711
340.26074
338.61862
337.00038
335.40562
333.83396
332.28497
330.75823
329.25327
327.76964
326.30685
324.86438
323.4417
322.03826
320.65347
319.28672
317.93741
316.6049
315.28856
313.98779
312.70198
311.43058
310.17307
308.92901
307.69801
306.47977
305.27406
304.08073
302.8997
301.73098
300.57464
378.79278
376.6296
374.49041
372.3758
370.28635
368.22251
366.18461
364.17291
362.1876
360.22879
358.29654
356.39084
354.51166
352.65888
350.83238
349.03197
347.25744
345.50854
343.785
342.0865
340.41272
338.76332
337.13791
335.53612
333.95755
332.40176
330.86834
329.35682
327.86675
326.39762
324.94894
323.52017
322.11077
320.72015
319.34774
317.99292
316.65508
315.33361
314.02791
312.73739
311.46152
310.19978
308.95174
307.717
306.49527
305.28629
304.08991
302.90605
301.73467
300.57584
379.09238
376.9203
374.77224
372.64882
370.55063
368.47814
366.4317
364.41156
362.41793
360.45092
358.51058
356.59692
354.70989
352.8494
351.01531
349.20744
347.42557
345.66947
343.93884
342.23338
340.55277
338.89665
337.26464
335.65636
334.07141
332.50937
330.96978
329.45222
327.9562
326.48124
325.02684
323.59246
322.17756
320.78159
319.40395
318.04406
316.70132
315.37512
314.06488
312.77004
311.49004
310.22441
308.9727
307.73453
306.50957
305.2976
304.09842
302.91193
301.7381
300.57695
379.36821
377.18795
375.03172
372.90017
370.79393
368.71346
366.65914
364.63124
362.62994
360.65536
358.70757
356.78657
354.89232
353.02472
351.18364
349.3689
347.58028
345.81753
344.08038
342.36852
340.68161
339.0193
337.38122
335.76697
334.17616
332.60834
331.0631
329.53997
328.03848
326.55816
325.09849
323.65895
322.23901
320.8381
319.45566
318.09111
316.74386
315.41331
314.09891
312.80008
311.5163
310.24709
308.99201
307.75067
306.52276
305.30802
304.10626
302.91736
301.74127
300.57798
379.62172
377.43396
375.27023
373.13119
371.01752
368.92972
366.86815
364.83309
362.82473
360.8432
358.88856
356.96081
355.05992
353.18578
351.33827
349.51721
347.72238
345.95353
344.21038
342.49263
340.79993
339.13194
337.48828
335.86855
334.27234
332.69923
331.14879
329.62055
328.11404
326.62879
325.16428
323.72001
322.29543
320.89
319.50316
318.13433
316.78293
315.4484
314.13017
312.82768
311.54043
310.26794
309.00976
307.76552
306.5349
305.31762
304.11349
302.92237
301.74419
300.57893
379.8543
377.65967
375.48904
373.34312
371.22263
369.12807
367.05984
365.01821
363.00338
361.01546
359.05453
357.12059
355.21359
353.33345
351.48004
349.65317
347.85264
346.0782
344.32955
342.60639
340.90839
339.23519
337.58641
335.96165
334.3605
332.78254
331.22732
329.6944
328.18329
326.69352
325.22458
323.77597
322.34715
320.93758
319.5467
318.17395
316.81876
315.48057
314.15883
312.853
311.56257
310.28707
309.02606
307.77916
306.54604
305.32644
304.12014
302.92698
301.74689
300.57981
380.06726
377.86636
375.6894
373.53714
371.41037
369.30962
367.23529
365.18764
363.16687
361.17311
359.20641
357.26678
355.3542
353.46856
351.60974
349.77756
347.97181
346.19224
344.43856
342.71046
341.0076
339.32963
337.67616
336.0468
334.44114
332.85874
331.29916
329.76195
328.24663
326.75273
325.27975
323.82716
322.39446
320.9811
319.58653
318.2102
316.85155
315.51002
314.18508
312.87618
311.58285
310.30459
309.04098
307.79165
306.55626
305.33452
304.12623
302.93121
301.74936
300.58061
380.26186
378.05523
375.87244
373.71437
371.58184
369.47542
367.39549
365.34234
363.31615
361.31704
359.34507
357.40025
355.48256
353.59189
351.72813
349.8911
348.08058
346.29633
344.53805
342.80544
341.09815
339.41582
337.75808
336.12452
334.51473
332.92827
331.36471
329.82359
328.30444
326.80677
325.33009
323.87389
322.43764
321.02083
319.62289
318.24329
316.88148
315.53691
314.20904
312.89736
311.60137
310.3206
309.05463
307.80307
306.5656
305.34192
304.13181
302.93508
301.75162
300.58135
380.43928
378.22742
376.03928
373.87585
371.73804
369.62643
367.54141
365.48325
363.45211
361.44813
359.47135
357.5218
355.59944
353.70419
351.83592
349.99447
348.17961
346.39108
344.62862
342.89189
341.18057
339.49428
337.83264
336.19526
334.58171
332.99157
331.42439
329.87971
328.35706
326.85596
325.37592
323.91643
322.47696
321.057
319.65601
318.27344
316.90875
315.56141
314.23088
312.91666
311.61825
310.3352
309.06707
307.81349
306.57412
305.34867
304.1369
302.93862
301.75369
300.58202
380.60069
378.38401
376.19092
374.02258
371.87994
369.7636
367.67395
365.61122
363.5756
361.56718
359.58603
357.63217
355.70557
353.80615
351.93379
350.08831
348.2695
346.4771
344.71083
342.97037
341.25538
339.56549
337.90033
336.25947
334.64252
333.04903
331.47856
329.93065
328.40483
326.90063
325.41753
323.95505
322.51267
321.08985
319.68608
318.30082
316.93352
315.58366
314.25073
312.9342
311.6336
310.34847
309.07839
307.82297
306.58188
305.35482
304.14154
302.94184
301.75557
300.58263
380.7472
378.52602
376.32833
374.15547
372.00842
369.88779
367.79394
365.72709
363.6874
361.67496
359.68985
357.73208
355.80163
353.89843
352.02236
350.17323
348.35084
346.55494
344.78523
343.04139
341.32308
339.62994
337.96157
336.31758
334.69754
333.10102
331.52758
329.97675
328.44807
326.94105
325.4552
323.99001
322.54498
321.11959
319.71331
318.32561
316.95595
315.60382
314.2687
312.95009
311.64751
310.3605
309.08865
307.83157
306.58892
305.3604
304.14575
302.94476
301.75728
300.58319
380.87995
378.65435
376.45239
374.2754
372.12434
369.99983
367.90219
365.83163
363.78827
361.7722
359.78351
357.8222
355.88827
353.98165
352.10222
350.24981
348.42419
346.62512
344.8523
343.10542
341.38412
339.68804
338.01679
336.36997
334.74715
333.14791
331.57178
330.01832
328.48706
326.9775
325.48916
324.02154
322.57414
321.14642
319.73788
318.34798
316.9762
315.62202
314.28493
312.96444
311.66007
310.37137
309.09792
307.83934
306.59528
305.36544
304.14955
302.94741
301.75883
300.58369
381.00015
378.76977
376.56392
374.38317
372.2285
370.1005
367.99946
365.92556
363.87891
361.85959
359.86766
357.90317
355.9661
354.0564
352.17395
350.31858
348.49006
346.68814
344.91253
343.16291
341.43893
339.74021
338.06638
336.41701
334.7917
333.19001
331.61148
330.05566
328.52207
327.01024
325.51967
324.04987
322.60033
321.17053
319.75995
318.36808
316.9944
315.63838
314.29953
312.97735
311.67138
310.38116
309.10627
307.84634
306.60101
305.36999
304.15299
302.94979
301.76023
300.58415
378.87324
376.6637
374.47955
372.32164
370.19052
368.08646
366.00959
363.96
361.93775
359.94293
357.97557
356.03569
354.12323
352.23807
350.38004
348.54893
346.74447
344.96636
343.21429
341.48791
339.78684
338.1107
336.45906
334.83153
333.22764
331.64697
330.08903
328.55338
327.03951
325.54695
324.0752
322.62375
321.19209
319.7797
318.38607
317.01068
315.65302
314.3126
312.98891
311.6815
310.38992
309.11375
307.85261
306.60615
305.37406
304.15607
302.95193
301.76148
300.58456
378.96522
376.75243
374.56524
372.40446
370.27058
368.16385
366.08436
364.03216
362.00731
360.00989
358.03997
356.09758
354.18265
352.29508
350.43469
348.60126
346.79454
345.01421
343.25997
341.53145
339.82829
338.15009
336.49645
334.86693
333.2611
331.67852
330.11871
328.58121
327.06555
325.57122
324.09773
322.64459
321.21127
319.79727
318.40208
317.02518
315.66606
314.32423
312.99921
311.69052
310.39773
309.12042
307.85821
306.61074
305.3777
304.15881
302.95384
301.7626
300.58492
379.04726
376.83072
374.64092
372.47763
370.34134
368.23228
366.15048
364.09599
362.06884
360.06911
358.09691
356.15227
354.23515
352.34544
350.48296
348.64749
346.83876
345.05648
343.30032
341.56992
339.86491
338.1849
336.52947
334.8982
333.29066
331.70639
330.14493
328.60581
327.08855
325.59266
324.11764
322.663
321.22823
319.81281
318.41624
317.038
315.6776
314.33453
313.00832
311.69851
310.40465
309.12633
307.86317
306.61481
305.38093
304.16125
302.95554
301.76359
300.58525
376.89939
374.70724
372.54178
370.40341
368.29233
366.20855
364.15205
362.12287
360.1211
358.14687
356.20025
354.2812
352.3896
350.52528
348.68802
346.87754
345.09353
343.33569
341.60364
339.89701
338.21541
336.55842
334.92563
333.31658
331.73083
330.16793
328.62738
327.10873
325.61147
324.13511
322.67916
321.24311
319.82645
318.42866
317.04926
315.68773
314.34358
313.01633
311.70553
310.41074
309.13153
307.86753
306.61838
305.38377
304.1634
302.95703
301.76447
300.58553
376.95876
374.7648
372.59749
370.45736
368.34458
366.25909
364.20087
362.16991
360.16634
358.19033
356.24196
354.32122
352.42798
350.56206
348.72323
346.91122
345.12572
343.36641
341.63293
339.92489