/*--------------------------------*- C++ -*----------------------------------*\
| =========                 |                                                 |
| \\      /  F ield         | OpenFOAM: The Open Source CFD Toolbox           |
|  \\    /   O peration     | Version:  2312                                  |
|   \\  /    A nd           | Website:  www.openfoam.com                      |
|    \\/     M anipulation  |                                                 |
\*---------------------------------------------------------------------------*/
FoamFile
{
    version     2.0;
    format      ascii;
    arch        "LSB;label=32;scalar=64";
    class       volVectorField;
    location    "0.07";
    object      U;
}
// * * * * * * * * * * * * * * * * * * * * * * * * * * * * * * * * * * * * * //

dimensions      [0 1 -1 0 0 0 0];

internalField   nonuniform List<vector> 
3257
(
(-0.0099741328 0.393256 0)
(-0.0060034826 0.35844567 0)
(-0.0031713978 0.32552191 0)
(-0.0014453041 0.29395348 0)
(-0.0012477039 0.26304343 0)
(-0.0032322455 0.23185338 0)
(-0.0088518994 0.1988985 0)
(-0.020856206 0.16183549 0)
(-0.044931332 0.11677264 0)
(-0.089464373 0.058642377 0)
(-0.1488701 -0.018606137 0)
(-0.17715643 -0.11808988 0)
(-0.11846526 -0.20254424 0)
(-0.06573059 -0.25763563 0)
(-0.035601881 -0.29708988 0)
(-0.0072281497 -0.32240451 0)
(0.019655426 -0.33487667 0)
(0.036823876 -0.34027989 0)
(0.045574673 -0.34196196 0)
(0.05229344 -0.34099703 0)
(0.058669836 -0.3374173 0)
(0.064268756 -0.3318913 0)
(0.068199374 -0.32528795 0)
(0.070435159 -0.3182959 0)
(0.071394699 -0.31120061 0)
(0.071582445 -0.30409193 0)
(0.071342012 -0.29699406 0)
(0.070878892 -0.28992734 0)
(0.070286509 -0.28291058 0)
(0.069592514 -0.27596323 0)
(0.068784574 -0.26910658 0)
(0.067825715 -0.26236958 0)
(0.066666213 -0.25579321 0)
(0.065253649 -0.24943332 0)
(0.063544053 -0.24335878 0)
(0.061514319 -0.23764499 0)
(0.059175036 -0.23236288 0)
(0.056581681 -0.22756652 0)
(0.05384227 -0.22328282 0)
(0.051120041 -0.21950674 0)
(0.048630171 -0.21620342 0)
(0.046630053 -0.21331707 0)
(0.045403205 -0.21078408 0)
(0.045237274 -0.20854751 0)
(0.046396249 -0.20656864 0)
(0.049082965 -0.20483513 0)
(0.053390208 -0.20337207 0)
(0.059315756 -0.20226686 0)
(0.067017122 -0.20160069 0)
(0.077049283 -0.2010971 0)
(0.087317212 -0.19973934 0)
(0.066230106 -0.0046837383 0)
(0.060672 0.0058799147 0)
(0.055032132 0.012960609 0)
(0.048976555 0.016937289 0)
(0.042074501 0.018187879 0)
(0.033571968 0.017098678 0)
(0.02255729 0.014198736 0)
(0.007765475 0.010432969 0)
(-0.012310632 0.0077109176 0)
(-0.03830366 0.01019799 0)
(-0.064307664 0.025649809 0)
(-0.072109709 0.051903405 0)
(-0.055156038 0.064195279 0)
(-0.035257718 0.055476186 0)
(-0.019922489 0.036512185 0)
(-0.0074725023 0.015261199 0)
(0.0030560175 -0.0089265871 0)
(0.011468096 -0.034272962 0)
(0.019019694 -0.058165957 0)
(0.025994212 -0.079303006 0)
(0.032613428 -0.097590511 0)
(0.038495425 -0.1133849 0)
(0.043320197 -0.12707388 0)
(0.047083813 -0.13887339 0)
(0.049988473 -0.14891552 0)
(0.052230558 -0.15731371 0)
(0.053963614 -0.16420012 0)
(0.055283038 -0.16972637 0)
(0.056245644 -0.17405243 0)
(0.056879748 -0.17733612 0)
(0.057195429 -0.17972912 0)
(0.057188683 -0.18137594 0)
(0.056845535 -0.18241584 0)
(0.056147537 -0.18298491 0)
(0.055080199 -0.18321572 0)
(0.053643826 -0.18323332 0)
(0.051865816 -0.18314766 0)
(0.049812307 -0.18304497 0)
(0.047597415 -0.18298078 0)
(0.045388129 -0.18297772 0)
(0.043403354 -0.18302896 0)
(0.041906062 -0.18310749 0)
(0.041187832 -0.18317875 0)
(0.041546414 -0.18321475 0)
(0.04325618 -0.18320584 0)
(0.0465246 -0.18316825 0)
(0.05143364 -0.18314605 0)
(0.057944241 -0.18320515 0)
(0.0662202 -0.18339909 0)
(0.076939395 -0.18369223 0)
(0.088166111 -0.18386161 0)
(0.10553208 -0.25218304 0)
(0.097182748 -0.23419809 0)
(0.088777137 -0.21805345 0)
(0.080148756 -0.2036332 0)
(0.070946703 -0.19077581 0)
(0.060775296 -0.17918593 0)
(0.049191139 -0.16838859 0)
(0.035840112 -0.15762865 0)
(0.020620797 -0.14572093 0)
(0.0043202426 -0.1309116 0)
(-0.010286075 -0.11129058 0)
(-0.01882732 -0.087899829 0)
(-0.019830208 -0.070101095 0)
(-0.015389825 -0.060934163 0)
(-0.0081273674 -0.057925799 0)
(7.1872016e-05 -0.058688099 0)
(0.0078608939 -0.062160641 0)
(0.014503658 -0.067387279 0)
(0.020107045 -0.073802201 0)
(0.02516566 -0.080842867 0)
(0.029781415 -0.088188882 0)
(0.033893071 -0.095723534 0)
(0.037427925 -0.10327911 0)
(0.040403294 -0.1106611 0)
(0.042876934 -0.11768573 0)
(0.04491818 -0.12421054 0)
(0.046578936 -0.13014799 0)
(0.047895491 -0.13545768 0)
(0.048888249 -0.14013707 0)
(0.049567682 -0.14420914 0)
(0.049936304 -0.14771537 0)
(0.049990076 -0.15071082 0)
(0.049719569 -0.15326182 0)
(0.049113349 -0.15544373 0)
(0.048164195 -0.15733748 0)
(0.046878138 -0.15902349 0)
(0.045285635 -0.1605738 0)
(0.043453325 -0.16204361 0)
(0.04149462 -0.16346499 0)
(0.039576925 -0.16484464 0)
(0.037923244 -0.16616652 0)
(0.036806264 -0.16739938 0)
(0.036533573 -0.16850765 0)
(0.037424007 -0.16946374 0)
(0.039775201 -0.17025893 0)
(0.04381533 -0.17091011 0)
(0.049638157 -0.1714593 0)
(0.057211611 -0.17196621 0)
(0.066734006 -0.17247738 0)
(0.078959032 -0.17297665 0)
(0.091611258 -0.17324585 0)
(0.13525293 -0.39122379 0)
(0.12545452 -0.37356475 0)
(0.1156831 -0.35657688 0)
(0.10579453 -0.34024512 0)
(0.095609853 -0.32447772 0)
(0.084920015 -0.30910964 0)
(0.073570642 -0.29384811 0)
(0.061509769 -0.27828244 0)
(0.048914642 -0.26186578 0)
(0.036389109 -0.24401585 0)
(0.025146147 -0.2244322 0)
(0.016755725 -0.20387364 0)
(0.012092911 -0.1843105 0)
(0.010919868 -0.1672187 0)
(0.012317189 -0.15328153 0)
(0.015216509 -0.14243131 0)
(0.018745972 -0.13442584 0)
(0.022210117 -0.12878977 0)
(0.025389024 -0.12495615 0)
(0.028323806 -0.12256698 0)
(0.031053638 -0.12140262 0)
(0.033573928 -0.12128105 0)
(0.035856642 -0.12201361 0)
(0.037880548 -0.12339748 0)
(0.039639528 -0.12523644 0)
(0.04113354 -0.12736063 0)
(0.04236355 -0.12963319 0)
(0.043328921 -0.13195121 0)
(0.044027365 -0.13424097 0)
(0.044455638 -0.13645313 0)
(0.044608659 -0.13855903 0)
(0.044478969 -0.14054791 0)
(0.044056599 -0.14242485 0)
(0.043331383 -0.14420819 0)
(0.042297918 -0.1459256 0)
(0.040963659 -0.14760834 0)
(0.039359655 -0.14928418 0)
(0.037552843 -0.1509703 0)
(0.035658084 -0.15266794 0)
(0.033847662 -0.15436017 0)
(0.032355245 -0.15601364 0)
(0.031471828 -0.15758434 0)
(0.031531245 -0.15902654 0)
(0.032885153 -0.1603038 0)
(0.035866927 -0.16139965 0)
(0.04073708 -0.16232464 0)
(0.047609537 -0.16311748 0)
(0.056457434 -0.16383924 0)
(0.067519447 -0.16454739 0)
(0.081662562 -0.16522363 0)
(0.096272148 -0.16560102 0)
(0.1580545 -0.43114346 0)
(0.14754097 -0.41771756 0)
(0.13714093 -0.40432267 0)
(0.12674993 -0.39092693 0)
(0.11626117 -0.37747027 0)
(0.1055831 -0.36384459 0)
(0.094674133 -0.34988722 0)
(0.083583604 -0.33538876 0)
(0.072495055 -0.32011534 0)
(0.061791166 -0.30387806 0)
(0.05205924 -0.28667483 0)
(0.043975416 -0.26887888 0)
(0.038010916 -0.25125954 0)
(0.034235742 -0.23457657 0)
(0.032340181 -0.21939939 0)
(0.031807388 -0.20596203 0)
(0.032101845 -0.19432587 0)
(0.032792723 -0.18436268 0)
(0.033637181 -0.17584876 0)
(0.034547494 -0.16861293 0)
(0.035494913 -0.16252738 0)
(0.036452558 -0.15749471 0)
(0.037386093 -0.15341406 0)
(0.038261181 -0.15017525 0)
(0.039046229 -0.14766389 0)
(0.039713581 -0.14576956 0)
(0.040238238 -0.1443913 0)
(0.040598636 -0.14344026 0)
(0.040776048 -0.1428405 0)
(0.040754333 -0.14252937 0)
(0.040518152 -0.14245754 0)
(0.040051906 -0.14258887 0)
(0.039339327 -0.14289981 0)
(0.038365392 -0.14337778 0)
(0.037120922 -0.14401824 0)
(0.035610391 -0.14482027 0)
(0.033862795 -0.14578121 0)
(0.031944656 -0.1468912 0)
(0.029973474 -0.14812905 0)
(0.028129175 -0.14946017 0)
(0.026660194 -0.15083751 0)
(0.025880928 -0.15220561 0)
(0.026157615 -0.15350807 0)
(0.027881522 -0.15469756 0)
(0.031429074 -0.15574674 0)
(0.037099694 -0.15665675 0)
(0.045030109 -0.15745973 0)
(0.055194097 -0.15821457 0)
(0.067860402 -0.15898097 0)
(0.084021684 -0.15973305 0)
(0.10073957 -0.16016708 0)
(0.1770418 -0.42882614 0)
(0.16609038 -0.41861244 0)
(0.15535021 -0.40823556 0)
(0.14473228 -0.39765437 0)
(0.13417098 -0.38681122 0)
(0.12362314 -0.3756287 0)
(0.11309099 -0.36400568 0)
(0.10263747 -0.35183255 0)
(0.092404438 -0.33900691 0)
(0.082626147 -0.32547558 0)
(0.073615076 -0.31128911 0)
(0.065704645 -0.29665735 0)
(0.059147837 -0.28194581 0)
(0.054034867 -0.2675718 0)
(0.050262382 -0.25390035 0)
(0.047583286 -0.24116827 0)
(0.04570104 -0.22948346 0)
(0.044347877 -0.21884395 0)
(0.043338481 -0.20918645 0)
(0.042567689 -0.20044008 0)
(0.041976167 -0.19255082 0)
(0.04152086 -0.18547667 0)
(0.041162731 -0.17917695 0)
(0.040864143 -0.17360707 0)
(0.040588685 -0.16871754 0)
(0.040301937 -0.16445619 0)
(0.039971834 -0.16076975 0)
(0.039569522 -0.15760617 0)
(0.039068914 -0.15491629 0)
(0.038446105 -0.15265568 0)
(0.037677809 -0.15078596 0)
(0.036740474 -0.14927575 0)
(0.035610257 -0.1481009 0)
(0.034265162 -0.14724371 0)
(0.032689885 -0.14669105 0)
(0.030883883 -0.14643131 0)
(0.028872714 -0.14645069 0)
(0.026721883 -0.14672927 0)
(0.024551625 -0.14723787 0)
(0.022550145 -0.14793612 0)
(0.02098164 -0.14877255 0)
(0.020185389 -0.14968735 0)
(0.020561949 -0.15061832 0)
(0.022545029 -0.1515102 0)
(0.026557483 -0.1523262 0)
(0.03294161 -0.15305803 0)
(0.041860086 -0.15373051 0)
(0.053286803 -0.15439802 0)
(0.067515682 -0.1551189 0)
(0.085666929 -0.15585937 0)
(0.10450372 -0.15629538 0)
(0.19377849 -0.41310507 0)
(0.18247175 -0.40461871 0)
(0.1714578 -0.39596125 0)
(0.16066262 -0.38709375 0)
(0.15003936 -0.37796821 0)
(0.1395653 -0.36852689 0)
(0.12925226 -0.35870479 0)
(0.11915278 -0.34843997 0)
(0.10936492 -0.33768567 0)
(0.1000332 -0.32643157 0)
(0.09133482 -0.31472671 0)
(0.083451425 -0.30269721 0)
(0.076525102 -0.29054162 0)
(0.070619961 -0.27849598 0)
(0.065701492 -0.26678825 0)
(0.06165114 -0.25559123 0)
(0.058306115 -0.24500811 0)
(0.055502337 -0.23507691 0)
(0.053106733 -0.22579291 0)
(0.051024908 -0.21713645 0)
(0.049191791 -0.20908806 0)
(0.047558472 -0.20163235 0)
(0.046083929 -0.19475527 0)
(0.044731106 -0.18844192 0)
(0.043465193 -0.18267481 0)
(0.0422535 -0.1774337 0)
(0.041065247 -0.17269577 0)
(0.039871788 -0.16843673 0)
(0.038645835 -0.164632 0)
(0.037360674 -0.16125821 0)
(0.035988865 -0.15829437 0)
(0.034501697 -0.15572273 0)
(0.03286967 -0.15352912 0)
(0.03106508 -0.15170245 0)
(0.029067311 -0.15023342 0)
(0.02687136 -0.14911247 0)
(0.024499743 -0.14832712 0)
(0.022017199 -0.1478592 0)
(0.019546723 -0.14768224 0)
(0.01728454 -0.14775952 0)
(0.015510148 -0.14804335 0)
(0.014587169 -0.1484764 0)
(0.014950489 -0.14899629 0)
(0.017076943 -0.14954413 0)
(0.021437938 -0.15007652 0)
(0.028421936 -0.15057753 0)
(0.038221883 -0.15106566 0)
(0.050814844 -0.15159187 0)
(0.066517541 -0.15221481 0)
(0.086578135 -0.15289962 0)
(0.10749035 -0.15331328 0)
(0.20905392 -0.39571718 0)
(0.19740246 -0.38801156 0)
(0.18610278 -0.38017033 0)
(0.17509513 -0.37216609 0)
(0.16434338 -0.36396412 0)
(0.15383224 -0.35552475 0)
(0.14357199 -0.34680661 0)
(0.13359995 -0.33777447 0)
(0.12398096 -0.32840653 0)
(0.11480477 -0.31870618 0)
(0.1061764 -0.30871159 0)
(0.098200612 -0.29850254 0)
(0.090960412 -0.28819692 0)
(0.084497516 -0.27793579 0)
(0.078800773 -0.26786106 0)
(0.073809951 -0.25809142 0)
(0.069432927 -0.24870979 0)
(0.06556757 -0.23976161 0)
(0.062120217 -0.23126394 0)
(0.05901401 -0.22321862 0)
(0.056188527 -0.21562192 0)
(0.053595264 -0.20846929 0)
(0.051193496 -0.20175604 0)
(0.048947523 -0.19547719 0)
(0.046824958 -0.18962651 0)
(0.044795996 -0.18419638 0)
(0.042832641 -0.17917762 0)
(0.040908189 -0.17456006 0)
(0.038996106 -0.17033323 0)
(0.037069019 -0.16648728 0)
(0.035097578 -0.16301369 0)
(0.033050152 -0.15990582 0)
(0.030893726 -0.15715895 0)
(0.028596851 -0.15476988 0)
(0.026135328 -0.1527359 0)
(0.023501116 -0.15105333 0)
(0.02071473 -0.14971555 0)
(0.017840696 -0.1487109 0)
(0.01500475 -0.14802037 0)
(0.012410518 -0.14761548 0)
(0.01035168 -0.14745668 0)
(0.0092150229 -0.1474933 0)
(0.0094688444 -0.14766657 0)
(0.011633428 -0.14791716 0)
(0.016230401 -0.14819743 0)
(0.023698258 -0.14848535 0)
(0.034265578 -0.1487944 0)
(0.047917287 -0.14917404 0)
(0.064991843 -0.14968693 0)
(0.086863967 -0.15030484 0)
(0.10978701 -0.15069336 0)
(0.22321988 -0.38030714 0)
(0.21122247 -0.3729182 0)
(0.19961411 -0.36542648 0)
(0.18834833 -0.35781752 0)
(0.17739648 -0.35007026 0)
(0.16674611 -0.34216027 0)
(0.1564032 -0.33406321 0)
(0.14639197 -0.32576024 0)
(0.13675397 -0.31724279 0)
(0.12754515 -0.30851899 0)
(0.1188293 -0.29961821 0)
(0.11066893 -0.29059383 0)
(0.10311365 -0.28152088 0)
(0.096189755 -0.2724886 0)
(0.089893536 -0.26358871 0)
(0.084191961 -0.25490291 0)
(0.079030103 -0.24649416 0)
(0.07434212 -0.23840405 0)
(0.070061702 -0.23065563 0)
(0.066128493 -0.22325943 0)
(0.062490343 -0.21621888 0)
(0.059102659 -0.20953415 0)
(0.055926961 -0.20320366 0)
(0.052929479 -0.19722496 0)
(0.05007993 -0.19159464 0)
(0.047350663 -0.18630866 0)
(0.044715625 -0.18136233 0)
(0.042149422 -0.17675084 0)
(0.039626004 -0.17246977 0)
(0.037117518 -0.16851558 0)
(0.034593308 -0.16488611 0)
(0.032019781 -0.16158078 0)
(0.029361572 -0.15860048 0)
(0.026584747 -0.1559472 0)
(0.02366272 -0.15362317 0)
(0.020585407 -0.15162977 0)
(0.01737196 -0.14996608 0)
(0.01408683 -0.14862718 0)
(0.010858022 -0.14760213 0)
(0.0078954564 -0.14687153 0)
(0.0055054198 -0.14640519 0)
(0.0040960946 -0.14616066 0)
(0.0041680402 -0.14608451 0)
(0.0062848533 -0.14611854 0)
(0.011020397 -0.14621196 0)
(0.018867319 -0.14633712 0)
(0.030096232 -0.14650278 0)
(0.044705788 -0.1467582 0)
(0.063055449 -0.14717299 0)
(0.086645304 -0.14773176 0)
(0.11151523 -0.14810294 0)
(0.23642541 -0.36740507 0)
(0.22408576 -0.3601417 0)
(0.2121548 -0.35279766 0)
(0.2005982 -0.34536953 0)
(0.18939333 -0.33784777 0)
(0.17852929 -0.33021995 0)
(0.1680081 -0.3224739 0)
(0.15784422 -0.31460155 0)
(0.1480635 -0.30660204 0)
(0.1387006 -0.29848553 0)
(0.12979462 -0.29027552 0)
(0.12138341 -0.28201006 0)
(0.11349689 -0.27374015 0)
(0.10615106 -0.26552563 0)
(0.099344063 -0.25742878 0)
(0.093055855 -0.24950732 0)
(0.087251463 -0.24180896 0)
(0.081886524 -0.23436894 0)
(0.076913176 -0.2272103 0)
(0.072284518 -0.22034656 0)
(0.067957123 -0.21378447 0)
(0.063891852 -0.20752657 0)
(0.06005375 -0.2015727 0)
(0.05641156 -0.1959211 0)
(0.052936977 -0.19056889 0)
(0.049603878 -0.18551266 0)
(0.046387273 -0.18074878 0)
(0.043262201 -0.176274 0)
(0.040202411 -0.1720858 0)
(0.037179191 -0.16818288 0)
(0.034160517 -0.16456545 0)
(0.031111059 -0.16123527 0)
(0.027993531 -0.15819556 0)
(0.024772036 -0.15545062 0)
(0.021418086 -0.15300522 0)
(0.017919862 -0.15086374 0)
(0.014295142 -0.14902926 0)
(0.010607821 -0.14750212 0)
(0.0069871177 -0.14627818 0)
(0.0036475805 -0.14534627 0)
(0.00090592492 -0.14468514 0)
(-0.00081045101 -0.14426063 0)
(-0.00097050563 -0.14402517 0)
(0.001032478 -0.14392215 0)
(0.0058263575 -0.14389762 0)
(0.013962705 -0.14391768 0)
(0.025761085 -0.14398549 0)
(0.041240523 -0.14414986 0)
(0.060781782 -0.14448908 0)
(0.08600937 -0.14500448 0)
(0.11277535 -0.14536966 0)
(0.24873645 -0.35653699 0)
(0.23606333 -0.34934029 0)
(0.22380616 -0.34207631 0)
(0.21194097 -0.33475003 0)
(0.20045054 -0.3273607 0)
(0.18932531 -0.31990483 0)
(0.1785645 -0.31237881 0)
(0.16817585 -0.30478171 0)
(0.15817476 -0.29711746 0)
(0.1485823 -0.28939721 0)
(0.13942224 -0.28164063 0)
(0.13071742 -0.27387654 0)
(0.12248563 -0.26614179 0)
(0.11473604 -0.2584789 0)
(0.10746666 -0.2509323 0)
(0.10066386 -0.24354433 0)
(0.094303709 -0.23635176 0)
(0.088354851 -0.22938375 0)
(0.082781856 -0.22266143 0)
(0.077548174 -0.21619878 0)
(0.072618231 -0.21000399 0)
(0.067958571 -0.20408104 0)
(0.063538299 -0.19843083 0)
(0.059329039 -0.19305223 0)
(0.055304517 -0.18794277 0)
(0.051439902 -0.1830993 0)
(0.047710846 -0.17851855 0)
(0.044092378 -0.17419764 0)
(0.040557664 -0.17013458 0)
(0.037076911 -0.16632859 0)
(0.033616669 -0.16278037 0)
(0.030139957 -0.15949216 0)
(0.026607746 -0.15646761 0)
(0.022982357 -0.15371151 0)
(0.019233498 -0.15122939 0)
(0.015347506 -0.14902701 0)
(0.01134034 -0.14710974 0)
(0.007274427 -0.14548158 0)
(0.0032787031 -0.14414369 0)
(-0.00042978759 -0.14309187 0)
(-0.0035264991 -0.14231296 0)
(-0.0055676936 -0.14178081 0)
(-0.0059939605 -0.14145374 0)
(-0.0041562275 -0.1412768 0)
(0.00062926058 -0.14119239 0)
(0.0089777334 -0.14115896 0)
(0.021265493 -0.14117204 0)
(0.037539348 -0.14127843 0)
(0.058202297 -0.14156533 0)
(0.085003656 -0.14205343 0)
(0.11363229 -0.14242315 0)
(0.26018989 -0.34705846 0)
(0.24719487 -0.33992609 0)
(0.23461482 -0.33273442 0)
(0.22243461 -0.32549427 0)
(0.21064179 -0.31821125 0)
(0.19922831 -0.31088829 0)
(0.18819179 -0.30352769 0)
(0.17753558 -0.29613331 0)
(0.16726823 -0.28871209 0)
(0.15740203 -0.28127564 0)
(0.14795102 -0.2738411 0)
(0.13892855 -0.26643142 0)
(0.13034473 -0.25907471 0)
(0.12220409 -0.25180276 0)
(0.11450397 -0.24464879 0)
(0.10723396 -0.237645 0)
(0.10037652 -0.23082035 0)
(0.093908392 -0.22419898 0)
(0.087802608 -0.21779959 0)
(0.082030384 -0.21163555 0)
(0.076562682 -0.20571555 0)
(0.071371264 -0.20004446 0)
(0.066429235 -0.19462414 0)
(0.061711176 -0.18945432 0)
(0.057192874 -0.18453324 0)
(0.05285076 -0.17985832 0)
(0.048661048 -0.17542676 0)
(0.044598689 -0.17123605 0)
(0.040636248 -0.16728444 0)
(0.036742918 -0.16357126 0)
(0.03288396 -0.1600971 0)
(0.029020938 -0.15686398 0)
(0.025113276 -0.15387516 0)
(0.021121657 -0.15113511 0)
(0.017013982 -0.14864921 0)
(0.01277451 -0.14642355 0)
(0.0084167899 -0.14446472 0)
(0.0040006952 -0.1427792 0)
(-0.00034682011 -0.1413723 0)
(-0.004408612 -0.14024574 0)
(-0.007855361 -0.13939385 0)
(-0.010230177 -0.1387983 0)
(-0.010948111 -0.1384235 0)
(-0.0093187932 -0.13821639 0)
(-0.0046011498 -0.1381152 0)
(0.0038890066 -0.13806894 0)
(0.016592967 -0.13806267 0)
(0.03359377 -0.13813834 0)
(0.055318883 -0.13839136 0)
(0.083643518 -0.138864 0)
(0.11411856 -0.13924562 0)
(0.27081449 -0.3384274 0)
(0.25750998 -0.33137694 0)
(0.2446146 -0.32427214 0)
(0.23212041 -0.31712764 0)
(0.22001923 -0.30995348 0)
(0.2083047 -0.30275699 0)
(0.19697375 -0.29554458 0)
(0.18602707 -0.28832324 0)
(0.17546878 -0.28110184 0)
(0.16530552 -0.27389218 0)
(0.15554502 -0.26670956 0)
(0.14619456 -0.25957308 0)
(0.13725919 -0.25250514 0)
(0.12874031 -0.24553056 0)
(0.12063449 -0.23867518 0)
(0.11293304 -0.23196431 0)
(0.10562223 -0.22542122 0)
(0.098684044 -0.21906603 0)
(0.092097328 -0.21291506 0)
(0.085839057 -0.20698067 0)
(0.079885408 -0.20127151 0)
(0.074212594 -0.19579297 0)
(0.068797332 -0.19054774 0)
(0.06361698 -0.18553644 0)
(0.058649324 -0.18075822 0)
(0.053872063 -0.17621135 0)
(0.049262026 -0.17189373 0)
(0.04479421 -0.16780341 0)
(0.040440766 -0.16393897 0)
(0.036170125 -0.16029984 0)
(0.031946556 -0.15688649 0)
(0.027730484 -0.15370055 0)
(0.023480068 -0.15074473 0)
(0.019154551 -0.14802287 0)
(0.014720072 -0.14553984 0)
(0.010158607 -0.14330163 0)
(0.0054807306 -0.1413154 0)
(0.00074269334 -0.13958943 0)
(-0.0039322674 -0.13813238 0)
(-0.0083294464 -0.13695133 0)
(-0.01211801 -0.13604772 0)
(-0.014831644 -0.13541123 0)
(-0.015863107 -0.13501306 0)
(-0.014482618 -0.13480268 0)
(-0.0098903558 -0.13471403 0)
(-0.0013280047 -0.13468494 0)
(0.011720291 -0.13468642 0)
(0.029383474 -0.13475172 0)
(0.052116861 -0.13498285 0)
(0.081924766 -0.1354462 0)
(0.11424452 -0.13584396 0)
(0.28063731 -0.33025968 0)
(0.26703583 -0.32331217 0)
(0.25383499 -0.31631373 0)
(0.24103267 -0.30928147 0)
(0.22862441 -0.30222821 0)
(0.21660561 -0.29516432 0)
(0.20497319 -0.28809887 0)
(0.19372634 -0.281041 0)
(0.18286647 -0.27400072 0)
(0.17239655 -0.26698985 0)
(0.16232025 -0.26002235 0)
(0.15264087 -0.25311463 0)
(0.14336015 -0.24628519 0)
(0.13447732 -0.23955413 0)
(0.12598831 -0.2329422 0)
(0.1178854 -0.22646984 0)
(0.11015722 -0.22015612 0)
(0.10278923 -0.21401794 0)
(0.095764354 -0.2080695 0)
(0.089063817 -0.20232203 0)
(0.082667848 -0.19678382 0)
(0.076556297 -0.19146051 0)
(0.07070896 -0.18635538 0)
(0.065105661 -0.18146989 0)
(0.059726027 -0.1768041 0)
(0.054548996 -0.17235715 0)
(0.049552089 -0.16812778 0)
(0.04471052 -0.16411465 0)
(0.039996279 -0.16031682 0)
(0.035377356 -0.1567339 0)
(0.030817389 -0.15336629 0)
(0.02627603 -0.15021527 0)
(0.021710511 -0.14728305 0)
(0.01707889 -0.14457278 0)
(0.012345658 -0.14208877 0)
(0.007490387 -0.13983666 0)
(0.0025202128 -0.13782395 0)
(-0.002513209 -0.13606024 0)
(-0.0074920493 -0.13455711 0)
(-0.012206592 -0.13332661 0)
(-0.016327954 -0.13237728 0)
(-0.019384466 -0.13170734 0)
(-0.020750669 -0.13129592 0)
(-0.019659692 -0.13109637 0)
(-0.015252436 -0.13103893 0)
(-0.0066905746 -0.13104871 0)
(0.0066267683 -0.13107891 0)
(0.024886132 -0.13114875 0)
(0.048576442 -0.13136509 0)
(0.079835242 -0.13182099 0)
(0.11401332 -0.1322367 0)
(0.28968601 -0.32231138 0)
(0.27579973 -0.31548443 0)
(0.26230464 -0.30860986 0)
(0.24920304 -0.30170544 0)
(0.23649375 -0.29478602 0)
(0.22417383 -0.28786369 0)
(0.21224067 -0.28094942 0)
(0.20069273 -0.27405356 0)
(0.18952983 -0.26718691 0)
(0.17875266 -0.26036111 0)
(0.16836228 -0.25358914 0)
(0.15835938 -0.24688543 0)
(0.14874353 -0.24026574 0)
(0.13951249 -0.23374681 0)
(0.13066171 -0.22734578 0)
(0.12218402 -0.22107952 0)
(0.11406965 -0.21496393 0)
(0.10630639 -0.20901338 0)
(0.098880088 -0.20324018 0)
(0.091775077 -0.19765447 0)
(0.084974712 -0.19226402 0)
(0.07846173 -0.18707451 0)
(0.072218473 -0.18208959 0)
(0.066226865 -0.17731138 0)
(0.060468171 -0.17274066 0)
(0.0549225 -0.16837743 0)
(0.049568114 -0.16422112 0)
(0.044380603 -0.16027108 0)
(0.039332039 -0.15652675 0)
(0.034390285 -0.15298799 0)
(0.029518698 -0.14965515 0)
(0.024676529 -0.14652923 0)
(0.019820426 -0.14361194 0)
(0.014907548 -0.14090582 0)
(0.0099008926 -0.13841453 0)
(0.0047775983 -0.13614335 0)
(-0.00045900407 -0.13409985 0)
(-0.0057626997 -0.13229471 0)
(-0.011022649 -0.1307421 0)
(-0.016036645 -0.12945875 0)
(-0.02048136 -0.12846043 0)
(-0.023884375 -0.1277547 0)
(-0.025606617 -0.12733022 0)
(-0.024847772 -0.1271464 0)
(-0.020689147 -0.12713109 0)
(-0.012207121 -0.12719606 0)
(0.0012968207 -0.12727245 0)
(0.020080736 -0.1273594 0)
(0.044675907 -0.1275655 0)
(0.077362712 -0.12801409 0)
(0.11343157 -0.12844873 0)
(0.2979897 -0.31444161 0)
(0.2838306 -0.30774874 0)
(0.27005283 -0.30101061 0)
(0.25666275 -0.2942463 0)
(0.24366143 -0.28747098 0)
(0.23104777 -0.2806982 0)
(0.21881968 -0.27393973 0)
(0.20697552 -0.26720691 0)
(0.19551419 -0.26051079 0)
(0.18443507 -0.25386288 0)
(0.17373755 -0.24727531 0)
(0.16342066 -0.24076106 0)
(0.15348255 -0.23433387 0)
(0.14392001 -0.22800803 0)
(0.13472817 -0.22179804 0)
(0.12590025 -0.21571808 0)
(0.11742752 -0.20978167 0)
(0.10929948 -0.20400107 0)
(0.10150402 -0.1983871 0)
(0.094027827 -0.19294876 0)
(0.086856613 -0.18769336 0)
(0.079975399 -0.18262633 0)
(0.073368576 -0.17775161 0)
(0.067019831 -0.17307165 0)
(0.060911848 -0.1685879 0)
(0.055025819 -0.16430088 0)
(0.049340775 -0.1602107 0)
(0.0438328 -0.15631715 0)
(0.038474263 -0.15262008 0)
(0.033233165 -0.14911943 0)
(0.028072908 -0.14581552 0)
(0.022952667 -0.14270902 0)
(0.017828845 -0.13980115 0)
(0.012657973 -0.1370938 0)
(0.0074017644 -0.13458999 0)
(0.0020349323 -0.13229448 0)
(-0.0034432328 -0.13021477 0)
(-0.0089927056 -0.12836231 0)
(-0.014511064 -0.12675352 0)
(-0.019806078 -0.12540955 0)
(-0.024563774 -0.12435354 0)
(-0.02831591 -0.12360322 0)
(-0.030415637 -0.12315887 0)
(-0.030033572 -0.12298866 0)
(-0.026193036 -0.12302097 0)
(-0.017879292 -0.12315399 0)
(-0.0042821267 -0.1232936 0)
(0.014945821 -0.12341296 0)
(0.04039221 -0.12361514 0)
(0.074494174 -0.12405858 0)
(0.11251034 -0.12451564 0)
(0.30557961 -0.30658002 0)
(0.29115862 -0.30002869 0)
(0.27711058 -0.29343609 0)
(0.26344344 -0.28681968 0)
(0.25016118 -0.28019579 0)
(0.23726368 -0.27357793 0)
(0.22474984 -0.26697879 0)
(0.212618 -0.2604099 0)
(0.20086682 -0.25388258 0)
(0.1894948 -0.24740802 0)
(0.17850044 -0.24099771 0)
(0.16788168 -0.23466351 0)
(0.1576358 -0.2284176 0)
(0.14775898 -0.22227251 0)
(0.13824616 -0.21624067 0)
(0.12909083 -0.21033435 0)
(0.12028508 -0.20456504 0)
(0.11181956 -0.19894351 0)
(0.10368374 -0.1934791 0)
(0.09586601 -0.18818005 0)
(0.088353926 -0.18305291 0)
(0.081134278 -0.17810304 0)
(0.07419311 -0.17333423 0)
(0.067515569 -0.16874932 0)
(0.061085565 -0.16434998 0)
(0.054885287 -0.16013729 0)
(0.048894532 -0.15611163 0)
(0.043089992 -0.15227324 0)
(0.037444478 -0.14862205 0)
(0.03192639 -0.14515811 0)
(0.02649942 -0.1418815 0)
(0.021122992 -0.13879254 0)
(0.015753534 -0.13589184 0)
(0.010347256 -0.13318062 0)
(0.0048647655 -0.1306611 0)
(-0.00072153063 -0.12833737 0)
(-0.0064165772 -0.12621663 0)
(-0.012187103 -0.12431076 0)
(-0.017940413 -0.12263797 0)
(-0.023496675 -0.12122355 0)
(-0.028555055 -0.12009781 0)
(-0.032657217 -0.11928969 0)
(-0.035154933 -0.11881295 0)
(-0.035196522 -0.11864875 0)
(-0.031749549 -0.11872923 0)
(-0.023704019 -0.11894188 0)
(-0.010123298 -0.11916359 0)
(0.0094563208 -0.11933664 0)
(0.035698873 -0.11954836 0)
(0.071217745 -0.1199975 0)
(0.1112691 -0.12048659 0)
(0.31248794 -0.29869643 0)
(0.29781693 -0.29229286 0)
(0.28350966 -0.28585006 0)
(0.26957812 -0.27938681 0)
(0.25602664 -0.27291825 0)
(0.24285706 -0.26645868 0)
(0.23006854 -0.26002053 0)
(0.21766006 -0.25361576 0)
(0.20562994 -0.24725549 0)
(0.19397654 -0.24095074 0)
(0.18269764 -0.23471237 0)
(0.17179072 -0.22855135 0)
(0.16125242 -0.22247876 0)
(0.15107864 -0.21650565 0)
(0.14126419 -0.21064303 0)
(0.13180287 -0.2049015 0)
(0.12268729 -0.19929122 0)
(0.11390907 -0.19382145 0)
(0.10545877 -0.18850065 0)
(0.097326146 -0.18333602 0)
(0.089500134 -0.17833375 0)
(0.081968934 -0.17349868 0)
(0.07471993 -0.16883473 0)
(0.067739469 -0.16434461 0)
(0.061012548 -0.16003033 0)
(0.054522248 -0.15589305 0)
(0.048249173 -0.1519335 0)
(0.042170652 -0.14815193 0)
(0.036260143 -0.14454841 0)
(0.030486573 -0.14112276 0)
(0.024814227 -0.13787481 0)
(0.019202982 -0.1348043 0)
(0.013609627 -0.13191119 0)
(0.0079902596 -0.1291958 0)
(0.002304671 -0.12665946 0)
(-0.0034769525 -0.12430534 0)
(-0.0093638111 -0.12214001 0)
(-0.015329846 -0.1201753 0)
(-0.021293247 -0.11843075 0)
(-0.027088734 -0.11693498 0)
(-0.03243279 -0.11572552 0)
(-0.036882608 -0.11484251 0)
(-0.039797118 -0.11431607 0)
(-0.040309823 -0.1141436 0)
(-0.037338387 -0.114268 0)
(-0.029673404 -0.11456925 0)
(-0.01623536 -0.11489596 0)
(0.0035886081 -0.115149 0)
(0.030568508 -0.11539498 0)
(0.067523189 -0.11587299 0)
(0.10974247 -0.11641157 0)
(0.31874955 -0.29078753 0)
(0.30383773 -0.28453307 0)
(0.28928441 -0.2782434 0)
(0.27510003 -0.27193535 0)
(0.26129224 -0.26562447 0)
(0.24786281 -0.25932429 0)
(0.23481217 -0.25304769 0)
(0.22213923 -0.24680618 0)
(0.20984276 -0.24061106 0)
(0.19792074 -0.23447279 0)
(0.18637093 -0.22840194 0)
(0.17519029 -0.22240862 0)
(0.16437534 -0.21650309 0)
(0.15392169 -0.21069527 0)
(0.14382425 -0.20499505 0)
(0.13407698 -0.19941179 0)
(0.12467303 -0.1939545 0)
(0.11560465 -0.18863138 0)
(0.10686336 -0.18344998 0)
(0.098439882 -0.17841678 0)
(0.090324279 -0.17353742 0)
(0.082505869 -0.16881647 0)
(0.07497312 -0.16425759 0)
(0.067713425 -0.15986352 0)
(0.060712696 -0.15563624 0)
(0.053954905 -0.15157702 0)
(0.047421403 -0.14768659 0)
(0.041090308 -0.1439652 0)
(0.034935759 -0.14041273 0)
(0.02892748 -0.13702877 0)
(0.023030466 -0.13381261 0)
(0.017205379 -0.13076339 0)
(0.011409543 -0.12788014 0)
(0.0055992968 -0.12516222 0)
(-0.0002661992 -0.12260974 0)
(-0.0062187204 -0.12022474 0)
(-0.012271692 -0.11801266 0)
(-0.018406566 -0.11598489 0)
(-0.024553191 -0.11416128 0)
(-0.030563155 -0.11257331 0)
(-0.036173667 -0.11126437 0)
(-0.040964502 -0.11028648 0)
(-0.04430995 -0.10968691 0)
(-0.045340251 -0.10948462 0)
(-0.042930538 -0.10963967 0)
(-0.035771344 -0.11003259 0)
(-0.022619891 -0.11048536 0)
(-0.0026761143 -0.11085186 0)
(0.024972995 -0.11116463 0)
(0.063404322 -0.1117046 0)
(0.10797989 -0.11231743 0)
(0.32439799 -0.28286033 0)
(0.30925733 -0.27675608 0)
(0.29446782 -0.27062039 0)
(0.28004381 -0.26446862 0)
(0.26599198 -0.25831581 0)
(0.2523159 -0.2521753 0)
(0.23901591 -0.2460595 0)
(0.22609177 -0.23998003 0)
(0.2135421 -0.23394766 0)
(0.20136519 -0.22797284 0)
(0.1895585 -0.22206543 0)
(0.17811907 -0.21623521 0)
(0.16704312 -0.21049149 0)
(0.15632638 -0.20484357 0)
(0.14596371 -0.19930021 0)
(0.13594939 -0.19387004 0)
(0.1262769 -0.18856095 0)
(0.11693911 -0.1833805 0)
(0.10792818 -0.17833526 0)
(0.099235692 -0.17343133 0)
(0.090852566 -0.16867367 0)
(0.082769047 -0.16406667 0)
(0.074974514 -0.15961363 0)
(0.067457243 -0.15531728 0)
(0.060204011 -0.15117942 0)
(0.053199594 -0.14720135 0)
(0.046426165 -0.1433836 0)
(0.039862629 -0.13972635 0)
(0.033484002 -0.13622912 0)
(0.02726088 -0.1328911 0)
(0.021159251 -0.12971095 0)
(0.015140703 -0.126687 0)
(0.0091634394 -0.12381727 0)
(0.0031842435 -0.12109986 0)
(-0.0028379967 -0.11853352 0)
(-0.0089367672 -0.11611871 0)
(-0.015129559 -0.11385944 0)
(-0.021405249 -0.11176569 0)
(-0.027706207 -0.10985707 0)
(-0.033902143 -0.10816621 0)
(-0.039755165 -0.10674156 0)
(-0.044873333 -0.10564558 0)
(-0.048657096 -0.10494366 0)
(-0.05024572 -0.10468026 0)
(-0.048484507 -0.10483994 0)
(-0.041966378 -0.10531458 0)
(-0.029268513 -0.10590424 0)
(-0.0093556377 -0.10641268 0)
(0.018881126 -0.10683982 0)
(0.058845279 -0.10747463 0)
(0.10603292 -0.10818768 0)
(0.32946925 -0.27492647 0)
(0.3141086 -0.26897396 0)
(0.29909546 -0.26299182 0)
(0.28444322 -0.25699658 0)
(0.27016039 -0.25100152 0)
(0.25625039 -0.24502008 0)
(0.24271448 -0.23906401 0)
(0.22955239 -0.23314483 0)
(0.21676327 -0.22727295 0)
(0.20434528 -0.22145855 0)
(0.19229613 -0.21571109 0)
(0.18061268 -0.21003982 0)
(0.16929131 -0.20445356 0)
(0.15832763 -0.19896084 0)
(0.14771677 -0.19356985 0)
(0.13745312 -0.18828832 0)
(0.12753058 -0.18312359 0)
(0.11794244 -0.17808233 0)
(0.10868146 -0.17317073 0)
(0.099739868 -0.16839413 0)
(0.091109328 -0.16375731 0)
(0.08278083 -0.1592641 0)
(0.074744554 -0.15491778 0)
(0.066989553 -0.1507207 0)
(0.059503404 -0.14667468 0)
(0.052271677 -0.14278071 0)
(0.045277378 -0.13903928 0)
(0.038500291 -0.13545014 0)
(0.031916387 -0.13201256 0)