/*--------------------------------*- C++ -*----------------------------------*\
| =========                 |                                                 |
| \\      /  F ield         | OpenFOAM: The Open Source CFD Toolbox           |
|  \\    /   O peration     | Version:  2312                                  |
|   \\  /    A nd           | Website:  www.openfoam.com                      |
|    \\/     M anipulation  |                                                 |
\*---------------------------------------------------------------------------*/
FoamFile
{
    version     2.0;
    format      ascii;
    arch        "LSB;label=32;scalar=64";
    class       volScalarField;
    location    "0.03";
    object      CH4;
}
// * * * * * * * * * * * * * * * * * * * * * * * * * * * * * * * * * * * * * //

dimensions      [0 0 0 0 0 0 0];

internalField   nonuniform List<scalar> 
3250
(
0.00016381973
0.00014904465
0.00013543802
0.00012293498
0.00011146591
0.00010096257
9.1358932e-05
8.2591547e-05
7.4599448e-05
6.7324297e-05
6.0710568e-05
5.4705657e-05
4.925994e-05
4.4326799e-05
3.9862605e-05
3.5826673e-05
3.2181188e-05
2.8891121e-05
2.5924116e-05
2.325037e-05
2.0842502e-05
1.8675417e-05
1.6726166e-05
1.4973801e-05
1.3399239e-05
1.1985121e-05
1.0715682e-05
9.5766233e-06
8.5549892e-06
7.6390556e-06
6.8182224e-06
6.0829134e-06
5.4244842e-06
4.835137e-06
4.3078412e-06
3.8362618e-06
3.4146927e-06
3.0379966e-06
2.7015495e-06
2.4011913e-06
2.1331798e-06
1.8941511e-06
1.6810828e-06
1.4912621e-06
0.00053587628
0.0004874472
0.0004428444
0.00040185631
0.00036425892
0.00032983096
0.00029835719
0.00026962954
0.00024344793
0.00021962081
0.00019796576
0.00017830986
0.00016048992
0.0001443526
0.00012975434
0.00011656128
0.00010464899
9.3902244e-05
8.4214592e-05
7.5488023e-05
6.7632508e-05
6.0565557e-05
5.4211752e-05
4.8502282e-05
4.3374475e-05
3.8771347e-05
3.4641166e-05
3.0937023e-05
2.761644e-05
2.4640987e-05
2.1975932e-05
1.9589911e-05
1.7454622e-05
1.5544542e-05
1.3836669e-05
1.231028e-05
1.0946719e-05
9.7291901e-06
8.6425839e-06
7.6733075e-06
6.8091389e-06
6.0390925e-06
5.3532982e-06
4.7428877e-06
0.00094006587
0.00085508393
0.00077679108
0.00070482276
0.00063879387
0.00057832225
0.00052303482
0.00047256941
0.00042657689
0.00038472249
0.0003466868
0.00031216661
0.00028087552
0.0002525441
0.00022691998
0.00020376766
0.00018286818
0.00016401863
0.0001470316
0.00013173446
0.00011796864
0.00010558886
9.4462277e-05
8.4467706e-05
7.5494789e-05
6.7443198e-05
6.0221862e-05
5.3748224e-05
4.7947536e-05
4.2752194e-05
3.8101111e-05
3.3939136e-05
3.0216514e-05
2.6888386e-05
2.3914334e-05
2.1257955e-05
1.8886477e-05
1.6770409e-05
1.4883222e-05
1.3201058e-05
1.1702468e-05
1.036818e-05
9.1808788e-06
8.1249988e-06
0.0013653177
0.0012418443
0.0011280519
0.0010234212
0.00092740389
0.00083945359
0.00075903481
0.00068562675
0.00061872564
0.0005578474
0.00050252929
0.00045233128
0.00040683705
0.00036565457
0.00032841633
0.00029477916
0.00026442383
0.00023705444
0.00021239759
0.00019020143
0.00017023458
0.00015228505
0.00013615905
0.00012167978
0.00010868626
9.7032181e-05
8.6584758e-05
7.7223648e-05
6.8839917e-05
6.1335071e-05
5.4620134e-05
4.8614798e-05
4.3246634e-05
3.8450358e-05
3.4167161e-05
3.0344094e-05
2.6933499e-05
2.3892505e-05
2.118255e-05
1.8768968e-05
1.6620601e-05
1.470946e-05
1.3010408e-05
1.1500838e-05
0.0017978914
0.001635165
0.0014851532
0.0013471842
0.0012205496
0.0011045409
0.00099846048
0.00090162798
0.00081338371
0.00073309211
0.00066014453
0.00059396137
0.00053399357
0.00047972351
0.00043066549
0.00038636572
0.00034640187
0.00031038234
0.00027794524
0.00024875715
0.0002225118
0.00019892857
0.00017775093
0.00015874495
0.00014169763
0.00012641546
0.00011272285
0.0001004607
8.9485077e-05
7.9665848e-05
7.088551e-05
6.3038043e-05
5.6027855e-05
4.9768816e-05
4.418336e-05
3.9201673e-05
3.476094e-05
3.0804665e-05
2.7282055e-05
2.4147457e-05
2.1359853e-05
1.8882407e-05
1.6682045e-05
1.4729038e-05
0.0022227974
0.0020213155
0.0018355385
0.0016646453
0.0015077746
0.0013640615
0.0012326514
0.0011127072
0.0010034156
0.00090399137
0.00081368132
0.00073176721
0.0006575679
0.00059044075
0.00052978231
0.00047502847
0.00042565406
0.00038117199
0.00034113209
0.00030511964
0.00027275369
0.00024368528
0.00021759549
0.00019419355
0.00017321483
0.00015441895
0.00013758793
0.00012252432
0.00010904952
9.7002187e-05
8.6236653e-05
7.6621548e-05
6.8038471e-05
6.0380779e-05
5.3552472e-05
4.7467171e-05
4.2047188e-05
3.7222677e-05
3.2930861e-05
2.911534e-05
2.5725456e-05
2.271573e-05
2.0045344e-05
1.7677641e-05
0.0026256091
0.0023870454
0.0021670631
0.0019646948
0.0017789343
0.001608768
0.001453191
0.0013112162
0.0011818819
0.0010642583
0.00095745222
0.00086061083
0.00077292484
0.00069363012
0.0006220089
0.00055738996
0.00049914835
0.00044670444
0.00039952262
0.0003571095
0.00031901207
0.00028481544
0.00025414065
0.0002266423
0.00020200622
0.00017994717
0.00016020659
0.00014255042
0.00012676707
0.00011266544
0.00010007311
8.883466e-05
7.8810077e-05
6.9873304e-05
6.1910916e-05
5.4820898e-05
4.851154e-05
4.2900421e-05
3.7913497e-05
3.348427e-05
2.9553037e-05
2.6066215e-05
2.2975739e-05
2.0238502e-05
0.002994144
0.0027211346
0.0024694149
0.0022378762
0.0020253758
0.0018307603
0.0016528819
0.0014906109
0.0013428445
0.001208515
0.0010865955
0.00097610511
0.00087611223
0.0007857372
0.00070415359
0.00063058865
0.00056432301
0.00050468967
0.00045107251
0.0004029043
0.00035966446
0.00032087654
0.0002861056
0.00025495548
0.00022706609
0.00020211071
0.00017979337
0.00015984635
0.00014202774
0.00012611924
0.00011192399
9.9264638e-05
8.7981503e-05
7.7930899e-05
6.8983602e-05
6.1023449e-05
5.3946058e-05
4.7657669e-05
4.2074089e-05
3.7119743e-05
3.2726806e-05
2.8834434e-05
2.5388073e-05
2.23389e-05
0.0033197393
0.0030155875
0.0027352217
0.0024774117
0.0022408868
0.00202436
0.001826548
0.0016461854
0.0014820356
0.0013329002
0.0011976261
0.0010751114
0.00096430983
0.00086423332
0.00077395394
0.00069260446
0.00061937797
0.00055352683
0.0004943609
0.00044124534
0.000393598
0.00035088655
0.00031262545
0.00027837287
0.00024772758
0.00022032582
0.00019583839
0.00017396771
0.00015444517
0.0001370285
0.00012149943
0.00010766143
9.5337672e-05
8.4369152e-05
7.4612947e-05
6.5940654e-05
5.8236955e-05
5.1398327e-05
4.533186e-05
3.99542e-05
3.5190579e-05
3.0973951e-05
2.7244241e-05
2.3947823e-05
0.0043453388
0.0039573991
0.0035982097
0.0032664546
0.0029608099
0.0026799083
0.0024223477
0.0021867107
0.0019715838
0.001775572
0.0015973114
0.00143548
0.0012888056
0.0011560729
0.0010361282
0.00092788269
0.00083031473
0.00074247017
0.00066346213
0.00059246972
0.00052873603
0.00047156557
0.00042032133
0.00037442151
0.00033333609
0.00029658333
0.00026372624
0.00023436911
0.00020815417
0.00018475842
0.00016389051
0.00014528797
0.00012871451
0.00011395756
0.000100826
8.9148104e-05
7.8769632e-05
6.9552092e-05
6.1371191e-05
5.4115413e-05
4.7684744e-05
4.1989504e-05
3.69493e-05
3.2492077e-05
2.8553315e-05
2.5075594e-05
0.0046317496
0.004215206
0.0038297527
0.0034739559
0.0031463814
0.0028455422
0.0025699127
0.0023179508
0.0020881172
0.0018788926
0.0016887917
0.0015163744
0.0013602561
0.0012191146
0.001091696
0.00097681813
0.00087337265
0.00078032597
0.00069671859
0.00062166363
0.00055434455
0.0004940122
0.00043998142
0.00039162738
0.0003483817
0.00030972854
0.00027520063
0.00024437546
0.0002168715
0.0001923447
0.00017048514
0.00015101391
0.00013368017
0.0001182585
0.0001045464
9.2362105e-05
8.1542443e-05
7.1941043e-05
6.3426627e-05
5.5881497e-05
4.9200165e-05
4.3288109e-05
3.8060651e-05
3.3441933e-05
2.9364079e-05
2.5766881e-05
0.004868463
0.0044268855
0.0040185706
0.0036419529
0.0032954898
0.0029775811
0.0026865832
0.0024208328
0.0021786697
0.0019584547
0.0017585856
0.00157751
0.0014137362
0.0012658412
0.0011324767
0.0010123733
0.00090434285
0.00080727865
0.00072015519
0.00064202609
0.00057202159
0.00050934522
0.00045326985
0.00040313337
0.00035833461
0.00031832896
0.00028262396
0.00025077496
0.00022238112
0.00019708144
0.00017455123
0.00015449861
0.00013666143
0.00012080436
0.00010671625
9.4207732e-05
8.3108986e-05
7.3267793e-05
6.4547747e-05
5.6826653e-05
4.9995072e-05
4.3955015e-05
3.8618756e-05
3.3907761e-05
2.975181e-05
2.6088829e-05
0.0050631705
0.0045996056
0.0041713192
0.003776615
0.0034138446
0.0030812987
0.0027772195
0.0024998271
0.0022473443
0.0020180166
0.0018101293
0.0016220227
0.0014521027
0.0012988507
0.0011608295
0.001036688
0.00092516338
0.00082508149
0.00073535656
0.0006549878
0.00058305758
0.00051872741
0.00046123317
0.00040988074
0.00036404085
0.00032314459
0.00028667854
0.00025417991
0.00022523215
0.00019946081
0.00017652959
0.00015613667
0.00013801132
0.00012191084
0.00010761768
9.4936916e-05
8.3694005e-05
7.3732637e-05
6.4912874e-05
5.7109466e-05
5.0210332e-05
4.4115205e-05
3.8734385e-05
3.3987625e-05
2.9803226e-05
2.6118007e-05
0.0052244629
0.0047414028
0.0042954935
0.0038849149
0.0035079172
0.0031626865
0.0028473555
0.0025600326
0.0022988279
0.0020618763
0.0018473556
0.0016535029
0.0014786269
0.0013211178
0.0011794543
0.0010522081
0.00093804669
0.00083573182
0.00074412128
0.00066216578
0.00058890455
0.00052346174
0.00046504033
0.00041291769
0.00036644027
0.00032501791
0.00028811884
0.00025526515
0.0002260276
0.00020002104
0.00017690014
0.00015635547
0.00013810991
0.00012191536
0.00010754979
9.4814538e-05
8.3531837e-05
7.3542673e-05
6.4704835e-05
5.6891158e-05
4.9987958e-05
4.3893623e-05
3.8517327e-05
3.3777876e-05
2.9602775e-05
2.5928337e-05
0.005360379
0.0048598068
0.004398126
0.0039734038
0.0035837955
0.003227388
0.00290221
0.002606263
0.0023375501
0.0020941001
0.0018739883
0.0016753533
0.001496411
0.0013354647
0.0011909131
0.0010612543
0.00094508745
0.00084111712
0.00074815161
0.00066509625
0.00059094952
0.00052479814
0.00046581472
0.00041325094
0.00036643148
0.00032474836
0.00028765512
0.00025466115
0.00022532661
0.00019925759
0.00017610155
0.00015554315
0.00013730045
0.00012112144
0.00010678087
9.4077477e-05
8.2831399e-05
7.2881955e-05
6.4085595e-05
5.6314098e-05
4.9452949e-05
4.3399893e-05
3.8063616e-05
3.3362545e-05
2.9223905e-05
2.5583936e-05
0.0054775748
0.0049610611
0.004485049
0.0040475148
0.0036465285
0.0032800845
0.002946113
0.0026425144
0.0023671897
0.0021180673
0.0018931245
0.001690406
0.0015080387
0.0013442433
0.0011973416
0.0010657596
0.00094803958
0.00084283365
0.00074889425
0.00066508095
0.0005903545
0.00052377152
0.00046447732
0.00041170025
0.00036474545
0.00032298853
0.00028586937
0.00025288621
0.00022359013
0.00019757986
0.00017449697
0.00015402141
0.00013586752
0.00011978038
0.00010553247
9.292082e-05
8.1764277e-05
7.1901215e-05
6.3187413e-05
5.5494197e-05
4.8706772e-05
4.2722737e-05
3.7450736e-05
3.2809227e-05
2.8725519e-05
2.513608e-05
0.0055810481
0.0050499003
0.0045606853
0.0041113628
0.0036999361
0.0033243146
0.0029823363
0.0026718055
0.0023905266
0.0021363322
0.0019071062
0.0017008036
0.0015154668
0.0013492372
0.0012003607
0.0010672059
0.00094825119
0.00084208821
0.0007474262
0.00066308468
0.00058798914
0.00052116534
0.00046173274
0.00040889792
0.00036194783
0.00032024299
0.00028321094
0.00025033992
0.00022117299
0.0001953025
0.000172365
0.00015203657
0.00013402859
0.00011808392
0.00010397346
9.1493097e-05
8.046094e-05
7.0714914e-05
6.2110581e-05
5.4519225e-05
4.7826146e-05
4.1929136e-05
3.6737103e-05
3.2168814e-05
2.8151906e-05
2.4623275e-05
0.005674262
0.0051297007
0.0046281792
0.0041678616
0.0037467167
0.0033625749
0.0030131858
0.0026962628
0.0024095183
0.0021506935
0.0019175832
0.001708057
0.0015200757
0.0013517044
0.001201124
0.0010666342
0.00094665397
0.00083972698
0.00074451723
0.00065980502
0.00058448195
0.00051754468
0.0004580881
0.0004052982
0.00035844482
0.00031687443
0.00028000313
0.00024731
0.00021833082
0.00019265224
0.00016990645
0.0001497662
0.00013194045
0.00011617033
0.00010222557
8.9901339e-05
7.9015366e-05
6.9405458e-05
6.0927266e-05
5.3452306e-05
4.6866218e-05
4.1067214e-05
3.5964668e-05
3.1477835e-05
2.7534844e-05
2.4073147e-05
0.0063648705
0.0057605772
0.0052028739
0.0046896628
0.0042189738
0.0037886847
0.0033965411
0.0030402075
0.0027173104
0.0024254748
0.0021623549
0.0019256602
0.0017131783
0.0015227924
0.0013524936
0.0012003978
0.0010647397
0.00094388536
0.00083632926
0.00074069203
0.00065571628
0.00058026104
0.00051329518
0.00045389012
0.00040121225
0.00035451518
0.00031313212
0.00027646846
0.00024399473
0.00021523999
0.00018978572
0.00016726016
0.00014733318
0.00012971167
0.00011413538
0.00010037316
8.821974e-05
7.7492713e-05
6.8029995e-05
5.9687522e-05
5.2337223e-05
4.5865245e-05
4.0170361e-05
3.516254e-05
3.0761644e-05
2.6896397e-05
2.3504884e-05
0.0064590308
0.0058409046
0.0052707835
0.0047464902
0.0042659679
0.0038270146
0.0034272975
0.0030644008
0.0027358689
0.0024392435
0.0021720953
0.0019320521
0.0017168227
0.0015242153
0.0013521528
0.0011986821
0.0010619815
0.00094036351
0.00083227534
0.00073629584
0.00065113128
0.00057560938
0.00050867232
0.00044936904
0.00039684716
0.00035034484
0.00030918267
0.00027275591
0.00024052708
0.00021201896
0.00018680825
0.00016451961
0.00014482033
0.00012741551
0.00011204373
9.8473239e-05
8.649847e-05
7.5937071e-05
6.6627213e-05
5.8425251e-05
5.1203651e-05
4.4849166e-05
3.9261226e-05
3.4350477e-05
3.003746e-05
2.6251557e-05
2.2931532e-05
0.0065472714
0.0059162416
0.0053343656
0.004799533
0.0043096492
0.0038624489
0.0034555284
0.0030863967
0.0027525199
0.0024513599
0.0021804077
0.0019372127
0.0017194076
0.0015247285
0.0013510315
0.0011962996
0.0010586546
0.00093635799
0.00082781109
0.0007315525
0.00064625344
0.00057071149
0.00050384315
0.00044467577
0.00039233899
0.00034605619
0.00030513597
0.00026896396
0.0002369951
0.0002087463
0.00018378981
0.00016174698
0.00014228279
0.00012510077
0.00010993855
9.6563867e-05
8.4771056e-05
7.437792e-05
6.5222997e-05
5.7163153e-05
5.0071467e-05
4.3835368e-05
3.8355002e-05
3.3541742e-05
2.9316849e-05
2.5610402e-05
2.236187e-05
0.0066303097
0.0059872993
0.0053942386
0.0048493447
0.004350523
0.0038954525
0.0034816626
0.0031065906
0.0027676281
0.0024621608
0.002187603
0.0019414288
0.0017211977
0.0015245764
0.0013493547
0.0011934567
0.0010549488
0.00093204272
0.00082309564
0.00072660733
0.00064121522
0.00056568783
0.000498917
0.00043990932
0.00038777722
0.00034172992
0.00030106459
0.00026515774
0.00023345711
0.00020547412
0.00018077683
0.0001589836
0.00013975726
0.00012279998
0.00010784857
9.4670422e-05
8.3059858e-05
7.2834934e-05
6.383463e-05
5.5916389e-05
4.8953953e-05
4.2835476e-05
3.7461849e-05
3.2745206e-05
2.8607551e-05
2.4979681e-05
2.180178e-05
0.0074181781
0.0067097688
0.0060546587
0.0054507992
0.0048962711
0.0043889057
0.0039263173
0.0035059698
0.0031252324
0.0027814252
0.0024718609
0.0021938801
0.0019448845
0.0017223635
0.0015239158
0.0013472689
0.0011902887
0.0010509885
0.00092753204
0.00081823391
0.00072155639
0.00063610437
0.00056061841
0.00049396663
0.0004351357
0.00038322156
0.00033741993
0.00029701708
0.00026138083
0.00022995218
0.00020223732
0.00017780047
0.00015625717
0.00013726835
0.00012053494
0.00010579308
9.2809925e-05
8.1379873e-05
7.1321306e-05
6.2473701e-05
5.4695123e-05
4.7860016e-05
4.1857281e-05
3.658858e-05
3.1966818e-05
2.7914758e-05
2.4363918e-05
2.1255202e-05
0.0075061959
0.0067850359
0.0061184296
0.0055042593
0.0049405268
0.0044249993
0.0039552313
0.0035286252
0.0031424851
0.0027940632
0.0024806018
0.0021993711
0.0019477027
0.0017230185
0.0015228533
0.0013448727
0.0011868869
0.0010468581
0.00092290377
0.00081329745
0.00071646531
0.00063098092
0.00055555799
0.00048904184
0.0004304001
0.00037871292
0.00033316314
0.00029302665
0.00025766308
0.000226507
0.00019905977
0.00017488198
0.00015358659
0.00013483281
0.00011832048
0.00010378518
9.0993928e-05
7.9741271e-05
6.9845971e-05
6.114805e-05
5.3506226e-05
4.6795668e-05
4.0906039e-05
3.5739783e-05
3.1210582e-05
2.7241956e-05
2.3766149e-05
2.072478e-05
0.0075891838
0.0068562424
0.0061787635
0.0055547731
0.0049822582
0.0044589408
0.0039823227
0.0035497488
0.0031584614
0.0028056476
0.0024884825
0.0022041687
0.0019499706
0.001723245
0.0015214645
0.0013422363
0.0011833165
0.0010426179
0.00091821352
0.00080833737
0.00071138093
0.00062588768
0.00055054555
0.00048417806
0.00042573459
0.00037428024
0.0003289856
0.00028911671
0.00025402543
0.00022314031
0.00019595814
0.00017203617
0.000150985
0.00013246226
0.00011616684
0.00010183391
8.9230372e-05
7.815102e-05
6.8415037e-05
5.9863022e-05
5.2354369e-05
4.5764986e-05
3.9985308e-05
3.4918558e-05
3.0479195e-05
2.6591492e-05
2.3188409e-05
2.0212275e-05
0.0076674035
0.0069236108
0.0062358115
0.0056024619
0.0050215735
0.0044908306
0.0040076858
0.0035694294
0.0031732449
0.0028162574
0.0024955776
0.002208343
0.0019517539
0.0017231042
0.0015198068
0.001339413
0.0011796268
0.0010383134
0.00091350312
0.00080339202
0.00070633827
0.00062085651
0.00054561001
0.00047940143
0.00042116274
0.00036994472
0.0003249063
0.00028530421
0.00025048298
0.0002198655
0.00019294431
0.00016927355
0.00014846166
0.00013016485
0.00011408121
9.9945531e-05
8.7524753e-05
7.6613922e-05
6.7032692e-05
5.8622266e-05
5.1242728e-05
4.4770732e-05
3.9097484e-05
3.4126986e-05
2.9774461e-05
2.5964924e-05
2.2632036e-05
1.9718824e-05
0.0085562483
0.0077423497
0.0069874455
0.0062896995
0.0056474209
0.005058559
0.0045207497
0.0040313969
0.0035877392
0.0031869041
0.0028259571
0.0025019476
0.0022119509
0.0019531056
0.0017226455
0.0015179264
0.0013364456
0.0011758572
0.0010339807
0.00090880562
0.00079849148
0.00070136463
0.00061591211
0.00054077361
0.0004747319
0.0004167024
0.00036572226
0.00032093939
0.0002816017
0.00024704682
0.00021669236
0.00019002688
0.00016660166
0.00014602317
0.00012794635
0.00011206859
9.8124425e-05
8.588086e-05
7.5133261e-05
6.570178e-05
5.7428239e-05
5.0173424e-05
4.3814735e-05
3.8244147e-05
3.3366428e-05
2.9097552e-05
2.5363254e-05
2.2097863e-05
1.9245074e-05
0.0086386577
0.0078130838
0.007047681
0.0063404882
0.0056897264
0.0050932899
0.0045487694
0.0040535237
0.003604742
0.0031994987
0.0028348029
0.0025076452
0.0022150415
0.0019540715
0.0017219115
0.0015158624
0.00133337
0.0011720405
0.0010296497
0.00090414804
0.00079366016
0.00069648195
0.0006110741
0.00053605386
0.00047018505
0.00041236737
0.00036162505
0.00031709557
0.00027801856
0.00024372516
0.00021362804
0.00018721207
0.0001640259
0.00014367419
0.00012581078
0.00011013245
9.637356e-05
8.4301242e-05
7.3711218e-05
6.4424163e-05
5.6282529e-05
4.9147811e-05
4.2898149e-05
3.7426278e-05
3.2637719e-05
2.8449179e-05
2.4787079e-05
2.1586342e-05
1.8791206e-05
0.0087159846
0.0078796381
0.0071043781
0.0063882538
0.0057294548
0.0051258386
0.0045749579
0.0040741297
0.0036204973
0.0032110845
0.0028428464
0.0025127182
0.002217659
0.0019546924
0.0017209395
0.0015136488
0.0013302171
0.0011682046
0.0010253457
0.00089955304
0.00078891828
0.00069170818
0.00060635839
0.00053146475
0.00046577315
0.00040816835
0.00035766239
0.00031338293
0.00027456178
0.00024052401
0.00021067769
0.00018450428
0.00016155001
0.00014141791
0.00012376083
0.00010827506
9.4694849e-05
8.2787503e-05
7.2349134e-05
6.3200956e-05
5.5186066e-05
4.8166657e-05
4.202161e-05
3.6644402e-05
3.1941297e-05
2.7829713e-05
2.4236717e-05
2.1097698e-05
1.8356968e-05
0.0087886926
0.0079422007
0.0071576489
0.0064330861
0.0057666859
0.0051562784
0.0045993828
0.0040932778
0.0036350631
0.0032217147
0.0028501369
0.0025172117
0.0022198445
0.001955005
0.001719763
0.0015113162
0.0013270143
0.0011643741
0.0010210902
0.00089503982
0.00078428272
0.00068705812
0.00060177784
0.00052701745
0.00046150582
0.00040411362
0.00035384137
0.00030980746
0.00027123642
0.00023744764
0.00020784488
0.00018190649
0.00015917645
0.00013925635
0.00012179816
0.00010649777
9.3089373e-05
8.1340504e-05
7.1047689e-05
6.2032694e-05
5.4139258e-05
4.7230274e-05
4.1185348e-05
3.5898691e-05
3.1277288e-05
2.7239262e-05
2.3712325e-05
2.063225e-05
1.7942411e-05
0.0088570196
0.0080009299
0.0072076065
0.0064750781
0.0058015022
0.0051846843
0.004622113
0.0041110308
0.0036484967
0.0032314415
0.0028567215
0.0025211685
0.0022216367
0.001955045
0.0017184133
0.0015088919
0.0013237858
0.0011605703
0.0010169022
0.00089062465
0.00077976757
0.00068254387
0.0005973428
0.00052272075
0.00045739048
0.00040020937
0.00035016712
0.00030637343
0.00026804597
0.00023449885
0.00020513188
0.00017942047
0.00015690662
0.00013719058
0.00011992356
0.00010480114
9.1557532e-05
7.9960506e-05
6.9807031e-05
6.0919434e-05
5.3142097e-05
4.6338603e-05
4.038927e-05
3.5189024e-05
3.0645562e-05
2.667771e-05
2.3213916e-05
2.019081e-05
1.7553171e-05
1.5252866e-05
0.0089211098
0.0080559505
0.0072543574
0.006514324
0.005833989
0.0052111339
0.0046432187
0.0041274523
0.0036608553
0.0032403164
0.0028626464
0.0025246296
0.0022230718
0.0019548439
0.0017169184
0.0015064008
0.0013205532
0.0011568118
0.0010127975
0.00088632125
0.00077538444
0.00067817521
0.00059306143
0.00051858137
0.00045343263
0.00039646007
0.00034664321
0.00030308361
0.00026499256
0.00023167926
0.00020253983
0.00017704704
0.00015474102
0.00013522087
0.00011813713
0.00010318514
9.0099167e-05
7.864727e-05
6.8626867e-05
5.9860848e-05
5.2194234e-05
4.5491284e-05
3.9633014e-05
3.4515046e-05
3.0045768e-05
2.6144697e-05
2.2741016e-05
1.9772198e-05
1.7183243e-05
1.4928838e-05
0.0089810684
0.008107371
0.0072980051
0.0065509202
0.0058642343
0.005235707
0.0046627716
0.0041426062
0.0036721959
0.0032483897
0.0028679559
0.002527634
0.0022241843
0.0019544317
0.0017153044
0.0015038651
0.0013173357
0.001153115
0.0010087899
0.00088214101
0.00077114276
0.00067395983
0.00058893992
0.00051460423
0.00044963609
0.0003928686
0.00034327174
0.00029993949
0.00026207716
0.00022898942
0.00020006896
0.00017478613
0.0001526794
0.00013334681
0.00011643836
0.00010164918
8.8713652e-05
7.7400146e-05
6.7506539e-05
5.8856286e-05
5.1295033e-05
4.4687707e-05
3.8915998e-05
3.3876207e-05
2.9477382e-05
2.5639701e-05
2.2293019e-05
1.9375543e-05
1.6832876e-05
1.4619589e-05
0.0090369831
0.0081552969
0.0073386566
0.0065849673
0.0058923302
0.0052584859
0.0046808449
0.0041565572
0.0036825751
0.0032557111
0.0028726933
0.0025302193
0.0022250063
0.0019538361
0.0017135949
0.001501305
0.00131415
0.0011494937
0.0010048908
0.00087809323
0.00076704995
0.00066990353
0.00058498272
0.00051079263
0.0004460032
0.00038943651
0.00034005363
0.00029694145
0.00025929974
0.00022642896
0.00019771867
0.00017263698
0.00015072087
0.00013156745
0.00011482623
0.00010019223
8.7399965e-05
7.6218135e-05
6.6445084e-05
5.7904828e-05
5.0443629e-05
4.3927058e-05
3.8237463e-05
3.3271797e-05
2.8939748e-05
2.5162114e-05
2.1869364e-05
1.9000325e-05
1.6501142e-05
1.4326394e-05
0.0090889432
0.0081998438
0.007376427
0.006616572
0.0059183722
0.0052795552
0.0046975127
0.0041693698
0.0036920491
0.0032623289
0.0028769001
0.002532421
0.0022255682
0.0019530828
0.0017118114
0.0014987381
0.0013110107
0.0011459597
0.0010011097
0.00087418527
0.00076311161
0.00066601046
0.00058119271
0.00050714842
0.00044253497
0.00038616414
0.00033698869
0.00029408888
0.00025665939
0.00022399675
0.00019548766
0.00017059821
0.00014886399
0.00012988132
0.0001132993
9.8812892e-05
8.6156756e-05
7.5099951e-05
6.544129e-05
5.7005337e-05
4.9638958e-05
4.3208352e-05
3.7596501e-05
3.2700984e-05
2.8432101e-05
2.4711241e-05
2.146944e-05
1.8646073e-05
1.6187775e-05
1.4049373e-05
0.0091370882
0.0082411493
0.007411444
0.0066458477
0.0059424595
0.0052990011
0.0047128494
0.0041811081
0.0037006728
0.0032682901
0.0028806164
0.0025342728
0.002225898
0.0019521952
0.0017099731
0.0014961801
0.0013079304
0.001142523
0.00099745407
0.00087042274
0.00075933171
0.0006622832
0.00057757139
0.0005036722
0.00043923128
0.0003830508
0.00033407578
0.00029138036
0.00025415445
0.000221691
0.00019337407
0.0001686679
0.00014710687
0.00012828657
0.00011185579
9.7509447e-05
8.4982404e-05
7.4044073e-05
6.4493733e-05
5.6156493e-05
4.8879804e-05
4.253047e-05
3.6992085e-05
3.216283e-05
2.7953587e-05
2.4286307e-05
2.1092561e-05
1.8312226e-05
1.5892395e-05
1.378825e-05
0.0091815615
0.0082793737
0.0074438471
0.0066729138
0.0059646941
0.0053169106
0.0047269293
0.0041918354
0.0037084998
0.0032736402
0.0028838803
0.0025358067
0.0022260224
0.0019511947
0.0017080974
0.0014936449
0.0013049198
0.0011391916
0.0009939298
0.00086680965
0.00075571276
0.00065872303
0.000574119
0.00050036342
0.00043609098
0.00038009489
0.00033131299
0.00028881372
0.00025178262
0.00021950933
0.00019137551
0.00016684371
0.00014544722
0.00012678102
0.00011049361
9.6279932e-05
8.3875066e-05
7.3048783e-05
6.3600826e-05
5.5356833e-05
4.8164823e-05
4.1892185e-05
3.6423098e-05
3.1656318e-05
2.7503285e-05
2.3886482e-05
2.0737985e-05
1.7998146e-05
1.5614486e-05
1.3542577e-05
0.0092226604
0.0083147078
0.0074737857
0.0066978932
0.0059851788
0.0053333702
0.0047398255
0.0042016135
0.0037155823
0.0032784226
0.0028867279
0.0025370523
0.0022259654
0.0019501009
0.0017061995
0.0014911443
0.0013019877
0.0011359718
0.0009905412
0.00086334859
0.00075225592
0.00065532999
0.00057083472
0.00049722057
0.00043311204
0.00037729402
0.00032869767
0.0002863862
0.00024954108
0.00021744892
0.0001894892
0.00016512293
0.00014388245
0.00012536218
0.00010921043
9.5122172e-05
8.283272e-05
7.2112212e-05
6.2760848e-05
5.4604779e-05
4.7492574e-05
4.1292184e-05
3.5888348e-05
3.1180371e-05
2.7080222e-05
2.351089e-05
2.040493e-05
1.7703141e-05
1.5353454e-05
1.3311827e-05
0.0092605895
0.0083473364
0.0075014103
0.006720909
0.0060040154
0.0053484652
0.0047516095
0.004210502
0.00372197
0.0032826787
0.0028891933
0.0025380374
0.0022257493
0.0019489313
0.0017042932
0.0014886883
0.0012991414
0.0011328686
0.00098729117
0.00086004086
0.00074896121
0.00065210308
0.00056771677
0.0004942413
0.0004302917
0.00037464515
0.00032622663
0.0002840945
0.00024742652
0.00021550653
0.00018771199
0.00016350256
0.00014240971
0.00012402739
0.00010800375
9.4033834e-05
8.1853209e-05
7.1232373e-05
6.1971975e-05
5.3898667e-05
4.6861544e-05
4.0729094e-05
3.5386593e-05
3.0733867e-05
2.6683388e-05
2.3158624e-05
2.0092583e-05
1.7426489e-05
1.5108661e-05
1.3095433e-05
0.0092954757
0.0083774367
0.0075268693
0.0067420814
0.0060213031
0.0053622778
0.00476235
0.0042185586
0.0037277107
0.0032864479
0.0028913085
0.0025387878
0.0022253946
0.0019477017
0.0017023902
0.0014862856
0.0012963867
0.0011298855
0.00098418137
0.00085688664
0.00074582764
0.0006490404
0.00056476257
0.00049142253
0.00042762655
0.00037214467
0.00032389616
0.00028193493
0.00024543532
0.00021367862
0.0001860405
0.00016197938
0.00014102595
0.00012277378
0.0001068709
9.3012462e-05
8.0934269e-05
7.0407191e-05
6.1232313e-05
5.3236771e-05
4.6270164e-05
4.0201497e-05
3.4916553e-05
3.0315653e-05
2.6311747e-05
2.2828755e-05
1.9800114e-05
1.716745e-05
1.4879451e-05
1.2892808e-05
0.0093274574
0.0084051947
0.0075503084
0.0067615259
0.0060371365
0.0053748871
0.004772113
0.0042258379
0.0037328498
0.0032897672
0.0028931034
0.0025393272
0.0022249196
0.0019464261
0.0017005008
0.0014839433
0.001293728
0.0011270247
0.00098121236
0.00085388508
0.00074285329
0.00064613923
0.00056196882
0.00048876058
0.00042511266
0.00036978852
0.00032170217
0.00027990344
0.00024356352
0.00021196141
0.00018447112
0.00016054996
0.00013972798
0.00012159838
0.00010580914
9.2055511e-05
8.0073565e-05
6.963453e-05
6.0539916e-05
5.2617322e-05
4.5716835e-05
3.9707947e-05
3.4476925e-05
2.992456e-05
2.5964251e-05
2.2520345e-05
1.9526685e-05
1.6925276e-05
1.4665155e-05
1.2703357e-05
0.0093569214
0.0084308217
0.0075718657
0.0067793501
0.0060516047
0.0053863677
0.004780961
0.0042323921
0.0037374298
0.0032926713
0.002894606
0.0025396775
0.0022243412
0.0019451169
0.0016986336
0.0014816669
0.0012911686
0.0011242875
0.00097838369
0.0008510345
0.00074003553
0.00064339624
0.00055933166
0.00048625126
0.00042274567
0.00036757227
0.00031964028
0.00027799572
0.00024180697
0.00021035092
0.00018300008
0.00015921079
0.00013851249
0.00012049813
0.00010481563
9.116038e-05
7.9268716e-05
6.8912217e-05
5.9892807e-05
5.2038531e-05
4.5199937e-05
3.9246985e-05
3.4066398e-05
2.955941e-05
2.5639844e-05
2.2232451e-05
1.9271453e-05
1.6699215e-05
1.4465104e-05
1.2526482e-05
0.012573576
0.011429854
0.010377761
0.0093853122
0.0084545632
0.007591662
0.0067956508
0.0060647903
0.0053967898
0.0047889529
0.00423827
0.0037414913
0.0032951929
0.0028958419
0.0025398585
0.0022236744
0.0019437851
0.0016967962
0.0014794611
0.0012887105
0.0011216741
0.00097569411
0.00084833248
0.00073737105
0.00064080748
0.00055684677
0.00048388999
0.00042052087
0.00036549122
0.00031770582
0.00027620728
0.00024016136
0.00020884304
0.00018162351
0.00015795823
0.00013737612
0.00011946991
0.0001038875
9.0324438e-05
7.8517317e-05
6.8238065e-05
5.9289001e-05
5.14986e-05
4.471785e-05
3.8817151e-05
3.3683659e-05
2.9219028e-05
2.5337477e-05
2.1964136e-05
1.9033584e-05
1.6488522e-05
1.4278632e-05
1.2361586e-05
0.013833851
0.01261432
0.011465635
0.010409217
0.0094116258
0.0084763983
0.0076097775
0.0068105133
0.0060767698
0.0054062193
0.0047961444
0.004243518
0.0037450718
0.0032973622
0.0028968352
0.002539889
0.0022229328
0.0019424401
0.0016949947
0.0014773293
0.001286355
0.0011191838
0.00097314162
0.00084577595
0.00073485603
0.0006383686
0.00055450943
0.00048167186
0.0004184333
0.00036354044
0.000315894
0.00027453347
0.00023862224
0.00020743358
0.00018033748
0.00015678861
0.00013631547
0.00011851058
0.00010302187
8.9545045e-05
7.7816961e-05
6.7609884e-05
5.8726516e-05
5.0995737e-05
4.4268957e-05
3.8416992e-05
3.3327408e-05
2.8902248e-05
2.5056109e-05
2.1714471e-05
1.881225e-05
1.6292461e-05
1.410508e-05
1.2208079e-05
0.013876635
0.012651441
0.011497961
0.010437117
0.009435601
0.0084963359
0.0076262845
0.006824016
0.0060876148
0.0054147181
0.0048025878
0.0042481794
0.0037482068
0.0032992075
0.0028976078
0.0025397853
0.0022221285
0.0019410902
0.0016932342
0.0014752738
0.0012841025
0.0011168153
0.0009707236
0.00084336135
0.00073248619
0.00063607485
0.00055231462
0.00047959174
0.0004164778
0.00036171484
0.00031419988
0.00027296956
0.00023718514
0.00020611832
0.00017913802
0.00015569826
0.00013532712
0.00011761701
0.00010221586
8.8819572e-05
7.7165256e-05
6.7025504e-05
5.8203385e-05
5.052817e-05
4.3851663e-05
3.8045076e-05
3.2996358e-05
2.8607923e-05
2.4794715e-05
2.1482546e-05
1.860664e-05
1.6110308e-05
1.3943802e-05