/*--------------------------------*- C++ -*----------------------------------*\
| =========                 |                                                 |
| \\      /  F ield         | OpenFOAM: The Open Source CFD Toolbox           |
|  \\    /   O peration     | Version:  2312                                  |
|   \\  /    A nd           | Website:  www.openfoam.com                      |
|    \\/     M anipulation  |                                                 |
\*---------------------------------------------------------------------------*/
FoamFile
{
    version     2.0;
    format      ascii;
    arch        "LSB;label=32;scalar=64";
    class       volScalarField;
    location    "0.03";
    object      CO2;
}
// * * * * * * * * * * * * * * * * * * * * * * * * * * * * * * * * * * * * * //

dimensions      [0 0 0 0 0 0 0];

internalField   nonuniform List<scalar> 
3250
(
0.0012922493
0.0012300765
0.0011693742
0.0011102163
0.0010526943
0.00099688728
0.0009428602
0.00089066677
0.00084034799
0.00079193258
0.00074543805
0.00070087149
0.00065823026
0.00061750276
0.00057866925
0.00054170265
0.00050656936
0.00047323009
0.00044164063
0.00041175269
0.00038351453
0.00035687168
0.00033176756
0.00030814405
0.00028594195
0.00026510152
0.00024556278
0.000227266
0.00021015189
0.000194162
0.00017923887
0.00016532631
0.00015236955
0.0001403154
0.00012911235
0.00011871071
0.00010906263
0.0001001222
9.1845435e-05
8.4190301e-05
7.7116722e-05
7.0586563e-05
6.4563609e-05
5.9013539e-05
0.0042331837
0.0040293098
0.0038301526
0.0036359947
0.0034471476
0.0032638852
0.0030864366
0.0029149865
0.0027496778
0.0025906127
0.0024378557
0.002291436
0.0021513493
0.0020175612
0.0018900093
0.0017686066
0.0016532438
0.0015437923
0.0014401073
0.0013420297
0.0012493891
0.0011620057
0.0010796928
0.0010022582
0.00092950632
0.00086123962
0.0007972599
0.00073736961
0.00068137289
0.00062907649
0.00058029066
0.00053482975
0.0004925129
0.00045316445
0.00041661438
0.00038269862
0.00035125926
0.00032214469
0.00029520972
0.00027031563
0.00024733008
0.0002261272
0.00020658741
0.00018859755
0.0074482676
0.0070916013
0.0067427453
0.0064022675
0.006070769
0.005748781
0.0054367538
0.0051350533
0.0048439684
0.0045637151
0.0042944384
0.0040362172
0.0037890691
0.0035529551
0.0033277842
0.0031134195
0.0029096825
0.0027163588
0.0025332028
0.0023599429
0.0021962852
0.0020419183
0.001896517
0.0017597458
0.0016312619
0.0015107183
0.0013977663
0.0012920575
0.0011932463
0.0011009912
0.0010149566
0.00093481383
0.0008602425
0.00079093126
0.00072657857
0.00066689328
0.00061159507
0.00056041468
0.00051309416
0.00046938691
0.00042905767
0.00039188249
0.0003576487
0.00032615522
0.010867468
0.010351373
0.0098457936
0.0093516558
0.0088699203
0.0084014418
0.0079469533
0.0075070677
0.0070822788
0.0066729671
0.0062794041
0.0059017587
0.0055401034
0.005194423
0.0048646221
0.004550533
0.0042519236
0.0039685054
0.0036999405
0.0034458494
0.0032058177
0.002979402
0.0027661364
0.0025655378
0.0023771105
0.0022003508
0.0020347513
0.0018798039
0.0017350031
0.001599849
0.0014738493
0.0013565214
0.0012473944
0.0011460102
0.0010519247
0.00096470882
0.00088394924
0.00080924867
0.00074022628
0.00067651785
0.00061777576
0.00056366899
0.00051388307
0.00046812085
0.014401154
0.013724063
0.013059592
0.012409104
0.01177399
0.011155501
0.01055472
0.0099725671
0.009409799
0.0088670143
0.0083446606
0.0078430423
0.0073623296
0.0069025683
0.0064636906
0.0060455262
0.0056478131
0.0052702078
0.0049122966
0.0045736045
0.0042536057
0.0039517316
0.0036673799
0.0033999213
0.0031487074
0.002913076
0.0026923577
0.0024858801
0.0022929727
0.0021129707
0.0019452184
0.0017890722
0.0016439026
0.0015090971
0.001384061
0.0012682194
0.0011610177
0.0010619228
0.00097042336
0.00088602984
0.00080827502
0.00073671373
0.00067092296
0.00061050295
0.0179491
0.017114522
0.016293946
0.015489235
0.014702276
0.013934773
0.013188221
0.012463903
0.011762891
0.011086055
0.010434069
0.0098074195
0.0092064183
0.0086312127
0.0080817997
0.0075580392
0.0070596679
0.0065863131
0.006137506
0.005712695
0.0053112578
0.0049325131
0.0045757316
0.0042401458
0.0039249596
0.0036293561
0.0033525056
0.0030935721
0.0028517195
0.0026261164
0.0024159414
0.0022203864
0.0020386604
0.0018699918
0.0017136314
0.0015688536
0.0014349583
0.0013112717
0.0011971471
0.0010919652
0.00099513466
0.00090609167
0.00082430045
0.00074925445
0.021412292
0.020428168
0.019458669
0.018506215
0.017573226
0.016661903
0.015774195
0.014911793
0.014076137
0.013268411
0.012489563
0.011740305
0.011021129
0.010332323
0.0096739843
0.0090460342
0.008448238
0.0078802204
0.0073414819
0.0068314151
0.0063493199
0.0058944186
0.0054658686
0.005062776
0.0046842066
0.0043291968
0.0039967631
0.0036859111
0.0033956426
0.0031249629
0.0028728865
0.0026384423
0.0024206778
0.0022186631
0.0020314936
0.0018582928
0.0016982138
0.001550441
0.0014141912
0.0012887142
0.0011732929
0.0010672438
0.00096991698
0.00088069754
0.024703521
0.023581157
0.022473286
0.021382973
0.020313189
0.019266656
0.018245806
0.017252772
0.016289391
0.0153572
0.014457449
0.01359111
0.01275889
0.011961245
0.011198402
0.010470373
0.0097769778
0.0091178636
0.0084925228
0.0079003135
0.0073404773
0.0068121571
0.0063144132
0.005846239
0.0054065747
0.0049943211
0.0046083507
0.004247519
0.0039106735
0.0035966627
0.0033043427
0.0030325844
0.0027802787
0.0025463407
0.0023297143
0.0021293748
0.0019443316
0.0017736298
0.0016163521
0.001471619
0.0013385903
0.0012164643
0.0011044789
0.0010019121
0.027754561
0.026507592
0.025274174
0.024058196
0.022863233
0.021692542
0.02054905
0.019435346
0.018353678
0.017305954
0.016293748
0.015318312
0.014380585
0.013481217
0.012620584
0.011798809
0.011015788
0.010271209
0.009564577
0.0088952336
0.0082623797
0.0076650955
0.0071023595
0.0065730668
0.0060760456
0.0056100733
0.00517389
0.0047662119
0.0043857424
0.0040311822
0.0037012382
0.0033946314
0.0031101032
0.0028464216
0.0026023854
0.0023768284
0.0021686221
0.0019766784
0.0017999513
0.0016374377
0.0014881789
0.0013512604
0.0012258123
0.0011110098
0.03325817
0.031888365
0.030522411
0.029164512
0.027819209
0.026490885
0.025183633
0.023901218
0.022647049
0.021424165
0.020235227
0.019082516
0.017967936
0.016893026
0.01585897
0.014866619
0.01391651
0.01300889
0.012143744
0.011320814
0.010539633
0.0097995398
0.0090997092
0.0084391724
0.0078168399
0.0072315217
0.0066819468
0.0061667811
0.0056846445
0.0052341258
0.0048137956
0.0044222183
0.0040579621
0.0037196088
0.0034057606
0.0031150474
0.0028461327
0.0025977177
0.002368545
0.0021574019
0.0019631218
0.0017845863
0.001620726
0.001470521
0.0013330011
0.0012072449
0.035909373
0.034447669
0.032986921
0.031532306
0.030088975
0.028661838
0.027255494
0.025874192
0.024521808
0.023201813
0.021917271
0.020670826
0.019464709
0.018300741
0.01718035
0.016104588
0.015074155
0.014089428
0.013150485
0.012257132
0.011408935
0.010605245
0.0098452189
0.009127849
0.0084519892
0.0078163762
0.0072196505
0.0066603779
0.006137069
0.0056481965
0.0051922103
0.0047675505
0.0043726596
0.0040059922
0.0036660231
0.0033512554
0.0030602277
0.0027915199
0.0025437567
0.0023156108
0.0021058056
0.0019131173
0.001736376
0.0015744653
0.0014263241
0.0012909426
0.038234352
0.036693775
0.035151605
0.033613579
0.032085359
0.030572341
0.029079601
0.027611846
0.026173389
0.024768115
0.023399468
0.022070442
0.020783578
0.019540971
0.018344282
0.017194759
0.01609326
0.015040287
0.014036014
0.013080312
0.012172788
0.011312809
0.010499527
0.0097318946
0.0090087173
0.0083286731
0.0076903232
0.0070921411
0.0065325376
0.0060098797
0.0055225071
0.0050687473
0.0046469292
0.0042553967
0.0038925134
0.0035566648
0.003246276
0.002959817
0.0026958061
0.0024528139
0.0022294653
0.0020244415
0.0018364814
0.0016643833
0.0015070038
0.0013632544
0.040257242
0.03864964
0.037037987
0.035428497
0.033827271
0.032240148
0.030672638
0.029129873
0.027616569
0.026136997
0.024694956
0.023293769
0.02193627
0.020624814
0.019361284
0.018147108
0.016983297
0.015870463
0.014808899
0.013798511
0.012838955
0.01192962
0.011069636
0.010257933
0.0094932738
0.0087743153
0.0080995464
0.0074673487
0.0068760388
0.0063238865
0.0058091299
0.0053299903
0.0048846855
0.0044714746
0.0040886729
0.0037345144
0.0034073181
0.0031054571
0.0028273563
0.0025714961
0.0023364146
0.0021207104
0.001923044
0.0017421389
0.0015767815
0.0014258157
0.042014554
0.040350129
0.038679292
0.037008683
0.035344796
0.033693864
0.032061791
0.030454094
0.028875862
0.027331718
0.025825793
0.024361712
0.022942587
0.021571017
0.020249095
0.018978412
0.017760147
0.016594916
0.015483073
0.014424611
0.013419312
0.012466656
0.011565749
0.01071546
0.0099144783
0.0091617157
0.0084553475
0.0077936409
0.0071748304
0.0065971058
0.0060586254
0.0055575328
0.0050919724
0.0046600685
0.0042599267
0.0038898037
0.003547951
0.0032326602
0.0029422746
0.0026751953
0.0024298841
0.0022048666
0.001998734
0.0018101438
0.0016378196
0.0014805434
0.043547989
0.041835252
0.04011386
0.038390829
0.036673004
0.03496697
0.033278986
0.031614921
0.029980202
0.028379775
0.026818074
0.025299007
0.023825945
0.022401724
0.021028645
0.019708373
0.018441953
0.017230115
0.016073679
0.014972631
0.013927619
0.012937512
0.012001307
0.011117882
0.010285944
0.0095035906
0.0087694001
0.0080816773
0.0074386096
0.0068383178
0.0062788823
0.0057583626
0.0052748124
0.0048262907
0.004410888
0.0040267373
0.0036720077
0.0033449156
0.003043732
0.0027667881
0.0025124791
0.0022792668
0.0020656816
0.0018703237
0.0016918623
0.0015290263
0.044898564
0.043144467
0.041379593
0.039611285
0.037846698
0.036092738
0.034355985
0.032642626
0.030958397
0.02930854
0.02769777
0.026130253
0.024609602
0.02313887
0.021720477
0.020355536
0.019045716
0.017793118
0.016598557
0.015461964
0.01438207
0.0133586
0.012390739
0.011477354
0.010617054
0.0098082613
0.0090493327
0.0083384948
0.0076738731
0.0070535246
0.006475463
0.0059376797
0.0054381609
0.0049749036
0.0045459302
0.0041492978
0.0037831056
0.0034455033
0.0031346981
0.0028489599
0.0025866247
0.0023460982
0.0021258575
0.001924452
0.0017405034
0.0015726934
0.046102768
0.044312894
0.042510253
0.040702447
0.038896912
0.037100841
0.035321107
0.033564189
0.031836108
0.03014238
0.028487974
0.026877297
0.025314184
0.023801947
0.022342221
0.020937327
0.019590945
0.018303234
0.01707407
0.015903876
0.014792275
0.013738724
0.012742363
0.011802044
0.01091638
0.010083803
0.009302607
0.0085709583
0.0078869273
0.0072485141
0.0066536736
0.0061003365
0.005586428
0.0051098829
0.0046686602
0.0042607538
0.0038842016
0.0035370943
0.0032175822
0.0029238802
0.0026542719
0.0024071128
0.0021808324
0.001973935
0.0017849994
0.0016126655
0.047190789
0.045369573
0.043533734
0.041691069
0.039849254
0.038015744
0.03619768
0.034401812
0.032634425
0.030901289
0.029207615
0.027558024
0.025956506
0.024406358
0.022909384
0.021470859
0.020090526
0.018769628
0.017508792
0.016308248
0.015167774
0.014086813
0.013064489
0.012099647
0.011190891
0.010336631
0.009535119
0.0087844754
0.008082722
0.0074278079
0.0068176345
0.0062500774
0.0057230053
0.0052342961
0.004781852
0.0043636104
0.0039775547
0.0036217223
0.0032942122
0.0029931897
0.002716891
0.0024636263
0.0022317819
0.0020198212
0.0018262845
0.0016497737
0.050010039
0.048185928
0.046337122
0.044471808
0.042598024
0.040723685
0.03885649
0.037003835
0.035172719
0.033369678
0.031600723
0.029871296
0.02818625
0.026549817
0.024964214
0.023435549
0.021964418
0.020552593
0.019201319
0.01791133
0.016682887
0.015515824
0.014409598
0.013363339
0.012375884
0.011445823
0.010571544
0.009751263
0.0089830624
0.0082649204
0.0075947397
0.0069703727
0.0063896447
0.0058503726
0.0053503826
0.004887525
0.0044596864
0.0040648002
0.0037008555
0.0033659041
0.0030580663
0.0027755347
0.0025165781
0.0022795431
0.002062856
0.0018650214
0.0016846064
0.050952937
0.049106072
0.047232571
0.045340767
0.043438891
0.041535074
0.039637245
0.037753033
0.035889677
0.034053949
0.032252084
0.030489736
0.028771965
0.027103382
0.025486855
0.023926919
0.022425527
0.02098444
0.019604956
0.018287868
0.017033487
0.015841682
0.014711935
0.01364338
0.01263485
0.011684925
0.010791969
0.009954168
0.0091695704
0.0084361149
0.0077516615
0.0071140182
0.0065209635
0.0059702671
0.0054597076
0.0049870876
0.0045502469
0.0041470729
0.00377551
0.0034335668
0.0031193214
0.0028309266
0.0025666126
0.0023246894
0.0021035486
0.001901662
0.0017175645
0.051831365
0.049964041
0.048068243
0.0461524
0.044224923
0.042294139
0.040368191
0.038454929
0.03656182
0.034695861
0.032863504
0.031070591
0.029322246
0.027622653
0.025977783
0.024389111
0.022859534
0.021391092
0.019985201
0.018642726
0.01736403
0.01614902
0.014997198
0.013907708
0.012879382
0.011910787
0.011000267
0.010145984
0.0093459525
0.0085980763
0.0079001764
0.007250019
0.00664534
0.006083865
0.0055633284
0.0050814888
0.0046361424
0.004225134
0.0038463663
0.0034978072
0.0031774962
0.0028835483
0.0026141579
0.0023676009
0.0021422363
0.0019365054
0.0017489126
0.052654877
0.050768995
0.048852893
0.046915065
0.044964077
0.043008439
0.041056491
0.039116296
0.037195534
0.035301421
0.033440634
0.031619251
0.029842672
0.028115434
0.0264423
0.024826322
0.023270192
0.021776001
0.020345243
0.018978847
0.017677227
0.016440327
0.015267671
0.014158413
0.013111385
0.012125145
0.011198019
0.010328145
0.0095135091
0.0087519813
0.0080413465
0.0073793327
0.0067636356
0.0061919401
0.0056619393
0.0051713505
0.0047179293
0.0042994803
0.0039138672
0.00355902
0.0032329416
0.0029337117
0.0026594909
0.002408523
0.0021791365
0.0019697438
0.0017788208
0.055291895
0.053429952
0.051527323
0.049592659
0.047634613
0.045661909
0.043683234
0.041707116
0.039741817
0.03779522
0.035874747
0.033987286
0.032139163
0.03033617
0.028582304
0.026882883
0.025241194
0.023660005
0.022141492
0.020687226
0.019298203
0.017974888
0.016717261
0.01552487
0.014396878
0.013332121
0.012329146
0.011386265
0.010501593
0.0096730908
0.0088985969
0.0081758628
0.0075025805
0.0068764082
0.0062949925
0.0057559878
0.0052570727
0.0047959643
0.0043704298
0.0039782958
0.0036174568
0.003285881
0.0029816148
0.0027027871
0.0024476112
0.0022143867
0.0020014987
0.0018073964
0.056037146
0.054161605
0.052243619
0.050291874
0.048315143
0.046322295
0.04432218
0.042323507
0.040334722
0.038363906
0.03641867
0.034506077
0.032632599
0.030804196
0.029025533
0.027301487
0.025635551
0.024030665
0.022489123
0.021012582
0.019602108
0.018258216
0.016980921
0.015769796
0.014624015
0.013542415
0.012523538
0.011565681
0.01066694
0.0098252497
0.0090384204
0.0083041721
0.0076201632
0.0069840167
0.0063933432
0.0058457605
0.0053389109
0.0048704752
0.0044381849
0.004039832
0.0036732772
0.0033364558
0.003027383
0.0027441573
0.0024849634
0.0022480733
0.0020318466
0.0018347067
0.05674124
0.054853236
0.052921134
0.050953616
0.048959559
0.046947969
0.044927847
0.042908071
0.040897267
0.038903702
0.036935171
0.034998909
0.033101478
0.031248547
0.029446897
0.027699579
0.026010674
0.024383328
0.022819948
0.021322277
0.019891444
0.018528015
0.01723204
0.016003116
0.014840429
0.013742818
0.012708819
0.011736717
0.01082459
0.0099703486
0.0091717774
0.0084265663
0.0077323421
0.0070866946
0.0064872006
0.0059314433
0.0054170305
0.0049416088
0.0045028761
0.0040985916
0.0037265837
0.0033847569
0.0030710966
0.0027836726
0.0025206423
0.0022802518
0.0020608361
0.0018607947
0.057406788
0.055507367
0.053562252
0.051580132
0.049569978
0.047540916
0.045502093
0.043462544
0.041431068
0.039416109
0.037425648
0.035467111
0.033547271
0.031672216
0.029847722
0.028078156
0.026367445
0.024718797
0.023134702
0.021616981
0.020166823
0.018784843
0.017471126
0.01622529
0.015046536
0.013933704
0.012885327
0.011899678
0.010974818
0.010108635
0.0092988901
0.0085432444
0.0078392952
0.007184601
0.0065767065
0.0060131624
0.0054915438
0.0050094651
0.0045645922
0.0041546531
0.003777446
0.003430846
0.0031128102
0.0028213812
0.0025546906
0.0023109598
0.0020885006
0.0018856896
0.05988948
0.058035645
0.056125886
0.054168789
0.05217314
0.050148011
0.048102647
0.046046328
0.04398824
0.041937343
0.039902253
0.037891128
0.03591158
0.033970568
0.032074282
0.030228465
0.028437863
0.026706499
0.025037662
0.023433928
0.02189719
0.020428698
0.019029111
0.017698551
0.016436657
0.015242643
0.014115353
0.013053314
0.012054791
0.011117827
0.010240292
0.0094199224
0.0086543533
0.0079411539
0.0072778533
0.0066619657
0.0060910112
0.0055625341
0.005074118
0.0046233989
0.0042080751
0.0038259161
0.0034747693
0.0031525647
0.0028573196
0.0025871405
0.0023402257
0.0021148652
0.0019094136
0.060491411
0.058629665
0.056710395
0.054742231
0.052734033
0.050694966
0.048634382
0.046561691
0.044486218
0.042417077
0.040363043
0.038332444
0.036333071
0.034372097
0.032455628
0.03058972
0.028779252
0.027028349
0.025340399
0.023718063
0.022163305
0.020677433
0.019261153
0.017914619
0.016637492
0.015429
0.014287989
0.013212984
0.01220224
0.011253784
0.01036547
0.0095350091
0.0087600141
0.0080380269
0.0073665488
0.0067430654
0.0061650678
0.0056300711
0.00513563
0.0046793519
0.0042589072
0.0038720383
0.0035165662
0.0031903955
0.0028915189
0.0026180198
0.0023680745
0.0021399521
0.0019319869
0.061059302
0.059190298
0.057262262
0.055283861
0.053264014
0.051211967
0.049137176
0.047049165
0.044957395
0.042871123
0.040799272
0.038750322
0.036732226
0.034752465
0.032816872
0.030932039
0.029102822
0.027333455
0.02562743
0.023987492
0.022415678
0.020913352
0.019481264
0.018119599
0.016828042
0.01560583
0.014451816
0.013364521
0.012342191
0.011382841
0.010484304
0.0096442739
0.0088603383
0.0081300146
0.007450778
0.006820087
0.0062354053
0.0056942205
0.0051940599
0.0047325039
0.0043071967
0.003915855
0.0035562746
0.0032263364
0.0029240098
0.002647356
0.0023945304
0.002163783
0.0019534308
0.06159451
0.059718836
0.057782714
0.055794838
0.053764176
0.051700045
0.049611993
0.047509655
0.045402618
0.043300272
0.041211683
0.039145462
0.037109637
0.035111436
0.033158537
0.031255952
0.029409053
0.027622254
0.025899153
0.024242583
0.022654647
0.021136765
0.019689727
0.018313752
0.017008543
0.015773351
0.014607032
0.013508107
0.01247481
0.011505146
0.010596932
0.0097478399
0.0089554375
0.0082172181
0.0075306322
0.0068931129
0.0063020981
0.0057550492
0.005249468
0.0047829094
0.0043529926
0.0039574101
0.0035939343
0.0032604231
0.0029548243
0.0026751779
0.002419619
0.0021863801
0.0019737681
0.062098315
0.060216491
0.058272904
0.056276258
0.054235556
0.052160179
0.050059757
0.047944031
0.045822702
0.043705291
0.041601
0.039518581
0.037466223
0.035451476
0.033481467
0.031562019
0.029698425
0.027895179
0.02615597
0.024483706
0.022880553
0.021347985
0.019886832
0.018497342
0.017179239
0.015931786
0.014753843
0.013643927
0.012600267
0.011620856
0.010703494
0.009845836
0.0090454287
0.0082997435
0.0076062077
0.0069622303
0.0063652249
0.0058126286
0.0053019187
0.0048306264
0.0043963473
0.003996751
0.0036295878
0.0032926942
0.0029839972
0.002701517
0.0024433692
0.0022077673
0.00199301
0.0017974556
0.062571909
0.060684415
0.058733941
0.056729184
0.054679169
0.052593332
0.050481381
0.048353152
0.046218458
0.04408694
0.041967932
0.039870324
0.037802448
0.035771999
0.033786048
0.031850725
0.029971407
0.028152673
0.02639829
0.02471124
0.023093748
0.021547339
0.02007288
0.018670648
0.017340387
0.01608137
0.014892462
0.013772179
0.012718743
0.011730134
0.010804141
0.0099383991
0.0091304367
0.0083777043
0.0076776074
0.0070275327
0.0064248706
0.0058670355
0.0053514818
0.0048757179
0.0044373177
0.004033929
0.0036632815
0.0033231914
0.0030115665
0.0027264083
0.0024658144
0.0022279815
0.0020111998
0.0018138148
0.063016429
0.061123728
0.059166917
0.057154667
0.055096021
0.053000465
0.050877778
0.048737886
0.046590703
0.044445989
0.042313201
0.040201359
0.038118926
0.036073688
0.034072809
0.032122582
0.030228489
0.028395193
0.026626541
0.024925582
0.023294601
0.021735166
0.020248185
0.018833959
0.017492252
0.016222349
0.015023117
0.013893072
0.012830428
0.011833157
0.010899033
0.010025675
0.0092105946
0.0084512219
0.007744942
0.0070891205
0.0064811265
0.0059183526
0.005398232
0.0049182518
0.0044759651
0.0040689997
0.0036950655
0.00335196
0.0030375729
0.0027498884
0.0024869876
0.0022470508
0.0020283578
0.0018292457
0.063432971
0.061535534
0.059572916
0.057553759
0.055487125
0.053382546
0.051249871
0.049099108
0.046940271
0.044783226
0.042637547
0.04051238
0.038416322
0.036357194
0.03434233
0.032378133
0.030470178
0.028623216
0.026841168
0.025127147
0.023483495
0.021911825
0.020413078
0.018987583
0.017635119
0.016354983
0.015146047
0.014006825
0.012935525
0.01193011
0.010988339
0.01010782
0.0092860441
0.0085204252
0.0078083288
0.0071471006
0.0065340896
0.0059666682
0.0054422493
0.0049583005
0.0045123551
0.0041020223
0.0037249934
0.0033790484
0.0030620599
0.002771996
0.0025069227
0.0022650051
0.0020445098
0.0018437649
0.063822621
0.06192094
0.059953027
0.057927516
0.055853496
0.05374055
0.051598591
0.049437708
0.047268007
0.045099453
0.042941729
0.0408041
0.03869534
0.03662316
0.034595214
0.032617941
0.030697004
0.028837236
0.02704263
0.025316364
0.023660831
0.022077686
0.020567903
0.019131837
0.017769282
0.016479546
0.015261504
0.014113669
0.013034246
0.012021185
0.011072238
0.010184995
0.0093569339
0.0085854501
0.0078678917
0.0072015857
0.0065838624
0.0060120752
0.0054836183
0.0049959405
0.0045465572
0.0041330595
0.0037531219
0.0034045076
0.0030850733
0.0027927723
0.0025256558
0.0022818755
0.0020596846
0.0018574006
0.064186541
0.062281078
0.060308348
0.058276999
0.056196158
0.054075459
0.051924879
0.049754585
0.047574768
0.045395487
0.04322652
0.041077225
0.038956468
0.036872223
0.03483208
0.032842588
0.03090951
0.02903776
0.027231404
0.025493678
0.023827022
0.022233134
0.020713018
0.019267051
0.017895046
0.016596318
0.015369747
0.014213844
0.01312681
0.012106587
0.011150914
0.010257371
0.0094234186
0.0086464378
0.0079237593
0.007252693
0.0066305515
0.0060546706
0.0055224269
0.0050312517
0.0045786435
0.0041621769
0.0037795101
0.003428391
0.0031066615
0.0028122605
0.0025432259
0.0022976964
0.0020739132
0.0018701826
0.064525859
0.062617092
0.060639987
0.058603275
0.056516135
0.054388256
0.052229679
0.050050642
0.047861416
0.045672151
0.043492713
0.041332533
0.039200401
0.037105082
0.035053568
0.033052667
0.03110825
0.02922531
0.027407975
0.025659539
0.02398249
0.02237856
0.020848786
0.019393564
0.018012724
0.016705588
0.015471042
0.014307595
0.013213443
0.012186521
0.011224558
0.010325121
0.0094856578
0.0087035338
0.0079760645
0.0073005436
0.0066742672
0.0060945547
0.005558766
0.0050643167
0.004608689
0.0041894421
0.0038042193
0.003450754
0.0031268742
0.0028305055
0.0025596732
0.0023125043
0.0020872284
0.0018821413
0.064841923
0.062930155
0.060949051
0.058907404
0.056814447
0.054679924
0.052513934
0.050326782
0.048128818
0.045930273
0.043741104
0.041570842
0.039428463
0.03732248
0.035260321
0.033248777
0.031293786
0.029400409
0.027572835
0.02581441
0.024127663
0.022514365
0.020975578
0.01951172
0.018122634
0.016807652
0.015565662
0.014395173
0.013294376
0.0122612
0.011293364
0.010388424
0.0095438141
0.008756887
0.0080249431
0.0073452611
0.006715122
0.0061318296
0.0055927288
0.0050952197
0.00463677
0.0042149244
0.0038273122
0.0034716532
0.0031457625
0.0028475534
0.0025750395
0.0023263363
0.0020996637
0.0018933072
0.065135977
0.063221414
0.061236632
0.059190436
0.057092107
0.054951436
0.05277858
0.050583906
0.048377834
0.046170675
0.04397247
0.041792843
0.039640866
0.037525033
0.035452965
0.033431514
0.031466681
0.029563587
0.02772648
0.025958751
0.024262975
0.022640951
0.021093769
0.019621867
0.018225099
0.016902807
0.01565388
0.01447683
0.013369841
0.012330837
0.011357528
0.010447459
0.0095980523
0.0088066477
0.0080705323
0.0073869708
0.0067532299
0.0061665993
0.0056244093
0.0051240464
0.0046629642
0.0042386941
0.0038488523
0.0034911461
0.0031633785
0.0028634511
0.0025893667
0.0023392307
0.0021112535
0.0019037112
0.065409154
0.063491977
0.061503802
0.059453405
0.05735011
0.055203754
0.053024544
0.050822903
0.048609318
0.046394172
0.044187585
0.041999268
0.039838352
0.037713396
0.03563213
0.033601475
0.031627496
0.029715372
0.027869404
0.026093028
0.024388857
0.022758721
0.021203733
0.019724351
0.018320441
0.01699135
0.015735974
0.014552821
0.013440074
0.012395649
0.011417248
0.010502407
0.0096485379
0.0088529674
0.0081129705
0.0074257988
0.0067887058
0.0061989681
0.0056539027
0.0051508829
0.0046873498
0.0042608221
0.0038689038
0.0035092907
0.0031797743
0.0028782459
0.0026026976
0.0023512257
0.002122032
0.0019133841
0.065662547
0.063742925
0.061751604
0.059697319
0.057589434
0.055437823
0.053252736
0.051044651
0.048824113
0.04660157
0.044387219
0.042190856
0.040021638
0.037888232
0.035798442
0.033759253
0.031776789
0.029856289
0.0280021
0.026217701
0.024505739
0.022868076
0.021305845
0.01981952
0.018408981
0.01707358
0.015812217
0.014623399
0.013505306
0.012455849
0.011472721
0.010553449
0.0096954363
0.0088959973
0.0081523956
0.0074618709
0.0068216645
0.0062290404
0.0056813038
0.0051758156
0.004710005
0.0042813791
0.0038875309
0.003526145
0.0031950027
0.002891985
0.0026150749
0.0023623597
0.0021320338
0.001922357
0.065897236
0.063975318
0.061981049
0.059923159
0.057811029
0.055654564
0.05346405
0.051250011
0.049023045
0.046793663
0.044572127
0.042368344
0.040191415
0.038050198
0.03595252
0.033905431
0.031915114
0.029986858
0.028125055
0.026333226
0.024614049
0.022969413
0.021400473
0.019907718
0.018491037
0.017149791
0.015882882
0.014688816
0.01356577
0.012511649
0.011524142
0.010600765
0.0097389117
0.0089358876
0.008188945
0.0074953124
0.0068522199
0.0062569202
0.0057067069
0.00519893
0.0047310075
0.0043004359
0.0039047975
0.0035417669
0.0032091157
0.0029047157
0.0026265411
0.0023726711
0.0021412932
0.0019306604
0.07133112
0.069667755
0.067945689
0.066114192
0.064190129
0.062193106
0.060131873
0.058015822
0.055854877
0.053659355
0.051439822
0.049206925
0.046971228
0.044743044
0.042532274
0.040348356
0.038199937
0.036094976
0.034040588
0.032043013
0.030107588
0.028238749
0.026440052
0.024714206
0.023063124
0.021487982
0.019989282
0.018566924
0.017220274
0.015948237
0.014749319
0.013621693
0.012563262
0.011571704
0.010644531
0.0097791265
0.0089727867
0.0082227542
0.0075262471
0.006880485
0.0062827101
0.0057302056
0.0052203111
0.0047504344
0.0043180621
0.0039207668
0.0035562137
0.0032221654
0.0029164849
0.0026371384
0.0023821977
0.0021498442
0.0019383248
0.073097925
0.071533346
0.06986936
0.068146022
0.066314433
0.064388297
0.062388705
0.060324379
0.058204709
0.056039633
0.053839498
0.051614904
0.049376543
0.047135029
0.044900725
0.042683549
0.040493151
0.038338085
0.036226405
0.034165287
0.032161018
0.030218981
0.028343651
0.026538619
0.024806621
0.023149593
0.021568729
0.020064545
0.01863695
0.017285315
0.016008547
0.014805152
0.013673302
0.012610892
0.011615597
0.010684921
0.0098162402
0.0090068408
0.0082539567
0.0075547967
0.0069065707
0.0063065113
0.0057518919
0.0052400425
0.0047683617
0.0043343268
0.0039355014
0.003569542
0.0032342028
0.0029273388
0.0026469087
0.0023909772
0.0021577204
0.00194538
0.07328399
0.071719311
0.07005478
0.068330294
0.066498797
0.064570721
0.062568744
0.06050156
0.058378555
0.056209679
0.054005299
0.05177605
0.049532664
0.047285802
0.045045882
0.042822907
0.040626448
0.038465255
0.036347391
0.034280077
0.032269647
0.030321524
0.028440221
0.026629357
0.024891696
0.023229195
0.021643065
0.020133832
0.018701416
0.017345192
0.01606407
0.014856554
0.013720814
0.012654742
0.011656008
0.010722107
0.0098504093
0.0090381931
0.0082826836
0.0075810809
0.0069305862
0.006328423
0.005771856
0.0052582063
0.0047848639
0.0043492974
0.0039490624
0.0035818073
0.0032452783
0.002937323
0.0026558929
0.0023990465
0.0021649547
0.0019518553
0.07345467
0.071889952
0.070224929
0.068499407
0.066668134
0.064738265
0.062734086
0.06066427
0.058538198
0.05636583
0.054157552
0.051924029
0.04967603
0.047424259
0.045179187
0.042950857
0.040748861
0.038582041
0.036458496
0.034385493
0.032369405
0.030415693
0.028528903
0.026712684
0.024969822
0.023302296
0.021711328
0.02019746
0.018760617
0.017400179
0.016115057
0.014903757
0.013764446
0.012695011
0.011693117
0.010756255
0.0098817867
0.0090669834
0.0083090626
0.0076052165
0.0069526379
0.0063485424
0.0057901864
0.0052748829
0.0048000139
0.0043630403
0.0039615101
0.003593064
0.0032554411
0.002946482
0.0026641315
0.0024064418
0.0021715797
0.0019577792
0.073610886
0.072046157
0.070380691
0.068654232
0.066823283
0.064891768
0.062885564
0.060813329
0.058684442
0.056508871
0.054297022
0.052059583
0.049807358
0.047551089
0.045301303
0.043068049
0.040860991
0.038689017
0.036560269
0.034482053
0.032460781
0.030501949
0.028610132
0.026789006
0.025041381
0.023369249
0.021773851
0.020255737
0.018814837
0.017450539
0.016161754
0.014946988
0.013804405
0.01273189
0.011727102
0.010787528
0.0099105211
0.009093348
0.0083332184
0.0076273172
0.0069728297
0.0063669639
0.005806969
0.0052901503
0.0048138827
0.0043756199
0.0039729027
0.0036033651
0.0032647394
0.0029548595
0.0026716638
0.0024131989
0.002177627
0.0019631798
0.073753515
0.072188788
0.070522923
0.068795611
0.066965059
0.065032038
0.063023977
0.060949525
0.058818062
0.056639561
0.054424445
0.052183426
0.049927336
0.047666953
0.045412834
0.043175101
0.040963423
0.03878674
0.036653237
0.034570257
0.032544248
0.030580736
0.028684327
0.026858717
0.025106738
0.0234304
0.021830954
0.020308959
0.018864354
0.01749653
0.016204398
0.014986465
0.013840894
0.012765565
0.011758134
0.010816082
0.0099367568
0.0091174191
0.0083552719
0.0076474934
0.0069912623
0.0063837796
0.0058222875
0.0053040848
0.0048265396
0.0043870989
0.0039832973
0.0036127623
0.0032732199
0.002962498
0.0026785286
0.0024193525
0.0021831277
0.0019680839
0.073883395
0.072318671
0.070652443
0.068924352
0.067094248
0.065159852
0.063150094
0.061073617
0.0589398
0.056758625
0.054540528
0.052296244
0.050036631
0.047772493
0.045514382
0.043272604
0.041056721
0.038875747
0.03673791
0.034650588
0.032620261
0.030652485
0.02875189
0.026922196
0.02516625
0.023486078
0.021882944
0.020357415
0.018909435
0.017538398
0.016243219
0.015022402
0.013874108
0.012796217
0.011786379
0.010842069
0.0099606336
0.0091393247
0.0083753402
0.0076658523