/*--------------------------------*- C++ -*----------------------------------*\
| =========                 |                                                 |
| \\      /  F ield         | OpenFOAM: The Open Source CFD Toolbox           |
|  \\    /   O peration     | Version:  2312                                  |
|   \\  /    A nd           | Website:  www.openfoam.com                      |
|    \\/     M anipulation  |                                                 |
\*---------------------------------------------------------------------------*/
FoamFile
{
    version     2.0;
    format      ascii;
    arch        "LSB;label=32;scalar=64";
    class       volScalarField;
    location    "0.03";
    object      H2O;
}
// * * * * * * * * * * * * * * * * * * * * * * * * * * * * * * * * * * * * * //

dimensions      [0 0 0 0 0 0 0];

internalField   nonuniform List<scalar> 
3250
(
0.0010579531
0.0010070528
0.00095735637
0.0009089243
0.00086183159
0.00081614285
0.00077191135
0.00072918105
0.00068798551
0.00064834824
0.00061028358
0.00057379733
0.00053888732
0.00050554408
0.00047375143
0.0004434872
0.00041472388
0.00038742931
0.0003615673
0.00033709831
0.00031397997
0.0002921677
0.00027161518
0.00025227482
0.00023409816
0.00021703628
0.00020104009
0.00018606067
0.00017204951
0.00015895872
0.00014674128
0.0001353512
0.00012474361
0.00011487498
0.00010570314
9.7187411e-05
8.9288618e-05
8.1969167e-05
7.519305e-05
6.8925859e-05
6.3134782e-05
5.7788599e-05
5.2857659e-05
4.8313866e-05
0.0034656703
0.0032987605
0.0031357123
0.0029767568
0.0028221494
0.0026721141
0.0025268385
0.0023864738
0.002251137
0.0021209118
0.001995851
0.0018759785
0.0017612907
0.0016517596
0.001547334
0.0014479427
0.0013534961
0.0012638892
0.0011790032
0.0010987079
0.0010228639
0.00095132387
0.00088393499
0.00082053996
0.00076097865
0.0007050893
0.00065270967
0.00060367802
0.00055783399
0.00051501939
0.00047507886
0.00043786042
0.00040321598
0.00037100175
0.00034107853
0.000313312
0.00028757286
0.00026373702
0.00024168561
0.00022130503
0.00020248697
0.00018512835
0.0001691313
0.00015440316
0.0060978312
0.0058058316
0.0055202263
0.0052414801
0.0049700852
0.0047064765
0.0044510226
0.0042040229
0.0039657143
0.0037362734
0.003515819
0.0033044156
0.0031020776
0.0029087731
0.0027244277
0.0025489292
0.0023821315
0.002223859
0.0020739109
0.0019320645
0.0017980793
0.0016717005
0.0015526618
0.0014406884
0.0013354998
0.0012368118
0.0011443389
0.0010577961
0.00097690024
0.00090137183
0.00083093604
0.00076532387
0.00070427297
0.00064752847
0.00059484348
0.00054597967
0.0005007075
0.00045880657
0.00042006568
0.00038428293
0.00035126574
0.00032083075
0.00029280385
0.00026702041
0.0088971009
0.008474578
0.0080606647
0.0076561184
0.0072617258
0.0068781865
0.0065061008
0.0061459703
0.0057981994
0.0054630995
0.0051408929
0.0048317179
0.004535634
0.0042526285
0.0039826233
0.0037254814
0.0034810125
0.0032489804
0.0030291087
0.0028210866
0.0026245747
0.0024392102
0.0022646116
0.0021003832
0.0019461194
0.0018014079
0.001665833
0.0015389789
0.0014204318
0.0013097823
0.0012066274
0.0011105721
0.0010212308
0.00093822845
0.00086120147
0.00078979862
0.00072368147
0.00066252477
0.00060601675
0.00055385922
0.00050576759
0.00046147084
0.00042071155
0.00038324642
0.011790098
0.011235769
0.010691773
0.010159224
0.0096392622
0.0091329108
0.0086410567
0.008164453
0.0077037197
0.0072593467
0.0068317002
0.0064210297
0.0060274745
0.005651072
0.0052917667
0.0049494192
0.0046238149
0.0043146728
0.004021654
0.0037443698
0.0034823896
0.003235248
0.0030024517
0.0027834857
0.002577819
0.0023849097
0.0022042096
0.0020351681
0.0018772366
0.0017298705
0.0015925332
0.0014646977
0.0013458486
0.0012354845
0.0011331186
0.00103828
0.00095051498
0.00086938689
0.00079447707
0.00072538484
0.00066172765
0.00060314106
0.00054927873
0.0004998134
0.01469477
0.014011509
0.01333971
0.0126809
0.012036624
0.011408276
0.010797081
0.010204088
0.0096301755
0.0090760557
0.0085422804
0.0080292481
0.0075372137
0.0070662979
0.0066164984
0.0061877003
0.0057796881
0.0053921566
0.0050247222
0.0046769332
0.00434828
0.0040382051
0.0037461112
0.0034713701
0.0032133299
0.0029713219
0.0027446669
0.0025326803
0.0023346776
0.0021499784
0.00197791
0.0018178109
0.0016690333
0.0015309458
0.0014029349
0.0012844066
0.0011747878
0.0010735266
0.00098009382
0.00089398234
0.000814708
0.00074180928
0.00067484753
0.00061340803
0.017530055
0.016724362
0.015930641
0.015150875
0.014387046
0.013640954
0.012914195
0.012208154
0.011524009
0.010862732
0.010225096
0.0096116843
0.0090229015
0.0084589823
0.0079200059
0.0074059086
0.0069164982
0.0064514672
0.0060104067
0.0055928194
0.0051981324
0.0048257086
0.0044748586
0.0041448502
0.0038349188
0.0035442753
0.0032721148
0.003017623
0.0027799827
0.0025583796
0.0023520069
0.0021600695
0.0019817876
0.0018164
0.001663166
0.001521368
0.0013903127
0.0012693324
0.0011577859
0.001055059
0.00096056458
0.00087374312
0.0007940625
0.00072101933
0.020224555
0.019305686
0.018398682
0.017506052
0.01663023
0.015773442
0.014937681
0.014124693
0.013335981
0.012572804
0.011836186
0.011126922
0.010445591
0.0097925661
0.009168033
0.008572002
0.0080043257
0.0074647147
0.0069527537
0.0064679172
0.0060095842
0.0055770531
0.0051695546
0.0047862644
0.0044263152
0.0040888067
0.0037728162
0.0034774064
0.003201634
0.0029445561
0.0027052363
0.0024827502
0.0022761897
0.0020846667
0.0019073166
0.0017433005
0.0015918072
0.0014520551
0.0013232932
0.0012048016
0.0010958921
0.00099590866
0.00090422717
0.00082025661
0.022722415
0.021701532
0.020691744
0.019696233
0.018717928
0.017759493
0.016823326
0.015911547
0.015025995
0.014168232
0.013339548
0.012540967
0.011773258
0.011036954
0.010332361
0.009659581
0.0090185286
0.0084089486
0.0078304351
0.0072824495
0.0067643376
0.0062753462
0.0058146392
0.005381312
0.0049744051
0.0045929177
0.0042358182
0.0039020558
0.0035905687
0.0033002934
0.0030301712
0.0027791548
0.0025462141
0.0023303403
0.0021305501
0.0019458885
0.0017754319
0.0016182893
0.0014736043
0.0013405558
0.001218359
0.001106265
0.0010035617
0.00090957395
0.027228171
0.026106724
0.02498843
0.02387673
0.022775342
0.021687854
0.020617619
0.019567717
0.01854094
0.017539776
0.016566402
0.015622688
0.014710191
0.013830172
0.012983599
0.01217117
0.011393324
0.010650264
0.0099419761
0.0092682513
0.0086287049
0.0080227971
0.0074498519
0.0069090762
0.0063995781
0.0059203832
0.005470451
0.0050486894
0.0046539685
0.0042851328
0.0039410122
0.0036204312
0.0033222179
0.003045211
0.0027882662
0.0025502619
0.0023301038
0.0021267286
0.001939107
0.001766246
0.0016071905
0.0014610251
0.0013268741
0.0012039026
0.0010913162
0.00098836082
0.029398688
0.028202004
0.027006102
0.025815221
0.024633579
0.023465195
0.022313833
0.021182974
0.020075788
0.01899512
0.017943477
0.016923024
0.015935586
0.014982656
0.014065401
0.013184684
0.012341078
0.011534891
0.010766186
0.010034806
0.009340395
0.0086824208
0.0080601941
0.0074728897
0.0069195692
0.0063991985
0.0059106644
0.0054527928
0.0050243644
0.0046241288
0.0042508169
0.0039031517
0.0035798579
0.0032796706
0.0030013409
0.0027436433
0.0025053815
0.0022853928
0.0020825512
0.0018957702
0.0017240045
0.0015662523
0.0014215557
0.0012890009
0.001167719
0.0010568834
0.031302128
0.030040871
0.02877831
0.027519142
0.026268001
0.025029307
0.023807213
0.022605576
0.021427924
0.020277438
0.019156939
0.018068877
0.017015332
0.015998021
0.015018302
0.014077198
0.013175411
0.012313351
0.011491161
0.010708737
0.0099657548
0.0092616976
0.0085958703
0.0079674165
0.0073753577
0.0068186114
0.006296
0.0058062736
0.0053481311
0.0049202356
0.004521228
0.0041497389
0.0038044
0.0034838558
0.0031867665
0.0029118102
0.0026576976
0.0024231761
0.0022070328
0.0020080972
0.0018252437
0.0016573925
0.0015035112
0.0013626159
0.0012337708
0.0011160844
0.03295825
0.03164212
0.030322674
0.029004999
0.027694089
0.026394726
0.025111419
0.023848371
0.022609443
0.021398129
0.020217544
0.019070404
0.017959031
0.016885354
0.015850913
0.014856878
0.013904076
0.012993009
0.012123915
0.01129672
0.010511139
0.0097666748
0.0090626135
0.0083980798
0.0077720598
0.0071834548
0.0066310274
0.0061134527
0.0056293525
0.0051773102
0.0047558836
0.0043636162
0.003999049
0.0036607569
0.0033473606
0.0030574141
0.0027895414
0.0025424104
0.0023147318
0.0021052612
0.0019128021
0.001736207
0.0015743792
0.0014262738
0.0012908972
0.0011673028
0.034396946
0.033034295
0.031666396
0.030298683
0.028936473
0.02758487
0.026248706
0.024932499
0.023640415
0.022376237
0.02114335
0.019944719
0.018782894
0.017660002
0.016577756
0.015537459
0.014540076
0.013586112
0.012675856
0.011809303
0.010986273
0.010206342
0.009468777
0.0087726528
0.0081168962
0.0075006161
0.0069223186
0.0063805853
0.0058739706
0.0054009925
0.0049601433
0.0045499032
0.004168753
0.0038151571
0.0034875646
0.0031845481
0.0029046763
0.0026465505
0.0024088144
0.0021901589
0.0019893247
0.0018051049
0.001636346
0.0014819488
0.0013408685
0.0012121079
0.035652356
0.034250153
0.032840864
0.031430234
0.030023866
0.028627151
0.027245213
0.025882858
0.024544528
0.023234272
0.021955721
0.020712075
0.019506092
0.018340094
0.017215967
0.016135071
0.015098265
0.014106144
0.01315938
0.012257962
0.011402419
0.010591827
0.0098253642
0.0091021119
0.0084210116
0.0077805061
0.0071794307
0.0066163981
0.0060899243
0.0055984707
0.0051404657
0.0047143208
0.0043184425
0.0039512417
0.0036111552
0.0032966544
0.0030062405
0.002738453
0.0024918766
0.0022651451
0.0020569445
0.0018660157
0.0016911554
0.0015312175
0.0013851128
0.0012518004
0.03675806
0.035321996
0.033877109
0.032429411
0.030984759
0.029548808
0.028126943
0.026724231
0.025345367
0.023994644
0.022675921
0.021392608
0.020147665
0.01894359
0.017782364
0.016664899
0.015592561
0.014567069
0.013589093
0.012658574
0.011774474
0.010936568
0.010144189
0.0093964087
0.0086920891
0.0080299373
0.0074086091
0.0068266524
0.0062825325
0.0057746586
0.0053014046
0.0048611261
0.0044521745
0.0040729099
0.0037217131
0.0033969936
0.0030971953
0.0028208032
0.0025663498
0.0023324184
0.0021176469
0.00192073
0.0017404208
0.0015755319
0.0014249348
0.0012875503
0.037743931
0.036278577
0.03480277
0.033322736
0.03184456
0.030374132
0.02891708
0.027478707
0.026063942
0.024677301
0.023322854
0.022004207
0.0207245
0.019486445
0.01829138
0.017141206
0.016038934
0.014984696
0.013978391
0.013020363
0.012110305
0.011247773
0.010432061
0.00966223
0.0089371444
0.0082555212
0.0076159625
0.0070169682
0.006456958
0.0059342948
0.0054473041
0.0049942919
0.0045735594
0.0041834162
0.0038221911
0.0034882417
0.0031799617
0.002895788
0.0026342062
0.002393755
0.002173029
0.0019706821
0.0017854283
0.0016160432
0.0014613633
0.0013202751
0.038634684
0.03714367
0.035640685
0.034132112
0.032624234
0.031123155
0.029634723
0.028164461
0.026717517
0.025298613
0.023912018
0.022561512
0.021250364
0.019981271
0.018755711
0.017578003
0.016447937
0.01536653
0.014334294
0.01335142
0.012417723
0.01153275
0.010695783
0.0099058749
0.0091618843
0.0084625093
0.0078063181
0.0071917727
0.0066172534
0.006081081
0.0055815374
0.0051168834
0.0046853741
0.0042852722
0.0039148602
0.0035724495
0.003256389
0.0029650722
0.0026969426
0.0024504981
0.0022242948
0.0020169492
0.0018271402
0.0016536099
0.0014951631
0.0013506552
0.040942779
0.039449395
0.037935794
0.036408678
0.034874628
0.033340123
0.031811467
0.030294714
0.028795596
0.027319462
0.025871234
0.024455367
0.023075835
0.021736102
0.020437982
0.019186478
0.017982076
0.016826227
0.015719951
0.014663848
0.013658133
0.012702668
0.011797012
0.010940448
0.010132027
0.0093705949
0.0086548301
0.0079832733
0.0073543542
0.0067664177
0.0062177466
0.0057065829
0.0052311459
0.0047896486
0.0043803112
0.0040013737
0.003651106
0.0033278162
0.0030298578
0.0027556361
0.002503612
0.0022723059
0.0020603004
0.0018662419
0.001688842
0.0015268766
0.0013791725
0.041714721
0.040202709
0.038668891
0.037120087
0.035563038
0.0340044
0.032450664
0.030908076
0.029382563
0.027879668
0.026404497
0.024961679
0.023555355
0.022189301
0.020865864
0.019588758
0.018359582
0.017179776
0.016050405
0.014972117
0.013945166
0.012969446
0.012044532
0.011169715
0.010344041
0.0095663456
0.0088352898
0.0081493898
0.0075070467
0.0069065731
0.0063462171
0.0058241841
0.0053386555
0.0048878052
0.0044698146
0.0040828848
0.0037252471
0.0033951721
0.0030909769
0.0028110309
0.002553761
0.0023176547
0.0021012631
0.0019032028
0.0017221567
0.001556874
0.001406155
0.042433883
0.040905121
0.039353048
0.037784564
0.036206555
0.03462584
0.033049083
0.031482712
0.029932841
0.028405196
0.026905062
0.02543722
0.024005865
0.022614423
0.021267783
0.019967151
0.018714899
0.017512699
0.016361708
0.015262636
0.014215779
0.013221061
0.012278074
0.011386118
0.010544237
0.0097512563
0.0090058217
0.0083064276
0.0076514491
0.0070391695
0.0064678049
0.0059355268
0.0054404814
0.0049808068
0.004554648
0.0041601702
0.003795569
0.0034590801
0.0031489862
0.002863624
0.0026013882
0.0023607357
0.0021401881
0.0019383341
0.00175383
0.0015853999
0.0014318194
0.043108085
0.04156413
0.039995434
0.038408952
0.036811694
0.03521063
0.033612588
0.032024168
0.030451657
0.028900963
0.027377553
0.025886403
0.024431933
0.023017859
0.021648079
0.020325091
0.019051101
0.017827821
0.016656472
0.015537815
0.01447219
0.013459551
0.012499508
0.011591368
0.010734176
0.0099267496
0.0091677198
0.0084555616
0.0077886263
0.0071651701
0.0065833796
0.0060413948
0.005537329
0.0050692869
0.0046353799
0.0042337392
0.0038625272
0.0035199467
0.0032042486
0.0029137384
0.0026467809
0.0024018039
0.0021773018
0.0019718366
0.0017840399
0.0016126119
0.001456305
0.045266988
0.043742632
0.042184966
0.040601074
0.038998039
0.037383004
0.035763079
0.034145249
0.032536276
0.030942614
0.02937034
0.027825093
0.02631205
0.024835956
0.023400081
0.02200878
0.020664743
0.019370238
0.018127045
0.01693645
0.015799269
0.014715883
0.013686275
0.012710074
0.011786598
0.01091489
0.010093763
0.0093218347
0.0085975619
0.0079192744
0.0072852031
0.006693507
0.0061422967
0.0056296549
0.005153655
0.0047123766
0.0043039192
0.0039264138
0.0035780324
0.0032569958
0.0029615801
0.0026901219
0.0024410218
0.002212748
0.0020038378
0.0018128989
0.0016386094
0.0014796996
0.045877118
0.04434163
0.042771392
0.041173515
0.039555183
0.037923656
0.036286179
0.034649883
0.033021682
0.031408192
0.029815645
0.028249822
0.026716022
0.025219124
0.023762949
0.022351488
0.020987601
0.019673695
0.018411647
0.017202816
0.016048074
0.014947841
0.013902131
0.012910593
0.011972553
0.011087056
0.010252911
0.0094687217
0.0087329302
0.0080438455
0.0073996753
0.0067985527
0.0062385606
0.005717753
0.0052341739
0.0047858728
0.0043709194
0.0039874152
0.0036335029
0.0033073749
0.0030072797
0.002731527
0.0024784918
0.0022466175
0.0020344177
0.0018404779
0.0016634549
0.0015020583
0.046453554
0.044907862
0.043326067
0.041715277
0.040082761
0.038435889
0.036782034
0.03512846
0.033482233
0.031850118
0.0302385
0.028653299
0.027099889
0.02558291
0.024107916
0.022677402
0.02129471
0.019962416
0.01868249
0.01745636
0.01628495
0.015168723
0.01410772
0.01310161
0.012149729
0.011251124
0.010404598
0.0096087472
0.0088619966
0.0081626367
0.0075088535
0.0068987557
0.0063304005
0.0058018146
0.0053110141
0.0048560205
0.0044348752
0.0040456517
0.0036864651
0.0033554809
0.0030509213
0.0027710707
0.0025142798
0.0022789683
0.0020636277
0.0018668221
0.0016871884
0.0015234163
0.046998433
0.045443393
0.043850945
0.0422282
0.040582505
0.03892133
0.037252164
0.035582403
0.033919251
0.032269621
0.030640049
0.029036612
0.027464856
0.025929764
0.024436068
0.022987339
0.021586796
0.020237062
0.018940177
0.017697632
0.016510401
0.015378985
0.014303457
0.013283502
0.012318466
0.011407401
0.010549104
0.0097421621
0.0089849867
0.0082758508
0.0076129195
0.0069942791
0.006417962
0.0058819697
0.0053842918
0.0049229232
0.0044958786
0.004101205
0.0037369915
0.0034013779
0.0030925618
0.0028088035
0.0025484303
0.00230984
0.0020915027
0.0018919624
0.0017098371
0.0015437975
0.049030991
0.047513272
0.045949769
0.044347511
0.042713691
0.041055736
0.039381214
0.037697724
0.036012785
0.034333734
0.032667623
0.031021134
0.029400495
0.027811406
0.026258933
0.024747778
0.023281829
0.021864376
0.020498114
0.019185151
0.017927037
0.016724796
0.015578966
0.014489648
0.013456547
0.012479018
0.011556115
0.010686634
0.0098691515
0.0091020672
0.0083836373
0.0077120076
0.007085243
0.0065013529
0.0059583145
0.0054540927
0.0049866573
0.0045539977
0.0041541358
0.003785136
0.0034451141
0.0031322439
0.0028447631
0.002580977
0.0023392624
0.0021180691
0.0019159222
0.0017314216
0.0015632201
0.049523786
0.047999591
0.046428302
0.044816983
0.043172889
0.041503523
0.039816541
0.038119647
0.036420475
0.034726488
0.033044868
0.031382434
0.029745566
0.028140134
0.026571138
0.025043535
0.02356132
0.022127872
0.020745962
0.01941777
0.018144903
0.016928433
0.015768937
0.014666541
0.013620969
0.012631586
0.011697451
0.010817354
0.0099898662
0.0092133742
0.0084861189
0.0078062281
0.0071717465
0.0065806619
0.0060309287
0.0055204884
0.0050472868
0.0046092897
0.0042044951
0.0038309442
0.0034867299
0.0031700037
0.0028789818
0.0026119487
0.0023672611
0.0021433498
0.0019387218
0.00175196
0.0015817007
0.049988714
0.048458576
0.046880111
0.045260411
0.04360678
0.041926787
0.040228174
0.038518738
0.036806224
0.035098211
0.033402005
0.031724548
0.03007235
0.028451537
0.026866884
0.025323788
0.023826224
0.022377659
0.020980951
0.019638349
0.018351518
0.017121577
0.015949139
0.014834356
0.01377697
0.012776356
0.011831574
0.010941416
0.010104443
0.0093190315
0.0085834076
0.0078956822
0.0072538811
0.0066559715
0.0060998865
0.0055835453
0.0051048715
0.0046618082
0.0042523311
0.0038744593
0.0035262641
0.003205876
0.0029114908
0.0026413732
0.0023938611
0.0021673671
0.0019603809
0.0017714701
0.0015992566
0.050426884
0.048891286
0.0473062
0.045678744
0.044016258
0.042326372
0.040616902
0.038895737
0.037170724
0.035449552
0.033739643
0.032048046
0.030381333
0.028745424
0.027146602
0.025588973
0.024076933
0.022614096
0.021203409
0.01984719
0.01854716
0.017304483
0.016119806
0.014993307
0.013924744
0.012913504
0.011958649
0.011058968
0.010213017
0.0094191618
0.0086756147
0.0079804708
0.007331738
0.0067273642
0.0061652624
0.0056433309
0.0051594723
0.0047116082
0.0042976933
0.0039157258
0.0035637568
0.0032398968
0.0029423224
0.0026692797
0.0024190886
0.0021901446
0.0019809208
0.0017899702
0.0016159066
0.050839344
0.049298712
0.047707514
0.046072878
0.044402173
0.04270308
0.040983483
0.039251357
0.037514643
0.035781138
0.034058373
0.032353515
0.030673267
0.029023811
0.027410983
0.025839547
0.024313839
0.022837538
0.021413663
0.020044594
0.018732108
0.017477408
0.016281175
0.015143612
0.014064492
0.013043213
0.012078841
0.011170163
0.010315728
0.0095138923
0.0087628561
0.0080606993
0.007405413
0.006794927
0.0062271353
0.0056999167
0.0052111536
0.0047587479
0.0043406343
0.0039547914
0.0035992509
0.0032721049
0.0029715116
0.0026956998
0.0024429723
0.0022117082
0.0020003648
0.0018074797
0.0016316598
0.0014715611
0.051227072
0.049681797
0.048084961
0.046443684
0.044765355
0.043057698
0.041328663
0.039586301
0.037838645
0.03609359
0.034358777
0.032641484
0.030948532
0.029286221
0.027660341
0.026075908
0.024537328
0.023048346
0.021612048
0.020230875
0.018906649
0.017640617
0.01643349
0.015285495
0.014196422
0.013165676
0.012192328
0.011275162
0.010412723
0.0096033579
0.0088452549
0.0081364799
0.0074750082
0.0068587528
0.0062855897
0.0057533792
0.0052599851
0.0048032904
0.0043812111
0.0039917074
0.0036327929
0.0033025422
0.0029990963
0.0027206676
0.002465543
0.0022320865
0.0020187406
0.0018240289
0.0016465516
0.0014849543
0.051590996
0.050041459
0.048439435
0.046792023
0.045106628
0.043391015
0.04165319
0.039901278
0.038143399
0.036387541
0.034641445
0.032912499
0.03120763
0.029533212
0.027895109
0.026298476
0.024747798
0.023246895
0.021798915
0.020406355
0.019071085
0.017794389
0.016577011
0.015419197
0.014320753
0.013281094
0.012299294
0.011374136
0.010504159
0.0096877018
0.0089229421
0.0082079322
0.0075406328
0.006918941
0.0063407159
0.0058038006
0.0053060413
0.0048453033
0.004419485
0.0040265295
0.0036644332
0.0033312543
0.0030251176
0.0027442202
0.0024868342
0.0022513095
0.0020360749
0.0018396408
0.0016605987
0.0014975874
0.051932015
0.0503786
0.048771823
0.047118756
0.045426821
0.043703821
0.041957819
0.040197008
0.038429587
0.036663634
0.034906985
0.03316713
0.031451105
0.029765315
0.028115764
0.026507693
0.024945667
0.023433575
0.021974628
0.020571374
0.019225731
0.017939018
0.016712007
0.015544967
0.014437717
0.013389681
0.012399936
0.011467264
0.010590201
0.0097670758
0.0089960564
0.0082751832
0.0076024027
0.0069755972
0.0063926102
0.0058512684
0.0053494017
0.0048848588
0.0044555217
0.004059317
0.0036942255
0.0033582896
0.0030496193
0.0027663972
0.0025068815
0.0022694088
0.0020523955
0.0018543398
0.0016738222
0.0015094741
0.052251018
0.050694129
0.049083016
0.047424748
0.045726766
0.043996916
0.042243313
0.040474217
0.038697902
0.036922526
0.035156016
0.033405958
0.031679534
0.029983059
0.028322797
0.026704021
0.025131367
0.023608791
0.022139564
0.020726285
0.019370914
0.018074807
0.016838762
0.015663066
0.014547555
0.013491659
0.012494459
0.011554737
0.010671022
0.0098416388
0.0090647437
0.008338366
0.0076604395
0.0070288325
0.0064413737
0.0058958749
0.0053901502
0.0049220331
0.0044893901
0.0040901325
0.0037222264
0.0033836995
0.0030726479
0.0027872404
0.0025257224
0.0022864181
0.0020677322
0.0018681514
0.0016862456
0.0015206375
0.052548957
0.050988971
0.049373915
0.047710867
0.046007301
0.044271102
0.042510442
0.040733641
0.038949044
0.037164886
0.035389171
0.033629563
0.031893318
0.030186964
0.028516718
0.026887938
0.025305344
0.023772959
0.022294111
0.02087145
0.019506973
0.018202071
0.016957565
0.015773765
0.014650517
0.013587259
0.012583076
0.011636749
0.010746804
0.0099115561
0.0091291552
0.0083976193
0.00771487
0.0070787626
0.006487112
0.005937716
0.0054283742
0.0049569056
0.0045211623
0.0041190415
0.0037484952
0.0034075376
0.0030942517
0.0028067936
0.0025433964
0.0023023729
0.0020821166
0.0018811039
0.0016978945
0.0015311021
0.052826753
0.051264063
0.049645424
0.047977986
0.046269263
0.044527187
0.042759979
0.04097602
0.039183721
0.037391388
0.035607102
0.033838581
0.032093024
0.030377604
0.028698048
0.027059928
0.025468051
0.023926504
0.022438668
0.021007239
0.019634253
0.018321131
0.017068717
0.015877341
0.014746859
0.013676718
0.012666006
0.011713502
0.010817729
0.0099769976
0.0091894469
0.0084530858
0.0077658246
0.0071255066
0.0065299339
0.0059768908
0.0054641639
0.0049895583
0.0045509129
0.0041461115
0.0037730931
0.0034298594
0.0031144809
0.002825102
0.0025599444
0.00231731
0.002095582
0.0018932269
0.0017087955
0.0015408925
0.053085512
0.051520364
0.049898452
0.048226973
0.046513488
0.044765973
0.042992696
0.041202094
0.03940264
0.037602711
0.035810457
0.034033683
0.032279736
0.030555586
0.028867314
0.027220481
0.025619948
0.024069856
0.022573638
0.02113403
0.019753106
0.018432313
0.017172521
0.015974074
0.014836841
0.013760277
0.01274347
0.011785201
0.010883988
0.010038137
0.0092457777
0.0085049111
0.0078134367
0.0071691863
0.0065699503
0.0060135007
0.0054976113
0.005020075
0.0045787179
0.0041714115
0.0037960828
0.0034507216
0.0031333868
0.002842212
0.0025754081
0.002331267
0.0021081622
0.0019045511
0.0017189762
0.0015500339
0.053326252
0.051758816
0.050133892
0.04845869
0.046740806
0.044988257
0.043209359
0.041412599
0.039606508
0.037799525
0.035999874
0.034215433
0.032453628
0.030721414
0.029025031
0.027370087
0.025761495
0.024203449
0.022699425
0.021252202
0.019863884
0.018535947
0.017269283
0.01606425
0.014920728
0.013838179
0.012815694
0.011852053
0.010945772
0.010095148
0.0092983084
0.0085532425
0.007857841
0.007209925
0.0066072738
0.0060476481
0.00552881
0.0050485406
0.0046046545
0.0041950117
0.0038175278
0.0034701816
0.0031510216
0.0028581706
0.0025898301
0.0023442823
0.0021198918
0.0019151076
0.0017284647
0.0015585516
0.053549899
0.051980323
0.050352622
0.04867398
0.046952031
0.045194828
0.043410728
0.041608264
0.039796021
0.0379825
0.036175987
0.034384431
0.032615309
0.030875626
0.029171711
0.027509232
0.025893152
0.024327714
0.022816436
0.021362133
0.019966942
0.018632365
0.01735931
0.016148153
0.014998784
0.013910669
0.012882904
0.011914266
0.01100327
0.010148209
0.0093472006
0.0085982283
0.0078991731
0.0072478466
0.0066420176
0.0060794362
0.0055578538
0.0050750406
0.0046288004
0.0042169826
0.0038374921
0.0034882976
0.0031674376
0.0028730254
0.0026032533
0.0023563946
0.0021308057
0.0019249278
0.0017372889
0.0015664708
0.053757349
0.052185772
0.050555495
0.04887367
0.047147963
0.045386458
0.043597547
0.041789807
0.039971872
0.038152295
0.036339426
0.034541283
0.032765363
0.031018763
0.029307869
0.027638403
0.026015378
0.024443081
0.022925073
0.021464202
0.020062633
0.018721892
0.017442908
0.016226067
0.01507127
0.01397799
0.012945323
0.011972048
0.011056675
0.010197494
0.0093926156
0.0086400162
0.0079375684
0.0072830748
0.0066742946
0.0061089681
0.0055848367
0.0050996606
0.0046512334
0.0042373947
0.0038560396
0.0035051274
0.0031826874
0.0028868239
0.0026157206
0.0023676427
0.0021409388
0.0019340431
0.0017454773
0.0015738168
0.053949488
0.05237603
0.05074334
0.049058563
0.047329381
0.045563902
0.043770548
0.041957933
0.040134736
0.03830956
0.036490808
0.03468659
0.032904358
0.031151362
0.029434012
0.027758079
0.026128623
0.024549977
0.023025735
0.021558781
0.020151306
0.018804856
0.017520379
0.016298273
0.015138449
0.014040383
0.013003176
0.012025604
0.011106176
0.010243177
0.0094347134
0.008678753
0.0079731614
0.0073157326
0.0067042172
0.0061363464
0.0056098522
0.0051224855
0.0046720308
0.0042563183
0.0038732342
0.003520729
0.0031968234
0.0028996134
0.0026272748
0.0023780652
0.0021503261
0.001942485
0.0017530579
0.0015806147
0.05839816
0.057036378
0.055626538
0.054127108
0.052551894
0.050916949
0.049229436
0.047497043
0.045727896
0.043930442
0.04211333
0.040285277
0.038454931
0.036630736
0.034820799
0.033032844
0.031273953
0.029550639
0.02786873
0.026233333
0.024648818
0.023118816
0.021646238
0.020233303
0.018881577
0.017592022
0.016365049
0.015200577
0.014098087
0.013056682
0.012075138
0.011151961
0.010285432
0.0094736522
0.0087145838
0.0080060848
0.0073459416
0.0067318965
0.0061616723
0.0056329925
0.0051435995
0.004691269
0.0042738228
0.0038891389
0.0035351595
0.0032098973
0.0029114409
0.0026379585
0.0023877006
0.0021590021
0.0019502843
0.0017600585
0.0015868895
0.059844628
0.058563722
0.05720143
0.055790549
0.054291043
0.052714133
0.051077084
0.049387038
0.047651683
0.045879155
0.044077924
0.042256668
0.040424141
0.038589034
0.036759829
0.034944646
0.033151386
0.031387053
0.02965824
0.02797082
0.026329942
0.024740014
0.023204698
0.021726934
0.020308962
0.018952368
0.017658129
0.016426667
0.015257907
0.014151335
0.013106057
0.012120848
0.011194212
0.010324426
0.0095095874
0.0087476513
0.0080364695
0.0073738214
0.0067574418
0.0061850456
0.0056543487
0.0051630853
0.0047090233
0.0042899767
0.0039038158
0.0035484752
0.0032219604
0.0029223527
0.0026478134
0.0023965866
0.0021670009
0.001957472
0.0017665067
0.0015926655
0.059996958
0.05871597
0.057353233
0.055941411
0.05444198
0.052863482
0.051224481
0.049532095
0.04779401
0.04601837
0.044213664
0.042388597
0.040551956
0.03871247
0.036878667
0.035058738
0.033260516
0.031491166
0.029757289
0.028064797
0.026418876
0.024823965
0.023283758
0.02180122
0.020378612
0.019017538
0.017718987
0.016483391
0.015310685
0.014200356
0.013151513
0.01216293
0.01123311
0.010360326
0.0095426712
0.0087780951
0.0080644435
0.0073994892
0.0067809602
0.0062065643
0.00567401
0.0051810243
0.0047253678
0.0043048473
0.003917326
0.0035607316
0.0032330627
0.0029323941
0.0026568808
0.0024047605
0.0021743562
0.0019640782
0.0017724294
0.0015979667
0.060136692
0.058855671
0.057492532
0.056079862
0.054580615
0.053000649
0.051359845
0.049665304
0.047924708
0.046146209
0.044338312
0.042509746
0.040669329
0.038825824
0.036987803
0.035163489
0.033360734
0.031586777
0.02984825
0.028151101
0.026500547
0.02490106
0.023356362
0.021869439
0.020442574
0.019077385
0.017774874
0.016535483
0.015359152
0.014245373
0.013193256
0.012201575
0.011268831
0.010393294
0.0095730524
0.0088060517
0.0080901319
0.0074230596
0.0068025565
0.0062263239
0.0056920635
0.0051974958
0.0047403746
0.0043185002
0.0039297291
0.0035719827
0.0032432534
0.0029416099
0.002665201
0.0024122589
0.002181101
0.0019701328
0.0017778532
0.0016028166
0.060264585
0.058983556
0.057620053
0.056206616
0.054707634
0.05312632
0.051483858
0.049787337
0.048044437
0.046263316
0.044452495
0.042620723
0.040776846
0.038929658
0.037087778
0.035259433
0.033452534
0.031674358
0.029931571
0.028230153
0.026575356
0.024971677
0.023422864
0.021931924
0.020501158
0.019132199
0.017826061
0.016583193
0.015403542
0.014286603
0.013231486
0.012236968
0.011301545
0.010423486
0.0096008756
0.0088316541
0.0081136565
0.007444644
0.0068223326
0.0062444175
0.0057085943
0.0052125774
0.0047541144
0.0043309996
0.0039410835
0.0035822816
0.0032525805
0.0029500433
0.0026728134
0.0024191175
0.0021872677
0.0019756647
0.0017828041
0.001607238
0.060381354
0.059100326
0.057736497
0.056322362
0.054823705
0.053241158
0.051597176
0.04989884
0.04815383
0.046370311
0.044556815
0.042722112
0.040875071
0.039024515
0.037179088
0.035347075
0.033536394
0.031754363
0.030007683
0.028302365
0.026643689
0.02503618
0.023483606
0.021988996
0.020554666
0.019182262
0.01787281
0.016626766
0.015444081
0.014324255
0.013266398
0.012269287
0.011331418
0.010451056
0.0096262811
0.0088550309
0.0081351355
0.0074643508
0.0068403876
0.0062609356
0.005723685
0.0052263442
0.0047666556
0.0043424076
0.0039514455
0.0035916793
0.0032610905
0.0029577367
0.0026797564
0.002425371
0.0021928878
0.0019807026
0.0017873075
0.001611253
0.060487685
0.05920666
0.057842534
0.056427761
0.054929471
0.053345798
0.051700426
0.050000433
0.048253496
0.046467787
0.044651851
0.042814475
0.04096455
0.03911092
0.037262224
0.035426901
0.033612776
0.031827232
0.030077004
0.028368131
0.026705921
0.02509492
0.02353892
0.022040965
0.020603387
0.019227846
0.017915374
0.016666436
0.015480988