/*--------------------------------*- C++ -*----------------------------------*\
| =========                 |                                                 |
| \\      /  F ield         | OpenFOAM: The Open Source CFD Toolbox           |
|  \\    /   O peration     | Version:  2312                                  |
|   \\  /    A nd           | Website:  www.openfoam.com                      |
|    \\/     M anipulation  |                                                 |
\*---------------------------------------------------------------------------*/
FoamFile
{
    version     2.0;
    format      ascii;
    arch        "LSB;label=32;scalar=64";
    class       volScalarField;
    location    "0.03";
    object      Ma;
}
// * * * * * * * * * * * * * * * * * * * * * * * * * * * * * * * * * * * * * //

dimensions      [0 0 0 0 0 0 0];

internalField   nonuniform List<scalar> 
3250
(
0.0028135588
0.002857644
0.0029004173
0.0029418378
0.0029818597
0.0030204323
0.0030574978
0.0030929941
0.0031268555
0.0031590148
0.0031894037
0.0032179547
0.0032446018
0.0032692818
0.0032919352
0.0033125068
0.0033309462
0.0033472076
0.0033612493
0.0033730332
0.0033825242
0.0033896891
0.0033944964
0.0033969161
0.0033969196
0.0033944806
0.0033895756
0.0033821853
0.0033722954
0.0033598978
0.0033449912
0.0033275811
0.0033076801
0.0032853068
0.0032604853
0.0032332428
0.0032036095
0.0031716155
0.0031372907
0.003100662
0.003061752
0.0030205767
0.0029771438
0.0029314531
0.0028896462
0.0029354769
0.0029798879
0.0030228312
0.003064252
0.0031040919
0.0031422896
0.0031787802
0.0032134962
0.0032463683
0.003277327
0.003306303
0.0033332292
0.0033580409
0.0033806776
0.0034010832
0.0034192067
0.0034350018
0.0034484267
0.0034594434
0.003468017
0.0034741152
0.0034777073
0.0034787646
0.0034772599
0.0034731688
0.00346647
0.0034571466
0.0034451872
0.0034305868
0.0034133475
0.0033934791
0.0033709984
0.0033459289
0.0033183
0.0032881451
0.0032555004
0.0032204033
0.0031828911
0.0031429986
0.0031007575
0.003056192
0.0030093204
0.0029601525
0.0027041383
0.0027501182
0.0027947681
0.002838022
0.0028798046
0.0029200406
0.0029586555
0.0029955737
0.0030307191
0.003064015
0.0030953851
0.0031247547
0.0031520515
0.0031772068
0.0032001565
0.0032208417
0.0032392092
0.0032552111
0.003268805
0.003279953
0.003288621
0.0032947779
0.0032983956
0.0032994481
0.003297912
0.0032937668
0.0032869958
0.0032775872
0.0032655347
0.0032508388
0.0032335074
0.003213556
0.0031910073
0.0031658916
0.003138244
0.0031081053
0.0030755187
0.0030405296
0.003003183
0.002963523
0.00292159
0.0028774195
0.0028310409
0.0027824791
0.0024293579
0.0024733889
0.0025163419
0.0025581203
0.0025986189
0.0026377353
0.0026753731
0.0027114382
0.0027458389
0.0027784844
0.002809286
0.002838158
0.002865019
0.002889792
0.002912406
0.0029327963
0.0029509048
0.0029666803
0.0029800775
0.0029910571
0.0029995845
0.0030056296
0.0030091659
0.0030101702
0.0030086229
0.0030045081
0.0029978144
0.0029885357
0.002976672
0.0029622303
0.0029452254
0.0029256798
0.0029036236
0.0028790943
0.0028521353
0.0028227953
0.0027911266
0.0027571839
0.0027210225
0.0026826973
0.0026422608
0.0025997626
0.0025552491
0.0025087657
0.0021067506
0.0021456674
0.0021839906
0.0022215818
0.002258287
0.0022939639
0.0023284813
0.0023617154
0.0023935478
0.0024238644
0.0024525559
0.0024795177
0.0025046515
0.0025278658
0.0025490769
0.0025682089
0.0025851947
0.0025999749
0.0026124983
0.0026227208
0.0026306049
0.0026361187
0.0026392357
0.0026399341
0.0026381965
0.0026340109
0.0026273705
0.0026182746
0.0026067294
0.0025927485
0.0025763537
0.0025575749
0.00253645
0.0025130246
0.0024873511
0.0024594873
0.0024294958
0.0023974421
0.0023633935
0.002327418
0.0022895825
0.0022499543
0.0022086008
0.0021655927
0.001784128
0.0018133646
0.0018428098
0.0018722605
0.0019015034
0.0019303384
0.0019585837
0.0019860706
0.0020126403
0.0020381419
0.0020624324
0.002085377
0.0021068499
0.0021267348
0.0021449259
0.0021613278
0.0021758561
0.0021884366
0.0021990056
0.0022075085
0.0022138995
0.0022181406
0.002220201
0.0022200566
0.0022176896
0.0022130887
0.0022062494
0.0021971748
0.0021858755
0.0021723705
0.0021566879
0.0021388641
0.0021189447
0.0020969836
0.0020730421
0.0020471884
0.0020194964
0.0019900441
0.0019589129
0.0019261865
0.00189195
0.0018562919
0.0018193065
0.0017810947
0.0015159401
0.0015297208
0.001544764
0.0015608343
0.0015776641
0.0015950021
0.0016126143
0.0016302817
0.0016477962
0.0016649596
0.0016815834
0.0016974898
0.0017125128
0.0017264988
0.0017393072
0.0017508113
0.0017608978
0.0017694674
0.0017764334
0.0017817219
0.0017852702
0.0017870267
0.0017869491
0.0017850047
0.0017811693
0.0017754277
0.0017677735
0.0017582093
0.0017467476
0.0017334102
0.0017182293
0.001701247
0.0016825155
0.0016620971
0.0016400633
0.0016164942
0.0015914774
0.0015651073
0.0015374835
0.0015087112
0.0014789004
0.0014481696
0.0014166489
0.0013844804
0.0013521374
0.001345518
0.0013410178
0.0013384485
0.00133758
0.001338181
0.0013400269
0.0013428952
0.0013465636
0.0013508118
0.0013554227
0.0013601848
0.0013648957
0.0013693633
0.0013734088
0.001376867
0.001379588
0.0013814372
0.0013822957
0.0013820595
0.0013806393
0.0013779596
0.0013739579
0.0013685837
0.0013617986
0.0013535759
0.001343901
0.0013327714
0.0013201964
0.0013061981
0.0012908108
0.0012740811
0.0012560685
0.0012368455
0.0012164976
0.0011951227
0.0011728298
0.0011497393
0.0011259814
0.0011016971
0.0010770384
0.0010521736
0.0010272916
0.0010025989
0.0013138816
0.0012869915
0.0012622592
0.0012396044
0.0012189149
0.0012000769
0.0011829723
0.0011674705
0.0011534272
0.0011406866
0.0011290792
0.0011184281
0.0011085527
0.0010992716
0.0010904063
0.0010817845
0.0010732424
0.0010646273
0.0010557983
0.0010466282
0.0010370034
0.0010268251
0.0010160081
0.0010044811
0.00099218694
0.000979084
0.00096514607
0.00095036262
0.00093473937
0.00091829862
0.00090107984
0.00088313953
0.00086455183
0.00084541177
0.00082583544
0.00080595981
0.00078594291
0.00076596337
0.0007462205
0.00072693527
0.00070835114
0.00069073894
0.00067440046
0.00065965468
0.0014627519
0.001418281
0.0013752961
0.0013338927
0.0012940987
0.001255898
0.001219258
0.0011841496
0.0011505399
0.0011183834
0.0010876295
0.0010582135
0.0010300522
0.0010030539
0.00097711763
0.00095213427
0.00092798965
0.00090456663
0.00088174762
0.00085941684
0.00083746219
0.00081577686
0.00079426213
0.00077282857
0.00075139618
0.00072989421
0.00070826658
0.00068647393
0.00066449448
0.00064232577
0.00061998679
0.00059752152
0.00057500174
0.00055252778
0.00053023176
0.00050829275
0.00048693943
0.000466452
0.00044716688
0.00042947642
0.00041382497
0.00040069999
0.00039060851
0.00038404868
0.00038147226
0.00038320968
0.0015885709
0.0015368667
0.0014862364
0.0014367243
0.0013883553
0.0013411219
0.0012950136
0.0012500191
0.0012061254
0.0011633167
0.0011215633
0.0010808279
0.0010410703
0.0010022394
0.00096427657
0.00092711735
0.00089069299
0.00085493064
0.00081975533
0.00078509144
0.00075086159
0.00071698814
0.0006833977
0.00065002255
0.00061679377
0.00058364165
0.00055051074
0.0005173597
0.00048415964
0.00045089587
0.00041757414
0.00038422786
0.00035092383
0.00031778505
0.00028499196
0.00025288973
0.00022203818
0.00019334852
0.00016829847
0.00014915952
0.00013886401
0.00013983258
0.00015226354
0.00017407947
0.00020257143
0.00023554732
0.0017153804
0.0016601598
0.0016057864
0.0015523096
0.0014997353
0.0014480632
0.0013972876
0.0013474023
0.0012983983
0.001250263
0.0012029775
0.0011565152
0.0011108462
0.0010659342
0.0010217376
0.00097821197
0.00093531054
0.00089298125
0.00085117064
0.00080982927
0.00076890197
0.00072833013
0.00068806199
0.00064805474
0.00060824216
0.00056855491
0.00052895287
0.00048940818
0.00044989579
0.00041039914
0.00037091714
0.00033146943
0.00029211734
0.00025286071
0.00021386455
0.00017557959
0.00013883782
0.00010558156
8.071257e-05
7.3837633e-05
8.9634819e-05
0.00011973183
0.00015629162
0.00019591401
0.0002372302
0.00027955638
0.0018249714
0.0017680291
0.0017118645
0.0016564985
0.0016019451
0.001548204
0.0014952752
0.0014431565
0.0013918433
0.0013413278
0.0012915984
0.0012426385
0.0011944285
0.0011469445
0.0011001604
0.0010540513
0.0010085963
0.00096376203
0.00091951417
0.00087583384
0.00083269415
0.00079007036
0.00074796942
0.00070641127
0.00066533212
0.000624719
0.00058463661
0.00054516405
0.000506392
0.00046845128
0.00043152881
0.00039591258
0.0003620904
0.00033052132
0.0003017491
0.00027687444
0.00025711861
0.00024379289
0.0002380622
0.00024055653
0.00025111424
0.00026885847
0.00029254986
0.00032093919
0.00035295072
0.00038774555
0.0019113135
0.0018534342
0.0017963032
0.0017399533
0.0016843901
0.0016296186
0.0015756411
0.0015224587
0.0014700706
0.0014184731
0.0013676597
0.0013176215
0.0012683465
0.0012198194
0.0011720248
0.0011249601
0.001078629
0.001032989
0.00098803315
0.00094375949
0.00090016771
0.00085725218
0.00081505947
0.00077369675
0.00073314464
0.00069333988
0.000654449
0.00061661784
0.00057999765
0.00054478313
0.00051123263
0.00047965691
0.00045040572
0.00042419868
0.00040151781
0.00038286572
0.00036889683
0.0003602092
0.0003572263
0.00036012656
0.00036880122
0.0003828856
0.00040183497
0.00042502526
0.00045182699
0.00048164548
0.0019749852
0.0019164412
0.0018586609
0.0018016637
0.0017454588
0.0016900531
0.0016354492
0.0015816512
0.0015286586
0.001476471
0.001425084
0.0013744931
0.0013246884
0.001275655
0.0012273808
0.0011798906
0.00113326
0.0010873718
0.0010422395
0.00099788201
0.00095428798
0.00091150833
0.00086956768
0.00082846727
0.00078840704
0.00074948103
0.00071171265
0.00067522178
0.00064019119
0.00060683889
0.00057542617
0.00054626413
0.00051969477
0.00049607953
0.00047596618
0.00045976329
0.00044788295
0.00044067969
0.00043839931
0.00044112683
0.00044878383
0.00046112888
0.00047780493
0.0004983793
0.00052239087
0.00054936922
0.0020194283
0.0019603006
0.0019019586
0.0018444157
0.0017876853
0.0017317682
0.0016766741
0.0016224013
0.001568955
0.0015163304
0.0014645288
0.0014135429
0.0013633672
0.0013139819
0.0012653764
0.0012175694
0.0011707257
0.001124776
0.0010794768
0.0010350272
0.0009914723
0.00094882582
0.00090710975
0.0008663461
0.00082663328
0.00078814553
0.00075096262
0.00071520695
0.00068104941
0.00064870389
0.00061841551
0.00059047038
0.00056518668
0.00054290564
0.00052404447
0.00050897011
0.00049800872
0.00049143687
0.00048942716
0.00049204133
0.00049920179
0.00051071789
0.00052629507
0.00054558032
0.00056818398
0.0005937017
0.0020488507
0.0019891535
0.0019302618
0.0018721967
0.0018149605
0.0017585636
0.0017030059
0.0016482939
0.001594424
0.0015413987
0.0014892116
0.0014378614
0.001387343
0.0013376711
0.00128888
0.0012409382
0.0011936503
0.0011473018
0.0011019296
0.0010574046
0.0010137711
0.00097107776
0.00092936304
0.00088867545
0.00084909657
0.00081076847
0.00077380678
0.00073834621
0.00070455865
0.0006726504
0.00064286401
0.00061547403
0.0005907888
0.00056914287
0.00055089251
0.00053637118
0.00052587984
0.00051965451
0.00051784749
0.000520499
0.00052753835
0.00053878432
0.00055397081
0.00057277289
0.00059483157
0.00061977262
0.0020671799
0.0020069063
0.0019474707
0.0018888817
0.0018311467
0.0017742706
0.0017182568
0.0016631066
0.0016088198
0.0015553942
0.0015028267
0.0014511103
0.0014002412
0.0013502591
0.0013011691
0.0012529384
0.0012055044
0.0011588642
0.0011131758
0.0010683935
0.0010245404
0.00098165127
0.00093977021
0.00089895572
0.00085929304
0.00082089837
0.0007838966
0.00074843096
0.00071467836
0.00068284559
0.00065317678
0.00062594592
0.00060146107
0.00058004955
0.00056205245
0.0005477925
0.0005375602
0.00053157897
0.0005299898
0.00053282395
0.00054000685
0.00055135563
0.0005666105
0.00058544874
0.00060752201
0.00063246049
0.0021393121
0.0020776293
0.0020167919
0.0019568181
0.0018977145
0.0018394881
0.0017821412
0.0017256773
0.0016700953
0.0016153945
0.0015615718
0.0015086264
0.001456556
0.0014053473
0.001355011
0.0013055563
0.0012569652
0.0012092233
0.0011623185
0.0011163171
0.0010712279
0.0010270757
0.00098389687
0.0009417367
0.00090065991
0.00086075025
0.00082211756
0.00078488653
0.00074920909
0.00071526365
0.00068326499
0.00065345857
0.00062612774
0.00060158201
0.00058015771
0.0005621943
0.00054802299
0.00053793181
0.00053214881
0.00053080654
0.00053393481
0.00054144555
0.00055315173
0.00056877852
0.00058799971
0.00061045524
0.00063577423
0.0021448903
0.0020826415
0.0020212643
0.0019607735
0.0019011769
0.0018424781
0.0017846795
0.0017277817
0.001671783
0.0016166798
0.0015624663
0.0015091371
0.0014566942
0.001405154
0.0013544855
0.0013046673
0.0012557091
0.001207613
0.0011603818
0.0011140397
0.0010686037
0.0010241016
0.00098056902
0.00093805501
0.0008966234
0.00085635944
0.00081736821
0.00077977861
0.0007437439
0.00070945016
0.00067711545
0.000646996
0.00061938163
0.00059459674
0.00057298703
0.00055490947
0.0005407054
0.00053067887
0.00052506171
0.00052399177
0.00052748974
0.0005354591
0.00054769284
0.00056390069
0.00058373533
0.00060682063
0.00063277287
0.0021467638
0.0020839816
0.0020220994
0.001961125
0.001901066
0.0018419251
0.0017837028
0.0017263984
0.0016700085
0.0016145283
0.0015599505
0.0015062643
0.0014534616
0.0014015595
0.0013505406
0.0013003787
0.0012510727
0.0012026265
0.0011550456
0.0011083435
0.0010625385
0.0010176563
0.00097373364
0.00093081814
0.00088897516
0.00084828723
0.00080886049
0.00077082314
0.00073433378
0.00069958114
0.00066679265
0.00063623163
0.00060820326
0.00058304517
0.00056112519
0.00054281864
0.00052849228
0.00051846653
0.00051299066
0.00051220422
0.00051612591
0.00052464065
0.00053752232
0.00055445152
0.00057505607
0.00059893606
0.00062568807
0.002146155
0.0020828851
0.0020205357
0.0019591173
0.0018986348
0.0018390882
0.0017804777
0.0017227995
0.0016660497
0.0016102215
0.0015553083
0.0015012982
0.0014481693
0.0013959256
0.0013445648
0.0012940655
0.0012444211
0.0011956313
0.0011476995
0.0011006355
0.0010544549
0.0010091825
0.00096485238
0.00092151256
0.00087922571
0.00083807485
0.00079816366
0.00075962312
0.00072261228
0.00068732682
0.00065399894
0.00062290535
0.00059436301
0.00056873214
0.0005464011
0.00052777657
0.00051325032
0.00050317357
0.00049781057
0.00049731361
0.0005016911
0.00051081428
0.0005244241
0.00054217273
0.0005636521
0.00058843529
0.00061609456
0.002208551
0.0021439
0.0020801825
0.0020174115
0.0019555928
0.001894728
0.001834817
0.0017758566
0.0017178422
0.001660766
0.0016046199
0.0015493961
0.0014950892
0.0014416749
0.0013891277
0.0013374527
0.0012866349
0.0012366689
0.0011875509
0.0011392809
0.0010918649
0.0010453161
0.00099965639
0.00095491829
0.0009111471
0.0008684046
0.00082677116
0.0007863506
0.00074727282
0.00070970021
0.00067383094
0.00063990605
0.00060821138
0.00057908199
0.00055289757
0.00053007678
0.00051105637
0.00049626631
0.00048608746
0.00048081218
0.00048059999
0.00048545705
0.00049522876
0.00050962623
0.00052825933
0.00055068483
0.00057643939
0.00060507407
0.0022056147
0.0021405393
0.0020764253
0.0020132782
0.0019511033
0.0018899005
0.0018296671
0.0017703986
0.0017120872
0.0016547229
0.0015982927
0.0015427823
0.0014881857
0.0014345163
0.0013817243
0.0013297703
0.0012786656
0.0012284063
0.0011789852
0.0011303988
0.0010826501
0.0010357495
0.00098971619
0.00094457988
0.0009003837
0.00085718664
0.00081506738
0.00077412768
0.00073449748
0.0006963396
0.00065985623
0.00062529415
0.0005929509
0.00056317718
0.00053637702
0.00051299876
0.00049351775
0.00047840363
0.0004680778
0.00046286096
0.00046292787
0.00046827637
0.00047872773
0.00049395223
0.00051351654
0.00053693204
0.00056370339
0.00059334805
0.0022018833
0.0021364334
0.0020719676
0.0020084909
0.0019460048
0.0018845075
0.0018239949
0.0017644599
0.0017058932
0.0016482828
0.0015916143
0.0015358697
0.001481032
0.0014271005
0.0013740592
0.0013218713
0.0012705238
0.0012200071
0.001170313
0.0011214373
0.0010733807
0.001026151
0.00097976442
0.0009342479
0.0008896415
0.00084600148
0.00080340365
0.00076194776
0.00072176226
0.00068301032
0.0006458962
0.00061067258
0.00057764688
0.00054718661
0.00051971968
0.00049572795
0.00047572767
0.00046023562
0.00044971808
0.0004445317
0.00044486707
0.00045071522
0.00046186697
0.00047794796
0.0004984734
0.00052290961
0.000550717
0.00058139258
0.0021975849
0.0021318082
0.0020670368
0.002003275
0.0019405214
0.0018787727
0.0018180226
0.0017582621
0.0016994799
0.0016416625
0.0015847941
0.0015288557
0.0014738224
0.0014196798
0.0013664193
0.0013140176
0.0012624517
0.001211705
0.0011617668
0.0011126303
0.0010642934
0.0010167609
0.00097004605
0.00092417243
0.00087917688
0.00083511229
0.00079205132
0.00075009082
0.00070935715
0.00067001257
0.00063226264
0.00059636432
0.00056263434
0.00053145589
0.00050328156
0.00047862777
0.00045805595
0.00044213471
0.0004313826
0.00042619725
0.00042678909
0.00043314057
0.00044500829
0.00046196637
0.00048347424
0.00050894381
0.00053780117
0.00056950648
0.0022599523
0.0021928669
0.0021268065
0.0020617751
0.0019977709
0.0019347924
0.0018728336
0.0018118863
0.0017519394
0.0016929797
0.0016349918
0.0015779586
0.001521859
0.0014666636
0.0014123541
0.0013589181
0.0013063342
0.0012545783
0.0012036313
0.0011534791
0.0011041117
0.0010555239
0.0010077174
0.0009607019
0.00091449777
0.00086913817
0.00082467231
0.00078116917
0.00073872212
0.00069745458
0.00065752692
0.00061914466
0.00058256784
0.00054812091
0.00051620182
0.00048728726
0.00046192952
0.00044073801
0.00042433889
0.0004133095
0.00040809528
0.00040892966
0.00041578579
0.00042838093
0.0004462312
0.00046873284
0.00049524597
0.00052514747
0.00055787632
0.002255164
0.0021878197
0.0021215208
0.0020562699
0.0019920653
0.0019289022
0.001866773
0.0018056671
0.0017455714
0.0016864704
0.0016283468
0.0015711817
0.0015149543
0.0014596332
0.0014051914
0.0013516165
0.0012988841
0.0012469702
0.0011958544
0.0011455192
0.0010959516
0.0010471432
0.00099909244
0.00095180571
0.00090529968
0.00085960375
0.00081476312
0.00077084267
0.00072793171
0.00068614995
0.00064565484
0.00060665061
0.00056939878
0.00053422992
0.00050155513
0.00047187433
0.000445776
0.00042392024
0.00040699591
0.00039564657
0.00039037248
0.00039143417
0.00039879441
0.0004121256
0.00043087868
0.00045438266
0.00048193507
0.00051287576
0.00054661189
0.0022500683
0.0021825017
0.0021160059
0.0020505771
0.0019862112
0.0019229021
0.0018606399
0.0017994121
0.0017392035
0.001679996
0.0016217697
0.0015645023
0.0015081726
0.0014527617
0.0013982302
0.0013445472
0.0012916978
0.0012396581
0.0011884047
0.0011379175
0.0010881803
0.0010391817
0.00099091693
0.00094338891
0.00089661063
0.00085060755
0.00080542064
0.00076111031
0.00071776129
0.00067548885
0.00063444654
0.00059483599
0.0005569186
0.00052102916
0.00048758999
0.00045712271
0.00043025179
0.00040769003
0.00039019411
0.00037848153
0.00037311539
0.00037438793
0.00038225042
0.00039632447
0.00041598838
0.0004404957
0.00046908571
0.00050104921
0.00053576956
0.0022446978
0.0021769562
0.0021103011
0.0020447313
0.0019802416
0.0019168227
0.0018544631
0.0017931481
0.0017328605
0.0016735804
0.0016152853
0.0015579506
0.0015015521
0.0014460718
0.001391472
0.0013377164
0.0012847839
0.0012326502
0.0011812901
0.001130681
0.0010808041
0.0010316452
0.00098319628
0.00093545689
0.00088843632
0.00084215593
0.0007966523
0.00075198109
0.000708222
0.00066548518
0.00062391939
0.00058372237
0.00054515372
0.00050855041
0.00047434371
0.00044307492
0.00041540354
0.00039209648
0.00037398314
0.00036186312
0.00035637129
0.00035783705
0.00036619905
0.00038102136
0.00040160126
0.00042711307
0.00045672816
0.00048969825
0.00052538054
0.0022390944
0.0021712074
0.002104431
0.0020387572
0.001974178
0.0019106834
0.0018482594
0.0017868896
0.001726555
0.0016672338
0.0016089016
0.0015515319
0.001495097
0.0014395737
0.0013849301
0.0013311287
0.0012781423
0.0012259436
0.0011745054
0.0011238031
0.0010738153
0.0010245249
0.00097592097
0.00092799961
0.00088076639
0.00083423858
0.00078844819
0.0007434459
0.00069930604
0.00065613306
0.00061407006
0.00057330967
0.00053410805
0.00049680216
0.0004618297
0.00042974911
0.00040125326
0.00037716389
0.0003583876
0.00034581472
0.00034016192
0.0003418021
0.00035066019
0.00036623534
0.00038773507
0.00041424613
0.00044487681
0.00047883088
0.00051544409
0.00055417129
0.002233272
0.0021652828
0.0020984178
0.0020326718
0.001968036
0.0019044971
0.0018420395
0.0017806451
0.0017202928
0.0016609594
0.0016026188
0.0015452424
0.0014887995
0.0014332632
0.0013786021
0.0013247799
0.0012717653
0.0012195278
0.0011680383
0.0011172698
0.0010671983
0.0010178041
0.00096907319
0.00092099835
0.00087358146
0.00082683565
0.00078078833
0.00073548501
0.00069099435
0.00064741464
0.00060488251
0.00056358439
0.00052377135
0.00048577815
0.00045004615
0.00041714794
0.00038780741
0.00036290095
0.00034341642
0.00033034385
0.00032449297
0.00032628768
0.0003356381
0.00035197002
0.00037439136
0.0004018972
0.00043352395
0.00046843815
0.00050595184
0.00054550996
0.0022272642
0.002159197
0.0020922764
0.0020264909
0.0019618281
0.0018982742
0.0018358116
0.0017744202
0.0017140774
0.0016547581
0.001596435
0.0015390776
0.0014826522
0.0014271296
0.0013724774
0.0013186589
0.0012656402
0.0012133886
0.0011618728
0.0011110633
0.0010609339
0.0010114621
0.00096263091
0.00091442992
0.00086685733
0.00081992216
0.00077364718
0.00072807267
0.00068326135
0.00063930495
0.00059633302
0.0005545247
0.00051412445
0.00047546265
0.00043898139
0.00040526402
0.00037506236
0.00034930636
0.00032906857
0.00031544794
0.00030935989
0.00031128815
0.000321127
0.00033821961
0.00036156375
0.00039005457
0.00042266184
0.00045850673
0.00049688487
0.00053723698
0.0022210809
0.0021529744
0.0020860265
0.002020228
0.0019555665
0.0018920245
0.001829583
0.0017682201
0.0017079115
0.0016486305
0.0015903483
0.0015330336
0.0014766497
0.0014211646
0.0013665453
0.0013127533
0.0012597532
0.0012075105
0.0011559915
0.0011051648
0.0010550015
0.0010054768
0.00095657058
0.00090826939
0.00086056784
0.0008134709
0.00076699671
0.00072118024
0.00067607815
0.00063177531
0.00058839362
0.00054610404
0.00050514296
0.00046583423
0.00042861772
0.00039408379
0.00036300839
0.000336373
0.00031533733
0.00030111869
0.00029475227
0.00029679207
0.00030711567
0.00032497299
0.00034924019
0.00037870783
0.00041227175
0.00044901989
0.00048822949
0.0005293377
0.002214755
0.0021466292
0.002079682
0.0020138989
0.0019492635
0.0018857581
0.0018233616
0.0017620505
0.0017017987
0.0016425779
0.0015843574
0.0015271061
0.0014707871
0.0014153615
0.0013607959
0.0013070512
0.0012540908
0.0012018781
0.0011503777
0.0010995556
0.0010493809
0.00099982614
0.00095086859
0.00090249165
0.00085468648
0.00080745407
0.000760808
0.00071477793
0.0006694144
0.00062479516
0.00058103403
0.00053829302
0.00049679917
0.00045686774
0.00041893339
0.00038358952
0.00035163174
0.0003240899
0.00030221236
0.00028734417
0.00028065594
0.00028278428
0.00029358939
0.00031221618
0.00033740664
0.00036783895
0.00040234124
0.00043996057
0.00047996479
0.00052179287
0.0022082991
0.0021401867
0.0020732644
0.0020075184
0.0019429328
0.0018794863
0.0018171565
0.0017559182
0.001695744
0.0016366033
0.0015784635
0.001521291
0.0014650568
0.0014097147
0.0013552205
0.001301542
0.0012486407
0.0011964778
0.0011450155
0.0010942183
0.0010440528
0.00099448921
0.00094550229
0.00089707244
0.00084918746
0.00080184447
0.00075505257
0.00070883617
0.00066323965
0.00061833354
0.00057422325
0.00053106117
0.00048906385
0.00044853611
0.00040990444
0.00037376114
0.00034091644
0.00031244428
0.00028968185
0.00027411106
0.00026705521
0.00026924816
0.00028053228
0.00029993401
0.00032604772
0.00035743448
0.00039284891
0.00043131086
0.00047207679
0.000514587
0.002201746
0.0021336646
0.0020667895
0.0020011047
0.001936589
0.0018732216
0.0018109779
0.0017498315
0.0016897533
0.0016307116
0.001572672
0.0015155988
0.0014594598
0.0014042123
0.0013498102
0.0012962169
0.0012433926
0.001191297
0.001139891
0.0010891368
0.0010389993
0.00098944641
0.00094045036
0.00089198874
0.00084404612
0.00079661589
0.00074970277
0.00070332602
0.00065752389
0.00061235965
0.00056793006
0.00052437742
0.0004819068
0.00044081087
0.00040150519
0.00036457669
0.00033084473
0.00030142187
0.00027773288
0.000261405
0.00025393326
0.00025616597
0.00026792766
0.00028811118
0.00031514831
0.000347476
0.00038378228
0.00042305359
0.00046454365
0.0005077007
0.0021951138
0.0021270884
0.002060282
0.0019946749
0.0019302484
0.0018669777
0.0018048374
0.0017437996
0.0016838338
0.0016249071
0.0015669842
0.001510027
0.0014539984
0.0013988586
0.0013445629
0.00129107
0.0012383381
0.0011863255
0.0011349916
0.0010842969
0.0010342044
0.00098467986
0.00093569315
0.00088721918
0.0008392394
0.00079174364
0.00074473236
0.00069821982
0.00065223822
0.00060684358
0.0005621239
0.00051821103
0.00047529779
0.0004336632
0.00039370926
0.00035601339
0.00032139809
0.0002910081
0.00026635268
0.00024921204
0.00024127355
0.00024352035
0.00025575952
0.00027673297
0.00030469395
0.00033795066
0.00037512125
0.00041517255
0.00045735418
0.00050112095
0.0021884341
0.002120481
0.0020537589
0.0019882496
0.0019239277
0.0018607694
0.0017987476
0.0017378329
0.0016779937
0.0016191957
0.0015614024
0.0015045747
0.0014486718
0.0013936535
0.0013394765
0.0012860965
0.0012334701
0.0011815542
0.0011303064
0.0010796859
0.0010296535
0.00098017318
0.00093121249
0.0008827438
0.00083474563
0.00078720435
0.00074011635
0.00069349102
0.00064735468
0.00060175616
0.00055677472
0.00051253149
0.00046920645
0.00042706372
0.00038648939
0.00034804728
0.00031255692
0.00028118759
0.00025552824
0.00023751815
0.0002290594
0.00023129379
0.00024401211
0.00026578555
0.00029467108
0.00032884243
0.0003668555
0.00040765277
0.00045048898
0.00049483139
0.0021817298
0.0021138663
0.0020472472
0.0019818472
0.0019176447
0.0018546122
0.0017927217
0.0017319426
0.001672242
0.0016135843
0.001555932
0.0014992448
0.0014434799
0.0013885955
0.0013345481
0.0012812922
0.0012287828
0.0011769754
0.0011258261
0.0010752924
0.0010253335
0.00097591151
0.00092699176
0.00087854426
0.0008305447
0.0007829762
0.00073583125
0.00068911455
0.0006428467
0.00059706951
0.00055185351
0.0005073091
0.00046360295
0.00042098329
0.00037981819
0.00034065411
0.00030430125
0.00027194506
0.00024524719
0.0002263104
0.00021727504
0.00021946986
0.00023267108
0.00025525643
0.00028506781
0.00032014056
0.00035896777
0.0004004816
0.00044394048
0.00048882291
0.0021750299
0.0021072705
0.002040764
0.001975489
0.001911417
0.0018485218
0.0017867735
0.0017261406
0.0016665886
0.0016080809
0.0015505788
0.0014940423
0.0014384253
0.0013836845
0.0013297761
0.0012766538
0.0012242712
0.0011725824
0.0011215421
0.0010711063
0.0010212325
0.00097188115
0.00092301552
0.00087460333
0.00082661767
0.00077903852
0.0007318547
0.00068506638
0.00063868866
0.00059275653
0.00054733198
0.0005025146
0.00045845763
0.00041539255
0.00037366772
0.00033380867
0.00029661015
0.00026326448
0.00023549709
0.00021557608
0.00020590498
0.00020803235
0.00022172283
0.00024513448
0.00027587325
0.00031183233
0.00035145046
0.00039364686
0.00043769245
0.00048308284
0.0021683594
0.0021007155
0.0020343362
0.0019691932
0.0019052623
0.0018425136
0.0017809167
0.0017204385
0.0016610436
0.0016026937
0.0015453484
0.001488971
0.0014335114
0.0013789211
0.0013251596
0.0012721788
0.0012199312
0.0011683695
0.001117447
0.0010671184
0.0010173397
0.00096806959
0.00091926953
0.00087090511
0.00082294691
0.00077537202
0.00072816568
0.00068132384
0.0006348563
0.00058879146
0.00054318295
0.00049811979
0.00045374158
0.00041026267
0.00036801017
0.00032748568
0.0002894624
0.0002551299
0.00022626617
0.00020530378
0.00019493478
0.00019696629
0.00021115537
0.00023541008
0.00026707848
0.00030390922
0.0003442896
0.00038713928
0.00043174065
0.00047760539
0.0023721253
0.0023006703
0.0022305567
0.0021617448
0.002094226
0.0020279795
0.0019629801
0.0018991976
0.0018366032
0.0017751648
0.0017148484
0.0016556173
0.0015974319
0.0015402501
0.0014840349
0.0014287384
0.0013743063
0.0013206981
0.0012678654
0.0012157594
0.0011643315
0.0011135341
0.0010633204
0.0010136451
0.0009644652
0.00091574055
0.00086743469
0.00081951587
0.0007719584
0.00072474426
0.00067786532
0.00063132636
0.00058514945
0.00053938017
0.00049409712
0.00044942644
0.00040556495
0.0003628176
0.00032165923
0.00028283602
0.00024752461
0.00021754266
0.00019548251
0.00018435048
0.00018625704
0.00020095763
0.00022607501
0.0002586752
0.00029636162
0.00033747965
0.00038094878
0.00042607168
0.0004723804
0.0024379354
0.0023652461
0.0022938944
0.0022238954
0.0021552073
0.0020878221
0.0020217186
0.0019568668
0.0018932397
0.0018308054
0.0017695312
0.0017093819
0.0016503197
0.0015923048
0.001535295
0.0014792431
0.001424108
0.0013698414
0.0013163923
0.0012637125
0.001211753
0.0011604643
0.0011097977
0.001059705
0.0010101398
0.00096105762
0.00091241662
0.00086417852
0.00081630938
0.00076878096
0.00072157208
0.00067467083
0.00062807721
0.0005818073
0.0005358989
0.00049042055
0.00044548508
0.00040127183
0.00035806273
0.00031630383
0.00027670903
0.00024043217
0.00020931548
0.00018610278
0.00017413921
0.00017589115
0.00019112002
0.00021712227
0.00025065685
0.00028918246
0.00033100904
0.00037506862
0.00042068287
0.00046740413
0.0024310316
0.0023584413
0.0022872012
0.0022173253
0.0021487708
0.0020815254
0.0020155689
0.0019508726
0.0018874051
0.0018251355
0.0017640295
0.0017040509
0.0016451611
0.0015873192
0.0015304823
0.0014746014
0.0014196327
0.0013655314
0.0013122437
0.00125972
0.0012079105
0.0011567649
0.0011062331
0.0010562662
0.0010068164
0.00095783781
0.00090928722
0.00086112455
0.00081331386
0.00076582448
0.00071863235
0.00067172197
0.00062508886
0.00057874338
0.00053271597
0.00048706545
0.00044189171
0.00039735669
0.00035371902
0.00031139416
0.00027105938
0.00023383577
0.0002015739
0.00017715586
0.00016428884
0.00016585543
0.00018163381
0.00020854595
0.00024301673
0.00028236391
0.00032487279
0.0003694893
0.00041556226
0.0004626675
0.0024242188
0.0023517368
0.0022806179
0.0022108728
0.0021424567
0.0020753579
0.0020095545
0.0019450153
0.0018817114
0.0018196092
0.001758674
0.0016988683
0.0016401527
0.0015824853
0.0015258217
0.001470114
0.0014153157
0.0013613804
0.0013082553
0.0012558895
0.0012042321
0.0011532319
0.0011028378
0.0010529999
0.0010036693
0.00095479892
0.00090634403
0.00085826302
0.00081051804
0.00076307623
0.00071591079
0.0006690029