/*--------------------------------*- C++ -*----------------------------------*\
| =========                 |                                                 |
| \\      /  F ield         | OpenFOAM: The Open Source CFD Toolbox           |
|  \\    /   O peration     | Version:  2312                                  |
|   \\  /    A nd           | Website:  www.openfoam.com                      |
|    \\/     M anipulation  |                                                 |
\*---------------------------------------------------------------------------*/
FoamFile
{
    version     2.0;
    format      ascii;
    arch        "LSB;label=32;scalar=64";
    class       volScalarField;
    location    "0.03";
    object      N2;
}
// * * * * * * * * * * * * * * * * * * * * * * * * * * * * * * * * * * * * * //

dimensions      [0 0 0 0 0 0 0];

internalField   nonuniform List<scalar> 
3250
(
0.7695105
0.76953934
0.76956686
0.76959309
0.76961808
0.76964184
0.76966441
0.76968582
0.76970611
0.76972532
0.76974347
0.76976062
0.7697768
0.76979204
0.7698064
0.7698199
0.76983258
0.76984449
0.76985565
0.76986612
0.76987591
0.76988508
0.76989364
0.76990164
0.76990909
0.76991605
0.76992252
0.76992855
0.76993416
0.76993936
0.7699442
0.76994868
0.76995284
0.76995669
0.76996025
0.76996354
0.76996659
0.7699694
0.76997199
0.76997438
0.76997658
0.7699786
0.76998047
0.76998218
0.76839707
0.76849161
0.76858188
0.76866796
0.76874994
0.76882792
0.768902
0.76897228
0.76903888
0.76910192
0.76916152
0.7692178
0.76927089
0.76932091
0.76936801
0.76941229
0.7694539
0.76949295
0.76952956
0.76956386
0.76959597
0.76962599
0.76965404
0.76968022
0.76970464
0.76972739
0.76974858
0.76976829
0.76978661
0.76980362
0.76981941
0.76983405
0.76984761
0.76986017
0.76987178
0.76988251
0.76989242
0.76990156
0.76990999
0.76991776
0.7699249
0.76993148
0.76993752
0.76994306
0.76718182
0.76734741
0.76750565
0.76765667
0.76780061
0.7679376
0.76806782
0.76819142
0.76830861
0.76841958
0.76852453
0.76862367
0.76871722
0.7688054
0.76888842
0.76896651
0.76903988
0.76910875
0.76917333
0.76923383
0.76929046
0.76934342
0.76939289
0.76943906
0.76948212
0.76952224
0.76955959
0.76959433
0.76962662
0.76965659
0.7696844
0.76971017
0.76973404
0.76975613
0.76977655
0.76979541
0.76981282
0.76982887
0.76984367
0.76985728
0.76986981
0.76988132
0.76989189
0.76990159
0.76589295
0.76613294
0.76636252
0.76658184
0.76679106
0.76699036
0.76717993
0.76736002
0.76753087
0.76769275
0.76784593
0.7679907
0.76812737
0.76825623
0.76837761
0.7684918
0.76859913
0.76869989
0.76879439
0.76888294
0.76896582
0.76904333
0.76911574
0.76918333
0.76924635
0.76930507
0.76935972
0.76941054
0.76945776
0.76950159
0.76954224
0.76957991
0.76961478
0.76964703
0.76967683
0.76970435
0.76972974
0.76975313
0.76977468
0.7697945
0.76981272
0.76982945
0.7698448
0.76985887
0.76456625
0.76488167
0.76518375
0.76547264
0.76574851
0.76601154
0.76626196
0.76650005
0.7667261
0.76694042
0.76714336
0.76733528
0.76751655
0.76768755
0.76784869
0.76800035
0.76814294
0.76827684
0.76840246
0.76852018
0.76863039
0.76873346
0.76882976
0.76891964
0.76900346
0.76908153
0.7691542
0.76922176
0.76928452
0.76934276
0.76939676
0.76944677
0.76949306
0.76953585
0.76957538
0.76961186
0.76964549
0.76967647
0.76970497
0.76973118
0.76975525
0.76977734
0.7697976
0.76981615
0.76324144
0.76363092
0.76400436
0.76436191
0.7647037
0.76502991
0.76534078
0.7656366
0.76591769
0.7661844
0.76643713
0.7666763
0.76690233
0.76711568
0.76731682
0.76750621
0.76768434
0.76785168
0.76800872
0.76815591
0.76829374
0.76842266
0.76854312
0.76865555
0.76876039
0.76885805
0.76894893
0.76903342
0.76911188
0.76918467
0.76925215
0.76931463
0.76937242
0.76942583
0.76947514
0.76952063
0.76956254
0.76960111
0.76963659
0.76966919
0.7696991
0.76972653
0.76975166
0.76977466
0.76195748
0.76241749
0.76285908
0.76328234
0.76368738
0.76407435
0.76444348
0.76479505
0.76512939
0.76544689
0.76574797
0.76603308
0.7663027
0.76655735
0.76679754
0.76702382
0.76723673
0.76743682
0.76762464
0.76780074
0.76796567
0.76811995
0.76826413
0.76839872
0.76852421
0.7686411
0.76874986
0.76885096
0.76894483
0.7690319
0.76911258
0.76918727
0.76925632
0.76932011
0.76937898
0.76943325
0.76948322
0.7695292
0.76957145
0.76961024
0.76964581
0.76967841
0.76970824
0.76973552
0.76074828
0.76127361
0.76177848
0.76226291
0.76272694
0.76317071
0.7635944
0.76399829
0.7643827
0.76474803
0.76509471
0.76542323
0.7657341
0.76602787
0.7663051
0.7665664
0.76681236
0.7670436
0.76726073
0.76746436
0.76765511
0.76783359
0.76800039
0.76815609
0.76830128
0.76843651
0.76856233
0.76867926
0.76878782
0.76888848
0.76898173
0.76906801
0.76914777
0.76922142
0.76928934
0.76935193
0.76940953
0.76946249
0.76951113
0.76955576
0.76959666
0.7696341
0.76966834
0.76969963
0.75963973
0.76022396
0.76078612
0.76132606
0.76184374
0.76233924
0.76281273
0.76326444
0.76369469
0.76410387
0.76449243
0.76486086
0.7652097
0.76553953
0.76585094
0.76614459
0.76642111
0.76668116
0.76692542
0.76715455
0.76736923
0.76757013
0.7677579
0.76793319
0.76809664
0.76824888
0.7683905
0.7685221
0.76864425
0.76875749
0.76886236
0.76895937
0.76904901
0.76913174
0.76920802
0.76927826
0.76934287
0.76940225
0.76945675
0.76950671
0.76955247
0.76959434
0.76963261
0.76966754
0.75730373
0.75798701
0.758647
0.75928364
0.75989669
0.76048595
0.76105136
0.76159295
0.76211084
0.76260526
0.76307651
0.76352496
0.76395106
0.76435531
0.76473825
0.7651005
0.76544268
0.76576545
0.76606951
0.76635554
0.76662428
0.76687643
0.76711272
0.76733387
0.76754058
0.76773356
0.7679135
0.76808109
0.76823698
0.76838181
0.76851622
0.7686408
0.76875614
0.7688628
0.76896132
0.76905222
0.76913598
0.76921309
0.76928398
0.76934909
0.76940882
0.76946355
0.76951365
0.76955945
0.76960128
0.76963944
0.75633785
0.75706891
0.75777573
0.75845804
0.75911549
0.75974784
0.76035499
0.76093691
0.76149371
0.76202558
0.7625328
0.76301573
0.76347481
0.76391055
0.76432351
0.7647143
0.76508358
0.76543203
0.76576037
0.76606934
0.76635968
0.76663215
0.76688751
0.76712653
0.76734997
0.76755856
0.76775306
0.76793419
0.76810266
0.76825917
0.76840438
0.76853894
0.7686635
0.76877865
0.76888498
0.76898304
0.76907338
0.7691565
0.76923289
0.76930302
0.76936732
0.76942621
0.76948008
0.76952932
0.76957425
0.76961523
0.75550195
0.75627441
0.75702168
0.75774343
0.75843926
0.75910886
0.7597521
0.76036891
0.76095937
0.76152365
0.76206201
0.76257481
0.76306247
0.7635255
0.76396447
0.76438001
0.76477279
0.76514352
0.76549293
0.7658218
0.76613088
0.76642099
0.7666929
0.76694743
0.76718537
0.76740751
0.76761463
0.7678075
0.76798687
0.76815348
0.76830805
0.76845126
0.76858379
0.76870628
0.76881935
0.76892361
0.76901962
0.76910793
0.76918906
0.76926351
0.76933175
0.76939422
0.76945134
0.76950352
0.76955112
0.76959451
0.75478334
0.75559153
0.75637368
0.75712941
0.75785828
0.75855996
0.75923426
0.7598811
0.76050052
0.76109268
0.76165782
0.7621963
0.76270853
0.76319503
0.76365637
0.76409318
0.76450616
0.76489604
0.76526356
0.76560952
0.76593472
0.76623997
0.76652612
0.76679398
0.76704439
0.76727816
0.76749612
0.76769906
0.76788778
0.76806306
0.76822564
0.76837626
0.76851563
0.76864441
0.76876326
0.76887281
0.76897367
0.76906641
0.76915159
0.76922974
0.76930134
0.76936686
0.76942676
0.76948145
0.76953133
0.76957677
0.75416515
0.75500428
0.7558166
0.75660171
0.75735912
0.75808847
0.75878956
0.75946227
0.76010664
0.7607228
0.76131099
0.76187155
0.76240491
0.76291157
0.76339212
0.7638472
0.76427752
0.76468384
0.76506694
0.76542763
0.76576672
0.76608501
0.76638338
0.76666269
0.7669238
0.76716749
0.76739467
0.76760619
0.76780288
0.76798554
0.76815495
0.76831187
0.76845703
0.76859115
0.76871494
0.76882903
0.76893405
0.76903061
0.76911927
0.76920058
0.76927507
0.76934322
0.76940551
0.76946236
0.7695142
0.76956142
0.75362944
0.75449561
0.75533425
0.75614495
0.75692721
0.75768064
0.75840499
0.75910017
0.75976618
0.76040314
0.7610113
0.76159099
0.76214263
0.76266673
0.76316387
0.76363474
0.76408013
0.76450082
0.7648975
0.76527101
0.76562195
0.76595132
0.76626004
0.76654901
0.76681909
0.76707131
0.76730646
0.76752541
0.767729
0.76791806
0.7680934
0.7682558
0.76840603
0.76854482
0.76867289
0.76879091
0.76889953
0.76899938
0.76909106
0.76917512
0.76925212
0.76932255
0.76938691
0.76944564
0.76949919
0.76954795
0.75315956
0.7540496
0.75491147
0.75574474
0.75654888
0.75732348
0.7580683
0.75878321
0.7594682
0.76012342
0.76074907
0.76134551
0.76191315
0.76245251
0.76296419
0.76344909
0.76390787
0.76434097
0.76474911
0.7651332
0.76549438
0.76583346
0.76615132
0.76644888
0.76672705
0.76698676
0.7672289
0.76745434
0.76766397
0.76785863
0.76803915
0.76820635
0.76836101
0.76850388
0.7686357
0.76875717
0.76886895
0.7689717
0.76906603
0.76915251
0.76923171
0.76930416
0.76937034
0.76943074
0.76948579
0.76953592
0.75274143
0.75365273
0.75453537
0.75538879
0.75621246
0.75700595
0.75776899
0.75850146
0.75920335
0.75987479
0.76051599
0.76112731
0.76170916
0.76226205
0.76278686
0.7632842
0.7637542
0.7641979
0.76461633
0.76501026
0.76538064
0.76572837
0.76605435
0.76635952
0.76664483
0.76691118
0.76715952
0.76739073
0.76760572
0.76780536
0.7679905
0.76816196
0.76832056
0.76846707
0.76860223
0.76872677
0.76884138
0.76894672
0.76904342
0.76913207
0.76921325
0.7692875
0.76935533
0.76941722
0.76947363
0.76952499
0.75236391
0.75329425
0.75419566
0.75506733
0.75590866
0.75671922
0.75749872
0.75824705
0.75896418
0.75965025
0.76030547
0.76093019
0.76152487
0.76209005
0.76262664
0.76313445
0.76361478
0.76406839
0.76449614
0.76489889
0.76527756
0.76563308
0.76596638
0.76627842
0.76657014
0.76684249
0.76709642
0.76733284
0.76755267
0.76775681
0.76794611
0.76812144
0.7682836
0.7684334
0.7685716
0.76869893
0.76881611
0.7689238
0.76902265
0.76911328
0.76919627
0.76927217
0.7693415
0.76940475
0.76946241
0.76951489
0.75104053
0.75201768
0.75296591
0.75388459
0.75477298
0.75563048
0.75645665
0.75725121
0.75801403
0.75874509
0.75944452
0.76011254
0.76074949
0.76135582
0.76193245
0.7624791
0.76299698
0.76348683
0.76394946
0.76438573
0.76479652
0.76518277
0.76554541
0.7658854
0.76620371
0.7665013
0.76677914
0.76703818
0.76727938
0.76750365
0.76771191
0.76790504
0.76808391
0.76824935
0.76840218
0.76854317
0.76867308
0.76879262
0.76890248
0.76900333
0.76909579
0.76918044
0.76925787
0.76932859
0.76939311
0.76945192
0.76950546
0.75070295
0.75169716
0.75266189
0.75359654
0.75450039
0.75537282
0.75621342
0.75702189
0.7577981
0.75854202
0.75925379
0.75993363
0.76058189
0.76119896
0.76178563
0.76234212
0.7628693
0.76336796
0.76383893
0.76428307
0.7647013
0.76509455
0.76546378
0.76580997
0.76613408
0.76643711
0.76672003
0.76698382
0.76722944
0.76745783
0.76766992
0.7678666
0.76804877
0.76821726
0.76837291
0.7685165
0.76864881
0.76877056
0.76888245
0.76898516
0.76907933
0.76916555
0.7692444
0.76931643
0.76938214
0.76944203
0.76949655
0.75038813
0.75139798
0.75237801
0.75332752
0.75424575
0.75513211
0.75598614
0.75680757
0.75759624
0.75835214
0.75907539
0.75976624
0.76042507
0.76105245
0.76164833
0.76221387
0.76274969
0.76325656
0.7637353
0.76418679
0.76461196
0.76501175
0.76538713
0.76573909
0.76606863
0.76637674
0.76666442
0.76693265
0.76718241
0.76741466
0.76763033
0.76783035
0.76801561
0.76818696
0.76834526
0.7684913
0.76862586
0.76874969
0.7688635
0.76896797
0.76906374
0.76915143
0.76923164
0.7693049
0.76937174
0.76943265
0.7694881
0.75009282
0.751117
0.75211133
0.75307475
0.75400646
0.75490585
0.75577247
0.75660602
0.75740637
0.75817349
0.7589075
0.75960864
0.76027727
0.7609139
0.7615189
0.762093
0.76263695
0.76315151
0.76363755
0.76409594
0.76452762
0.76493355
0.76531472
0.76567211
0.76600675
0.76631964
0.76661179
0.76688421
0.76713787
0.76737375
0.76759281
0.76779598
0.76798415
0.76815821
0.76831901
0.76846737
0.76860406
0.76872986
0.76884548
0.76895161
0.76904891
0.76913801
0.76921949
0.76929392
0.76936183
0.76942371
0.76948005
0.7487459
0.74981372
0.75085195
0.7518598
0.75283632
0.7537807
0.75469234
0.75557079
0.75641575
0.75722708
0.75800476
0.75874889
0.75945971
0.76013751
0.76078303
0.76139651
0.76197867
0.76253026
0.76305209
0.763545
0.76400989
0.76444772
0.76485944
0.76524606
0.76560859
0.76594804
0.76626545
0.76656183
0.7668382
0.76709555
0.76733488
0.76755714
0.76776329
0.76795423
0.76813086
0.76829403
0.76844458
0.7685833
0.76871097
0.76882831
0.76893602
0.76903477
0.7691252
0.7692079
0.76928345
0.76935237
0.76941519
0.76947237
0.74846859
0.74955007
0.75060147
0.75162207
0.75261091
0.75356723
0.75449041
0.75538
0.75623572
0.7570574
0.75784503
0.75859872
0.75931872
0.76000532
0.76065912
0.76128054
0.76187029
0.7624291
0.76295778
0.76345718
0.76392823
0.76437186
0.76478906
0.76518084
0.76554822
0.76589224
0.76621392
0.76651431
0.76679443
0.76705528
0.76729787
0.76752318
0.76773215
0.76792572
0.76810478
0.76827021
0.76842285
0.7685635
0.76869295
0.76881192
0.76892114
0.76902128
0.76911298
0.76919684
0.76927345
0.76934334
0.76940704
0.76946503
0.74820681
0.74930081
0.75036454
0.75139713
0.75239759
0.75336517
0.75429923
0.75519934
0.7560652
0.75689665
0.75769367
0.75845638
0.75918505
0.75988011
0.76054161
0.76117053
0.76176745
0.76233308
0.76286824
0.76337379
0.76385065
0.76429978
0.76472217
0.76511884
0.76549082
0.76583916
0.7661649
0.76646909
0.76675276
0.76701694
0.76726263
0.76749083
0.76770249
0.76789855
0.76807993
0.76824751
0.76840213
0.76854462
0.76867576
0.76879629
0.76890695
0.7690084
0.76910131
0.76918628
0.7692639
0.76933472
0.76939927
0.76945803
0.74795961
0.74906506
0.75014037
0.75118426
0.75219569
0.75317388
0.75411822
0.75502825
0.75590368
0.75674435
0.75755023
0.75832144
0.75905824
0.759761
0.76043008
0.76106615
0.76166986
0.76224195
0.76278324
0.76329461
0.76377697
0.76423131
0.76465861
0.76505991
0.76543625
0.76578869
0.76611828
0.76642607
0.76671311
0.76698045
0.76722908
0.76746002
0.76767423
0.76787267
0.76805626
0.76822587
0.76838239
0.76852662
0.76865937
0.76878139
0.76889341
0.76899612
0.76909018
0.76917621
0.7692548
0.7693265
0.76939185
0.76945134
0.74657842
0.74772505
0.748842
0.74992835
0.7509829
0.75200467
0.75299288
0.7539469
0.7548663
0.75575076
0.75660013
0.75741437
0.75819361
0.75893809
0.75964821
0.76032437
0.76096718
0.76157731
0.76215551
0.7627026
0.76321946
0.76370704
0.7641663
0.76459825
0.76500394
0.76538441
0.76574073
0.76607396
0.76638517
0.76667542
0.76694574
0.76719717
0.76743071
0.76764735
0.76784804
0.76803372
0.76820528
0.76836359
0.76850948
0.76864376
0.7687672
0.76888052
0.76898442
0.76907958
0.76916661
0.76924612
0.76931867
0.76938478
0.76944497
0.74634563
0.74750354
0.74863127
0.74972801
0.75079261
0.75182413
0.75282177
0.75378492
0.75471314
0.75560612
0.75646369
0.75728582
0.75807264
0.75882436
0.75954145
0.76022428
0.76087345
0.76148964
0.7620736
0.76262617
0.76314823
0.76364073
0.76410465
0.764541
0.76495084
0.76533522
0.76569521
0.7660319
0.76634635
0.76663962
0.76691278
0.76716686
0.76740287
0.76762181
0.76782464
0.7680123
0.7681857
0.76834571
0.76849318
0.76862892
0.7687537
0.76886825
0.7689733
0.76906949
0.76915748
0.76923787
0.76931121
0.76937806
0.76943891
0.74612641
0.74729466
0.74843244
0.74953893
0.75061299
0.75165367
0.7526602
0.75363195
0.75456848
0.75546947
0.75633477
0.75716435
0.75795831
0.75871684
0.75944053
0.76012963
0.76078479
0.76140669
0.76199609
0.76255383
0.7630808
0.76357795
0.76404626
0.76448677
0.76490053
0.7652886
0.76565207
0.76599202
0.76630953
0.76660568
0.76688152
0.7671381
0.76737645
0.76759757
0.76780242
0.76799197
0.76816711
0.76832874
0.76847771
0.76861483
0.76874088
0.76885661
0.76896273
0.76905992
0.76914881
0.76923003
0.76930413
0.76937167
0.76943316
0.74591995
0.74709789
0.74824509
0.74936073
0.75044367
0.75149297
0.75250785
0.75348768
0.75443203
0.75534056
0.75621313
0.7570497
0.75785042
0.75861558
0.75934527
0.76004025
0.76070105
0.76132833
0.76192285
0.76248546
0.76301705
0.76351858
0.76399105
0.76443548
0.76485294
0.7652445
0.76561125
0.76595428
0.76627468
0.76657353
0.76685191
0.76711086
0.76735142
0.7675746
0.76778137
0.7679727
0.7681495
0.76831266
0.76846304
0.76860147
0.76872872
0.76884556
0.76895271
0.76905083
0.76914059
0.7692226
0.76929742
0.76936562
0.7694277
0.7457257
0.74691274
0.74806879
0.74919301
0.7502843
0.75134169
0.7523644
0.75335183
0.75430351
0.75521912
0.75609852
0.75694167
0.75774869
0.75851984
0.75925541
0.75995596
0.76062206
0.7612544
0.76185375
0.76242095
0.76295689
0.76346255
0.76393892
0.76438704
0.76480799
0.76520283
0.76557267
0.76591861
0.76624174
0.76654315
0.76682392
0.76708511
0.76732776
0.76755288
0.76776146
0.76795447
0.76813283
0.76829744
0.76844916
0.76858882
0.76871722
0.76883511
0.76894322
0.76904224
0.76913281
0.76921556
0.76929107
0.76935989
0.76942254
0.76947952
0.7455432
0.74673881
0.74790314
0.74903542
0.75013452
0.75119949
0.75222955
0.7532241
0.75418265
0.75510491
0.75599071
0.75684002
0.75765296
0.75842978
0.75917082
0.75987659
0.76054768
0.76118478
0.76178866
0.76236017
0.7629002
0.76340974
0.76388978
0.76434138
0.7647656
0.76516354
0.76553629
0.76588496
0.76621066
0.76651448
0.76679751
0.7670608
0.76730542
0.76753237
0.76774266
0.76793726
0.76811709
0.76828306
0.76843605
0.76857688
0.76870635
0.76882524
0.76893426
0.76903411
0.76912546
0.76920891
0.76928507
0.76935447
0.76941766
0.76947513
0.74537205
0.74657568
0.74774778
0.74888758
0.74999399
0.75106605
0.75210299
0.75310419
0.75406919
0.75499767
0.75588946
0.75674454
0.75756303
0.75834518
0.75909134
0.759802
0.76047777
0.76111933
0.76172746
0.762303
0.76284688
0.76336005
0.76384355
0.7642984
0.7647257
0.76512654
0.76550203
0.76585328
0.76618139
0.76648747
0.76677262
0.7670379
0.76728436
0.76751304
0.76772494
0.76792103
0.76810225
0.76826951
0.76842368
0.76856561
0.7686961
0.76881592
0.76892581
0.76902645
0.76911852
0.76920264
0.7692794
0.76934937
0.76941306
0.76947099
0.74521187
0.74642298
0.7476023
0.74874912
0.74986235
0.75094103
0.7519844
0.75299182
0.75396284
0.75489713
0.75579454
0.75665501
0.75747868
0.75826582
0.75901677
0.75973202
0.76041216
0.76105789
0.76167
0.76224933
0.7627968
0.76331339
0.76380011
0.76425803
0.76468821
0.76509178
0.76546983
0.76582349
0.76615387
0.76646208
0.76674921
0.76701635
0.76726456
0.76749486
0.76770827
0.76790576
0.76808828
0.76825675
0.76841204
0.76855501
0.76868645
0.76880715
0.76891785
0.76901924
0.76911199
0.76919674
0.76927407
0.76934456
0.76940873
0.76946709
0.7450623
0.7462803
0.74746631
0.74861966
0.74973924
0.7508241
0.75187346
0.75288669
0.75386332
0.75480305
0.75570569
0.75657121
0.75739971
0.75819153
0.75894694
0.75966646
0.76035069
0.76100033
0.76161615
0.76219902
0.76274985
0.76326963
0.76375938
0.76422016
0.76465305
0.76505916
0.76543961
0.76579553
0.76612803
0.76643824
0.76672724
0.76699612
0.76724596
0.76747778
0.7676926
0.76789141
0.76807516
0.76824476
0.76840111
0.76854504
0.76867739
0.76879891
0.76891037
0.76901246
0.76910585
0.76919119
0.76926906
0.76934004
0.76940466
0.76946343
0.7449229
0.74614721
0.74733941
0.74849881
0.7496243
0.7507149
0.75176984
0.75278848
0.75377036
0.75471514
0.75562267
0.7564929
0.75732594
0.75812208
0.75888165
0.75960516
0.76029321
0.76094648
0.76156578
0.76215195
0.76270592
0.76322868
0.76372125
0.7641847
0.76462012
0.76502861
0.76541131
0.76576934
0.76610383
0.76641589
0.76670664
0.76697716
0.76722852
0.76746177
0.76767792
0.76787796
0.76806285
0.76823352
0.76839085
0.7685357
0.76866888
0.76879118
0.76890335
0.7690061
0.7691001
0.76918598
0.76926436
0.76933581
0.76940084
0.76945999
0.74479324
0.74602328
0.74722118
0.74838619
0.74951716
0.75061311
0.75167324
0.75269691
0.75368366
0.75463315
0.75554522
0.75641984
0.75725716
0.75805728
0.75882072
0.75954794
0.76023954
0.76089621
0.76151874
0.76210799
0.76266489
0.76319042
0.76368563
0.76415157
0.76458934
0.76500006
0.76538485
0.76574485
0.7660812
0.766395
0.76668738
0.76695942
0.76721221
0.76744679
0.76766418
0.76786537
0.76805134
0.768223
0.76838125
0.76852695
0.76866092
0.76878395
0.76889679
0.76900015
0.76909471
0.76918111
0.76925997
0.76933184
0.76939727
0.76945678
0.74467273
0.74590802
0.74711119
0.7482814
0.74941746
0.75051837
0.75158332
0.75261167
0.75360294
0.75455681
0.7554731
0.75635179
0.75719299
0.7579969
0.75876395
0.75949462
0.76018952
0.76084935
0.76147488
0.762067
0.76262662
0.76315474
0.7636524
0.76412066
0.76456062
0.76497341
0.76536016
0.765722
0.76606007
0.76637549
0.76666939
0.76694286
0.76719697
0.76743279
0.76765134
0.76785361
0.76804058
0.76821316
0.76837228
0.76851877
0.76865348
0.76877718
0.76889065
0.76899458
0.76908967
0.76917656
0.76925586
0.76932814
0.76939394
0.76945378
0.74456085
0.74580098
0.74700902
0.74818405
0.74932483
0.75043034
0.75149977
0.75253246
0.75352793
0.75448586
0.75540606
0.75628852
0.75713334
0.75794075
0.75871115
0.75944503
0.760143
0.76080575
0.76143408
0.76202885
0.762591
0.76312153
0.76362146
0.76409187
0.76453388
0.76494859
0.76533715
0.7657007
0.76604038
0.76635731
0.76665262
0.76692742
0.76718277
0.76741974
0.76763937
0.76784265
0.76803054
0.768204
0.76836391
0.76851114
0.76864654
0.76877088
0.76888492
0.7689894
0.76908498
0.76917232
0.76925203
0.76932468
0.76939083
0.76945099
0.74445722
0.7457017
0.74691425
0.74809376
0.74923892
0.7503487
0.75142227
0.75245898
0.75345835
0.75442003
0.75534386
0.75622981
0.75707799
0.75788864
0.75866214
0.75939899
0.7600998
0.76076526
0.76139618
0.76199342
0.76255792
0.76309066
0.76359271
0.76406512
0.76450902
0.76492552
0.76531577
0.7656809
0.76602207
0.7663404
0.76663703
0.76691305
0.76716956
0.76740761
0.76762823
0.76783244
0.7680212
0.76819546
0.76835612
0.76850405
0.76864008
0.76876501
0.76887959
0.76898457
0.76908061
0.76916837
0.76924846
0.76932147
0.76938794
0.76944839
0.74436143
0.74560974
0.74682649
0.74801015
0.74915938
0.75027311
0.75135052
0.75239095
0.75339392
0.75435908
0.75528626
0.75617543
0.75702673
0.75784037
0.75861673
0.75935633
0.76005977
0.76072774
0.76136105
0.76196057
0.76252724
0.76306205
0.76356605
0.76404031
0.76448596
0.76490411
0.76529592
0.76566253
0.76600508
0.76632471
0.76662255
0.76689972
0.76715729
0.76739633
0.76761789
0.76782296
0.76801253
0.76818754
0.76834889
0.76849745
0.76863408
0.76875955
0.76887465
0.76898008
0.76907655
0.7691647
0.76924515
0.76931849
0.76938525
0.76944598
0.74427285
0.74552463
0.74674533
0.74793288
0.74908588
0.75020327
0.75128423
0.75232809
0.75333438
0.75430275
0.75523303
0.75612517
0.75697934
0.75779574
0.75857475
0.75931688
0.76002274
0.76069303
0.76132856
0.76193018
0.76249885
0.76303556
0.76354137
0.76401735
0.76446461
0.7648843
0.76527755
0.76564551
0.76598934
0.76631017
0.76660914
0.76688736
0.76714592
0.76738589
0.7676083
0.76781418
0.76800449
0.76818019
0.76834218
0.76849134
0.76862852
0.7687545
0.76887006
0.76897592
0.76907279
0.7691613
0.76924209
0.76931573
0.76938277
0.76944375
0.74027312
0.74161982
0.74291268
0.74418984
0.74544588
0.74667041
0.74786159
0.74901808
0.75013886
0.75122309
0.75227012
0.75327947
0.7542508
0.75518394
0.75607885
0.75693564
0.75775457
0.75853602
0.75928048
0.75998857
0.760661
0.76129856
0.76190212
0.76247264
0.76301111
0.76351858
0.76399613
0.76444489
0.76486599
0.76526057
0.76562979
0.76597479
0.76629674
0.76659675
0.76687594
0.76713541
0.76737623
0.76759944
0.76780606
0.76799706
0.7681734
0.76833598
0.76848569
0.76862337
0.76874982
0.76886582
0.76897208
0.76906931
0.76915816
0.76923925
0.76931317
0.76938048
0.76944169
0.73880728
0.74018454
0.74153521
0.74283167
0.74411311
0.74537327
0.74660141
0.74779596
0.74895569
0.75007959
0.75116683
0.75221678
0.75322895
0.75420299
0.75513875
0.7560362
0.7568954
0.75771667
0.75850035
0.75924696
0.75995711
0.7606315
0.76127093
0.76187628
0.76244849
0.76298858
0.76349758
0.76397658
0.76442672
0.76484911
0.76524491
0.76561529
0.76596138
0.76628435
0.76658532
0.76686541
0.76712572
0.76736733
0.76759127
0.76779857
0.7679902
0.76816713
0.76833026
0.76848048
0.76861863
0.76874551
0.7688619
0.76896853
0.7690661
0.76915526
0.76923664
0.76931082
0.76937836
0.76943979
0.73872158
0.74010337
0.74145791
0.7427581
0.74404268
0.74530656
0.74653802
0.7477357
0.7488984
0.75002517
0.75111519
0.75216781
0.75318256
0.7541591
0.75509726
0.75599701
0.75685845
0.75768186
0.7584676
0.75921617
0.7599282
0.76060439
0.76124554
0.76185253
0.7624263
0.76296786
0.76347827
0.76395861
0.76441
0.76483359
0.76523052
0.76560195
0.76594905
0.76627295
0.7665748
0.76685572
0.7671168
0.76735913
0.76758375
0.76779167
0.76798389
0.76816136
0.768325
0.76847568
0.76861426
0.76874154
0.7688583
0.76896527
0.76906315
0.7691526
0.76923424
0.76930866
0.76937642
0.76943805
0.7386441
0.7400295
0.74138756
0.74269123
0.74397826
0.74524545
0.74647995
0.74768049
0.74884593
0.74997533
0.75106789
0.75212296
0.75314008
0.7541189
0.75505925
0.75596112
0.75682461
0.75764997
0.75843758
0.75918796
0.75990171
0.76057955
0.76122227
0.76183075
0.76240595
0.76294887
0.76346057
0.76394213
0.76439468
0.76481935
0.76521732
0.76558972
0.76593773
0.76626249
0.76656515
0.76684683
0.76710862
0.76735161
0.76757684
0.76778534
0.7679781
0.76815607
0.76832016
0.76847128
0.76861025
0.7687379
0.768855
0.76896228
0.76906044
0.76915015
0.76923203
0.76930668
0.76937465
0.76943646
0.73857391
0.73996242
0.74132364
0.74263046
0.7439195
0.74518964
0.7464269
0.74763005
0.748798
0.74992981
0.75102469
0.752082
0.75310127
0.75408218
0.75502453
0.75592834
0.75679368
0.75762083
0.75841016
0.75916218
0.7598775
0.76055684
0.761201
0.76181085
0.76238735
0.76293151
0.76344438
0.76392705
0.76438066
0.76480633
0.76520524
0.76557853
0.76592738
0.76625293
0.76655632
0.76683869
0.76710113
0.76734472
0.76757052
0.76777955
0.7679728
0.76815122
0.76831574
0.76846725
0.76860658
0.76873457
0.76885197
0.76895954
0.76905796
0.76914791
0.76923002
0.76930487
0.76937302
0.76943501
0.7385103
0.73990161
0.74126567
0.74257531
0.74386602
0.74513881
0.74637857
0.74758411
0.74875434
0.74988835
0.75098534
0.7520447
0.75306593
0.75404873
0.75499292
0.75589848
0.75676551
0.75759428
0.75838517
0.75913869
0.75985544
0.76053615
0.76118161
0.76179271
0.7623704
0.76291568
0.76342962
0.76391331
0.76436787
0.76479446
0.76519422
0.76556832
0.76591793
0.7662442
0.76654827
0.76683127
0.7670943
0.76733844
0.76756476
0.76777427
0.76796796
0.7681468
0.76831171
0.76846357
0.76860324
0.76873152
0.76884921
0.76895704
0.7690557
0.76914588
0.76922819
0.76930322
0.76937155
0.76943369
0.73845275
0.73984659
0.74121319
0.74252538
0.7438175
0.74509267
0.7463347
0.7475424
0.74871471
0.74985071
0.75094962
0.75201083
0.75303385
0.75401837
0.75496423
0.75587137
0.75673993
0.75757018
0.75836248
0.75911735
0.75983541
0.76051735
0.761164
0.76177622
0.76235499
0.76290129
0.76341621
0.76390082
0.76435625
0.76478366
0.76518421
0.76555905
0.76590935
0.76623626
0.76654094
0.76682451
0.76708808
0.76733273
0.76755952
0.76776946
0.76796356
0.76814278
0.76830804
0.76846022
0.76860019
0.76872876
0.7688467
0.76895477
0.76905365
0.76914402
0.76922652
0.76930173
0.76937021
0.7694325
0.73840081
0.73979693
0.74116583
0.74248031
0.74377361
0.74505092
0.746295
0.74750466
0.74867885
0.74981666
0.75091731
0.75198019
0.75300483
0.7539909
0.75493825
0.75584683
0.75671679
0.75754836
0.75834195
0.75909804
0.75981727
0.76050033
0.76114805
0.7617613
0.76234103
0.76288827
0.76340406
0.7638895
0.76434573
0.76477389
0.76517513
0.76555064
0.76590157
0.76622907
0.76653431
0.7668184
0.76708245
0.76732756
0.76755477
0.76776511
0.76795958
0.76813914
0.76830471
0.76845719
0.76859744
0.76872626
0.76884443
0.76895271
0.76905179
0.76914235
0.76922501
0.76930038
0.769369
0.76943142
0.73835408
0.73975225
0.74112322
0.74243976
0.74373408
0.74501331
0.74625923
0.74747065
0.74864653
0.74978597
0.75088819
0.75195258
0.75297867
0.75396614
0.75491484
0.75582472
0.75669592
0.7575287
0.75832343
0.75908063
0.75980091
0.76048499
0.76113367
0.76174784
0.76232845
0.76287652
0.7633931
0.7638793
0.76433624
0.76476507
0.76516695
0.76554306
0.76589455
0.76622259
0.76652832
0.76681288
0.76707737
0.76732289
0.76755048
0.76776118
0.76795598
0.76813585
0.76830171
0.76845446
0.76859495
0.768724
0.76884238
0.76895085
0.76905012
0.76914084
0.76922365
0.76929916
0.76936792
0.76943046
0.73831219
0.73971222
0.74108504
0.74240345
0.74369861
0.74497957
0.74622713
0.74744014
0.74861754
0.74975843
0.75086206
0.7519278
0.75295519
0.75394392
0.75489383
0.75580487
0.75667719
0.75751104
0.75830681
0.759065
0.75978623
0.76047121
0.76112076
0.76173575
0.76231715
0.76286597
0.76338326
0.76387013
0.76432771
0.76475714
0.7651596
0.76553624
0.76588824
0.76621676
0.76652294
0.76680792
0.76707281
0.7673187
0.76754663
0.76775765
0.76795275
0.7681329
0.76829902
0.76845201
0.76859272
0.76872197
0.76884055
0.76894919
0.76904861
0.76913948
0.76922243
0.76929807
0.76936695
0.76942961
0.73827483
0.73967651
0.74105099
0.74237108
0.74366697
0.74494945
0.74619848
0.7474129
0.74859165
0.74973385
0.75083873
0.75190568
0.75293423
0.75392409
0.75487507
0.75578715
0.75666047
0.75749528
0.75829197
0.75905104
0.75977311
0.76045891
0.76110922
0.76172496
0.76230706
0.76285654
0.76337447
0.76386194
0.76432009
0.76475006
0.76515303
0.76553016
0.76588261
0.76621155
0.76651814
0.76680349
0.76706874
0.76731495
0.76754319
0.7677545
0.76794987
0.76813027
0.76829662
0.76844982
0.76859072
0.76872016
0.7688389
0.76894771
0.76904727
0.76913827
0.76922135
0.7692971
0.76936609
0.76942885
0.73824168
0.73964482
0.74102079
0.7423424
0.74363889
0.74492273
0.74617305
0.74738872
0.74856867
0.74971202
0.75081802
0.75188604
0.75291562
0.75390647
0.75485841
0.75577142
0.75664562
0.75748128
0.75827879
0.75903864
0.75976146
0.76044797
0.76109898
0.76171536
0.76229809
0.76284816
0.76336666
0.76385466
0.76431332
0.76474377
0.76514719
0.76552475
0.7658776
0.76620693
0.76651387
0.76679956
0.76706511
0.76731162
0.76754014
0.7677517
0.76794731
0.76812792
0.76829448
0.76844787
0.76858896
0.76871855
0.76883745
0.76894639
0.76904608
0.7691372
0.76922039
0.76929624
0.76936532
0.76942818
0.73821245
0.73961688
0.74099417
0.74231718
0.74361417
0.74489918
0.74615064
0.7473674
0.74854841
0.74969278
0.75079975
0.75186872
0.75289922
0.75389094
0.75484372
0.75575754
0.75663252
0.75746893
0.75826716
0.7590277
0.75975119
0.76043833
0.76108994
0.7617069
0.76229017
0.76284077
0.76335976
0.76384824
0.76430735
0.76473822
0.76514204
0.76551997
0.76587319
0.76620285
0.7665101
0.76679609
0.76706192
0.76730868
0.76753745
0.76774923
0.76794505