/*--------------------------------*- C++ -*----------------------------------*\
| =========                 |                                                 |
| \\      /  F ield         | OpenFOAM: The Open Source CFD Toolbox           |
|  \\    /   O peration     | Version:  2312                                  |
|   \\  /    A nd           | Website:  www.openfoam.com                      |
|    \\/     M anipulation  |                                                 |
\*---------------------------------------------------------------------------*/
FoamFile
{
    version     2.0;
    format      ascii;
    arch        "LSB;label=32;scalar=64";
    class       volScalarField;
    location    "0.03";
    object      nut;
}
// * * * * * * * * * * * * * * * * * * * * * * * * * * * * * * * * * * * * * //

dimensions      [0 2 -1 0 0 0 0];

internalField   nonuniform List<scalar> 
3250
(
0.03500555
0.035289056
0.035569829
0.035847316
0.036120903
0.036389957
0.036653898
0.03691207
0.037163881
0.03740878
0.037646261
0.037875869
0.038097199
0.0383099
0.038513679
0.038708298
0.038893585
0.039069424
0.039235766
0.039392622
0.039540065
0.039678227
0.039807296
0.039927515
0.040039177
0.04014262
0.040238224
0.040326405
0.040407612
0.040482319
0.040551026
0.040614247
0.040672511
0.040726355
0.040776322
0.040822951
0.040866781
0.040908341
0.040948151
0.040986714
0.041024517
0.041062029
0.041099698
0.041137961
0.035044303
0.035292775
0.03553973
0.035784405
0.036026105
0.036264089
0.036497475
0.03672593
0.036948968
0.037166031
0.037376622
0.037580299
0.03777667
0.037965397
0.038146194
0.03831883
0.038483132
0.038638981
0.03878632
0.038925148
0.039055523
0.039177559
0.039291423
0.039397334
0.039495557
0.039586403
0.039670222
0.039747399
0.039818351
0.03988352
0.039943372
0.039998388
0.040049063
0.040095901
0.04013941
0.0401801
0.040218475
0.040255034
0.040290266
0.040324649
0.040358642
0.040392686
0.040427203
0.040462629
0.035047701
0.035261113
0.035473527
0.035684318
0.035892835
0.036098506
0.036300898
0.036499417
0.036693451
0.03688237
0.037065744
0.03724316
0.037414253
0.037578704
0.037736238
0.037886631
0.038029709
0.038165352
0.038293493
0.038414121
0.038527277
0.038633058
0.03873161
0.038823127
0.038907849
0.038986059
0.039058077
0.039124257
0.039184985
0.039240671
0.039291746
0.03933866
0.039381875
0.039421863
0.039459099
0.039494061
0.039527223
0.039559055
0.039590017
0.039620558
0.039651114
0.039682104
0.039713926
0.039747007
0.034970054
0.035149376
0.03532829
0.035506255
0.035682745
0.035857286
0.03602953
0.036198605
0.036363947
0.036525209
0.036681884
0.036833498
0.036979746
0.037120334
0.037255002
0.037383529
0.037505741
0.037621514
0.037730773
0.037833497
0.037929714
0.038019504
0.038102993
0.038180354
0.038251804
0.038317599
0.038378032
0.03843343
0.038484149
0.038530569
0.038573093
0.038612141
0.038648145
0.038681549
0.038712799
0.038742347
0.03877064
0.038798121
0.038825226
0.038852383
0.038880003
0.038908485
0.038938211
0.0389696
0.03476744
0.03491516
0.035063119
0.035210731
0.035357449
0.035502718
0.035645889
0.035786579
0.035924371
0.036058846
0.036189631
0.036316461
0.036438945
0.036556753
0.03666961
0.036777289
0.036879614
0.036976456
0.037067735
0.037153423
0.037233536
0.037308141
0.037377348
0.037441314
0.037500234
0.037554344
0.037603915
0.037649248
0.037690677
0.037728557
0.037763267
0.037795201
0.03782477
0.037852393
0.037878495
0.037903504
0.037927849
0.037951952
0.037976231
0.038001092
0.038026934
0.038054137
0.03808307
0.038114149
0.034411015
0.034528894
0.034647281
0.034765739
0.034883824
0.035001087
0.035117067
0.035231358
0.035343584
0.035453416
0.035560503
0.035664464
0.035764954
0.035861664
0.035954332
0.036042738
0.03612671
0.036206119
0.036280884
0.036350973
0.036416397
0.036477212
0.036533521
0.036585465
0.036633227
0.036677026
0.036717116
0.036753781
0.036787337
0.036818119
0.036846488
0.036872822
0.036897511
0.036920959
0.036943575
0.03696577
0.036987957
0.037010546
0.037033938
0.037058527
0.037084698
0.037112822
0.037143258
0.037176391
0.03388612
0.033976345
0.034067527
0.034159392
0.034251511
0.034343459
0.034434835
0.034525259
0.034614368
0.034701819
0.034787274
0.034870402
0.034950895
0.035028472
0.035102889
0.035173942
0.035241465
0.035305339
0.035365486
0.035421872
0.035474509
0.035523449
0.035568789
0.035610662
0.035649244
0.035684742
0.035717398
0.035747486
0.035775305
0.03580118
0.035825456
0.035848499
0.035870686
0.035892405
0.035914055
0.035936033
0.035958741
0.035982573
0.036007922
0.036035167
0.036064681
0.036096829
0.036131945
0.036170388
0.03321884
0.033283616
0.033349807
0.033417149
0.033485286
0.03355387
0.03362256
0.033691017
0.033758909
0.033825912
0.033891711
0.033956006
0.034018518
0.034078991
0.034137203
0.034192965
0.034246127
0.034296577
0.034344245
0.034389104
0.034431165
0.034470484
0.034507153
0.034541304
0.034573106
0.034602759
0.034630499
0.034656588
0.034681315
0.034704994
0.034727959
0.034750561
0.034773167
0.034796152
0.034819898
0.034844793
0.034871222
0.034899567
0.034930202
0.034963493
0.034999799
0.035039452
0.035082796
0.035130127
0.03246035
0.032501106
0.032544037
0.032588661
0.032634649
0.032681711
0.032729561
0.032777907
0.032826458
0.032874918
0.032923003
0.032970441
0.033016979
0.033062388
0.033106465
0.033149043
0.033189984
0.033229192
0.033266606
0.033302205
0.033336008
0.033368069
0.033398483
0.03342738
0.033454924
0.03348131
0.033506766
0.033531544
0.033555922
0.033580202
0.033604703
0.033629762
0.033655728
0.033682962
0.033711828
0.033742693
0.033775923
0.033811882
0.033850921
0.033893386
0.033939595
0.033989875
0.03404456
0.034103864
0.031641246
0.031656161
0.03167296
0.031692347
0.031714123
0.031738041
0.031763879
0.031791417
0.031820424
0.031850675
0.031881921
0.031913888
0.031946319
0.031978971
0.03201162
0.032044061
0.032076117
0.032107637
0.032138504
0.032168633
0.032197975
0.03222652
0.032254289
0.032281343
0.032307773
0.032333708
0.032359306
0.032384758
0.032410278
0.03243611
0.032462515
0.03248978
0.032518204
0.032548104
0.03257981
0.032613657
0.032649987
0.032689141
0.032731461
0.032777281
0.032826928
0.032880706
0.032938905
0.033001837
0.033069824
0.033142988
0.03092469
0.030919554
0.030917089
0.030917559
0.030920819
0.030926713
0.030935085
0.030945764
0.030958556
0.030973232
0.03098957
0.031007373
0.031026432
0.031046543
0.031067513
0.031089168
0.031111352
0.031133936
0.031156819
0.03117993
0.031203234
0.031226733
0.031250456
0.031274456
0.031298823
0.031323678
0.031349173
0.031375489
0.031402829
0.03143142
0.031461509
0.03149336
0.031527251
0.031563473
0.031602326
0.03164412
0.031689166
0.031737777
0.031790262
0.031846924
0.031908059
0.031973921
0.032044787
0.032120946
0.0322027
0.032290095
0.030281276
0.030259171
0.030240089
0.030224308
0.030211738
0.030202281
0.030195828
0.030192253
0.030191406
0.030193115
0.030197197
0.030203468
0.030211743
0.030221844
0.030233602
0.03024686
0.030261482
0.030277355
0.030294388
0.030312523
0.030331726
0.030351991
0.030373347
0.030395862
0.030419629
0.030444764
0.030471412
0.03049974
0.030529938
0.030562217
0.030596808
0.030633952
0.030673906
0.030716932
0.030763294
0.030813269
0.030867141
0.030925188
0.030987691
0.031054921
0.031127121
0.031204527
0.031287381
0.03137594
0.031470482
0.031571023
0.029739202
0.029703147
0.029670418
0.029641321
0.029615819
0.029593859
0.029575375
0.029560276
0.029548447
0.029539754
0.029534046
0.029531164
0.029530947
0.029533238
0.029537884
0.029544748
0.029553704
0.02956465
0.029577507
0.029592223
0.029608771
0.029627154
0.0296474
0.029669568
0.029693751
0.029720045
0.029748576
0.029779499
0.029812989
0.029849237
0.029888453
0.029930859
0.029976689
0.030026197
0.030079586
0.030137116
0.030199042
0.030265621
0.030337096
0.030413709
0.030495668
0.03058319
0.030676493
0.030775809
0.030881393
0.030993242
0.029307935
0.029260834
0.029217348
0.029177786
0.029142155
0.029110437
0.029082598
0.029058579
0.029038293
0.02902163
0.029008465
0.028998659
0.028992072
0.02898856
0.028987986
0.028990222
0.028995151
0.029002682
0.029012745
0.029025297
0.029040312
0.029057785
0.02907774
0.029100228
0.029125356
0.029153172
0.029183796
0.029217374
0.029254064
0.02929404
0.02933749
0.029384609
0.029435599
0.029490659
0.029550046
0.029613984
0.029682694
0.029756396
0.029835309
0.029919647
0.030009593
0.030105346
0.030207104
0.030315073
0.030429492
0.030550366
0.028982848
0.028927273
0.02887558
0.028828066
0.028784769
0.0287457
0.028710851
0.028680184
0.028653632
0.028631105
0.028612493
0.028597675
0.02858652
0.028578896
0.028574675
0.028573733
0.028575965
0.028581298
0.02858966
0.028601018
0.028615316
0.028632545
0.028652726
0.028675898
0.028702086
0.028731419
0.028764004
0.028799961
0.028839429
0.028882563
0.028929532
0.028980515
0.029035701
0.029095285
0.029159485
0.029228508
0.02930255
0.029381813
0.029466498
0.029556791
0.029652864
0.029754901
0.029863084
0.029977603
0.030098676
0.030226338
0.028750865
0.028688905
0.028631085
0.028577669
0.028528713
0.028484253
0.028444295
0.028408819
0.02837777
0.028351071
0.028328622
0.028310309
0.028296007
0.028285595
0.028278946
0.028275948
0.028276505
0.028280568
0.028288008
0.028298763
0.028312809
0.028330136
0.02835075
0.028374676
0.028401961
0.028432697
0.028466984
0.028504931
0.028546665
0.028592331
0.028642082
0.028696086
0.028754521
0.028817556
0.028885405
0.028958244
0.029036259
0.029119638
0.029208567
0.029303213
0.029403742
0.029510327
0.029623136
0.029742349
0.029868167
0.030000654
0.02859582
0.028529051
0.028466664
0.028408864
0.028355731
0.028307317
0.028263651
0.02822472
0.028190475
0.028160842
0.028135728
0.028115027
0.02809862
0.028086382
0.028078195
0.028073967
0.028073585
0.028076901
0.028083877
0.028094433
0.028108533
0.028126156
0.028147302
0.028171993
0.028200274
0.028232217
0.02826791
0.028307455
0.02835097
0.028398588
0.028450455
0.028506727
0.028567567
0.028633131
0.028703625
0.028779209
0.028860058
0.028946351
0.029038263
0.029135948
0.029239566
0.029349284
0.029465263
0.029587672
0.029716698
0.029852436
0.02849993
0.028429648
0.028364009
0.028303116
0.028247059
0.028195899
0.028149648
0.028108307
0.028071845
0.0280402
0.028013284
0.027990992
0.027973209
0.02795981
0.027950687
0.027945714
0.027944775
0.027947756
0.027954577
0.027965166
0.027979479
0.027997486
0.02801918
0.028044577
0.028073714
0.028106653
0.02814347
0.028184262
0.028229137
0.028278221
0.02833165
0.028389571
0.028452135
0.028519494
0.028591842
0.02866933
0.028752126
0.028840401
0.028934324
0.029034038
0.029139702
0.029251476
0.029369518
0.029493989
0.029625066
0.02976287
0.028525702
0.028448256
0.028375334
0.028307184
0.02824393
0.028185671
0.028132478
0.028084389
0.028041394
0.02800345
0.027970493
0.027942435
0.027919171
0.027900584
0.027886544
0.027876932
0.027871615
0.027870474
0.027873399
0.027880297
0.027891092
0.027905722
0.027924161
0.027946393
0.027972429
0.0280023
0.028036056
0.028073769
0.028115528
0.028161434
0.028211606
0.028266173
0.028325275
0.028389055
0.02845766
0.028531276
0.028610048
0.028694141
0.028783718
0.028878945
0.028979957
0.029086912
0.029199967
0.029319278
0.029445
0.029577304
0.02971633
0.028508631
0.028428951
0.028353938
0.028283829
0.028218756
0.028158826
0.028104107
0.028054635
0.028010405
0.027971376
0.027937483
0.027908632
0.027884715
0.02786561
0.027851197
0.027841332
0.027835879
0.027834713
0.02783772
0.027844801
0.027855873
0.027870875
0.027889762
0.027912514
0.027939133
0.027969642
0.028004087
0.028042532
0.028085057
0.02813176
0.028182753
0.02823816
0.028298115
0.028362756
0.028432224
0.028506703
0.028586332
0.028671272
0.028761684
0.02885773
0.028959541
0.029067273
0.029181082
0.029301123
0.02942755
0.029560523
0.029700205
0.028513806
0.028432273
0.02835556
0.028283872
0.028217351
0.028156104
0.028100203
0.02804968
0.028004528
0.027964709
0.027930152
0.027900763
0.027876428
0.027857019
0.027842404
0.027832439
0.027826983
0.027825904
0.027829081
0.027836407
0.027847791
0.027863164
0.027882475
0.027905699
0.027932829
0.027963883
0.027998899
0.028037935
0.028081066
0.028128385
0.028179998
0.028236024
0.028296594
0.028361844
0.028431904
0.028506961
0.028587149
0.028672626
0.028763552
0.028860086
0.028962354
0.029070514
0.029184722
0.029305131
0.029431893
0.029565164
0.029705119
0.028534047
0.028450915
0.028372762
0.028299754
0.028232032
0.028169708
0.028112851
0.028061493
0.028015625
0.027975204
0.027940159
0.027910392
0.027885784
0.0278662
0.027851498
0.027841533
0.027836156
0.02783523
0.027838625
0.027846226
0.027857936
0.027873679
0.027893397
0.027917057
0.027944647
0.027976178
0.028011682
0.028051212
0.028094837
0.028142647
0.028194742
0.028251239
0.028312263
0.028377949
0.028448421
0.028523866
0.028604416
0.028690226
0.028781455
0.02887826
0.028980764
0.029089127
0.029203504
0.029324047
0.029450908
0.02958424
0.029724227
0.028653316
0.028564015
0.028479529
0.028400119
0.028325962
0.028257206
0.028193963
0.028136303
0.028084252
0.028037801
0.027996904
0.027961483
0.027931437
0.027906645
0.027886966
0.027872251
0.027862345
0.027857096
0.027856358
0.027859994
0.027867884
0.027879922
0.027896025
0.02791613
0.027940196
0.027968204
0.028000161
0.028036093
0.028076047
0.028120089
0.028168303
0.028220787
0.028277653
0.028339024
0.028405033
0.028475801
0.028551509
0.028632293
0.028718305
0.028809702
0.02890664
0.029009242
0.029117666
0.029232067
0.029352599
0.029479413
0.02961266
0.02975253
0.028690657
0.028600016
0.028514293
0.028433747
0.028358562
0.028288888
0.028224836
0.028166473
0.028113826
0.028066881
0.028025589
0.027989868
0.027959609
0.027934684
0.027914964
0.027900278
0.027890466
0.02788537
0.027884837
0.027888725
0.027896906
0.027909268
0.02792572
0.027946192
0.027970637
0.027999032
0.028031377
0.028067693
0.028108022
0.028152426
0.028200985
0.028253794
0.028310962
0.02837261
0.028438867
0.028509854
0.028585748
0.028666685
0.028752816
0.028844297
0.028941284
0.029043898
0.029152296
0.029266636
0.029387071
0.029513751
0.029646826
0.029786494
0.028731279
0.028639377
0.028552511
0.028470922
0.028394797
0.028324288
0.028259504
0.028200512
0.028147335
0.028099957
0.028058325
0.028022354
0.027991931
0.027966924
0.02794718
0.027932541
0.02792284
0.02791791
0.027917591
0.027921734
0.027930202
0.027942879
0.027959667
0.027980489
0.028005293
0.028034049
0.028066752
0.028103419
0.028144088
0.028188816
0.02823768
0.028290772
0.028348197
0.028410075
0.028476532
0.028547692
0.02862372
0.028704761
0.028790961
0.028882476
0.028979461
0.029082036
0.02919036
0.029304589
0.029424877
0.029551376
0.029684232
0.029823648
0.028773358
0.028680256
0.02859232
0.02850976
0.028432763
0.028361482
0.028296025
0.028236458
0.0281828
0.028135032
0.028093098
0.028056909
0.02802635
0.028001278
0.027981537
0.027966963
0.027957383
0.027952625
0.027952521
0.027956916
0.027965666
0.027978649
0.02799576
0.028016916
0.02804206
0.028071158
0.028104197
0.028141191
0.028182173
0.028227198
0.028276338
0.028329684
0.028387337
0.028449414
0.028516042
0.028587343
0.028663476
0.02874459
0.02883083
0.02892235
0.029019305
0.029121814
0.029230036
0.029344128
0.029464244
0.029590537
0.029723151
0.029862293
0.02891472
0.028815581
0.028721392
0.02863245
0.028548977
0.028471163
0.028399162
0.02833308
0.02827298
0.028218879
0.028170754
0.028128547
0.028092165
0.028061487
0.028036367
0.028016642
0.028002143
0.02799269
0.027988105
0.027988214
0.027992856
0.028001882
0.02801516
0.028032582
0.028054059
0.028079528
0.028108949
0.028142306
0.028179608
0.028220884
0.028266186
0.028315582
0.028369161
0.028427022
0.028489279
0.028556057
0.02862748
0.0287037
0.02878487
0.028871133
0.028962642
0.029059553
0.029161982
0.029270091
0.029384034
0.029503968
0.029630045
0.029762408
0.029901268
0.028957434
0.028857175
0.028761944
0.028672048
0.028587713
0.028509131
0.028436453
0.028369785
0.028309188
0.028254675
0.028206222
0.028163765
0.028127209
0.028096427
0.028071269
0.02805157
0.02803715
0.028027826
0.028023413
0.028023732
0.028028615
0.028037907
0.028051471
0.028069192
0.028090977
0.028116757
0.028146487
0.028180147
0.028217741
0.028259296
0.028304859
0.028354497
0.028408294
0.028466348
0.028528772
0.028595689
0.028667222
0.028743518
0.028824734
0.028911011
0.029002503
0.029099363
0.029201708
0.029309699
0.029423492
0.029543243
0.029669104
0.029801216
0.029939788
0.028998913
0.028897573
0.028801349
0.028710549
0.0286254
0.028546093
0.028472779
0.028405562
0.028344498
0.028289601
0.028240843
0.028198157
0.028161441
0.028130566
0.028105382
0.028085713
0.028071375
0.02806218
0.028057936
0.02805846
0.028063577
0.028073127
0.028086967
0.028104977
0.028127057
0.028153135
0.028183161
0.028217111
0.028254985
0.028296806
0.028342618
0.028392485
0.028446489
0.028504727
0.028567308
0.028634354
0.02870599
0.028782357
0.028863614
0.028949901
0.029041373
0.029138181
0.029240443
0.029348319
0.029461965
0.029581538
0.029707188
0.029839052
0.029977313
0.029038777
0.028936412
0.028839248
0.028747593
0.028661676
0.028581686
0.028507773
0.028440038
0.028378537
0.028323282
0.02827424
0.028231342
0.028194482
0.028163526
0.02813832
0.028118685
0.02810443
0.028095362
0.028091284
0.028092007
0.028097351
0.02810715
0.028121256
0.028139543
0.028161908
0.028188272
0.028218582
0.02825281
0.028290952
0.028333027
0.028379078
0.028429165
0.028483367
0.028541779
0.028604511
0.028671681
0.028743415
0.028819849
0.028901145
0.028987443
0.029078895
0.029175653
0.029277836
0.029385601
0.029499107
0.02961851
0.029743959
0.029875582
0.030013486
0.02907681
0.028973476
0.028875423
0.028782963
0.02869632
0.028615687
0.028541209
0.028472988
0.028411077
0.028355486
0.02830618
0.028263085
0.028226094
0.028195068
0.028169846
0.028150246
0.028136074
0.028127131
0.028123215
0.028124132
0.028129695
0.028139734
0.028154096
0.02817265
0.028195288
0.028221928
0.028252511
0.028287005
0.028325404
0.028367724
0.028414003
0.0284643
0.028518693
0.028577274
0.02864015
0.02870744
0.02877927
0.028855768
0.028937104
0.029023412
0.029114847
0.02921156
0.029313668
0.02942133
0.029534704
0.029653947
0.029779212
0.029910635
0.030048368
0.030192543
0.029112896
0.029008647
0.028909756
0.028816535
0.028729209
0.028647969
0.028572961
0.028504283
0.028441988
0.028386083
0.02833653
0.028293254
0.028256142
0.028225053
0.028199821
0.028180259
0.028166171
0.02815735
0.028153591
0.028154695
0.028160469
0.02817074
0.028185348
0.028204159
0.028227059
0.028253963
0.028284807
0.028319558
0.028358204
0.028400758
0.028447257
0.028497758
0.028552334
0.028611077
0.028674093
0.028741499
0.028813422
0.028889985
0.02897136
0.029057681
0.029149102
0.029245773
0.029347812
0.029455379
0.029568631
0.029687725
0.029812819
0.029944058
0.030081575
0.030225637
0.029146986
0.029041872
0.028942191
0.028848254
0.028760286
0.028678476
0.028602969
0.028533863
0.028471208
0.028415009
0.028365227
0.028321782
0.028284561
0.028253416
0.028228177
0.028208657
0.02819465
0.028185949
0.028182343
0.028183627
0.028189605
0.028200098
0.028214943
0.028233999
0.028257152
0.028284308
0.028315404
0.0283504
0.028389283
0.028432063
0.028478773
0.028529469
0.028584222
0.028643122
0.028706274
0.028773793
0.028845806
0.028922433
0.029003848
0.029090184
0.029181595
0.02927823
0.029380207
0.029487685
0.029600824
0.029719781
0.029844714
0.029975776
0.030113103
0.030256941
0.029179073
0.029073145
0.028972721
0.028878111
0.028789539
0.028707193
0.028631218
0.028561711
0.02849872
0.028442247
0.028392252
0.028348652
0.028311329
0.028280135
0.028254895
0.028235416
0.028221491
0.028212907
0.028209448
0.028210906
0.02821708
0.028227785
0.028242857
0.028262149
0.028285542
0.028312941
0.028344278
0.028379509
0.028418619
0.028461615
0.028508529
0.028559412
0.028614335
0.028673388
0.028736671
0.0288043
0.028876401
0.028953094
0.029034549
0.029120902
0.029212305
0.029308909
0.02941083
0.029518228
0.029631262
0.029750091
0.029874874
0.030005766
0.030142905
0.030286522
0.029209182
0.029102489
0.029001367
0.028906125
0.028816987
0.028734139
0.028657727
0.028587844
0.028524539
0.028467812
0.028417618
0.028373874
0.02833646
0.028305222
0.028279984
0.028260548
0.028246703
0.028238232
0.028234915
0.028236539
0.028242901
0.028253811
0.028269099
0.028288617
0.02831224
0.028339871
0.028371437
0.028406894
0.028446221
0.028489425
0.028536533
0.028587597
0.028642685
0.028701883
0.028765294
0.02883303
0.028905217
0.028981976
0.029063472
0.029149844
0.029241244
0.029337821
0.029439691
0.029547016
0.029659954
0.029778665
0.029903308
0.030034039
0.030170997
0.030314408
0.029237358
0.029129949
0.029028173
0.02893234
0.028842671
0.028759354
0.028682532
0.028612299
0.028548701
0.028491736
0.02844136
0.028397483
0.028359984
0.02832871
0.028303477
0.028284084
0.028270317
0.028261955
0.028258775
0.028260559
0.0282671
0.028278205
0.0282937
0.028313433
0.028337276
0.028365128
0.028396914
0.028432585
0.028472121
0.028515522
0.028562818
0.028614054
0.0286693
0.02872864
0.028792174
0.028860014
0.028932286
0.029009109
0.029090647
0.02917704
0.029268439
0.029364993
0.029466819
0.029574077
0.029686927
0.029805528
0.029930042
0.030060622
0.03019741
0.030340628
0.029263659
0.029155581
0.029053196
0.02895681
0.028866645
0.028782889
0.028705684
0.028635125
0.028571254
0.02851407
0.028463524
0.028419527
0.028381953
0.028350645
0.028325418
0.028306068
0.028292377
0.02828412
0.028281071
0.028283008
0.028289721
0.028301012
0.028316704
0.028336642
0.028360694
0.028388757
0.028420752
0.028456628
0.028496362
0.028539953
0.028587427
0.028638829
0.028694227
0.028753702
0.028817355
0.028885297
0.02895765
0.029034537
0.029116118
0.029202534
0.029293934
0.029390471
0.029492257
0.029599455
0.029712223
0.029830724
0.029955116
0.030085557
0.030222184
0.030365223
0.029288154
0.029179455
0.029076502
0.028979601
0.028888973
0.028804807
0.028727245
0.028656381
0.028592257
0.028534869
0.028484167
0.028440059
0.028402417
0.02837108
0.028345861
0.028326554
0.028312937
0.028304781
0.028301858
0.028303941
0.028310817
0.028322285
0.028338164
0.028358297
0.028382548
0.028410811
0.028443005
0.028479077
0.028518999
0.028562771
0.028610415
0.028661976
0.028717518
0.028777125
0.028840892
0.028908932
0.028981365
0.029058315
0.029139938
0.029226378
0.029317784
0.029414305
0.029516057
0.0296232
0.029735895
0.029854302
0.029978582
0.030108892
0.03024537
0.030388242
0.029310919
0.029201643
0.029098164
0.029000782
0.028909722
0.028825174
0.02874728
0.028676133
0.028611774
0.028554197
0.02850335
0.028459141
0.028421437
0.028390076
0.028364868
0.028345603
0.028332057
0.028323998
0.028321194
0.028323417
0.028330447
0.028342083
0.028358141
0.028378458
0.028402898
0.028431351
0.028463734
0.02849999
0.028540092
0.028584036
0.028631842
0.028683554
0.028739236
0.028798967
0.028862845
0.028930979
0.029003491
0.029080502
0.029162167
0.029248632
0.029340045
0.029436555
0.029538276
0.02964537
0.029757997
0.029876318
0.030000495
0.030130683
0.030267023
0.030409739
0.029332039
0.029222224
0.029118257
0.029020427
0.028928964
0.028844061
0.028765858
0.028694448
0.028629871
0.028572119
0.02852114
0.028476837
0.028439077
0.028407696
0.028382499
0.028363276
0.028349799
0.028341833
0.028339143
0.028341498
0.028348675
0.028360471
0.028376696
0.028397188
0.028421807
0.02845044
0.028483001
0.028519433
0.028559705
0.028603812
0.028651773
0.028703629
0.028759443
0.028819293
0.028883277
0.028951502
0.029024089
0.02910116
0.029182869
0.02926936
0.029360781
0.029457283
0.029558978
0.029666028
0.029778593
0.029896835
0.030020915
0.03015099
0.0302872
0.030429772
0.029351608
0.029241282
0.029136858
0.02903861
0.028946773
0.028861538
0.028783049
0.028711395
0.028646616
0.028588703
0.028537602
0.028493214
0.028455404
0.028424005
0.028398822
0.02837964
0.028366228
0.028358351
0.028355769
0.028358248
0.028365565
0.028377511
0.028393895
0.028414552
0.02843934
0.028468143
0.028500873
0.028537471
0.028577904
0.028622165
0.028670272
0.028722265
0.028778205
0.02883817
0.028902254
0.028970567
0.029043227
0.029120357
0.029202107
0.029288625
0.029380056
0.029476552
0.029578225
0.029685235
0.029797744
0.029915913
0.030039904
0.030169874
0.030305963
0.030448401
0.029369722
0.029258903
0.029154047
0.029055407
0.028963219
0.028877677
0.028798922
0.028727042
0.028662077
0.028604016
0.028552802
0.028508336
0.028470482
0.028439069
0.0284139
0.028394757
0.028381409
0.028373616
0.028371136
0.028373734
0.028381182
0.028393269
0.028409804
0.028430616
0.028455563
0.028484525
0.028517415
0.02855417
0.028594755
0.028639162
0.028687408
0.02873953
0.028795589
0.028855663
0.028919844
0.02898824
0.029060971
0.029138158
0.029219949
0.029306494
0.029397937
0.02949443
0.029596083
0.029703058
0.029815516
0.029933617
0.030057525
0.030187398
0.030323374
0.030465686
0.02975283
0.029625571
0.029503371
0.029386406
0.029275157
0.029169895
0.029070889
0.028978376
0.028892548
0.028813547
0.028741459
0.028676322
0.028618125
0.028566808
0.028522271
0.028484377
0.028452952
0.028427798
0.028408694
0.028395406
0.028387692
0.028385309
0.028388018
0.028395589
0.02840781
0.028424486
0.028445445
0.028470541
0.028499654
0.028532694
0.028569596
0.028610324
0.028654869
0.028703246
0.028755491
0.028811663
0.028871839
0.028936112
0.029004589
0.029077387
0.029154629
0.029236461
0.029323032
0.029414488
0.02951098
0.029612617
0.029719561
0.029831972
0.029950011
0.030073842
0.030203624
0.030339494
0.030481688
0.029902112
0.029769705
0.029641907
0.029519163
0.02940178
0.029290118
0.029184475
0.029085127
0.028992312
0.02890622
0.028826991
0.028754711
0.028689417
0.028631094
0.028579684
0.028535084
0.028497154
0.028465719
0.028440579
0.028421512
0.028408282
0.028400643
0.028398351
0.028401165
0.028408852
0.028421198
0.028438006
0.028459102
0.028484338
0.028513593
0.028546774
0.028583814
0.028624677
0.028669352
0.028717851
0.028770212
0.028826492
0.028886766
0.028951126
0.029019679
0.029092542
0.029169836
0.029251708
0.029338306
0.029429776
0.029526268
0.029627891
0.029734807
0.029847176
0.029965158
0.030088918
0.030218614
0.030354385
0.030496468
0.029918139
0.029785227
0.029656938
0.029533717
0.029415911
0.029303855
0.029197855
0.02909819
0.029005095
0.02891876
0.028839321
0.028766865
0.028701425
0.028642988
0.028591493
0.028546835
0.028508873
0.02847743
0.028452306
0.028433274
0.028420098
0.028412531
0.028410325
0.028413236
0.028421033
0.028433496
0.028450427
0.028471652
0.028497019
0.028526406
0.028559719
0.028596889
0.028637879
0.028682675
0.02873129
0.02878376
0.02884014
0.028900506
0.028964949
0.029033574
0.029106499
0.029183845
0.029265755
0.02935238
0.029443863
0.029540358
0.02964197
0.029748861
0.029861191
0.029979121
0.030102814
0.030232429
0.030368106
0.030510084
0.029932853
0.029799463
0.029670718
0.029547063
0.029428855
0.029316432
0.029210102
0.029110144
0.029016791
0.028930232
0.028850601
0.028777982
0.02871241
0.028653869
0.028602296
0.028557586
0.028519595
0.028488147
0.028463037
0.02844404
0.028430916
0.028423415
0.028421289
0.028424293
0.028432191
0.028444763
0.02846181
0.028483155
0.028508645
0.028538156
0.028571591
0.028608883
0.02864999
0.0286949
0.028743624
0.028796196
0.028852671
0.028913124
0.028977645
0.029046339
0.029119323
0.029196717
0.029278665
0.029365316
0.029456814
0.029553311
0.029654915
0.029761784
0.029874079
0.029991961
0.030115591
0.03024513
0.030380717
0.030522596
0.029946303
0.02981247
0.029683305
0.029559253
0.029440675
0.029327913
0.029221281
0.029121053
0.029027464
0.028940699
0.028860891
0.028788125
0.028722432
0.028663795
0.028612152
0.028567395
0.028529379
0.028497927
0.028472833
0.028453868
0.028440792
0.028433354
0.028431303
0.028434392
0.028442385
0.02845506
0.028472214
0.02849367
0.028519274
0.0285489
0.02858245
0.028619855
0.028661073
0.02870609
0.028754915
0.028807582
0.028864146
0.028924681
0.028989276
0.029058034
0.029131074
0.029208515
0.029290498
0.029377175
0.029468688
0.02956519
0.029666786
0.029773636
0.0298859
0.030003737
0.030127309
0.030256775
0.030392277
0.030534059
0.029958553
0.029824314
0.029694764
0.029570349
0.029451433
0.029338363
0.029231453
0.02913098
0.029037175
0.028950221
0.028870253
0.028797351
0.028731548
0.028672825
0.028621117
0.028576318
0.028538281
0.028506827
0.028481747
0.028462813
0.028449782
0.028442403
0.028440422
0.028443591
0.028451672
0.028464441
0.028481696
0.028503256
0.028528966
0.028558698
0.028592355
0.028629865
0.028671186
0.028716301
0.028765221
0.028817978
0.028874625
0.028935236
0.0289999
0.02906872
0.029141812
0.029219297
0.029301315
0.029388017
0.029479545
0.029576052
0.029677643
0.029784476
0.029896711
0.030014507
0.030138025
0.030267422
0.03040284
0.030544528
0.029969673
0.029835062
0.029705161
0.029580415
0.029461193
0.029347842
0.02924068
0.029139983
0.029045981
0.028958856
0.028878741
0.028805716
0.028739813
0.028681012
0.028629247
0.028584411
0.028546355
0.028514898
0.028489833
0.028470929
0.028457941
0.028450616
0.0284487
0.028451943
0.028460105
0.028472962
0.02849031
0.028511965
0.028537774
0.028567605
0.028601361
0.028638969
0.028680384
0.028725592
0.0287746
0.028827439
0.028884164
0.028944847
0.029009575
0.029078452
0.029151594
0.029229121
0.029311172
0.029397898
0.029489441
0.029585954
0.029687541
0.029794361
0.02990657
0.030024329
0.030147795
0.030277127
0.030412464
0.030554054
0.029979731
0.029844782
0.029714561
0.029589515
0.029470015
0.029356411
0.029249021
0.02914812
0.029053939
0.028966658
0.02888641
0.028813275
0.028747281
0.028688409
0.028636593
0.028591723
0.028553651
0.028522194
0.028497143
0.028478266
0.028465318
0.028458044
0.028456188
0.028459499
0.028467737
0.028480676
0.028498108
0.028519853
0.028545751
0.028575675
0.028609521
0.028647219
0.028688723
0.028734016
0.028783105
0.028836022
0.028892819
0.028953567
0.029018356
0.029087287
0.029160476
0.029238043
0.029320125
0.029406874
0.029498432
0.029594952
0.029696536
0.029803343
0.02991553
0.030033255
0.030156674
0.030285945
0.0304212
0.030562687
0.029988795
0.029853537
0.029723026
0.02959771
0.029477959
0.029364126
0.029256529
0.029155445
0.029061102
0.028973681
0.028893313
0.028820077
0.028754001
0.028695066
0.028643204
0.028598305
0.028560219
0.028528762
0.028503724
0.028484874
0.028471962
0.028464735
0.028462935
0.02846631
0.028474617
0.02848763
0.028505141
0.028526967
0.028552949
0.028582957