/*--------------------------------*- C++ -*----------------------------------*\
| =========                 |                                                 |
| \\      /  F ield         | OpenFOAM: The Open Source CFD Toolbox           |
|  \\    /   O peration     | Version:  2312                                  |
|   \\  /    A nd           | Website:  www.openfoam.com                      |
|    \\/     M anipulation  |                                                 |
\*---------------------------------------------------------------------------*/
FoamFile
{
    version     2.0;
    format      ascii;
    arch        "LSB;label=32;scalar=64";
    class       volScalarField;
    location    "0.03";
    object      p;
}
// * * * * * * * * * * * * * * * * * * * * * * * * * * * * * * * * * * * * * //

dimensions      [1 -1 -2 0 0 0 0];

internalField   nonuniform List<scalar> 
3250
(
100003.97
100004.02
100004.06
100004.1
100004.14
100004.18
100004.21
100004.24
100004.27
100004.29
100004.31
100004.33
100004.34
100004.36
100004.36
100004.37
100004.37
100004.36
100004.36
100004.35
100004.34
100004.32
100004.3
100004.28
100004.25
100004.22
100004.19
100004.15
100004.11
100004.07
100004.02
100003.97
100003.92
100003.86
100003.8
100003.74
100003.68
100003.61
100003.54
100003.47
100003.39
100003.31
100003.23
100003.15
100002.23
100002.26
100002.28
100002.3
100002.32
100002.34
100002.36
100002.38
100002.39
100002.4
100002.41
100002.42
100002.43
100002.44
100002.45
100002.45
100002.46
100002.46
100002.46
100002.46
100002.46
100002.46
100002.46
100002.45
100002.45
100002.44
100002.44
100002.43
100002.42
100002.4
100002.39
100002.37
100002.36
100002.34
100002.32
100002.29
100002.27
100002.25
100002.22
100002.19
100002.16
100002.13
100002.11
100002.08
100002.18
100002.2
100002.22
100002.23
100002.25
100002.26
100002.27
100002.29
100002.3
100002.31
100002.31
100002.32
100002.33
100002.34
100002.34
100002.35
100002.35
100002.36
100002.36
100002.37
100002.37
100002.37
100002.38
100002.38
100002.38
100002.38
100002.38
100002.38
100002.38
100002.38
100002.37
100002.37
100002.36
100002.35
100002.34
100002.33
100002.32
100002.31
100002.29
100002.28
100002.26
100002.25
100002.23
100002.22
100002.3
100002.32
100002.33
100002.34
100002.36
100002.37
100002.37
100002.38
100002.39
100002.4
100002.4
100002.41
100002.41
100002.42
100002.42
100002.43
100002.44
100002.44
100002.45
100002.45
100002.46
100002.47
100002.47
100002.48
100002.49
100002.49
100002.5
100002.51
100002.51
100002.51
100002.52
100002.52
100002.52
100002.52
100002.51
100002.51
100002.51
100002.5
100002.49
100002.49
100002.48
100002.48
100002.47
100002.46
100002.42
100002.43
100002.44
100002.45
100002.46
100002.46
100002.47
100002.47
100002.47
100002.48
100002.48
100002.48
100002.48
100002.49
100002.49
100002.5
100002.5
100002.51
100002.51
100002.52
100002.53
100002.54
100002.54
100002.55
100002.56
100002.57
100002.58
100002.59
100002.6
100002.61
100002.62
100002.63
100002.63
100002.64
100002.64
100002.65
100002.65
100002.65
100002.65
100002.65
100002.66
100002.66
100002.66
100002.66
100002.57
100002.58
100002.58
100002.58
100002.58
100002.58
100002.58
100002.58
100002.58
100002.58
100002.58
100002.58
100002.58
100002.58
100002.58
100002.58
100002.58
100002.59
100002.59
100002.6
100002.61
100002.62
100002.63
100002.64
100002.65
100002.66
100002.68
100002.69
100002.7
100002.72
100002.73
100002.74
100002.75
100002.76
100002.77
100002.78
100002.79
100002.8
100002.8
100002.81
100002.82
100002.83
100002.84
100002.85
100002.74
100002.74
100002.74
100002.74
100002.74
100002.73
100002.73
100002.72
100002.71
100002.71
100002.7
100002.7
100002.69
100002.69
100002.69
100002.69
100002.69
100002.69
100002.7
100002.7
100002.71
100002.72
100002.73
100002.74
100002.75
100002.77
100002.78
100002.8
100002.81
100002.83
100002.84
100002.86
100002.87
100002.89
100002.9
100002.91
100002.93
100002.94
100002.95
100002.96
100002.98
100002.99
100003.01
100003.02
100002.93
100002.92
100002.92
100002.91
100002.9
100002.89
100002.88
100002.87
100002.86
100002.85
100002.84
100002.83
100002.82
100002.82
100002.81
100002.81
100002.81
100002.81
100002.81
100002.81
100002.82
100002.83
100002.84
100002.85
100002.86
100002.87
100002.89
100002.91
100002.92
100002.94
100002.96
100002.97
100002.99
100003.01
100003.03
100003.04
100003.06
100003.07
100003.09
100003.11
100003.12
100003.14
100003.16
100003.18
100003.11
100003.1
100003.09
100003.08
100003.07
100003.05
100003.04
100003.03
100003.01
100003
100002.98
100002.97
100002.96
100002.95
100002.94
100002.94
100002.93
100002.93
100002.93
100002.93
100002.93
100002.94
100002.95
100002.96
100002.97
100002.98
100003
100003.02
100003.03
100003.05
100003.07
100003.09
100003.11
100003.13
100003.15
100003.16
100003.18
100003.2
100003.22
100003.24
100003.26
100003.28
100003.3
100003.32
100003.3
100003.29
100003.29
100003.28
100003.26
100003.25
100003.23
100003.22
100003.2
100003.18
100003.16
100003.14
100003.13
100003.11
100003.1
100003.08
100003.07
100003.06
100003.06
100003.05
100003.05
100003.05
100003.05
100003.05
100003.06
100003.07
100003.08
100003.09
100003.11
100003.12
100003.14
100003.16
100003.18
100003.2
100003.22
100003.24
100003.26
100003.28
100003.3
100003.32
100003.34
100003.36
100003.38
100003.4
100003.43
100003.45
100003.47
100003.46
100003.45
100003.44
100003.42
100003.41
100003.39
100003.37
100003.35
100003.33
100003.31
100003.28
100003.26
100003.25
100003.23
100003.21
100003.2
100003.19
100003.17
100003.17
100003.16
100003.16
100003.16
100003.16
100003.16
100003.17
100003.18
100003.19
100003.21
100003.22
100003.24
100003.26
100003.28
100003.3
100003.32
100003.34
100003.36
100003.38
100003.4
100003.42
100003.44
100003.46
100003.49
100003.51
100003.53
100003.56
100003.63
100003.62
100003.61
100003.59
100003.57
100003.55
100003.53
100003.51
100003.49
100003.46
100003.44
100003.41
100003.39
100003.37
100003.35
100003.33
100003.31
100003.3
100003.28
100003.27
100003.27
100003.26
100003.26
100003.26
100003.26
100003.27
100003.27
100003.28
100003.29
100003.31
100003.32
100003.34
100003.36
100003.38
100003.4
100003.42
100003.44
100003.46
100003.48
100003.51
100003.53
100003.55
100003.57
100003.6
100003.62
100003.65
100003.77
100003.76
100003.74
100003.73
100003.71
100003.68
100003.66
100003.64
100003.61
100003.58
100003.56
100003.53
100003.51
100003.48
100003.46
100003.44
100003.42
100003.4
100003.38
100003.37
100003.36
100003.35
100003.35
100003.35
100003.35
100003.35
100003.36
100003.36
100003.37
100003.39
100003.4
100003.42
100003.45
100003.46
100003.47
100003.49
100003.51
100003.53
100003.55
100003.57
100003.59
100003.62
100003.64
100003.66
100003.68
100003.7
100003.9
100003.89
100003.87
100003.85
100003.83
100003.8
100003.78
100003.75
100003.72
100003.69
100003.66
100003.64
100003.61
100003.58
100003.56
100003.53
100003.51
100003.49
100003.47
100003.46
100003.44
100003.43
100003.43
100003.42
100003.42
100003.42
100003.42
100003.43
100003.43
100003.44
100003.45
100003.46
100003.47
100003.49
100003.52
100003.54
100003.56
100003.58
100003.6
100003.62
100003.64
100003.66
100003.68
100003.7
100003.72
100003.74
100004.01
100004
100003.98
100003.96
100003.93
100003.91
100003.88
100003.85
100003.82
100003.79
100003.76
100003.73
100003.7
100003.67
100003.64
100003.61
100003.59
100003.57
100003.55
100003.53
100003.51
100003.49
100003.48
100003.47
100003.47
100003.47
100003.47
100003.47
100003.47
100003.48
100003.49
100003.5
100003.51
100003.53
100003.55
100003.56
100003.58
100003.6
100003.62
100003.64
100003.66
100003.68
100003.7
100003.71
100003.73
100003.75
100004.11
100004.1
100004.08
100004.05
100004.03
100004
100003.97
100003.94
100003.91
100003.87
100003.84
100003.81
100003.77
100003.74
100003.71
100003.69
100003.67
100003.63
100003.6
100003.58
100003.56
100003.54
100003.53
100003.51
100003.51
100003.5
100003.5
100003.5
100003.5
100003.51
100003.51
100003.52
100003.53
100003.54
100003.56
100003.58
100003.59
100003.61
100003.63
100003.64
100003.66
100003.68
100003.69
100003.71
100003.73
100003.74
100004.21
100004.19
100004.17
100004.14
100004.11
100004.08
100004.05
100004.02
100003.98
100003.95
100003.91
100003.88
100003.84
100003.8
100003.77
100003.73
100003.69
100003.67
100003.65
100003.62
100003.6
100003.58
100003.56
100003.55
100003.54
100003.53
100003.52
100003.52
100003.52
100003.52
100003.52
100003.53
100003.54
100003.55
100003.56
100003.57
100003.59
100003.6
100003.62
100003.63
100003.65
100003.66
100003.68
100003.69
100003.7
100003.72
100004.29
100004.27
100004.25
100004.22
100004.19
100004.16
100004.12
100004.09
100004.05
100004.01
100003.97
100003.93
100003.9
100003.86
100003.82
100003.78
100003.75
100003.72
100003.69
100003.66
100003.63
100003.61
100003.59
100003.57
100003.55
100003.54
100003.53
100003.53
100003.52
100003.52
100003.52
100003.52
100003.53
100003.54
100003.54
100003.55
100003.57
100003.58
100003.59
100003.6
100003.62
100003.63
100003.64
100003.65
100003.66
100003.67
100004.38
100004.36
100004.34
100004.32
100004.29
100004.26
100004.22
100004.19
100004.15
100004.11
100004.07
100004.03
100003.99
100003.94
100003.9
100003.86
100003.82
100003.79
100003.75
100003.72
100003.69
100003.66
100003.63
100003.6
100003.58
100003.56
100003.55
100003.53
100003.52
100003.52
100003.51
100003.51
100003.51
100003.51
100003.51
100003.52
100003.53
100003.53
100003.54
100003.55
100003.56
100003.57
100003.58
100003.59
100003.6
100003.61
100003.62
100004.45
100004.43
100004.41
100004.38
100004.35
100004.32
100004.28
100004.24
100004.2
100004.16
100004.12
100004.08
100004.03
100003.99
100003.94
100003.9
100003.86
100003.82
100003.78
100003.74
100003.71
100003.67
100003.64
100003.61
100003.59
100003.57
100003.55
100003.53
100003.51
100003.5
100003.49
100003.49
100003.48
100003.48
100003.48
100003.48
100003.49
100003.49
100003.5
100003.5
100003.51
100003.52
100003.52
100003.53
100003.54
100003.54
100003.54
100004.51
100004.49
100004.47
100004.44
100004.41
100004.37
100004.34
100004.29
100004.25
100004.21
100004.16
100004.12
100004.07
100004.03
100003.98
100003.93
100003.89
100003.84
100003.8
100003.76
100003.72
100003.69
100003.65
100003.62
100003.59
100003.56
100003.54
100003.52
100003.5
100003.48
100003.47
100003.46
100003.45
100003.45
100003.44
100003.44
100003.44
100003.44
100003.44
100003.44
100003.45
100003.45
100003.45
100003.46
100003.46
100003.46
100003.46
100004.57
100004.55
100004.52
100004.49
100004.46
100004.42
100004.38
100004.34
100004.3
100004.25
100004.2
100004.15
100004.11
100004.06
100004.01
100003.96
100003.91
100003.86
100003.82
100003.77
100003.73
100003.69
100003.65
100003.62
100003.58
100003.55
100003.53
100003.5
100003.48
100003.46
100003.44
100003.43
100003.41
100003.4
100003.39
100003.39
100003.38
100003.38
100003.38
100003.38
100003.38
100003.37
100003.37
100003.37
100003.37
100003.37
100003.36
100004.64
100004.63
100004.6
100004.58
100004.54
100004.51
100004.47
100004.43
100004.38
100004.34
100004.29
100004.24
100004.19
100004.13
100004.08
100004.03
100003.98
100003.93
100003.88
100003.83
100003.78
100003.74
100003.69
100003.65
100003.61
100003.57
100003.54
100003.51
100003.48
100003.45
100003.43
100003.4
100003.38
100003.37
100003.35
100003.34
100003.33
100003.32
100003.31
100003.31
100003.3
100003.3
100003.29
100003.28
100003.28
100003.27
100003.26
100003.25
100004.7
100004.68
100004.65
100004.62
100004.59
100004.55
100004.51
100004.46
100004.42
100004.37
100004.32
100004.27
100004.21
100004.16
100004.11
100004.05
100004
100003.94
100003.89
100003.84
100003.79
100003.74
100003.69
100003.64
100003.6
100003.56
100003.52
100003.48
100003.45
100003.42
100003.39
100003.36
100003.34
100003.32
100003.3
100003.28
100003.27
100003.25
100003.24
100003.23
100003.22
100003.21
100003.2
100003.19
100003.18
100003.17
100003.15
100003.14
100004.74
100004.72
100004.69
100004.66
100004.62
100004.58
100004.54
100004.5
100004.45
100004.4
100004.34
100004.29
100004.24
100004.18
100004.12
100004.06
100004.01
100003.95
100003.89
100003.84
100003.78
100003.73
100003.68
100003.63
100003.58
100003.54
100003.49
100003.45
100003.42
100003.38
100003.35
100003.32
100003.29
100003.26
100003.24
100003.22
100003.2
100003.18
100003.16
100003.14
100003.13
100003.11
100003.1
100003.08
100003.07
100003.05
100003.04
100003.02
100004.78
100004.76
100004.73
100004.69
100004.66
100004.62
100004.57
100004.52
100004.47
100004.42
100004.37
100004.31
100004.25
100004.19
100004.13
100004.07
100004.01
100003.95
100003.89
100003.84
100003.78
100003.72
100003.67
100003.61
100003.56
100003.51
100003.47
100003.42
100003.38
100003.34
100003.3
100003.27
100003.23
100003.2
100003.17
100003.14
100003.12
100003.1
100003.07
100003.05
100003.03
100003.01
100002.99
100002.97
100002.95
100002.93
100002.91
100002.89
100004.83
100004.81
100004.79
100004.76
100004.72
100004.68
100004.64
100004.59
100004.54
100004.49
100004.44
100004.38
100004.32
100004.26
100004.2
100004.14
100004.08
100004.01
100003.95
100003.89
100003.83
100003.77
100003.71
100003.65
100003.59
100003.54
100003.48
100003.43
100003.38
100003.34
100003.29
100003.25
100003.21
100003.17
100003.14
100003.1
100003.07
100003.04
100003.01
100002.98
100002.96
100002.93
100002.91
100002.88
100002.86
100002.83
100002.81
100002.78
100002.75
100004.86
100004.84
100004.81
100004.78
100004.75
100004.71
100004.66
100004.61
100004.56
100004.51
100004.45
100004.39
100004.33
100004.27
100004.21
100004.14
100004.08
100004.01
100003.95
100003.88
100003.82
100003.75
100003.69
100003.63
100003.57
100003.51
100003.45
100003.4
100003.34
100003.29
100003.24
100003.2
100003.15
100003.11
100003.07
100003.03
100002.99
100002.96
100002.92
100002.89
100002.86
100002.83
100002.8
100002.77
100002.74
100002.71
100002.67
100002.64
100002.61
100004.89
100004.86
100004.84
100004.8
100004.76
100004.72
100004.68
100004.63
100004.57
100004.52
100004.46
100004.4
100004.33
100004.27
100004.21
100004.14
100004.07
100004
100003.94
100003.87
100003.8
100003.73
100003.67
100003.6
100003.54
100003.48
100003.41
100003.36
100003.3
100003.24
100003.19
100003.14
100003.09
100003.04
100003
100002.95
100002.91
100002.87
100002.83
100002.79
100002.76
100002.72
100002.68
100002.65
100002.61
100002.58
100002.54
100002.5
100002.46
100004.91
100004.88
100004.85
100004.82
100004.78
100004.73
100004.69
100004.63
100004.58
100004.52
100004.46
100004.4
100004.33
100004.27
100004.2
100004.13
100004.06
100003.99
100003.92
100003.85
100003.78
100003.71
100003.64
100003.57
100003.51
100003.44
100003.37
100003.31
100003.25
100003.19
100003.13
100003.08
100003.02
100002.97
100002.92
100002.87
100002.82
100002.78
100002.74
100002.69
100002.65
100002.61
100002.57
100002.53
100002.49
100002.44
100002.4
100002.36
100002.31
100004.92
100004.89
100004.86
100004.83
100004.79
100004.74
100004.69
100004.64
100004.58
100004.52
100004.46
100004.4
100004.33
100004.26
100004.19
100004.12
100004.05
100003.98
100003.9
100003.83
100003.76
100003.68
100003.61
100003.54
100003.47
100003.4
100003.33
100003.26
100003.2
100003.14
100003.07
100003.01
100002.95
100002.9
100002.84
100002.79
100002.74
100002.69
100002.64
100002.59
100002.54
100002.5
100002.45
100002.4
100002.36
100002.31
100002.26
100002.21
100002.16
100002.11
100004.93
100004.9
100004.87
100004.83
100004.79
100004.74
100004.69
100004.64
100004.58
100004.52
100004.45
100004.39
100004.32
100004.25
100004.18
100004.1
100004.03
100003.96
100003.88
100003.8
100003.73
100003.65
100003.58
100003.5
100003.43
100003.36
100003.29
100003.21
100003.15
100003.08
100003.01
100002.95
100002.88
100002.82
100002.76
100002.7
100002.65
100002.59
100002.54
100002.48
100002.43
100002.38
100002.33
100002.28
100002.22
100002.17
100002.12
100002.06
100002.01
100001.95
100004.94
100004.91
100004.87
100004.83
100004.79
100004.74
100004.69
100004.63
100004.57
100004.51
100004.44
100004.38
100004.31
100004.23
100004.16
100004.09
100004.01
100003.93
100003.85
100003.78
100003.7
100003.62
100003.54
100003.46
100003.39
100003.31
100003.24
100003.16
100003.09
100003.02
100002.95
100002.88
100002.81
100002.75
100002.68
100002.62
100002.56
100002.5
100002.44
100002.38
100002.32
100002.26
100002.21
100002.15
100002.09
100002.03
100001.97
100001.91
100001.85
100001.79
100004.94
100004.91
100004.87
100004.83
100004.79
100004.74
100004.68
100004.62
100004.56
100004.5
100004.43
100004.36
100004.29
100004.22
100004.14
100004.06
100003.98
100003.91
100003.83
100003.75
100003.66
100003.58
100003.5
100003.42
100003.34
100003.26
100003.18
100003.11
100003.03
100002.96
100002.88
100002.81
100002.74
100002.67
100002.6
100002.53
100002.46
100002.4
100002.33
100002.27
100002.21
100002.15
100002.08
100002.02
100001.96
100001.89
100001.83
100001.76
100001.7
100001.63
100004.93
100004.9
100004.87
100004.82
100004.78
100004.73
100004.67
100004.61
100004.55
100004.48
100004.41
100004.34
100004.27
100004.19
100004.12
100004.04
100003.96
100003.88
100003.79
100003.71
100003.63
100003.54
100003.46
100003.38
100003.29
100003.21
100003.13
100003.05
100002.97
100002.89
100002.81
100002.74
100002.66
100002.59
100002.51
100002.44
100002.37
100002.3
100002.23
100002.16
100002.09
100002.03
100001.96
100001.89
100001.82
100001.75
100001.68
100001.61
100001.54
100001.47
100004.93
100004.89
100004.86
100004.81
100004.76
100004.71
100004.66
100004.59
100004.53
100004.46
100004.39
100004.32
100004.25
100004.17
100004.09
100004.01
100003.93
100003.84
100003.76
100003.67
100003.59
100003.5
100003.42
100003.33
100003.24
100003.16
100003.07
100002.99
100002.91
100002.82
100002.74
100002.66
100002.58
100002.5
100002.43
100002.35
100002.27
100002.2
100002.13
100002.05
100001.98
100001.91
100001.83
100001.76
100001.69
100001.61
100001.54
100001.46
100001.39
100001.31
100004.92
100004.88
100004.84
100004.8
100004.75
100004.69
100004.64
100004.57
100004.51
100004.44
100004.37
100004.29
100004.22
100004.14
100004.06
100003.98
100003.89
100003.81
100003.72
100003.63
100003.55
100003.46
100003.37
100003.28
100003.19
100003.1
100003.02
100002.93
100002.84
100002.76
100002.67
100002.59
100002.5
100002.42
100002.34
100002.26
100002.18
100002.1
100002.02
100001.94
100001.86
100001.79
100001.71
100001.63
100001.55
100001.48
100001.4
100001.31
100001.23
100001.15
100004.9
100004.87
100004.83
100004.78
100004.73
100004.67
100004.61
100004.55
100004.48
100004.41
100004.34
100004.27
100004.19
100004.11
100004.02
100003.94
100003.85
100003.77
100003.68
100003.59
100003.5
100003.41
100003.32
100003.23
100003.14
100003.05
100002.96
100002.87
100002.78
100002.69
100002.6
100002.51
100002.42
100002.34
100002.25
100002.17
100002.08
100002
100001.91
100001.83
100001.75
100001.67
100001.59
100001.5
100001.42
100001.34
100001.25
100001.17
100001.08
100000.99
100004.89
100004.85
100004.81
100004.76
100004.71
100004.65
100004.59
100004.52
100004.46
100004.39
100004.31
100004.23
100004.15
100004.07
100003.99
100003.9
100003.81
100003.73
100003.64
100003.54
100003.45
100003.36
100003.27
100003.17
100003.08
100002.99
100002.89
100002.8
100002.71
100002.61
100002.52
100002.43
100002.34
100002.25
100002.16
100002.07
100001.98
100001.9
100001.81
100001.72
100001.63
100001.55
100001.46
100001.37
100001.29
100001.2
100001.11
100001.02
100000.93
100000.83
100004.87
100004.83
100004.78
100004.74
100004.68
100004.62
100004.56
100004.5
100004.43
100004.35
100004.28
100004.2
100004.12
100004.03
100003.95
100003.86
100003.77
100003.68
100003.59
100003.5
100003.4
100003.31
100003.21
100003.12
100003.02
100002.93
100002.83
100002.73
100002.64
100002.54
100002.45
100002.35
100002.26
100002.16
100002.07
100001.98
100001.88
100001.79
100001.7
100001.61
100001.52
100001.43
100001.34
100001.24
100001.15
100001.06
100000.97
100000.87
100000.77
100000.68
100004.84
100004.8
100004.76
100004.71
100004.65
100004.59
100004.53
100004.46
100004.39
100004.32
100004.24
100004.16
100004.08
100003.99
100003.91
100003.82
100003.73
100003.63
100003.54
100003.45
100003.35
100003.25
100003.16
100003.06
100002.96
100002.86
100002.76
100002.66
100002.57
100002.47
100002.37
100002.27
100002.17
100002.08
100001.98
100001.88
100001.79
100001.69
100001.59
100001.5
100001.4
100001.31
100001.21
100001.12
100001.02
100000.92
100000.82
100000.72
100000.62
100000.52
100004.82
100004.78
100004.73
100004.68
100004.62
100004.56
100004.5
100004.43
100004.36
100004.28
100004.2
100004.12
100004.04
100003.95
100003.86
100003.77
100003.68
100003.59
100003.49
100003.39
100003.3
100003.2
100003.1
100003
100002.9
100002.8
100002.7
100002.59
100002.49
100002.39
100002.29
100002.19
100002.09
100001.99
100001.89
100001.79
100001.69
100001.59
100001.49
100001.39
100001.29
100001.19
100001.09
100000.99
100000.89
100000.78
100000.68
100000.58
100000.47
100000.37
100004.87
100004.85
100004.82
100004.79
100004.74
100004.7
100004.64
100004.59
100004.53
100004.46
100004.39
100004.32
100004.24
100004.16
100004.08
100003.99
100003.9
100003.81
100003.72
100003.63
100003.53
100003.44
100003.34
100003.24
100003.14
100003.04
100002.94
100002.83
100002.73
100002.63
100002.52
100002.42
100002.31
100002.21
100002.1
100002
100001.9
100001.79
100001.69
100001.58
100001.48
100001.38
100001.27
100001.17
100001.07
100000.96
100000.86
100000.75
100000.65
100000.54
100000.43
100000.33
100000.22
100004.86
100004.85
100004.82
100004.79
100004.75
100004.71
100004.66
100004.61
100004.55
100004.49
100004.42
100004.35
100004.27
100004.2
100004.11
100004.03
100003.94
100003.86
100003.76
100003.67
100003.58
100003.48
100003.38
100003.28
100003.18
100003.08
100002.98
100002.87
100002.77
100002.66
100002.55
100002.45
100002.34
100002.23
100002.13
100002.02
100001.91
100001.81
100001.7
100001.59
100001.48
100001.38
100001.27
100001.16
100001.05
100000.95
100000.84
100000.73
100000.62
100000.51
100000.4
100000.29
100000.18
100000.06
100004.83
100004.81
100004.79
100004.76
100004.72
100004.67
100004.62
100004.57
100004.51
100004.45
100004.38
100004.3
100004.23
100004.15
100004.07
100003.98
100003.9
100003.81
100003.71
100003.62
100003.52
100003.42
100003.32
100003.22
100003.12
100003.02
100002.91
100002.8
100002.7
100002.59
100002.48
100002.37
100002.26
100002.15
100002.04
100001.93
100001.82
100001.71
100001.6
100001.49
100001.38
100001.27
100001.16
100001.05
100000.94
100000.83
100000.71
100000.6
100000.49
100000.38
100000.26
100000.15
100000.03
99999.915
100004.8
100004.78
100004.75
100004.72
100004.68
100004.64
100004.58
100004.53
100004.47
100004.4
100004.33
100004.26
100004.18
100004.1
100004.02
100003.93
100003.84
100003.75
100003.66
100003.56
100003.47
100003.37
100003.26
100003.16
100003.06
100002.95
100002.84
100002.74
100002.63
100002.52
100002.41
100002.3
100002.18
100002.07
100001.96
100001.85
100001.73
100001.62
100001.51
100001.39
100001.28
100001.16
100001.05
100000.94
100000.82
100000.71
100000.59
100000.47
100000.36
100000.24
100000.12
100000.01
99999.886
99999.766
100004.76
100004.74
100004.72
100004.68
100004.64
100004.59
100004.54
100004.48
100004.42
100004.36
100004.28
100004.21
100004.13
100004.05
100003.97
100003.88
100003.79
100003.7
100003.6
100003.51
100003.41
100003.3
100003.2
100003.1
100002.99
100002.88
100002.78
100002.67
100002.56
100002.44
100002.33
100002.22
100002.1
100001.99
100001.87
100001.76
100001.64
100001.53
100001.41
100001.29
100001.18
100001.06
100000.94
100000.82
100000.7
100000.59
100000.47
100000.35
100000.23
100000.11
99999.986
99999.864
99999.741
99999.618
100004.72
100004.7
100004.67
100004.64
100004.6
100004.55
100004.5
100004.44
100004.37
100004.31
100004.23
100004.16
100004.08
100004
100003.91
100003.82
100003.73
100003.64
100003.54
100003.45
100003.34
100003.24
100003.14
100003.03
100002.92
100002.82
100002.71
100002.59
100002.48
100002.37
100002.25
100002.14
100002.02
100001.9
100001.79
100001.67
100001.55
100001.43
100001.31
100001.19
100001.07
100000.95
100000.83
100000.71
100000.59
100000.46
100000.34
100000.22
100000.1
99999.973
99999.848
99999.723
99999.597
99999.471
100004.68
100004.66
100004.63
100004.59
100004.55
100004.5
100004.45
100004.39
100004.32
100004.26
100004.18
100004.11
100004.03
100003.94
100003.86
100003.77
100003.67
100003.58
100003.48
100003.38
100003.28
100003.18
100003.07
100002.96
100002.86
100002.75
100002.63
100002.52
100002.41
100002.29
100002.17
100002.06
100001.94
100001.82
100001.7
100001.58
100001.46
100001.33
100001.21
100001.09
100000.97
100000.84
100000.72
100000.59
100000.47
100000.34
100000.22
100000.09
99999.966
99999.839
99999.711
99999.583
99999.454
99999.325
100004.64
100004.61
100004.58
100004.55
100004.5
100004.45
100004.4
100004.34
100004.27
100004.2
100004.13
100004.05
100003.97
100003.89
100003.8
100003.71
100003.61
100003.52
100003.42
100003.32
100003.22
100003.11
100003
100002.9
100002.78
100002.67
100002.56
100002.44
100002.33
100002.21
100002.09
100001.97
100001.85
100001.73
100001.61
100001.48
100001.36
100001.24
100001.11
100000.99
100000.86
100000.73
100000.61
100000.48
100000.35
100000.22
100000.09
99999.965
99999.835
99999.705
99999.574
99999.443
99999.311
99999.179
100004.59
100004.57
100004.53
100004.5
100004.45
100004.4
100004.34
100004.28
100004.22
100004.15
100004.07
100003.99
100003.91
100003.83
100003.74
100003.65
100003.55
100003.45
100003.35
100003.25
100003.15
100003.04
100002.93
100002.82
100002.71
100002.6
100002.48
100002.37
100002.25
100002.13
100002.01
100001.89
100001.76
100001.64
100001.52
100001.39
100001.26
100001.14
100001.01
100000.88
100000.75
100000.62
100000.49
100000.36
100000.23
100000.1
99999.969
99999.837
99999.704
99999.571
99999.437
99999.303
99999.168
99999.034
100004.54
100004.51
100004.48
100004.44
100004.4
100004.35
100004.29
100004.23
100004.16
100004.09
100004.01
100003.93
100003.85
100003.76
100003.67
100003.58
100003.49
100003.39
100003.29
100003.18
100003.08
100002.97
100002.86
100002.75
100002.64
100002.52
100002.41
100002.29
100002.17
100002.05
100001.92
100001.8
100001.68
100001.55
100001.42
100001.3
100001.17
100001.04
100000.91
100000.78
100000.64
100000.51
100000.38
100000.25
100000.11
99999.978
99999.844
99999.708
99999.573
99999.437
99999.3
99999.163
99999.026
99998.888
100004.49
100004.46
100004.43
100004.39
100004.34
100004.29
100004.23
100004.17
100004.1
100004.03
100003.95
100003.87
100003.79
100003.7
100003.61
100003.51
100003.42
100003.32
100003.22
100003.11
100003.01
100002.9
100002.79
100002.67
100002.56
100002.44
100002.33
100002.21
100002.08
100001.96
100001.84
100001.71
100001.59
100001.46
100001.33
100001.2
100001.07
100000.94
100000.8
100000.67
100000.54
100000.4
100000.27
100000.13
99999.993
99999.856
99999.718
99999.58
99999.441
99999.302
99999.163
99999.024
99998.884
99998.744
100004.43
100004.4
100004.37
100004.33
100004.28
100004.23
100004.17
100004.11
100004.04
100003.96
100003.89
100003.81
100003.72
100003.63
100003.54
100003.45
100003.35
100003.25
100003.15
100003.04
100002.93
100002.82
100002.71
100002.6
100002.48
100002.36
100002.24
100002.12
100002
100001.87
100001.75
100001.62
100001.49
100001.36
100001.23
100001.1
100000.97
100000.83
100000.7
100000.56
100000.43
100000.29
100000.15
100000.01
99999.872
99999.732
99999.592
99999.451
99999.309
99999.168
99999.026
99998.884
99998.741
99998.599
100004.37
100004.35
100004.31
100004.27
100004.22
100004.17
100004.11
100004.04
100003.97
100003.9
100003.82
100003.74
100003.65
100003.56
100003.47
100003.38
100003.28
100003.18
100003.07
100002.97
100002.86
100002.75
100002.63
100002.52
100002.4
100002.28
100002.16
100002.04
100001.91
100001.79
100001.66
100001.53
100001.4
100001.27
100001.13
100001
100000.87
100000.73
100000.59
100000.45
100000.31
100000.17
100000.03
99999.892
99999.75
99999.608
99999.465
99999.321
99999.177
99999.033
99998.888
99998.744
99998.599
99998.454
99998.31
100004.31
100004.28
100004.25
100004.21
100004.16
100004.1
100004.04
100003.98
100003.91
100003.83
100003.75
100003.67
100003.58
100003.49
100003.4
100003.3
100003.2
100003.1
100003
100002.89
100002.78
100002.67
100002.55
100002.44
100002.32
100002.2
100002.08
100001.95
100001.82
100001.7
100001.57
100001.44
100001.3
100001.17
100001.04
100000.9
100000.76
100000.62
100000.48
100000.34
100000.2
100000.06
99999.917
99999.773
99999.628
99999.483
99999.337
99999.191
99999.044
99998.898
99998.751
99998.603
99998.457
99998.31
99998.163
100004.25
100004.22
100004.18
100004.14
100004.09
100004.04
100003.98
100003.91
100003.84
100003.76
100003.68
100003.6
100003.51
100003.42
100003.33
100003.23
100003.13
100003.03
100002.92
100002.81
100002.7
100002.59
100002.47
100002.35
100002.23
100002.11
100001.99
100001.86
100001.73
100001.6
100001.47
100001.34
100001.21
100001.07
100000.93
100000.8
100000.66
100000.52
100000.38
100000.23
100000.09
99999.944
99999.798
99999.652
99999.505
99999.357
99999.209
99999.06
99998.911
99998.762
99998.612
99998.463
99998.314
99998.165
99998.016
100004.18
100004.15
100004.12
100004.07
100004.02
100003.97
100003.91
100003.84
100003.77
100003.69
100003.61
100003.53
100003.44
100003.35
100003.25
100003.15
100003.05
100002.95
100002.84
100002.73
100002.62
100002.5
100002.39
100002.27
100002.15
100002.02
100001.9
100001.77
100001.64
100001.51
100001.38
100001.24
100001.11
100000.97
100000.83
100000.69
100000.55
100000.41
100000.26
100000.12
99999.973
99999.827
99999.679
99999.53
99999.38
99999.23
99999.08
99998.928
99998.777
99998.625
99998.473
99998.322
99998.17
99998.019
99997.869
99997.72
100004.11
100004.08
100004.05
100004
100003.95
100003.9
100003.83
100003.77
100003.69
100003.62
100003.54
100003.45
100003.36
100003.27
100003.17
100003.07
100002.97
100002.87
100002.76
100002.65
100002.53
100002.42
100002.3
100002.18
100002.06
100001.93
100001.81
100001.68
100001.55
100001.41
100001.28
100001.14
100001.01
100000.87
100000.73
100000.59
100000.44
100000.3
100000.15
100000
99999.857
99999.707
99999.557
99999.406
99999.254
99999.102
99998.949
99998.795
99998.641
99998.487
99998.333
99998.179
99998.026
99997.873
99997.72
99997.57
100004.04
100004.01
100003.97
100003.93
100003.88
100003.82
100003.76
100003.69
100003.62
100003.54
100003.46
100003.37
100003.28
100003.19
100003.09
100002.99
100002.89
100002.78
100002.68
100002.56
100002.45
100002.33
100002.21
100002.09
100001.97
100001.84
100001.71
100001.58
100001.45
100001.32