/*--------------------------------*- C++ -*----------------------------------*\
| =========                 |                                                 |
| \\      /  F ield         | OpenFOAM: The Open Source CFD Toolbox           |
|  \\    /   O peration     | Version:  2312                                  |
|   \\  /    A nd           | Website:  www.openfoam.com                      |
|    \\/     M anipulation  |                                                 |
\*---------------------------------------------------------------------------*/
FoamFile
{
    version     2.0;
    format      ascii;
    arch        "LSB;label=32;scalar=64";
    class       surfaceScalarField;
    location    "0.03";
    object      phi;
}
// * * * * * * * * * * * * * * * * * * * * * * * * * * * * * * * * * * * * * //

dimensions      [1 0 -1 0 0 0 0];

oriented        oriented;

internalField   nonuniform List<scalar> 
6378
(
1.0078956e-08
2.2065465e-07
9.8001656e-09
2.2424849e-07
9.5344698e-09
2.2773543e-07
9.2810882e-09
2.3111204e-07
9.0388452e-09
2.3437445e-07
8.8069817e-09
2.3751845e-07
8.5850616e-09
2.4053943e-07
8.3728758e-09
2.4343242e-07
8.1701764e-09
2.4619223e-07
7.9766417e-09
2.4881348e-07
7.7918392e-09
2.5129078e-07
7.6152391e-09
2.5361878e-07
7.4462113e-09
2.5579223e-07
7.2840532e-09
2.5780615e-07
7.1279988e-09
2.5965581e-07
6.9772487e-09
2.6133687e-07
6.8309844e-09
2.6284534e-07
6.6883926e-09
2.6417763e-07
6.5486745e-09
2.6533046e-07
6.4110578e-09
2.6630086e-07
6.274795e-09
2.6708609e-07
6.1391612e-09
2.6768359e-07
6.0034439e-09
2.6809094e-07
5.8669326e-09
2.6830584e-07
5.7289069e-09
2.683261e-07
5.5886282e-09
2.6814975e-07
5.4453349e-09
2.6777503e-07
5.2982434e-09
2.6720052e-07
5.1465562e-09
2.664252e-07
4.9894717e-09
2.6544853e-07
4.8262084e-09
2.6427052e-07
4.6560108e-09
2.6289173e-07
4.4781847e-09
2.6131326e-07
4.2921016e-09
2.5953669e-07
4.0972155e-09
2.5756403e-07
3.8930705e-09
2.5539756e-07
3.6793013e-09
2.5303975e-07
3.4556085e-09
2.5049311e-07
3.2217231e-09
2.4776012e-07
2.9773409e-09
2.4484299e-07
2.7219953e-09
2.4174366e-07
2.4550058e-09
2.3846345e-07
2.1754403e-09
2.3500312e-07
2.313627e-07
3.1294952e-08
2.0045425e-07
3.0409832e-08
2.0408165e-07
2.9555705e-08
2.076053e-07
2.8731368e-08
2.1102143e-07
2.7934454e-08
2.1432561e-07
2.7163294e-08
2.175132e-07
2.6416935e-08
2.205794e-07
2.5694747e-08
2.2351912e-07
2.49961e-08
2.2632713e-07
2.4320224e-08
2.2899806e-07
2.3666116e-08
2.3152657e-07
2.3032532e-08
2.3390735e-07
2.2418002e-08
2.3613524e-07
2.1820866e-08
2.3820535e-07
2.1239307e-08
2.4011307e-07
2.0671404e-08
2.4185416e-07
2.0115176e-08
2.4342478e-07
1.9568625e-08
2.4482147e-07
1.9029767e-08
2.4604113e-07
1.8496655e-08
2.4708096e-07
1.7967381e-08
2.4793844e-07
1.7440075e-08
2.4861123e-07
1.6912889e-08
2.4909717e-07
1.6383979e-08
2.4939424e-07
1.5851484e-08
2.4950059e-07
1.531351e-08
2.4941454e-07
1.4768129e-08
2.4913469e-07
1.4213372e-08
2.4865992e-07
1.3647261e-08
2.4798956e-07
1.3067818e-08
2.4712335e-07
1.247312e-08
2.4606157e-07
1.1861322e-08
2.4480505e-07
1.1230717e-08
2.4335507e-07
1.0579745e-08
2.4171343e-07
9.9070656e-09
2.3988228e-07
9.2115201e-09
2.3786406e-07
8.4921699e-09
2.3566138e-07
7.7482016e-09
2.3327689e-07
6.9788422e-09
2.3071317e-07
6.1831031e-09
2.2797261e-07
5.3595416e-09
2.250573e-07
4.5061083e-09
2.2196877e-07
3.6204942e-09
2.1870803e-07
2.1527537e-07
5.0136291e-08
1.7291145e-07
4.8746683e-08
1.7651253e-07
4.7396444e-08
1.800156e-07
4.6084403e-08
1.8341645e-07
4.4807741e-08
1.8671025e-07
4.3564383e-08
1.8989205e-07
4.2353115e-08
1.9295683e-07
4.1173126e-08
1.9589937e-07
4.0023687e-08
1.9871442e-07
3.8903866e-08
2.0139659e-07
3.7812412e-08
2.0394058e-07
3.6747739e-08
2.0634114e-07
3.5707972e-08
2.0859327e-07
3.4690958e-08
2.1069218e-07
3.3694327e-08
2.1263343e-07
3.2715548e-08
2.1441294e-07
3.1751992e-08
2.1602705e-07
3.0800986e-08
2.1747248e-07
2.9859848e-08
2.1874634e-07
2.8925919e-08
2.1984607e-07
2.7996571e-08
2.207694e-07
2.7069204e-08
2.2151429e-07
2.6141232e-08
2.2207891e-07
2.5210063e-08
2.224616e-07
2.4273077e-08
2.2266089e-07
2.3327612e-08
2.2267551e-07
2.2370956e-08
2.2250445e-07
2.1400355e-08
2.2214705e-07
2.0413036e-08
2.21603e-07
1.940624e-08
2.2087244e-07
1.8377272e-08
2.1995599e-07
1.7323545e-08
2.1885475e-07
1.6242646e-08
2.1757032e-07
1.5132376e-08
2.161047e-07
1.3990795e-08
2.1446025e-07
1.2816231e-08
2.126396e-07
1.1607289e-08
2.1064551e-07
1.0362726e-08
2.0848081e-07
9.0813009e-09
2.0614825e-07
7.7613942e-09
2.0365041e-07
6.4006423e-09
2.0098958e-07
4.9957373e-09
1.9816763e-07
3.5433732e-09
1.9518594e-07
1.9204532e-07
6.5900416e-08
1.4168616e-07
6.4106974e-08
1.4518567e-07
6.2355916e-08
1.4859484e-07
6.0645804e-08
1.5190919e-07
5.8973654e-08
1.5512348e-07
5.7337173e-08
1.5823258e-07
5.5735016e-08
1.6123137e-07
5.4166343e-08
1.6411462e-07
5.2630394e-08
1.6687708e-07
5.1126176e-08
1.6951347e-07
4.9652353e-08
1.7201857e-07
4.8207221e-08
1.7438729e-07
4.6788691e-08
1.7661478e-07
4.5394368e-08
1.7869644e-07
4.4021611e-08
1.8062804e-07
4.2667595e-08
1.8240571e-07
4.1329373e-08
1.8402602e-07
4.0003927e-08
1.8548592e-07
3.8688213e-08
1.8678276e-07
3.7379188e-08
1.8791424e-07
3.6073823e-08
1.8887839e-07
3.4769104e-08
1.8967348e-07
3.3462015e-08
1.9029803e-07
3.2149525e-08
1.9075076e-07
3.0828565e-08
1.9103061e-07
2.9496015e-08
1.9113674e-07
2.8148702e-08
1.9106859e-07
2.6783405e-08
1.908259e-07
2.5396882e-08
1.9040879e-07
2.3985909e-08
1.8981779e-07
2.2547329e-08
1.8905387e-07
2.1078115e-08
1.8811845e-07
1.957542e-08
1.8701336e-07
1.8036642e-08
1.8574086e-07
1.6459466e-08
1.8430349e-07
1.4841887e-08
1.8270405e-07
1.318219e-08
1.8094546e-07
1.147885e-08
1.7903071e-07
9.7302918e-09
1.7696269e-07
7.9344549e-09
1.7474419e-07
6.0882931e-09
1.7237768e-07
4.1876338e-09
1.698654e-07
2.2285205e-09
1.6720919e-07
1.644105e-07
7.8460537e-08
1.0958411e-07
7.6351875e-08
1.1291322e-07
7.4285194e-08
1.1616062e-07
7.2258991e-08
1.1932153e-07
7.0270149e-08
1.2239065e-07
6.831637e-08
1.253628e-07
6.6396309e-08
1.282329e-07
6.4509086e-08
1.3099583e-07
6.2653844e-08
1.3364648e-07
6.0829506e-08
1.3617979e-07
5.9034652e-08
1.3859076e-07
5.7267483e-08
1.4087457e-07
5.552582e-08
1.4302659e-07
5.3807175e-08
1.450425e-07
5.2108814e-08
1.4691833e-07
5.0427814e-08
1.4865048e-07
4.8761115e-08
1.5023578e-07
4.7105575e-08
1.5167146e-07
4.5458009e-08
1.5295513e-07
4.3815216e-08
1.540848e-07
4.2173992e-08
1.5505877e-07
4.0531132e-08
1.5587565e-07
3.8883421e-08
1.565343e-07
3.7227619e-08
1.5703382e-07
3.5560446e-08
1.5737354e-07
3.3878567e-08
1.5755303e-07
3.2178594e-08
1.5757214e-07
3.0457094e-08
1.5743102e-07
2.8710611e-08
1.5713018e-07
2.6935708e-08
1.566705e-07
2.5129022e-08
1.5605327e-07
2.3287316e-08
1.5528017e-07
2.1407548e-08
1.5435328e-07
1.9486922e-08
1.5327501e-07
1.7522938e-08
1.5204808e-07
1.5513417e-08
1.506754e-07
1.3456488e-08
1.4916001e-07
1.135047e-08
1.4750501e-07
9.1936174e-09
1.457134e-07
6.9836448e-09
1.437881e-07
4.7171572e-09
1.4173179e-07
2.3895484e-09
1.3954697e-07
-3.3518169e-12
1.3723595e-07
1.3480071e-07
8.7987177e-08
7.8664822e-08
8.5636085e-08
8.1772038e-08
8.3325285e-08
8.4806099e-08
8.1052975e-08
8.7762267e-08
7.8816069e-08
9.0635306e-08
7.661226e-08
9.3420184e-08
7.4440147e-08
9.6111996e-08
7.2298758e-08
9.8705882e-08
7.0187116e-08
1.0119702e-07
6.8104015e-08
1.0358066e-07
6.604791e-08
1.0585216e-07
6.4016902e-08
1.0800703e-07
6.2008784e-08
1.1004102e-07
6.0021058e-08
1.1195016e-07
5.8050989e-08
1.1373081e-07
5.6095655e-08
1.153797e-07
5.4152003e-08
1.1689397e-07
5.2216891e-08
1.1827115e-07
5.0287123e-08
1.1950916e-07
4.835948e-08
1.2060629e-07
4.6430725e-08
1.2156116e-07
4.4497612e-08
1.223727e-07
4.2556876e-08
1.230401e-07
4.0605228e-08
1.235628e-07
3.8639339e-08
1.239405e-07
3.6655836e-08
1.2417311e-07
3.4651296e-08
1.2426087e-07
3.2622253e-08
1.2420427e-07
3.0565226e-08
1.2400417e-07
2.8476753e-08
1.2366174e-07
2.6353442e-08
1.2317852e-07
2.4192039e-08
1.2255641e-07
2.1989477e-08
1.2179764e-07
1.9742937e-08
1.2090475e-07
1.7449892e-08
1.1988052e-07
1.510813e-08
1.1872795e-07
1.2715749e-08
1.1745012e-07
1.0271042e-08
1.1605016e-07
7.772243e-09
1.1453114e-07
5.2170404e-09
1.1289603e-07
2.6019951e-09
1.1114764e-07
-7.752658e-11
1.0928868e-07
-2.8254866e-09
1.073218e-07
1.0524948e-07
9.4843644e-08
5.0332117e-08
9.2307881e-08
5.3187713e-08
8.9810287e-08
5.5978221e-08
8.7348825e-08
5.8698947e-08
8.4920337e-08
6.134497e-08
8.2522527e-08
6.3911486e-08
8.0153923e-08
6.639391e-08
7.7813427e-08
6.8787749e-08
7.5499922e-08
7.1088586e-08
7.321206e-08
7.3292099e-08
7.0948189e-08
7.5394094e-08
6.8706343e-08
7.739054e-08
6.6484278e-08
7.9277619e-08
6.4279492e-08
8.1051786e-08
6.208928e-08
8.2709804e-08
5.9910768e-08
8.4248792e-08
5.7740961e-08
8.5666237e-08
5.5576782e-08
8.696001e-08
5.34151e-08
8.8128357e-08
5.1252753e-08
8.9169877e-08
4.9086559e-08
9.0083499e-08
4.6913318e-08
9.0868462e-08
4.4729804e-08
9.152427e-08
4.2532776e-08
9.2050673e-08
4.0318968e-08
9.2447658e-08
3.8085083e-08
9.2715473e-08
3.5827783e-08
9.2854633e-08
3.35437e-08
9.2865947e-08
3.1229448e-08
9.2750522e-08
2.8881663e-08
9.2509782e-08
2.6497053e-08
9.2145451e-08
2.4072462e-08
9.1659548e-08
2.1604934e-08
9.1054371e-08
1.9091755e-08
9.0332494e-08
1.6530488e-08
8.949672e-08
1.3919002e-08
8.8550021e-08
1.1255459e-08
8.7495466e-08
8.5382232e-09
8.6336151e-08
5.7656213e-09
8.5075119e-08
2.9354697e-09
8.3715333e-08
4.4513961e-11
8.225963e-08
-2.9116143e-09
8.0710827e-08
-5.9364516e-09
7.9071816e-08
7.7345397e-08
9.9475417e-08
2.5443173e-08
9.6800017e-08
2.8039157e-08
9.4161009e-08
3.0577302e-08
9.155563e-08
3.3052946e-08
8.8980776e-08
3.5461352e-08
8.6434246e-08
3.7798122e-08
8.3914554e-08
4.0059152e-08
8.1420496e-08
4.2240437e-08
7.8950826e-08
4.4338057e-08
7.6504059e-08
4.6348216e-08
7.4078424e-08
4.8267245e-08
7.1671878e-08
5.0091619e-08
6.9282131e-08
5.1818018e-08
6.6906684e-08
5.3443369e-08
6.4542866e-08
5.4964885e-08
6.2187868e-08
5.6380102e-08
5.9838785e-08
5.7686899e-08
5.7492635e-08
5.888351e-08
5.5146392e-08
5.9968523e-08
5.2796997e-08
6.0940855e-08
5.0441371e-08
6.179974e-08
4.8076406e-08
6.2544718e-08
4.5698958e-08
6.3175591e-08
4.3305886e-08
6.3692366e-08
4.0894054e-08
6.4095272e-08
3.8460317e-08
6.4384794e-08
3.6001505e-08
6.4561683e-08
3.3514426e-08
6.4626975e-08
3.0995869e-08
6.4581988e-08
2.8442638e-08
6.4428322e-08
2.5851592e-08
6.4167833e-08
2.3219745e-08
6.3802575e-08
2.0544339e-08
6.3334798e-08
1.7822861e-08
6.2767009e-08
1.5053056e-08
6.2101937e-08
1.2232939e-08
6.1342475e-08
9.3608096e-09
6.049159e-08
6.4351624e-09
5.9552265e-08
3.4544736e-09
5.8527449e-08
4.1678435e-10
5.7420004e-08
-2.6808347e-09
5.6232717e-08
-5.8423117e-09
5.4968415e-08
-9.0706183e-09
5.3630089e-08
5.2220741e-08
1.0233067e-07
4.4173841e-09
9.9551226e-08
6.7656008e-09
9.6806487e-08
9.0615353e-09
9.4093037e-08
1.1300429e-08
9.1407998e-08
1.3478156e-08
8.8749363e-08
1.5591028e-08
8.6115665e-08
1.7635552e-08
8.350551e-08
1.9608375e-08
8.0917721e-08
2.1505841e-08
7.8350568e-08
2.3325001e-08
7.580215e-08
2.5062655e-08
7.3270344e-08
2.6715798e-08
7.0752822e-08
2.8281629e-08
6.8247089e-08
2.9757568e-08
6.5750517e-08
3.1141297e-08
6.3260377e-08
3.2430791e-08
6.0773868e-08
3.3624334e-08
5.8288129e-08
3.4720543e-08
5.5800252e-08
3.5718362e-08
5.3307314e-08
3.6617021e-08
5.0806371e-08
3.7416048e-08
4.8294429e-08
3.8115276e-08
4.5768416e-08
3.8714809e-08
4.3225303e-08
3.9214842e-08
4.0662126e-08
3.9615751e-08
3.8075951e-08
3.9918178e-08
3.5463833e-08
4.0123034e-08
3.2822803e-08
4.0231512e-08
3.0149871e-08
4.0245078e-08
2.7442028e-08
4.0165476e-08
2.4696288e-08
3.9994677e-08
2.19098e-08
3.9734737e-08
1.9080068e-08
3.9387661e-08
1.6204865e-08
3.8955763e-08
1.3282181e-08
3.844163e-08
1.0310229e-08
3.7848011e-08
7.2874633e-09
3.7177709e-08
4.212528e-09
3.6433527e-08
1.0840756e-09
3.5618233e-08
-2.0996076e-09
3.4734525e-08
-5.3410629e-09
3.3785046e-08
-8.643656e-09
3.2772493e-08
-1.2009781e-08
3.1699859e-08
3.057027e-08
1.0962611e-07
-1.7039701e-08
1.0670526e-07
-1.4830058e-08
1.038163e-07
-1.2661259e-08
1.0096181e-07
-1.0536975e-08
9.8139575e-08
-8.4611505e-09
9.5346627e-08
-6.437894e-09
9.2580599e-08
-4.4706859e-09
8.9839763e-08
-2.562629e-09
8.7122762e-08
-7.1673695e-10
8.4427385e-08
1.0650095e-09
8.17534e-08
2.7775568e-09
7.909825e-08
4.4204483e-09
7.6460029e-08
5.9901922e-09
7.383655e-08
7.4843948e-09
7.1225451e-08
8.9007678e-09
6.8624253e-08
1.0237215e-08
6.6030391e-08
1.1491877e-08
6.344122e-08
1.2663188e-08
6.0854074e-08
1.3749822e-08
5.8266222e-08
1.4750791e-08
5.5674871e-08
1.5665402e-08
5.3077225e-08
1.6493198e-08
5.0470533e-08
1.7233945e-08
4.7851937e-08
1.7887767e-08
4.521834e-08
1.8455142e-08
4.256679e-08
1.8936339e-08
3.9894534e-08
1.9331745e-08
3.7198901e-08
1.9642056e-08
3.447722e-08
1.9868263e-08
3.1726798e-08
2.0011623e-08
2.8944886e-08
2.0073677e-08
2.6128679e-08
2.0056262e-08
2.3275307e-08
1.9961503e-08
2.0381772e-08
1.9791754e-08
1.7445922e-08
1.9548299e-08
1.4465946e-08
1.9233094e-08
1.1440085e-08
1.8848627e-08
8.3668548e-09
1.8397335e-08
5.2448079e-09
1.7881979e-08
2.0726515e-09
1.7305149e-08
-1.1506827e-09
1.6669155e-08
-4.4267813e-09
1.5976738e-08
-7.7578381e-09
1.5230265e-08
-1.1146368e-08
1.4431931e-08
-1.4594225e-08
1.3584746e-08
1.2691753e-08
1.1019016e-07
-2.9964136e-08
1.0721752e-07
-2.7951028e-08
1.0427784e-07
-2.5976895e-08
1.0137054e-07
-2.4044897e-08
9.8493674e-08
-2.2158626e-08
9.5644921e-08
-2.0321337e-08
9.2822325e-08
-1.8535911e-08
9.0024249e-08
-1.6804942e-08
8.7249103e-08
-1.5130889e-08
8.4496086e-08
-1.3516088e-08
8.1762199e-08
-1.196318e-08
7.9046296e-08
-1.0474064e-08
7.6346191e-08
-9.0509135e-09
7.365961e-08
-7.6957346e-09
7.0984166e-08
-6.4103744e-09
6.8317421e-08
-5.1965045e-09
6.565688e-08
-4.0555157e-09
6.2999961e-08
-2.9884824e-09
6.0344154e-08
-1.9963554e-09
5.7686933e-08
-1.0798176e-09
5.5025568e-08
-2.3917239e-10
5.2357297e-08
5.2541773e-10
4.9679628e-08
1.2139012e-09
4.6990009e-08
1.8266373e-09
4.4285071e-08
2.3646886e-09
4.1561741e-08
2.8283229e-09
3.8817546e-08
3.2176724e-09
3.6050173e-08
3.5334005e-09
3.3257271e-08
3.7765308e-09
3.0436488e-08
3.9482521e-09
2.7585455e-08
4.0499752e-09
2.4701756e-08
4.0833775e-09
2.1782324e-08
4.0510936e-09
1.8823149e-08
3.9565659e-09
1.582272e-08
3.7993462e-09
1.2780082e-08
3.5807091e-09
9.6934864e-09
3.3037016e-09
6.5620825e-09
2.9696601e-09
3.3843116e-09
2.5820021e-09
1.5857728e-10
2.1432544e-09
-3.1152969e-09
1.6538212e-09
-6.4392885e-09
1.1179494e-09
-9.8156527e-09
5.3720566e-10
-1.3245228e-08
-8.662484e-11
-1.6729639e-08
-7.5024564e-10
-1.4524016e-09
1.0997036e-07
-3.9570814e-08
1.0696509e-07
-3.7717911e-08
1.0399219e-07
-3.5902795e-08
1.0105078e-07
-3.4128429e-08
9.8138933e-08
-3.2397642e-08
9.5254733e-08
-3.0713118e-08
9.2396444e-08
-2.9077233e-08
8.9562485e-08
-2.7492171e-08
8.675131e-08
-2.5960012e-08
8.3961356e-08
-2.448276e-08
8.1190606e-08
-2.3062355e-08
7.8437163e-08
-2.1700582e-08
7.5698883e-08
-2.0399135e-08
7.2973445e-08
-1.9159601e-08
7.0258473e-08
-1.7983478e-08
6.7551619e-08
-1.6872085e-08
6.4850565e-08
-1.5826357e-08
6.2152579e-08
-1.4846619e-08
5.9455281e-08
-1.393346e-08
5.67567e-08
-1.3087597e-08
5.4053988e-08
-1.2308837e-08
5.1344386e-08
-1.1597505e-08
4.8625691e-08
-1.0953537e-08
4.5896278e-08
-1.0375587e-08
4.3151537e-08
-9.8619741e-09
4.0387863e-08
-9.4129007e-09
3.7603454e-08
-9.028935e-09
3.4796465e-08
-8.7091301e-09
3.1964817e-08
-8.452279e-09
2.9106435e-08
-8.257297e-09
2.6219538e-08
-8.1232021e-09
2.3302856e-08
-8.0492649e-09
2.0355592e-08
-8.0340373e-09
1.7364145e-08
-8.0651455e-09
1.4332707e-08
-8.1542886e-09
1.12616e-08
-8.2968495e-09
8.1497329e-09
-8.489316e-09
4.9949594e-09
-8.7296045e-09
1.7961965e-09
-9.0154611e-09
-1.4472001e-09
-9.3447809e-09
-4.7370993e-09
-9.7156803e-09
-8.0739113e-09
-1.0125688e-08
-1.1458722e-08
-1.0572612e-08
-1.4894802e-08
-1.1054392e-08
-1.8383006e-08
-1.1568168e-08
-1.2111159e-08
1.091895e-07
-4.6342168e-08
1.0616643e-07
-4.4614964e-08
1.0317572e-07
-4.2924955e-08
1.002161e-07
-4.1274584e-08
9.7285878e-08
-3.9666343e-08
9.4383328e-08
-3.8102396e-08
9.1506823e-08
-3.6584742e-08
8.865479e-08
-3.5115227e-08
8.5825604e-08
-3.3695601e-08
8.3017537e-08
-3.2327536e-08
8.0228683e-08
-3.1012611e-08
7.7457001e-08
-2.9752299e-08
7.4700271e-08
-2.854796e-08
7.1956133e-08
-2.7400879e-08
6.9222166e-08
-2.6312286e-08
6.6496151e-08
-2.5283269e-08
6.3776485e-08
-2.4314416e-08
6.1060021e-08
-2.340495e-08
5.834395e-08
-2.2555278e-08
5.5627859e-08
-2.176533e-08
5.2907525e-08
-2.1033907e-08
5.018081e-08
-2.0361792e-08
4.744715e-08
-1.9749351e-08
4.4706972e-08
-1.9196023e-08
4.1948664e-08
-1.8694667e-08
3.9170336e-08
-1.8254901e-08
3.6372223e-08
-1.7874261e-08
3.3552749e-08
-1.7550045e-08
3.0709717e-08
-1.7280627e-08
2.7840752e-08
-1.7064497e-08
2.4943796e-08
-1.6900117e-08
2.2017798e-08
-1.6785733e-08
1.9080148e-08
-1.6722513e-08
1.6078509e-08
-1.6735151e-08
1.3043013e-08
-1.6786623e-08
9.9717705e-09
-1.6877806e-08
6.8624398e-09
-1.7010802e-08
3.713013e-09
-1.7184964e-08
5.2210808e-10
-1.7398944e-08
-2.7112602e-09
-1.7651203e-08
-5.9881232e-09
-1.7940054e-08
-9.309311e-09
-1.8263797e-08
-1.2676081e-08
-1.8620767e-08
-1.6090554e-08
-1.9009402e-08
-1.9553682e-08
-1.942802e-08
-1.9875184e-08
1.0801534e-07
-5.0796563e-08
1.0498703e-07
-4.9165418e-08
1.019912e-07
-4.7571008e-08
9.9026745e-08
-4.6015691e-08
9.6091948e-08
-4.4501398e-08
9.3185214e-08
-4.3030067e-08
9.0304932e-08
-4.1603348e-08
8.7449523e-08
-4.0222862e-08
8.461729e-08
-3.8890053e-08
8.1806443e-08
-3.7606344e-08
7.9015024e-08
-3.6373008e-08
7.6240935e-08
-3.5191254e-08
7.3481856e-08
-3.4062132e-08
7.0735263e-08
-3.2986695e-08
6.7998599e-08
-3.1966101e-08
6.5270292e-08
-3.1001989e-08
6.2550675e-08
-3.0092776e-08
5.9835593e-08
-2.9233994e-08
5.7122911e-08
-2.8426991e-08
5.4411913e-08
-2.7670218e-08
5.169617e-08
-2.6969422e-08
4.897437e-08
-2.6323179e-08
4.6246027e-08
-2.5729034e-08
4.3521294e-08
-2.5189194e-08
4.0763741e-08
-2.4722112e-08
3.7989745e-08
-2.4305659e-08
3.5198963e-08
-2.3937273e-08
3.238882e-08
-2.3618496e-08
2.9556786e-08
-2.3349716e-08
2.6700442e-08
-2.3130642e-08
2.3817191e-08
-2.2960989e-08
2.0903433e-08
-2.2840667e-08
1.7937237e-08
-2.2768676e-08
1.496552e-08
-2.2731766e-08
1.1957105e-08
-2.274105e-08
8.9108927e-09
-2.2792543e-08
5.8262575e-09
-2.2883507e-08
2.7024138e-09
-2.3012259e-08
-4.6144109e-10
-2.3177299e-08
-3.6661485e-09
-2.3377032e-08
-6.9124875e-09
-2.3609895e-08
-1.0201393e-08
-2.3874213e-08
-1.353411e-08
-2.4168347e-08
-1.6912475e-08
-2.4490493e-08
-2.0337692e-08
-2.4838582e-08
-2.5210152e-08
1.0657035e-07
-5.3432877e-08
1.0354703e-07
-5.1874285e-08
1.0055692e-07
-5.0352407e-08
9.7598543e-08
-4.8869016e-08
9.4670474e-08
-4.7426069e-08
9.1771044e-08
-4.6025067e-08
8.8898752e-08
-4.46676e-08
8.6051892e-08
-4.3354927e-08
8.3228796e-08
-4.2088404e-08
8.042755e-08
-4.0869099e-08
7.7646212e-08
-3.9698141e-08
7.4882571e-08
-3.8576371e-08
7.2134213e-08
-3.7504616e-08
6.9398134e-08
-3.6483507e-08
6.6671309e-08
-3.551407e-08
6.3956999e-08
-3.4595848e-08
6.1261684e-08
-3.3727795e-08
5.8567702e-08
-3.2897384e-08
5.587986e-08
-3.2124198e-08
5.3184977e-08
-3.1409845e-08
5.048716e-08
-3.0747419e-08
4.7785169e-08
-3.013585e-08
4.5074896e-08
-2.9576551e-08
4.2339503e-08
-2.9070362e-08
3.9605527e-08
-2.8610115e-08
3.6857711e-08
-2.8200828e-08
3.4092251e-08
-2.7840869e-08
3.13069e-08
-2.7528722e-08
2.8499363e-08
-2.7263491e-08
2.5667336e-08
-2.7044392e-08
2.2808222e-08
-2.6870355e-08
1.9919129e-08
-2.6739971e-08
1.6997193e-08
-2.6650785e-08
1.4052698e-08
-2.6599526e-08
1.107652e-08
-2.6588202e-08
8.0652715e-09
-2.6615873e-08
5.017524e-09
-2.6680482e-08
1.9323026e-09
-2.678036e-08
-1.1913322e-09
-2.6913881e-08
-4.3541495e-09
-2.7079533e-08
-7.5569565e-09
-2.7275686e-08
-1.0800529e-08
-2.7500747e-08
-1.408593e-08
-2.7752997e-08
-1.7414438e-08
-2.8030676e-08
-2.0786848e-08
-2.8331733e-08
-2.8653954e-08
1.0494091e-07
-5.4693437e-08
1.0193127e-07
-5.3190407e-08
9.8955442e-08
-5.1723905e-08
9.601217e-08
-5.0295672e-08
9.3099891e-08
-4.8907356e-08
9.0217094e-08
-4.7560382e-08
8.7362165e-08
-4.62561e-08
8.4533477e-08
-4.4995667e-08
8.1729235e-08
-4.378019e-08
7.8947589e-08
-4.2610602e-08
7.6186521e-08
-4.148775e-08
7.3443968e-08
-4.0412323e-08
7.071759e-08
-3.9384953e-08
6.8003583e-08
-3.8405683e-08
6.5302551e-08
-3.747271e-08
6.2616147e-08
-3.6578051e-08
5.9965185e-08
-3.5725339e-08
5.7289674e-08
-3.4955502e-08
5.4617342e-08
-3.4228053e-08
5.1947654e-08
-3.3545569e-08
4.9277242e-08
-3.2911764e-08
4.6602252e-08
-3.2327047e-08
4.3918e-08
-3.1791418e-08
4.1218755e-08
-3.1303584e-08
3.851458e-08
-3.0860607e-08
3.5798716e-08
-3.0464201e-08
3.3066612e-08
-3.0114411e-08
3.0315546e-08
-2.9810127e-08
2.7543288e-08
-2.9550143e-08
2.4747749e-08
-2.933335e-08
2.192695e-08
-2.915844e-08
1.9079183e-08
-2.9023997e-08
1.6203563e-08
-2.8928402e-08
1.3300243e-08
-2.887012e-08
1.0366374e-08
-2.884911e-08
7.3994886e-09
-2.88644e-08
4.3979875e-09
-2.8914433e-08
1.3606668e-09
-2.8997728e-08
-1.7134636e-09
-2.9112752e-08
-4.8252542e-09
-2.9258048e-08
-7.9754538e-09
-2.9432039e-08
-1.1164803e-08
-2.9633183e-08
-1.4394153e-08
-2.9859819e-08
-1.7664486e-08
-3.0110287e-08
-2.0976394e-08
-3.0382689e-08
-3.0675068e-08
1.0318634e-07
-5.4946368e-08
1.0019735e-07
-5.348725e-08
9.7242961e-08
-5.2064444e-08
9.4321993e-08
-5.0679846e-08
9.1432814e-08
-4.933472e-08
8.8574032e-08
-4.8030588e-08
8.5743953e-08
-4.6768469e-08
8.2941009e-08
-4.554958e-08
8.0163337e-08
-4.4374703e-08
7.7409148e-08
-4.3244773e-08
7.4676433e-08
-4.2160299e-08
7.1963277e-08
-4.1121884e-08
6.9267967e-08
-4.012999e-08
6.6589538e-08
-3.9184933e-08
6.3934346e-08
-3.828341e-08
6.1290131e-08
-3.7433243e-08
5.8625649e-08
-3.6635982e-08
5.5992615e-08
-3.5876618e-08
5.335832e-08
-3.5169576e-08
5.0725072e-08
-3.4511355e-08
4.8090568e-08
-3.3900774e-08
4.5451589e-08
-3.3337618e-08
4.2805132e-08
-3.2821229e-08
4.0149161e-08
-3.2350321e-08
3.7484448e-08
-3.1923518e-08
3.4808084e-08
-3.1541055e-08
3.2116805e-08
-3.1202799e-08
2.9407913e-08
-3.0907814e-08
2.6679225e-08
-3.0655076e-08
2.3928689e-08
-3.0443391e-08
2.1154525e-08
-3.0271634e-08
1.8355053e-08
-3.0138479e-08
1.5528894e-08
-3.0042743e-08
1.2674831e-08
-2.9983259e-08
9.7909766e-09
-2.9959369e-08
6.875406e-09
-2.9969889e-08
3.9266825e-09
-3.0013598e-08
9.4350734e-10
-3.0089026e-08
-2.0750821e-09
-3.0194876e-08
-5.1300248e-09
-3.0329638e-08
-8.2220087e-09
-3.0491924e-08
-1.1351801e-08
-3.0680139e-08
-1.4520071e-08
-3.0892804e-08
-1.7727699e-08
-3.1128245e-08
-2.0975133e-08
-3.1384784e-08
-3.1660531e-08
1.0134652e-07
-5.4483183e-08
9.8383795e-08
-5.3060267e-08
9.5456728e-08
-5.1673846e-08
9.2563757e-08
-5.0325373e-08
8.9703577e-08
-4.9016252e-08
8.6874582e-08
-4.7747698e-08
8.4075302e-08
-4.6520802e-08
8.1303985e-08
-4.5336518e-08
7.8558951e-08
-4.4195681e-08
7.5838316e-08
-4.3098993e-08
7.3140289e-08
-4.2047027e-08
7.0462738e-08
-4.104e-08
6.7803345e-08
-4.0077552e-08
6.5166954e-08
-3.9161078e-08
6.2543659e-08
-3.8292388e-08
5.9929581e-08
-3.7471707e-08
5.7315842e-08
-3.6698905e-08
5.4716194e-08
-3.5969503e-08
5.21212e-08
-3.528699e-08
4.9528227e-08
-3.4651338e-08
4.6934811e-08
-3.4061882e-08
4.4338157e-08
-3.3518201e-08
4.1735729e-08
-3.3019576e-08
3.9125616e-08
-3.2565045e-08
3.65064e-08
-3.2153646e-08
3.3875806e-08
-3.1785162e-08
3.1231183e-08
-3.1459114e-08
2.8570125e-08
-3.1174688e-08
2.5890425e-08
-3.0930912e-08
2.3190107e-08
-3.0726751e-08
2.0467278e-08
-3.0561115e-08
1.7720252e-08
-3.0432896e-08
1.4947406e-08
-3.0340983e-08
1.2147255e-08
-3.028436e-08
9.3180594e-09
-3.0262045e-08
6.4582527e-09
-3.0272921e-08
3.5663748e-09
-3.0315765e-08
6.4125451e-10
-3.0389293e-08
-2.3181959e-09
-3.0492206e-08
-5.3128193e-09
-3.0623133e-08
-8.3434109e-09
-3.0780689e-08
-1.1410607e-08
-3.0963381e-08
-1.451511e-08
-3.1169751e-08
-1.7657588e-08
-3.1398228e-08
-2.0838486e-08
-3.1647201e-08
-3.1914906e-08
1.0241709e-07
-5.495008e-08
9.9447872e-08
-5.3524654e-08
9.6516236e-08
-5.2133849e-08
9.3620996e-08
-5.0779514e-08
9.0760763e-08
-4.9462951e-08
8.7934149e-08
-4.8185554e-08
8.5139638e-08
-4.6948384e-08
8.2375695e-08
-4.5752535e-08
7.9640628e-08
-4.4598821e-08
7.6932722e-08
-4.3488076e-08
7.4250168e-08
-4.2420898e-08
7.1591264e-08
-4.1398016e-08
6.8954398e-08
-4.0420252e-08
6.6335984e-08
-3.9487969e-08
6.3738019e-08
-3.8597873e-08
6.1153035e-08
-3.7754634e-08
5.8579022e-08
-3.6958697e-08
5.6013139e-08
-3.6209035e-08
5.3456038e-08
-3.5503861e-08
5.0904666e-08
-3.4844058e-08
4.8356253e-08
-3.4229472e-08
4.580827e-08
-3.3659759e-08
4.3258142e-08
-3.3134473e-08
4.0703459e-08
-3.2652954e-08
3.8142088e-08
-3.2214437e-08
3.55721e-08
-3.181817e-08
3.2991247e-08
-3.1463676e-08
3.0397144e-08
-3.1150327e-08
2.778752e-08
-3.0877356e-08
2.5160225e-08
-3.0643845e-08
2.251326e-08
-3.0448854e-08
1.9844723e-08
-3.0291356e-08
1.7152849e-08
-3.0170343e-08
1.4435956e-08
-3.0084747e-08
1.1692439e-08
-3.0033575e-08
8.9206797e-09
-3.0015751e-08
6.1191879e-09
-3.0030195e-08
3.2865831e-09
-3.0075696e-08
4.2168686e-10
-3.0151076e-08
-2.4765677e-09
-3.0255046e-08
-5.409038e-09
-3.0386349e-08
-8.3765179e-09
-3.0543572e-08
-1.1379626e-08
-3.0725351e-08
-1.4418999e-08
-3.0930209e-08
-1.7495212e-08
-3.1156689e-08
-2.0608706e-08
-3.1403183e-08
-3.1668077e-08
1.0044291e-07
-5.3629292e-08
9.7507834e-08
-5.2233945e-08
9.4611171e-08
-5.0873284e-08
9.1751649e-08
-4.9548886e-08
8.8927968e-08
-4.8262094e-08
8.6138691e-08
-4.7014177e-08
8.3382367e-08
-4.5806207e-08
8.0657394e-08
-4.4639168e-08
7.7962114e-08
-4.3513872e-08
7.5294723e-08
-4.2431039e-08
7.2653365e-08
-4.1391194e-08
7.0036064e-08
-4.0394732e-08
6.7441126e-08
-3.9441999e-08
6.4869549e-08
-3.8533809e-08
6.2312973e-08
-3.7671788e-08
5.9771043e-08
-3.6854644e-08
5.7241666e-08
-3.6082492e-08
5.4722492e-08
-3.5355143e-08
5.2211977e-08
-3.4672044e-08
4.970762e-08
-3.4033297e-08
4.7206919e-08
-3.3438667e-08
4.4707398e-08
-3.2887829e-08
4.2206588e-08
-3.238033e-08
3.9702122e-08
-3.1915576e-08
3.7191764e-08
-3.14929e-08
3.4673378e-08
-3.1111638e-08
3.2144712e-08
-3.0771193e-08
2.9603501e-08
-3.0470888e-08
2.7047531e-08
-3.0209961e-08
2.4474697e-08
-2.9987549e-08
2.1882983e-08
-2.9802754e-08
1.9270487e-08
-2.9654608e-08
1.6635398e-08
-2.9542143e-08
1.3976013e-08
-2.9464332e-08
1.1290687e-08
-2.942017e-08
8.5778624e-09
-2.9408583e-08
5.8360721e-09
-2.9428494e-08
3.0639941e-09
-2.9478739e-08
2.6043418e-10
-2.955817e-08
-2.5756333e-09
-2.9665556e-08
-5.445111e-09
-2.9799662e-08
-8.3487334e-09
-2.9959137e-08
-1.1287143e-08
-3.0142642e-08
-1.426092e-08
-3.0348742e-08
-1.7270601e-08
-3.0576042e-08
-2.0316518e-08
-3.0822976e-08
-3.1088013e-08
9.8435553e-08
-5.2094723e-08
9.5538107e-08
-5.0728774e-08
9.2679772e-08
-4.9397504e-08
8.9859256e-08
-4.810221e-08
8.7075295e-08
-4.6844315e-08
8.4326477e-08
-4.5624979e-08
8.1611345e-08
-4.4445272e-08
7.8928303e-08
-4.3306102e-08
7.6275694e-08
-4.2208295e-08
7.3651731e-08
-4.1152524e-08
7.1054542e-08
-4.0139354e-08
6.8482044e-08
-3.9169086e-08
6.5932224e-08
-3.824199e-08
6.34044e-08
-3.7359185e-08
6.0893654e-08
-3.6520934e-08
5.8398319e-08
-3.5727122e-08
5.5916383e-08
-3.4977414e-08
5.3445582e-08
-3.4271641e-08
5.0983807e-08
-3.3609553e-08
4.8528675e-08
-3.2990989e-08
4.6077784e-08
-3.2415661e-08
4.3628711e-08
-3.1883206e-08
4.1179042e-08
-3.1393168e-08
3.8726427e-08
-3.094499e-08
3.6268585e-08
-3.0538059e-08
3.3803288e-08
-3.0171739e-08
3.1328293e-08
-2.984539e-08
2.8841376e-08
-2.9558321e-08
2.6340363e-08
-2.9309767e-08
2.3823165e-08
-2.9098908e-08
2.1287772e-08
-2.8924863e-08
1.8732272e-08
-2.8786717e-08
1.6154848e-08
-2.8683504e-08
1.3553779e-08
-2.8614246e-08
1.0927417e-08
-2.8577923e-08
8.2742282e-09
-2.8573496e-08
5.5927647e-09
-2.8599875e-08
2.8817297e-09
-2.8655954e-08
1.3993425e-10
-2.8740584e-08
-2.6336357e-09
-2.8852603e-08
-5.4398745e-09
-2.8990778e-08
-8.2795152e-09
-2.9153817e-08
-1.1153202e-08
-2.9340388e-08
-1.406144e-08
-2.954915e-08
-1.7004758e-08
-2.9778668e-08
-1.9983471e-08
-3.002752e-08
-3.0294143e-08
9.6404008e-08
-5.0428581e-08
9.3547184e-08
-4.9092238e-08
9.0729986e-08
-4.7790297e-08
8.7951261e-08
-4.6524124e-08
8.520971e-08
-4.5295046e-08
8.2503938e-08
-4.4104173e-08
7.9832461e-08
-4.2952542e-08
7.7193689e-08
-4.1841022e-08
7.4585943e-08
-4.0770426e-08
7.2007462e-08
-3.974144e-08
6.9456428e-08
-3.8754739e-08
6.6930749e-08
-3.7810743e-08
6.4427261e-08
-3.6909156e-08
6.1945919e-08
-3.6050913e-08
5.9483081e-08
-3.5235778e-08
5.7036326e-08
-3.4464362e-08
5.4603531e-08
-3.3736497e-08
5.2182463e-08
-3.3051919e-08
4.9770868e-08
-3.2410366e-08
4.7366403e-08
-3.1811572e-08
4.4966691e-08
-3.1255202e-08
4.2569346e-08
-3.0740871e-08
4.0171982e-08
-3.0268111e-08
3.7772255e-08
-2.9836393e-08
3.5367862e-08
-2.9445122e-08
3.2956549e-08
-2.9093683e-08
3.053607e-08
-2.8781417e-08
2.8104226e-08
-2.8507634e-08
2.5658863e-08
-2.8271571e-08
2.3197907e-08
-2.8072433e-08
2.0719352e-08
-2.7909353e-08
1.8221292e-08
-2.778145e-08
1.5701901e-08
-2.7687772e-08
1.3159458e-08
-2.7627366e-08
1.0592323e-08
-2.7599216e-08
7.9989694e-09
-2.7602307e-08
5.3779698e-09
-2.7635556e-08
2.7280351e-09
-2.7697894e-08
4.7993388e-11
-2.7788184e-08
-2.6631652e-09
-2.790531e-08
-5.4063332e-09
-2.8048042e-08
-8.1822278e-09
-2.8215155e-08
-1.0991467e-08
-2.8405323e-08
-1.3834584e-08
-2.8617239e-08
-1.6712033e-08
-2.8849542e-08
-1.9624116e-08
-2.91008e-08
-2.9369595e-08
9.7210237e-08
-5.0027097e-08
9.4355233e-08
-4.8688191e-08
9.1541482e-08
-4.7381984e-08
8.8767917e-08
-4.6109903e-08
8.6033368e-08
-4.4873301e-08
8.3336511e-08
-4.3673404e-08
8.0675963e-08
-4.2511314e-08
7.8050197e-08
-4.1387985e-08
7.5457614e-08
-4.0304285e-08
7.2896477e-08
-3.9260951e-08
7.0365003e-08
-3.8258658e-08
6.786139e-08
-3.7298088e-08
6.5384073e-08
-3.6380262e-08
6.2929226e-08
-3.5505865e-08
6.0496931e-08
-3.4669979e-08
5.8083132e-08
-3.3877777e-08
5.5685987e-08
-3.3129016e-08
5.3303363e-08
-3.2423075e-08
5.0932993e-08
-3.1759652e-08
4.8572558e-08
-3.1138489e-08
4.6219703e-08
-3.0559292e-08
4.3872061e-08
-3.0021715e-08
4.1527251e-08
-2.9525357e-08
3.9182907e-08
-2.9069756e-08
3.6836685e-08
-2.8654388e-08
3.4486286e-08
-2.8278681e-08
3.2129434e-08
-2.7942019e-08
2.9763903e-08
-2.7643752e-08
2.7387493e-08
-2.7383181e-08
2.499808e-08
-2.7159566e-08
2.2593586e-08
-2.6972109e-08
2.0172032e-08
-2.6819981e-08
1.7731498e-08
-2.6702297e-08
1.5270181e-08
-2.6618148e-08