/*--------------------------------*- C++ -*----------------------------------*\
| =========                 |                                                 |
| \\      /  F ield         | OpenFOAM: The Open Source CFD Toolbox           |
|  \\    /   O peration     | Version:  2312                                  |
|   \\  /    A nd           | Website:  www.openfoam.com                      |
|    \\/     M anipulation  |                                                 |
\*---------------------------------------------------------------------------*/
FoamFile
{
    version     2.0;
    format      ascii;
    arch        "LSB;label=32;scalar=64";
    class       volScalarField;
    location    "0.1";
    object      CO2;
}
// * * * * * * * * * * * * * * * * * * * * * * * * * * * * * * * * * * * * * //

dimensions      [0 0 0 0 0 0 0];

internalField   nonuniform List<scalar> 
3250
(
0.013759129
0.013641955
0.013521396
0.01339753
0.013270508
0.013140494
0.013007657
0.012872167
0.012734195
0.012593911
0.012451486
0.01230709
0.01216089
0.012013051
0.011863739
0.011713114
0.011561334
0.011408555
0.011254928
0.011100603
0.010945723
0.010790429
0.010634858
0.010479141
0.010323407
0.010167779
0.010012376
0.0098573133
0.0097027012
0.0095486459
0.0093952494
0.0092426095
0.0090908201
0.0089399711
0.0087901487
0.0086414356
0.0084939109
0.008347651
0.0082027291
0.0080592165
0.0079171828
0.0077766979
0.0076378338
0.0075006669
0.013809902
0.013691628
0.013569953
0.01344497
0.013316832
0.013185709
0.013051771
0.012915191
0.012776139
0.012634787
0.012491308
0.01234587
0.012198642
0.012049792
0.011899482
0.011747875
0.01159513
0.011441403
0.011286845
0.011131606
0.01097583
0.010819658
0.010663226
0.010506668
0.01035011
0.010193677
0.010037487
0.0098816563
0.0097262946
0.0095715082
0.0094173989
0.0092640645
0.0091115986
0.0089600909
0.0088096275
0.0086602904
0.0085121585
0.0083653071
0.0082198084
0.0080757311
0.007933141
0.0077921023
0.0076526841
0.0075149962
0.013904403
0.013784022
0.013660253
0.013533187
0.01340298
0.013269804
0.01313383
0.012995232
0.012854185
0.01271086
0.012565431
0.012418069
0.012268942
0.01211822
0.011966067
0.011812646
0.011658116
0.011502634
0.011346354
0.011189423
0.011031988
0.010874189
0.010716164
0.010558046
0.010399961
0.010242035
0.010084387
0.009927131
0.0097703781
0.0096142341
0.0094588009
0.0093041758
0.0091504524
0.00899772
0.0088460641
0.0086955665
0.0085463053
0.0083983552
0.0082517875
0.0081066703
0.007963069
0.0078210475
0.0076806762
0.0075420668
0.014036462
0.013913137
0.013786446
0.013656478
0.013523392
0.01338736
0.013248557
0.013107158
0.012963338
0.012817274
0.012669137
0.012519102
0.01236734
0.012214019
0.012059306
0.011903364
0.011746356
0.011588437
0.011429761
0.01127048
0.011110738
0.010950678
0.010790437
0.010630147
0.010469938
0.010309934
0.010150254
0.009991013
0.0098323213
0.009674285
0.0095170056
0.0093605804
0.0092051025
0.0090506608
0.0088973403
0.0087452223
0.0085943843
0.0084449003
0.0082968409
0.0081502737
0.0080052635
0.0078618738
0.0077201752
0.0075802806
0.014200444
0.014073472
0.013943161
0.013809601
0.013672953
0.013533391
0.01339109
0.013246229
0.013098986
0.012949536
0.012798056
0.012644721
0.012489702
0.012333171
0.012175296
0.012016242
0.01185617
0.01169524
0.011533606
0.011371419
0.011208827
0.01104597
0.010882988
0.010720014
0.010557176
0.010394601
0.010232406
0.010070706
0.0099096137
0.0097492331
0.0095896661
0.0094310097
0.0092733564
0.009116795
0.0089614098
0.0088072815
0.008654487
0.0085030997
0.0083531894
0.008204823
0.0080580645
0.0079129771
0.0077696306
0.0076281383
0.014391242
0.014260036
0.014125524
0.013987796
0.013847016
0.013703359
0.013557004
0.013408131
0.01325692
0.013103548
0.012948195
0.012791036
0.012632247
0.012471998
0.012310461
0.012147801
0.011984182
0.011819763
0.011654702
0.011489149
0.011323252
0.011157154
0.010990995
0.010824908
0.010659023
0.010493464
0.010328352
0.0101638
0.009999921
0.0098368191
0.0096745958
0.0095133478
0.0093531676
0.0091941431
0.0090363583
0.0088798932
0.008724824
0.0085712235
0.0084191606
0.0082687015
0.0081199093
0.0079728464
0.0078275817
0.0076842284
0.014604228
0.014468307
0.014329114
0.014186744
0.014041362
0.013893147
0.013742279
0.01358894
0.013433313
0.013275579
0.013115918
0.012954507
0.012791524
0.012627142
0.012461532
0.012294863
0.0121273
0.011959003
0.011790129
0.011620832
0.011451261
0.011281558
0.011111864
0.010942314
0.010773037
0.010604158
0.010435797
0.010268071
0.010101088
0.0099349543
0.0097697716
0.0096056359
0.0094426392
0.0092808689
0.0091204086
0.0089613375
0.0088037312
0.0086476616
0.0084931969
0.0083404024
0.0081893403
0.0080400719
0.0078926651
0.0077472326
0.01483521
0.014694199
0.014549939
0.014402541
0.014252176
0.014099024
0.013943271
0.013785101
0.013624698
0.013462245
0.013297925
0.013131918
0.012964401
0.012795551
0.01262554
0.012454538
0.012282711
0.012110222
0.011937228
0.011763884
0.01159034
0.01141674
0.011243225
0.011069929
0.010896984
0.010724514
0.01055264
0.010381477
0.010211135
0.010041721
0.0098733349
0.0097060727
0.009540026
0.0093752819
0.0092119233
0.0090500288
0.0088896731
0.0087309275
0.0085738593
0.0084185326
0.008265009
0.0081133486
0.0079636179
0.007815929
0.015080377
0.014934037
0.014784407
0.01463167
0.014476015
0.014317627
0.014156694
0.013993402
0.013827939
0.013660489
0.013491235
0.01332036
0.013148044
0.012974464
0.012799794
0.012624206
0.012447866
0.01227094
0.012093585
0.011915958
0.011738209
0.011560483
0.011382922
0.011205661
0.011028831
0.010852558
0.010676962
0.01050216
0.01032826
0.01015537
0.0099835889
0.009813013
0.0096437332
0.0094758362
0.0093094042
0.0091445153
0.0089812434
0.0088196588
0.008659828
0.0085018143
0.008345678
0.0081914781
0.0080392801
0.0078891947
0.015630621
0.015485315
0.015336631
0.015184574
0.015029293
0.014870967
0.014709784
0.014545929
0.014379591
0.014210958
0.014040219
0.013867559
0.013693164
0.013517217
0.013339901
0.013161394
0.012981871
0.012801506
0.012620467
0.01243892
0.012257024
0.012074936
0.011892807
0.011710784
0.011529008
0.011347617
0.01116674
0.010986505
0.010807032
0.010628437
0.010450829
0.010274315
0.010098995
0.0099249641
0.009752313
0.0095811279
0.0094114903
0.0092434776
0.009077163
0.0089126159
0.008749902
0.0085890836
0.0084302198
0.0082733685
0.0081185939
0.0079660051
0.015906573
0.015755363
0.015600737
0.015442788
0.015281678
0.01511759
0.014950708
0.01478122
0.014609315
0.014435183
0.014259013
0.014080992
0.013901308
0.013720145
0.013537686
0.013354112
0.0131696
0.012984324
0.012798454
0.012612155
0.01242559
0.012238916
0.012052285
0.011865844
0.011679736
0.011494097
0.011309059
0.01112475
0.010941289
0.010758792
0.01057737
0.010397129
0.010218167
0.010040581
0.0098644602
0.0096898907
0.0095169533
0.0093457246
0.009176277
0.0090086793
0.0088429959
0.0086792883
0.0085176147
0.0083580316
0.0082006017
0.0080454327
0.016187996
0.016030674
0.015869982
0.015706025
0.015538973
0.015369008
0.015196316
0.015021087
0.014843511
0.014663777
0.014482075
0.014298596
0.014113527
0.013927055
0.013739363
0.013550634
0.013361046
0.013170773
0.012979988
0.012788857
0.012597543
0.012406204
0.012214993
0.012024058
0.011833542
0.011643583
0.011454312
0.011265857
0.011078338
0.010891871
0.010706568
0.010522532
0.010339864
0.010158659
0.009979006
0.0098009904
0.0096246926
0.0094501886
0.0092775499
0.0091068444
0.0089381358
0.0087714843
0.0086069472
0.0084445798
0.0082844434
0.0081266438
0.016472331
0.016308811
0.016141982
0.015971951
0.015798891
0.015622987
0.015444426
0.015263397
0.015080092
0.014894702
0.014707418
0.01451843
0.014327929
0.0141361
0.01394313
0.013749202
0.013554495
0.013359185
0.013163444
0.012967441
0.012771339
0.012575297
0.012379468
0.012184003
0.011989043
0.011794727
0.011601188
0.011408553
0.011216942
0.011026472
0.010837254
0.010649391
0.010462984
0.010278128
0.010094911
0.0099134182
0.0097337293
0.0095559195
0.0093800599
0.0092062171
0.0090344542
0.0088648303
0.0086974016
0.0085322223
0.0083693521
0.0082088949
0.016757387
0.016587637
0.016414642
0.016238514
0.016059426
0.015877564
0.015693117
0.015506274
0.015317228
0.01512617
0.014933293
0.014738789
0.014542847
0.014345656
0.014147403
0.013948271
0.01374844
0.013548089
0.01334739
0.013146512
0.012945619
0.012744871
0.012544423
0.012344425
0.012145019
0.011946344
0.011748534
0.011551716
0.011356011
0.011161534
0.010968397
0.010776704
0.010586555
0.010398043
0.010211258
0.010026283
0.0098431988
0.0096620784
0.0094829926
0.0093060073
0.0091311845
0.0089585826
0.0087882565
0.0086202593
0.0084546493
0.0082915282
0.017041252
0.01686528
0.016686133
0.016503924
0.016318827
0.016131028
0.015940716
0.015748082
0.015553319
0.015356619
0.015158177
0.014958183
0.014756829
0.014554305
0.014350797
0.014146491
0.013941567
0.013736204
0.013530576
0.013324852
0.013119198
0.012913773
0.012708734
0.01250423
0.012300405
0.012097398
0.011895342
0.011694366
0.01149459
0.01129613
0.011099097
0.010903596
0.010709725
0.010517578
0.010327244
0.010138807
0.0099523439
0.0097679302
0.0095856346
0.0094055224
0.0092276548
0.0090520891
0.0088788792
0.0087080772
0.0085397397
0.0083739663
0.017322264
0.017140122
0.016954873
0.016766634
0.01657558
0.016381897
0.016185774
0.015987405
0.015786983
0.015584699
0.015380749
0.015175325
0.014968619
0.014760821
0.014552118
0.014342697
0.014132738
0.013922422
0.013711922
0.013501409
0.013291049
0.013081003
0.012871426
0.01266247
0.012454277
0.012246989
0.012040738
0.011835652
0.011631853
0.011429456
0.011228572
0.011029306
0.010831756
0.010636015
0.010442173
0.010250311
0.010060508
0.0098728366
0.0096873663
0.009504161
0.0093232812
0.0091447832
0.0089687199
0.0087951424
0.0086241056
0.008455707
0.017598991
0.017410775
0.017219506
0.017025318
0.016828387
0.016628902
0.016427053
0.016223033
0.016017036
0.015809254
0.015599882
0.015389114
0.01517714
0.014964153
0.01475034
0.014535888
0.014320978
0.014105791
0.013890501
0.01367528
0.013460293
0.013245703
0.013031666
0.012818332
0.012605846
0.012394348
0.012183972
0.011974846
0.011767091
0.011560823
0.011356152
0.011153183
0.010952014
0.010752739
0.010555445
0.010360214
0.010167125
0.009976249
0.0097876548
0.0096014058
0.0094175614
0.0092361773
0.0090573055
0.0088809956
0.0087073014
0.0085363178
0.017870214
0.017676069
0.017478888
0.017278852
0.017076149
0.016870968
0.0166635
0.016453938
0.016242474
0.016029303
0.015814618
0.015598614
0.015381481
0.015163412
0.014944596
0.014725217
0.014505461
0.014285506
0.014065528
0.013845698
0.013626184
0.013407147
0.013188744
0.012971126
0.012754439
0.012538822
0.012324409
0.012111328
0.011899701
0.011689644
0.011481266
0.011274673
0.011069962
0.010867226
0.010666552
0.010468023
0.010271715
0.010077701
0.0098860471
0.0096968166
0.0095100683
0.0093258567
0.009144233
0.0089652459
0.0087889476
0.0086154306
0.018332105
0.018135105
0.017935053
0.01773206
0.017526296
0.017317946
0.017107196
0.016894237
0.016679261
0.01646246
0.016244027
0.016024158
0.015803045
0.01558088
0.015357855
0.015134159
0.014909978
0.014685497
0.014460894
0.014236346
0.014012025
0.013788098
0.013564728
0.01334207
0.013120278
0.012899495
0.012679864
0.012461516
0.012244581
0.01202918
0.011815429
0.011603438
0.011393311
0.011185147
0.010979037
0.010775068
0.010573323
0.010373876
0.010176801
0.0099821629
0.0097900242
0.009600443
0.0094134729
0.0092291643
0.0090475648
0.0088687253
0.0086927357
0.01859554
0.018392692
0.018186882
0.017978219
0.017766871
0.017553017
0.017336844
0.01711854
0.016898295
0.016676302
0.016452754
0.016227844
0.016001765
0.01577471
0.01554687
0.015318434
0.015089589
0.014860518
0.014631402
0.014402416
0.014173734
0.013945523
0.013717945
0.013491157
0.013265311
0.013040553
0.012817023
0.012594855
0.012374177
0.012155112
0.011937774
0.011722274
0.011508716
0.011297197
0.01108781
0.010880641
0.010675771
0.010473275
0.010273226
0.010075688
0.0098807234
0.009688389
0.0094987378
0.0093118194
0.0091276805
0.0089463705
0.0087679769
0.018850772
0.018642278
0.018430884
0.018216717
0.017999947
0.017780751
0.017559316
0.017335826
0.017110473
0.016883447
0.016654941
0.016425147
0.016194259
0.015962469
0.015729966
0.015496942
0.015263581
0.015030068
0.014796584
0.014563304
0.014330402
0.014098045
0.013866395
0.01363561
0.013405843
0.013177238
0.012949936
0.012724071
0.012499772
0.012277161
0.012056353
0.011837457
0.011620578
0.011405812
0.011193253
0.010982985
0.01077509
0.010569643
0.010366714
0.010166368
0.0099686668
0.009773666
0.009581418
0.0093919716
0.0092053725
0.009021669
0.0088409461
0.019097271
0.018883342
0.018666546
0.018447051
0.018225031
0.018000667
0.017774141
0.017545638
0.017315348
0.017083459
0.016850163
0.016615654
0.016380122
0.01614376
0.015906758
0.015669305
0.015431587
0.015193789
0.014956091
0.014718669
0.014481696
0.01424534
0.014009763
0.013775124
0.013541573
0.013309258
0.013078318
0.012848888
0.012621096
0.012395064
0.012170907
0.011948735
0.011728652
0.011510755
0.011295134
0.011081877
0.010871063
0.010662767
0.010457058
0.010254002
0.010053659
0.0098560839
0.0096613287
0.0094694412
0.0092804663
0.0090944512
0.0089114784
0.019551137
0.019334765
0.01911551
0.01889348
0.018668837
0.018441752
0.018212402
0.017980967
0.017747632
0.017512583
0.017276009
0.017038102
0.016799051
0.016559049
0.016318287
0.016076954
0.015835241
0.015593332
0.015351411
0.01510966
0.014868254
0.014627366
0.014387164
0.01414781
0.013909463
0.013672275
0.013436391
0.013201953
0.012969094
0.012737942
0.01250862
0.012281243
0.01205592
0.011832754
0.011611844
0.011393279
0.011177145
0.010963522
0.010752485
0.010544102
0.010338437
0.010135551
0.0099354979
0.0097383289
0.009544091
0.0093528285
0.0091645872
0.0089794475
0.019784453
0.01956286
0.019338474
0.019111403
0.018881804
0.018649844
0.018415697
0.018179542
0.017941561
0.01770194
0.017460866
0.017218529
0.016975118
0.016730824
0.016485838
0.01624035
0.015994548
0.015748618
0.015502742
0.015257103
0.015011875
0.014767232
0.014523341
0.014280366
0.014038463
0.013797786
0.01355848
0.013320686
0.013084538
0.012850164
0.012617686
0.01238722
0.012158874
0.011932752
0.01170895
0.01148756
0.011268666
0.011052348
0.01083868
0.01062773
0.010419562
0.010214235
0.010011803
0.0098123162
0.0096158215
0.0094223619
0.0092319825
0.0090447613
0.020007926
0.019781346
0.01955204
0.01932013
0.019085772
0.018849133
0.018610385
0.018369703
0.018127269
0.017883266
0.017637879
0.017391298
0.017143711
0.016895308
0.016646279
0.016396813
0.016147098
0.015897319
0.015647659
0.015398299
0.015149415
0.014901179
0.01465376
0.014407319
0.014162015
0.013918
0.01367542
0.013434416
0.013195121
0.012957665
0.012722168
0.012488745
0.012257507
0.012028556
0.011801988
0.011577893
0.011356358
0.01113746
0.010921274
0.010707867
0.010497302
0.010289638
0.010084928
0.0098832224
0.009684566
0.0094890017
0.0092965735
0.0091073576
0.020221466
0.019990128
0.01975611
0.019519564
0.019280649
0.019039531
0.018796379
0.018551367
0.018304673
0.01805648
0.017806972
0.017556335
0.017304759
0.017052431
0.01679954
0.016546275
0.016292824
0.016039371
0.015786098
0.015533187
0.015280813
0.015029148
0.014778361
0.014528613
0.014280063
0.014032862
0.013787158
0.01354309
0.013300792
0.013060393
0.012822014
0.01258577
0.012351771
0.012120119
0.01189091
0.011664234
0.011440177
0.011218816
0.011000225
0.010784471
0.010571617
0.010361721
0.010154835
0.009951009
0.009750287
0.009552711
0.009358324
0.0091672003
0.020658387
0.020425139
0.020189195
0.019950661
0.019709682
0.019466414
0.019221018
0.018973661
0.018724516
0.018473759
0.018221569
0.01796813
0.017713627
0.017458248
0.017202178
0.016945608
0.016688724
0.016431714
0.01617476
0.015918048
0.015661754
0.015406056
0.015151126
0.014897131
0.014644234
0.014392593
0.014142359
0.01389368
0.013646694
0.013401537
0.013158336
0.012917212
0.012678282
0.012441653
0.012207428
0.011975703
0.011746569
0.011520109
0.011296401
0.011075519
0.010857529
0.010642494
0.01043047
0.010221511
0.010015664
0.0098129725
0.0096134779
0.0094172216
0.0092242762
0.020856658
0.02061892
0.020378579
0.020135735
0.019890528
0.019643109
0.019393636
0.019142274
0.018889193
0.018634567
0.018378574
0.018121395
0.017863214
0.017604217
0.01734459
0.017084521
0.016824196
0.016563802
0.016303522
0.016043539
0.015784032
0.015525175
0.015267142
0.0150101
0.014754211
0.014499632
0.014246516
0.013995009
0.013745251
0.013497377
0.013251513
0.013007781
0.012766297
0.012527169
0.012290499
0.012056383
0.011824912
0.011596167
0.011370229
0.011147169
0.010927053
0.010709944
0.010495897
0.010284966
0.010077196
0.009872632
0.0096713118
0.009473275
0.0092785911
0.021044893
0.020802893
0.02055837
0.020311425
0.020062195
0.019810828
0.01955748
0.019302311
0.01904549
0.018787188
0.018527582
0.018266852
0.018005179
0.017742749
0.017479746
0.017216357
0.016952768
0.016689164
0.016425729
0.016162644
0.015900088
0.015638236
0.015377261
0.015117328
0.014858602
0.014601238
0.014345389
0.014091201
0.013838814
0.013588362
0.013339973
0.013093769
0.012849863
0.012608364
0.012369375
0.012132991
0.011899302
0.011668391
0.011440336
0.011215209
0.010993076
0.010773998
0.010558033
0.01034523
0.010135636
0.009929294
0.0097262409
0.0095265121
0.0093301681
0.021223255
0.020977209
0.020728715
0.020477876
0.020224827
0.019969714
0.019712687
0.019453908
0.01919354
0.018931754
0.018668724
0.018404628
0.018139646
0.017873963
0.017607763
0.01734123
0.01707455
0.016807907
0.016541485
0.016275464
0.016010022
0.015745336
0.015481575
0.015218907
0.014957495
0.014697495
0.01443906
0.014182334
0.013927459
0.013674569
0.01342379
0.013175243
0.012929045
0.012685302
0.012444118
0.012205587
0.011969798
0.011736836
0.011506776
0.011279692
0.011055649
0.010834708
0.010616924
0.010402349
0.010191028
0.0099830026
0.0097783096
0.0095769798
0.0093790543
0.021391941
0.021142058
0.0208898
0.020635272
0.020378605
0.020119943
0.019859434
0.019597236
0.019333511
0.019068428
0.018802159
0.018534879
0.01826677
0.017998011
0.017728788
0.017459283
0.017189682
0.016920168
0.016650923
0.016382127
0.01611396
0.015846595
0.015580203
0.015314952
0.015051002
0.014788512
0.014527633
0.014268511
0.014011286
0.013756091
0.013503054
0.013252296
0.013003931
0.012758069
0.012514809
0.012274249
0.012036477
0.011801575
0.011569622
0.011340688
0.011114839
0.010892136
0.010672633
0.010456383
0.010243429
0.010033814
0.009827574
0.0096247417
0.0094253648
0.0092294917
0.021551183
0.021297667
0.021041849
0.02078383
0.020523742
0.020261725
0.019997925
0.019732497
0.019465601
0.019197404
0.018928076
0.018657792
0.018386729
0.018115069
0.017842993
0.017570685
0.017298328
0.017026104
0.016754197
0.016482786
0.016212047
0.015942156
0.015673284
0.015405596
0.015139254
0.014874416
0.014611233
0.014349851
0.014090409
0.013833041
0.013577875
0.013325031
0.013074623
0.012826761
0.012581545
0.012339071
0.012099427
0.011862697
0.011628956
0.011398277
0.011170724
0.010946359
0.010725235
0.010507403
0.010292909
0.010081794
0.0098740951
0.0096698468
0.0094690879
0.0092718989
0.021701238
0.02144429
0.021185108
0.020923794
0.020660477
0.020395294
0.020128389
0.019859915
0.019590029
0.019318897
0.019046686
0.01877357
0.018499725
0.018225331
0.017950569
0.01767562
0.017400668
0.017125895
0.016851481
0.016577606
0.016304448
0.016032179
0.015760971
0.01549099
0.015222397
0.014955348
0.014689997
0.014426487
0.014164958
0.013905545
0.013648374
0.013393567
0.013141236
0.012891492
0.012644433
0.012400157
0.012158751
0.011920298
0.011684875
0.011452552
0.011223394
0.010997462
0.010774811
0.01055549
0.010339544
0.010127016
0.0099179425
0.0097123588
0.0095103015
0.0093118422
0.021842385
0.021582199
0.021319847
0.021055428
0.020789069
0.020520904
0.020251076
0.019979734
0.019707034
0.01943314
0.019158217
0.018882437
0.018605976
0.018329011
0.018051723
0.017774292
0.017496901
0.01721973
0.01694296
0.016666771
0.016391338
0.016116835
0.015843433
0.015571296
0.015300587
0.015031462
0.014764073
0.014498564
0.014235075
0.01397374
0.013714685
0.013458032
0.013203895
0.01295238
0.012703591
0.01245762
0.012214558
0.011974486
0.01173748
0.011503612
0.011272945
0.011045541
0.010821453
0.010600731
0.01038342
0.010169562
0.0099591947
0.0097523524
0.0095490705
0.0093494112
0.02197492
0.021711687
0.021446351
0.021179012
0.020909792
0.020638824
0.020366248
0.020092211
0.019816868
0.019540379
0.019262909
0.018984628
0.018705711
0.018426333
0.018146674
0.017866913
0.017587233
0.017307813
0.017028833
0.016750472
0.016472905
0.016196307
0.015920845
0.015646687
0.015373994
0.015102921
0.01483362
0.014566236
0.014300908
0.014037769
0.013776948
0.013518563
0.01326273
0.013009556
0.012759142
0.012511582
0.012266965
0.012025373
0.011786883
0.011551564
0.011319481
0.011090694
0.010865257
0.01064322
0.010424627
0.01020952
0.0099979363
0.0097899102
0.0095854755
0.0093846885
0.022099153
0.021833057
0.021564918
0.021294837
0.021022932
0.020749333
0.020474179
0.020197614
0.019919792
0.01964087
0.019361012
0.019080387
0.018799168
0.018517529
0.018235648
0.017953706
0.017671881
0.017390354
0.017109304
0.016828909
0.016549344
0.016270782
0.015993394
0.015717343
0.01544279
0.015169893
0.014898802
0.014629662
0.014362612
0.014097785
0.013835308
0.013575302
0.013317881
0.013063152
0.012811216
0.012562167
0.012316094
0.012073078
0.011833196
0.011596518
0.011363108
0.011133026
0.010906325
0.010683054
0.010463259
0.010246981
0.010034256
0.009825119
0.0096196017
0.009417757
0.022215401
0.02194662
0.021675854
0.021403202
0.021128781
0.020852718
0.020575149
0.020296218
0.020016074
0.019734876
0.019452783
0.019169965
0.018886592
0.018602838
0.018318879
0.018034896
0.017751066
0.017467569
0.017184583
0.016902286
0.016620853
0.016340457
0.016061266
0.015783445
0.015507156
0.015232553
0.014959788
0.014689006
0.014420346
0.014153941
0.013889917
0.013628395
0.013369489
0.013113306
0.012859946
0.012609505
0.01236207
0.012117723
0.01187654
0.01163859
0.011403938
0.011172643
0.010944759
0.010720335
0.010499415
0.01028204
0.010068247
0.0098580682
0.0096515364
0.0094487014
0.022323986
0.022052692
0.021779469
0.021504412
0.021227638
0.020949271
0.020669445
0.020388301
0.020105989
0.019822662
0.019538483
0.019253616
0.018968231
0.018682502
0.018396604
0.018110714
0.017825012
0.017539676
0.017254884
0.016970812
0.016687636
0.016405527
0.016124654
0.015845181
0.01556727
0.015291076
0.01501675
0.014744436
0.014474273
0.014206394
0.013940926
0.013677989
0.013417697
0.013160157
0.012905469
0.012653728
0.012405021
0.012159431
0.011917032
0.011677895
0.011442083
0.011209656
0.010980667
0.010755165
0.010533193
0.010314793
0.010100001
0.0098888487
0.0096813682
0.0094776074
0.022425234
0.022151594
0.021876075
0.021598773
0.021319802
0.021039284
0.020757352
0.020474144
0.020189808
0.019904498
0.019618372
0.019331595
0.019044335
0.018756764
0.018469058
0.018181393
0.017893946
0.017606897
0.017320421
0.017034695
0.016749895
0.01646619
0.01618375
0.015902739
0.015623317
0.015345641
0.015069859
0.014796118
0.014524555
0.014255303
0.01398849
0.013724235
0.013462651
0.013203846
0.01294792
0.012694967
0.012445075
0.012198326
0.011954794
0.01171455
0.011477658
0.011244175
0.011014155
0.010787647
0.010564694
0.010345338
0.010129613
0.0099175523
0.0097091861
0.0095045612
0.02251947
0.022243643
0.021965984
0.021686589
0.021405571
0.02112305
0.020839156
0.020554026
0.020267807
0.019980649
0.019692711
0.019404156
0.019115151
0.018825868
0.018536479
0.018247162
0.017958093
0.017669449
0.017381408
0.017094144
0.016807832
0.016522644
0.016238747
0.015956305
0.015675478
0.015396423
0.015119288
0.014844219
0.014571354
0.014300826
0.014032761
0.01376728
0.013504494
0.013244513
0.012987435
0.012733355
0.012482361
0.012234533
0.011989948
0.011748673
0.011510774
0.011276308
0.011045329
0.010817885
0.010594019
0.010373771
0.010157178
0.0099442704
0.009735079
0.0095296488
0.022607018
0.022329156
0.022049506
0.021768165
0.021485243
0.021200858
0.02091514
0.020628225
0.020340255
0.020051381
0.01976176
0.019471553
0.019180927
0.018890053
0.018599102
0.018308251
0.018017675
0.017727551
0.017438056
0.017149365
0.016861651
0.016575084
0.016289834
0.016006064
0.015723934
0.015443598
0.015165208
0.014888906
0.014614833
0.014343119
0.014073893
0.013807272
0.013543372
0.013282298
0.013024151
0.012769024
0.012517006
0.012268177
0.012022612
0.01178038
0.011541546
0.011306167
0.011074296
0.010845981
0.010621266
0.01040019
0.010182789
0.0099690942
0.0097591351
0.0095529559
0.022688197
0.022408446
0.022126947
0.021843798
0.021559109
0.021272996
0.020985586
0.020697013
0.020407419
0.020116954
0.019825772
0.019534034
0.019241906
0.018949556
0.018657158
0.018364885
0.018072913
0.017781418
0.017490575
0.017200561
0.016911547
0.016623705
0.016337201
0.0160522
0.015768862
0.01548734
0.015207786
0.014930343
0.014655149
0.014382337
0.014112034
0.013844359
0.013579424
0.013317338
0.0130582
0.012802103
0.012549135
0.012299378
0.012052905
0.011809786
0.011570085
0.011333859
0.011101161
0.010872038
0.010646536
0.010424691
0.01020654
0.0099921136
0.0097814416
0.0095745668
0.023596914
0.023320935
0.023043046
0.02276333
0.022481821
0.022198607
0.021913783
0.021627457
0.021339743
0.021050766
0.020760659
0.020469562
0.020177624
0.019884998
0.019591843
0.019298325
0.019004611
0.018710873
0.018417285
0.018124022
0.017831258
0.01753917
0.017247932
0.016957716
0.016668694
0.016381031
0.016094892
0.015810437
0.015527818
0.015247188
0.014968689
0.014692459
0.014418632
0.014147333
0.013878682
0.013612791
0.013349769
0.013089713
0.012832719
0.012578873
0.012328256
0.012080944
0.011837004
0.0115965
0.01135949
0.011126026
0.010896156
0.010669923
0.010447367
0.010228521
0.010013417
0.0098020841
0.0095945645
0.023947247
0.023671427
0.023393698
0.023114106
0.022832715
0.022549579
0.022264779
0.021978407
0.021690567
0.021401374
0.021110949
0.020819425
0.02052694
0.020233641
0.019939681
0.019645219
0.019350417
0.019055444
0.01876047
0.018465668
0.018171212
0.017877278
0.01758404
0.017291673
0.017000349
0.016710237
0.016421505
0.016134316
0.015848829
0.015565199
0.015283575
0.015004102
0.014726916
0.014452152
0.014179934
0.013910382
0.013643609
0.013379722
0.01311882
0.012860997
0.01260634
0.01235493
0.012106842
0.011862144
0.011620898
0.011383164
0.011148993
0.010918432
0.010691525
0.01046831
0.010248821
0.010033091
0.0098211466
0.0096130302
0.024017578
0.023740096
0.023460749
0.023179581
0.022896649
0.022612012
0.022325748
0.022037948
0.021748713
0.021458156
0.021166397
0.020873566
0.020579802
0.02028525
0.019990061
0.019694393
0.01939841
0.019102276
0.018806164
0.018510244
0.01821469
0.017919678
0.017625382
0.017331975
0.017039629
0.016748514
0.016458797
0.016170641
0.015884205
0.015599643
0.015317105
0.015036734
0.014758669
0.014483041
0.014209977
0.013939595
0.01367201
0.013407326
0.013145645
0.012887059
0.012631655
0.012379514
0.012130711
0.011885313
0.011643385
0.011404983
0.011170159
0.010938962
0.010711432
0.01048761
0.010267528
0.010051219
0.0098387106
0.0096300431
0.024082238
0.023803226
0.02352239
0.02323977
0.02295542
0.022669402
0.022381792
0.022092678
0.02180216
0.021510348
0.021217362
0.02092333
0.02062839
0.020332686
0.020036367
0.019739592
0.019442522
0.019145323
0.018848163
0.018551216
0.018254654
0.017958652
0.017663383
0.01736902
0.017075737
0.016783701
0.016493079
0.016204035
0.015916726
0.015631308
0.01534793
0.015066735
0.014787861
0.01451144
0.014237598
0.013966455
0.013698122
0.013432707
0.013170309
0.012911021
0.012654931
0.012402118
0.012152658
0.011906618
0.011664061
0.011425045
0.011189622
0.010957838
0.010729736
0.010505354
0.010284727
0.010067885
0.0098548558
0.0096456801
0.024141533
0.023861117
0.023578912
0.02329496
0.02300931
0.022722025
0.022433179
0.022142859
0.021851164
0.021558201
0.02126409
0.020968957
0.020672938
0.020376177
0.020078823
0.019781033
0.019482966
0.01918479
0.018886672
0.018588783
0.018291297
0.017994387
0.017698226
0.017402989
0.017108845
0.016815965
0.016524514
0.016234656
0.015946549
0.015660346
0.015376198
0.015094247
0.014814632
0.014537485
0.01426293
0.013991088
0.013722071
0.013455985
0.01319293
0.012932999
0.012676279
0.01242285
0.012172787
0.011926158
0.011683025
0.011443446
0.011207472
0.01097515
0.010746522
0.010521627
0.010300499
0.010083167
0.009869659
0.0096600155
0.024195762
0.023914059
0.023630602
0.023345429
0.023058589
0.022770145
0.022480169
0.022188746
0.021895973
0.021601958
0.021306817
0.021010677
0.020713672
0.020415945
0.020117644
0.019818925
0.019519949
0.019220879
0.018921884
0.018623135
0.018324804
0.018027064
0.017730089
0.017434052
0.017139123
0.016845471
0.016553263
0.01626266
0.015973823
0.015686903
0.015402052
0.01511941
0.014839118
0.014561306
0.0142861
0.014013619
0.013743976
0.013477277
0.013213622
0.012953103
0.012695807
0.012441815
0.0121912
0.011944032
0.011700372
0.011460277
0.011223799
0.010990985
0.010761876
0.010536511
0.010314923
0.010097142
0.0098831947
0.0096731215
0.02424521
0.023962332
0.023677731
0.023391445
0.02310352
0.022814019
0.022523011
0.022230582
0.021936827
0.021641851
0.021345772
0.021048713
0.020750809
0.020452201
0.020153037
0.019853472
0.019553666
0.019253782
0.018953988
0.018654455
0.018355354
0.018056858
0.017759141
0.017462375
0.01716673
0.016872375
0.016579477
0.016288197
0.015998693
0.015711121
0.015425628
0.015142358
0.014861448
0.014583031
0.014307231
0.014034168
0.013763955
0.013496697
0.013232494
0.012971438
0.012713618
0.012459112
0.012207994
0.011960334
0.011716193
0.011475628
0.01123869
0.011005426
0.010775879
0.010550084
0.010328076
0.010109884
0.0098955349
0.0096850673
0.024290153
0.024006206
0.023720565
0.023433265
0.023144355
0.022853891
0.022561946
0.022268602
0.021973954
0.021678106
0.021381173
0.021083279
0.020784558
0.02048515
0.020185202
0.019884868
0.019584308
0.019283684
0.018983165
0.018682919
0.018383119
0.018083937
0.017785546
0.017488117
0.017191822
0.016896829
0.016603303
0.016311408
0.0160213
0.015733134
0.015447059
0.015163217
0.014881747
0.01460278
0.014326441
0.014052849
0.013782117
0.013514351
0.013249651
0.012988108
0.01272981
0.012474837
0.012223263
0.011975155
0.011730576
0.011489583
0.011252228
0.011018555
0.010788607
0.010562422
0.010340031
0.010121465
0.0099067487
0.0096959197