/*--------------------------------*- C++ -*----------------------------------*\
| =========                 |                                                 |
| \\      /  F ield         | OpenFOAM: The Open Source CFD Toolbox           |
|  \\    /   O peration     | Version:  2312                                  |
|   \\  /    A nd           | Website:  www.openfoam.com                      |
|    \\/     M anipulation  |                                                 |
\*---------------------------------------------------------------------------*/
FoamFile
{
    version     2.0;
    format      ascii;
    arch        "LSB;label=32;scalar=64";
    class       volScalarField;
    location    "0.1";
    object      N2;
}
// * * * * * * * * * * * * * * * * * * * * * * * * * * * * * * * * * * * * * //

dimensions      [0 0 0 0 0 0 0];

internalField   nonuniform List<scalar> 
3250
(
0.73939919
0.73975932
0.74012654
0.74050031
0.74088017
0.74126561
0.74165615
0.74205129
0.74245052
0.74285336
0.74325933
0.74366794
0.74407873
0.74449123
0.74490501
0.74531963
0.74573465
0.74614967
0.7465643
0.74697813
0.74739082
0.747802
0.74821133
0.7486185
0.74902318
0.7494251
0.74982397
0.75021954
0.75061155
0.75099978
0.75138401
0.75176403
0.75213966
0.75251072
0.75287706
0.75323851
0.75359494
0.75394623
0.75429224
0.75463288
0.75496804
0.75529761
0.75562152
0.75593967
0.73927967
0.73964272
0.74001287
0.74038957
0.74077233
0.74116066
0.74155407
0.74195203
0.74235406
0.74275967
0.74316835
0.74357965
0.74399308
0.74440819
0.74482452
0.74524165
0.74565913
0.74607656
0.74649354
0.74690969
0.74732463
0.74773802
0.7481495
0.74855876
0.7489655
0.74936941
0.74977022
0.75016767
0.75056152
0.75095153
0.75133748
0.75171919
0.75209645
0.75246909
0.75283695
0.75319988
0.75355775
0.75391042
0.75425779
0.75459973
0.75493616
0.75526698
0.75559208
0.75591134
0.73905698
0.73942555
0.73980118
0.74018332
0.74057148
0.74096517
0.74136387
0.74176708
0.74217429
0.74258501
0.74299874
0.743415
0.74383333
0.74425325
0.74467431
0.74509608
0.74551812
0.74594001
0.74636137
0.7467818
0.74720093
0.7476184
0.74803388
0.74844704
0.74885758
0.74926519
0.74966961
0.75007057
0.75046783
0.75086115
0.75125033
0.75163515
0.75201544
0.75239102
0.75276173
0.75312743
0.75348796
0.75384322
0.75419309
0.75453746
0.75487624
0.75520932
0.75553661
0.75585797
0.73874573
0.73912201
0.73950529
0.73989501
0.7402907
0.74069183
0.7410979
0.7415084
0.74192281
0.74234064
0.74276138
0.74318456
0.74360968
0.7440363
0.74446394
0.74489216
0.74532054
0.74574865
0.74617609
0.74660248
0.74702744
0.74745061
0.74787166
0.74829025
0.74870608
0.74911886
0.7495283
0.74993416
0.75033617
0.75073412
0.75112779
0.75151699
0.75190151
0.7522812
0.75265589
0.75302544
0.75338972
0.75374859
0.75410196
0.75444972
0.75479176
0.75512801
0.75545835
0.75578265
0.73835918
0.73874502
0.73913777
0.73953688
0.73994187
0.74035222
0.74076741
0.74118692
0.74161024
0.74203685
0.74246626
0.74289798
0.74333152
0.74376641
0.74420218
0.74463839
0.74507461
0.74551041
0.74594539
0.74637915
0.74681132
0.74724155
0.74766949
0.74809481
0.7485172
0.74893637
0.74935205
0.74976397
0.75017189
0.75057558
0.75097483
0.75136944
0.75175922
0.75214401
0.75252364
0.75289799
0.7532669
0.75363028
0.75398799
0.75433995
0.75468607
0.75502625
0.75536038
0.75568833
0.73790933
0.73830626
0.73871001
0.73912002
0.73953581
0.73995685
0.74038262
0.74081258
0.74124623
0.74168303
0.7421225
0.74256412
0.74300741
0.74345189
0.74389709
0.74434257
0.74478788
0.74523259
0.74567631
0.74611863
0.74655918
0.74699759
0.74743352
0.74786665
0.74829667
0.74872327
0.74914619
0.74956516
0.74997994
0.7503903
0.75079603
0.75119694
0.75159284
0.75198356
0.75236895
0.75274887
0.75312319
0.75349179
0.75385457
0.75421143
0.75456229
0.75490704
0.75524559
0.75557781
0.73740706
0.73781635
0.73823235
0.73865451
0.73908232
0.73951527
0.73995282
0.74039442
0.74083957
0.74128772
0.74173837
0.74219102
0.74264517
0.74310032
0.74355603
0.74401181
0.74446724
0.74492189
0.74537533
0.74582718
0.74627705
0.74672458
0.74716943
0.74761126
0.74804976
0.74848465
0.74891563
0.74934246
0.74976489
0.7501827
0.75059566
0.7510036
0.75140632
0.75180366
0.75219548
0.75258163
0.75296198
0.75333643
0.75370486
0.7540672
0.75442334
0.75477321
0.7551167
0.75545369
0.73686219
0.73728487
0.73771412
0.73814943
0.73859028
0.73903612
0.73948642
0.73994064
0.74039822
0.74085866
0.74132142
0.741786
0.74225189
0.7427186
0.74318566
0.74365261
0.74411899
0.74458438
0.74504835
0.74551051
0.74597047
0.74642787
0.74688236
0.74733361
0.74778131
0.74822517
0.74866489
0.74910024
0.74953096
0.74995682
0.75037763
0.75079318
0.7512033
0.75160783
0.75200661
0.75239951
0.75278641
0.7531672
0.75354177
0.75391004
0.75427193
0.75462735
0.75497621
0.75531838
0.73628349
0.73672041
0.73716374
0.73761301
0.73806768
0.73852721
0.73899104
0.73945861
0.7399294
0.74040285
0.74087844
0.74135566
0.741834
0.74231296
0.74279205
0.74327082
0.7437488
0.74422557
0.7447007
0.74517379
0.74564445
0.74611231
0.74657703
0.74703827
0.74749571
0.74794907
0.74839807
0.74884245
0.74928196
0.74971638
0.7501455
0.75056914
0.75098711
0.75139926
0.75180543
0.75220551
0.75259936
0.75298688
0.75336797
0.75374255
0.75411054
0.75447187
0.75482643
0.75517411
0.73479676
0.73523408
0.73567898
0.73613069
0.73658875
0.73705262
0.73752174
0.73799555
0.7384735
0.73895502
0.73943956
0.73992659
0.74041557
0.74090597
0.74139728
0.741889
0.74238065
0.74287174
0.74336182
0.74385046
0.74433722
0.7448217
0.74530351
0.74578228
0.74625766
0.74672932
0.74719693
0.74766021
0.74811888
0.74857268
0.74902136
0.74946471
0.74990252
0.75033459
0.75076076
0.75118087
0.75159477
0.75200233
0.75240344
0.75279799
0.75318589
0.75356707
0.75394144
0.75430893
0.75466945
0.75502289
0.73414222
0.73459528
0.73505563
0.7355227
0.73599597
0.73647489
0.73695891
0.73744744
0.73793993
0.73843581
0.73893453
0.73943553
0.73993829
0.74044226
0.74094693
0.74145179
0.74195634
0.74246012
0.74296265
0.7434635
0.74396223
0.74445844
0.74495173
0.74544173
0.74592809
0.74641047
0.74688855
0.74736204
0.74783067
0.74829417
0.7487523
0.74920485
0.74965159
0.75009236
0.75052698
0.75095528
0.75137714
0.75179242
0.75220101
0.75260281
0.75299774
0.75338571
0.75376666
0.75414051
0.75450718
0.75486656
0.73347473
0.73394377
0.73441994
0.73490268
0.73539147
0.73588575
0.73638494
0.73688848
0.73739579
0.7379063
0.73841946
0.73893471
0.73945149
0.73996929
0.74048756
0.74100579
0.7415235
0.74204019
0.74255541
0.74306869
0.74357961
0.74408776
0.74459274
0.74509418
0.74559171
0.74608501
0.74657376
0.74705766
0.74753643
0.74800981
0.74847757
0.74893948
0.74939534
0.74984497
0.75028819
0.75072486
0.75115483
0.75157798
0.7519942
0.75240339
0.75280548
0.75320038
0.75358803
0.75396837
0.75434132
0.75470676
0.73280019
0.73328539
0.73377756
0.73427615
0.73478062
0.73529041
0.73580494
0.73632364
0.73684592
0.73737121
0.73789895
0.73842857
0.73895953
0.73949127
0.74002327
0.74055501
0.74108599
0.74161572
0.74214372
0.74266956
0.74319279
0.74371299
0.74422976
0.74474274
0.74525156
0.74575588
0.7462554
0.74674979
0.74723881
0.74772217
0.74819965
0.74867102
0.74913609
0.74959466
0.75004658
0.75049169
0.75092985
0.75136095
0.75178488
0.75220154
0.75261087
0.75301277
0.75340721
0.75379411
0.75417339
0.75454496
0.7321238
0.73262521
0.73313345
0.73364793
0.73416814
0.73469348
0.7352234
0.73575729
0.73629457
0.73683468
0.73737703
0.73792106
0.7384662
0.73901192
0.73955767
0.74010294
0.74064721
0.74119
0.74173082
0.74226923
0.74280477
0.74333705
0.74386564
0.74439018
0.7449103
0.74542567
0.74593596
0.74644088
0.74694015
0.74743352
0.74792074
0.74840159
0.74887588
0.74934342
0.74980405
0.75025762
0.750704
0.75114307
0.75157472
0.75199888
0.75241546
0.75282439
0.75322562
0.7536191
0.75400474
0.75438246
0.73145009
0.73196769
0.73249193
0.73302226
0.73355814
0.73409899
0.73464422
0.73519324
0.73574548
0.73630033
0.73685722
0.73741559
0.73797486
0.73853448
0.73909392
0.73965265
0.74021015
0.74076592
0.7413195
0.74187041
0.74241822
0.7429625
0.74350285
0.7440389
0.74457026
0.74509662
0.74561764
0.74613304
0.74664252
0.74714584
0.74764275
0.74813304
0.74861651
0.74909298
0.74956228
0.75002428
0.75047884
0.75092584
0.75136519
0.75179681
0.75222061
0.75263654
0.75304455
0.75344458
0.75383656
0.7542204
0.73078302
0.73131666
0.73185677
0.7324028
0.73295421
0.73351041
0.73407081
0.73463482
0.73520185
0.7357713
0.73634259
0.73691514
0.73748839
0.73806177
0.73863475
0.73920679
0.73977738
0.740346
0.74091219
0.74147548
0.74203541
0.74259158
0.74314356
0.74369098
0.74423348
0.7447707
0.74530234
0.74582809
0.74634768
0.74686085
0.74736735
0.74786698
0.74835954
0.74884484
0.74932273
0.74979307
0.75025572
0.75071058
0.75115756
0.75159656
0.75202751
0.75245037
0.75286508
0.7532716
0.75366986
0.75405977
0.73012599
0.73067543
0.73123117
0.73179268
0.7323594
0.73293073
0.73350608
0.73408485
0.73466645
0.73525028
0.73583574
0.73642226
0.73700927
0.7375962
0.73818251
0.73876765
0.73935112
0.73993239
0.74051099
0.74108645
0.74165832
0.74222618
0.74278961
0.74334823
0.74390167
0.7444496
0.74499169
0.74552764
0.74605717
0.74658003
0.74709598
0.7476048
0.7481063
0.74860031
0.74908665
0.7495652
0.75003583
0.75049843
0.7509529
0.75139918
0.75183718
0.75226687
0.75268818
0.75310109
0.75350553
0.75390142
0.72948184
0.73004679
0.73061787
0.73119457
0.73177631
0.73236249
0.73295251
0.73354576
0.73414164
0.73473955
0.73533891
0.73593912
0.73653962
0.73713982
0.73773918
0.73833717
0.73893324
0.73952691
0.74011767
0.74070506
0.74128862
0.74186793
0.74244257
0.74301216
0.74357633
0.74413474
0.74468707
0.74523301
0.74577228
0.74630464
0.74682984
0.74734767
0.74785794
0.74836047
0.7488551
0.7493417
0.74982015
0.75029033
0.75075216
0.75120556
0.75165048
0.75208685
0.75251465
0.75293383
0.75334433
0.75374608
0.72827921
0.72885286
0.729433
0.73001914
0.73061071
0.73120714
0.73180782
0.73241216
0.73301955
0.73362938
0.73424105
0.73485396
0.73546754
0.73608119
0.73669434
0.73730644
0.73791695
0.73852533
0.73913108
0.73973371
0.74033273
0.7409277
0.74151818
0.74210376
0.74268406
0.74325869
0.74382733
0.74438964
0.74494533
0.74549411
0.74603574
0.74656997
0.74709659
0.74761541
0.74812626
0.74862898
0.74912344
0.74960951
0.75008709
0.7505561
0.75101647
0.75146813
0.75191104
0.75234516
0.75277046
0.75318688
0.75359436
0.72765242
0.72824109
0.72883609
0.72943688
0.73004294
0.73065367
0.73126848
0.73188675
0.73250789
0.73313129
0.73375634
0.73438244
0.735009
0.73563544
0.73626118
0.73688566
0.73750834
0.73812869
0.73874618
0.73936033
0.73997066
0.74057672
0.74117806
0.74177427
0.74236496
0.74294977
0.74352835
0.74410037
0.74466553
0.74522355
0.74577419
0.74631719
0.74685236
0.7473795
0.74789844
0.74840902
0.74891112
0.74940461
0.74988939
0.75036538
0.75083252
0.75129074
0.75174001
0.75218028
0.75261153
0.75303372
0.75344676
0.72704501
0.72764825
0.72825764
0.72887266
0.72949277
0.73011737
0.73074587
0.73137766
0.73201214
0.73264868
0.73328669
0.73392557
0.73456471
0.73520354
0.73584148
0.73647795
0.73711242
0.73774435
0.73837322
0.73899854
0.73961982
0.74023661
0.74084846
0.74145497
0.74205574
0.7426504
0.7432386
0.74382002
0.74439436
0.74496133
0.74552069
0.7460722
0.74661565
0.74715085
0.74767763
0.74819583
0.74870532
0.749206
0.74969776
0.75018052
0.75065422
0.7511188
0.75157422
0.75202046
0.75245748
0.75288525
0.75330369
0.72645829
0.7270756
0.7276989
0.72832768
0.72896138
0.7295994
0.73024114
0.73088599
0.73153334
0.73218259
0.73283312
0.73348434
0.73413563
0.73478643
0.73543613
0.73608419
0.73673004
0.73737315
0.73801301
0.7386491
0.73928095
0.7399081
0.74053011
0.74114656
0.74175705
0.74236122
0.74295871
0.74354921
0.74413241
0.74470803
0.74527582
0.74583554
0.74638698
0.74692996
0.7474643
0.74798986
0.7485065
0.74901412
0.74951262
0.75000192
0.75048196
0.75095268
0.75141406
0.75186606
0.75230866
0.75274182
0.75316548
0.72526856
0.72589314
0.72652405
0.7271608
0.72780286
0.72844967
0.72910062
0.72975511
0.73041255
0.73107231
0.7317338
0.73239639
0.73305948
0.73372248
0.73438479
0.73504583
0.73570503
0.73636184
0.73701572
0.73766614
0.73831261
0.73895464
0.73959176
0.74022354
0.74084955
0.74146941
0.74208273
0.74268917
0.74328841
0.74388013
0.74446407
0.74503997
0.7456076
0.74616674
0.74671721
0.74725884
0.74779148
0.74831501
0.74882932
0.7493343
0.7498299
0.75031604
0.75079268
0.75125979
0.75171735
0.75216532
0.75260369
0.75303238
0.72471244
0.72535031
0.72599433
0.72664403
0.72729887
0.72795827
0.72862165
0.72928841
0.72995794
0.73062962
0.73130286
0.73197703
0.73265153
0.73332577
0.73399913
0.73467105
0.73534096
0.73600828
0.73667249
0.73733307
0.73798949
0.73864128
0.73928798
0.73992914
0.74056433
0.74119317
0.74181528
0.74243031
0.74303794
0.74363785
0.74422978
0.74481347
0.74538869
0.74595522
0.74651288
0.74706151
0.74760096
0.7481311
0.74865182
0.74916304
0.74966469
0.75015669
0.75063902
0.75111164
0.75157453
0.75202767
0.75247103
0.75290455
0.72417973
0.72483033
0.72548693
0.72614904
0.72681613
0.72748762
0.72816291
0.72884142
0.72952254
0.73020565
0.73089014
0.73157541
0.73226084
0.73294583
0.73362979
0.73431213
0.73499227
0.73566967
0.73634378
0.73701406
0.73768002
0.73834116
0.73899702
0.73964716
0.74029115
0.7409286
0.74155912
0.74218237
0.74279803
0.74340578
0.74400536
0.74459651
0.74517899
0.74575261
0.74631716
0.74687249
0.74741845
0.74795492
0.7484818
0.74899899
0.74950643
0.75000405
0.75049183
0.75096973
0.75143773
0.75189582
0.75234397
0.75278213
0.72367067
0.72433345
0.72500208
0.72567608
0.72635488
0.72703793
0.72772462
0.72841437
0.72910656
0.72980059
0.73049584
0.73119171
0.73188758
0.73258285
0.73327692
0.73396921
0.73465915
0.73534616
0.73602972
0.73670928
0.73738434
0.73805442
0.73871904
0.73937775
0.74003014
0.7406758
0.74131436
0.74194547
0.7425688
0.74318404
0.74379093
0.7443892
0.74497863
0.745559
0.74613014
0.74669187
0.74724406
0.74778659
0.74831934
0.74884224
0.74935521
0.74985821
0.75035119
0.75083413
0.75130702
0.75176985
0.75222259
0.75266518
0.722517
0.72318528
0.72385971
0.72453985
0.7252252
0.72591519
0.72660927
0.72730683
0.7280073
0.72871005
0.72941449
0.73012
0.73082598
0.7315318
0.73223687
0.73294058
0.73364236
0.73434162
0.7350378
0.73573036
0.73641877
0.73710251
0.73778109
0.73845405
0.73912094
0.73978133
0.74043482
0.74108104
0.74171963
0.74235027
0.74297266
0.74358651
0.74419158
0.74478762
0.74537444
0.74595185
0.74651969
0.74707782
0.74762611
0.74816447
0.7486928
0.74921106
0.74971917
0.75021712
0.75070487
0.75118243
0.75164978
0.75210689
0.75255373
0.72204389
0.72272346
0.72340904
0.72410016
0.72479632
0.72549697
0.72620154
0.72690946
0.72762012
0.72833293
0.72904728
0.72976255
0.73047813
0.73119342
0.73190781
0.73262069
0.73333149
0.73403962
0.73474452
0.73544564
0.73614245
0.73683444
0.73752112
0.73820201
0.73887667
0.73954467
0.74020561
0.74085911
0.74150483
0.74214242
0.7427716
0.74339207
0.7440036
0.74460594
0.74519889
0.74578227
0.74635592
0.74691969
0.74747347
0.74801716
0.74855067
0.74907394
0.74958693
0.7500896
0.75058194
0.75106393
0.75153558
0.75199687
0.75244775
0.72159473
0.72228505
0.72298122
0.72368278
0.72438921
0.72509999
0.72581454
0.72653229
0.72725264
0.72797499
0.72869874
0.72942328
0.73014799
0.73087226
0.73159549
0.73231708
0.73303644
0.73375299
0.73446616
0.7351754
0.7358802
0.73658002
0.73727437
0.73796279
0.73864483
0.73932005
0.73998806
0.74064847
0.74130094
0.74194513
0.74258075
0.74320751
0.74382517
0.74443348
0.74503226
0.7456213
0.74620046
0.74676959
0.74732858
0.74787733
0.74841576
0.7489438
0.74946142
0.74996857
0.75046525
0.75095146
0.75142719
0.75189245
0.75234719
0.7211692
0.72186971
0.72257593
0.72328738
0.72400356
0.72472393
0.72544794
0.72617501
0.72690454
0.72763594
0.72836861
0.72910192
0.72983528
0.73056806
0.73129967
0.7320295
0.73275696
0.73348148
0.73420249
0.73491943
0.73563178
0.73633901
0.73704064
0.73773619
0.73842521
0.73910727
0.73978197
0.74044893
0.7411078
0.74175825
0.74239997
0.74303269
0.74365615
0.74427012
0.74487441
0.74546882
0.7460532
0.74662742
0.74719134
0.74774489
0.74828797
0.74882053
0.74934253
0.74985393
0.75035473
0.75084492
0.75132452
0.75179354
0.75225194
0.72076682
0.72147699
0.72219271
0.72291352
0.72363893
0.72436838
0.72510134
0.72583722
0.72657544
0.7273154
0.72805649
0.72879811
0.72953964
0.73028047
0.73102
0.73175762
0.73249275
0.73322481
0.73395322
0.73467744
0.73539693
0.73611117
0.73681967
0.73752196
0.73821758
0.73890611
0.73958714
0.74026029
0.7409252
0.74158156
0.74222905
0.7428674
0.74349635
0.74411568
0.74472518
0.74532467
0.74591399
0.746493
0.7470616
0.74761968
0.74816716
0.748704
0.74923014
0.74974556
0.75025025
0.75074421
0.75122746
0.7517
0.75216182
0.75261286
0.72038705
0.72110634
0.72183105
0.7225607
0.72329482
0.72403285
0.72477426
0.72551847
0.72626489
0.72701292
0.72776197
0.72851142
0.72926067
0.73000909
0.7307561
0.73150108
0.73224344
0.7329826
0.733718
0.73444909
0.73517531
0.73589617
0.73661116
0.73731981
0.73802166
0.73871629
0.73940328
0.74008227
0.7407529
0.74141483
0.74206776
0.74271143
0.74334556
0.74396994
0.74458436
0.74518864
0.74578262
0.74636617
0.74693917
0.74750153
0.74805317
0.74859404
0.74912409
0.7496433
0.75015167
0.75064918
0.75113587
0.75161174
0.75207676
0.75253091
0.72002926
0.72075716
0.72149034
0.72222834
0.72297066
0.72371679
0.72446616
0.72521821
0.72597236
0.72672801
0.72748455
0.72824139
0.7289979
0.72975348
0.73050753
0.73125943
0.73200861
0.73275447
0.73349645
0.734234
0.73496657
0.73569366
0.73641476
0.73712939
0.73783711
0.73853749
0.73923011
0.73991459
0.7405906
0.74125778
0.74191585
0.74256451
0.74320353
0.74383266
0.74445172
0.74506051
0.74565889
0.74624671
0.74682386
0.74739025
0.74794581
0.74849048
0.74902422
0.74954701
0.75005883
0.7505597
0.75104962
0.75152861
0.75199666
0.75245374
0.7196928
0.7204288
0.72116995
0.7219158
0.72266585
0.72341959
0.72417645
0.72493589
0.72569731
0.72646011
0.72722371
0.72798749
0.72875084
0.72951315
0.73027382
0.73103224
0.73178782
0.73253998
0.73328815
0.73403177
0.73477031
0.73550325
0.7362301
0.73695036
0.7376636
0.73836937
0.73906728
0.73975694
0.740438
0.74111012
0.74177301
0.74242638
0.74306999
0.7437036
0.74432701
0.74494005
0.74554255
0.74613439
0.74671545
0.74728564
0.74784488
0.74839313
0.74893033
0.74945648
0.74997157
0.75047558
0.75096856
0.7514505
0.7519214
0.75238124
0.71937693
0.72012055
0.72086919
0.72162242
0.72237973
0.72314062
0.72390452
0.72467089
0.72543914
0.72620867
0.72697889
0.72774918
0.72851895
0.72928758
0.73005446
0.73081899
0.73158059
0.73233866
0.73309264
0.73384197
0.73458611
0.73532455
0.73605678
0.73678233
0.73750074
0.73821159
0.73891446
0.73960897
0.74029477
0.74097153
0.74163895
0.74229674
0.74294466
0.74358247
0.74420997
0.744827
0.74543338
0.74602899
0.74661371
0.74718746
0.74775017
0.74830177
0.74884224
0.74937155
0.74988969
0.75039667
0.75089251
0.75137722
0.75185081
0.75231325
0.71908092
0.71983169
0.72058736
0.7213475
0.72211163
0.72287922
0.72364973
0.72442259
0.72519724
0.72597307
0.7267495
0.72752591
0.72830169
0.72907623
0.72984894
0.7306192
0.73138643
0.73215004
0.73290946
0.73366413
0.73441353
0.73515711
0.7358944
0.7366249
0.73734816
0.73806376
0.73877128
0.73947034
0.74016059
0.74084169
0.74151335
0.74217528
0.74282723
0.74346898
0.74410033
0.74472108
0.7453311
0.74593025
0.74651841
0.7470955
0.74766145
0.7482162
0.74875972
0.74929199
0.749813
0.75032277
0.75082129
0.75130861
0.75178472
0.75224961
0.71880402
0.71956147
0.72032372
0.72109034
0.72186084
0.7226347
0.72341139
0.72419035
0.72497098
0.72575272
0.72653495
0.72731707
0.72809848
0.72887857
0.72965672
0.73043234
0.73120484
0.73197363
0.73273814
0.73349781
0.73425211
0.73500052
0.73574253
0.73647766
0.73720546
0.7379255
0.73863737
0.73934068
0.74003509
0.74072026
0.74139588
0.74206169
0.74271742
0.74336285
0.74399778
0.74462204
0.74523545
0.74583791
0.74642929
0.7470095
0.74757849
0.74813619
0.74868257
0.74921761
0.74974131
0.75025368
0.75075473
0.75124449
0.75172296
0.75219015
0.71854543
0.71930913
0.72007753
0.7208502
0.72162666
0.72240639
0.72318885
0.72397349
0.72475973
0.72554697
0.72633463
0.72712209
0.72790875
0.72869401
0.72947725
0.73025788
0.7310353
0.73180893
0.73257819
0.73334253
0.73410142
0.73485432
0.73560074
0.73634019
0.73707223
0.73779642
0.73851235
0.73921964
0.73991793
0.74060689
0.74128622
0.74195565
0.7426149
0.74326378
0.74390206
0.74452957
0.74514617
0.74575171
0.7463461
0.74692924
0.74750106
0.74806151
0.74861057
0.7491482
0.74967442
0.75018922
0.75069263
0.75118467
0.75166536
0.75213469
0.71830439
0.71907391
0.71984804
0.72062636
0.72140838
0.72219358
0.72298143
0.72377137
0.72456283
0.72535521
0.72614792
0.72694037
0.72773193
0.72852201
0.72931
0.73009529
0.7308773
0.73165543
0.73242912
0.73319782
0.73396097
0.73471807
0.7354686
0.73621208
0.73694807
0.73767613
0.73839584
0.73910683
0.73980875
0.74050125
0.74118403
0.74185682
0.74251937
0.74317145
0.74381286
0.74444342
0.74506298
0.7456714
0.74626859
0.74685445
0.74742892
0.74799194
0.74854349
0.74908354
0.7496121
0.75012918
0.75063479
0.75112897
0.75161173
0.75208305
0.71808009
0.71885503
0.7196345
0.72041808
0.72120528
0.72199558
0.72278845
0.72358333
0.72437964
0.72517681
0.72597423
0.72677131
0.72756743
0.728362
0.7291544
0.72994403
0.73073031
0.73151264
0.73229045
0.7330632
0.73383033
0.73459132
0.73534568
0.73609291
0.73683258
0.73756423
0.73828747
0.7390019
0.73970718
0.74040298
0.74108898
0.74176491
0.74243052
0.74308558
0.74372989
0.74436328
0.7449856
0.74559671
0.7461965
0.7467849
0.74736183
0.74792725
0.74848112
0.74902342
0.74955417
0.75007337
0.75058103
0.7510772
0.75156189
0.75203508
0.71787176
0.71865173
0.71943617
0.72022465
0.72101666
0.7218117
0.72260923
0.7234087
0.72420953
0.72501114
0.72581294
0.72661432
0.72741468
0.72821342
0.72900992
0.72980358
0.73059382
0.73138005
0.7321617
0.7329382
0.73370902
0.73447364
0.73523154
0.73598227
0.73672534
0.73746034
0.73818684
0.73890448
0.73961289
0.74031174
0.74100072
0.74167957
0.74234802
0.74300586
0.74365287
0.74428889
0.74491377
0.74552737
0.74612959
0.74672034
0.74729956
0.7478672
0.74842323
0.74896764
0.74950042
0.75002158
0.75053116
0.75102918
0.75151566
0.7519906
0.7176786
0.71846326
0.71925232
0.72004534
0.72084183
0.72164127
0.72244312
0.72324685
0.72405187
0.7248576
0.72566345
0.72646883
0.72727312
0.72807572
0.72887602
0.72967342
0.73046734
0.73125718
0.73204237
0.73282236
0.7335966
0.73436458
0.73512578
0.73587973
0.73662597
0.73736406
0.7380936
0.73881421
0.73952551
0.7402272
0.74091895
0.7416005
0.74227159
0.74293199
0.74358151
0.74421997
0.74484722
0.74546314
0.7460676
0.74666054
0.74724189
0.74781159
0.74836962
0.74891597
0.74945063
0.74997363
0.75048499
0.75098473
0.75147288
0.75194943
0.71516214
0.71593619
0.71671551
0.71749985
0.71828887
0.71908222
0.71987946
0.72068009
0.72148361
0.72228947
0.72309714
0.72390603
0.72471558
0.72552519
0.72633426
0.72714218
0.72794836
0.72875218
0.72955304
0.73035036
0.73114354
0.73193202
0.73271523
0.73349264
0.73426372
0.73502797
0.7357849
0.73653407
0.73727503
0.73800738
0.73873072
0.73944471
0.74014902
0.74084333
0.74152738
0.74220091
0.74286369
0.74351553
0.74415625
0.7447857
0.74540375
0.7460103
0.74660526
0.74718857
0.74776018
0.74832007
0.74886822
0.74940463
0.74992933
0.75044233
0.75094367
0.75143337
0.75191142
0.71421169
0.71498445
0.71576277
0.71654631
0.71733477
0.71812785
0.71892519
0.71972633
0.72053079
0.72133807
0.72214764
0.72295895
0.72377143
0.7245845
0.72539758
0.72621006
0.72702134
0.72783081
0.72863788
0.72944194
0.73024239
0.73103866
0.73183017
0.73261636
0.73339669
0.73417064
0.7349377
0.7356974
0.73644926
0.73719287
0.7379278
0.73865369
0.73937015
0.74007688
0.74077356
0.74145991
0.74213569
0.74280067
0.74345465
0.74409745
0.74472893
0.74534896
0.74595743
0.74655426
0.74713938
0.74771276
0.74827436
0.74882418
0.74936221
0.74988848
0.75040301
0.75090583
0.75139696
0.7518764
0.71404394
0.71482071
0.71560297
0.7163904
0.71718269
0.71797953
0.71878054
0.71958528
0.72039328
0.72120403
0.72201702
0.72283168
0.72364746
0.72446378
0.72528005
0.72609568
0.72691005
0.72772257
0.72853263
0.72933963
0.73014298
0.73094209
0.73173639
0.73252532
0.73330834
0.73408493
0.73485459
0.73561682
0.73637118
0.73711722
0.73785454
0.73858276
0.73930151
0.74001046
0.74070932
0.7413978
0.74207566
0.74274266
0.74339861
0.74404333
0.74467668
0.74529853
0.74590877
0.74650732
0.74709412
0.74766913
0.74823231
0.74878366
0.74932319
0.7498509
0.75036684
0.75087103
0.75136349
0.75184422
0.71388975
0.71467022
0.7154561
0.7162471
0.71704292
0.71784321
0.71864761
0.71945567
0.72026692
0.72108087
0.72189699
0.72271474
0.72353356
0.72435287
0.72517208
0.72599059
0.72680781
0.72762312
0.72843593
0.72924564
0.73005164
0.73085337
0.73165024
0.73244169
0.73322719
0.73400621
0.73477824
0.73554281
0.73629945
0.73704773
0.73778725
0.73851761
0.73923846
0.73994946
0.74065032
0.74134076
0.74202052
0.74268938
0.74334714
0.74399363
0.7446287
0.74525222
0.74586409
0.74646423
0.74705257
0.74762907
0.74819371
0.74874647
0.74928737
0.74981642
0.75033365
0.75083911
0.7513328
0.75181472
0.7137484
0.71453226
0.71532147
0.71611575
0.7169148
0.71771827
0.71852577
0.71933687
0.72015111
0.72096799
0.72178699
0.72260757
0.72342918
0.72425122
0.72507312
0.72589429
0.72671411
0.72753199
0.72834733
0.72915951
0.72996795
0.73077207
0.73157129
0.73236506
0.73315283
0.73393407
0.73470829
0.735475
0.73623374
0.73698407
0.7377256
0.73845792
0.73918069
0.73989358
0.74059627
0.7412885
0.74197001
0.74264058
0.7433
0.74394811
0.74458476
0.74520981
0.74582318
0.74642477
0.74701452
0.74759239
0.74815836
0.74871243
0.74925459
0.74978486
0.75030329
0.75080991
0.75130473
0.75178775
0.71361919
0.71440614
0.7151984
0.71599569
0.71679769
0.71760405
0.71841439
0.71922828
0.72004525
0.72086481
0.72168645
0.72250962
0.72333377
0.72415833
0.72498269
0.72580628
0.72662849
0.72744871
0.72826635
0.72908081
0.72989148
0.73069779
0.73149916
0.73229504
0.73308488
0.73386816
0.73464437
0.73541304
0.73617369
0.73692591
0.73766927
0.73840339
0.73912792
0.73984253
0.7405469
0.74124077
0.74192387
0.742596
0.74325694
0.74390654
0.74454462
0.74517108
0.74578581
0.74638873
0.74697977
0.7475589
0.7481261
0.74868135
0.74922466
0.74975606
0.75027559
0.75078328
0.75127914
0.75176318
0.71350141
0.7142912
0.71508624
0.71588627
0.71669096
0.71749996
0.71831289
0.71912932
0.71994878
0.72077079
0.72159483
0.72242037
0.72324684
0.72407368
0.72490029
0.72572609
0.72655048
0.72737284
0.72819258
0.7290091
0.7298218
0.73063011
0.73143344
0.73223125
0.73302298
0.73380811
0.73458615
0.73535659
0.736119
0.73687293
0.73761796
0.73835373
0.73907986
0.73979603
0.74050193
0.74119729
0.74188186
0.7425554
0.74321774
0.74386868
0.74450808
0.74513582
0.74575179
0.74635592
0.74694815
0.74752842
0.74809673
0.74865306
0.74919743
0.74972986
0.75025039
0.75075906
0.75125588
0.75174087
0.71339441
0.71418677
0.71498435
0.71578686
0.716594
0.71740541
0.71822069
0.71903942
0.71986115
0.72068539
0.72151162
0.7223393
0.72316789
0.7239968
0.72482546
0.72565327
0.72647963
0.72730393
0.72812558
0.72894398
0.72975853
0.73056865
0.73137377
0.73217332
0.73296677
0.73375359
0.73453328
0.73530535
0.73606934
0.73682482
0.73757138
0.73830864
0.73903623
0.73975382
0.74046111
0.74115783
0.74184372
0.74251856
0.74318215
0.74383432
0.74447492
0.74510382
0.74572093
0.74632616
0.74691945
0.74750077
0.74807009
0.74862741
0.74917274
0.7497061
0.75022754
0.75073711
0.75123482
0.75172068
0.71329755
0.71409225
0.71489213
0.71569689
0.71650624
0.71731982
0.71813724
0.71895806
0.71978185
0.7206081
0.72143631
0.72226594
0.72309644
0.72392723
0.72475774
0.72558737
0.72641551
0.72724158
0.72806496
0.72888506
0.72970129
0.73051305
0.73131978
0.73212092
0.73291593
0.73370427
0.73448546
0.73525899
0.73602442
0.73678131
0.73752925
0.73826785
0.73899676
0.73971564
0.7404242
0.74112214
0.74180923
0.74248524
0.74314997
0.74380325
0.74444493
0.74507489
0.74569302
0.74629925
0.74689352
0.74747578
0.74804602
0.74860423
0.74915043
0.74968464
0.75020691
0.75071729
0.75121581
0.75170248
0.71321022
0.71400704
0.71480898
0.71561578
0.71642713
0.71724267
0.71806201
0.71888472
0.71971036
0.72053843
0.72136843
0.72219981
0.72303204
0.72386453
0.72469671
0.72552798
0.72635774
0.72718539
0.72801033
0.72883197
0.7296497
0.73046295
0.73127113
0.7320737
0.73287011
0.73365983
0.73444237
0.73521723
0.73598396
0.73674212
0.7374913
0.73823111
0.73896121
0.73968126
0.74039094
0.74109
0.74177817
0.74245524
0.74312099
0.74377528
0.74441794
0.74504884
0.7456679
0.74627503
0.74687017
0.74745329
0.74802436
0.74858338
0.74913036
0.74966534
0.75018835
0.75069946
0.75119872
0.75168615
0.71313184
0.71393055
0.71473436
0.71554299
0.71635613
0.71717343
0.7179945
0.71881891
0.71964621
0.72047592
0.72130752
0.72214048
0.72297426
0.72380827
0.72464195
0.72547469
0.7263059
0.72713498
0.72796133
0.72878434
0.72960343
0.730418
0.7312275
0.73203135
0.73282902
0.73361998
0.73440372
0.73517977
0.73594766
0.73670696
0.73745726
0.73819817
0.73892934
0.73965042
0.74036113
0.74106118
0.74175033
0.74242834
0.74309502
0.7437502
0.74439374
0.7450255
0.74564539
0.74625333
0.74684926
0.74743314
0.74800496
0.7485647
0.74911239
0.74964805
0.75017174
0.75068351
0.75118343
0.75167155
0.71306185
0.71386226
0.71466773
0.715478
0.71629275
0.71711162
0.71793423
0.71876016
0.71958895
0.72042011
0.72125315
0.72208752
0.72292268
0.72375806
0.72459308
0.72542714
0.72625964
0.72709
0.7279176
0.72874184
0.72956213
0.7303779
0.73118856
0.73199356
0.73279235
0.73358442
0.73436925
0.73514636
0.73591529
0.73667561
0.7374269
0.73816879
0.73890091
0.73962293
0.74033455
0.74103549
0.7417255
0.74240436
0.74307186
0.74372785
0.74437217
0.7450047
0.74562533
0.74623399
0.74683063
0.74741519
0.74798767
0.74854806
0.74909638
0.74963266
0.75015694
0.7506693
0.75116982
0.75165855
0.71299972
0.71380164
0.7146086
0.71542032
0.71623649
0.71705677
0.71788075
0.71870802
0.71953813
0.72037059
0.7212049
0.72204053
0.72287692
0.72371351
0.72454972
0.72538495
0.7262186
0.72705009
0.7278788
0.72870414
0.72952551
0.73034233
0.73115403
0.73196004
0.73275984
0.73355288
0.73433867
0.73511672
0.73588658
0.7366478
0.73739998
0.73814274
0.7388757
0.73959855
0.74031098
0.74101271
0.74170349
0.7423831
0.74305134