/*--------------------------------*- C++ -*----------------------------------*\
| =========                 |                                                 |
| \\      /  F ield         | OpenFOAM: The Open Source CFD Toolbox           |
|  \\    /   O peration     | Version:  2312                                  |
|   \\  /    A nd           | Website:  www.openfoam.com                      |
|    \\/     M anipulation  |                                                 |
\*---------------------------------------------------------------------------*/
FoamFile
{
    version     2.0;
    format      ascii;
    arch        "LSB;label=32;scalar=64";
    class       volScalarField;
    location    "0.1";
    object      nut;
}
// * * * * * * * * * * * * * * * * * * * * * * * * * * * * * * * * * * * * * //

dimensions      [0 2 -1 0 0 0 0];

internalField   nonuniform List<scalar> 
3250
(
0.034838213
0.035060623
0.035287358
0.035518424
0.03575385
0.035993669
0.036237909
0.036486599
0.036739762
0.036997418
0.037259585
0.037526274
0.037797492
0.038073239
0.038353511
0.038638296
0.038927575
0.039221321
0.0395195
0.039822067
0.040128971
0.040440148
0.040755528
0.041075028
0.041398554
0.041726003
0.04205726
0.042392197
0.042730678
0.04307255
0.043417653
0.043765813
0.044116843
0.044470546
0.044826714
0.045185127
0.045545553
0.045907751
0.046271472
0.046636455
0.047002434
0.047369135
0.047736283
0.048103596
0.034830024
0.03505224
0.035278782
0.035509659
0.035744901
0.03598454
0.036228609
0.036477133
0.036730137
0.036987643
0.037249667
0.037516222
0.037787314
0.038062944
0.038343109
0.038627795
0.038916985
0.039210652
0.039508761
0.039811269
0.040118123
0.040429261
0.040744611
0.041064091
0.041387608
0.041715058
0.042046326
0.042381284
0.042719794
0.043061706
0.043406858
0.043755075
0.044106172
0.04445995
0.044816201
0.045174703
0.045535226
0.045897528
0.046261357
0.046626452
0.046992541
0.047359348
0.047726594
0.048094042
0.034811285
0.035033081
0.035259218
0.035489704
0.035724571
0.035963851
0.036207575
0.036455773
0.036708468
0.036965684
0.037227437
0.03749374
0.0377646
0.038040019
0.038319993
0.03860451
0.038893552
0.039187093
0.039485097
0.039787521
0.040094314
0.040405412
0.040720744
0.041040228
0.041363769
0.041691264
0.042022597
0.042357642
0.042696258
0.043038295
0.043383592
0.043731971
0.044083248
0.044437223
0.044793687
0.045152418
0.045513184
0.045875743
0.046239841
0.046605216
0.046971598
0.047338708
0.047706267
0.048074037
0.034784905
0.03500608
0.035231619
0.035461528
0.03569584
0.035934588
0.036177806
0.036425522
0.036677762
0.03693455
0.037195902
0.037461833
0.037732351
0.038007458
0.038287149
0.038571415
0.038860236
0.039153587
0.039451434
0.039753732
0.040060429
0.040371463
0.040686763
0.041006244
0.041329815
0.041657369
0.041988791
0.042323954
0.042662718
0.043004931
0.043350429
0.043699038
0.044050569
0.044404823
0.04476159
0.045120646
0.045481758
0.045844683
0.046209166
0.046574944
0.046941744
0.047309287
0.047677293
0.048045524
0.034752066
0.03497243
0.035197185
0.03542634
0.035659926
0.035897979
0.036140532
0.036387617
0.036639261
0.036895487
0.037156315
0.037421758
0.037691826
0.037966522
0.038245842
0.038529775
0.038818304
0.039111403
0.039409037
0.039711164
0.04001773
0.040328674
0.040643922
0.040963393
0.041286991
0.041614613
0.041946141
0.042281446
0.04262039
0.042962818
0.043308568
0.043657461
0.04400931
0.044363913
0.044721059
0.045080523
0.045442071
0.045805456
0.046170425
0.046536711
0.04690404
0.047272131
0.047640702
0.048009514
0.034713905
0.034933277
0.035157075
0.035385304
0.035618
0.035855199
0.036096938
0.036343248
0.036594159
0.036849696
0.037109879
0.037374722
0.037644237
0.037918426
0.038197287
0.038480809
0.038768975
0.039061759
0.039359127
0.039661036
0.039967433
0.040278256
0.040593432
0.040912878
0.041236499
0.04156419
0.041895832
0.042231298
0.042570445
0.042913121
0.04325916
0.043608383
0.043960601
0.044315612
0.044673201
0.045033144
0.045395203
0.045759131
0.046124671
0.046491555
0.046859508
0.047228246
0.047597484
0.047966982
0.034671491
0.034889708
0.035112382
0.035339525
0.035571173
0.035807368
0.036048147
0.036293546
0.036543594
0.036798319
0.037057743
0.03732188
0.037590742
0.037864333
0.03814265
0.038425685
0.038713419
0.039005827
0.039302875
0.03960452
0.039910709
0.040221379
0.040536458
0.040855861
0.041179494
0.04150725
0.041839011
0.042174647
0.042514016
0.042856962
0.04320332
0.043552909
0.043905538
0.044261003
0.044619089
0.044979568
0.045342201
0.04570674
0.046072923
0.046440483
0.04680914
0.047178608
0.047548601
0.047918875
0.034625796
0.034842716
0.035064112
0.035290011
0.03552046
0.035755505
0.035995188
0.036239545
0.036488609
0.036742408
0.037000964
0.037264294
0.03753241
0.037805317
0.038083011
0.038365485
0.038652721
0.038944693
0.039241369
0.039542704
0.039848645
0.04015913
0.040474085
0.040793426
0.041117058
0.041444872
0.04177675
0.042112561
0.042452161
0.042795394
0.043142092
0.043492074
0.043845147
0.044201105
0.04455973
0.044920792
0.045284051
0.045649255
0.046016143
0.046384441
0.046753869
0.047124139
0.047494959
0.047866085
0.034577709
0.034793218
0.035013175
0.035237673
0.035466774
0.035700532
0.035938989
0.036182184
0.03643015
0.036682917
0.036940506
0.037202937
0.03747022
0.037742361
0.038019358
0.038301203
0.038587879
0.03887936
0.039175612
0.039476592
0.039782248
0.040092514
0.040407319
0.040726576
0.041050189
0.041378051
0.041710041
0.042046027
0.042385864
0.042729394
0.043076448
0.043426844
0.043780384
0.044136863
0.04449606
0.044857744
0.04522167
0.045587585
0.045955225
0.046324314
0.046694568
0.047065696
0.047437404
0.047809444
0.034115179
0.034319391
0.034528429
0.034742098
0.03496038
0.035183306
0.035410919
0.035643263
0.035880378
0.036122303
0.03636907
0.036620708
0.036877241
0.037138687
0.037405058
0.03767636
0.037952593
0.038233746
0.038519804
0.038810741
0.039106523
0.039407106
0.039712438
0.040022455
0.040337082
0.040656233
0.040979811
0.041307707
0.041639801
0.041975958
0.042316033
0.042659866
0.043007285
0.043358107
0.043712133
0.044069155
0.044428949
0.044791282
0.045155908
0.04552257
0.045891
0.04626092
0.046632045
0.047004077
0.047376721
0.047749725
0.034068243
0.034270769
0.03447795
0.034689791
0.034906319
0.035127572
0.035353591
0.035584418
0.035820092
0.036060651
0.036306129
0.036556554
0.03681195
0.037072337
0.037337726
0.037608124
0.03788353
0.038163935
0.038449322
0.038739668
0.039034936
0.039335084
0.039640058
0.039949794
0.040264216
0.040583239
0.040906763
0.041234681
0.041566868
0.04190319
0.0422435
0.042587636
0.042935426
0.043286682
0.043641206
0.043998785
0.044359195
0.044722198
0.045087547
0.045454982
0.045824231
0.046195015
0.046567043
0.046940016
0.047313633
0.047687641
0.034021088
0.034221666
0.034426917
0.03463687
0.034851571
0.035071068
0.035295407
0.03552463
0.03575878
0.035997893
0.036242005
0.036491143
0.036745334
0.037004596
0.037268941
0.037538377
0.037812903
0.038092509
0.03837718
0.038666891
0.038961606
0.039261283
0.039565867
0.039875293
0.040189486
0.040508359
0.040831812
0.041159735
0.041492004
0.041828482
0.042169022
0.042513459
0.04286162
0.043213314
0.043568342
0.043926487
0.044287524
0.044651212
0.045017301
0.045385527
0.045755616
0.046127286
0.046500242
0.046874182
0.047248802
0.047623843
0.033974171
0.034172661
0.034375882
0.034583864
0.034796663
0.03501433
0.035236914
0.035464463
0.035697017
0.035934617
0.036177297
0.036425087
0.036678013
0.036936094
0.037199343
0.037467767
0.037741366
0.03802013
0.038304044
0.038593082
0.03888721
0.039186384
0.039490549
0.03979964
0.04011358
0.040432282
0.040755645
0.041083559
0.041415897
0.041752522
0.042093283
0.042438017
0.042786545
0.043138678
0.043494211
0.043852927
0.044214597
0.044578978
0.044945816
0.045314845
0.045685788
0.046058359
0.04643226
0.046807185
0.047182826
0.04755892
0.033927885
0.034124187
0.034325291
0.034531228
0.034742054
0.034957825
0.035178593
0.035404405
0.035635306
0.035871336
0.036112531
0.036358922
0.036610534
0.036867388
0.037129496
0.037396867
0.037669499
0.037947385
0.038230507
0.038518841
0.038812351
0.039110994
0.039414714
0.039723446
0.040037112
0.040355624
0.040678881
0.04100677
0.041339164
0.041675925
0.042016899
0.042361921
0.042710812
0.043063379
0.043419415
0.043778701
0.044141005
0.044506082
0.044873674
0.045243512
0.045615316
0.045988796
0.046363651
0.046739572
0.047116245
0.047493404
0.033882554
0.034076594
0.034275512
0.03447934
0.034688136
0.034901957
0.035120856
0.035344883
0.035574083
0.035808499
0.036048165
0.036293115
0.036543375
0.036798964
0.037059896
0.03732618
0.037597813
0.03787479
0.038157092
0.038444694
0.038737562
0.03903565
0.039338904
0.039647256
0.039960629
0.040278934
0.040602068
0.040929918
0.041262355
0.041599239
0.041940416
0.042285718
0.042634963
0.042987958
0.043344492
0.043704345
0.04406728
0.04443305
0.044801394
0.045172041
0.045544708
0.045919099
0.046294911
0.046671831
0.04704954
0.04742777
0.033838438
0.034030164
0.034226845
0.034428516
0.034635236
0.034847063
0.035064054
0.035286257
0.035513721
0.035746487
0.035984593
0.036228071
0.036476948
0.036731243
0.036990973
0.037256143
0.037526754
0.037802797
0.038084256
0.038371106
0.03866331
0.038960824
0.039263592
0.039571548
0.039884611
0.040202693
0.04052569
0.040853486
0.041185953
0.041522949
0.041864317
0.042209888
0.042559479
0.042912892
0.043269917
0.043630328
0.043993888
0.044360346
0.044729438
0.04510089
0.045474414
0.045849713
0.046226479
0.046604395
0.046983139
0.047362437
0.03379574
0.033985127
0.034179535
0.034379013
0.034583624
0.034793427
0.03500848
0.035228833
0.035454535
0.035685628
0.035922151
0.036164135
0.036411608
0.03666459
0.036923097
0.037187135
0.037456704
0.037731797
0.038012397
0.038298477
0.038590002
0.038886926
0.039189194
0.039496738
0.039809478
0.040127323
0.040450169
0.040777899
0.041110384
0.041447478
0.041789026
0.042134855
0.04248478
0.042838602
0.043196106
0.043557066
0.043921241
0.044288377
0.044658208
0.045030455
0.045404828
0.045781027
0.046158739
0.046537643
0.046917414
0.047297774
0.033754626
0.033941668
0.034133778
0.034331039
0.034533518
0.034741278
0.034954375
0.035172863
0.035396788
0.035626194
0.035861119
0.036101597
0.036347653
0.036599311
0.036856583
0.037119477
0.037387994
0.037662124
0.037941852
0.038227151
0.038517986
0.038814309
0.039116065
0.039423185
0.03973559
0.040053186
0.04037587
0.040703522
0.041036012
0.041373194
0.04171491
0.042060984
0.042411231
0.042765449
0.043123421
0.043484917
0.043849695
0.044217497
0.044588054
0.044961085
0.045336295
0.04571338
0.046092026
0.046471907
0.046852692
0.0472341
0.033535953
0.033715362
0.033899949
0.034089727
0.034284753
0.03448509
0.034690798
0.034901935
0.03511855
0.035340694
0.035568409
0.035801732
0.036040699
0.036285335
0.036535662
0.036791694
0.03705344
0.037320898
0.037594061
0.037872911
0.038157422
0.038447558
0.038743272
0.039044508
0.039351196
0.039663256
0.039980594
0.040303105
0.040630669
0.040963153
0.041300411
0.041642281
0.04198859
0.042339146
0.042693746
0.043052171
0.04341419
0.043779556
0.04414801
0.044519278
0.044893077
0.045269108
0.045647064
0.046026627
0.046407467
0.04678925
0.047171689
0.033500927
0.033677845
0.033860017
0.034047472
0.034240269
0.034438469
0.03464213
0.034851309
0.035066058
0.035286425
0.035512452
0.035744178
0.035981637
0.036224855
0.036473855
0.036728649
0.036989246
0.037255646
0.03752784
0.037805811
0.038089531
0.038378966
0.038674067
0.038974778
0.039281028
0.039592736
0.039909808
0.040232137
0.040559602
0.040892071
0.041229393
0.041571407
0.041917936
0.042268788
0.042623756
0.042982621
0.043345147
0.043711085
0.044080173
0.044452135
0.044826683
0.045203516
0.045582324
0.045962785
0.046344564
0.046727325
0.047110774
0.033467664
0.033642138
0.033821927
0.034007083
0.034197669
0.034393748
0.034595378
0.034802614
0.03501551
0.035234113
0.035458465
0.035688606
0.035924568
0.036166378
0.036414058
0.036667622
0.036927078
0.037192425
0.037463654
0.037740748
0.03802368
0.038312413
0.0386069
0.038907083
0.039212891
0.039524243
0.039841043
0.040163183
0.040490543
0.040822985
0.041160362
0.041502507
0.041849244
0.042200377
0.042555699
0.042914987
0.043278003
0.043644496
0.044014199
0.044386836
0.044762113
0.045139728
0.045519366
0.045900702
0.046283398
0.046667111
0.047051546
0.033436217
0.033608284
0.033785721
0.033968607
0.034157009
0.034350992
0.034550614
0.034755932
0.034966997
0.035183857
0.035406555
0.035635128
0.03586961
0.036110029
0.036356404
0.036608751
0.036867077
0.03713138
0.037401653
0.037677877
0.037960026
0.038248062
0.038541937
0.038841593
0.039146958
0.039457951
0.039774475
0.040096421
0.040423667
0.040756076
0.041093496
0.041435762
0.041782694
0.042134095
0.042489755
0.042849449
0.043212938
0.043579966
0.043950265
0.044323555
0.04469954
0.045077914
0.045458358
0.045840544
0.046224131
0.046608771
0.046994165
0.033242481
0.033406674
0.033576309
0.033751417
0.033932065
0.034118318
0.034310239
0.034507886
0.034711317
0.03492058
0.035135726
0.035356795
0.035583826
0.035816852
0.0360559
0.036300991
0.036552139
0.03680935
0.037072625
0.037341954
0.037617319
0.037898693
0.038186038
0.038479307
0.038778439
0.039083363
0.039393996
0.039710242
0.04003199
0.040359116
0.040691483
0.041028938
0.041371314
0.041718428
0.042070082
0.042426065
0.042786149
0.043150092
0.043517636
0.04388851
0.044262431
0.0446391
0.045018208
0.045399433
0.045782442
0.046166892
0.046552432
0.046938755
0.033217167
0.033378911
0.033546175
0.033719003
0.033897457
0.034081604
0.034271504
0.034467217
0.034668797
0.034876296
0.035089761
0.035309234
0.035534754
0.035766352
0.036004056
0.036247887
0.036497858
0.036753976
0.03701624
0.037284641
0.037559162
0.037839773
0.038126437
0.038419106
0.03871772
0.039022206
0.039332481
0.039648448
0.039969995
0.040296997
0.040629316
0.040966797
0.041309271
0.041656556
0.04200845
0.04236474
0.042725197
0.043089574
0.043457614
0.043829042
0.04420357
0.044580899
0.044960715
0.045342694
0.045726499
0.046111783
0.04649819
0.046885411
0.033193518
0.03335289
0.033517848
0.033688451
0.033864765
0.034046855
0.034234783
0.034428607
0.034628382
0.034834158
0.035045982
0.035263897
0.035487941
0.035718145
0.035954536
0.036197135
0.036445955
0.036701004
0.036962279
0.037229772
0.037503464
0.037783327
0.038069323
0.038361402
0.038659505
0.038963559
0.039273479
0.039589167
0.039910512
0.040237386
0.040569651
0.04090715
0.041249714
0.041597157
0.041949277
0.042305859
0.04266667
0.043031464
0.043399979
0.043771937
0.04414705
0.044525014
0.044905512
0.045288217
0.045672788
0.046058874
0.046446117
0.046834202
0.0331715
0.033328568
0.033491284
0.033659724
0.033833957
0.034014047
0.034200056
0.034392043
0.03459006
0.03479416
0.035004389
0.035220788
0.035443395
0.035672241
0.035907354
0.036148754
0.036396453
0.03665046
0.036910771
0.037177377
0.037450261
0.037729392
0.038014734
0.038306236
0.038603838
0.038907467
0.039217036
0.039532448
0.03985359
0.040180334
0.04051254
0.040850051
0.041192695
0.041540284
0.041892618
0.042249475
0.042610624
0.042975815
0.043344783
0.043717251
0.044092924
0.044471497
0.04485265
0.045236051
0.045621359
0.046008217
0.046396262
0.046785176
0.033001988
0.033151097
0.033305898
0.033466434
0.033632775
0.033804989
0.03398314
0.034167289
0.034357494
0.034553809
0.034756283
0.034964964
0.035179893
0.035401107
0.035628637
0.035862509
0.036102745
0.036349356
0.036602349
0.036861724
0.037127468
0.037399565
0.037677985
0.037962689
0.038253627
0.038550739
0.03885395
0.039163176
0.039478315
0.039799255
0.040125867
0.04045801
0.040795526
0.041138241
0.041485967
0.0418385
0.042195619
0.042557088
0.042922657
0.043292058
0.043665011
0.04404122
0.044420376
0.044802157
0.045186227
0.045572241
0.045959839
0.046348652
0.046738357
0.03298535
0.033132192
0.033284805
0.033443233
0.033607545
0.033777808
0.033954085
0.034136436
0.03432492
0.034519589
0.034720493
0.034927678
0.035141185
0.035361051
0.035587308
0.035819981
0.03605909
0.036304648
0.036556661
0.036815127
0.037080037
0.03735137
0.037629099
0.037913183
0.038203574
0.038500208
0.038803012
0.0391119
0.039426771
0.039747511
0.040073992
0.040406069
0.040743584
0.041086363
0.041434215
0.041786934
0.042144299
0.042506072
0.042872
0.043241813
0.043615229
0.04399195
0.044371663
0.044754044
0.045138755
0.045525445
0.045913752
0.046303298
0.046693752
0.032970043
0.033114709
0.033265216
0.033421614
0.033583971
0.033752354
0.033926825
0.034107445
0.034294269
0.034487352
0.034686743
0.034892486
0.035104623
0.035323191
0.03554822
0.035779736
0.036017758
0.0362623
0.036513367
0.036770956
0.037035059
0.037305655
0.037582714
0.037866199
0.038156058
0.038452228
0.038754637
0.039063196
0.039377804
0.039698347
0.040024696
0.040356704
0.040694214
0.041037049
0.041385017
0.041737911
0.042095508
0.042457568
0.042823836
0.043194041
0.043567897
0.043945105
0.044325349
0.044708303
0.045093626
0.045480964
0.04586995
0.046260198
0.046651356
0.032956
0.033098574
0.033247059
0.033401506
0.033561985
0.033728561
0.033901297
0.034080253
0.034265484
0.034457043
0.034654979
0.034859337
0.035070158
0.035287477
0.035511326
0.035741729
0.035978707
0.036222271
0.036472426
0.036729172
0.036992497
0.037262382
0.037538796
0.037821702
0.038111046
0.038406769
0.038708793
0.039017033
0.039331385
0.039651735
0.039977952
0.040309891
0.04064739
0.040990274
0.041338349
0.041691407
0.042049221
0.042411552
0.042778142
0.043148718
0.043522992
0.043900663
0.044281413
0.044664912
0.045050819
0.045438777
0.045828416
0.046219344
0.04661117
0.032943145
0.033083711
0.033230257
0.033382836
0.033541515
0.033706361
0.033877434
0.034054796
0.0342385
0.034428599
0.034625142
0.034828172
0.035037731
0.035253854
0.035476571
0.035705908
0.035941882
0.036184508
0.03643379
0.036689725
0.036952303
0.037221504
0.037497298
0.037779646
0.038068496
0.038363785
0.038665439
0.038973368
0.039287472
0.039607633
0.03993372
0.040265588
0.040603074
0.040946001
0.041294174
0.041647384
0.042005402
0.042367988
0.042734882
0.043105809
0.043480479
0.043858589
0.044239819
0.044623837
0.045010299
0.045398849
0.045789116
0.046180715
0.04657328
0.046966429
0.032931398
0.033070044
0.033214737
0.033365529
0.033522488
0.03368568
0.033855165
0.034031003
0.034213248
0.034401952
0.034597163
0.034798925
0.035007278
0.035222257
0.035443892
0.035672209
0.035907224
0.036148952
0.036397397
0.036652556
0.036914419
0.037182964
0.037458164
0.037739976
0.03802835
0.038323223
0.038624519
0.03893215
0.039246012
0.039565989
0.03989195
0.040223746
0.040561216
0.04090418
0.041252443
0.041605793
0.041964004
0.042326829
0.042694009
0.043065267
0.043440313
0.043818838
0.044200522
0.044585032
0.044972021
0.045361131
0.045751993
0.046144223
0.04653744
0.046931334
0.032920682
0.033057497
0.033200422
0.033349511
0.03350483
0.033666445
0.033834417
0.034008803
0.034189657
0.034377032
0.034570974
0.034771527
0.03497873
0.035192618
0.035413221
0.035640564
0.035874665
0.036115536
0.036363182
0.0366176
0.036878779
0.037146698
0.037421328
0.037702628
0.037990547
0.03828502
0.038585973
0.038893316
0.039206945
0.039526744
0.03985258
0.040184305
0.040521756
0.040864752
0.041213097
0.041566579
0.041924968
0.042288018
0.042655468
0.043027038
0.043402437
0.043781354
0.044163469
0.044548444
0.044935931
0.04532557
0.045716992
0.046109813
0.046503642
0.046898158
0.032910923
0.033045995
0.033187238
0.033334707
0.033488467
0.033648584
0.033815116
0.033988122
0.034167655
0.034353765
0.0345465
0.034745903
0.034952013
0.035164864
0.035384486
0.035610903
0.035844133
0.036084189
0.036331074
0.036584786
0.036845313
0.037112635
0.037386722
0.037667533
0.037955016
0.038249107
0.038549731
0.038856797
0.039170203
0.039489829
0.039815544
0.040147198
0.040484628
0.040827651
0.041176072
0.041529675
0.041888231
0.042251492
0.042619194
0.042991059
0.04336679
0.043746078
0.044128597
0.044514011
0.044901968
0.045292107
0.045684055
0.046077428
0.04647183
0.046866921
0.032902049
0.033035466
0.033175114
0.033321045
0.033473327
0.033632022
0.033797189
0.033968886
0.034147166
0.034332078
0.034523668
0.034721981
0.034927053
0.03513892
0.035357611
0.035583149
0.035815553
0.036054834
0.036300996
0.036554037
0.036813945
0.037080699
0.037354269
0.037634614
0.037921682
0.038215409
0.038515718
0.03882252
0.039135711
0.039455171
0.039780769
0.040112353
0.04044976
0.040792806
0.041141295
0.041495011
0.041853722
0.04221718
0.04258512
0.04295726
0.043333304
0.04371294
0.044095841
0.044481668
0.044870068
0.045260677
0.04565312
0.046047011
0.046441949
0.046837583
0.032893991
0.033025841
0.033163978
0.033308454
0.033459337
0.033616687
0.033780564
0.033951023
0.034128117
0.034311895
0.034502403
0.034699683
0.034903774
0.03511471
0.035332519
0.035557225
0.035788846
0.036027393
0.036272871
0.036525276
0.036784596
0.037050811
0.03732389
0.037603793
0.037890466
0.038183846
0.038483856
0.038790406
0.039103391
0.039422692
0.039748176
0.040079692
0.040417074
0.040760141
0.041108692
0.041462511
0.041821367
0.042185009
0.04255317
0.042925569
0.043301906
0.043681869
0.044065129
0.044451344
0.04484016
0.045231211
0.045624119
0.046018496
0.046413937
0.046810084
0.032886685
0.033017054
0.033153763
0.033296866
0.033446428
0.033602509
0.033765168
0.033934459
0.034110434
0.034293142
0.034482628
0.034678935
0.034882099
0.035092155
0.035309132
0.035533052
0.035763933
0.036001787
0.036246617
0.036498421
0.036757185
0.03702289
0.037295505
0.037574988
0.037861287
0.038154338
0.038454064
0.038760373
0.039073162
0.039392311
0.039717685
0.040049134
0.040386492
0.040729574
0.041078182
0.041432097
0.041791087
0.0421549
0.042523268
0.042895909
0.043272521
0.04365279
0.044036387
0.044422966
0.044812173
0.045203639
0.045596984
0.045991816
0.04638773
0.046784359
0.032880068
0.033009041
0.033144405
0.033286214
0.033434533
0.03358942
0.033750932
0.033919123
0.034094045
0.034275746
0.03446427
0.034659659
0.034861951
0.035071179
0.035287371
0.03551055
0.035740735
0.035977935
0.036222155
0.036473391
0.036731631
0.036996854
0.03726903
0.037548117
0.037834062
0.038126802
0.038426257
0.038732339
0.039044941
0.039363944
0.039689214
0.040020598
0.040357929
0.040701025
0.041049683
0.041403687
0.041762801
0.042126773
0.042495335
0.042868201
0.043245071
0.043625626
0.044009538
0.044396459
0.044786031
0.045177886
0.04557164
0.0459669
0.046363256
0.04676034
0.032874083
0.033001742
0.033135841
0.033276436
0.033423587
0.033577353
0.033737789
0.033904947
0.03407888
0.034259634
0.034447255
0.034641783
0.034843255
0.035051704
0.035267159
0.035489642
0.035719171
0.035955756
0.036199402
0.036450104
0.03670785
0.03697262
0.037244382
0.037523095
0.037808707
0.038101151
0.038400352
0.038706218
0.039018643
0.039337508
0.039662676
0.039993997
0.040331303
0.040674409
0.041023114
0.041377199
0.041736428
0.042100548
0.042469289
0.042842366
0.043219475
0.043600298
0.043984504
0.044371744
0.044761659
0.045153877
0.045548015
0.045943675
0.046340446
0.046737955
0.032868675
0.032995099
0.033128014
0.033267472
0.03341353
0.033566245
0.033725672
0.033891864
0.03406487
0.034244738
0.034431512
0.034625232
0.034825935
0.035033655
0.035248418
0.035470249
0.035699162
0.035935171
0.036178277
0.036428478
0.03668576
0.036950104
0.037221477
0.037499839
0.037785136
0.038077303
0.038376264
0.038681925
0.038994183
0.039312916
0.039637989
0.039969249
0.040306529
0.040649643
0.04099839
0.041352549
0.041711884
0.042076141
0.042445049
0.042818321
0.043195654
0.043576727
0.043961207
0.044348745
0.04473898
0.045131538
0.045526033
0.045922067
0.046319226
0.046717134
0.032863787
0.032989059
0.033120868
0.033259264
0.033404302
0.033556036
0.033714521
0.033879809
0.034051949
0.034230988
0.03441697
0.034609935
0.03480992
0.035016957
0.035231074
0.035452293
0.035680631
0.035916099
0.036158701
0.036408432
0.03666528
0.036929224
0.037200233
0.037478264
0.037763266
0.038055173
0.038353907
0.038659377
0.038971476
0.039290085
0.039615066
0.039946269
0.040283523
0.040626643
0.040975427
0.041329653
0.041689086
0.04205347
0.042422533
0.042795987
0.043173527
0.043554832
0.043939568
0.044327383
0.044717916
0.045110791
0.04550562
0.045902004
0.046299525
0.046697805
0.032859365
0.032983569
0.033114352
0.03325176
0.033395847
0.033546668
0.033704275
0.033868721
0.034040053
0.03421832
0.034403563
0.034595824
0.034795139
0.035001539
0.035215052
0.0354357
0.035663502
0.035898465
0.036140595
0.036389887
0.036646329
0.036909899
0.037180567
0.037458289
0.037743015
0.038034677
0.038333199
0.038638488
0.038950439
0.03926893
0.039593825
0.039924971
0.0402622
0.040605324
0.040954141
0.04130843
0.041667953
0.042032453
0.04240166
0.042775282
0.043153014
0.043534535
0.043919508
0.044307582
0.044698392
0.045091562
0.045486703
0.045883412
0.046281271
0.046679898
0.032524386
0.032628364
0.032738679
0.032855355
0.032978584
0.033108418
0.03324491
0.033388115
0.033538086
0.033694877
0.03385854
0.034029121
0.034206669
0.034391226
0.034582831
0.034781522
0.034987329
0.03520028
0.035420398
0.035647698
0.035882192
0.036123883
0.036372765
0.036628828
0.03689205
0.037162399
0.037439833
0.0377243
0.038015734
0.038314057
0.038619177
0.038930988
0.039249368
0.039574181
0.039905275
0.040242478
0.040585605
0.040934452
0.041288797
0.041648402
0.042013011
0.042382349
0.042756127
0.043134037
0.043515758
0.043900951
0.044289265
0.044680333
0.045073777
0.045469207
0.045866219
0.046264392
0.046663342
0.032427077
0.032523681
0.032626633
0.032735967
0.032851738
0.032974067
0.033103024
0.033238668
0.033381055
0.033530239
0.033686274
0.033849209
0.034019095
0.034195976
0.034379895
0.034570892
0.034769003
0.03497426
0.03518669
0.035406314
0.03563315
0.035867207
0.036108489
0.036356991
0.036612702
0.036875599
0.037145651
0.037422817
0.037707043
0.037998263
0.038296401
0.038601362
0.038913042
0.039231319
0.039556055
0.039887098
0.040224277
0.040567405
0.040916278
0.041270675
0.041630355
0.041995062
0.042364522
0.042738443
0.043116519
0.043498424
0.043883821
0.044272357
0.044663663
0.045057362
0.04545306
0.045850354
0.046248819
0.04664807
0.032427505
0.032523138
0.032625144
0.032733572
0.032848487
0.032969983
0.033098131
0.033232991
0.033374622
0.033523079
0.033678413
0.033840677
0.034009917
0.034186181
0.034369511
0.034559945
0.03475752
0.034962267
0.035174213
0.03539338
0.035619785
0.035853438
0.036094341
0.03634249
0.036597874
0.03686047
0.037130247
0.037407163
0.037691165
0.037982187
0.038280151
0.038584966
0.038896523
0.039214702
0.039539366
0.039870361
0.040207516
0.040550644
0.040899541
0.041253984
0.041613733
0.041978531
0.042348102
0.042722156
0.043100383
0.043482459
0.043868044
0.044256784
0.044648311
0.045042245
0.045438193
0.045835747
0.046234483
0.046634013
0.032428002
0.032522731
0.032623864
0.032731456
0.032845575
0.0329663
0.033093701
0.033227839
0.033368773
0.033516558
0.033671247
0.03383289
0.034001536
0.034177231
0.034360016
0.03454993
0.03474701
0.034951286
0.035162786
0.035381531
0.035607538
0.035840816
0.036081369
0.036329192
0.036584273
0.03684659
0.037116112
0.037392797
0.037676591
0.037967429
0.038265233
0.03856991
0.038881353
0.039199442
0.039524037
0.039854987
0.040192119
0.040535246
0.040884164
0.041238649
0.04159846
0.041963341
0.042333015
0.042707189
0.043085555
0.043467788
0.043853547
0.044242476
0.044634207
0.045028358
0.045424536
0.045822332
0.046221319
0.046621106
0.032428544
0.032522438
0.032622768
0.032729591
0.032842973
0.032962987
0.033089699
0.033223173
0.033363466
0.033510634
0.033664729
0.033825802
0.033993901
0.034169071
0.034351355
0.034540791
0.034737415
0.034941258
0.035152346
0.035370703
0.035596342
0.035829276
0.036069506
0.036317028
0.03657183
0.03683389
0.037103176
0.037379647
0.037663249
0.037953917
0.038251572
0.038556121
0.038867459
0.039185462
0.039509994
0.039840901
0.040178011
0.040521136
0.040870072
0.041224595
0.041584463
0.041949419
0.042319186
0.042693471
0.043071965
0.043454342
0.04384026
0.044229363
0.044621281
0.045015633
0.045412023
0.045810043
0.046209262
0.046609287
0.032429111
0.032522239
0.032621833
0.032727949
0.032840653
0.032960013
0.033086095
0.03321896
0.033358665
0.033505266
0.033658817
0.033819367
0.033986964
0.034161653
0.034343477
0.034532474
0.034728679
0.034932124
0.035142835
0.035360834
0.035586137
0.035818753
0.036058686
0.036305932
0.036560477
0.0368223
0.037091369
0.037367643
0.037651068
0.037941578
0.038239096
0.038543527
0.038854767
0.039172692
0.039497164
0.039828031
0.040165119
0.040508242
0.040857194
0.04121175
0.04157167
0.041936694
0.042306546
0.042680933
0.043059544
0.043442052
0.043828115
0.044217377
0.044609468
0.045004004
0.04540059
0.045798816
0.04619825
0.046598495
0.03242969
0.032522117
0.032621038
0.032726508
0.032838591
0.032957353
0.033082857
0.033215165
0.033354333
0.033500417
0.033653469
0.033813541
0.033980679
0.034154928
0.034336331
0.034524926
0.034720749
0.03492383
0.035134195
0.035351867
0.035576861
0.035809187
0.036048848
0.03629584
0.036550149
0.036811755
0.037080625
0.037356718
0.03763998
0.037930346
0.038227737
0.03853206
0.038843208
0.03916106
0.039485478
0.039816306
0.040153375
0.040496495
0.04084546
0.041200046
0.041560012
0.041925098
0.042295028
0.042669506
0.043048223
0.043430851
0.043817048
0.044206456
0.044598704
0.044993409
0.045390174
0.04578859
0.046188222
0.046588671
0.032430268
0.032522059
0.032620366
0.032725247
0.032836763
0.03295498
0.033079958
0.033211758
0.033350436
0.033496049
0.033648648
0.033808283
0.033975003
0.034148852
0.034329872
0.034518101
0.034713574
0.034916323
0.035126373
0.035343746
0.035568458
0.035800519
0.036039932
0.036286692
0.036540786
0.036802193
0.037070881
0.037346808
0.037629921
0.037920154
0.038217429
0.038521652
0.038832717
0.039150502
0.039474868
0.039805661
0.04014271
0.040485826
0.040834803
0.041189416
0.041549423
0.041914565
0.042284564
0.042659126
0.04303794
0.043420677
0.043806995
0.044196535
0.044588927
0.044983786
0.045380716
0.045779306
0.046179121
0.046579757
0.032430837
0.03252205
0.032619802
0.032724147
0.03283515
0.032952871
0.033077371
0.03320871
0.033346944
0.033492129
0.033644316
0.033803556
0.033969897
0.034143382
0.034324053
0.03451195
0.034707106
0.034909553
0.035119317
0.035336419
0.035560875
0.035792695
0.036031881
0.03627843
0.036532328
0.036793554
0.037062076
0.037337852
0.037620829
0.037910941
0.038208109