/*--------------------------------*- C++ -*----------------------------------*\
| =========                 |                                                 |
| \\      /  F ield         | OpenFOAM: The Open Source CFD Toolbox           |
|  \\    /   O peration     | Version:  2312                                  |
|   \\  /    A nd           | Website:  www.openfoam.com                      |
|    \\/     M anipulation  |                                                 |
\*---------------------------------------------------------------------------*/
FoamFile
{
    version     2.0;
    format      ascii;
    arch        "LSB;label=32;scalar=64";
    class       volScalarField;
    location    "0.1";
    object      omega;
}
// * * * * * * * * * * * * * * * * * * * * * * * * * * * * * * * * * * * * * //

dimensions      [0 0 -1 0 0 0 0];

internalField   nonuniform List<scalar> 
3250
(
264.80106
262.65948
260.50884
258.35045
256.18562
254.01565
251.84187
249.6656
247.48814
245.31083
243.13497
240.96187
238.79285
236.6292
234.47221
232.32317
230.18335
228.05401
225.93638
223.83169
221.74115
219.66592
217.60717
215.56603
213.54359
211.54091
209.55904
207.59896
205.66165
203.74803
201.85897
199.99533
198.15791
196.34745
194.56468
192.81026
191.08482
189.38893
187.72311
186.08784
184.48358
182.91069
181.36954
179.86043
265.20014
263.04551
260.88206
258.71109
256.53392
254.35187
252.16626
249.9784
247.78963
245.60124
243.41457
241.23091
239.05159
236.87789
234.71111
232.55253
230.40342
228.26505
226.13864
224.02542
221.92659
219.84333
217.77679
215.7281
213.69835
211.68861
209.6999
207.73323
205.78955
203.86978
201.97481
200.10546
198.26255
196.44681
194.65897
192.89968
191.16956
189.46918
187.79907
186.15969
184.55147
182.9748
181.42999
179.91734
265.91284
263.73419
261.54722
259.35323
257.15353
254.94946
252.74232
250.53343
248.32411
246.11569
243.90946
241.70674
239.50883
237.31704
235.13264
232.95692
230.79115
228.63658
226.49445
224.36596
222.25233
220.15473
218.07429
216.01215
213.96939
211.94707
209.94621
207.96781
206.01282
204.08215
202.17667
200.29722
198.44458
196.61951
194.82269
193.05479
191.31641
189.60812
187.93042
186.28378
184.66862
183.08531
181.53416
180.01546
266.90091
264.68895
262.46936
260.24347
258.01257
255.778
253.54106
251.30307
249.06534
246.82918
244.5959
242.3668
240.14319
237.92636
235.71759
233.51816
231.32932
229.15234
226.98844
224.83883
222.70471
220.58723
218.48755
216.40677
214.34599
212.30624
210.28854
208.29388
206.32321
204.37741
202.45736
200.56388
198.69775
196.8597
195.05043
193.27056
191.5207
189.80141
188.11317
186.45644
184.83164
183.2391
181.67915
180.15204
268.11863
265.86561
263.60586
261.34068
259.07139
256.79929
254.52569
252.2519
249.97922
247.70896
245.44241
243.18089
240.92567
238.67805
236.4393
234.21071
231.99351
229.78896
227.59828
225.42267
223.26333
221.1214
218.99802
216.8943
214.81131
212.75009
210.71165
208.69695
206.70694
204.7425
202.80448
200.8937
199.01091
197.15685
195.33219
193.53755
191.77352
190.04063
188.33937
186.67018
185.03344
183.4295
181.85866
180.32116
269.52546
267.225
264.91886
262.60834
260.29474
257.97937
255.6635
253.34843
251.03546
248.72589
246.42099
244.12208
241.83042
239.5473
237.274
235.01177
232.76186
230.52551
228.30394
226.09835
223.9099
221.73975
219.58902
217.45881
215.35018
213.26416
211.20175
209.16391
207.15155
205.16555
203.20676
201.27597
199.37392
197.50134
195.65887
193.84713
192.06669
190.31806
188.60172
186.91809
185.26754
183.65039
182.06693
180.51738
271.08556
268.73246
266.3749
264.01416
261.65151
259.28823
256.92557
254.56483
252.20727
249.85419
247.50685
245.16655
242.83456
240.51215
238.20058
235.90112
233.61499
231.34344
229.08765
226.84884
224.62815
222.42673
220.24569
218.08612
215.94907
213.83556
211.74657
209.68305
207.6459
205.63599
203.65414
201.70113
199.77771
197.88455
196.0223
194.19157
192.3929
190.62678
188.89368
187.19399
185.52808
183.89624
182.29874
180.73579
272.76712
270.35719
267.94425
265.52947
263.11407
260.69926
258.28628
255.8764
253.47087
251.07097
248.67797
246.29314
243.91774
241.55304
239.2003
236.86076
234.53564
232.22618
229.93356
227.65897
225.40356
223.16845
220.95477
218.76356
216.59589
214.45274
212.3351
210.24389
208.18
206.14429
204.13757
202.1606
200.21409
198.29873
196.41514
194.5639
192.74553
190.96053
189.20932
187.49228
185.80977
184.16205
182.54937
180.97193
274.54158
272.07172
269.60055
267.12894
264.65801
262.18894
259.72296
257.2613
254.80523
252.35599
249.91486
247.48309
245.06194
242.65267
240.25651
237.87471
235.50849
233.15905
230.82758
228.51525
226.22321
223.95257
221.70443
219.47984
217.27983
215.1054
212.9575
210.83705
208.74493
206.68197
204.64897
202.64667
200.67578
198.73695
196.83079
194.95786
193.11867
191.31369
189.54332
187.80794
186.10786
184.44334
182.81461
181.22183
281.43201
278.90944
276.38172
273.85156
271.32065
268.79035
266.26192
263.73661
261.21566
258.70031
256.19181
253.6914
251.20034
248.71988
246.25126
243.79574
241.35454
238.92889
236.52
234.12906
231.75727
229.40576
227.07568
224.76814
222.48421
220.22494
217.99135
215.78442
213.60508
211.45425
209.33277
207.24149
205.18116
203.15253
201.15627
199.19303
197.26339
195.3679
193.50704
191.68127
189.89097
188.13649
186.41813
184.73612
183.09066
181.48191
283.45306
280.86285
278.27054
275.67748
273.08502
270.49448
267.90712
265.32419
262.74693
260.17657
257.61435
255.06152
252.51931
249.98897
247.47172
244.96881
242.48145
240.01086
237.55825
235.12479
232.71165
230.31999
227.95091
225.60553
223.2849
220.99007
218.72203
216.48174
214.27015
212.08813
209.93654
207.81617
205.7278
203.67212
201.64982
199.66151
197.70776
195.78909
193.90598
192.05885
190.24807
188.47397
186.73681
185.03683
183.37419
181.74903
285.50471
282.84673
280.18855
277.53131
274.87619
272.22442
269.57724
266.93584
264.30146
261.67532
259.05864
256.45265
253.85858
251.27765
248.71109
246.16012
243.62595
241.10979
238.61281
236.13621
233.68114
231.24872
228.84008
226.45629
224.09841
221.76747
219.46445
217.19031
214.94596
212.73227
210.55008
208.40018
206.28331
204.20016
202.15139
200.1376
198.15935
196.21712
194.31139
192.44255
190.61095
188.81689
187.06063
185.34237
183.66225
182.0204
287.56912
284.84327
282.11886
279.39698
276.67876
273.96537
271.25798
268.55778
265.86596
263.18373
260.5123
257.85286
255.20665
252.57486
249.95872
247.35943
244.77819
242.21619
239.67461
237.15462
234.65735
232.18394
229.73549
227.31306
224.91769
222.55041
220.21219
217.90396
215.62663
213.38105
211.16806
208.9884
206.84283
204.73201
202.65658
200.61712
198.61418
196.64822
194.71969
192.82896
190.97638
189.16221
187.3867
185.65001
183.95228
182.2936
289.631
286.8375
284.04701
281.26061
278.47938
275.70444
272.93694
270.17804
267.42889
264.69068
261.96459
259.25182
256.55357
253.87102
251.20539
248.55787
245.92964
243.32188
240.73576
238.17244
235.63305
233.1187
230.63047
228.16944
225.73663
223.33304
220.95964
218.61735
216.30705
214.02961
211.78581
209.57642
207.40214
205.26365
203.16156
201.09644
199.0688
197.0791
195.12777
193.21516
191.34158
189.5073
187.71252
185.9574
184.24205
182.56654
291.6772
288.81665
285.96066
283.11027
280.26655
277.43058
274.60346
271.78633
268.98032
266.18659
263.40631
260.64064
257.89077
255.15789
252.44317
249.7478
247.07295
244.4198
241.7895
239.18319
236.60198
234.047
231.51931
229.01995
226.54997
224.11033
221.70199
219.32587
216.98284
214.67374
212.39934
210.16041
207.95762
205.79164
203.66306
201.57243
199.52025
197.50696
195.53296
193.5986
191.70416
189.84989
188.03596
186.26252
184.52966
182.83741
293.69657
290.76988
287.84929
284.93582
282.03048
279.13432
276.24842
273.37387
270.51179
267.66331
264.82957
262.01174
259.21096
256.42842
253.66528
250.92272
248.20188
245.50394
242.83003
240.18129
237.55883
234.96374
232.39708
229.8599
227.3532
224.87797
222.43513
220.02561
217.65024
215.30986
213.00525
210.73712
208.50617
206.31302
204.15826
202.04242
199.96599
197.92939
195.933
193.97713
192.06208
190.18804
188.35519
186.56365
184.81348
183.10469
295.67962
292.688
289.70404
286.72868
283.7629
280.80769
277.86412
274.93323
272.01613
269.11392
266.22773
263.35869
260.50796
257.67667
254.86601
252.0771
249.31112
246.5692
243.85247
241.16206
238.49907
235.86458
233.25965
230.6853
228.14254
225.63232
223.15559
220.71322
218.30608
215.93496
213.60063
211.3038
209.04515
206.82529
204.6448
202.50417
200.40389
198.34436
196.32594
194.34894
192.4136
190.52013
188.66868
186.85933
185.09213
183.36709
297.61836
294.56329
291.51747
288.4817
285.4569
282.44404
279.44412
276.45821
273.48735
270.53265
267.59521
264.67614
261.77658
258.89766
256.04054
253.20634
250.39622
247.6113
244.85271
242.12156
239.41894
236.74592
234.10355
231.49284
228.91479
226.37035
223.86044
221.38594
218.94769
216.54648
214.18307
211.85816
209.57239
207.32638
205.12068
202.95579
200.83216
198.75018
196.7102
194.7125
192.7573
190.84481
188.97513
187.14835
185.36449
183.62353
302.63093
299.50546
296.38927
293.28347
290.189
287.10681
284.03786
280.98314
277.94368
274.92052
271.91474
268.92741
265.95965
263.01256
260.08728
257.18492
254.30663
251.45353
248.62674
245.82738
243.05654
240.31531
237.60475
234.9259
232.27976
229.66732
227.08953
224.54729
222.04146
219.57289
217.14235
214.75058
212.39828
210.08607
207.81457
205.58429
203.39574
201.24934
199.14546
197.08445
195.06656
193.092
191.16095
189.27351
187.42973
185.62962
183.87314
304.52339
301.33693
298.16123
294.99723
291.84586
288.70804
285.58472
282.47687
279.3855
276.31164
273.25632
270.22062
267.20563
264.21244
261.24218
258.29595
255.37487
252.48006
249.61264
246.77371
243.96435
241.18564
238.43864
235.72437
233.04384
230.39801
227.78782
225.21417
222.67792
220.17989
217.72086
215.30154
212.92262
210.58473
208.28845
206.0343
203.82275
201.65422
199.52908
197.44762
195.41012
193.41675
191.46767
189.56297
187.70268
185.88678
184.11522
306.35408
303.10851
299.87518
296.6549
293.44853
290.25696
287.08111
283.92193
280.78039
277.65751
274.55432
271.47186
268.41122
265.37347
262.35971
259.37105
256.4086
253.47346
250.56673
247.68952
244.84289
242.02793
239.24566
236.49712
233.78329
231.10514
228.46359
225.85954
223.29384
220.76729
218.28066
215.83467
213.42998
211.06721
208.74693
206.46965
204.23583
202.04588
199.90013
197.79888
195.74238
193.73079
191.76426
189.84284
187.96656
186.13538
184.34922
308.11936
304.81684
301.52799
298.25349
294.99413
291.75078
288.52432
285.31568
282.12582
278.95571
275.80638
272.67887
269.57422
266.49351
263.43783
260.40827
257.40592
254.43188
251.48726
248.57312
245.69055
242.8406
240.02432
237.2427
234.49675
231.7874
229.11559
226.4822
223.88806
221.33398
218.82072
216.34897
213.9194
211.53262
209.18917
206.88956
204.63423
202.42358
200.25794
198.13758
196.06273
194.03356
192.05017
190.11262
188.2209
186.37497
184.57472
313.18713
309.81632
306.45945
303.11736
299.7908
296.48056
293.18746
289.91238
286.65623
283.41992
280.20444
277.01078
273.83995
270.69301
267.57102
264.47503
261.40614
258.36543
255.354
252.37292
249.42327
246.50612
243.62252
240.77351
237.96007
235.1832
232.44384
229.7429
227.08126
224.45976
221.87918
219.34027
216.84373
214.3902
211.98029
209.61453
207.29342
205.01739
202.78681
200.60201
198.46326
196.37075
194.32464
192.32502
190.37194
188.46537
186.60524
184.79144
314.8682
311.44395
308.0349
304.64179
301.26535
297.90636
294.5656
291.24394
287.94224
284.66144
281.40246
278.16631
274.95397
271.76649
268.6049
265.47027
262.36367
259.28617
256.23886
253.22282
250.2391
247.28878
244.37289
241.49246
238.64849
235.84195
233.07377
230.34488
227.65612
225.00834
222.40232
219.83878
217.31843
214.8419
212.40978
210.0226
207.68084
205.38492
203.13521
200.93202
198.77559
196.66612
194.60375
192.58856
190.62056
188.69973
186.82598
184.99917
316.47669
313.00126
309.54229
306.1004
302.67629
299.27069
295.88438
292.51818
289.17296
285.84961
282.54905
279.27227
276.02024
272.79398
269.59452
266.42292
263.28024
260.16755
257.08592
254.03641
251.0201
248.03802
245.09123
242.18073
239.30752
236.47257
233.6768
230.92113
228.20641
225.53346
222.90306
220.31594
217.77279
215.27422
212.82083
210.41312
208.05158
205.73661
203.46857
201.24775
199.07439
196.94868
194.87073
192.84062
190.85834
188.92386
187.03707
185.19781
318.01203
314.48782
310.98123
307.49282
304.02325
300.57321
297.14346
293.7348
290.34806
286.98412
283.6439
280.32835
277.03844
273.77519
270.5396
267.33272
264.15561
261.00932
257.89492
254.81346
251.76602
248.75362
245.77731
242.83809
239.93696
237.07486
234.25274
231.47149
228.73196
226.03496
223.38127
220.77162
218.20666
215.68704
213.21331
210.78599
208.40554
206.07236
203.7868
201.54914
199.3596
197.21836
195.12553
193.08116
191.08524
189.13772
187.23848
185.38734
323.06269
319.47417
315.90369
312.35184
308.81919
305.30636
301.81404
298.34295
294.89387
291.46761
288.06505
284.68707
281.33462
278.00866
274.71017
271.44017
268.1997
264.98979
261.8115
258.66588
255.55399
252.47689
249.4356
246.43116
243.46457
240.53682
237.64886
234.80162
231.99597
229.23279
226.51286
223.83697
221.20582
218.62008
216.08037
213.58725
211.14123
208.74275
206.39221
204.08994
201.83621
199.63125
197.4752
195.36817
193.31021
191.30128
189.34134
187.43024
185.56779
324.49744
320.86393
317.2495
313.65468
310.08002
306.52612
302.99364
299.4833
295.99583
292.53205
289.09279
285.67895
282.29144
278.93122
275.59926
272.29656
269.02416
265.78308
262.57437
259.39908
256.25826
253.15295
250.08419
247.053
244.06039
241.10732
238.19475
235.3236
232.49476
229.70907
226.96733
224.27031
221.61871
219.01319
216.45437
213.9428
211.47897
209.06334
206.69627
204.3781
202.10908
199.88944
197.7193
195.59876
193.52786
191.50656
189.53479
187.61242
185.73926
325.85847
322.18229
318.52619
314.89065
311.27618
307.68336
304.11283
300.56528
297.04143
293.54207
290.06803
286.62019
283.19944
279.80673
276.44302
273.10932
269.80663
266.53598
263.29842
260.09497
256.9267
253.79463
250.6998
247.64322
244.6259
241.6488
238.71287
235.81903
232.96816
230.1611
227.39865
224.68157
222.01055
219.38625
216.80928
214.28018
211.79945
209.36752
206.98475
204.65148
202.36795
200.13436
197.95084
195.81747
193.73428
191.70122
189.71822
187.78515
185.90186
327.14704
323.43052
319.73501
316.06095
312.40883
308.77921
305.17268
301.58992
298.03165
294.49864
290.99169
287.51167
284.05946
280.636
277.24225
273.87919
270.54783
267.24919
263.9843
260.75419
257.55992
254.4025
251.28298
248.20235
245.16162
242.16176
239.2037
236.28836
233.41662
230.58931
227.80723
225.07112
222.3817
219.7396
217.14543
214.59972
212.10296
209.65558
207.25794
204.91036
202.61306
200.36626
198.17005
196.02452
193.92968
191.88547
189.89181
187.94856
186.05566
328.36476
324.61017
320.87746
317.16704
313.47938
309.81499
306.17448
302.55849
298.96771
295.40291
291.86487
288.35445
284.87253
281.42002
277.99788
274.60709
271.24863
267.92353
264.63282
261.37751
258.15866
254.97729
251.83441
248.73105
245.66819
242.64679
239.6678
236.73213
233.84065
230.99418
228.19353
225.43944
222.7326
220.07367
217.46322
214.9018
212.38988
209.92788
207.51617
205.15504
202.84473
200.58542
198.37722
196.22018
194.11431
192.05955
190.05577
188.10281
186.20041
184.34847
329.51345
325.723
321.95524
318.21056
314.4894
310.79226
307.11971
303.47239
299.85097
296.25619
292.68885
289.14977
285.63982
282.15992
278.71101
275.29405
271.91004
268.55998
265.2449
261.96582
258.72378
255.51979
252.35489
249.23007
246.14631
243.1046
240.10585
237.15098
234.24086
231.37631
228.55813
225.78705
223.06377
220.38893
217.76312
215.18686
212.66062
210.18483
207.75983
205.38591
203.06331
200.79219
198.57266
196.40476
194.28847
192.22374
190.21041
188.24829
186.3371
184.47648
330.59513
326.77096
322.97024
319.19333
315.44065
311.71269
308.01
304.3332
300.68294
297.05996
293.46503
289.89897
286.36264
282.85695
279.38283
275.94124
272.53316
269.1596
265.82157
262.5201
259.25621
256.03093
252.84527
249.70023
246.59679
243.53593
240.51856
237.5456
234.61792
231.73633
228.90162
226.11454
223.37576
220.68594
218.04564
215.45539
212.91566
210.42686
207.98933
205.60337
203.26918
200.98693
198.75671
196.57857
194.45248
192.37834
190.35602
188.38529
186.46587
184.59737
331.61195
327.75611
323.92445
320.11728
316.33501
312.5781
308.8471
305.14259
301.46524
297.81576
294.19491
290.6035
287.04238
283.51245
280.01464
276.54989
273.11919
269.72353
266.36393
263.04141
259.75698
256.51167
253.30649
250.14243
247.02049
243.94161
240.90674
237.91676
234.97255
232.07493
229.22468
226.42253
223.66918
220.96525
218.31132
215.70791
213.15549
210.65445
208.20514
205.80783
203.46274
201.17002
198.92976
196.74199
194.60667
192.5237
190.49292
188.51411
186.58698
184.71116
332.56616
328.68066
324.81998
320.98445
317.17443
313.39038
309.63282
305.90234
302.19958
298.52524
294.88007
291.26487
287.6805
284.12783
280.60778
277.12131
273.66938
270.25299
266.87314
263.53086
260.22715
256.96304
253.73953
250.55762
247.4183
244.32251
241.27119
238.26524
235.30551
232.39283
229.52798
226.7117
223.94465
221.22747
218.56075
215.94498
213.38063
210.8681
208.40772
205.99976
203.64443
201.34188
199.09219
196.89537
194.75138
192.66013
190.62142
188.63504
186.7007
184.81803
333.46009
329.54684
325.65902
321.79694
317.96095
314.15149
310.36907
306.61426
302.8877
299.19008
295.52214
291.88468
288.27852
284.70455
281.16368
277.65685
274.18503
270.74921
267.3504
263.98959
260.66782
257.38609
254.14541
250.94678
247.79116
244.67953
241.61279
238.59186
235.61759
232.6908
229.81226
226.98271
224.20283
221.47324
218.79451
216.16715
213.59162
211.06832
208.59756
206.17961
203.81469
201.50292
199.24439
197.0391
194.88699
192.78797
190.74184
188.74838
186.80728
184.9182
334.29613
330.35696
326.4438
322.5569
318.69664
314.86342
311.05777
307.28022
303.53142
299.81204
296.12281
292.46451
288.83799
285.2441
281.68376
278.15789
274.66748
271.21349
267.79693
264.41881
261.08014
257.78193
254.52518
251.31089
248.14004
245.01357
241.93242
238.89747
235.90959
232.96959
230.07825
227.23629
224.44439
221.70318
219.01322
216.37502
213.78903
211.25563
208.77516
206.34788
203.97397
201.65358
199.38677
197.17355
195.01386
192.90757
190.85451
188.85442
186.90702
185.01193
335.07668
331.11336
327.17655
323.26651
319.38359
315.52822
311.70088
307.90211
304.13255
300.39285
296.68375
293.00602
289.36048
285.748
282.16948
278.62585
275.11807
271.64711
268.21399
264.81969
261.46524
258.15164
254.87989
251.65099
248.4659
245.32559
242.23096
239.18292
236.18233
233.22999
230.32668
227.47313
224.67001
221.91794
219.21749
216.56916
213.97339
211.43058
208.94104
206.50502
204.12273
201.79429
199.51975
197.29913
195.13235
193.01928
190.95974
188.95348
187.00019
185.09951
335.80417
331.81837
327.85954
323.92795
320.02393
316.1479
312.30036
308.48182
304.69292
300.93429
297.20668
293.51083
289.84758
286.21777
282.62231
279.06212
275.53815
272.05139
268.60283
265.19346
261.8243
258.49635
255.21062
251.96809
248.76973
245.6165
242.50932
239.44907
236.43662
233.47278
230.55832
227.69396
224.88038
222.11818
219.40795
216.75017
214.14529
211.59369
209.09569
206.65154
204.26142
201.92547
199.64373
197.41621
195.24282
193.12344
191.05787
189.04585
187.08708
185.18118
336.48099
332.47433
328.49502
324.54338
320.61973
316.7245
312.85816
309.02124
305.21434
301.43811
297.69328
293.98058
290.30085
286.65493
283.04371
279.46811
275.92909
272.42762
268.96469
265.5413
262.15846
258.81716
255.51841
252.2632
249.0525
245.88725
242.76838
239.69678
236.6733
233.69875
230.77391
227.89949
225.07616
222.30455
219.58521
216.91863
214.30527
211.7455
209.23962
206.7879
204.39051
202.04757
199.75913
197.52518
195.34565
193.2204
191.14922
189.13185
187.16798
185.25723
337.10958
333.08354
329.08522
325.11495
321.17308
317.26001
313.37622
309.52223
305.69863
301.90606
298.14523
294.4169
290.72187
287.06098
283.43513
279.84523
276.29223
272.7771
269.30083
265.86442
262.46886
259.11517
255.80434
252.53735
249.31518
246.13877
243.00904
239.92689
236.89316
233.90867
230.97418
228.09042
225.25805
222.47768
219.74988
217.07514
214.4539
211.88653
209.37334
206.91458
204.51043
202.161
199.86634
197.62643
195.44119
193.31049
191.2341
189.21177
187.24317
185.32792
337.69233
333.6483
329.63233
325.64478
321.68601
317.75641
313.85645
309.98664
306.14755
302.33984
298.5642
294.82137
291.11216
287.43741
283.79799
280.19484
276.62889
273.1011
269.61247
266.16398
262.75665
259.39146
256.06943
252.79153
249.55872
246.37197
243.23218
240.14025
237.09702
234.10331
231.15988
228.26745
225.42669
222.63821
219.90257
217.22025
214.59171
212.0173
209.49733
207.03205
204.62163
202.26619
199.96576
197.72032
195.5298
193.39404
191.31284
189.28591
187.31293
185.39351
350.58739
346.43963
342.32085
338.2317
334.17083
330.13847
326.13493
322.16052
318.21563
314.30071
310.41626
306.56287
302.74115
298.9518
295.19557
291.47324
287.78567
284.13372
280.5183
276.94036
273.40087
269.9008
266.44115
263.02292
259.64711
256.31471
253.02671
249.78408
246.58775
243.43866
240.33767
237.28566
234.28342
231.33171
228.43127
225.58275
222.78677
220.04387
217.35455
214.71924
212.13832
209.61208
207.14077
204.72455
202.36354
200.05778
197.80723
195.61183
193.4714
191.38573
189.35456
187.37753
185.45426
355.32745
351.13411
346.96994
342.83508
338.7297
334.65324
330.60574
326.58741
322.59857
318.63956
314.71083
310.81288
306.94627
303.11163
299.30963
295.54103
291.8066
288.10719
284.44366
280.81693
277.22794
273.67764
270.16701
266.69706
263.26877
259.88315
256.54119
253.24387
249.99216
246.787
243.62931
240.51997
237.45984
234.44973
231.49039
228.58255
225.72687
222.92395
220.17435
217.47857
214.83702
212.25009
209.71806
207.24118
204.81961
202.45346
200.14278
197.88752
195.6876
193.54286
191.45309
189.418
187.43724
185.51043
355.84653
351.63759
347.45827
343.30854
339.18841
335.0976
331.03614
327.0042
323.00205
319.03004
315.0886
311.17821
307.29943
303.45288
299.63924
295.85924
292.11367
288.40336
284.72917
281.09202
277.49284
273.93259
270.41225
266.93281
263.49526
260.1006
256.74983
253.44393
250.18386
246.97056
243.80496
240.68793
237.62033
234.60297
231.6366
228.72194
225.85966
223.05036
220.29459
217.59285
214.94556
212.35308
209.81572
207.33371
204.90722
202.53634
200.22112
197.96152
195.75745
193.60875
191.51519
189.4765
187.49232
185.56225
356.32331
352.10014
347.9069
343.7435
339.60989
335.50593
331.43165
327.38719
323.37282
319.38886
315.43573
311.51391
307.62395
303.76646
299.94212
296.15166
292.39585
288.67552
284.99155
281.34483
277.73629
274.1669
270.63763
267.14947
263.70341
260.30045
256.94159
253.6278
250.36005
247.13928
243.96641
240.84231
237.76785
234.74382
231.77099
228.85007
225.98173
223.16657
220.40513
217.69792
215.04535
212.44778
209.90552
207.4188
204.98778
202.61256
200.29317
198.02959
195.8217
193.66936
191.57233
189.53034
187.54302
185.60996
356.76022
352.52403
348.31803
344.1421
339.99618
335.88019
331.79415
327.73823
323.71265
319.71774
315.7539
311.8216
307.9214
304.05389
300.21974
296.41969
292.6545
288.92499
285.23205
281.57655
277.95944
274.38168
270.84422
267.34807
263.89422
260.48366
257.11738
253.79637
250.52158
247.29396
244.11443
240.98386
237.9031
234.87297
231.89422
228.96756
226.09367
223.27313
220.5065
217.79427
215.13686
212.53464
209.98789
207.49685
205.06168
202.68248
200.35927
198.09204
195.88066
193.72498
191.62478
189.57976
187.58957
185.65379
357.15952
352.91144
348.69376
344.50639
340.34924
336.22226
332.1255
328.05909
324.02327
320.01834
316.04471
312.10285
308.19328
304.31661
300.4735
296.66468
292.89092
289.15303
285.45189
281.78838
278.16343
274.57801
271.03308
267.52963
264.06866
260.65115
257.2781
253.95048
250.66926
247.43539
244.24976
241.11328
238.02678
234.99106
232.0069
229.07501
226.19603
223.37059
220.59921
217.8824
215.22057
212.61408
210.06323
207.56825
205.12929
202.74645
200.41976
198.14918
195.93462
193.77589
191.67279
189.62502
187.63221
185.69396
357.52339
353.26445
349.03614
344.83834
340.67097
336.53399
332.42745
328.35149
324.30633
320.29229
316.30974
312.35915
308.44104
304.55603
300.70476
296.88795
293.10638
289.36085
285.65224
281.98142
278.34935
274.75695
271.20521
267.69511
264.22765
260.80381
257.42459
254.09096
250.80388
247.5643
244.37313
241.23126
238.13952
235.09873
232.10964
229.17297
226.28937
223.45945
220.68376
217.96277
215.29691
212.68654
210.13196
207.63338
205.19096
202.80481
200.47495
198.20133
195.98386
193.82236
191.71662
189.66634
187.67117
185.73067
357.85388
353.58508
349.34711
345.13984
340.96319
336.81713
332.70171
328.61708
324.56344
320.54111
316.55046
312.59195
308.6661
304.7735
300.91482
297.09076
293.30209
289.54963
285.83423
282.15678
278.51823
274.9195
271.36158
267.84544
264.37209
260.9425
257.55768
254.21858
250.92619
247.68144
244.48524
241.33847
238.24198
235.19657
232.20301
229.262
226.37421
223.54023
220.76061
218.03583
215.36632
212.75242
210.19444
207.6926
205.24706
202.8579
200.52515
198.24877
196.02866
193.86465
191.75651
189.70396
187.70664
185.76414
358.15299
353.87525
349.62853
345.41269
341.22764
337.07337
332.94992
328.85744
324.79613
320.7663
316.76832
312.80263
308.86977
304.97031
301.10492
297.2743
293.47921
289.72047
285.99894
282.3155
278.67108
275.06662
271.50311
267.98151
264.50283
261.06805
257.67815
254.33412
251.03692
247.78749
244.58673
241.43554
238.33475
235.28517
232.28756
229.34264
226.45104
223.61339
220.83022
218.10201
215.42919
212.81211
210.25107
207.74627
205.29789
202.90601
200.57065
198.29178
196.06928
193.903
191.79269
189.73809
187.73884
185.79454
358.4226
354.13681
349.88219
345.65862
341.46601
337.30433
333.17364
329.07408
325.00586
320.96927
316.96468
312.99253
309.05335
305.14771
301.27627
297.43974
293.63887
289.87447
286.14741
282.45857
278.80886
275.19925
271.6307
268.10418
264.6207
261.18123
257.78677
254.43829
251.13676
247.88311
244.67825
241.52307
238.41842
235.36508
232.36383
229.41537
226.52036
223.6794
220.89303
218.16173
215.48594
212.86599
210.30217
207.79472
205.34378
202.94945
200.61175
198.33063
196.10598
193.93764
191.82539
189.76894
187.76795
185.82205
358.66454
354.3715
350.1098
345.87929
341.67988
337.51155
333.37437
329.26847
325.19404
321.15138
317.14086
313.16292
309.21806
305.30688
301.43002
297.58818
293.78212
290.01265
286.28063
282.58694
278.9325
275.31826
271.74519
268.21426
264.72647
261.28281
257.88426
254.53179
251.22638
247.96895
244.76042
241.60166
238.49353
235.43683
232.43231
229.48069
226.58261
223.73868
220.94945
218.21539
215.53692
212.91439
210.3481
207.83827
205.38504
202.98851
200.6487
198.36556
196.13899
193.96881
191.85481
189.79669
187.79415
185.84684
358.88052
354.58101
350.31297
346.07626
341.87078
337.69652
333.55354
329.44197
325.362
321.31393
317.29812
313.315
309.36508
305.44895
301.56725
297.72067
293.90999
290.136
286.39955
282.70153
279.04287
275.4245
271.8474
268.31254
264.82091
261.3735
257.9713
254.61528
251.3064
248.0456
244.83379
241.67186
238.56063
235.50093
232.4935
229.53905
226.63824
223.79167
220.99988
218.26335
215.58249
212.95768
210.38917
207.87721
205.42194
203.02345
200.68176
198.39683
196.16854
193.99672
191.88115
189.82155
187.81761
185.86903
359.07219
354.76692
350.49325
346.25103
342.04016
337.86063
333.71251
329.5959
325.51102
321.45815
317.43764
313.44993
309.49552
305.575
301.689
297.83823
294.02344
290.24543
286.50506
282.80321
279.1408
275.51878
271.9381
268.39976
264.90473
261.454
258.04857
254.68939
251.37745
248.11366
244.89895
241.73419
238.62022
235.55785
232.54784
229.59089
226.68766
223.83874
221.04469
218.30597
215.62301
212.99616
210.4257
207.91185
205.45477
203.05455
200.71119
198.42466
196.19484
194.02157
191.90462
189.8437
187.8385
185.88868
183.99418
359.2411
354.93076
350.65212
346.40503
342.18941
338.00523
333.85257
329.73153
325.64232
321.58522
317.56057
313.56881
309.61045
305.68606
301.79628
297.94181
294.1234
290.34186
286.59804
282.89281
279.2271
275.60186
272.01804
268.47662
264.9786
261.52495
258.11667
254.75473
251.44008
248.17367
244.9564
241.78915
238.67278
235.60807
232.59579
229.63664
226.73127
223.8803
221.08425
218.34361
215.65879
213.03014
210.45796
207.94246
205.48379
203.08203
200.73721
198.44927
196.21812
194.04356
191.92538
189.86329
187.85698
185.90608
184.01026
359.38876
355.07397
350.79098
346.53963
342.31983
338.13159
333.97496
329.85005
325.75706
321.69625
317.66799
313.6727
309.71088
305.78311
301.89002
298.03232
294.21076
290.42613
286.67929
282.97112
279.30253
275.67447
272.08791
268.54381
265.04318
261.58698
258.17622
254.81186
251.49485
248.22615
245.00665
241.83724
238.71876
235.65201
232.63775
229.67668
226.76946
223.91668
221.1189
218.37657
215.69014
213.05993
210.48624
207.96929
205.50923
203.10614
200.76004
198.47088
196.23855
194.06288
191.94363
189.88051
187.87321
185.92135
184.02452
359.51656
355.19791
350.91114
346.65609
342.43268
338.24091
334.08084
329.95258
325.85632
321.79231
317.76092
313.76257
309.79776
305.86707
301.97113
298.11063
294.28634
290.49904
286.74959
283.03887
279.3678
275.73731
272.14837
268.60197
265.09907
261.64068
258.22777
254.86132
251.54229
248.2716
245.05018
241.8789
238.75861
235.69009
232.67412
229.71139
226.80257
223.94824
221.14895
218.40518
215.71735
213.08579
210.51081
207.99261
205.53134
203.1271
200.7799
198.48968
196.25633
194.07969
191.95951
189.89551
187.88735
185.93465
184.03692
182.19374
359.62585
355.30389
351.01387
346.75565
342.52914
338.33435
334.17134
330.04021
325.94115
321.87441
317.84034
313.83938
309.87202
305.93883
302.04044
298.17756
294.35093
290.56136
286.80968
283.09679
279.42359
275.79103
272.20007
268.65169
265.14688
261.68661
258.27187
254.90364
251.58287
248.3105
245.08744
241.91457
238.79272
235.72271
232.70528
229.74114
226.83095
223.9753
221.17473
218.42973
215.7407
213.10799
210.5319
208.01263
205.55035
203.14512
200.79697
198.50585
196.27164
194.09417
191.9732
189.90844
187.89954
185.94611
184.04765
182.20359
359.71788
355.39313
351.10037
346.83945
342.61032
338.41298
334.24749
330.11396
326.01254
321.9435
317.90718
313.90402
309.9345
305.99921
302.09877
298.23388
294.4053
290.61381
286.86026
283.14554
279.47056
275.83626
272.2436
268.69357
265.18713
261.72529
258.30902
254.9393
251.61708
248.34329
245.11886