/*--------------------------------*- C++ -*----------------------------------*\
| =========                 |                                                 |
| \\      /  F ield         | OpenFOAM: The Open Source CFD Toolbox           |
|  \\    /   O peration     | Version:  2312                                  |
|   \\  /    A nd           | Website:  www.openfoam.com                      |
|    \\/     M anipulation  |                                                 |
\*---------------------------------------------------------------------------*/
FoamFile
{
    version     2.0;
    format      ascii;
    arch        "LSB;label=32;scalar=64";
    class       surfaceScalarField;
    location    "0.1";
    object      phi;
}
// * * * * * * * * * * * * * * * * * * * * * * * * * * * * * * * * * * * * * //

dimensions      [1 0 -1 0 0 0 0];

oriented        oriented;

internalField   nonuniform List<scalar> 
6378
(
2.6992248e-07
-1.7683296e-07
2.6718268e-07
-1.7687665e-07
2.6442591e-07
-1.7685414e-07
2.6165441e-07
-1.7676616e-07
2.5887031e-07
-1.7661319e-07
2.5607568e-07
-1.7639579e-07
2.5327256e-07
-1.7611459e-07
2.5046297e-07
-1.7577029e-07
2.476489e-07
-1.7536367e-07
2.448323e-07
-1.7489558e-07
2.420151e-07
-1.7436697e-07
2.3919916e-07
-1.7377885e-07
2.3638635e-07
-1.731323e-07
2.3357846e-07
-1.7242851e-07
2.3077726e-07
-1.7166869e-07
2.2798449e-07
-1.7085417e-07
2.2520183e-07
-1.6998631e-07
2.2243095e-07
-1.6906657e-07
2.1967346e-07
-1.6809645e-07
2.1693096e-07
-1.670775e-07
2.1420499e-07
-1.6601133e-07
2.1149708e-07
-1.6489962e-07
2.0880873e-07
-1.6374406e-07
2.0614139e-07
-1.625464e-07
2.0349651e-07
-1.6130843e-07
2.008755e-07
-1.6003193e-07
1.9827977e-07
-1.5871876e-07
1.9571067e-07
-1.5737074e-07
1.9316957e-07
-1.5598974e-07
1.9065781e-07
-1.5457764e-07
1.881767e-07
-1.5313628e-07
1.8572756e-07
-1.5166753e-07
1.8331169e-07
-1.5017323e-07
1.8093037e-07
-1.4865524e-07
1.7858487e-07
-1.4711534e-07
1.7627646e-07
-1.4555534e-07
1.740064e-07
-1.4397699e-07
1.7177594e-07
-1.4238202e-07
1.6958631e-07
-1.4077211e-07
1.6743874e-07
-1.391489e-07
1.6533446e-07
-1.3751401e-07
1.6327468e-07
-1.3586898e-07
1.6126066e-07
-1.342153e-07
-1.3255433e-07
2.6387755e-07
-1.7107404e-07
2.6118416e-07
-1.7111003e-07
2.5847447e-07
-1.7108246e-07
2.5575064e-07
-1.70992e-07
2.5301474e-07
-1.7083913e-07
2.502688e-07
-1.7062436e-07
2.4751483e-07
-1.7034829e-07
2.4475481e-07
-1.700116e-07
2.4199067e-07
-1.6961502e-07
2.3922434e-07
-1.6915938e-07
2.3645767e-07
-1.6864557e-07
2.3369252e-07
-1.6807457e-07
2.3093069e-07
-1.6744741e-07
2.2817393e-07
-1.6676522e-07
2.2542397e-07
-1.6602919e-07
2.226825e-07
-1.6524058e-07
2.1995118e-07
-1.644007e-07
2.1723161e-07
-1.6351095e-07
2.1452539e-07
-1.6257276e-07
2.1183405e-07
-1.6158765e-07
2.0915911e-07
-1.6055716e-07
2.0650206e-07
-1.594829e-07
2.0386435e-07
-1.5836649e-07
2.0124741e-07
-1.5720964e-07
1.9865264e-07
-1.5601404e-07
1.9608143e-07
-1.5478144e-07
1.9353513e-07
-1.5351361e-07
1.9101508e-07
-1.5221231e-07
1.885226e-07
-1.5087935e-07
1.86059e-07
-1.4951652e-07
1.8362557e-07
-1.4812561e-07
1.8122358e-07
-1.4670842e-07
1.7885431e-07
-1.4526674e-07
1.7651901e-07
-1.4380232e-07
1.7421891e-07
-1.4231691e-07
1.7195525e-07
-1.4081225e-07
1.6972926e-07
-1.3929001e-07
1.6754215e-07
-1.3775186e-07
1.6539513e-07
-1.3619943e-07
1.6328939e-07
-1.346343e-07
1.6122611e-07
-1.3305802e-07
1.5920645e-07
-1.3147208e-07
1.5723159e-07
-1.2987793e-07
-1.2827682e-07
2.5901247e-07
-1.6548341e-07
2.5634803e-07
-1.6551138e-07
2.5366794e-07
-1.654784e-07
2.5097434e-07
-1.6538505e-07
2.4826925e-07
-1.6523181e-07
2.4555467e-07
-1.6501916e-07
2.4283258e-07
-1.6474766e-07
2.401049e-07
-1.6441795e-07
2.3737356e-07
-1.6403073e-07
2.346404e-07
-1.6358679e-07
2.3190728e-07
-1.6308699e-07
2.2917598e-07
-1.6253225e-07
2.2644827e-07
-1.6192357e-07
2.2372586e-07
-1.6126203e-07
2.2101045e-07
-1.6054878e-07
2.1830367e-07
-1.59785e-07
2.1560715e-07
-1.5897199e-07
2.1292246e-07
-1.5811107e-07
2.1025115e-07
-1.5720362e-07
2.0759471e-07
-1.562511e-07
2.0495464e-07
-1.5525499e-07
2.0233238e-07
-1.5421684e-07
1.9972934e-07
-1.5313823e-07
1.9714693e-07
-1.5202077e-07
1.9458651e-07
-1.5086611e-07
1.9204943e-07
-1.4967594e-07
1.8953702e-07
-1.4845195e-07
1.8705058e-07
-1.4719584e-07
1.8459141e-07
-1.4590936e-07
1.8216079e-07
-1.4459423e-07
1.7975997e-07
-1.4325219e-07
1.7739021e-07
-1.4188495e-07
1.7505274e-07
-1.4049424e-07
1.727488e-07
-1.3908176e-07
1.704796e-07
-1.376492e-07
1.6824634e-07
-1.361982e-07
1.6605022e-07
-1.347304e-07
1.6389243e-07
-1.332474e-07
1.6177414e-07
-1.3175077e-07
1.5969651e-07
-1.3024203e-07
1.5766071e-07
-1.2872267e-07
1.5566783e-07
-1.2719414e-07
1.5371902e-07
-1.2565781e-07
-1.2411487e-07
2.5505503e-07
-1.6006256e-07
2.5240512e-07
-1.6008216e-07
2.4974033e-07
-1.6004331e-07
2.4706275e-07
-1.5994659e-07
2.4437436e-07
-1.5979241e-07
2.4167714e-07
-1.5958126e-07
2.38973e-07
-1.5931365e-07
2.3626385e-07
-1.5899019e-07
2.3355156e-07
-1.5861154e-07
2.3083795e-07
-1.5817846e-07
2.2812483e-07
-1.5769176e-07
2.2541393e-07
-1.5715232e-07
2.22707e-07
-1.5656112e-07
2.200057e-07
-1.5591917e-07
2.1731168e-07
-1.5522757e-07
2.1462656e-07
-1.5448748e-07
2.1195191e-07
-1.5370012e-07
2.0928926e-07
-1.5286677e-07
2.0664012e-07
-1.5198876e-07
2.0400597e-07
-1.5106748e-07
2.0138825e-07
-1.5010438e-07
1.9878837e-07
-1.4910092e-07
1.9620772e-07
-1.4805864e-07
1.9364766e-07
-1.4697909e-07
1.9110952e-07
-1.4586385e-07
1.8859463e-07
-1.4471455e-07
1.8610428e-07
-1.4353282e-07
1.8363974e-07
-1.4232032e-07
1.8120229e-07
-1.4107869e-07
1.7879317e-07
-1.3980962e-07
1.7641361e-07
-1.3851477e-07
1.7406486e-07
-1.3719581e-07
1.717481e-07
-1.3585439e-07
1.6946456e-07
-1.3449215e-07
1.6721541e-07
-1.331107e-07
1.6500184e-07
-1.3171166e-07
1.6282503e-07
-1.3029658e-07
1.6068612e-07
-1.2886701e-07
1.5858627e-07
-1.2742445e-07
1.5652662e-07
-1.2597038e-07
1.5450829e-07
-1.2450622e-07
1.5253238e-07
-1.2303336e-07
1.5059997e-07
-1.2155312e-07
-1.2006665e-07
2.5180377e-07
-1.5481086e-07
2.4915735e-07
-1.5482169e-07
2.4649689e-07
-1.5477651e-07
2.4382444e-07
-1.5467587e-07
2.4114195e-07
-1.5452018e-07
2.3845135e-07
-1.5430987e-07
2.3575452e-07
-1.5404543e-07
2.3305332e-07
-1.5372745e-07
2.3034958e-07
-1.5335654e-07
2.2764509e-07
-1.5293343e-07
2.2494161e-07
-1.5245888e-07
2.2224085e-07
-1.5193376e-07
2.1954449e-07
-1.5135898e-07
2.1685417e-07
-1.5073551e-07
2.141715e-07
-1.5006441e-07
2.1149806e-07
-1.493468e-07
2.0883537e-07
-1.4858384e-07
2.0618495e-07
-1.4777676e-07
2.0354825e-07
-1.4692684e-07
2.0092673e-07
-1.4603543e-07
1.9832178e-07
-1.451039e-07
1.9573479e-07
-1.4413368e-07
1.9316711e-07
-1.4312623e-07
1.9062007e-07
-1.4208306e-07
1.8809498e-07
-1.4100569e-07
1.8559311e-07
-1.3989568e-07
1.8311575e-07
-1.387546e-07
1.8066413e-07
-1.3758405e-07
1.782395e-07
-1.3638563e-07
1.7584308e-07
-1.3516094e-07
1.7347608e-07
-1.339116e-07
1.711397e-07
-1.326392e-07
1.6883513e-07
-1.3134535e-07
1.6656355e-07
-1.3003161e-07
1.6432613e-07
-1.2869956e-07
1.6212401e-07
-1.2735072e-07
1.5995835e-07
-1.2598662e-07
1.5783029e-07
-1.2460873e-07
1.5574095e-07
-1.232185e-07
1.5369145e-07
-1.2181734e-07
1.5168287e-07
-1.2040663e-07
1.497163e-07
-1.1898771e-07
1.477928e-07
-1.1756183e-07
-1.161301e-07
2.4908404e-07
-1.4972589e-07
2.4643302e-07
-1.4972756e-07
2.4376888e-07
-1.4967561e-07
2.4109361e-07
-1.4957055e-07
2.3840913e-07
-1.4941276e-07
2.3571732e-07
-1.4920266e-07
2.3302003e-07
-1.489407e-07
2.3031907e-07
-1.4862743e-07
2.2761624e-07
-1.4826345e-07
2.2491328e-07
-1.4784943e-07
2.2221191e-07
-1.4738611e-07
2.1951379e-07
-1.468743e-07
2.1682057e-07
-1.4631489e-07
2.1413386e-07
-1.457088e-07
2.1145522e-07
-1.4505706e-07
2.0878619e-07
-1.4436072e-07
2.0612826e-07
-1.436209e-07
2.034829e-07
-1.428388e-07
2.0085155e-07
-1.4201564e-07
1.9823561e-07
-1.4115271e-07
1.9563645e-07
-1.4025134e-07
1.9305542e-07
-1.3931289e-07
1.9049384e-07
-1.3833879e-07
1.87953e-07
-1.3733046e-07
1.8543419e-07
-1.3628939e-07
1.8293866e-07
-1.3521708e-07
1.8046764e-07
-1.3411504e-07
1.7802237e-07
-1.3298481e-07
1.7560405e-07
-1.3182793e-07
1.7321387e-07
-1.3064595e-07
1.7085303e-07
-1.2944042e-07
1.685227e-07
-1.2821289e-07
1.6622405e-07
-1.2696488e-07
1.6395823e-07
-1.2569793e-07
1.6172638e-07
-1.2441353e-07
1.5952964e-07
-1.2311316e-07
1.5736913e-07
-1.2179829e-07
1.5524598e-07
-1.2047033e-07
1.5316127e-07
-1.1913067e-07
1.5111611e-07
-1.1778069e-07
1.4911156e-07
-1.1642169e-07
1.4714868e-07
-1.1505496e-07
1.452285e-07
-1.136817e-07
-1.1230299e-07
2.4674719e-07
-1.4480374e-07
2.4408601e-07
-1.4479593e-07
2.4141267e-07
-1.4473682e-07
2.3872912e-07
-1.4462689e-07
2.3603724e-07
-1.4446651e-07
2.3333886e-07
-1.4425604e-07
2.306358e-07
-1.4399593e-07
2.2792981e-07
-1.4368667e-07
2.2522265e-07
-1.4332884e-07
2.2251602e-07
-1.4292308e-07
2.198116e-07
-1.4247009e-07
2.1711101e-07
-1.4197066e-07
2.1441585e-07
-1.4142561e-07
2.117277e-07
-1.4083585e-07
2.0904808e-07
-1.4020234e-07
2.0637848e-07
-1.3952611e-07
2.0372037e-07
-1.3880824e-07
2.0107517e-07
-1.3804985e-07
1.9844429e-07
-1.3725215e-07
1.958291e-07
-1.3641635e-07
1.9323093e-07
-1.3554374e-07
1.9065109e-07
-1.3463565e-07
1.8809088e-07
-1.3369342e-07
1.8555156e-07
-1.3271845e-07
1.8303438e-07
-1.3171216e-07
1.8054057e-07
-1.3067599e-07
1.7807132e-07
-1.2961141e-07
1.7562785e-07
-1.2851989e-07
1.7321133e-07
-1.2740292e-07
1.7082294e-07
-1.26262e-07
1.6846383e-07
-1.2509861e-07
1.6613516e-07
-1.2391425e-07
1.6383807e-07
-1.227104e-07
1.615737e-07
-1.2148852e-07
1.5934315e-07
-1.2025006e-07
1.5714756e-07
-1.1899644e-07
1.5498802e-07
-1.1772907e-07
1.5286561e-07
-1.1644931e-07
1.5078143e-07
-1.1515851e-07
1.4873654e-07
-1.1385796e-07
1.4673199e-07
-1.1254894e-07
1.447688e-07
-1.1123267e-07
1.42848e-07
-1.0991032e-07
-1.0858289e-07
2.4466899e-07
-1.4003941e-07
2.4199419e-07
-1.4002182e-07
2.3930825e-07
-1.3995526e-07
2.3661305e-07
-1.3984013e-07
2.3391044e-07
-1.3967673e-07
2.312022e-07
-1.3946542e-07
2.2849008e-07
-1.3920658e-07
2.2577582e-07
-1.3890072e-07
2.2306112e-07
-1.3854835e-07
2.2034763e-07
-1.381501e-07
2.1763698e-07
-1.3770663e-07
2.1493076e-07
-1.3721869e-07
2.1223053e-07
-1.3668708e-07
2.0953783e-07
-1.3611266e-07
2.0685413e-07
-1.3549635e-07
2.0418089e-07
-1.3483914e-07
2.0151954e-07
-1.3414205e-07
1.9887148e-07
-1.334062e-07
1.9623805e-07
-1.326327e-07
1.9362061e-07
-1.3182275e-07
1.9102044e-07
-1.3097758e-07
1.8843884e-07
-1.3009847e-07
1.8587706e-07
-1.2918671e-07
1.8333633e-07
-1.2824366e-07
1.8081788e-07
-1.2727067e-07
1.7832289e-07
-1.2626914e-07
1.7585255e-07
-1.2524048e-07
1.7340803e-07
-1.2418611e-07
1.7099049e-07
-1.2310747e-07
1.6860106e-07
-1.2200601e-07
1.6624089e-07
-1.2088314e-07
1.6391111e-07
-1.1974033e-07
1.6161283e-07
-1.1857897e-07
1.5934717e-07
-1.174005e-07
1.5711521e-07
-1.1620631e-07
1.5491806e-07
-1.1499775e-07
1.527568e-07
-1.1377619e-07
1.5063248e-07
-1.1254294e-07
1.4854618e-07
-1.1129928e-07
1.4649894e-07
-1.1004647e-07
1.4449178e-07
-1.0878573e-07
1.4252571e-07
-1.0751822e-07
1.4060173e-07
-1.0624507e-07
-1.0496724e-07
2.4274713e-07
-1.3542698e-07
2.4005694e-07
-1.3539943e-07
2.3735672e-07
-1.3532528e-07
2.3464826e-07
-1.3520472e-07
2.3193331e-07
-1.35038e-07
2.2921361e-07
-1.3482544e-07
2.2649087e-07
-1.3456744e-07
2.2376677e-07
-1.3426443e-07
2.2104295e-07
-1.3391693e-07
2.1832104e-07
-1.3352553e-07
2.1560262e-07
-1.3309086e-07
2.1288924e-07
-1.3261363e-07
2.1018242e-07
-1.3209462e-07
2.0748363e-07
-1.3153463e-07
2.0479433e-07
-1.3093457e-07
2.0211595e-07
-1.3029536e-07
1.9944985e-07
-1.2961801e-07
1.9679741e-07
-1.2890357e-07
1.9415994e-07
-1.2815312e-07
1.9153875e-07
-1.2736782e-07
1.889351e-07
-1.2654884e-07
1.8635025e-07
-1.2569742e-07
1.8378542e-07
-1.2481481e-07
1.8124181e-07
-1.239023e-07
1.787206e-07
-1.2296121e-07
1.7622297e-07
-1.2199288e-07
1.7375007e-07
-1.2099868e-07
1.7130304e-07
-1.1997998e-07
1.6888301e-07
-1.1893815e-07
1.664911e-07
-1.178746e-07
1.6412842e-07
-1.167907e-07
1.6179608e-07
-1.1568784e-07
1.5949516e-07
-1.1456739e-07
1.5722676e-07
-1.1343072e-07
1.5499195e-07
-1.1227916e-07
1.5279181e-07
-1.1111404e-07
1.5062738e-07
-1.0993665e-07
1.4849972e-07
-1.0874825e-07
1.4640987e-07
-1.0755009e-07
1.4435884e-07
-1.0634336e-07
1.4234765e-07
-1.0512923e-07
1.4037727e-07
-1.0390882e-07
1.3844868e-07
-1.0268321e-07
-1.014533e-07
2.4627507e-07
-1.3089949e-07
2.4359315e-07
-1.3095222e-07
2.4089825e-07
-1.3095977e-07
2.3819263e-07
-1.3092255e-07
2.3547799e-07
-1.3084077e-07
2.3275608e-07
-1.3071462e-07
2.3002859e-07
-1.3054435e-07
2.2729722e-07
-1.3033027e-07
2.2456362e-07
-1.3007272e-07
2.2182945e-07
-1.2977215e-07
2.190963e-07
-1.2942904e-07
2.1636575e-07
-1.2904393e-07
2.1363932e-07
-1.2861744e-07
2.1091854e-07
-1.2815025e-07
2.0820487e-07
-1.2764309e-07
2.0549976e-07
-1.2709674e-07
2.0280462e-07
-1.2651207e-07
2.0012082e-07
-1.2588996e-07
1.9744972e-07
-1.2523138e-07
1.9479263e-07
-1.2453733e-07
1.9215085e-07
-1.2380887e-07
1.8952563e-07
-1.230471e-07
1.8691821e-07
-1.2225315e-07
1.8432981e-07
-1.2142822e-07
1.8176162e-07
-1.2057351e-07
1.7921481e-07
-1.1969026e-07
1.7669054e-07
-1.1877975e-07
1.7418994e-07
-1.1784328e-07
1.7171414e-07
-1.1688215e-07
1.6926426e-07
-1.158977e-07
1.6684139e-07
-1.1489124e-07
1.6444664e-07
-1.1386414e-07
1.6208107e-07
-1.1281771e-07
1.5974579e-07
-1.117533e-07
1.5744185e-07
-1.1067223e-07
1.5517032e-07
-1.0957581e-07
1.5293225e-07
-1.0846533e-07
1.5072869e-07
-1.0734207e-07
1.4856067e-07
-1.0620726e-07
1.4642923e-07
-1.0506213e-07
1.4433537e-07
-1.0390786e-07
1.422801e-07
-1.027456e-07
1.402644e-07
-1.0157647e-07
1.3828923e-07
-1.0040155e-07
1.3635554e-07
-9.9221857e-08
-9.8038259e-08
2.4446636e-07
-1.2659646e-07
2.4176738e-07
-1.2663544e-07
2.390569e-07
-1.2663137e-07
2.3633673e-07
-1.2658456e-07
2.3360855e-07
-1.2649518e-07
2.3087404e-07
-1.2636341e-07
2.2813487e-07
-1.261895e-07
2.2539268e-07
-1.259737e-07
2.2264909e-07
-1.2571638e-07
2.1990568e-07
-1.2541793e-07
2.1716403e-07
-1.2507882e-07
2.1442564e-07
-1.2469957e-07
2.1169202e-07
-1.2428075e-07
2.0896463e-07
-1.2382303e-07
2.062449e-07
-1.2332709e-07
2.0353424e-07
-1.2279369e-07
2.00834e-07
-1.2222364e-07
1.9814554e-07
-1.2161783e-07
1.9547015e-07
-1.2097715e-07
1.9280912e-07
-1.2030258e-07
1.9016371e-07
-1.1959514e-07
1.8753514e-07
-1.1885589e-07
1.8492461e-07
-1.1808591e-07
1.8233331e-07
-1.1728636e-07
1.7976239e-07
-1.164584e-07
1.7721299e-07
-1.1560323e-07
1.7468624e-07
-1.1472207e-07
1.7218326e-07
-1.1381619e-07
1.6970512e-07
-1.1288684e-07
1.6725293e-07
-1.119353e-07
1.6482775e-07
-1.1096286e-07
1.6243065e-07
-1.0997082e-07
1.600627e-07
-1.0896045e-07
1.5772494e-07
-1.0793306e-07
1.5541843e-07
-1.0688991e-07
1.531442e-07
-1.0583227e-07
1.5090329e-07
-1.0476138e-07
1.4869671e-07
-1.0367847e-07
1.4652548e-07
-1.0258473e-07
1.443906e-07
-1.0148133e-07
1.4229307e-07
-1.0036941e-07
1.4023387e-07
-9.925008e-08
1.3821396e-07
-9.8124399e-08
1.3623427e-07
-9.6993399e-08
1.3429574e-07
-9.5858053e-08
-9.4719191e-08
2.4261031e-07
-1.2242454e-07
2.3989634e-07
-1.2245023e-07
2.3717201e-07
-1.2243486e-07
2.3443901e-07
-1.2237868e-07
2.31699e-07
-1.2228185e-07
2.2895361e-07
-1.2214455e-07
2.2620447e-07
-1.2196699e-07
2.2345315e-07
-1.2174943e-07
2.2070124e-07
-1.214922e-07
2.1795027e-07
-1.2119567e-07
2.1520176e-07
-1.208603e-07
2.1245717e-07
-1.2048656e-07
2.0971796e-07
-1.2007502e-07
2.0698555e-07
-1.1962629e-07
2.0426133e-07
-1.1914105e-07
2.0154665e-07
-1.1862001e-07
1.9884285e-07
-1.1806396e-07
1.9615122e-07
-1.1747372e-07
1.9347303e-07
-1.1685019e-07
1.9080953e-07
-1.161943e-07
1.8816193e-07
-1.1550701e-07
1.8553142e-07
-1.1478935e-07
1.8291917e-07
-1.1404239e-07
1.8032634e-07
-1.1326721e-07
1.7775403e-07
-1.1246494e-07
1.7520338e-07
-1.1163675e-07
1.7267546e-07
-1.1078382e-07
1.7017135e-07
-1.0990735e-07
1.6769214e-07
-1.0900857e-07
1.6523886e-07
-1.0808871e-07
1.6281257e-07
-1.0714901e-07
1.6041432e-07
-1.0619072e-07
1.5804513e-07
-1.0521509e-07
1.5570604e-07
-1.0422336e-07
1.5339806e-07
-1.0321676e-07
1.5112221e-07
-1.021965e-07
1.488795e-07
-1.0116378e-07
1.4667093e-07
-1.0011979e-07
1.4449749e-07
-9.9065668e-08
1.4236016e-07
-9.8002541e-08
1.4025991e-07
-9.6931499e-08
1.381977e-07
-9.5853602e-08
1.3617447e-07
-9.4769871e-08
1.3419113e-07
-9.3681288e-08
1.3224859e-07
-9.2588781e-08
-9.1493138e-08
2.4066722e-07
-1.1837679e-07
2.3794074e-07
-1.1838967e-07
2.3520496e-07
-1.1836339e-07
2.3246155e-07
-1.1829818e-07
2.297121e-07
-1.1819417e-07
2.2695821e-07
-1.1805152e-07
2.2420144e-07
-1.1787043e-07
2.2144333e-07
-1.1765115e-07
2.186854e-07
-1.1739398e-07
2.1592915e-07
-1.1709929e-07
2.1317603e-07
-1.1676748e-07
2.1042747e-07
-1.1639903e-07
2.0768489e-07
-1.1599447e-07
2.0494965e-07
-1.1555438e-07
2.0222309e-07
-1.1507941e-07
1.9950654e-07
-1.1457024e-07
1.9680127e-07
-1.1402763e-07
1.9410855e-07
-1.1345238e-07
1.9142962e-07
-1.1284534e-07
1.8876566e-07
-1.122074e-07
1.8611787e-07
-1.115395e-07
1.8348739e-07
-1.1084263e-07
1.8087537e-07
-1.101178e-07
1.7828291e-07
-1.0936608e-07
1.7571111e-07
-1.0858855e-07
1.7316105e-07
-1.0778634e-07
1.7063379e-07
-1.0696059e-07
1.6813037e-07
-1.0611245e-07
1.6565185e-07
-1.0524312e-07
1.6319923e-07
-1.0435378e-07
1.6077356e-07
-1.0344564e-07
1.5837583e-07
-1.025199e-07
1.5600707e-07
-1.0157776e-07
1.5366826e-07
-1.0062042e-07
1.5136042e-07
-9.9649063e-08
1.4908452e-07
-9.8664866e-08
1.4684156e-07
-9.7668983e-08
1.4463251e-07
-9.6662547e-08
1.4245833e-07
-9.5646663e-08
1.4032e-07
-9.4622411e-08
1.3821844e-07
-9.3590837e-08
1.361546e-07
-9.2552954e-08
1.3412941e-07
-9.1509739e-08
1.3214374e-07
-9.0462129e-08
1.3019849e-07
-8.9411008e-08
-8.8357125e-08
2.3860821e-07
-1.1444641e-07
2.3587216e-07
-1.1444706e-07
2.3312786e-07
-1.1441036e-07
2.3037693e-07
-1.1433653e-07
2.2762091e-07
-1.1422568e-07
2.2486136e-07
-1.1407796e-07
2.2209977e-07
-1.1389355e-07
2.1933766e-07
-1.1367269e-07
2.1657648e-07
-1.1341566e-07
2.1381767e-07
-1.1312279e-07
2.1106265e-07
-1.1279449e-07
2.083128e-07
-1.1243119e-07
2.0556948e-07
-1.1203341e-07
2.0283401e-07
-1.1160169e-07
2.001077e-07
-1.1113666e-07
1.9739182e-07
-1.1063898e-07
1.9468761e-07
-1.1010937e-07
1.919963e-07
-1.095486e-07
1.8931907e-07
-1.0895748e-07
1.8665709e-07
-1.0833687e-07
1.840115e-07
-1.0768769e-07
1.8138342e-07
-1.0701087e-07
1.7877396e-07
-1.0630742e-07
1.7618418e-07
-1.0557834e-07
1.7361516e-07
-1.0482468e-07
1.7106794e-07
-1.0404754e-07
1.6854355e-07
-1.0324801e-07
1.66043e-07
-1.0242722e-07
1.6356731e-07
-1.0158631e-07
1.6111748e-07
-1.0072643e-07
1.5869451e-07
-9.9848744e-08
1.5629937e-07
-9.8954412e-08
1.5393305e-07
-9.8044596e-08
1.5159652e-07
-9.7120452e-08
1.4929077e-07
-9.6183126e-08
1.4701675e-07
-9.5233747e-08
1.4477543e-07
-9.427343e-08
1.4256776e-07
-9.3303262e-08
1.4039467e-07
-9.2324309e-08
1.3825712e-07
-9.1337606e-08
1.3615601e-07
-9.0344157e-08
1.3409228e-07
-8.9344932e-08
1.320668e-07
-8.8340863e-08
1.3008047e-07
-8.7332844e-08
1.2813412e-07
-8.6321716e-08
-8.5308188e-08
2.3641361e-07
-1.1062692e-07
2.3367128e-07
-1.1061597e-07
2.3092173e-07
-1.1056942e-07
2.2816651e-07
-1.1048746e-07
2.2540713e-07
-1.1037021e-07
2.2264507e-07
-1.1021778e-07
2.1988181e-07
-1.1003035e-07
2.1711879e-07
-1.0980813e-07
2.1435741e-07
-1.0955138e-07
2.1159909e-07
-1.0926043e-07
2.0884516e-07
-1.0893564e-07
2.0609698e-07
-1.0857745e-07
2.0335586e-07
-1.0818632e-07
2.0062307e-07
-1.077628e-07
1.9789987e-07
-1.0730748e-07
1.9518749e-07
-1.0682098e-07
1.9248714e-07
-1.06304e-07
1.8979999e-07
-1.0575728e-07
1.871272e-07
-1.0518161e-07
1.8446989e-07
-1.0457781e-07
1.8182918e-07
-1.0394676e-07
1.7920613e-07
-1.0328937e-07
1.7660183e-07
-1.026066e-07
1.740173e-07
-1.0189942e-07
1.7145359e-07
-1.0116886e-07
1.6891171e-07
-1.0041596e-07
1.6639265e-07
-9.9641794e-08
1.6389741e-07
-9.884744e-08
1.6142697e-07
-9.8034003e-08
1.5898229e-07
-9.7202598e-08
1.5656435e-07
-9.6354346e-08
1.541741e-07
-9.5490372e-08
1.518125e-07
-9.4611797e-08
1.494805e-07
-9.3719736e-08
1.4717904e-07
-9.2815296e-08
1.4490907e-07
-9.1899567e-08
1.4267152e-07
-9.097362e-08
1.4046733e-07
-9.0038504e-08
1.382974e-07
-8.9095244e-08
1.3616266e-07
-8.8144833e-08
1.3406401e-07
-8.7188232e-08
1.3200234e-07
-8.6226371e-08
1.2997852e-07
-8.526014e-08
1.279934e-07
-8.429039e-08
1.2604783e-07
-8.3317921e-08
-8.2343405e-08
2.3407144e-07
-1.0691222e-07
2.3132634e-07
-1.0689036e-07
2.2857499e-07
-1.0683458e-07
2.2581891e-07
-1.0674506e-07
2.2305956e-07
-1.066219e-07
2.2029836e-07
-1.064652e-07
2.1753675e-07
-1.0627511e-07
2.1477611e-07
-1.0605182e-07
2.120178e-07
-1.0579558e-07
2.0926317e-07
-1.055067e-07
2.0651352e-07
-1.0518552e-07
2.0377015e-07
-1.0483245e-07
2.0103433e-07
-1.0444794e-07
1.9830728e-07
-1.0403252e-07
1.9559023e-07
-1.0358673e-07
1.9288436e-07
-1.0311119e-07
1.9019083e-07
-1.0260656e-07
1.8751078e-07
-1.0207355e-07
1.8484532e-07
-1.0151293e-07
1.8219554e-07
-1.0092548e-07
1.7956252e-07
-1.0031206e-07
1.769473e-07
-9.9673538e-08
1.7435091e-07
-9.9010842e-08
1.7177436e-07
-9.832492e-08
1.6921866e-07
-9.7616756e-08
1.6668477e-07
-9.6887359e-08
1.6417368e-07
-9.613776e-08
1.6168633e-07
-9.5369013e-08
1.5922369e-07
-9.4582182e-08
1.567867e-07
-9.3778345e-08
1.5437628e-07
-9.2958587e-08
1.5199338e-07
-9.2123994e-08
1.4963892e-07
-9.1275649e-08
1.4731383e-07
-9.0414631e-08
1.4501903e-07
-8.9542007e-08
1.4275543e-07
-8.8658828e-08
1.4052395e-07
-8.7766128e-08
1.3832549e-07
-8.6864916e-08
1.3616094e-07
-8.5956177e-08
1.340312e-07
-8.5040864e-08
1.3193715e-07
-8.41199e-08
1.2987966e-07
-8.3194172e-08
1.2785957e-07
-8.2264532e-08
1.2587772e-07
-8.1331789e-08
1.2393492e-07
-8.0396702e-08
-7.945991e-08
2.3157594e-07
-1.0329665e-07
2.2883166e-07
-1.0326458e-07
2.2608208e-07
-1.0320025e-07
2.2332867e-07
-1.0310381e-07
2.2057284e-07
-1.029753e-07
2.1781598e-07
-1.0281481e-07
2.1505944e-07
-1.0262247e-07
2.1230456e-07
-1.0239846e-07
2.0955265e-07
-1.0214301e-07
2.0680501e-07
-1.0185641e-07
2.0406291e-07
-1.0153899e-07
2.0132758e-07
-1.0119113e-07
1.9860024e-07
-1.0081326e-07
1.9588209e-07
-1.0040589e-07
1.9317429e-07
-9.9969534e-08
1.90478e-07
-9.9504792e-08
1.8779433e-07
-9.9012298e-08
1.8512438e-07
-9.8492735e-08
1.8246922e-07
-9.7946831e-08
1.7982991e-07
-9.7375357e-08
1.7720748e-07
-9.6779127e-08
1.7460295e-07
-9.6158993e-08
1.7201731e-07
-9.551584e-08
1.6945153e-07
-9.4850591e-08
1.6690659e-07
-9.4164195e-08
1.6438343e-07
-9.3457627e-08
1.61883e-07
-9.2731886e-08
1.5940621e-07
-9.1987989e-08
1.5695401e-07
-9.1226968e-08
1.5452729e-07
-9.0449866e-08
1.5212697e-07
-8.965773e-08
1.4975395e-07
-8.8851611e-08
1.4740913e-07
-8.8032557e-08
1.4509342e-07
-8.720161e-08
1.4280771e-07
-8.63598e-08
1.4055289e-07
-8.5508141e-08
1.3832984e-07
-8.4647629e-08
1.3613945e-07
-8.3779236e-08
1.3398258e-07
-8.290391e-08
1.3186011e-07
-8.2022565e-08
1.2977289e-07
-8.1136086e-08
1.2772177e-07
-8.0245321e-08
1.2570758e-07
-7.9351083e-08
1.2373112e-07
-7.8454142e-08
1.217932e-07
-7.7555218e-08
-7.6654915e-08
2.2892636e-07
-9.9774912e-08
2.2618646e-07
-9.9733387e-08
2.2344224e-07
-9.9661287e-08
2.2069508e-07
-9.9558588e-08
2.179463e-07
-9.9425323e-08
2.1519724e-07
-9.9261565e-08
2.1244921e-07
-9.9067433e-08
2.0970348e-07
-9.8843095e-08
2.0696133e-07
-9.8588764e-08
2.04224e-07
-9.8304706e-08
2.014927e-07
-9.7991237e-08
1.9876864e-07
-9.7648722e-08
1.9605298e-07
-9.7277576e-08
1.9334687e-07
-9.6878266e-08
1.9065145e-07
-9.6451306e-08
1.8796781e-07
-9.5997262e-08
1.8529704e-07
-9.5516743e-08
1.8264019e-07
-9.5010407e-08
1.799983e-07
-9.4478957e-08
1.773724e-07
-9.3923137e-08
1.7476346e-07
-9.334373e-08
1.7217248e-07
-9.2741559e-08
1.6960042e-07
-9.2117483e-08
1.6704822e-07
-9.147239e-08
1.6451681e-07
-9.0807199e-08
1.6200711e-07
-9.0122854e-08
1.5952004e-07
-8.9420321e-08
1.5705649e-07
-8.8700585e-08
1.5461736e-07
-8.7964644e-08
1.5220353e-07
-8.7213506e-08
1.4981588e-07
-8.6448187e-08
1.4745529e-07
-8.5669701e-08
1.4512263e-07
-8.4879063e-08
1.4281878e-07
-8.4077278e-08
1.4054461e-07
-8.3265342e-08
1.3830097e-07
-8.2444234e-08
1.3608875e-07
-8.1614914e-08
1.3390877e-07
-8.0778318e-08
1.3176191e-07
-7.9935357e-08
1.29649e-07
-7.9086908e-08
1.2757087e-07
-7.823382e-08
1.2552835e-07
-7.7376904e-08
1.2352224e-07
-7.6516935e-08
1.2155334e-07
-7.5654645e-08
1.1962242e-07
-7.4790717e-08
-7.3925723e-08
2.2885245e-07
-9.6363006e-08
2.261255e-07
-9.6342192e-08
2.2339376e-07
-9.6292176e-08
2.2065855e-07
-9.6213028e-08
2.1792117e-07
-9.610474e-08
2.1518294e-07
-9.5967327e-08
2.1244512e-07
-9.5800848e-08
2.0970897e-07
-9.5605408e-08
2.0697574e-07
-9.5381159e-08
2.0424664e-07
-9.5128301e-08
2.0152287e-07
-9.4847083e-08
1.988056e-07
-9.4537803e-08
1.9609597e-07
-9.4200808e-08
1.9339512e-07
-9.3836495e-08
1.9070416e-07
-9.3445309e-08
1.8802416e-07
-9.3027743e-08
1.853562e-07
-9.258434e-08
1.8270131e-07
-9.2115686e-08
1.8006052e-07
-9.1622415e-08
1.7743482e-07
-9.1105203e-08
1.7482519e-07
-9.0564768e-08
1.722326e-07
-9.0001867e-08
1.6965799e-07
-8.9417294e-08
1.6710229e-07
-8.881188e-08
1.6456641e-07
-8.8186483e-08
1.6205125e-07
-8.7541992e-08
1.5955771e-07
-8.6879322e-08
1.5708666e-07
-8.6199406e-08
1.5463897e-07
-8.5503199e-08
1.5221551e-07
-8.4791666e-08
1.4981712e-07
-8.4065784e-08
1.4744468e-07
-8.3326533e-08
1.4509902e-07
-8.2574899e-08
1.42781e-07
-8.1811859e-08
1.4049146e-07
-8.1038388e-08
1.3823125e-07
-8.0255445e-08
1.3600119e-07
-7.9463977e-08
1.3380214e-07
-7.8664909e-08
1.3163492e-07
-7.7859143e-08
1.2950035e-07
-7.7047553e-08
1.2739926e-07
-7.6230984e-08
1.2533246e-07
-7.5410247e-08
1.2330074e-07
-7.4586119e-08
1.213049e-07
-7.3759336e-08
1.193457e-07
-7.2930598e-08
1.1742389e-07
-7.2100551e-08
-7.1269733e-08
2.2589606e-07
-9.3024254e-08
2.2317995e-07
-9.2994338e-08
2.2045986e-07
-9.2936621e-08
2.177371e-07
-9.2851174e-08
2.1501293e-07
-9.2737982e-08
2.122886e-07
-9.2597046e-08
2.0956535e-07
-9.2428408e-08
2.0684438e-07
-9.2232161e-08
2.0412688e-07
-9.2008442e-08
2.0141403e-07
-9.1757437e-08
1.9870697e-07
-9.1479379e-08
1.9600683e-07
-9.117455e-08
1.9331471e-07
-9.084328e-08
1.9063171e-07
-9.0485947e-08
1.8795888e-07
-9.0102976e-08
1.8529727e-07
-8.969484e-08
1.826479e-07
-8.926206e-08
1.8001179e-07
-8.8805201e-08
1.773899e-07
-8.8324871e-08
1.747832e-07
-8.7821723e-08
1.7219264e-07
-8.729645e-08
1.6961914e-07
-8.6749782e-08
1.6706362e-07
-8.6182488e-08
1.6452697e-07
-8.5595369e-08
1.6201007e-07
-8.4989257e-08
1.595138e-07
-8.4365012e-08
1.5703901e-07
-8.3723518e-08
1.5458655e-07
-8.306568e-08
1.5215726e-07
-8.2392421e-08
1.4975198e-07
-8.1704677e-08
1.4737154e-07
-8.1003392e-08
1.4501676e-07
-8.0289517e-08
1.4268847e-07
-7.9564004e-08
1.4038748e-07
-7.8827799e-08
1.3811462e-07
-7.8081844e-08
1.3587071e-07
-7.7327067e-08
1.3365655e-07
-7.656438e-08
1.3147297e-07
-7.5794677e-08
1.2932076e-07
-7.5018824e-08
1.2720073e-07
-7.4237665e-08
1.2511367e-07
-7.3452009e-08
1.2306037e-07
-7.2662633e-08
1.2104161e-07
-7.187028e-08
1.1905815e-07
-7.1075653e-08
1.1711074e-07
-7.0279414e-08
1.1520011e-07
-6.9482178e-08
-6.8684453e-08
2.2280025e-07
-8.9765565e-08
2.2009829e-07
-8.9727391e-08
2.1739319e-07
-8.9662795e-08
2.1468618e-07
-8.9571817e-08
2.1197848e-07
-8.9454421e-08
2.0927129e-07
-8.9310595e-08
2.0656579e-07
-8.914037e-08
2.0386313e-07
-8.8943827e-08
2.0116447e-07
-8.8721091e-08
1.9847092e-07
-8.8472333e-08
1.9578358e-07
-8.8197773e-08
1.9310355e-07
-8.7897676e-08
1.9043187e-07
-8.7572355e-08
1.8776961e-07
-8.7222171e-08
1.8511777e-07
-8.6847531e-08
1.8247737e-07
-8.6448888e-08
1.7984939e-07
-8.6026742e-08
1.7723479e-07
-8.5581636e-08
1.7463453e-07
-8.5114157e-08
1.7204952e-07
-8.4624934e-08
1.6948068e-07
-8.4114635e-08
1.669289e-07
-8.3583966e-08
1.6439507e-07
-8.3033669e-08
1.6188003e-07
-8.246452e-08
1.5938466e-07
-8.1877322e-08
1.5690977e-07
-8.1272909e-08
1.5445622e-07
-8.0652137e-08
1.520248e-07
-8.0015881e-08
1.4961634e-07
-7.9365035e-08
1.4723165e-07
-7.8700506e-08
1.4487152e-07
-7.8023208e-08
1.4253675e-07
-7.7334061e-08
1.4022814e-07
-7.6633986e-08
1.3794649e-07
-7.5923899e-08
1.3569259e-07
-7.5204712e-08
1.3346722e-07
-7.4477319e-08
1.3127119e-07
-7.3742603e-08
1.2910527e-07
-7.3001423e-08
1.2697024e-07
-7.2254617e-08
1.2486689e-07
-7.1502994e-08
1.2279597e-07
-7.074733e-08
1.2075827e-07
-6.9988372e-08
1.1875453e-07
-6.9226828e-08
1.167855e-07
-6.8463368e-08
1.148519e-07
-6.7698623e-08
1.1295444e-07
-6.6933173e-08
-6.6167499e-08
2.1957525e-07
-8.6583412e-08
2.1689064e-07
-8.6537818e-08
2.1420371e-07
-8.6467193e-08
2.1151562e-07
-8.6371452e-08
2.088275e-07
-8.6250547e-08
2.0614051e-07
-8.6104462e-08
2.0345578e-07
-8.5933221e-08
2.0077442e-07
-8.5736895e-08
1.9809752e-07
-8.5515597e-08
1.9542616e-07
-8.5269486e-08
1.9276139e-07
-8.4998767e-08
1.9010427e-07
-8.4703692e-08
1.8745582e-07
-8.4384557e-08
1.8481702e-07
-8.4041707e-08
1.8218888e-07
-8.367553e-08
1.7957235e-07
-8.3286462e-08
1.7696838e-07
-8.2874981e-08
1.743779e-07
-8.2441611e-08
1.7180183e-07
-8.1986917e-08
1.6924104e-07
-8.1511505e-08
1.6669643e-07
-8.101602e-08
1.6416885e-07
-8.0501144e-08
1.6165914e-07
-7.9967595e-08
1.5916814e-07
-7.9416122e-08
1.5669668e-07
-7.8847504e-08
1.5424555e-07
-7.8262546e-08
1.5181556e-07
-7.7662076e-08
1.4940751e-07
-7.7046945e-08
1.4702217e-07
-7.6418016e-08
1.4466032e-07
-7.5776167e-08
1.4232275e-07
-7.5122285e-08
1.4001021e-07
-7.4457259e-08
1.3772349e-07
-7.3781982e-08
1.3546334e-07
-7.309734e-08
1.3323054e-07
-7.2404212e-08
1.3102585e-07
-7.1703466e-08
1.2885004e-07
-7.0995952e-08
1.2670386e-07
-7.0282499e-08
1.2458807e-07
-6.9563914e-08
1.2250343e-07
-6.8840975e-08
1.2045068e-07
-6.8114427e-08
1.1843057e-07
-6.7384985e-08
1.1644382e-07
-6.6653326e-08
1.1449115e-07
-6.5920088e-08
1.1257328e-07
-6.518587e-08
1.1069088e-07
-6.4451223e-08
-6.3716599e-08
2.1889354e-07
-8.3502953e-08
2.1623224e-07
-8.3474687e-08
2.1356819e-07
-8.3422621e-08
2.1090251e-07
-8.3346736e-08
2.0823632e-07
-8.3246952e-08
2.0557072e-07
-8.3123208e-08
2.0290682e-07
-8.2975479e-08
2.0024569e-07
-8.2803784e-08
1.9758841e-07
-8.260818e-08
1.9493602e-07
-8.2388771e-08
1.9228955e-07
-8.2145704e-08
1.8965004e-07
-8.1879172e-08
1.8701846e-07
-8.1589411e-08
1.8439581e-07
-8.1276704e-08
1.8178304e-07
-8.0941379e-08
1.7918111e-07
-8.0583807e-08
1.7659094e-07
-8.0204407e-08
1.7401344e-07
-7.9803637e-08
1.714495e-07
-7.9382001e-08
1.6890001e-07
-7.8940043e-08
1.6636581e-07
-7.8478349e-08
1.6384776e-07
-7.799754e-08
1.6134668e-07