/*--------------------------------*- C++ -*----------------------------------*\
| =========                 |                                                 |
| \\      /  F ield         | OpenFOAM: The Open Source CFD Toolbox           |
|  \\    /   O peration     | Version:  2312                                  |
|   \\  /    A nd           | Website:  www.openfoam.com                      |
|    \\/     M anipulation  |                                                 |
\*---------------------------------------------------------------------------*/
FoamFile
{
    version     2.0;
    format      ascii;
    arch        "LSB;label=32;scalar=64";
    class       volScalarField;
    location    "0.1";
    object      Qdot;
}
// * * * * * * * * * * * * * * * * * * * * * * * * * * * * * * * * * * * * * //

dimensions      [1 -1 -3 0 0 0 0];

internalField   nonuniform List<scalar> 
3250
(
203.45461
186.85225
171.15249
156.35964
142.47747
129.50193
117.42078
106.21446
95.85712
86.317748
77.561201
69.549171
62.241088
55.594991
49.568195
44.117995
39.202166
34.779441
30.8099
27.255245
24.079019
21.246802
18.726264
16.487253
14.501788
12.744042
11.190297
9.8188495
8.6099285
7.5456004
6.6096444
5.7874542
5.0658929
4.433201
3.8788749
3.3935482
2.9688983
2.5975434
2.2729472
1.9893367
1.7416156
1.5253023
1.3364572
1.1716305
210.23179
192.97923
176.67347
161.31933
146.91997
133.47006
120.95561
109.35504
98.640337
88.778199
79.731127
71.458461
63.917321
57.063457
50.852005
45.238146
40.177683
35.627465
31.545827
27.89285
24.630596
21.723256
19.137266
16.841342
14.806482
13.00595
11.415193
10.011783
8.7753084
7.687249
6.7308912
5.8911737
5.1545746
4.5089933
3.9436244
3.4488518
3.0161262
2.6378624
2.3073696
2.0187113
1.7666733
1.5466676
1.3546512
1.1871464
223.40328
204.87134
187.37982
170.93049
155.52369
141.15078
127.79402
115.42769
104.01935
93.531118
83.920872
75.143286
67.1509
59.895
53.326412
47.396211
42.056303
37.259894
32.961901
29.119247
25.691094
22.63897
19.926888
17.52137
15.39143
13.50856
11.846618
10.381765
9.0923324
7.9586926
6.9631495
6.0897877
5.3243349
4.6540297
4.0674959
3.5546173
3.1064147
2.714933
2.3731507
2.0748576
1.8146008
1.5875851
1.3895957
1.2170067
243.07829
222.61698
203.34011
185.24444
168.32545
152.56898
137.95119
124.43976
111.99534
100.57297
90.123302
80.593903
71.930279
64.076914
56.978086
50.578647
44.824604
39.663651
35.045576
30.922552
27.249372
23.983578
21.085558
18.518555
16.248629
14.244626
12.478035
10.922915
9.5557339
8.355224
7.3022421
6.37959
5.5718903
4.8654105
4.2479317
3.7086012
3.2377965
2.8270264
2.4687741
2.1564449
1.8842225
1.6470048
1.4403296
1.2603439
269.71413
246.61041
224.89256
204.54986
185.5704
167.9318
151.60123
136.53686
122.68944
110.00388
98.420727
87.877503
78.309933
69.653025
61.84199
54.813065
48.504144
42.855363
37.809466
33.312128
29.312203
25.761808
22.6164
19.834776
17.379008
15.214352
13.309127
11.634547
10.164584
8.8757542
7.7469765
6.7593537
5.8960235
5.1419526
4.4837938
3.9097194
3.4092692
2.9732057
2.5933987
2.2627007
1.9748279
1.7242831
1.5062681
1.3166334
304.05347
277.49696
252.5958
229.3285
207.67235
187.59328
169.04591
151.97518
136.31826
122.00633
108.96623
97.122022
86.396332
76.711563
67.990906
60.159242
53.143801
46.874777
41.285717
36.313854
31.900284
27.99009
24.532365
21.480164
18.790403
16.423748
14.344425
12.520026
10.921313
9.5220011
8.2985178
7.2298156
6.2971353
5.483813
4.7750672
4.1578426
3.6206004
3.1531945
2.7466951
2.3932771
2.0860738
1.8190878
1.5870906
1.3855645
347.07878
316.13217
287.19196
260.22162
235.18337
212.02701
190.69
171.09949
153.17447
136.82786
121.96847
108.50271
96.336144
85.374836
75.526484
66.701335
58.812979
51.778923
45.521019
39.965768
35.044487
30.693382
26.853525
23.470772
20.495599
17.882922
15.591877
13.585546
11.830723
10.297628
8.9596378
7.7930367
6.7767444
5.892074
5.1224957
4.4534435
3.8720827
3.3671319
2.9287055
2.5481391
2.2178711
1.931284
1.6826341
1.4669748
399.97596
363.55133
329.57894
298.00459
268.77059
241.80501
217.02238
194.3262
173.61156
154.76759
137.6797
122.23159
108.30701
95.791193
84.572159
74.541719
65.596301
57.637508
50.572586
44.314677
38.782955
33.902637
29.604912
25.826756
22.510743
19.604762
17.06171
14.839186
12.899142
11.207572
9.7341555
8.4519432
7.3370611
6.3683851
5.5272966
4.7974074
4.1643224
3.6154255
3.1396765
2.7274276
2.3702604
2.060856
1.7928465
1.5607713
464.09586
420.94325
380.78589
343.56377
309.19491
277.5785
248.59866
222.12788
198.03018
176.16408
156.38512
138.54816
122.50935
108.1278
95.26694
83.795621
73.588943
64.528889
56.504708
49.413149
43.158522
37.65264
32.814648
28.570783
24.854038
21.603803
18.765487
16.290089
14.133771
12.257468
10.62644
9.2099071
7.9806529
6.9146911
5.9909168
5.1907865
4.4980807
3.8986027
3.379954
2.9313405
2.5433608
2.2078414
1.9177135
1.6669005
655.32217
596.22663
541.03414
489.63397
441.94553
397.87049
357.28802
320.0577
286.02348
255.01761
226.86437
201.38333
178.39234
157.71009
139.15835
122.5638
107.75945
94.585926
82.892197
72.536277
63.385518
55.316772
48.216382
41.979992
36.51229
31.726602
27.544484
23.8952
20.715229
17.947748
15.542064
13.453128
11.640996
10.070383
8.7101618
7.5329787
6.5148171
5.6346565
4.8741217
4.2171896
3.6498943
3.1601017
2.737278
2.3722814
2.0572161
1.7853172
769.32054
698.41592
632.35021
571.00291
514.2519
461.9504
413.92701
369.98988
329.93131
293.53236
260.56704
230.8061
204.0204
179.98386
158.47585
139.28321
122.20188
107.03806
93.609091
81.744011
71.283801
62.081452
54.001809
46.92123
40.727184
35.317712
30.6008
26.493789
22.922645
19.821349
17.131178
14.80009
12.782083
11.036614
9.5280283
8.2250569
7.100337
6.129962
5.2930964
4.5716145
3.9497532
3.4138514
2.9520634
2.55416
2.211297
1.9159287
903.91223
818.79202
739.70745
666.48177
598.93396
536.85456
480.00752
428.13553
380.96569
338.21481
299.59427
264.81438
233.58821
205.63478
180.6818
158.46781
138.74387
121.27481
105.84
92.233835
80.265897
69.760819
60.557972
52.510949
45.48695
39.366033
34.040328
29.413197
25.398378
21.919148
18.907471
16.303211
14.053365
12.111334
10.436247
8.9923646
7.7484709
6.6773748
5.7554382
4.9621215
4.2796377
3.6925909
3.1876625
2.7533682
2.3798168
2.0585712
1061.3261
959.30187
864.77964
777.50408
697.21594
623.62519
556.4138
495.24233
439.7566
389.59391
344.38865
303.77723
267.40236
234.91666
205.98555
180.28961
157.52628
137.41104
119.67822
104.08124
90.392615
78.403639
67.923802
58.780074
50.816009
43.890756
37.878028
32.665024
28.15134
24.24793
20.876051
17.966286
15.457612
13.296517
11.436199
9.8358141
8.4597878
7.2772118
6.2612595
5.3887025
4.6394442
3.9961535
3.4438543
2.9696747
2.5625358
2.2130116
1243.7652
1121.8397
1009.188
905.45238
810.273
723.25781
643.9863
572.01728
506.89665
448.16459
395.36199
348.03598
305.74472
268.06133
234.57704
204.90358
178.67496
155.54857
135.20574
117.35191
101.71631
88.0514
76.131989
65.754197
56.734255
48.907215
42.125612
36.258105
31.18812
26.812526
23.040382
19.791724
16.996439
14.593184
12.528448
10.755644
9.2342987
7.9293057
6.810299
5.8510131
5.0288049
4.3241552
3.7202654
3.2027072
2.7590963
2.3789184
1453.2988
1308.1743
1174.4388
1051.6047
939.18534
836.66206
743.48817
659.0982
582.91683
514.36717
452.87791
397.88967
348.86013
305.26838
266.61817
232.44043
202.29493
175.77124
152.48911
132.09833
114.27809
98.736058
85.207148
73.452077
63.255809
54.425882
46.790709
40.197865
34.512438
29.615365
25.40194
21.780299
18.67009
16.001211
13.712626
11.751325
10.071367
8.6329895
7.4018591
6.3483806
5.4470516
4.6759684
4.016308
3.4519266
2.969013
2.555844
1691.7727
1519.8769
1361.8619
1217.0813
1084.8927
964.62289
855.57232
757.02581
668.263
588.56753
517.23527
453.58113
396.94487
346.69552
302.23491
263.00009
228.46484
198.14048
171.57588
148.35691
128.10548
110.4781
95.164225
81.884359
70.388001
60.451557
51.876204
44.485788
38.124757
32.656194
27.959951
23.930901
20.477282
17.51921
14.987315
12.821466
10.969657
9.3869918
8.0347748
6.8797184
5.8932118
5.0507172
4.3311885
3.7166289
3.1916564
2.743238
1960.722
1758.2535
1572.5533
1402.7951
1248.1516
1107.7642
980.75056
866.21785
763.27412
671.03909
588.65307
515.28455
450.1363
392.45011
341.51027
296.64594
257.23241
222.69156
192.49148
166.14542
143.21034
123.28489
106.00723
91.052572
78.130572
66.982739
57.37978
49.119027
42.021959
35.931775
30.711223
26.240444
22.415077
19.144453
16.350006
13.963775
11.927102
10.189461
8.7073879
7.4435634
6.3659862
5.4472509
4.6639071
3.9959365
3.426256
2.9404143
2261.2995
2024.2922
1807.3248
1609.4071
1429.4971
1266.5162
1119.3667
986.9465
868.16362
761.94722
667.25772
583.09491
508.50431
442.58213
384.47863
333.40026
288.61066
249.43055
215.23687
185.46118
159.58746
137.14957
117.72833
100.9484
86.475113
74.011186
63.293534
54.090165
46.19715
39.435807
33.650017
28.70377
24.478869
20.872845
17.797069
15.175049
12.940893
11.037941
9.4175596
8.0380571
6.8637601
5.8641709
5.0132498
4.2887975
3.6719102
3.1466138
2895.5597
2594.5011
2318.6365
2066.6569
1837.2855
1629.2096
1441.0893
1271.5743
1119.3205
983.00462
861.33731
753.0733
657.02016
572.04495
497.07911
431.12166
373.24101
322.57543
278.33238
239.78702
206.27979
177.21359
152.05033
130.3073
111.55333
95.404801
81.521729
69.603896
59.387113
50.63965
43.158862
36.768074
31.313653
26.662357
22.698897
19.323761
16.451196
14.007498
11.929396
10.162671
8.6609477
7.3846094
6.299833
5.3778141
4.5940154
3.9275925
3.3609496
3309.2931
2960.4291
2641.4275
2350.6433
2086.4734
1847.2912
1631.4543
1437.3218
1263.2725
1107.72
969.12682
846.01519
736.97621
640.67655
555.86313
481.3661
416.10008
359.06404
309.3399
266.09018
228.55476
196.04717
167.95021
143.71147
122.83858
104.89439
89.492314
76.291661
64.993203
55.335016
47.088485
40.054658
34.060862
28.957629
24.615856
20.924291
17.787283
15.122708
12.86023
10.939674
9.3096504
7.9263285
6.7523721
5.7560127
4.9102471
4.1921637
3.5824637
3760.2264
3358.7843
2992.3682
2658.9868
2356.6755
2083.4527
1837.3322
1616.3439
1418.5533
1242.0778
1085.1018
945.88767
822.78528
714.23859
618.79011
535.08329
461.86316
397.97538
342.36403
294.06817
252.21773
216.02862
184.79746
157.896
134.7654
114.91051
97.894269
83.332222
70.88739
60.265275
51.209341
43.496715
36.934319
31.355275
26.61573
22.591919
19.177584
16.281696
13.82638
11.745139
9.9812682
8.486484
7.2197231
6.14611
5.2360276
4.4644004
3.8101145
4247.5167
3788.7867
3370.7204
2990.9983
2647.2561
2337.1119
2058.1934
1808.1614
1584.7315
1385.6919
1208.918
1052.3852
914.17722
792.49319
685.65132
592.09069
510.37112
439.17119
377.28495
323.61748
277.17947
237.08124
202.52631
172.80462
147.28576
125.41222
106.69274
90.696014
77.044587
65.409204
55.503497
47.079121
39.921247
33.844552
28.689485
24.319029
20.615728
17.479105
14.823347
12.575287
10.672635
9.0624232
7.6996793
6.5462488
5.5698002
4.7429883
4.0428068
5340.8472
4770.0599
4249.1789
3775.3
3345.6006
2957.2452
2607.4009
2293.2645
2012.0881
1761.2007
1538.0278
1340.1065
1165.0974
1010.7942
875.12921
756.177
652.1551
561.4229
482.47853
413.95434
354.61115
303.33157
259.11266
221.0582
188.37064
160.34316
136.35173
115.84741
98.349026
83.436181
70.742737
59.950749
50.784911
43.007457
36.413564
30.827177
26.097318
22.094767
18.70914
15.846296
13.426094
11.380391
9.6513439
8.1898884
6.9544778
5.9099392
5.02657
4.2794093
5970.4777
5325.6158
4738.107
4204.4735
3721.3428
3285.3562
2893.1822
2541.5437
2227.2442
1947.1909
1698.414
1478.0828
1283.5175
1112.1979
961.76856
830.04189
714.99742
614.77959
527.69337
452.19832
386.90135
330.5486
282.01667
240.30335
204.51832
173.8738
147.6754
125.31322
106.25349
90.03054
76.239417
64.528988
54.59565
46.177569
39.049504
33.018141
27.917912
23.607324
19.965662
16.890131
14.29332
12.101024
10.250321
8.6879355
7.3687762
6.2547684
5.3137543
4.5187559
6635.1518
5911.5698
5253.271
4656.2121
4116.4358
3630.0149
3193.0748
2801.8229
2452.5764
2141.786
1866.0562
1622.1605
1407.0535
1217.8791
1051.9745
906.87235
780.2987
670.16957
574.58494
491.82124
420.32254
358.6908
305.67545
260.16265
221.16443
187.80791
159.32481
135.04135
114.36863
96.793664
81.870931
69.214664
58.491758
49.415323
41.738884
35.251187
29.771546
25.145728
21.242327
17.949596
15.172619
12.830932
10.856384
9.1913473
7.7871191
6.6025985
5.6031359
4.7596953
7331.4651
6524.8963
5791.9836
5128.1446
4528.7962
3989.3972
3505.4864
3072.7162
2686.8817
2343.9451
2040.0559
1771.566
1535.0414
1327.2693
1145.2615
986.25454
847.70714
727.29446
622.9007
532.60982
454.69498
387.60695
329.96205
280.52972
238.21995
202.07111
171.23793
144.9801
122.65147
103.68985
87.607658
73.983225
62.452897
52.703885
44.467785
37.514822
31.648717
26.702134
22.532665
19.019352
16.059588
13.566489
11.466544
9.6976688
8.2074622
6.9517464
5.893334
5.0010677
9037.8425
8055.9193
7162.2136
6351.2221
5617.6105
4956.0955
4361.472
3828.6506
3352.6919
2928.8357
2552.5261
2219.4309
1925.4569
1666.7604
1439.7533
1241.1056
1067.7436
916.84578
785.83555
672.37178
574.33772
489.82847
417.13757
354.743
301.29301
255.59185
216.58592
183.35033
155.07601
131.05765
110.68235
93.419186
78.809528
66.458318
56.02614
47.222094
39.797419
33.539863
28.268665
23.830199
20.094076
16.949855
14.304088
12.077836
10.204463
8.6278111
7.3005794
6.1829864
5.2417537
9886.8108
8803.975
7819.7157
6927.6743
6121.7176
5395.8127
4744.0479
4160.668
3640.1079
3177.0227
2766.3115
2403.1371
2082.9399
1801.4483
1554.6825
1338.9562
1150.873
987.32041
845.46043
722.7185
616.7701
525.52626
447.1181
379.88092
322.33806
273.18489
231.27326
195.59642
165.27473
139.54223
117.73406
99.274908
83.668347
70.487238
59.365001
49.987765
42.087435
35.435497
29.837553
25.128538
21.168532
17.839123
15.040226
12.687378
10.709374
9.0462305
7.6475008
6.4707943
5.4806652
10757.929
9571.0031
8493.3748
7517.8314
6637.4107
5845.2929
5134.8233
4499.5481
3933.2478
3429.9664
2984.035
2590.0909
2243.0905
1938.3179
1671.3884
1438.2471
1235.1643
1058.7275
905.82962
773.65587
659.66822
561.58874
477.38201
405.23711
343.54956
290.90339
246.05382
207.91059
175.52208
148.06051
124.80814
105.14449
88.534743
74.519182
62.703646
52.751002
44.373572
37.326371
31.40121
26.421496
22.237657
18.72325
15.771512
13.292413
11.210132
9.4608794
7.9910223
6.7555294
5.7167793
11645.847
10352.257
9179.0345
8118.0703
7161.54
6301.8041
5531.4348
4843.2519
4230.3568
3686.1605
3204.407
2779.1912
2404.9707
2076.5727
1789.1958
1538.4073
1320.136
1130.6619
966.60296
824.8989
702.79384
597.81715
507.76378
430.67402
364.81338
308.65282
260.84946
220.22833
185.76485
156.56869
131.86856
110.99835
93.384459
78.534265
66.025801
55.498494
46.644935
39.203587
32.952384
27.703135
23.296607
19.598289
16.494719
13.890307
11.704616
9.8700248
8.3297359
7.0360841
5.9491894
12545.087
11142.926
9872.4889
8724.7286
7690.9259
6762.5935
5931.5051
5189.7319
4529.676
3944.098
3426.1398
2969.3405
2567.6473
2215.421
1907.4351
1638.8718
1405.3122
1202.724
1027.4455
876.16749
745.91319
634.01682
538.10161
456.05741
386.01839
326.34131
275.58437
232.48716
195.95167
165.02455
138.88069
116.80812
98.194256
82.51348
69.315941
58.217572
48.891194
41.058716
34.484199
28.967868
24.340829
20.460534
17.206841
14.478614
12.190822
10.272043
8.6623461
7.3114788
6.1774528
5.2250921
13450.169
11938.217
10569.559
9334.1729
8222.4188
7224.9384
6332.687
5536.9696
4829.4742
4202.2981
3647.9698
3159.4633
2730.2076
2354.0899
2025.4535
1739.0905
1490.2306
1274.5259
1088.0328
927.19078
788.80064
670.00016
568.23987
481.25841
407.05807
343.88098
290.18613
244.62755
206.03364
173.38801
145.81171
122.54694
102.94219
86.438929
72.559475
60.896337
51.102672
42.883891
35.990263
30.210496
25.366108
21.306562
17.905095
15.055072
12.666917
10.665447
8.9876242
7.5806359
6.4003235
5.4099644
14355.718
12733.442
11266.163
9942.8616
8752.9535
7686.193
6732.7025
5883.0091
5128.0764
4459.3301
3868.6781
3348.5239
2891.7736
2491.8374
2142.625
1838.5368
1574.4492
1345.6977
1148.0555
977.71098
831.24178
705.58921
598.03116
506.15516
427.83184
361.18899
304.58667
256.5936
215.96494
181.62157
152.63097
128.1898
107.60789
90.294007
75.742889
63.523812
53.270453
44.671874
37.464709
31.426265
26.36858
22.133249
18.586948
15.617634
13.131238
11.048873
9.3044472
7.8426255
6.6171463
5.5895292
15256.555
13524.09
11958.384
10547.4
9279.596
8143.8282
7129.3775
6225.9863
5423.8884
4713.834
4087.1078
3535.5405
3051.5142
2627.9615
2258.3587
1936.7142
1657.5519
1415.8913
1207.2237
1027.4866
873.03603
740.61775
627.338
530.63421
448.24627
378.18851
318.7229
268.33363
225.7033
189.69067
159.3103
133.71374
112.17268
94.063542
78.853868
66.090018
55.386439
46.416119
38.902233
32.610887
27.344797
22.937792
19.25014
16.16447
13.58231
11.421142
9.6118568
8.0966573
6.8272299
5.7633814
16147.772
14305.896
12642.522
11144.586
9799.5836
8595.4659
7520.6703
6564.1527
5715.4168
4964.5377
4302.1779
3719.5971
3208.6553
2761.8096
2372.1055
2033.162
1739.1532
1484.7849
1265.269
1076.2948
913.99867
774.93295
656.03421
554.59159
468.21585
394.80937
332.53733
279.80061
235.21031
197.56405
165.8242
139.09806
116.61973
97.733902
81.881371
68.586014
57.44342
48.110785
40.298127
33.760569
28.291687
23.717738
19.892696
16.693992
14.01885
11.781197
9.9090055
8.3420594
7.0300434
5.9311146
17024.793
15074.89
13315.139
11731.451
10310.356
9038.9057
7904.6941
6895.8947
6001.2854
5210.2705
4512.8951
3899.853
3362.487
2892.7841
2483.3636
2127.46
1818.9017
1552.0857
1321.948
1123.9335
953.96234
808.39658
684.00585
577.93357
487.66366
410.98852
345.97841
290.95248
244.4517
205.21378
172.15004
144.32438
120.93416
101.29305
84.815673
71.003949
59.43506
49.750788
41.648304
34.872016
29.206612
24.470956
20.512908
17.204824
14.439752
12.12817
10.195201
8.5782705
7.2251518
6.0923834
17883.426
15827.437
13973.094
12305.284
10809.582
9472.1449
8279.7342
7219.748
6280.2468
5449.9725
4718.3614
4075.5492
3512.3697
3020.3472
2591.6819
2219.2307
1896.4827
1617.5315
1377.0431
1170.2224
992.77811
840.8858
711.15188
600.57719
506.5217
426.6704
359.00079
301.75228
253.39742
212.6155
178.26806
149.37673
125.10308
104.73057
87.64839
73.337089
61.355945
51.33178
42.949268
35.942439
30.087337
25.195663
21.109344
17.695831
14.844118
12.461337
10.469857
8.8048459
7.4121891
6.2469012
18719.891
16560.272
14613.565
12863.654
11295.172
9893.3931
8644.2594
7534.4068
6551.1903
5682.7017
4917.7797
4246.0131
3657.7373
3144.0236
2696.6625
2308.1418
1971.6193
1680.8924
1430.3635
1215.004
1030.3159
872.29359
737.38439
622.45045
524.73114
441.80699
371.56541
312.16827
262.02174
219.74838
184.16143
154.24152
129.11554
108.03768
90.372465
75.579779
63.201549
52.850136
44.198139
36.969539
30.932029
25.890404
21.680852
18.166092
15.231215
12.780124
10.732535
9.0214214
7.5908851
6.3944605
19530.846
17270.513
15234.069
13404.425
11765.29
10301.079
8996.9288
7838.7293
6813.1464
5907.6368
5110.4562
4410.6603
3798.0987
3263.4018
2797.9616
2393.9067
2044.0732
1741.9708
1481.7459
1258.1432
1066.4647
902.52878
762.62874
643.49235
542.24221
456.35783
383.63939
322.17383
270.30315
226.59505
189.81616
158.90753
132.96255
111.20717
92.982144
77.727418
64.968217
54.302955
45.392608
37.951487
31.739248
26.554039
22.226532
18.614906
15.600494
13.084094
10.982885
9.2277427
7.7610369
6.5348926
20313.399
17955.673
15832.463
13925.753
12218.36
10693.855
9336.593
8131.7388
7065.2872
6124.0781
5295.8011
4568.9948
3933.0381
3378.1342
2895.2891
2476.2843
2113.6443
1800.601
1531.0536
1299.5277
1101.1323
931.51587
786.82324
663.65261
559.0141
470.2898
395.19596
331.74737
278.22425
233.14156
195.22109
163.36581
136.63697
114.23335
95.47292
79.776435
66.65312
55.688014
46.530925
38.886903
32.507915
27.18572
22.745736
19.041769
15.951554
13.372951
11.220681
9.4236242
7.9225151
6.6681053
21065.116
18613.66
16406.944
14426.093
12653.057
11070.592
9662.293
8412.6219
7306.925
6331.4455
5473.3266
4720.6077
4062.2134
3487.9353
2988.4077
2555.0776
2180.1699
1856.6489
1578.1762
1339.067
1134.2446
959.19446
809.91876
682.89142
575.01457
483.57693
406.21423
340.87212
285.77161
239.37719
200.36767
167.60961
140.13345
117.11202
97.841459
81.72423
68.254233
57.003719
47.611861
39.774844
33.237299
27.784905
23.238037
19.446351
16.284168
13.646513
11.445797
9.6089909
8.0752469
6.7940524
21784.045
19242.768
16956.041
14904.185
13068.307
11430.376
9973.2541
8680.7239
7537.5078
6529.2751
5642.6438
4865.1737
4185.3537
3592.5802
3077.131
2630.1327
2243.523
1910.0103
1623.0285
1376.6915
1165.745
985.5186
831.87818
701.17883
590.21957
496.19992
416.6788
349.53582
292.93555
245.29429
205.24988
171.63419
143.44829
119.84031
100.08556
83.569097
69.770247
58.24909
48.634671
40.614758
33.926996
28.351285
23.703218
19.828513
16.598233
13.904722
11.658191
9.7838058
8.2192348
6.9127371
32157.274
28603.439
25381.552
22468.831
19841.663
17478.598
15359.041
13463.273
11772.5
10268.878
8935.5414
7756.6131
6717.2134
5803.4577
5002.4477
4302.2555
3691.9006
3161.3205
2701.3358
2303.6107
1960.6093
1665.5489
1412.3513
1195.5932
1010.4559
852.67559
718.49419
604.6127
508.14585
426.57947
357.73051
299.70985
250.88804
209.86404
175.43674
146.57938
122.4166
102.20403
85.310173
71.200545
59.42369
49.599057
41.406446
34.576889
28.884801
24.141268
20.188263
16.89377
14.147613
11.857914
9.9481277
8.3545236
7.0242087
37152.519
33115.022
29446.843
26122.622
23118.097
20409.311
17973.752
15789.935
13837.343
12096.448
10548.734
9176.7138
7963.9405
6895.0109
5955.562
5132.2594
4412.7791
3785.7821
3240.8827
2768.6111
2360.3716
2008.3966
1705.6977
1446.0147
1223.7642
1033.9868
872.29553
734.82547
618.18467
519.40758
435.91087
365.45214
306.09151
256.15627
214.20857
179.01617
149.52598
124.84046
104.19662
86.947349
72.545112
60.527579
50.505133
42.150052
35.187125
29.385618
24.552336
20.525745
17.17093
14.375322
12.045085
10.102065
8.4812104
7.1285497
38178.068
34019.768
30243.318
26822.176
23730.95
20945.002
18440.921
16196.384
14190.113
12401.886
10812.544
9404.0128
8159.3025
7062.5143
6098.8318
5254.5076
4516.8429
3874.1594
3315.7658
2831.9176
2413.7736
2053.3471
1743.4556
1477.6672
1250.247
1056.1029
890.73207
750.1685
630.93265
529.98329
444.67192
372.7002
312.08044
261.09915
218.28386
182.37298
152.28865
127.11248
106.06392
88.481202
73.804509
61.561269
51.353364
42.845995
35.758096
29.854072
24.936737
20.84124
17.429951
14.588059
12.219891
10.245784
8.5994439
7.2258872
39142.593
34870.562
30992.115
27479.682
24306.891
21448.336
18879.781
16578.125
14521.374
12688.644
11060.175
9617.3319
8342.6155
7219.6587
6233.2172
5369.1548
4614.4191
3957.0125
3385.9557
2891.2459
2463.8108
2095.4579
1778.8218
1507.3092
1275.0431
1076.8066
907.98795
764.52621
642.85966
539.87598
452.8655
379.47743
317.67918
265.71903
222.09203
185.5091
154.86913
129.23418
107.80729
89.91292
74.97976
62.525672
52.144547
43.494971
36.290391
30.290689
25.294909
21.135129
17.671163
14.786108
12.382575
10.379488
8.7093936
7.3163729
40045.705
35667.035
31692.956
28094.951
24845.756
21919.189
19290.247
16935.102
14831.089
12956.706
11291.62
9816.6743
8513.8895
7366.4585
6358.7361
5476.2204
4705.5279
4034.3616
3451.4723
2946.6153
2510.5015
2134.7458
1811.8118
1534.9551
1298.1656
1096.1096
924.07358
777.9079
653.97391
549.09288
460.49799
385.78938
322.89256
270.02011
225.63673
188.42766
157.27012
131.2079
109.42873
91.244223
76.072356
63.42204
52.87975
44.09789
36.784798
30.696124
25.627422
21.407891
17.894972
14.969819
12.533433
10.503429
8.8112801
7.4001758
40887.484
36409.274
32345.951
28668.114
25347.67
22357.687
19672.446
17267.442
15119.383
13206.186
11506.988
10002.142
8673.2181
7502.9996
6475.4661
5575.7746
4790.2326
4106.2633
3512.3659
2998.07
2553.8848
2171.2453
1842.4559
1560.6312
1319.6372
1114.0318
939.00618
790.3284
664.28819
557.645
467.57879
391.64411
327.72748
274.00826
228.92295
191.13291
159.49521
133.03669
110.93081
92.477287
77.084122
64.251938
53.560285
44.655861
37.242249
31.071163
25.934937
21.660085
18.101854
15.139587
12.672799
10.617889
8.9053289
7.4775027
41668.441
37097.756
32951.549
29199.589
25813.012
22764.176
20026.694
17575.432
15386.514
13437.32
11706.491
10173.922
8820.7686
7629.4301
6583.538
5667.9325
4868.6337
4172.8054
3568.7131
3045.6768
2594.0183
2205.0062
1870.7969
1584.3743
1339.4897
1130.6001
952.80884
801.80742
673.81925
565.54653
474.11996
397.05183
332.19256
277.69075
231.95682
193.63002
161.54877
134.7242
112.31661
93.614693
78.01723
65.017167
54.187677
45.170153
37.6638
31.416704
26.218202
21.892341
18.292331
15.295851
12.801049
10.723181
8.9918108
7.5485629
42389.463
37733.292
33510.487
29690.045
26242.381
23139.193
20353.471
17859.5
15632.865
13650.447
11890.426
10332.279
8956.7721
7745.9521
6683.1282
5752.8474
4940.8644
4234.1031
3620.6132
3089.521
2630.9756
2236.0914
1896.8885
1606.2303
1357.762
1145.8477
965.50968
812.36874
682.58719
572.81445
480.13579
402.02455
336.29788
281.07606
234.74545
195.92493
163.43575
136.27459
113.58961
94.659341
78.874098
65.71975
54.763602
45.642173
38.05063
31.733717
26.478027
22.105327
18.46697
15.43909
12.918574
10.819641
9.0710036
7.6135884
43051.769
38316.984
34023.756
30140.365
26636.566
23483.438
20653.398
18120.197
15858.92
13845.992
12059.17
10477.54
9081.5143
7852.8142
6774.4521
5830.7058
5007.0855
4290.2948
3668.185
3129.7044
2664.8434
2264.575
1920.7938
1626.2527
1374.4995
1159.813
977.14103
822.03961
690.61495
579.46802
485.64243
406.5758
340.05479
284.17367
237.29674
198.02424
165.16166
137.69244
114.75361
95.614402
79.657359
66.361873
55.289879
46.073428
38.403985
32.023254
26.71528
22.29978
18.626378
15.569805
13.025793
10.90762
9.1431999
7.6728159
43656.859
38850.178
34492.557
30551.622
26996.515
23797.751
20927.217
18358.174
16065.254
14024.459
12213.159
10610.086
9195.3265
7950.3033
6857.7578
5901.7212
5067.4807
4341.538
3711.5632
3166.3421
2695.7197
2290.5401
1942.5833
1644.5012
1389.7526
1172.5385
987.73869
830.8501
697.92773
585.52835
490.65755
410.72036
343.47558
286.99381
239.61924
199.93505
166.73241
138.98264
115.81267
96.483247
80.369808
66.945869
55.768442
46.465521
38.725202
32.286401
26.930881
22.476446
18.771177
15.688521
13.123152
10.987481
9.2087128
7.726504
44206.47
39334.421
34918.27
30925.038
27323.31
24083.084
21175.766
18574.168
16252.509
14186.409
12352.884
10730.344
9298.5775
8038.738
6933.3197
5966.1298
5122.2523
4388.0058
3750.8955
3199.5597
2723.7114
2314.0774
1962.3337
1661.0406
1403.5759
1184.0701
997.34118
838.83251
704.55258
591.01805
495.2
414.47392
346.57335
289.54739
241.72197
201.66487
168.1542
140.15036
116.77109
97.269411
81.014383
67.474148
56.201291
46.820102
39.015645
32.524301
27.12576
22.636108
18.902012
15.795763
13.211082
11.059602
9.2678564
7.7749268
44702.528
39771.432
35302.417
31261.961
27618.14
24340.484
21399.962
18768.983
16421.389
14332.454
12478.876
10838.773
9391.6658
8118.462
7001.4336
6024.1852
5171.6175
4429.8836
3786.3401
3229.4917
2748.9325
2335.2833
1980.1265
1675.9394
1416.0271
1194.4562
1005.9891
846.02086
710.51792
595.96082
499.28955
417.85294
349.36175
291.84573
243.61435
203.22148
169.4335
141.20095
117.63326
97.976555
81.594092
67.949208
56.590476
47.138875
39.276713
32.738112
27.300872
22.779548
19.019537
15.892079
13.290048
11.124353
9.320967
7.8183966
45147.113
40163.058
35646.635
31563.835
27882.277
24571.068
21600.786
18943.475
16572.64
14463.244
12591.7
10935.863
9475.0127
8189.8382
7062.4111
6076.1545
5215.8046
4467.3663
3818.0625
3256.2786
2771.502
2354.2586
1996.0466
1689.2691
1427.1662
1203.7472
1013.7248
852.45039
715.85316
600.38118
502.94659
420.87434
351.85486
293.90049
245.30604
204.61288
170.57692
142.13985
118.4037
98.608397
82.11201
68.373576
56.938091
47.423564
39.509837
32.929003
27.457194
22.907576
19.124416
15.978016
13.360489
11.182115
9.3683558
7.8572991
6.5975208
45542.423
40511.244
35952.646
31832.178
28117.055
24776.008
21779.264
19098.54
16707.043
14579.457
12691.943
11022.121
9549.0561
8253.2431
7116.5754
6122.3144
5255.0499
4500.6549
3846.2338
3280.0655
2791.5426
2371.1067
2010.1812
1701.1033
1437.0549
1211.9948
1020.5912
858.15714
720.58834
604.30412
506.19189
423.5554
354.06697
295.72354
246.80683
205.84718
171.59115
142.9726
119.08697
99.168684
82.571233
68.749813
57.24624
47.675894
39.716436
33.09815
27.595684
23.020983
19.217297
16.054116
13.422856
11.233259
9.4103193
7.8917526
6.6260677
45890.735
40818.01
36222.23
32068.56
28323.855
24956.513
21936.451
19235.1
16825.399
14681.79
12780.208
11098.067
9614.2447
8309.0626
7164.2572
6162.9476
5289.5946
4529.955
3871.0284
3301.0002
2809.1794
2385.9331
2022.6191
1711.5163
1445.7558
1219.2513
1026.6322
863.1776
724.75384
607.75491
509.04644
425.9135
356.01249
297.32678
248.12658
206.93251
172.4829
143.70472
119.68763
99.661186
82.97485
69.080454
57.517019
47.897594
39.897927
33.246722
27.717311
23.120563
19.298842
16.120911
13.477593
11.278139
9.4471551
7.922032
6.6509967
46194.383
41085.418
36457.209
32274.583
28504.083
25113.815
22073.425
19354.092
16928.524
14770.95
12857.107
11164.23
9671.0333
8357.6869
7205.7909
6198.3399
5319.6825
4555.4737
3892.6222
3319.2317
2824.5381
2398.844
2033.4496
1720.5833
1453.3315
1225.5692
1031.8916
867.5483
728.38008
610.75883
511.5312
427.96603
357.70581
298.72211
249.27512
207.87697
173.25886
144.34173
120.2102
100.08963
83.325936
69.368034
57.752498
48.090372
40.055722
33.375873
27.823022
23.207097
19.369695
16.178939
13.525134
11.317114
9.4791473
7.9483465
6.6726827
5.6089453
46455.725
41315.553
36659.421
32451.864
28659.155
25249.153
22191.269
19456.461
17017.239
14847.647
12923.254
11221.14
9719.878
8399.5077
7241.5118
6228.7778
5345.5574
4577.4185
3911.1911
3334.9087
2837.7445
2409.9452
2042.7617
1728.3788
1459.8447
1231.0008
1036.413
871.30561
731.49728
613.34097
513.667
429.73023
359.16119
299.92132
250.26217
208.68858
173.92563
144.88907
120.65918
100.4577
83.627521
69.615035
57.954733
48.255906
40.191197
33.486738
27.913748
23.281348
19.430476
16.228709
13.565907
11.350538
9.5065767
7.9709101
6.6912559
5.6244126
46677.126
41510.503
36830.704
32602.017
28790.489
25363.768
22291.064
19543.149
17092.361
14912.59
12979.262
11269.326
9761.2325
8434.9142
7271.7529
6254.5455
5367.4616
4595.9951
3926.9096
3348.1788
2848.9229
2419.3415
2050.6434
1734.9768
1465.3573
1235.5978
1040.2396
874.4854
734.13529
615.52611
515.47436
431.22307
360.39267