/*--------------------------------*- C++ -*----------------------------------*\
| =========                 |                                                 |
| \\      /  F ield         | OpenFOAM: The Open Source CFD Toolbox           |
|  \\    /   O peration     | Version:  2312                                  |
|   \\  /    A nd           | Website:  www.openfoam.com                      |
|    \\/     M anipulation  |                                                 |
\*---------------------------------------------------------------------------*/
FoamFile
{
    version     2.0;
    format      ascii;
    arch        "LSB;label=32;scalar=64";
    class       volScalarField;
    location    "0.1";
    object      T;
}
// * * * * * * * * * * * * * * * * * * * * * * * * * * * * * * * * * * * * * //

dimensions      [0 0 0 1 0 0 0];

internalField   nonuniform List<scalar> 
3250
(
404.55846
403.64435
402.70677
401.74622
400.76374
399.76046
398.73757
397.69625
396.63768
395.56307
394.47361
393.37049
392.25489
391.12798
389.99092
388.84485
387.69089
386.53016
385.36372
384.19265
383.01798
381.8407
380.66181
379.48226
378.30296
377.12482
375.94868
374.77539
373.60575
372.44053
371.28047
370.12629
368.97868
367.83828
366.70573
365.58165
364.4666
363.36115
362.26585
361.18121
360.10774
359.04598
357.99644
356.9597
404.92087
403.99922
403.05397
402.08573
401.09557
400.08464
399.05415
398.00528
396.93924
395.85723
394.76045
393.65009
392.52734
391.39337
390.24934
389.09641
387.9357
386.76831
385.59533
384.41783
383.23684
382.05337
380.8684
379.68289
378.49775
377.31389
376.13217
374.95341
373.77843
372.60799
371.44284
370.28368
369.13122
367.98609
366.84894
365.72037
364.60094
363.49123
362.39176
361.30303
360.22553
359.15974
358.10616
357.06563
405.59483
404.65873
403.69911
402.71656
401.71217
400.68711
399.64258
398.57979
397.49996
396.40429
395.294
394.17028
393.03433
391.88733
390.73045
389.56485
388.39165
387.21198
386.02691
384.83753
383.64486
382.44993
381.25371
380.05717
378.86123
377.66678
376.4747
375.28581
374.10092
372.9208
371.74619
370.57781
369.41634
368.26243
367.11672
365.9798
364.85224
363.73461
362.62742
361.53117
360.44636
359.37345
358.31296
357.26573
406.53544
405.57921
404.59959
403.59716
402.57302
401.52836
400.46438
399.38231
398.28337
397.16878
396.03977
394.89755
393.74331
392.57827
391.40358
390.22042
389.02992
387.8332
386.63138
385.4255
384.21664
383.00579
381.79396
380.5821
379.37114
378.16198
376.95549
375.7525
374.55382
373.36022
372.17245
370.99121
369.81719
368.65104
367.49339
366.34483
365.20594
364.07726
362.95931
361.8526
360.7576
359.67478
358.60467
357.54813
407.70147
406.72041
405.71611
404.68917
403.64069
402.57187
401.48393
400.37811
399.25564
398.11776
396.96571
395.8007
394.62395
393.43667
392.24005
391.03525
389.82344
388.60573
387.38323
386.15703
384.92818
383.69771
382.4666
381.23583
380.00633
378.77899
377.5547
376.33429
375.11857
373.9083
372.70423
371.50708
370.31753
369.13622
367.96378
366.8008
365.64786
364.50549
363.37421
362.25452
361.1469
360.05181
358.96978
357.90165
409.05545
408.04569
407.01288
405.95763
404.88104
403.78433
402.66873
401.53549
400.38587
399.22111
398.04245
396.85115
395.64841
394.43547
393.21353
391.98375
390.74732
389.50535
388.25899
387.0093
385.75735
384.50418
383.25079
381.99815
380.74719
379.49883
378.25394
377.01335
375.77788
374.5483
373.32535
372.10975
370.90218
369.70328
368.51368
367.33397
366.16471
365.00645
363.85969
362.72494
361.60265
360.49329
359.39739
358.31579
410.56341
409.52186
408.45747
407.37084
406.2631
405.13548
403.98924
402.82563
401.64592
400.45138
399.24327
398.02284
396.79132
395.54996
394.29995
393.0425
391.77879
390.50995
389.23711
387.96139
386.68383
385.40549
384.12738
382.85046
381.57569
380.30398
379.0362
377.7732
376.51579
375.26474
374.0208
372.78469
371.55707
370.33861
369.12991
367.93157
366.74414
365.56818
364.40418
363.25262
362.11399
360.98873
359.87736
358.78073
412.19461
411.11898
410.02059
408.90017
407.75889
406.59798
405.41874
404.22243
403.01034
401.78375
400.54393
399.29214
398.02964
396.75768
395.47747
394.19023
392.89714
391.59935
390.29802
388.99423
387.68908
386.38362
385.07885
383.77577
382.47532
381.17842
379.88595
378.59876
377.31766
376.04344
374.77683
373.51855
372.26927
371.02966
369.80031
368.58182
367.37475
366.17963
364.99696
363.82723
362.6709
361.52842
360.4003
359.28738
413.92124
412.8102
411.67601
410.51993
409.34324
408.14723
406.93319
405.70241
404.45619
403.19581
401.92257
400.63775
399.3426
398.03839
396.72635
395.4077
394.08364
392.75534
391.42395
390.09058
388.75632
387.42224
386.08935
384.75864
383.43108
382.10759
380.78904
379.4763
378.17018
376.87145
375.58088
374.29916
373.02698
371.76498
370.51378
369.27397
368.0461
366.8307
365.62826
364.43927
363.26419
362.10346
360.95757
359.82737
417.94746
416.84596
415.72082
414.57192
413.40028
412.20709
410.99363
409.76118
408.51105
407.24452
405.9629
404.66751
403.35962
402.04054
400.71155
399.37391
398.02887
396.67765
395.32148
393.96153
392.59896
391.23489
389.87043
388.50664
387.14456
385.78518
384.42947
383.07834
381.73271
380.39341
379.06128
377.73709
376.42159
375.11549
373.81948
372.5342
371.26027
369.99825
368.74872
367.51219
366.28917
365.08012
363.88549
362.70573
361.54132
360.39311
419.87404
418.73401
417.5699
416.3823
415.17229
413.9411
412.68998
411.42023
410.13314
408.83003
407.51219
406.18096
404.83763
403.4835
402.11987
400.74802
399.3692
397.98466
396.59562
395.20327
393.80877
392.41328
391.01788
389.62367
388.23168
386.84292
385.45835
384.07891
382.7055
381.33897
379.98016
378.62984
377.28876
375.95765
374.63717
373.32798
372.03069
370.74587
369.47408
368.21585
366.97165
365.74197
364.52725
363.32792
362.14446
360.9777
421.83232
420.65261
419.44905
418.22229
416.97346
415.70378
414.41454
413.10702
411.78252
410.44236
409.08787
407.72035
406.34114
404.95153
403.55284
402.14636
400.73334
399.31506
397.89273
396.46756
395.04073
393.6134
392.18666
390.76162
389.33932
387.92076
386.50694
385.09878
383.6972
382.30305
380.91716
379.54032
378.17329
376.81677
375.47145
374.13797
372.81695
371.50896
370.21455
368.93425
367.66853
366.41787
365.1827
363.96346
362.76061
361.57498
423.80415
422.58454
421.34136
420.07531
418.78752
417.47924
416.15174
414.80632
413.44429
412.06698
410.6757
409.27179
407.85657
406.43138
404.99751
403.55628
402.10895
400.6568
399.20107
397.74297
396.28368
394.82438
393.36618
391.91017
390.45742
389.00894
387.56572
386.1287
384.6988
383.27688
381.86376
380.46025
379.0671
377.68502
376.3147
374.95677
373.61186
372.28054
370.96335
369.66081
368.37341
367.1016
365.84583
364.60651
363.38412
362.17945
425.77418
424.51478
423.23214
421.92695
420.60037
419.25365
417.88806
416.5049
415.1055
413.69119
412.26329
410.82315
409.37209
407.91146
406.44258
404.96674
403.48525
401.99938
400.51038
399.01947
397.52785
396.0367
394.54714
393.06028
391.57717
390.09886
388.62633
387.16053
385.70238
384.25275
382.81247
381.38234
379.96312
378.55552
377.16023
375.77788
374.40911
373.05447
371.71451
370.38975
369.08066
367.78772
366.51134
365.25194
364.00998
362.78626
427.7292
426.4304
425.10869
423.76478
422.39982
421.01506
419.61179
418.19131
416.75495
415.30405
413.83993
412.36395
410.87746
409.38178
407.87825
406.3682
404.85291
403.33368
401.81176
400.2884
398.76478
397.24211
395.72151
394.20409
392.69094
391.18308
389.68151
388.1872
386.70106
385.22396
383.75676
382.30024
380.85516
379.42225
378.00219
376.59562
375.20316
373.82538
372.46282
371.11599
369.78538
368.47143
367.17458
365.89523
364.63384
363.39118
429.6579
428.32035
426.9602
425.57819
424.17547
422.7533
421.31297
419.85578
418.38307
416.89618
415.39645
413.88524
412.36389
410.83375
409.29617
407.75246
406.20393
404.65189
403.09759
401.54229
399.9872
398.4335
396.88235
395.33487
393.79213
392.25518
390.72502
389.20262
387.6889
386.18475
384.69101
383.20847
381.73791
380.28004
378.83555
377.40509
375.98926
374.58865
373.20378
371.83517
370.4833
369.14862
367.83154
366.53249
365.25189
363.99052
431.55065
430.17529
428.77755
427.35824
425.91855
424.45976
422.98315
421.49005
419.98177
418.45967
416.9251
415.37942
413.82397
412.26012
410.68921
409.11257
407.53152
405.94737
404.36139
402.77483
401.18892
399.60486
398.02379
396.44686
394.87514
393.30969
391.75152
390.20159
388.66085
387.13017
385.61041
384.10237
382.60681
381.12446
379.656
378.20209
376.76333
375.34029
373.93352
372.54353
371.17078
369.81572
368.47879
367.16036
365.86089
364.58113
433.39944
431.98755
430.55316
429.09747
427.62175
426.12726
424.61531
423.08721
421.54429
419.9879
418.41939
416.84014
415.25148
413.6548
412.05143
410.44272
408.83
407.21457
405.59771
403.9807
402.36476
400.7511
399.14088
397.53523
395.93526
394.34202
392.75652
391.17975
389.61264
388.05608
386.51092
384.97798
383.45801
381.95176
380.45989
378.98307
377.52191
376.07697
374.64879
373.23789
371.84473
370.46975
369.11339
367.77602
366.45809
365.16033
436.62462
435.19915
433.75101
432.28085
430.78979
429.27905
427.74991
426.20366
424.6416
423.06507
421.47542
419.874
418.26218
416.64132
415.01279
413.37794
411.73812
410.09466
408.44888
406.80208
405.15551
403.51043
401.86804
400.22951
398.59599
396.96859
395.34835
393.73632
392.13346
390.54073
388.95902
387.38918
385.83203
384.28833
382.75883
381.2442
379.74509
378.26213
376.79587
375.34686
373.9156
372.50257
371.1082
369.73291
368.37709
367.04117
365.72586
438.40445
436.94351
435.46032
433.95553
432.43023
430.88563
429.32297
427.74355
426.14867
424.53965
422.91785
421.28462
419.64133
417.98935
416.33004
414.66476
412.99488
411.32172
409.64661
407.97085
406.29571
404.62245
402.95227
401.28637
399.62589
397.97194
396.32559
394.68787
393.05977
391.44224
389.83617
388.24243
386.66183
385.09515
383.54312
382.00643
380.48573
378.98163
377.4947
376.02549
374.57449
373.14218
371.72899
370.33534
368.96161
367.60823
366.2759
440.12312
438.62827
437.11138
435.57323
434.01493
432.43768
430.84273
429.23134
427.60483
425.96452
424.31176
422.64789
420.97429
419.29233
417.60338
415.9088
414.20995
412.50817
410.80481
409.10115
407.39848
405.69806
404.00111
402.30882
400.62234
398.9428
397.27126
395.60877
393.95632
392.31485
390.68528
389.06848
387.46525
385.87637
384.30259
382.7446
381.20303
379.67852
378.17162
376.68288
375.21281
373.76186
372.33048
370.91907
369.52802
368.15775
366.80895
441.77761
440.25044
438.7012
437.13099
435.54097
433.93235
432.30637
430.66428
429.0074
427.33703
425.65453
423.96124
422.25854
420.54779
418.83037
417.10765
415.38099
413.65174
411.92122
410.19077
408.46165
406.73514
405.01246
403.29481
401.58335
399.87921
398.18346
396.49715
394.82127
393.15679
391.50462
389.86561
388.24061
386.63038
385.03566
383.45715
381.8955
380.35132
378.82519
377.31764
375.82918
374.36027
372.91135
371.48283
370.07508
368.68852
367.32383
444.90325
443.36679
441.80804
440.22767
438.6267
437.00628
435.36761
433.71189
432.04039
430.35442
428.65527
426.94429
425.22283
423.49226
421.75395
420.00927
418.2596
416.50631
414.75074
412.99423
411.23811
409.48365
407.73214
405.98481
404.24286
402.50746
400.77973
399.06077
397.35162
395.65329
393.96673
392.29287
390.63257
388.98667
387.35594
385.74113
384.14293
382.56199
380.99893
379.45433
377.92871
376.42259
374.93642
373.47064
372.02566
370.60186
369.19964
367.81966
446.45551
444.88846
443.29953
441.68938
440.059
438.40952
436.74211
435.05799
433.3584
431.64463
429.91798
428.1798
426.43144
424.67425
422.90962
421.13891
419.36351
417.58477
415.80406
414.02272
412.24207
410.46342
408.68802
406.91713
405.15195
403.39366
401.64339
399.90223
398.17124
396.45142
394.74375
393.04914
391.36847
389.70257
388.05222
386.41817
384.80111
383.20171
381.62057
380.05827
378.51534
376.99229
375.48958
374.00765
372.54689
371.10769
369.69044
368.2958
447.93775
446.34176
444.72412
443.08558
441.42716
439.74997
438.05517
436.34397
434.6176
432.87734
431.1245
429.36041
427.5864
425.80386
424.01414
422.21863
420.41871
418.61573
416.81107
415.00606
413.20204
411.40031
409.60214
407.80879
406.02147
404.24135
402.46957
400.70724
398.95542
397.21511
395.48729
393.77287
392.07275
390.38776
388.71868
387.06626
385.43119
383.81414
382.21573
380.63652
379.07705
377.53782
376.0193
374.52191
373.04607
371.59213
370.16051
368.75183
449.34997
447.72662
446.08167
444.41611
442.73101
441.02746
439.30661
437.56965
435.81782
434.05238
432.27463
430.4859
428.68752
426.88087
425.06731
423.24823
421.42498
419.59896
417.77152
415.94401
414.11777
412.29409
410.47427
408.65955
406.85116
405.05027
403.25804
401.47556
399.7039
397.94408
396.19707
394.46381
392.74517
391.04199
389.35506
387.68514
386.03291
384.39905
382.78417
381.18883
379.61359
378.05894
376.52533
375.01321
373.52296
372.05497
370.60961
369.18753
452.32125
450.69328
449.0435
447.37253
445.6813
443.97086
442.24228
440.49671
438.73531
436.95931
435.16998
433.3686
431.55649
429.735
427.90548
426.0693
424.22785
422.38249
420.5346
418.68555
416.83669
414.98935
413.14485
411.30448
409.46948
407.64108
405.82048
404.00882
402.20721
400.41671
398.63836
396.87312
395.12194
393.3857
391.66524
389.96135
388.27478
386.60624
384.95639
383.32585
381.71518
380.12493
378.5556
377.00764
375.48149
373.97753
372.49614
371.03769
369.60282
453.62141
451.96794
450.29309
448.59743
446.88187
445.14742
443.39513
441.62613
439.84158
438.0427
436.23074
434.40699
432.57275
430.72937
428.8782
427.02061
425.15797
423.29167
421.42308
419.55357
417.68449
415.81718
413.95296
412.09311
410.2389
408.39156
406.55227
404.7222
402.90245
401.0941
399.29818
397.51567
395.7475
393.99456
392.2577
390.53772
388.83537
387.15135
385.48632
383.84091
382.21569
380.6112
379.02793
377.46634
375.92686
374.40988
372.91576
371.44486
369.99778
454.85245
453.17498
451.47645
449.75745
448.01888
446.26171
444.487
442.69586
440.88943
439.06892
437.23558
435.39068
433.53553
431.67146
429.79983
427.922
426.03935
424.15326
422.26511
420.37626
418.48806
416.60187
414.719
412.84075
410.96837
409.10311
407.24616
405.39867
403.56177
401.73653
399.92399
398.12512
396.34087
394.57214
392.81976
391.08455
389.36724
387.66856
385.98916
384.32967
382.69066
381.07267
379.47619
377.90169
376.34958
374.82026
373.31407
371.83134
370.37261
456.01596
454.31586
452.59498
450.85396
449.09366
447.31506
445.51919
443.70715
441.88007
440.03916
438.18564
436.32079
434.44591
432.56233
430.6714
428.77448
426.87295
424.9682
423.06158
421.15448
419.24826
417.34426
415.44379
413.54817
411.65865
409.77647
407.90284
406.03891
404.18581
402.34462
400.51638
398.70207
396.90263
395.11897
393.35193
391.60232
389.87088
388.15834
386.46536
384.79255
383.1405
381.50974
379.90078
378.31406
376.75001
375.20902
373.69142
372.19752
370.72769
457.11371
455.39227
453.65034
451.88856
450.10779
448.309
446.49319
444.66146
442.81494
440.9548
439.08228
437.19865
435.30519
433.40323
431.49412
429.57923
427.65993
425.73759
423.81359
421.8893
419.9661
418.04531
416.12828
414.21628
412.31061
410.4125
408.52315
406.64373
404.77537
402.91914
401.07609
399.24722
397.43346
395.63572
393.85485
392.09166
390.34689
388.62128
386.91547
385.2301
383.56574
381.92293
380.30217
378.70392
377.1286
375.5766
374.04826
372.5439
371.06397
369.60891
458.14762
456.40609
454.64435
452.86304
451.06302
449.24523
447.41068
445.56044
443.69562
441.81741
439.92703
438.02573
436.1148
434.19557
432.26937
430.33758
428.40156
426.46269
424.52235
422.58191
420.64273
418.70617
416.77354
414.84616
412.92529
411.01219
409.10806
407.21406
405.33133
403.46096
401.60398
399.7614
397.93416
396.12316
394.32927
392.55328
390.79597
389.05803
387.34015
385.64293
383.96698
382.31281
380.68094
379.07182
377.48588
375.9235
374.38505
372.87085
371.38128
369.91708
459.11976
457.35935
455.579
453.77935
451.96125
450.12562
448.27346
446.40583
444.52385
442.62867
440.72151
438.80363
436.87631
434.94086
432.99863
431.05097
429.09926
427.14488
425.18919
423.23359
421.27942
419.32804
417.38078
415.43895
413.50381
411.57663
409.65861
407.75092
405.8547
403.97103
402.10097
400.2455
398.40559
396.58214
394.77601
392.988
391.21887
389.46936
387.74011
386.03176
384.34489
382.68005
381.03772
379.41837
377.82243
376.25029
374.70232
373.17885
371.68024
370.20716
460.03231
458.25418
456.45638
454.63953
452.80446
450.95211
449.08344
447.19952
445.30144
443.39035
441.46748
439.53406
437.59137
435.64072
433.68346
431.72094
429.75453
427.7856
425.81554
423.84572
421.8775
419.91223
417.95126
415.99587
414.04737
412.10698
410.17594
408.25541
406.34653
404.4504
402.56806
400.70051
398.84871
397.01357
395.19594
393.39665
391.61645
389.85605
388.11614
386.39734
384.70022
383.02534
381.37319
379.74423
378.1389
376.55758
375.00065
373.46844
371.96132
370.47985
460.88752
459.09279
457.27863
455.44568
453.59474
451.72672
449.8426
447.94342
446.03028
444.10431
442.16673
440.21876
438.26169
436.29683
434.32551
432.34908
430.36891
428.38638
426.40286
424.41973
422.43837
420.46011
418.48629
416.51823
414.5572
412.60446
410.66123
408.72868
406.80795
404.90014
403.0063
401.12743
399.2645
397.4184
395.59002
393.78014
391.98956
390.21897
388.46906
386.74046
385.03373
383.34944
381.68808
380.05011
378.43596
376.84603
375.28068
373.74027
372.22512
370.73578
461.68767
459.87742
458.04798
456.19996
454.33418
452.45153
450.55297
448.63953
446.71231
444.77244
442.82111
440.85956
438.88905
436.91091
434.92644
432.93702
430.944
428.94876
426.95267
424.95712
422.96346
420.97306
418.98725
417.00733
415.03461
413.07032
411.11569
409.1719
407.24009
405.32137
403.41678
401.52732
399.65398
397.79764
395.95918
394.13942
392.33912
390.55899
388.79973
387.06194
385.34623
383.65313
381.98314
380.33672
378.71432
377.11631
375.54308
373.99496
372.47228
370.97556
462.4351
460.61035
458.76664
456.90457
455.02493
453.12862
451.21658
449.28985
447.34949
445.39664
443.43249
441.45826
439.47523
437.48469
435.48797
433.48643
431.48142
429.47432
427.46651
425.45936
423.45424
421.45252
419.45551
417.46454
415.48089
413.50583
411.54057
409.58629
407.64414
405.71523
403.8006
401.90127
400.01819
398.15229
396.30443
394.47543
392.66605
390.87702
389.10901
387.36265
385.63853
383.93719
382.25913
380.60483
378.9747
377.36914
375.78853
374.23319
372.70347
371.19983
463.13211
461.29387
459.43686
457.56168
455.66913
453.76009
451.8355
449.89637
447.94377
445.97884
444.00275
442.01671
440.02201
438.01993
436.0118
433.99897
431.98279
429.96465
427.94592
425.92798
423.91219
421.8999
419.89247
417.8912
415.89739
413.91228
411.93711
409.97306
408.02128
406.08287
404.15889
402.25034
400.3582
398.48339
396.62676
394.78913
392.97129
391.17395
389.39778
387.64343
385.91146
384.20244
382.51686
380.85518
379.21784
377.60523
376.01772
374.45564
372.91932
371.40924
463.78103
461.93023
460.06085
458.17348
456.26892
454.34803
452.41176
450.4611
448.49712
446.52095
444.53375
442.53674
440.53119
438.51837
436.49963
434.4763
432.44975
430.42134
428.39245
426.36447
424.33875
422.31666
420.29953
418.28868
416.28541
414.29096
412.30658
410.33344
408.37269
406.42545
404.49276
402.57564
400.67507
398.79195
396.92716
395.08151
393.25579
391.45071
389.66695
387.90514
386.16587
384.44969
382.75709
381.08855
379.44448
377.82529
376.23135
374.66298
373.12051
371.6044
464.38413
462.52169
460.64081
458.74212
456.82639
454.89451
452.94738
450.98602
449.01147
447.02486
445.02735
443.02015
441.00452
438.98175
436.95315
434.92008
432.88389
430.84595
428.80764
426.77033
424.7354
422.7042
420.67807
418.65833
416.64627
414.64315
412.65021
410.66863
408.69955
406.7441
404.80333
402.87825
400.96983
399.079
397.20663
395.35353
393.52048
391.70821
389.91739
388.14865
386.40259
384.67974
382.98062
381.30568
379.65536
378.03005
376.43012
374.85589
373.30769
371.78598
464.94367
463.07045
461.1789
459.2697
457.34363
455.40153
453.44435
451.47306
449.48872
447.49244
445.48537
443.46872
441.44375
439.41175
437.37403
435.33192
433.2868
431.24003
429.19298
427.14704
425.10357
423.06392
421.02945
419.00146
416.98126
414.97011
412.96923
410.97982
409.00303
407.03997
405.0917
403.15923
401.24355
399.34557
397.46616
395.60614
393.7663
391.94735
390.14997
388.37481
386.62244
384.89341
383.18823
381.50735
379.85122
378.22022
376.61471
375.03504
373.48151
371.95458
465.46189
463.57868
461.67725
459.75831
457.82264
455.87111
453.90461
451.92414
449.93073
447.92549
445.90958
443.8842
441.85059
439.81005
437.76388
435.71342
433.66004
431.6051
429.54997
427.49603
425.44466
423.39721
421.35501
419.3194
417.29167
415.27308
413.26486
411.2682
409.28427
407.31416
405.35895
403.41965
401.49724
399.59263
397.70671
395.84029
393.99415
392.16902
390.36557
388.58445
386.82623
385.09147
383.38067
381.69429
380.03277
378.39649
376.78581
375.20108
373.64261
372.11084
471.5063
469.67028
467.81494
465.94104
464.04849
462.13789
460.20994
458.26542
456.30515
454.33005
452.3411
450.33932
448.32581
446.30173
444.26828
442.2267
440.17827
438.1243
436.06613
434.00512
431.94263
429.88004
427.81873
425.76006
423.70539
421.65607
419.61342
417.57873
415.55326
413.53826
411.53492
409.54438
407.56777
405.60615
403.66053
401.7319
399.82118
397.92923
396.05689
394.20493
392.37408
390.56503
388.77839
387.01478
385.27471
383.55871
381.86724
380.20072
378.55956
376.9441
375.35468
373.79162
372.25537
473.80083
471.97518
470.1301
468.26591
466.3831
464.48189
462.56283
460.62657
458.67387
456.70555
454.72252
452.72574
450.71624
448.69512
446.66351
444.62262
442.57369
440.51799
438.45684
436.39156
434.32352
432.25408
430.18461
428.1165
426.0511
423.98979
421.9339
419.88475
417.84365
415.81186
413.7906
411.78109
409.78447
407.80186
405.83433
403.88289
401.94852
400.03215
398.13465
396.25685
394.39952
392.5634
390.74917
388.95745
387.18884
385.44388
383.72309
382.02691
380.35578
378.71009
377.09021
375.49646
373.92916
372.38876
474.24103
472.40681
470.55338
468.68098
466.79002
464.88085
462.95399
461.01007
459.04985
457.07412
455.08379
453.07982
451.06322
449.03508
446.99655
444.94882
442.89313
440.83075
438.76298
436.69117
434.61666
432.54083
430.46504
428.39067
426.31909
424.25167
422.18973
420.13462
418.08762
416.05
414.023
412.00781
410.00559
408.01746
406.04449
404.08769
402.14805
400.22648
398.32387
396.44104
394.57878
392.7378
390.91879
389.12239
387.34919
385.59972
383.8745
382.17399
380.49861
378.84876
377.22479
375.62705
374.05583
372.51159
474.64527
472.80321
470.94209
469.06214
467.16373
465.24725
463.31322
461.36228
459.39515
457.41262
455.41559
453.40501
451.38189
449.34732
447.30244
445.24843
443.18653
441.11802
439.04419
436.96638
434.88594
432.80424
430.72265
428.64254
426.56529
424.49225
422.42477
420.36418
418.31177
416.2688
414.23652
412.21613
410.20877
408.21558
406.23761
404.27589
402.3314
400.40507
398.49776
396.61032
394.74351
392.89808
391.07469
389.27399
387.49656
385.74295
384.01366
382.30916
380.62988
378.97619
377.34847
375.74703
374.17221
372.62443
475.01559
473.16636
471.29819
469.41131
467.50609
465.58292
463.64234
461.68496
459.71149
457.72274
455.71957
453.70293
451.67385
449.63339
447.58269
445.52294
443.45536
441.38123
439.30185
437.21855
435.13268
433.04561
430.95871
428.87335
426.7909
424.71273
422.64018
420.57457
418.5172
416.46934
414.43223
412.40707
410.39501
408.39717
406.41463
404.44841
402.49948
400.56878
398.65717
396.7655
394.89453
393.04501
391.21761
389.41296
387.63166
385.87425
384.14124
382.43308
380.7502
379.093
377.46182
375.857
374.27885
372.72781
475.35394
473.49815
471.62354
469.73034
467.81889
465.88963
463.94305
461.97979
460.00054
458.00609
455.99732
453.97516
451.94063
449.89479
447.83878
445.77378
443.70101
441.62176
439.53731
437.449
435.35817
433.2662
431.17444
429.08429
426.9971
424.91424
422.83705
420.76686
418.70497
416.65264
414.61112
412.5816
410.56525
408.56318
406.57646
404.60612
402.65314
400.71844
398.80291
396.90737
395.03261
393.17935
391.34827
389.54002
387.75518
385.99429
384.25787
382.54637
380.86021
379.19978
377.56544
375.95752
374.37632
372.82227
475.66218
473.80041
471.91994
470.02098
468.10387
466.16905
464.21702
462.2484
460.26388
458.26425
456.25037
454.22318
452.18369
450.13295
448.0721
446.00233
443.92484
441.84092
439.75185
437.65898
435.56364
433.4672
431.37104
429.27652
427.18501
425.09788
423.01648
420.94212
418.8761
416.81971
414.77417
412.74069
410.72042
408.71449
406.72397
404.74988
402.7932
400.85487
398.93576
397.0367
395.15847
393.30181
391.46739
389.65585
387.86778
386.10373
384.36419
382.64963
380.96048
379.29711
377.65988
376.04912
374.46512
372.90832
475.94212
474.07491
472.18911
470.28491
468.36267
466.4228
464.46582
462.49234
460.50304
458.4987
456.48019
454.44843
452.40443
450.34925
448.28401
446.2099
444.12813
442.03997
439.94672
437.8497
435.75027
433.64978
431.54961
429.45113
427.3557
425.2647
423.17947
421.10132
419.03157
416.97148
414.9223
412.88521
410.8614
408.85196
406.85799
404.8805
402.92047
400.97883
399.05647
397.15421
395.27284
393.41308
391.57562
389.7611
387.97009
386.20316
384.46079
382.74346
381.05158
379.38554
377.74568
376.13232
374.54577
372.98643
476.19545
474.32332
472.43268
470.52376
468.59687
466.65244
464.69098
462.71309
460.71946
458.71087
456.68817
454.65228
452.6042
450.545
448.47579
446.39776
444.31211
442.22012
440.12309
438.02232
435.91919
433.81503
431.71124
429.60917
427.51021
425.4157
423.32701
421.24544
419.17231
417.10888
415.0564
413.01606
410.98903
408.97643
406.97933
404.99876
403.03569
401.09107
399.16577
397.26062
395.37639
393.51384
391.67362
389.85639
388.06273
386.29319
384.54826
382.82841
381.13406
379.46559
377.82334
376.20764
374.61875
373.05708
476.42379
474.54723
472.65224
470.73904
468.80796
466.85942
464.89393
462.91208
460.91455
458.90213
456.87564
454.83603
452.78428
450.72146
448.64867
446.5671
444.47797
442.38253
440.28208
438.17794
436.07147
433.96402
431.85696
429.75167
427.64951
425.55185
423.46003
421.37539
419.29921
417.23277
415.17732
413.13405
411.10412
409.08866
407.08875
405.1054
403.13961
401.19229
399.26434
397.35657
395.46978
393.6047
391.762
389.94233
388.14628
386.37438
384.62714
382.90502
381.20843
379.53777
377.89337
376.27554
374.68454
373.12072
476.62871
474.74816
472.84926
470.93224
468.9974
467.04517
465.07606
463.09065
461.08962
459.07376
457.04388
455.00093
452.94589
450.87982
448.80382
446.71909
444.62682
442.52828
440.42477
438.31761
436.20815
434.09774
431.98775
429.87957
427.77455
425.67406
423.57944
421.49203
419.41312
417.34399
415.28587
413.23997
411.20745
409.18943
407.18699
405.20115
403.2329
401.28317
399.35283
397.44273
395.55363
393.68628
391.84136
390.01949
388.22128
386.44727
384.69795
382.97379
381.2752
379.60256
377.95622
376.33648
374.74358
373.1778
476.81168
474.92756
473.02518
471.10473
469.16654
467.21102
465.23867
463.25008
461.24594
459.227
457.1941
455.14817
453.09019
451.02121
448.94236
446.85479
444.75973
442.65843
440.55219
438.44234
436.3302
434.21715
432.10455
429.99379
427.88621
425.7832
423.68609
421.59621
419.51486
417.44332
415.38282
413.33457
411.29974
409.27943
407.27474
405.28668
403.31624
401.36434
399.43188
397.51969
395.62853
393.75916
391.91224
390.08842
388.28828
386.51238
384.7612
383.03521
381.33483
379.66043
378.01236
376.39091
374.79631
373.22877
476.97409
475.08681
473.18133
471.25784
469.31667
467.35823
465.38301
463.39161
461.38469
459.36303
457.32745
455.27887
453.21828
451.14673
449.06534
446.97526
444.87772
442.77397
440.66531
438.55306
436.43856
434.32317
432.20825
430.09519
427.98536
425.8801
423.78078
421.68871
419.6052
417.53152
415.46891
413.41858
411.38169
409.35936
407.35266
405.36263
403.39024
401.43644
399.50209
397.58804
395.69505
393.82388
391.97519
390.14963
388.34778
386.57019
384.81736
383.08975
381.38777
379.71181
378.06219
376.43923
374.84315
373.27414
371.7323
477.11728
475.22721
473.31899
471.39283
469.44904
467.48802
465.51027
463.51638
461.50703
459.48296
457.44501
455.3941
453.33121
451.2574
449.17376
447.08148
444.98176
442.87585
440.76506
438.65069
436.5341
434.41665
432.2997
430.18462
428.07279
425.96556
423.86428
421.77029
419.68487
417.60931
415.54484
413.49268
411.45397
409.42985
407.42139
405.42962
403.45552
401.50003
399.56402
397.64832
395.75373
393.88097
392.03072
390.20362
388.40026
386.62119
384.86689
383.13785
381.43446
379.75711
378.10614
376.48184
374.88445
373.31416
371.77131
477.24252
475.35
473.4394
471.51089
469.5648
467.60152
465.62157
463.62551
461.61402
459.58785
457.54783
455.49489
453.42999
451.35419
449.2686
447.17438
445.07275
442.96496
440.8523
438.73609
436.61768
434.49842
432.37968
430.26284
428.14927
426.04032
423.93734
421.84166
419.75457
417.67737
415.61128
413.55751
411.51722
409.49154
407.48153
405.48824
403.51265
401.55567
399.61821
397.70108
395.80507
393.93092
392.0793
390.25086
388.44618
386.6658
384.91023
383.17992
381.4753
379.79674
378.14457
376.5191
374.92059
373.34921
371.8053
477.35099
475.45636
473.54368
471.61314
469.66506
467.69984
465.71797
463.72003
461.70669
459.6787
457.63689
455.58218
453.51554
451.43803
449.35074
447.25485
445.15157
443.04214
440.92787
438.81007
436.69008
434.56926
432.44898
430.33061
428.21553
426.10508
424.00063
421.90349
419.81497
417.73634
415.66884
413.61368
411.57202
409.54499
407.53365
405.53904
403.56215
401.60389
399.66517
397.7468
395.84957
393.97421
392.1214
390.29179
388.48596
386.70446
384.94777
383.21637
381.51068
379.83106
378.17786
376.55138
374.95188
373.37958
371.83478
370.31777
477.44384
475.5474
473.63294
471.70066
469.75087
467.78398
465.80047
463.80092
461.786
459.75646
457.71312
455.6569
453.58877
451.50979
449.42106
447.32373
445.21904
443.10822
440.99256
438.87339
436.75205
434.6299
432.5083
430.38863
428.27226
426.16054
424.05482
421.95644
419.86668
417.78684
415.71814
413.66179
411.61896
409.59076
407.57828
405.58255
403.60454
401.64519
399.70538
397.78595
395.88767
394.01128
392.15746
390.32685
388.52003
386.73755
384.97992
383.24758
381.54096
379.86043
378.20635
376.579
374.97867
373.40557
371.85999
370.34241
477.52213
475.62416
473.7082
471.77446
469.82323
467.85493
465.87004
463.86913
461.85288
459.82202
457.77739
455.7199
453.65052
451.5703
449.48035
447.38182
445.27593
443.16393
441.04712
438.9268
436.80432
434.68105
432.55834
430.43757
428.32011
426.20731
424.10053
422.0011
419.91031
417.82943