/*--------------------------------*- C++ -*----------------------------------*\
| =========                 |                                                 |
| \\      /  F ield         | OpenFOAM: The Open Source CFD Toolbox           |
|  \\    /   O peration     | Version:  2312                                  |
|   \\  /    A nd           | Website:  www.openfoam.com                      |
|    \\/     M anipulation  |                                                 |
\*---------------------------------------------------------------------------*/
FoamFile
{
    version     2.0;
    format      ascii;
    arch        "LSB;label=32;scalar=64";
    class       volVectorField;
    location    "0.1";
    object      U;
}
// * * * * * * * * * * * * * * * * * * * * * * * * * * * * * * * * * * * * * //

dimensions      [0 1 -1 0 0 0 0];

internalField   nonuniform List<vector> 
3250
(
(0.92168427 -1.0944174 0)
(0.91001728 -1.0918378 0)
(0.89827889 -1.0887778 0)
(0.88648266 -1.0852467 0)
(0.87464064 -1.0812543 0)
(0.8627647 -1.0768114 0)
(0.85086662 -1.0719294 0)
(0.83895793 -1.0666202 0)
(0.82704986 -1.0608962 0)
(0.81515333 -1.0547702 0)
(0.80327888 -1.0482556 0)
(0.79143674 -1.041366 0)
(0.77963673 -1.0341156 0)
(0.76788833 -1.0265188 0)
(0.75620064 -1.0185902 0)
(0.74458238 -1.0103449 0)
(0.73304189 -1.001798 0)
(0.72158715 -0.99296468 0)
(0.71022575 -0.98386051 0)
(0.69896495 -0.97450096 0)
(0.68781161 -0.96490157 0)
(0.67677229 -0.95507787 0)
(0.6658532 -0.94504536 0)
(0.65506023 -0.93481943 0)
(0.64439894 -0.92441536 0)
(0.63387462 -0.91384828 0)
(0.62349226 -0.9031331 0)
(0.6132566 -0.8922845 0)
(0.60317209 -0.88131691 0)
(0.59324298 -0.87024446 0)
(0.58347326 -0.85908094 0)
(0.57386672 -0.8478398 0)
(0.56442694 -0.83653413 0)
(0.55515732 -0.82517658 0)
(0.54606109 -0.81377944 0)
(0.5371413 -0.80235453 0)
(0.52840084 -0.79091324 0)
(0.51984249 -0.7794665 0)
(0.51146886 -0.7680248 0)
(0.50328246 -0.75659814 0)
(0.49528569 -0.74519605 0)
(0.48748091 -0.73382761 0)
(0.47987051 -0.72250136 0)
(0.47245664 -0.71122507 0)
(0.9269306 -1.0469009 0)
(0.91512727 -1.0443801 0)
(0.9032534 -1.0414035 0)
(0.89132289 -1.0379801 0)
(0.87934798 -1.0341197 0)
(0.86734065 -1.0298323 0)
(0.85531281 -1.0251289 0)
(0.8432761 -1.0200207 0)
(0.83124183 -1.0145194 0)
(0.81922097 -1.0086373 0)
(0.80722412 -1.0023871 0)
(0.79526156 -0.99578159 0)
(0.78334315 -0.98883431 0)
(0.77147841 -0.98155889 0)
(0.75967646 -0.97396929 0)
(0.74794605 -0.9660797 0)
(0.73629553 -0.9579045 0)
(0.7247329 -0.94945822 0)
(0.71326577 -0.94075554 0)
(0.70190139 -0.93181116 0)
(0.69064665 -0.92263985 0)
(0.67950808 -0.91325638 0)
(0.6684919 -0.90367546 0)
(0.65760399 -0.89391172 0)
(0.6468499 -0.88397968 0)
(0.63623492 -0.8738937 0)
(0.62576403 -0.86366797 0)
(0.61544194 -0.85331642 0)
(0.60527311 -0.84285278 0)
(0.59526176 -0.83229046 0)
(0.58541187 -0.82164257 0)
(0.57572721 -0.81092189 0)
(0.56621137 -0.80014084 0)
(0.5568677 -0.78931145 0)
(0.54769943 -0.77844537 0)
(0.53870956 -0.76755383 0)
(0.52990099 -0.75664763 0)
(0.52127643 -0.74573713 0)
(0.51283848 -0.73483227 0)
(0.50458959 -0.72394252 0)
(0.49653206 -0.7130769 0)
(0.48866809 -0.70224399 0)
(0.48100004 -0.691452 0)
(0.47353044 -0.68070859 0)
(0.93680515 -1.0151147 0)
(0.92476691 -1.01259 0)
(0.91266017 -1.0096267 0)
(0.90049889 -1.0062336 0)
(0.88829547 -1.00242 0)
(0.87606209 -0.99819585 0)
(0.86381079 -0.99357155 0)
(0.85155334 -0.98855803 0)
(0.83930118 -0.9831667 0)
(0.82706536 -0.97740936 0)
(0.81485659 -0.97129826 0)
(0.8026852 -0.96484598 0)
(0.79056113 -0.95806547 0)
(0.77849394 -0.95096996 0)
(0.76649281 -0.94357295 0)
(0.75456653 -0.93588817 0)
(0.74272347 -0.92792951 0)
(0.73097167 -0.91971104 0)
(0.71931874 -0.91124692 0)
(0.70777196 -0.9025514 0)
(0.69633822 -0.89363873 0)
(0.68502407 -0.88452318 0)
(0.6738357 -0.87521896 0)
(0.66277901 -0.86574021 0)
(0.65185954 -0.85610095 0)
(0.64108256 -0.84631505 0)
(0.63045304 -0.8363962 0)
(0.61997568 -0.82635786 0)
(0.60965492 -0.81621327 0)
(0.59949497 -0.80597536 0)
(0.58949979 -0.79565678 0)
(0.57967314 -0.78526986 0)
(0.57001857 -0.77482657 0)
(0.56053944 -0.76433849 0)
(0.55123892 -0.75381686 0)
(0.54212002 -0.74327247 0)
(0.53318557 -0.73271572 0)
(0.52443827 -0.72215659 0)
(0.51588067 -0.71160462 0)
(0.50751518 -0.70106891 0)
(0.49934406 -0.69055814 0)
(0.49136943 -0.68008054 0)
(0.48359355 -0.66964394 0)
(0.47601902 -0.65925578 0)
(0.95054672 -0.98473059 0)
(0.93818585 -0.98218798 0)
(0.92575961 -0.97922382 0)
(0.91328204 -0.97584654 0)
(0.90076568 -0.97206516 0)
(0.88822286 -0.96788929 0)
(0.87566579 -0.96332901 0)
(0.86310638 -0.95839488 0)
(0.8505562 -0.95309795 0)
(0.83802642 -0.94744966 0)
(0.82552786 -0.94146184 0)
(0.81307092 -0.93514669 0)
(0.80066564 -0.92851674 0)
(0.78832164 -0.92158479 0)
(0.77604815 -0.9143639 0)
(0.76385401 -0.90686736 0)
(0.75174763 -0.8991086 0)
(0.73973708 -0.89110123 0)
(0.72782999 -0.88285894 0)
(0.71603366 -0.87439549 0)
(0.70435498 -0.86572467 0)
(0.69280051 -0.85686025 0)
(0.68137643 -0.84781598 0)
(0.67008864 -0.83860551 0)
(0.65894266 -0.82924236 0)
(0.64794374 -0.81973994 0)
(0.63709684 -0.81011145 0)
(0.62640664 -0.80036989 0)
(0.61587755 -0.79052802 0)
(0.60551375 -0.78059832 0)
(0.59531918 -0.77059299 0)
(0.58529758 -0.76052389 0)
(0.57545245 -0.75040257 0)
(0.56578712 -0.74024018 0)
(0.55630475 -0.73004753 0)
(0.54700828 -0.71983501 0)
(0.53790052 -0.70961262 0)
(0.52898412 -0.69938995 0)
(0.52026158 -0.68917617 0)
(0.51173526 -0.67898001 0)
(0.50340738 -0.66880982 0)
(0.49527999 -0.65867348 0)
(0.48735531 -0.64857851 0)
(0.47963594 -0.638532 0)
(0.96758112 -0.9555358 0)
(0.9548216 -0.95296071 0)
(0.9420008 -0.94998071 0)
(0.92913286 -0.94660396 0)
(0.91623044 -0.94283924 0)
(0.90330607 -0.93869582 0)
(0.89037211 -0.93418348 0)
(0.87744064 -0.92931245 0)
(0.86452334 -0.92409343 0)
(0.85163154 -0.91853749 0)
(0.83877614 -0.91265611 0)
(0.82596765 -0.9064611 0)
(0.81321619 -0.89996459 0)
(0.80053146 -0.89317898 0)
(0.78792274 -0.88611692 0)
(0.77539893 -0.87879125 0)
(0.76296849 -0.871215 0)
(0.7506395 -0.86340132 0)
(0.73841963 -0.85536346 0)
(0.72631618 -0.84711471 0)
(0.71433606 -0.83866842 0)
(0.70248581 -0.83003789 0)
(0.69077163 -0.8212364 0)
(0.67919937 -0.81227714 0)
(0.66777456 -0.80317319 0)
(0.65650242 -0.79393745 0)
(0.64538788 -0.7845827 0)
(0.63443558 -0.77512147 0)
(0.62364992 -0.76556605 0)
(0.61303502 -0.7559285 0)
(0.60259481 -0.74622056 0)
(0.59233296 -0.73645367 0)
(0.58225295 -0.72663894 0)
(0.57235808 -0.71678711 0)
(0.56265142 -0.70690857 0)
(0.5531359 -0.69701331 0)
(0.54381427 -0.68711095 0)
(0.53468911 -0.67721069 0)
(0.52576289 -0.66732132 0)
(0.5170379 -0.65745123 0)
(0.50851628 -0.6476084 0)
(0.50020005 -0.6378004 0)
(0.49209134 -0.62803441 0)
(0.48419274 -0.61831723 0)
(0.98737708 -0.92764208 0)
(0.97415373 -0.92502292 0)
(0.96087407 -0.922015 0)
(0.94755233 -0.91862628 0)
(0.93420136 -0.9148653 0)
(0.92083386 -0.91074104 0)
(0.90746236 -0.90626298 0)
(0.8940991 -0.90144105 0)
(0.88075591 -0.8962856 0)
(0.86744421 -0.89080738 0)
(0.85417503 -0.88501751 0)
(0.84095899 -0.87892744 0)
(0.82780628 -0.87254892 0)
(0.81472668 -0.86589398 0)
(0.80172954 -0.85897486 0)
(0.78882378 -0.85180402 0)
(0.77601793 -0.84439404 0)
(0.76332009 -0.83675768 0)
(0.75073795 -0.82890774 0)
(0.7382788 -0.82085711 0)
(0.72594958 -0.81261867 0)
(0.71375681 -0.80420531 0)
(0.70170667 -0.79562984 0)
(0.68980501 -0.78690502 0)
(0.67805731 -0.77804347 0)
(0.66646878 -0.76905768 0)
(0.6550443 -0.75995995 0)
(0.64378848 -0.7507624 0)
(0.63270567 -0.74147688 0)
(0.62179995 -0.73211501 0)
(0.6110752 -0.72268811 0)
(0.60053503 -0.7132072 0)
(0.59018289 -0.70368297 0)
(0.580022 -0.69412577 0)
(0.5700554 -0.68454557 0)
(0.56028595 -0.674952 0)
(0.55071632 -0.66535427 0)
(0.54134906 -0.65576122 0)
(0.53218654 -0.64618127 0)
(0.523231 -0.63662247 0)
(0.51448452 -0.62709245 0)
(0.505949 -0.61759846 0)
(0.49762654 -0.60814734 0)
(0.48951963 -0.59874559 0)
(1.0094485 -0.90092002 0)
(0.99570597 -0.89824823 0)
(0.98191298 -0.89520334 0)
(0.96808377 -0.89179319 0)
(0.95423141 -0.88802607 0)
(0.9403688 -0.88391071 0)
(0.92650865 -0.87945629 0)
(0.91266334 -0.87467245 0)
(0.89884483 -0.86956922 0)
(0.88506466 -0.86415704 0)
(0.87133398 -0.8584467 0)
(0.85766349 -0.85244929 0)
(0.84406346 -0.84617621 0)
(0.83054374 -0.83963912 0)
(0.81711375 -0.8328499 0)
(0.80378244 -0.82582059 0)
(0.79055839 -0.81856342 0)
(0.7774497 -0.81109071 0)
(0.76446409 -0.80341487 0)
(0.75160887 -0.79554837 0)
(0.73889094 -0.78750368 0)
(0.72631683 -0.77929326 0)
(0.71389269 -0.77092951 0)
(0.70162434 -0.76242474 0)
(0.68951724 -0.75379118 0)
(0.67757654 -0.74504087 0)
(0.66580709 -0.7361857 0)
(0.65421345 -0.72723735 0)
(0.6427999 -0.71820727 0)
(0.63157049 -0.70910665 0)
(0.62052901 -0.69994642 0)
(0.60967905 -0.69073718 0)
(0.59902396 -0.68148922 0)
(0.58856692 -0.67221251 0)
(0.57831088 -0.66291663 0)
(0.56825864 -0.65361082 0)
(0.55841281 -0.64430394 0)
(0.54877585 -0.63500444 0)
(0.53935005 -0.62572042 0)
(0.53013758 -0.61645956 0)
(0.52114042 -0.60722916 0)
(0.51236041 -0.59803613 0)
(0.50379952 -0.58888701 0)
(0.4954602 -0.57978799 0)
(1.0333546 -0.8752308 0)
(1.0190466 -0.87250057 0)
(1.0046948 -0.86941248 0)
(0.99031336 -0.86597421 0)
(0.9759156 -0.86219384 0)
(0.96151466 -0.85807986 0)
(0.94712344 -0.85364119 0)
(0.93275442 -0.84888717 0)
(0.9184197 -0.84382755 0)
(0.90413094 -0.83847246 0)
(0.88989937 -0.83283236 0)
(0.87573578 -0.82691803 0)
(0.86165052 -0.82074053 0)
(0.8476535 -0.81431114 0)
(0.83375418 -0.80764139 0)
(0.81996157 -0.80074296 0)
(0.80628425 -0.79362769 0)
(0.79273036 -0.78630752 0)
(0.77930761 -0.77879447 0)
(0.76602331 -0.77110061 0)
(0.75288435 -0.76323801 0)
(0.73989724 -0.75521871 0)
(0.72706809 -0.74705473 0)
(0.7144027 -0.73875797 0)
(0.70190647 -0.73034023 0)
(0.6895845 -0.72181316 0)
(0.6774416 -0.71318824 0)
(0.66548226 -0.70447675 0)
(0.6537107 -0.69568972 0)
(0.64213091 -0.68683797 0)
(0.63074661 -0.677932 0)
(0.6195613 -0.66898204 0)
(0.60857827 -0.65999801 0)
(0.59780062 -0.65098946 0)
(0.58723123 -0.64196563 0)
(0.57687281 -0.63293539 0)
(0.56672789 -0.62390721 0)
(0.55679884 -0.61488923 0)
(0.54708786 -0.60588917 0)
(0.53759704 -0.59691439 0)
(0.52832825 -0.58797185 0)
(0.51928323 -0.57906815 0)
(0.51046387 -0.5702095 0)
(0.5018725 -0.56140178 0)
(1.0586978 -0.85046018 0)
(1.0437858 -0.84766775 0)
(1.0288379 -0.84453252 0)
(1.0138677 -0.84106182 0)
(0.99888858 -0.8372635 0)
(0.98391413 -0.8331458 0)
(0.96895733 -0.82871737 0)
(0.95403081 -0.82398731 0)
(0.93914676 -0.81896507 0)
(0.92431695 -0.81366049 0)
(0.90955268 -0.80808374 0)
(0.89486484 -0.80224525 0)
(0.88026384 -0.79615577 0)
(0.86575963 -0.78982624 0)
(0.85136172 -0.78326783 0)
(0.83707915 -0.77649187 0)
(0.8229205 -0.76950983 0)
(0.80889394 -0.76233328 0)
(0.79500717 -0.75497387 0)
(0.78126748 -0.74744327 0)
(0.76768174 -0.73975318 0)
(0.75425642 -0.73191525 0)
(0.74099762 -0.72394111 0)
(0.72791106 -0.71584226 0)
(0.7150021 -0.70763012 0)
(0.7022758 -0.69931594 0)
(0.68973687 -0.6909108 0)
(0.67738975 -0.6824256 0)
(0.6652386 -0.673871 0)
(0.6532873 -0.66525741 0)
(0.64153951 -0.65659496 0)
(0.62999866 -0.64789351 0)
(0.61866794 -0.63916259 0)
(0.60755036 -0.63041141 0)
(0.59664871 -0.62164883 0)
(0.58596562 -0.61288335 0)
(0.57550351 -0.60412313 0)
(0.56526467 -0.59537593 0)
(0.5552512 -0.58664916 0)
(0.54546506 -0.57794982 0)
(0.53590806 -0.56928457 0)
(0.5265818 -0.56065968 0)
(0.51748805 -0.55208107 0)
(0.50862907 -0.54355429 0)
(1.1160709 -0.83120825 0)
(1.1006244 -0.82902744 0)
(1.0851204 -0.8265061 0)
(1.0695742 -0.82364985 0)
(1.0539999 -0.82046549 0)
(1.0384114 -0.81696007 0)
(1.0228225 -0.81314114 0)
(1.0072466 -0.80901669 0)
(0.99169696 -0.80459512 0)
(0.97618625 -0.79988526 0)
(0.96072679 -0.7948963 0)
(0.94533042 -0.78963778 0)
(0.93000855 -0.78411956 0)
(0.9147721 -0.77835178 0)
(0.89963153 -0.77234484 0)
(0.88459685 -0.76610937 0)
(0.8696776 -0.7596562 0)
(0.85488281 -0.7529963 0)
(0.84022111 -0.74614079 0)
(0.82570063 -0.73910088 0)
(0.81132907 -0.73188787 0)
(0.79711369 -0.72451304 0)
(0.78306134 -0.71698774 0)
(0.76917844 -0.70932324 0)
(0.75547104 -0.70153078 0)
(0.7419448 -0.69362151 0)
(0.72860503 -0.68560644 0)
(0.71545671 -0.67749646 0)
(0.70250449 -0.66930229 0)
(0.68975272 -0.66103443 0)
(0.67720547 -0.65270317 0)
(0.66486655 -0.64431855 0)
(0.65273952 -0.63589035 0)
(0.64082772 -0.62742806 0)
(0.62913424 -0.61894084 0)
(0.617662 -0.61043755 0)
(0.60641369 -0.60192671 0)
(0.59539183 -0.59341648 0)
(0.58459875 -0.58491466 0)
(0.57403661 -0.57642869 0)
(0.56370742 -0.56796564 0)
(0.55361304 -0.55953222 0)
(0.54375514 -0.55113474 0)
(0.53413523 -0.54277917 0)
(0.52475494 -0.53447111 0)
(0.51561641 -0.52621583 0)
(1.1445952 -0.80814702 0)
(1.1284736 -0.80587475 0)
(1.1123029 -0.80327596 0)
(1.0960985 -0.80035654 0)
(1.0798748 -0.79712311 0)
(1.0636455 -0.79358259 0)
(1.0474248 -0.7897423 0)
(1.0312261 -0.78560998 0)
(1.0150629 -0.7811938 0)
(0.99894773 -0.77650229 0)
(0.98289315 -0.77154439 0)
(0.96691103 -0.76632935 0)
(0.95101283 -0.76086672 0)
(0.93520953 -0.75516634 0)
(0.91951163 -0.7492383 0)
(0.90392916 -0.7430929 0)
(0.88847166 -0.73674063 0)
(0.8731482 -0.73019214 0)
(0.85796738 -0.72345821 0)
(0.84293732 -0.71654969 0)
(0.8280657 -0.70947752 0)
(0.81335975 -0.70225265 0)
(0.79882626 -0.69488605 0)
(0.78447162 -0.68738864 0)
(0.7703018 -0.67977129 0)
(0.75632241 -0.67204478 0)
(0.74253868 -0.66421978 0)
(0.72895552 -0.65630681 0)
(0.71557747 -0.64831621 0)
(0.70240882 -0.64025813 0)
(0.68945355 -0.63214251 0)
(0.67671535 -0.62397902 0)
(0.6641977 -0.6157771 0)
(0.65190382 -0.60754588 0)
(0.63983671 -0.59929418 0)
(0.62799918 -0.59103052 0)
(0.61639381 -0.58276307 0)
(0.60502301 -0.57449967 0)
(0.593889 -0.56624778 0)
(0.58299382 -0.55801454 0)
(0.57233937 -0.54980668 0)
(0.56192738 -0.54163059 0)
(0.55175942 -0.53349229 0)
(0.54183684 -0.52539745 0)
(0.53216117 -0.51735135 0)
(0.52273443 -0.50935898 0)
(1.1736311 -0.78572186 0)
(1.156816 -0.78336099 0)
(1.1399607 -0.78068745 0)
(1.1230808 -0.77770717 0)
(1.1061906 -0.77442657 0)
(1.0893043 -0.7708524 0)
(1.0724359 -0.76699178 0)
(1.0555992 -0.76285221 0)
(1.0388074 -0.75844162 0)
(1.0220734 -0.75376831 0)
(1.0054098 -0.74884091 0)
(0.98882838 -0.74366839 0)
(0.97234074 -0.73826003 0)
(0.95595786 -0.73262536 0)
(0.93969028 -0.72677415 0)
(0.92354804 -0.7207164 0)
(0.90754067 -0.71446227 0)
(0.89167725 -0.70802209 0)
(0.87596635 -0.70140628 0)
(0.86041606 -0.69462539 0)
(0.84503404 -0.68768999 0)
(0.82982745 -0.6806107 0)
(0.81480305 -0.67339814 0)
(0.79996715 -0.66606288 0)
(0.78532567 -0.65861544 0)
(0.77088414 -0.65106626 0)
(0.7566477 -0.64342564 0)
(0.74262116 -0.63570376 0)
(0.728809 -0.62791061 0)
(0.71521539 -0.620056 0)
(0.7018442 -0.61214952 0)
(0.68869905 -0.6042005 0)
(0.67578328 -0.59621803 0)
(0.66310001 -0.5882109 0)
(0.65065213 -0.58018762 0)
(0.63844233 -0.57215636 0)
(0.62647307 -0.56412498 0)
(0.61474665 -0.55610098 0)
(0.60326516 -0.54809152 0)
(0.59203052 -0.54010341 0)
(0.58104451 -0.53214309 0)
(0.57030873 -0.52421663 0)
(0.55982462 -0.51632976 0)
(0.54959342 -0.50848784 0)
(0.5396165 -0.50069588 0)
(0.52989575 -0.49295857 0)
(1.2029161 -0.76385753 0)
(1.1853947 -0.76141244 0)
(1.1678427 -0.75866833 0)
(1.1502756 -0.75563097 0)
(1.1327078 -0.75230657 0)
(1.1151536 -0.74870168 0)
(1.0976272 -0.74482322 0)
(1.0801424 -0.7406785 0)
(1.0627126 -0.73627519 0)
(1.0453507 -0.73162132 0)
(1.0280692 -0.72672529 0)
(1.0108801 -0.72159577 0)
(0.99379489 -0.71624175 0)
(0.97682466 -0.71067247 0)
(0.95997992 -0.70489741 0)
(0.9432707 -0.69892623 0)
(0.92670654 -0.69276881 0)
(0.91029649 -0.68643514 0)
(0.89404908 -0.67993533 0)
(0.87797237 -0.67327958 0)
(0.86207397 -0.66647816 0)
(0.84636099 -0.65954133 0)
(0.83084011 -0.65247937 0)
(0.8155176 -0.64530254 0)
(0.80039927 -0.638021 0)
(0.78549056 -0.63064486 0)
(0.77079656 -0.62318409 0)
(0.75632195 -0.61564851 0)
(0.74207113 -0.6080478 0)
(0.72804814 -0.60039142 0)
(0.71425676 -0.59268862 0)
(0.70070048 -0.58494842 0)
(0.68738254 -0.57717957 0)
(0.67430594 -0.56939054 0)
(0.66147343 -0.56158952 0)
(0.6488876 -0.55378435 0)
(0.63655077 -0.54598259 0)
(0.62446512 -0.53819144 0)
(0.6126326 -0.53041773 0)
(0.60105503 -0.52266798 0)
(0.58973404 -0.51494832 0)
(0.57867109 -0.50726454 0)
(0.56786751 -0.49962207 0)
(0.55732438 -0.49202599 0)
(0.54704294 -0.48448102 0)
(0.53702495 -0.47699156 0)
(1.2322197 -0.74248869 0)
(1.2139847 -0.73996511 0)
(1.1957289 -0.73715578 0)
(1.177468 -0.73406628 0)
(1.1592163 -0.73070263 0)
(1.1409885 -0.72707117 0)
(1.1227987 -0.72317861 0)
(1.1046608 -0.71903204 0)
(1.0865882 -0.71463889 0)
(1.068594 -0.71000696 0)
(1.0506905 -0.70514435 0)
(1.0328898 -0.70005948 0)
(1.0152034 -0.69476105 0)
(0.99764245 -0.68925802 0)
(0.98021739 -0.68355955 0)
(0.96293826 -0.67767504 0)
(0.94581455 -0.67161403 0)
(0.92885529 -0.6653862 0)
(0.91206896 -0.65900135 0)
(0.8954636 -0.65246937 0)
(0.87904672 -0.64580018 0)
(0.86282538 -0.63900376 0)
(0.8468062 -0.63209003 0)
(0.83099535 -0.62506893 0)
(0.81539856 -0.61795031 0)
(0.80002119 -0.61074393 0)
(0.7848682 -0.60345944 0)
(0.7699442 -0.59610635 0)
(0.75525344 -0.58869399 0)
(0.74079989 -0.58123152 0)
(0.72658719 -0.57372786 0)
(0.71261871 -0.56619172 0)
(0.69889757 -0.55863152 0)
(0.68542664 -0.55105543 0)
(0.67220855 -0.54347132 0)
(0.65924574 -0.53588674 0)
(0.64654043 -0.52830893 0)
(0.63409464 -0.5207448 0)
(0.62191021 -0.51320089 0)
(0.6099888 -0.50568342 0)
(0.59833192 -0.49819824 0)
(0.58694089 -0.49075085 0)
(0.5758169 -0.48334639 0)
(0.56496089 -0.47598967 0)
(0.55437395 -0.46868513 0)
(0.54405772 -0.46143692 0)
(1.2613414 -0.72155902 0)
(1.24239 -0.7189637 0)
(1.2234281 -0.71609548 0)
(1.2044714 -0.71295977 0)
(1.1855344 -0.70956241 0)
(1.1666316 -0.70590953 0)
(1.1477774 -0.70200761 0)
(1.1289856 -0.6978635 0)
(1.1102698 -0.69348441 0)
(1.0916429 -0.68887786 0)
(1.0731173 -0.68405172 0)
(1.0547052 -0.67901413 0)
(1.0364181 -0.67377352 0)
(1.0182669 -0.66833854 0)
(1.0002622 -0.6627181 0)
(0.9824139 -0.65692127 0)
(0.96473158 -0.6509573 0)
(0.94722414 -0.64483558 0)
(0.92990005 -0.63856559 0)
(0.91276725 -0.6321569 0)
(0.8958332 -0.62561914 0)
(0.87910489 -0.61896195 0)
(0.86258884 -0.61219496 0)
(0.84629113 -0.60532778 0)
(0.83021742 -0.59836993 0)
(0.81437294 -0.59133088 0)
(0.79876256 -0.58421994 0)
(0.78339077 -0.57704633 0)
(0.76826172 -0.56981905 0)
(0.75337924 -0.56254695 0)
(0.73874685 -0.55523866 0)
(0.72436779 -0.54790255 0)
(0.71024506 -0.54054676 0)
(0.69638139 -0.53317917 0)
(0.68277928 -0.52580732 0)
(0.66944103 -0.5184385 0)
(0.65636872 -0.51107964 0)
(0.64356425 -0.50373735 0)
(0.6310293 -0.49641792 0)
(0.6187654 -0.48912726 0)
(0.6067739 -0.48187095 0)
(0.59505602 -0.47465422 0)
(0.58361277 -0.46748194 0)
(0.57244498 -0.46035864 0)
(0.56155356 -0.45328851 0)
(0.55094001 -0.44627542 0)
(1.2901083 -0.70102039 0)
(1.270442 -0.69836094 0)
(1.2507759 -0.69544097 0)
(1.2311255 -0.69226581 0)
(1.2115055 -0.6888411 0)
(1.1919304 -0.68517274 0)
(1.1724147 -0.68126697 0)
(1.1529722 -0.67713044 0)
(1.1336163 -0.67277007 0)
(1.1143602 -0.66819318 0)
(1.0952162 -0.66340734 0)
(1.0761964 -0.65842044 0)
(1.0573123 -0.65324064 0)
(1.0385748 -0.64787632 0)
(1.0199944 -0.64233609 0)
(1.0015811 -0.63662873 0)
(0.98334434 -0.63076321 0)
(0.96529294 -0.62474862 0)
(0.94743531 -0.61859413 0)
(0.92977933 -0.61230902 0)
(0.9123324 -0.6059026 0)
(0.89510139 -0.59938422 0)
(0.87809276 -0.59276319 0)
(0.86131248 -0.58604881 0)
(0.8447661 -0.57925032 0)
(0.82845876 -0.57237686 0)
(0.8123952 -0.56543744 0)
(0.79657979 -0.55844097 0)
(0.78101657 -0.55139617 0)
(0.76570923 -0.54431157 0)
(0.75066117 -0.5371955 0)
(0.73587549 -0.53005605 0)
(0.72135506 -0.52290106 0)
(0.70710247 -0.51573811 0)
(0.69312008 -0.50857448 0)
(0.67941006 -0.50141715 0)
(0.66597433 -0.49427279 0)
(0.65281465 -0.48714773 0)
(0.63993256 -0.48004798 0)
(0.62732945 -0.47297918 0)
(0.61500653 -0.46594664 0)
(0.60296486 -0.45895534 0)
(0.59120532 -0.45200987 0)
(0.57972859 -0.44511452 0)
(0.56853542 -0.43827321 0)
(0.55762717 -0.43148956 0)
(1.3183728 -0.68083226 0)
(1.2979969 -0.67811691 0)
(1.2776323 -0.67515299 0)
(1.257294 -0.6719458 0)
(1.2369968 -0.66850072 0)
(1.2167556 -0.66482345 0)
(1.1965846 -0.66091999 0)
(1.1764978 -0.65679672 0)
(1.1565086 -0.65246037 0)
(1.1366299 -0.64791798 0)
(1.1168742 -0.64317688 0)
(1.0972535 -0.6382447 0)
(1.0777793 -0.63312931 0)
(1.0584624 -0.62783884 0)
(1.0393134 -0.62238162 0)
(1.020342 -0.61676614 0)
(1.0015577 -0.61100107 0)
(0.98296928 -0.60509522 0)
(0.96458503 -0.59905748 0)
(0.94641276 -0.59289682 0)
(0.92845978 -0.58662226 0)
(0.91073289 -0.58024283 0)
(0.89323842 -0.57376758 0)
(0.87598225 -0.56720549 0)
(0.85896981 -0.5605655 0)
(0.84220614 -0.55385646 0)
(0.82569585 -0.54708709 0)
(0.80944319 -0.540266 0)
(0.79345207 -0.53340161 0)
(0.77772605 -0.52650217 0)
(0.7622684 -0.51957571 0)
(0.74708207 -0.51263006 0)
(0.7321698 -0.50567277 0)
(0.71753402 -0.49871113 0)
(0.70317697 -0.49175215 0)
(0.68910065 -0.48480255 0)
(0.67530686 -0.47786871 0)
(0.66179719 -0.47095671 0)
(0.64857305 -0.46407228 0)
(0.63563567 -0.45722083 0)
(0.62298613 -0.4504074 0)
(0.61062532 -0.4436367 0)
(0.59855399 -0.43691309 0)
(0.58677266 -0.43024059 0)
(0.57528194 -0.4236229 0)
(0.56408302 -0.41706337 0)
(1.3460107 -0.6609614 0)
(1.3249339 -0.65819851 0)
(1.3038794 -0.65519895 0)
(1.2828621 -0.6519676 0)
(1.261897 -0.6485096 0)
(1.2409988 -0.6448304 0)
(1.2201819 -0.64093581 0)
(1.1994602 -0.63683196 0)
(1.178847 -0.63252534 0)
(1.1583552 -0.62802274 0)
(1.1379974 -0.62333126 0)
(1.1177853 -0.61845825 0)
(1.0977305 -0.61341134 0)
(1.0778438 -0.60819837 0)
(1.0581355 -0.6028274 0)
(1.0386155 -0.59730664 0)
(1.019293 -0.59164449 0)
(1.0001768 -0.58584947 0)
(0.98127516 -0.57993017 0)
(0.96259575 -0.57389529 0)
(0.94414577 -0.56775355 0)
(0.92593193 -0.56151371 0)
(0.90796047 -0.5551845 0)
(0.89023714 -0.54877463 0)
(0.87276727 -0.54229275 0)
(0.85555576 -0.53574741 0)
(0.83860712 -0.52914706 0)
(0.82192545 -0.52250001 0)
(0.80551454 -0.51581441 0)
(0.7893778 -0.50909823 0)
(0.77351836 -0.50235922 0)
(0.75793906 -0.49560493 0)
(0.74264245 -0.48884265 0)
(0.72763085 -0.48207939 0)
(0.71290633 -0.47532191 0)
(0.69847076 -0.46857665 0)
(0.68432576 -0.46184975 0)
(0.6704728 -0.45514702 0)
(0.65691314 -0.44847395 0)
(0.64364784 -0.44183569 0)
(0.63067783 -0.43523704 0)
(0.61800387 -0.42868248 0)
(0.60562655 -0.4221761 0)
(0.59354624 -0.41572172 0)
(0.5817634 -0.40932275 0)
(0.57027907 -0.40298237 0)
(1.3947049 -0.64395333 0)
(1.3729196 -0.6413809 0)
(1.351153 -0.63857924 0)
(1.32942 -0.63555245 0)
(1.3077353 -0.632305 0)
(1.286114 -0.62884172 0)
(1.2645708 -0.62516784 0)
(1.2431199 -0.62128893 0)
(1.2217751 -0.61721091 0)
(1.2005499 -0.61294002 0)
(1.179457 -0.6084828 0)
(1.1585089 -0.60384611 0)
(1.1377173 -0.59903705 0)
(1.1170936 -0.59406297 0)
(1.0966487 -0.58893145 0)
(1.0763927 -0.58365028 0)
(1.0563356 -0.57822742 0)
(1.0364863 -0.57267098 0)
(1.0168537 -0.56698918 0)
(0.9974458 -0.56119036 0)
(0.97827028 -0.55528292 0)
(0.95933421 -0.54927532 0)
(0.9406442 -0.54317601 0)
(0.92220636 -0.53699345 0)
(0.90402634 -0.53073608 0)
(0.88610934 -0.52441225 0)
(0.86846015 -0.51803024 0)
(0.85108313 -0.51159822 0)
(0.83398227 -0.50512423 0)
(0.8171612 -0.49861615 0)
(0.80062321 -0.49208166 0)
(0.78437128 -0.48552827 0)
(0.76840809 -0.47896325 0)
(0.75273606 -0.47239362 0)
(0.73735735 -0.46582615 0)
(0.72227389 -0.45926733 0)
(0.70748738 -0.45272336 0)
(0.69299932 -0.44620012 0)
(0.678811 -0.43970319 0)
(0.66492352 -0.43323781 0)
(0.65133782 -0.4268089 0)
(0.63805466 -0.42042101 0)
(0.62507466 -0.41407839 0)
(0.61239823 -0.40778491 0)
(0.60002563 -0.40154415 0)
(0.58795713 -0.39535932 0)
(0.57619363 -0.38923334 0)
(1.421488 -0.62468197 0)
(1.3990154 -0.62206903 0)
(1.3765727 -0.61923776 0)
(1.3541751 -0.61619227 0)
(1.3318371 -0.61293683 0)
(1.3095737 -0.60947602 0)
(1.2873995 -0.60581482 0)
(1.2653287 -0.60195857 0)
(1.2433751 -0.59791293 0)
(1.2215518 -0.59368392 0)
(1.1998717 -0.58927783 0)
(1.1783471 -0.58470127 0)
(1.1569897 -0.57996108 0)
(1.1358109 -0.57506437 0)
(1.1148213 -0.57001846 0)
(1.0940311 -0.56483086 0)
(1.07345 -0.55950926 0)
(1.0530871 -0.55406151 0)
(1.032951 -0.54849555 0)
(1.0130497 -0.54281946 0)
(0.99339069 -0.53704136 0)
(0.97398099 -0.53116942 0)
(0.95482708 -0.52521184 0)
(0.93593496 -0.51917679 0)
(0.91731016 -0.51307242 0)
(0.89895776 -0.50690684 0)
(0.8808824 -0.50068804 0)
(0.86308832 -0.49442393 0)
(0.84557938 -0.48812227 0)
(0.82835906 -0.48179068 0)
(0.81143052 -0.47543659 0)
(0.79479658 -0.46906723 0)
(0.77845978 -0.46268963 0)
(0.76242239 -0.45631056 0)
(0.74668642 -0.44993653 0)
(0.73125363 -0.4435738 0)
(0.71612559 -0.43722831 0)
(0.70130362 -0.43090572 0)
(0.68678888 -0.42461137 0)
(0.67258231 -0.41835026 0)
(0.65868469 -0.41212708 0)
(0.64509663 -0.40594616 0)
(0.63181859 -0.39981153 0)
(0.61885085 -0.39372685 0)
(0.60619349 -0.38769546 0)
(0.59384666 -0.38172038 0)
(0.58181108 -0.3758043 0)
(1.4473746 -0.60565236 0)
(1.424231 -0.60300861 0)
(1.4011286 -0.60015695 0)
(1.3780824 -0.59710149 0)
(1.3551071 -0.59384632 0)
(1.3322177 -0.59039581 0)
(1.3094285 -0.5867547 0)
(1.2867537 -0.58292809 0)
(1.264207 -0.57892144 0)
(1.2418015 -0.5747405 0)
(1.2195498 -0.57039133 0)
(1.1974642 -0.56588029 0)
(1.1755565 -0.56121398 0)
(1.1538377 -0.55639925 0)
(1.1323184 -0.55144317 0)
(1.1110089 -0.54635297 0)
(1.0899187 -0.54113611 0)
(1.0690567 -0.53580014 0)
(1.0484314 -0.53035277 0)
(1.0280508 -0.52480179 0)
(1.0079223 -0.51915504 0)
(0.98805268 -0.51342044 0)
(0.96844839 -0.50760591 0)
(0.94911529 -0.50171937 0)
(0.9300588 -0.49576869 0)
(0.91128384 -0.48976171 0)
(0.89279495 -0.48370617 0)
(0.87459623 -0.4776097 0)
(0.85669138 -0.47147982 0)
(0.83908376 -0.46532388 0)
(0.82177637 -0.45914906 0)
(0.80477189 -0.45296235 0)
(0.78807272 -0.44677052 0)
(0.77168095 -0.4405801 0)
(0.75559846 -0.43439737 0)
(0.73982685 -0.42822834 0)
(0.72436753 -0.42207873 0)
(0.70922167 -0.41595397 0)
(0.69439027 -0.40985915 0)
(0.67987412 -0.40379908 0)
(0.66567384 -0.39777821 0)
(0.65178988 -0.39180068 0)
(0.63822256 -0.38587028 0)
(0.62497201 -0.37999047 0)
(0.61203816 -0.37416439 0)
(0.59942098 -0.36839484 0)
(0.58712105 -0.36268434 0)
(1.4723116 -0.58685224 0)
(1.4485149 -0.58418697 0)
(1.4247708 -0.58132408 0)
(1.4010939 -0.57826735 0)
(1.3774991 -0.57502067 0)
(1.3540013 -0.57158823 0)
(1.3306148 -0.56797456 0)
(1.3073536 -0.56418455 0)
(1.2842311 -0.5602234 0)
(1.2612605 -0.55609667 0)
(1.2384543 -0.55181017 0)
(1.2158247 -0.54737 0)
(1.1933832 -0.54278254 0)
(1.1711409 -0.53805438 0)
(1.1491084 -0.53319233 0)
(1.1272957 -0.52820339 0)
(1.1057121 -0.52309474 0)
(1.0843667 -0.51787368 0)
(1.0632678 -0.51254764 0)
(1.0424231 -0.50712417 0)
(1.02184 -0.50161085 0)
(1.0015253 -0.49601532 0)
(0.98148511 -0.49034525 0)
(0.96172531 -0.48460828 0)
(0.94225113 -0.47881205 0)
(0.9230674 -0.47296412 0)
(0.90417851 -0.46707197 0)
(0.8855884 -0.46114299 0)
(0.86730067 -0.45518444 0)
(0.84931851 -0.44920343 0)
(0.83164477 -0.44320689 0)
(0.814282 -0.43720156 0)
(0.79723242 -0.43119398 0)
(0.78049801 -0.42519045 0)
(0.76408045 -0.419197 0)
(0.74798122 -0.41321943 0)
(0.73220155 -0.40726323 0)
(0.71674248 -0.4013336 0)
(0.70160482 -0.39543544 0)
(0.68678922 -0.38957333 0)
(0.67229615 -0.38375151 0)
(0.65812592 -0.3779739 0)
(0.64427866 -0.37224411 0)
(0.63075436 -0.3665654 0)
(0.61755281 -0.36094071 0)
(0.60467382 -0.35537265 0)
(0.59211782 -0.34986355 0)
(1.5207399 -0.57076051 0)
(1.4962602 -0.56827352 0)
(1.4718297 -0.56559578 0)
(1.4474631 -0.56273044 0)
(1.4231748 -0.55968084 0)
(1.3989798 -0.55645065 0)
(1.3748926 -0.55304385 0)
(1.3509277 -0.54946479 0)
(1.3270987 -0.54571813 0)
(1.303419 -0.54180888 0)
(1.2799017 -0.53774234 0)
(1.2565592 -0.53352411 0)
(1.2334035 -0.52916006 0)
(1.2104461 -0.5246563 0)
(1.1876979 -0.5200192 0)
(1.1651694 -0.51525531 0)
(1.1428705 -0.51037138 0)
(1.1208104 -0.50537434 0)
(1.0989982 -0.50027124 0)
(1.0774418 -0.49506927 0)
(1.0561492 -0.48977568 0)
(1.0351273 -0.48439783 0)
(1.014383 -0.47894309 0)
(0.99392225 -0.47341887 0)
(0.97375076 -0.46783256 0)
(0.95387365 -0.46219155 0)
(0.93429563 -0.45650314 0)
(0.91502093 -0.45077456 0)
(0.89605338 -0.44501297 0)
(0.87739642 -0.43922536 0)
(0.8590531 -0.43341861 0)
(0.84102613 -0.42759941 0)
(0.8233179 -0.42177427 0)
(0.80593049 -0.4159495 0)
(0.78886571 -0.41013115 0)
(0.7721251 -0.40432507 0)
(0.75570998 -0.39853681 0)
(0.73962141 -0.39277165 0)
(0.72386028 -0.38703458 0)
(0.70842727 -0.38133029 0)
(0.69332284 -0.37566316 0)
(0.67854733 -0.37003722 0)
(0.66410086 -0.36445622 0)
(0.64998344 -0.35892354 0)
(0.6361949 -0.35344227 0)
(0.62273488 -0.34801516 0)
(0.60960302 -0.34264465 0)
(0.5967996 -0.33733289 0)
(1.5442975 -0.55241106 0)
(1.5191934 -0.54991104 0)
(1.4941498 -0.5472298 0)
(1.469181 -0.5443704 0)
(1.4443018 -0.54133597 0)
(1.4195268 -0.53812994 0)
(1.3948705 -0.53475608 0)
(1.370347 -0.53121855 0)
(1.3459699 -0.52752178 0)
(1.3217526 -0.52367057 0)
(1.2977079 -0.51967001 0)
(1.2738481 -0.51552545 0)
(1.2501851 -0.51124254 0)
(1.2267303 -0.50682716 0)
(1.2034945 -0.50228543 0)
(1.1804881 -0.49762367 0)
(1.1577207 -0.49284838 0)
(1.1352018 -0.48796623 0)
(1.1129399 -0.48298403 0)
(1.0909432 -0.47790872 0)
(1.0692192 -0.47274731 0)
(1.0477751 -0.46750688 0)
(1.0266173 -0.46219458 0)
(1.0057518 -0.45681755 0)
(0.98518418 -0.45138294 0)
(0.96491943 -0.44589788 0)
(0.94496211 -0.44036944 0)
(0.92531632 -0.4348046 0)
(0.90598575 -0.42921027 0)
(0.88697369 -0.42359321 0)
(0.86828306 -0.41796006 0)
(0.84991642 -0.41231729 0)
(0.83187599 -0.40667118 0)
(0.81416373 -0.4010278 0)
(0.79678127 -0.39539301 0)
(0.77973 -0.38977241 0)
(0.76301109 -0.38417136 0)
(0.74662545 -0.37859493 0)
(0.73057381 -0.37304791 0)
(0.71485668 -0.36753479 0)
(0.69947439 -0.36205973 0)
(0.68442709 -0.3566266 0)
(0.66971479 -0.35123894 0)
(0.65533731 -0.34589996 0)
(0.64129435 -0.34061256 0)
(0.62758537 -0.33537932 0)
(0.61420988 -0.33020251 0)
(0.60116799 -0.32508412 0)
(1.5668016 -0.53426596 0)
(1.5410951 -0.53176205 0)
(1.51546 -0.52908594 0)
(1.4899107 -0.52624067 0)