/*--------------------------------*- C++ -*----------------------------------*\
| =========                 |                                                 |
| \\      /  F ield         | OpenFOAM: The Open Source CFD Toolbox           |
|  \\    /   O peration     | Version:  2312                                  |
|   \\  /    A nd           | Website:  www.openfoam.com                      |
|    \\/     M anipulation  |                                                 |
\*---------------------------------------------------------------------------*/
FoamFile
{
    version     2.0;
    format      ascii;
    arch        "LSB;label=32;scalar=64";
    class       volScalarField;
    location    "0.02";
    object      f_Bilger;
}
// * * * * * * * * * * * * * * * * * * * * * * * * * * * * * * * * * * * * * //

dimensions      [0 0 0 0 0 0 0];

internalField   nonuniform List<scalar> 
3250
(
0.11017508
0.10765535
0.10511928
0.10256713
0.099999323
0.097416653
0.094820296
0.092211742
0.089592684
0.086964829
0.084329703
0.081688551
0.079125547
0.076499583
0.073857461
0.07129623
0.068730165
0.066120212
0.063528577
0.06095891
0.058414768
0.055899842
0.053417887
0.050972694
0.048568045
0.046207675
0.043895231
0.04163423
0.039428023
0.037279761
0.035192359
0.033168472
0.031210469
0.029320409
0.027500025
0.025750711
0.024073516
0.022469136
0.020937915
0.019479822
0.018094391
0.016780574
0.015556818
0.014385965
0.013279941
0.012240243
0.011264848
0.010351442
0.0094975388
0.11015575
0.10763692
0.10510173
0.10255049
0.099983539
0.097401686
0.094806101
0.092198278
0.089579911
0.086952714
0.084318213
0.081677656
0.079115202
0.076489786
0.073848183
0.071287443
0.068721776
0.066112263
0.063521077
0.060951826
0.058408079
0.055893528
0.053411933
0.050967083
0.048562762
0.046202707
0.043890563
0.041629849
0.039423918
0.037275918
0.035188766
0.033165119
0.031207343
0.029317499
0.02749732
0.025748202
0.02407119
0.022466983
0.020935923
0.019477986
0.018092716
0.016779072
0.015555483
0.01438482
0.013278866
0.012239244
0.011263933
0.010350683
0.0094969848
0.11011479
0.10759782
0.10506443
0.10251492
0.099949632
0.097369341
0.094775233
0.092168809
0.089551774
0.08692585
0.084292577
0.081653201
0.079091835
0.076467448
0.073826883
0.071267111
0.068702109
0.066093482
0.063503186
0.060934774
0.058391829
0.055878048
0.053397194
0.05095306
0.048549431
0.046190043
0.043878547
0.041618459
0.039413132
0.037265717
0.035179131
0.03315603
0.03119878
0.029309442
0.027489752
0.025741101
0.024064535
0.022460752
0.020930097
0.019472558
0.018087713
0.016774551
0.015551373
0.014380943
0.013275258
0.012235898
0.01126085
0.010347932
0.0094946
0.11005221
0.10753811
0.10500742
0.1024605
0.099897656
0.097319675
0.094727748
0.092123391
0.089508325
0.086884293
0.08425285
0.08161524
0.079055502
0.076432624
0.073793616
0.071235297
0.068671225
0.066063934
0.063474971
0.060907821
0.058366086
0.05585347
0.053373741
0.050930695
0.04852812
0.046169756
0.043859252
0.041600128
0.039395737
0.03724923
0.035163524
0.033141275
0.031184851
0.029296309
0.027477386
0.025729473
0.024053615
0.022450506
0.020920494
0.019463587
0.018079427
0.016767071
0.015544519
0.014374377
0.013269159
0.012230241
0.01125563
0.010343192
0.00949036
0.10996804
0.10745779
0.10493071
0.10238722
0.099827611
0.097252682
0.094663638
0.092062013
0.089449553
0.086828028
0.084199012
0.081563752
0.079006186
0.076385292
0.073748354
0.071191977
0.068629092
0.066023607
0.063436411
0.060870944
0.058330826
0.05581977
0.053341548
0.050899964
0.048498807
0.046141821
0.043832656
0.041574834
0.039371709
0.037226432
0.035141921
0.033120832
0.031165532
0.029278079
0.027460202
0.0257133
0.024038411
0.022436227
0.020907096
0.019451047
0.018067819
0.016756641
0.015534901
0.01436511
0.013260551
0.012222259
0.011248255
0.010336443
0.0094842374
0.10986835
0.10736265
0.10483984
0.10230037
0.09974455
0.097173195
0.094587526
0.0919891
0.089379693
0.086761107
0.084134943
0.081502445
0.078947437
0.076328859
0.073694354
0.071140262
0.068578741
0.065975407
0.063390281
0.060826797
0.058288586
0.055779371
0.053302932
0.050863076
0.0484636
0.046108247
0.043800672
0.041544397
0.039342778
0.037198965
0.035115878
0.033096171
0.031142212
0.029256058
0.027439436
0.025693746
0.024020018
0.022418942
0.020890862
0.019435821
0.018053681
0.016744054
0.015523211
0.014353817
0.013250054
0.012212522
0.011239252
0.010328172
0.0094766784
0.10975635
0.10725574
0.1047377
0.10220273
0.099651137
0.09708377
0.094501865
0.091907008
0.089301007
0.086685704
0.084062727
0.081433322
0.078881181
0.076265181
0.073633394
0.071081863
0.068521855
0.065920939
0.063338127
0.060776864
0.058240792
0.055733643
0.053259205
0.050821292
0.048423704
0.046070189
0.043764403
0.04150987
0.039309947
0.037167786
0.035086305
0.033068159
0.031115715
0.029231029
0.027415832
0.025671507
0.023999094
0.022399273
0.020872378
0.019418449
0.018037474
0.016729836
0.015509878
0.014340917
0.013238058
0.012201394
0.011228959
0.010318689
0.0094679747
0.10962325
0.10712868
0.1046163
0.10208663
0.099540042
0.096977385
0.094399927
0.091809284
0.089207307
0.086595884
0.08397668
0.081350939
0.078802198
0.076189239
0.073560665
0.071012169
0.068453948
0.0658559
0.063275829
0.060717198
0.058183663
0.055678967
0.053206906
0.050771301
0.048375957
0.046024628
0.043720971
0.041468514
0.039270612
0.037130419
0.035050853
0.033034569
0.031083933
0.029201001
0.027387501
0.025644813
0.023973974
0.022375656
0.020850174
0.019397531
0.018017787
0.016712992
0.015493824
0.01432538
0.013223603
0.012187983
0.011216551
0.010307243
0.0094574453
0.10946755
0.10698003
0.10447423
0.10195075
0.099409981
0.096852807
0.094280525
0.091694786
0.089097492
0.086490587
0.083875784
0.081254321
0.078709551
0.076100128
0.073475296
0.070930337
0.068374209
0.065779508
0.063202635
0.060647078
0.058116507
0.055614677
0.053145395
0.050712491
0.048319775
0.045971005
0.043669844
0.041419818
0.039224286
0.037086401
0.035009083
0.032994984
0.031046472
0.029165599
0.027354093
0.025613331
0.023944346
0.022347799
0.020823979
0.0193728
0.017994122
0.016693611
0.015474797
0.014307002
0.013206502
0.012172116
0.011201867
0.010293688
0.0094449585
0.10928767
0.10680825
0.10431004
0.10179368
0.099259608
0.096708742
0.094142412
0.091562313
0.088970402
0.086368698
0.083758967
0.081142443
0.078602254
0.075996897
0.073376372
0.070835483
0.068281784
0.06569094
0.063117755
0.060565744
0.058038594
0.055540074
0.053074003
0.05064422
0.048254542
0.045908733
0.043610458
0.041363247
0.039170459
0.037035248
0.034960533
0.032948968
0.031002917
0.029124433
0.027315239
0.025576714
0.023909882
0.022315398
0.02079352
0.019344023
0.017965695
0.016672093
0.015452437
0.01428557
0.01318656
0.012153613
0.011184741
0.01027787
0.0094303755
0.10908195
0.10661177
0.1041222
0.10161395
0.099087511
0.096543829
0.093984279
0.091410601
0.08882482
0.08622904
0.0836251
0.081014227
0.078479271
0.075878544
0.073262926
0.070726675
0.068175776
0.065589332
0.063020357
0.060472397
0.057949156
0.05545442
0.052992022
0.05056581
0.048179611
0.045837192
0.043542223
0.041298237
0.039108594
0.036976448
0.034904719
0.03289606
0.030952833
0.029077089
0.027270552
0.025534595
0.023870241
0.022278136
0.020758521
0.019311101
0.017934505
0.016646091
0.015426136
0.014260862
0.013163572
0.012132286
0.011164999
0.01025963
0.0094135503
0.10884867
0.10638891
0.10390911
0.10141003
0.098892208
0.096356643
0.093804751
0.091238323
0.088659462
0.086070374
0.083472994
0.080868538
0.078339514
0.075744016
0.073133939
0.070602927
0.068055237
0.065473773
0.062909565
0.060366192
0.057847382
0.055356938
0.052898707
0.050476548
0.048094297
0.045755729
0.043464516
0.041224194
0.039038124
0.036909464
0.03484113
0.032835775
0.03089576
0.029023136
0.027219621
0.025486589
0.023825059
0.022235675
0.020718678
0.019273785
0.017899778
0.016615682
0.015395799
0.014232616
0.013137321
0.012107938
0.011142459
0.010238799
0.0093943295
0.10858602
0.10613794
0.1036691
0.1011803
0.098672146
0.096145688
0.093602386
0.091044088
0.088472981
0.085891398
0.083301397
0.080704188
0.078181837
0.075592203
0.07298834
0.070463203
0.067919173
0.065343302
0.062784455
0.060246244
0.057732421
0.055246809
0.052793271
0.05037568
0.047997881
0.045663654
0.043376678
0.04114049
0.038958455
0.036833727
0.034769226
0.032767602
0.030831216
0.028962114
0.027162015
0.02543229
0.023773954
0.022187655
0.020673652
0.019231743
0.017860956
0.016580778
0.015361287
0.014200589
0.013107583
0.012080363
0.01111693
0.010215203
0.0093725519
0.10829212
0.10585704
0.10340042
0.10092308
0.098425706
0.095909401
0.093375675
0.090826436
0.088263963
0.08569074
0.083108991
0.08051993
0.078005043
0.075421941
0.072825001
0.07030641
0.067766539
0.065196914
0.062644057
0.060111617
0.057603373
0.05512317
0.052674888
0.050262415
0.047889604
0.045560245
0.043278019
0.041046467
0.038868956
0.036748642
0.034688441
0.032691005
0.030758691
0.028893545
0.027097281
0.02537127
0.023716524
0.022133696
0.020623074
0.01918459
0.017817615
0.0165412
0.015322423
0.014164544
0.013074129
0.012049345
0.011088215
0.010188658
0.0093480487
0.107965
0.10554433
0.10310125
0.10063662
0.098151195
0.09564615
0.093123044
0.090583844
0.088030928
0.085466957
0.082894388
0.080314466
0.077807881
0.075232009
0.072642738
0.0701314
0.067596239
0.065033551
0.062487352
0.059961332
0.057459297
0.054985116
0.05254269
0.05013592
0.047768671
0.045444739
0.043167811
0.040941433
0.03876897
0.036653581
0.03459818
0.032605419
0.030677652
0.028816923
0.027024944
0.025303081
0.023652346
0.022073393
0.020566539
0.019131889
0.017769441
0.016496706
0.015278987
0.014124237
0.013036721
0.012014662
0.011056104
0.010158972
0.0093206436
0.10760265
0.10519785
0.1027697
0.10031909
0.097846854
0.095354236
0.092842851
0.090314721
0.087772326
0.085218534
0.082656126
0.080086449
0.077589048
0.075021127
0.072440306
0.069936971
0.067407125
0.064852106
0.062313274
0.059794361
0.057299204
0.054831698
0.052395766
0.049995322
0.047634245
0.045316338
0.043045293
0.04082466
0.038657805
0.036547886
0.03449782
0.032510253
0.03058754
0.028731721
0.026944504
0.025227253
0.023580977
0.022006325
0.020503612
0.019073104
0.017716266
0.016446998
0.015230726
0.014079411
0.012995111
0.011976082
0.011020384
0.010125946
0.0092901527
0.10720298
0.10481557
0.10240383
0.099968608
0.097510855
0.095031892
0.092533387
0.090017415
0.087486545
0.08494388
0.082392657
0.079834497
0.077347191
0.074787955
0.072216404
0.069721862
0.067197999
0.064651421
0.062120706
0.059609627
0.057122058
0.054661921
0.05223316
0.049839708
0.047485452
0.045174206
0.042909668
0.040695388
0.038534737
0.036430872
0.034386707
0.03240489
0.03048777
0.028637386
0.026855442
0.025143298
0.023501959
0.021932058
0.020433846
0.019007484
0.017658209
0.01639167
0.015177352
0.014029795
0.012949041
0.011933363
0.01098083
0.010089373
0.009256385
0.10676385
0.10439545
0.10200162
0.099583216
0.097141305
0.094677287
0.092192883
0.08969021
0.08717191
0.084641323
0.082102329
0.079557214
0.077080911
0.074531087
0.071969668
0.069484759
0.066967609
0.06443029
0.061908481
0.059406007
0.056926778
0.054474746
0.052053877
0.049668121
0.047321379
0.045017471
0.042760101
0.040552824
0.03839901
0.036301818
0.034264162
0.032288683
0.030377732
0.028533342
0.026757214
0.025050705
0.023414815
0.02185016
0.02035685
0.018933761
0.017596054
0.016330038
0.015118564
0.013975101
0.012898242
0.011886254
0.010937209
0.010049038
0.009219142
0.10628308
0.10393537
0.101561
0.099160897
0.096736248
0.094288528
0.091819509
0.089331337
0.086826689
0.084309114
0.081783344
0.079253241
0.076788754
0.074249045
0.071698675
0.069224296
0.066714657
0.064187454
0.061675387
0.05918233
0.056712236
0.054269089
0.051856877
0.049479567
0.047141073
0.044845222
0.042595725
0.04039614
0.038249839
0.036159979
0.034129473
0.032160962
0.030256791
0.02841899
0.026649257
0.024948944
0.023319052
0.021760205
0.020272521
0.01885493
0.017526257
0.016261122
0.015054027
0.013915022
0.012842432
0.011834496
0.01088928
0.010004719
0.0091782183
0.10805457
0.10575845
0.10343313
0.10107982
0.098699574
0.096293668
0.093863661
0.091411378
0.088938975
0.086449114
0.083945434
0.081433684
0.078921349
0.076469193
0.073940265
0.071401942
0.068939055
0.066437795
0.06392161
0.061420158
0.058937377
0.056477261
0.054043825
0.05164108
0.049273011
0.046943543
0.044656513
0.042415638
0.040224477
0.038086404
0.036004577
0.033981906
0.032021029
0.030124288
0.028293709
0.026530984
0.024837465
0.023214155
0.02166171
0.020180408
0.018769743
0.017448705
0.016185204
0.01498332
0.013849232
0.012781319
0.011777818
0.010836796
0.0099561864
0.0091334021
0.10745826
0.10518762
0.10288645
0.1005559
0.098197114
0.095811494
0.09340068
0.09096655
0.088511263
0.086037393
0.083548443
0.081050967
0.078560621
0.076120547
0.073603072
0.071077933
0.068627579
0.066135632
0.063631405
0.061141488
0.058669885
0.056220635
0.053797784
0.051405365
0.049047379
0.046727764
0.044450365
0.042218904
0.040036943
0.037907859
0.035834808
0.033820698
0.031868164
0.029979542
0.028156855
0.026401792
0.024715699
0.023099583
0.021554132
0.020079863
0.018677575
0.017363129
0.016102204
0.014906098
0.013777405
0.012714603
0.011715944
0.010779501
0.0099032055
0.0090844753
0.1068114
0.10456822
0.10229305
0.099986991
0.097651339
0.095287608
0.092897527
0.090483037
0.088046298
0.085589749
0.083116411
0.080632297
0.078170696
0.075740768
0.073235636
0.070725077
0.068288384
0.065806736
0.063315441
0.060838018
0.058378545
0.055941101
0.053529759
0.051148574
0.048801563
0.046492675
0.044225764
0.042004557
0.03983262
0.037713331
0.035649843
0.033645062
0.031701621
0.02982185
0.028007767
0.026261056
0.024583059
0.022974775
0.021436879
0.019969967
0.018578472
0.017268997
0.01601187
0.014822027
0.01369921
0.012641975
0.011648591
0.010717135
0.0098455373
0.0090312145
0.10611156
0.10389789
0.10165058
0.099370819
0.09706003
0.094719847
0.0923521
0.089958802
0.087542136
0.085104426
0.082648026
0.080174803
0.077751113
0.075327164
0.072836021
0.070341824
0.067919974
0.065449637
0.062972274
0.060508351
0.058062009
0.055637361
0.053238505
0.050869514
0.048534419
0.046237183
0.043981667
0.041771603
0.039610561
0.037501918
0.035448827
0.033454191
0.031520636
0.029650491
0.027845765
0.026108137
0.024438945
0.02283917
0.02130939
0.019849075
0.01847376
0.017165117
0.015913958
0.014730765
0.013614312
0.012563122
0.011575469
0.010649433
0.0097829407
0.0089733949
0.10750129
0.10535627
0.1031742
0.10095669
0.098705085
0.09642094
0.094106017
0.091762259
0.089391766
0.086996778
0.084579602
0.082142422
0.079686948
0.077289169
0.074877112
0.0724023
0.069926735
0.067520866
0.065062825
0.062600415
0.060151044
0.057718888
0.055308083
0.052922743
0.050566959
0.048244777
0.045960169
0.043717005
0.041519024
0.039369796
0.0372727
0.035230886
0.033247255
0.031324428
0.029464727
0.027670154
0.025942383
0.024282745
0.022692216
0.02117148
0.019721142
0.018357713
0.01705163
0.015807909
0.014631926
0.013522365
0.012477727
0.011496285
0.010576127
0.0097151759
0.0089108039
0.10665238
0.10454313
0.10239474
0.10020903
0.097987477
0.095731804
0.093443903
0.091125836
0.088779813
0.086408156
0.084013237
0.081597329
0.079162519
0.076787113
0.074389057
0.071932556
0.069478638
0.067089579
0.064644734
0.062198324
0.059764614
0.057347763
0.054951905
0.052581169
0.05023966
0.047931438
0.045660487
0.043430686
0.041245777
0.039109335
0.037024736
0.03499513
0.033023413
0.031112201
0.029263807
0.027480229
0.025763132
0.024113837
0.022533277
0.021022172
0.019585083
0.018230354
0.016928727
0.01569328
0.014525124
0.013423019
0.012385465
0.011410742
0.010496944
0.0096420038
0.0088432841
0.10574103
0.10366972
0.10155714
0.099405234
0.097215687
0.094990356
0.092731279
0.090440651
0.088120802
0.085774166
0.083403222
0.081010398
0.078598065
0.076244488
0.073861407
0.071424494
0.068996872
0.066624519
0.064193701
0.061764412
0.05934755
0.056947185
0.05456744
0.052212453
0.049886343
0.047593186
0.045336976
0.043121601
0.040950807
0.038828173
0.036757072
0.034740655
0.03278181
0.030883147
0.029046972
0.027275274
0.025569714
0.023931603
0.022361744
0.020859456
0.019442012
0.018090702
0.016796291
0.015569691
0.014409982
0.013315922
0.012286014
0.01131854
0.010411606
0.0095631608
0.10476483
0.10273369
0.10065903
0.098542997
0.096387426
0.094194339
0.091965925
0.089704518
0.087412585
0.085092688
0.082747434
0.080379407
0.077991136
0.075660033
0.073292833
0.070875027
0.068481628
0.066123544
0.063707874
0.061297035
0.058898314
0.056515693
0.054153289
0.051815253
0.049505724
0.04722879
0.04498846
0.042788628
0.040633047
0.038525295
0.036468747
0.034466548
0.032521584
0.030636455
0.028813458
0.027054571
0.025361455
0.023735455
0.022177563
0.020688005
0.019285412
0.017938492
0.01665383
0.015436735
0.014286121
0.013200727
0.012179051
0.011219382
0.010319826
0.0094782233
0.10372146
0.10173273
0.099698149
0.097620045
0.095500444
0.09334153
0.091145644
0.088915272
0.086653023
0.084361604
0.082043767
0.079702241
0.077339664
0.075032341
0.072682594
0.070282018
0.067932617
0.06558306
0.063185308
0.060794552
0.058415371
0.056051819
0.053708044
0.051388221
0.049096509
0.046837015
0.044613758
0.042430643
0.040291425
0.038199685
0.036158796
0.034171899
0.032241873
0.030371311
0.028562497
0.026817397
0.025137661
0.023524664
0.021979719
0.020506462
0.01911486
0.017774632
0.016500834
0.015293998
0.014153166
0.013077086
0.012064258
0.011112975
0.010221357
0.0093871354
0.10260877
0.10066464
0.098672278
0.096634176
0.094552552
0.092429754
0.090268283
0.088070778
0.085840003
0.083578822
0.081290146
0.078976855
0.076641699
0.074359845
0.072030261
0.069654215
0.067336261
0.065000885
0.062624628
0.060255421
0.057897209
0.055554106
0.053230304
0.050930011
0.048657411
0.046416628
0.044211695
0.042046525
0.039924876
0.037850331
0.035826261
0.033855801
0.031941823
0.030086911
0.028293332
0.026563032
0.024897632
0.023298424
0.021766038
0.020316494
0.018928804
0.017599256
0.016336928
0.015141087
0.014010751
0.012944662
0.011941323
0.010999033
0.010115918
0.0092896532
0.10142469
0.09952736
0.097579325
0.095583289
0.093541645
0.091456913
0.089331754
0.087168963
0.084971465
0.082742293
0.080484537
0.078201246
0.075895296
0.073640661
0.07133362
0.068984947
0.066695214
0.064376624
0.062024235
0.059678118
0.057342346
0.055021119
0.052718687
0.050439296
0.048187157
0.045966413
0.04378111
0.041635167
0.039532349
0.037476235
0.035470196
0.03351736
0.031620592
0.029782462
0.028005217
0.026290773
0.024640717
0.023056367
0.021542459
0.020109275
0.018728462
0.017411711
0.01616168
0.014977617
0.013858519
0.012803128
0.011809946
0.010877278
0.010003253
0.0091855304
0.10016738
0.098318955
0.096417334
0.094465399
0.092465728
0.090421007
0.088334056
0.086207829
0.084045415
0.081850026
0.079624955
0.077373455
0.075098536
0.072872845
0.070590451
0.068270982
0.066009196
0.063709502
0.06138266
0.059061173
0.056749335
0.054451454
0.052171838
0.049914774
0.0476845
0.045485177
0.043320864
0.041195488
0.039112815
0.037076424
0.035089681
0.033155709
0.031277363
0.029457196
0.02769743
0.025999941
0.024366238
0.022796788
0.021309499
0.019884121
0.018514555
0.017211554
0.015974688
0.014803217
0.013696133
0.012652172
0.011669842
0.010747449
0.0098831282
0.0090745407
0.098835144
0.097037689
0.095184511
0.093278679
0.091322945
0.089320163
0.087273309
0.085185491
0.083059958
0.080900112
0.078709478
0.076491577
0.074249568
0.072054492
0.069798725
0.067510255
0.065277142
0.062998383
0.060698525
0.058403171
0.056116782
0.053843753
0.051588448
0.049355187
0.047148235
0.04497177
0.042829863
0.040726445
0.038665286
0.036649962
0.034683832
0.032770013
0.030911351
0.029110379
0.027369283
0.025689911
0.024074017
0.022526022
0.021058099
0.019641134
0.018286738
0.01699839
0.015775577
0.014617543
0.013523275
0.012491506
0.011520745
0.010609305
0.0097553253
0.0089564806
0.097426554
0.095682039
0.093879267
0.092021483
0.090111613
0.08815267
0.086147781
0.084100199
0.082013327
0.079890749
0.077736263
0.07555378
0.073346691
0.071183792
0.068956544
0.066701272
0.064497823
0.062241969
0.059970468
0.057702745
0.055443346
0.053196719
0.050967265
0.048759335
0.046577213
0.044425096
0.042307062
0.040227049
0.038188825
0.036195961
0.034251812
0.032359486
0.030521818
0.028741321
0.027020127
0.025359922
0.023761311
0.022243667
0.020786393
0.019382673
0.018044568
0.016771846
0.015564004
0.014420282
0.013339658
0.012320866
0.011362417
0.010462629
0.0096196488
0.0088311695
0.095940439
0.094250733
0.092500245
0.090692387
0.088830253
0.086917009
0.084955924
0.082950385
0.080903923
0.078820285
0.076703566
0.074558296
0.072388496
0.070259075
0.068061945
0.065843148
0.063669964
0.061438867
0.059197133
0.056958582
0.05472776
0.052509131
0.050307118
0.048126094
0.045970363
0.043844133
0.041751492
0.039696379
0.037682561
0.035713602
0.033792848
0.031923399
0.030108086
0.028349401
0.026649431
0.025010059
0.023435749
0.02194067
0.020494237
0.019108479
0.017787691
0.01653159
0.015339666
0.014211153
0.013145027
0.01214002
0.011194647
0.010307232
0.009475929
0.0086984534
0.094375946
0.092742795
0.091046364
0.089290225
0.087477628
0.085611889
0.083696409
0.081734694
0.079730371
0.077687284
0.075609775
0.073503322
0.071374207
0.069278838
0.06711224
0.064936398
0.06279201
0.060587567
0.058377182
0.056169445
0.053968852
0.051779869
0.049606935
0.047454442
0.045326708
0.043227954
0.041162272
0.039133604
0.037145709
0.035202145
0.033306246
0.031461104
0.029669549
0.027934057
0.02625651
0.024637466
0.023097811
0.021615026
0.020184664
0.018818169
0.017515792
0.016277335
0.015102302
0.013989923
0.012939171
0.011948778
0.011017263
0.010142959
0.0093240276
0.008558208
0.092732576
0.091157583
0.08951686
0.087814126
0.086052784
0.084236289
0.08236817
0.080452035
0.078491577
0.07649063
0.074453497
0.072386439
0.070304632
0.068241825
0.066100971
0.063986555
0.061860969
0.059686556
0.057509393
0.055334227
0.053165582
0.051007943
0.048865772
0.046743477
0.044645392
0.042575746
0.040538635
0.038537999
0.036577591
0.034660956
0.032791411
0.030972044
0.029205706
0.027494912
0.025841718
0.024250453
0.022736303
0.021267115
0.01985771
0.018511508
0.017228623
0.016008855
0.014851707
0.013756407
0.012721925
0.011746994
0.010830137
0.0099696952
0.0091638436
0.0084103443
0.091010229
0.089494835
0.087911327
0.086263564
0.084555091
0.082789495
0.080970431
0.07910161
0.077186782
0.075229682
0.07323386
0.071201538
0.069185768
0.067148589
0.065042834
0.062974299
0.060874138
0.058734993
0.056592825
0.054452019
0.052317081
0.050192527
0.04808284
0.045992451
0.043925705
0.041886839
0.039879951
0.037908975
0.035977655
0.034089521
0.032247868
0.030455777
0.02871614
0.027031452
0.025402027
0.023849923
0.022349212
0.020900151
0.019513037
0.018188284
0.016926003
0.015725989
0.014587742
0.013510484
0.012493184
0.011534576
0.010633189
0.0097873742
0.0089953198
0.008254814
0.089209256
0.087754715
0.086229767
0.084638399
0.082984286
0.081271143
0.079502747
0.077682929
0.075815541
0.073904389
0.071953063
0.069964532
0.067999108
0.065994763
0.06393062
0.061904042
0.059833209
0.057731978
0.05562676
0.053522136
0.051422693
0.049332989
0.04725754
0.045200795
0.043167111
0.04116073
0.039185749
0.037246096
0.035345501
0.033487474
0.031675281
0.029911982
0.028200624
0.026544626
0.024946431
0.023422596
0.021938841
0.020514004
0.019150469
0.017848372
0.016607834
0.015428659
0.014310343
0.013252104
0.012252908
0.011311494
0.010426397
0.0095959818
0.0088184487
0.008091615
0.087330501
0.085937863
0.08447264
0.082938928
0.081340524
0.07968126
0.077965037
0.076195813
0.074377587
0.072514348
0.070609969
0.068668128
0.066749089
0.064780926
0.062762467
0.060777288
0.058738847
0.056677277
0.054610806
0.05254416
0.050481999
0.048428928
0.046389491
0.044368152
0.04236928
0.040397116
0.038455752
0.036549109
0.034680904
0.032854621
0.03107347
0.029340378
0.027658267
0.026032176
0.024476544
0.0229669
0.021508102
0.020108331
0.018769963
0.017491761
0.016274122
0.015116881
0.014019533
0.012981296
0.012001133
0.011077789
0.010209808
0.0093955654
0.0086332799
0.007920798
0.085375357
0.084045447
0.082640911
0.081165938
0.079624429
0.078020327
0.076357642
0.074640464
0.072872956
0.071059326
0.069203731
0.067310107
0.065436669
0.063506499
0.061539647
0.059594901
0.0575913
0.055570878
0.053544855
0.051517952
0.04949486
0.04748021
0.045478569
0.043494415
0.041532119
0.039595919
0.037689903
0.035817976
0.033983845
0.032190974
0.030442499
0.028741011
0.027087704
0.025506717
0.02397643
0.022488016
0.021057143
0.019685062
0.018371906
0.017118618
0.015924997
0.014790779
0.013715438
0.012698183
0.011737983
0.010833583
0.0099835388
0.0091862414
0.0084399263
0.0077424724
0.083345813
0.082079217
0.08073611
0.07932076
0.077837157
0.076289331
0.074681393
0.073017548
0.07130212
0.069539558
0.067734327
0.06589039
0.064062221
0.062166325
0.06026966
0.058356867
0.056390627
0.054412955
0.05242909
0.050443688
0.048461443
0.046487004
0.044524947
0.042579759
0.04065581
0.038757332
0.036888399
0.035052901
0.033254539
0.031496787
0.02978281
0.0281155
0.026499885
0.024954946
0.023445959
0.021987666
0.020586094
0.019242361
0.01795636
0.016729196
0.015560715
0.014450597
0.01339829
0.012402993
0.011463674
0.010579084
0.0097477916
0.0089682024
0.0082385719
0.0075568132
0.081244513
0.080041556
0.078760389
0.077405334
0.075980449
0.074489838
0.072937687
0.071328285
0.069666082
0.067955782
0.066202423
0.064410859
0.062630458
0.060778409
0.058936934
0.057058782
0.055137102
0.053204009
0.051264049
0.049321905
0.047382276
0.045449823
0.043529129
0.041624683
0.039740848
0.037881846
0.036051728
0.034254368
0.032493458
0.030772496
0.029094506
0.02746058
0.02589583
0.024373597
0.022892865
0.021466304
0.020095363
0.018781049
0.017523665
0.016323872
0.01518166
0.014096708
0.013068446
0.012096065
0.01117853
0.010314602
0.0095028589
0.0087417254
0.0080294785
0.0073640673
0.079074806
0.077935545
0.076716577
0.075422259
0.074056702
0.07262406
0.071128565
0.069574544
0.067966466
0.066309111
0.06460826
0.062874277
0.061142066
0.059337057
0.057546325
0.055706181
0.053831776
0.051945033
0.050050713
0.048153558
0.04625829
0.044369575
0.042492001
0.040630052
0.038788082
0.036970293
0.035180709
0.03342317
0.031701368
0.030018996
0.028379959
0.026787615
0.025261559
0.023764993
0.022318225
0.020924646
0.019585608
0.01830204
0.017074415
0.015903183
0.014788357
0.01372962
0.012726394
0.011777863
0.010882992
0.010040551
0.0092491327
0.0085071797
0.0078129931
0.0071645601
0.076840807
0.075765013
0.07460824
0.073374864
0.072069025
0.070694912
0.069256787
0.067758963
0.066205748
0.064601206
0.062948133
0.061289094
0.059596998
0.057842357
0.056101142
0.054302157
0.052476413
0.050637604
0.048790571
0.046940084
0.045090874
0.043247609
0.041414874
0.039597143
0.037798755
0.036023888
0.034276521
0.032560418
0.030879146
0.029236319
0.027637165
0.026099341
0.024596509
0.023134368
0.021722864
0.020363554
0.019057676
0.017806106
0.016609375
0.015467845
0.014381495
0.013349996
0.012372765
0.011448984
0.010577625
0.0097574647
0.0089871133
0.0082650345
0.0075895549
0.0069587017
0.074547454
0.073534601
0.072439748
0.071267261
0.070021297
0.06870607
0.067325871
0.065885043
0.064387912
0.062838606
0.06124075
0.05964085
0.057992442
0.056297798
0.054603979
0.052849024
0.051073221
0.049283834
0.047485657
0.045683446
0.043881928
0.042085766
0.040299534
0.038527689
0.036774553
0.03504427
0.03334077
0.031667694
0.030028232
0.028424279
0.02688154
0.025379661
0.023907187
0.022482715
0.021107878
0.019784134
0.018512644
0.017294243
0.016129487
0.015018765
0.013961943
0.012958665
0.012008346
0.011110175
0.010263129
0.0094660008
0.0087174177
0.0080158665
0.0073597018
0.0067469933
0.072200575
0.071249823
0.070216328
0.069104413
0.067918232
0.066662008
0.065340068
0.063956821
0.06251673
0.061024192
0.059483315
0.057938435
0.056332433
0.054711647
0.053054391
0.051349175
0.049624871
0.047886409
0.046138592
0.044386187
0.042633916
0.040886431
0.039148289
0.037423928
0.035717643
0.034033549
0.032375542
0.030747271
0.029152384
0.027596301
0.026100264
0.024629081
0.023196922
0.021811587
0.020474743
0.019187802
0.017951862
0.016767698
0.015635839
0.014557055
0.01353078
0.012556649
0.011634101
0.010762338
0.0099403525
0.0091669528
0.0084407867
0.0077603666
0.0071240772
0.0065300325
0.069806979
0.06891713
0.067944141
0.066892204
0.065765446
0.064568081
0.063304448
0.061979021
0.060596431
0.059161482
0.057678941
0.056189549
0.054634235
0.053071864
0.051458232
0.049806379
0.048134918
0.046448738
0.044752671
0.043051492
0.04134992
0.039652587
0.037964027
0.036288651
0.034630723
0.032994317
0.031383239
0.029800832
0.02824926
0.026754332
0.02529236
0.023858343
0.022467846
0.021122926
0.019825286
0.018576306
0.017377024
0.016228082
0.015129482
0.014084155
0.013089355
0.012145189
0.011251179
0.010406547
0.0096102985
0.0088612571
0.0081580934
0.0074993471
0.0068834355
0.0063085191
0.067374544
0.06654399
0.065630336
0.064637509
0.06356955
0.06243063
0.061225053
0.059957265
0.05863194
0.057254404
0.055832824
0.054397848
0.052897731
0.051389419
0.049822743
0.048225276
0.046607732
0.044975003
0.04333192
0.041683253
0.040033701
0.038387872
0.036750266
0.035125259
0.033517082
0.031929782
0.030367195
0.028833121
0.027332793
0.025887063
0.024460388
0.023070198
0.021722414
0.020419016
0.01916167
0.01795173
0.016790247
0.015678039
0.01461594
0.013602489
0.012639364
0.01172575
0.010860927
0.010044055
0.0092741342
0.0085500009
0.0078703489
0.0072337473
0.0066386477
0.0060832593
0.065596944
0.064911398
0.064138782
0.063283117
0.062348274
0.061338231
0.060257097
0.05910908
0.057898417
0.056629124
0.055304216
0.053956264
0.052563542
0.051133799
0.049671166
0.04815375
0.046611266
0.045048486
0.043470187
0.041881153
0.040286123
0.03868976
0.037096633
0.035511203
0.033937802
0.032380606
0.030843565
0.02933021
0.027842957
0.026406904
0.024997234
0.023612806
0.022267456
0.020963372
0.019702473
0.018486371
0.017316373
0.016193492
0.015118476
0.014091837
0.01311256
0.012182221
0.011299896
0.010464864
0.0096762937
0.0089331965
0.0082344285
0.0075787092
0.0069646389
0.0063907061
0.0058551702
0.063058054
0.062427928
0.061711242
0.060911872
0.060033601
0.059080331
0.058056107
0.056965089
0.055811494
0.054599468