/*--------------------------------*- C++ -*----------------------------------*\
| =========                 |                                                 |
| \\      /  F ield         | OpenFOAM: The Open Source CFD Toolbox           |
|  \\    /   O peration     | Version:  2312                                  |
|   \\  /    A nd           | Website:  www.openfoam.com                      |
|    \\/     M anipulation  |                                                 |
\*---------------------------------------------------------------------------*/
FoamFile
{
    version     2.0;
    format      ascii;
    arch        "LSB;label=32;scalar=64";
    class       volScalarField;
    location    "0.02";
    object      Ma;
}
// * * * * * * * * * * * * * * * * * * * * * * * * * * * * * * * * * * * * * //

dimensions      [0 0 0 0 0 0 0];

internalField   nonuniform List<scalar> 
3250
(
0.0056471915
0.0054980504
0.005351692
0.0052080872
0.0050672069
0.0049290288
0.0047935346
0.0046607139
0.0045305707
0.0044031116
0.0042784131
0.0041563531
0.0040371129
0.0039204968
0.0038065065
0.003695308
0.0035865388
0.0034802388
0.0033767203
0.0032758176
0.0031775557
0.00308191
0.0029888662
0.002898405
0.0028105059
0.0027251464
0.0026423016
0.0025619446
0.0024840458
0.0024085732
0.0023354917
0.0022647638
0.002196349
0.0021302041
0.0020662833
0.0020045382
0.0019449174
0.0018873675
0.0018318321
0.0017782531
0.001726571
0.0016767198
0.001628644
0.0015822554
0.0015374968
0.0014942933
0.001452575
0.0014122697
0.0013733013
0.005646661
0.0054975987
0.0053513142
0.0052077776
0.0050669602
0.0049288401
0.0047933992
0.0046606272
0.0045305282
0.004403109
0.0042784465
0.0041564194
0.0040372093
0.0039206202
0.0038066536
0.0036954755
0.0035867242
0.0034804403
0.003376936
0.0032760448
0.0031777923
0.0030821542
0.0029891163
0.0028986594
0.0028107632
0.0027254051
0.0026425606
0.0025622028
0.0024843023
0.0024088271
0.0023357422
0.0022650103
0.0021965909
0.0021304408
0.0020665145
0.0020047635
0.0019451366
0.0018875803
0.0018320384
0.0017784529
0.0017267642
0.0016769065
0.0016288242
0.0015824287
0.0015376631
0.0014944535
0.0014527285
0.0014124175
0.0013734431
0.0056455439
0.0054966403
0.0053505028
0.0052071019
0.0050664094
0.0049284046
0.0047930694
0.0046603941
0.0045303826
0.0044030422
0.0042784505
0.0041564884
0.0040373381
0.0039208025
0.0038068826
0.0036957448
0.0035870282
0.0034807762
0.0033772993
0.0032764303
0.0031781962
0.0030825728
0.002989546
0.0028990971
0.002811206
0.0027258504
0.002643006
0.0025626462
0.0024847418
0.0024092609
0.002336169
0.0022654287
0.0021969998
0.0021308394
0.002066902
0.0020051392
0.0019455
0.0018879311
0.0018323763
0.0017787778
0.0017270761
0.0016772054
0.0016291103
0.0015827017
0.0015379228
0.0014947006
0.0014529634
0.0014126406
0.0013736549
0.0056438436
0.005495178
0.0053492607
0.0052060627
0.0050655572
0.0049277248
0.0047925479
0.004660017
0.0045301362
0.0044029132
0.0042784272
0.0041565622
0.0040375011
0.0039210456
0.0038071958
0.0036961179
0.0035874532
0.0034812487
0.0033778125
0.0032769765
0.0031787695
0.0030831678
0.0029901575
0.0028997203
0.0028118366
0.0027264844
0.00264364
0.0025632769
0.0024853664
0.0024098769
0.0023367742
0.0022660212
0.002197578
0.002131402
0.0020674478
0.0020056673
0.0019460096
0.0018884217
0.0018328476
0.0017792296
0.0017275083
0.0016776183
0.0016295037
0.0015830757
0.0015382774
0.0014950366
0.001453281
0.0014129406
0.001373938
0.0056415594
0.0054932106
0.0053475862
0.0052046583
0.0050644018
0.0049267988
0.0047918323
0.0046594934
0.0045297862
0.004402719
0.0042783732
0.0041566372
0.0040376951
0.0039213465
0.0038075901
0.0036965918
0.0035879964
0.0034818555
0.003378473
0.0032776809
0.00317951
0.003083937
0.0029909485
0.0029005269
0.0028126529
0.0027273052
0.0026444606
0.0025640931
0.0024861745
0.0024106735
0.0023375564
0.0022667865
0.0021983242
0.0021321273
0.0020681508
0.0020063466
0.0019466644
0.0018890512
0.0018334514
0.0017798075
0.0017280601
0.0016781443
0.001630004
0.00158355
0.0015387265
0.0014954608
0.0014536811
0.0014133169
0.0013742918
0.0056388883
0.0054909128
0.0053456333
0.0052030237
0.0050630605
0.0049257276
0.004791009
0.0046588964
0.0045293938
0.0044025107
0.0042783304
0.0041567464
0.0040379445
0.0039217216
0.003808075
0.0036971707
0.0035886573
0.0034825914
0.0033792715
0.0032785311
0.0031804026
0.0030848631
0.0029919001
0.0029014965
0.0028136336
0.002728291
0.0026454458
0.0025650727
0.0024871439
0.002411629
0.0023384944
0.002267704
0.0021992186
0.0021329965
0.0020689929
0.0020071603
0.0019474484
0.0018898049
0.001834174
0.0017804988
0.0017287199
0.0016787731
0.0016306015
0.0015841162
0.0015392622
0.0014959666
0.0014541575
0.0014137648
0.0013747121
0.0056361001
0.0054885437
0.0053436513
0.0052013986
0.0050617645
0.0049247343
0.0047902935
0.0046584343
0.0045291612
0.0044024848
0.0042784898
0.0041570753
0.0040384294
0.0039223451
0.0038088199
0.0036980188
0.0035895954
0.0034836114
0.0033803584
0.0032796734
0.0031815894
0.0030860845
0.0029931468
0.0029027599
0.0028149061
0.0027295655
0.0026467158
0.0025663327
0.0024883887
0.002412854
0.0023396958
0.0022688782
0.0022003627
0.002134108
0.0020700697
0.0020082007
0.0019484513
0.0018907692
0.0018350991
0.0017813845
0.001729566
0.0016795801
0.0016313688
0.0015848442
0.0015399518
0.0014966185
0.0014547726
0.0014143437
0.001375256
0.0056329566
0.0054858979
0.005341465
0.005199636
0.0050603922
0.0049237211
0.0047896097
0.0046580515
0.0045290513
0.0044026211
0.0042788465
0.0041576327
0.0040391713
0.0039232496
0.0038098671
0.0036991872
0.0035908698
0.0034849813
0.0033818053
0.0032811845
0.0031831513
0.0030876852
0.0029947753
0.002904406
0.0028165605
0.0027312196
0.002648362
0.0025679641
0.0024899992
0.002414438
0.0023412486
0.0022703956
0.0022018412
0.0021355444
0.0020714615
0.002009546
0.0019497484
0.001892017
0.0018362968
0.0017825319
0.0017306626
0.0016806271
0.0016323649
0.0015857898
0.0015408485
0.0014974669
0.0014555737
0.0014150987
0.0013759661
0.0056293683
0.0054828902
0.0053389935
0.005197659
0.0050588706
0.0049226185
0.0047888916
0.0046576848
0.0045290032
0.004402861
0.0042793437
0.0041583642
0.0040401183
0.0039243858
0.0038111693
0.0037006307
0.0035924366
0.0034866591
0.0033835722
0.0032830256
0.0031850509
0.0030896293
0.0029967509
0.0029064011
0.0028185641
0.0027332219
0.0026503539
0.0025699374
0.0024919467
0.0024163534
0.002343126
0.0022722302
0.0022036287
0.0021372813
0.0020731447
0.002011173
0.0019513175
0.0018935268
0.0018377462
0.0017839206
0.0017319899
0.0016818954
0.0016335714
0.0015869355
0.001541935
0.0014984952
0.001456545
0.0014160142
0.0013768273
0.0056252462
0.0054794362
0.0053361566
0.0051953913
0.0050571275
0.0049213579
0.0047880739
0.004657272
0.0045289579
0.0044031479
0.0042799269
0.0041592176
0.004041221
0.0039257066
0.0038126817
0.0037023062
0.0035942549
0.0034886055
0.0033856212
0.0032851604
0.0031872533
0.0030918833
0.0029990413
0.0029087141
0.0028208872
0.0027355435
0.0026526636
0.0025722259
0.0024942055
0.002418575
0.0023453039
0.0022743586
0.0022057027
0.0021392966
0.0020750979
0.0020130613
0.0019531387
0.0018952791
0.0018394286
0.0017855326
0.0017335301
0.0016833683
0.0016349716
0.0015882654
0.0015431961
0.0014996886
0.0014576721
0.0014170764
0.0013778264
0.0056204939
0.0054754441
0.005332867
0.00519275
0.0050550837
0.004919864
0.0047870849
0.0046567447
0.0045288498
0.0044034188
0.0042805352
0.0041601345
0.0040424238
0.0039271592
0.0038143536
0.0037041651
0.0035962777
0.0034907752
0.0033879092
0.0032875473
0.0031897184
0.0030944083
0.0030016092
0.0029113092
0.002823495
0.0027381509
0.0026552588
0.0025747981
0.0024967452
0.0024210736
0.0023477538
0.0022767534
0.0022080366
0.0021415648
0.0020772965
0.0020151869
0.0019551887
0.0018972517
0.0018413224
0.0017873471
0.0017352644
0.0016850246
0.0016365464
0.0015897611
0.0015446139
0.0015010299
0.0014589383
0.0014182694
0.0013789478
0.0056150109
0.0054708183
0.0053290336
0.005189648
0.0050526563
0.0049180575
0.0047858488
0.0046560307
0.00452861
0.0044036076
0.0042811047
0.0041610534
0.0040436686
0.0039286878
0.0038161313
0.0037061557
0.0035984553
0.0034931205
0.0033903901
0.0032901421
0.0031924038
0.0030971637
0.0030044152
0.0029141482
0.0028263508
0.0027410088
0.0026581054
0.0025776212
0.002499534
0.0024238185
0.0023504462
0.0022793858
0.0022106027
0.0021440591
0.0020797144
0.0020175246
0.0019574433
0.001899421
0.0018434048
0.0017893421
0.0017371713
0.001686844
0.001638276
0.0015914036
0.0015461701
0.0015025013
0.0014603266
0.0014195763
0.0013801756
0.0056086914
0.0054654578
0.0053245598
0.0051859931
0.0050497569
0.0049158541
0.0047842852
0.004655053
0.0045281648
0.0044036437
0.0042815668
0.0041619086
0.004044893
0.0039302327
0.0038179571
0.0037082225
0.0036007342
0.0034955898
0.0033930145
0.003292897
0.0031952634
0.003100105
0.0030074167
0.0029171901
0.002829415
0.0027440788
0.0026611663
0.0025806595
0.0025025374
0.0024267763
0.0023533489
0.0022822249
0.002213371
0.0021467505
0.0020823236
0.0020200475
0.0019598764
0.0019017617
0.0018456515
0.0017914938
0.0017392276
0.0016888045
0.0016401392
0.0015931721
0.0015478447
0.0015040835
0.0014618182
0.0014209794
0.0013814922
0.0056014254
0.0054592571
0.0053193448
0.0051816887
0.0050462931
0.0049131651
0.0047823089
0.0046537302
0.0045274366
0.0044034527
0.004281849
0.0041626301
0.0040460311
0.0039317303
0.0038197696
0.0037103063
0.0036030575
0.0034981283
0.0033957295
0.0032957612
0.0031982483
0.0031031851
0.0030105681
0.002920391
0.0028326453
0.0027473202
0.0026644022
0.0025838749
0.0025057188
0.0024299116
0.0023564275
0.0022852376
0.0022163096
0.0021496081
0.0020850944
0.0020227267
0.0019624601
0.0019042471
0.0018480364
0.0017937773
0.0017414091
0.0016908829
0.0016421135
0.001595045
0.0015496166
0.0015057562
0.0014633935
0.0014224595
0.0013828795
0.005593098
0.0054521062
0.005313283
0.0051766335
0.0050421677
0.0049098971
0.0047798304
0.0046519765
0.0045263432
0.0044029561
0.0042818748
0.0041631442
0.0040470134
0.0039331133
0.0038215035
0.003712344
0.0036053643
0.0035006773
0.0033984789
0.0032986805
0.0032013063
0.0031063535
0.0030138208
0.002923704
0.0028359965
0.0027506894
0.0026677711
0.0025872268
0.002509039
0.0024331867
0.0023596458
0.0022883887
0.0022193845
0.0021525991
0.0020879951
0.0020255316
0.001965165
0.0019068485
0.001850532
0.0017961657
0.00174369
0.0016930545
0.001644175
0.0015969989
0.0015514634
0.0015074977
0.0014650317
0.0014239965
0.0013843178
0.0055835905
0.0054438911
0.0053062647
0.0051707221
0.0050372792
0.0049059526
0.0047767558
0.0046497016
0.0045247985
0.0044020718
0.0042815631
0.0041633726
0.0040477671
0.0039343108
0.0038230895
0.0037142689
0.0036075904
0.0035031751
0.0034012031
0.0033015975
0.003204382
0.0031095571
0.0030171236
0.0029270795
0.0028394207
0.0027541402
0.0026712283
0.0025906724
0.0025124565
0.0024365616
0.002362965
0.0022916409
0.0022225598
0.0021556889
0.0020909922
0.0020284301
0.0019679598
0.0019095359
0.001853109
0.0017986308
0.0017460434
0.0016952932
0.0016462984
0.0015990095
0.0015533617
0.0015092853
0.0014667106
0.0014255692
0.0013857868
0.0055727807
0.0054344939
0.0052981765
0.0051638451
0.0050315223
0.0049012299
0.0047729871
0.0046468112
0.0045227123
0.0044007138
0.0042808291
0.0041632334
0.0040482162
0.0039352482
0.0038244546
0.0037160106
0.0036096682
0.0035055564
0.0034038392
0.0033044514
0.0032074169
0.0031127393
0.0030204218
0.0029304651
0.0028428673
0.0027576238
0.0026747269
0.0025941662
0.0025159276
0.002439994
0.0023663445
0.0022949549
0.0022257975
0.0021588409
0.0020940505
0.0020313879
0.0019708117
0.0019122775
0.0018557369
0.0018011427
0.0017484411
0.0016975713
0.0016484572
0.0016010511
0.0015552865
0.0015110951
0.0014684073
0.0014271552
0.0013872646
0.0055605436
0.0054237937
0.0052889016
0.0051558899
0.0050247879
0.0048956236
0.0047684223
0.0046432067
0.0045199903
0.0043987935
0.0042795836
0.0041626406
0.0040482824
0.0039358469
0.003825522
0.0037174951
0.0036115265
0.0035077526
0.0034063211
0.0033071787
0.0032103496
0.0031158408
0.0030236584
0.0029338056
0.0028462832
0.0027610888
0.0026782173
0.0025976604
0.0025194062
0.0024434394
0.0023697413
0.0022982895
0.0022290579
0.0021620167
0.0020971328
0.0020343694
0.0019736862
0.0019150401
0.0018583836
0.0018036697
0.0017508539
0.0016998599
0.0016506237
0.0016030968
0.001557212
0.0015129019
0.0014700975
0.001428731
0.0013887288
0.0055467514
0.0054116673
0.0052783202
0.0051467404
0.005016964
0.004889025
0.0047629558
0.0046387858
0.0045165345
0.0043962184
0.0042777334
0.004161506
0.0040478858
0.0039360249
0.0038262104
0.0037186448
0.003613091
0.0035096921
0.0034085799
0.0033097127
0.0032131156
0.0031187995
0.0030267733
0.0029370431
0.0028496124
0.0027644814
0.0026816477
0.002601105
0.0025228439
0.0024468514
0.0023731107
0.0023016014
0.0022322991
0.0021651761
0.0021002006
0.0020373373
0.0019765473
0.001917789
0.0018610158
0.0018061823
0.001753248
0.0017021283
0.0016527688
0.0016051186
0.001559111
0.0015146796
0.0014717558
0.0014302723
0.0013901557
0.0056661173
0.0055312733
0.0053979884
0.0052663103
0.0051362785
0.0050079356
0.0048813227
0.0047564791
0.0046334424
0.0045122414
0.004392892
0.0042751861
0.0041597406
0.0040469436
0.0039356946
0.0038264346
0.0037193791
0.0036142845
0.0035113006
0.0034105436
0.0033119837
0.0032156479
0.0031215506
0.003029704
0.0029401173
0.0028527967
0.0027677456
0.0026849637
0.0026044478
0.0025261906
0.0024501815
0.0023764059
0.0023048454
0.0022354779
0.0021682772
0.0021032133
0.0020402525
0.0019793574
0.001920488
0.0018635986
0.0018086462
0.0017555914
0.0017043458
0.0016548624
0.0016070873
0.0015609555
0.001516401
0.001473356
0.0014317536
0.0013915207
0.0056467419
0.0055139781
0.0053826294
0.0052527484
0.005124384
0.0049975861
0.0048724029
0.0047488812
0.0046270669
0.0045070025
0.0043887191
0.0042718277
0.0041572681
0.0040453771
0.0039347624
0.0038261049
0.0037196145
0.0036150273
0.003512501
0.0034121376
0.0033139197
0.0032178766
0.0031240267
0.0030323855
0.0029429653
0.0028557757
0.0027708228
0.0026881093
0.0026076345
0.0025293939
0.0024533792
0.0023795783
0.002307975
0.0022385492
0.0021712767
0.0021061293
0.0020430747
0.0019820776
0.0019230996
0.0018660961
0.0018110268
0.0017578509
0.0017064802
0.001656873
0.0016089728
0.0015627162
0.001518038
0.0014748709
0.0014331487
0.0013927986
0.0056252728
0.0054947371
0.0053654635
0.0052375103
0.0051109358
0.0049857974
0.0048621507
0.0047400497
0.0046195475
0.0045007014
0.0043835552
0.0042675761
0.0041540804
0.0040430594
0.0039331238
0.0038251274
0.0037192659
0.0036152378
0.003513214
0.0034132849
0.0033154462
0.0032197298
0.0031261583
0.0030347505
0.0029455225
0.0028584868
0.0027736528
0.0026910262
0.0026106091
0.0025323997
0.0024563925
0.0023825777
0.0023109417
0.0022414665
0.0021741298
0.0021089053
0.0020457624
0.0019846675
0.0019255851
0.0018684711
0.0018132889
0.0017599921
0.0017084983
0.0016587684
0.0016107441
0.0015643633
0.0015195618
0.0014762728
0.0014344308
0.0013939632
0.005601579
0.0054734219
0.0053463642
0.0052204719
0.0050958126
0.0049724512
0.0048504508
0.0047298723
0.0046107743
0.0044932137
0.0043772418
0.0042624663
0.0041501315
0.004039802
0.0039306575
0.0038234074
0.0037182485
0.0036148332
0.0035133584
0.0034139067
0.0033164866
0.0032211334
0.0031278737
0.0030367301
0.002947722
0.0028608657
0.0027761736
0.0026936546
0.0026133139
0.0025351526
0.0024591679
0.0023853528
0.002313696
0.002244182
0.0021767907
0.0021114974
0.002048273
0.0019870864
0.0019279049
0.0018706847
0.0018153975
0.0017619791
0.0017103663
0.0016605159
0.0016123695
0.0015658664
0.0015209429
0.0014775332
0.0014355723
0.0013949879
0.0057019945
0.0055755299
0.0054499047
0.0053252064
0.0052015106
0.005078894
0.0049574299
0.0048371886
0.0047182384
0.0046006439
0.0044844655
0.0043697693
0.0042563606
0.004145119
0.0040355703
0.0039272929
0.0038208535
0.00371648
0.0036137302
0.0035128515
0.0034139221
0.0033169626
0.0032220117
0.0031290998
0.0030382535
0.0029494958
0.0028628466
0.0027783217
0.0026959335
0.0026156901
0.0025375959
0.0024616509
0.0023878509
0.0023161874
0.0022466472
0.0021792126
0.0021138607
0.0020505634
0.0019892924
0.0019300194
0.0018727018
0.0018173108
0.0017637766
0.0017120496
0.0016620823
0.0016138171
0.0015671944
0.0015221515
0.0014786233
0.0014365453
0.0013958458
0.0056705906
0.0055470016
0.005424062
0.0053018682
0.005180506
0.0050600618
0.0049406171
0.0048222505
0.0047050379
0.0045890515
0.0044743611
0.0043610543
0.0042490437
0.0041389308
0.0040303215
0.0039229483
0.0038173699
0.0037138819
0.0036118453
0.003511609
0.003413249
0.0033167948
0.0032222879
0.0031297625
0.0030392491
0.0029507747
0.0028643628
0.0027800329
0.0026978008
0.002617678
0.0025396721
0.0024637861
0.0023900188
0.0023183645
0.0022488128
0.0021813483
0.0021159498
0.0020525899
0.0019912436
0.0019318875
0.0018744826
0.0018189919
0.0017653492
0.0017135136
0.0016634342
0.0016150547
0.0015683165
0.0015231578
0.0014795142
0.0014373221
0.0013965108
0.0056364319
0.0055158783
0.0053957769
0.0052762325
0.0051573418
0.0050392005
0.0049218991
0.0048055248
0.0046901612
0.0045758895
0.0044627905
0.0043509691
0.0042403887
0.0041314958
0.0040239651
0.0039175039
0.0038128731
0.0037103866
0.0036090941
0.0035095451
0.0034118043
0.0033159029
0.0032218844
0.0031297868
0.0030396447
0.0029514889
0.002865347
0.0027812422
0.0026991939
0.0026192173
0.0025413231
0.0024655176
0.0023918027
0.0023201757
0.0022506292
0.0021831502
0.0021177193
0.0020543089
0.0019928978
0.0019334675
0.0018759892
0.001820403
0.0017666614
0.0017147239
0.0016645385
0.0016160504
0.0015692019
0.001523932
0.0014801776
0.0014378757
0.0055994106
0.0054820515
0.005364939
0.0052481885
0.0051319068
0.0050161994
0.0049011661
0.0047869024
0.0046735007
0.0045610507
0.0044496441
0.0043393974
0.0042302968
0.0041227115
0.0040163575
0.0039108547
0.0038073747
0.0037058908
0.0036053798
0.0035065709
0.0034095043
0.0033142068
0.003220724
0.0031290981
0.0030393679
0.0029515687
0.0028657319
0.0027818848
0.0027000506
0.002620248
0.0025424912
0.00246679
0.0023931493
0.0023215698
0.0022520469
0.0021845709
0.0021191243
0.0020556772
0.0019942133
0.0019347236
0.0018771779
0.0018215074
0.0017676778
0.0017156465
0.0016653626
0.0016167728
0.0015698202
0.0015244451
0.0014805856
0.0014381781
0.0055594307
0.0054454214
0.0053314469
0.0052176328
0.0051040967
0.0049909538
0.0048783132
0.0047662791
0.0046549523
0.004544431
0.0044348165
0.0043262325
0.0042186744
0.004112459
0.0040073278
0.0039030968
0.0038008716
0.0037001817
0.003600574
0.0035025969
0.0034062667
0.0033116273
0.0032187302
0.0031276224
0.0030383475
0.0029509451
0.002865451
0.0027818966
0.002700309
0.0026207106
0.0025431194
0.0024675483
0.0023940059
0.0023224958
0.0022530171
0.0021855637
0.00212012
0.0020566507
0.0019951481
0.001935616
0.0018780121
0.0018222704
0.001768364
0.0017162484
0.0016658748
0.0016171913
0.0015701422
0.0015246688
0.0014807107
0.0014382035
0.005516409
0.0054059007
0.0052952094
0.0051844718
0.0050738159
0.0049633667
0.0048532425
0.0047435563
0.0046344173
0.0045259316
0.0044182088
0.0043113779
0.0042054409
0.0041006946
0.0039969055
0.0038940947
0.0037930291
0.0036932411
0.0035946282
0.0034975466
0.0034020133
0.0033080879
0.0032158284
0.0031252875
0.0030365133
0.0029495505
0.0028644392
0.0027812149
0.0026999088
0.0026205473
0.0025431518
0.0024677391
0.002394321
0.0023229044
0.002253492
0.0021860815
0.0021206586
0.0020571855
0.0019956629
0.0019361103
0.0018784561
0.0018226585
0.0017686869
0.0017164981
0.0016660451
0.0016172773
0.0015701403
0.0015245765
0.0014805268
0.0014379269
0.0054702785
0.0053634161
0.0052561486
0.0051486235
0.0050409792
0.0049333504
0.0048258645
0.0047186434
0.0046118042
0.0045054607
0.0043997296
0.0042947439
0.0041905164
0.0040873437
0.003985011
0.0038836407
0.0037837749
0.0036850399
0.0035874776
0.0034913468
0.0033966696
0.0033035149
0.003211947
0.0031220235
0.0030337981
0.0029473199
0.0028626335
0.0027797791
0.0026987918
0.0026197021
0.0025425351
0.0024673113
0.0023940457
0.0023227486
0.0022534256
0.0021860771
0.0021206924
0.0020572423
0.001995733
0.0019361691
0.0018784795
0.0018226401
0.0017686162
0.0017163663
0.0016658454
0.0016170039
0.0015697889
0.0015241438
0.0014800108
0.0014373261
0.0054209898
0.0053179108
0.0052142014
0.0051100197
0.0050055141
0.0049008288
0.0047961003
0.0046914592
0.0045870304
0.0044829349
0.0043792955
0.0042762477
0.004173821
0.0040723223
0.0039715347
0.0038716385
0.0037730698
0.0036754955
0.0035790471
0.0034839255
0.0033901644
0.0032978387
0.0032070176
0.0031177645
0.0030301377
0.0029441913
0.0028599746
0.0027775321
0.0026969032
0.0026181225
0.0025412191
0.0024662169
0.0023931344
0.002321985
0.0022527768
0.0021855116
0.0021201844
0.0020567922
0.0019953367
0.0019357636
0.0018780534
0.0018221862
0.0017681241
0.001715827
0.0016652507
0.0016163475
0.0015690653
0.001523349
0.0014791421
0.0014363813
0.0053685138
0.0052693467
0.0051693221
0.005068608
0.0049673626
0.0048657393
0.0047638835
0.0046619342
0.0045600242
0.0044582814
0.0043568328
0.0042558139
0.0041552797
0.0040555542
0.0039563908
0.0038580236
0.0037608493
0.0036645323
0.0035692646
0.0034752145
0.0033824311
0.0032909938
0.003200977
0.0031124487
0.0030254726
0.0029401075
0.0028564072
0.0027744208
0.0026941922
0.0026157601
0.0025391575
0.0024644121
0.002391546
0.0023205758
0.0022515131
0.0021843632
0.0021191289
0.0020558169
0.0019944143
0.0019348548
0.0018771477
0.0018212704
0.0017671865
0.0017148573
0.00166424
0.0016152879
0.0015679507
0.0015221745
0.0014779038
0.0014350766
0.0053128442
0.0052177071
0.0051214847
0.0050243546
0.004926484
0.0048280351
0.0047291621
0.0046300123
0.0045307264
0.0044314392
0.0043322795
0.0042333757
0.0041348251
0.0040369735
0.0039395057
0.0038427395
0.0037470583
0.0036520854
0.0035580653
0.0034651512
0.0033734086
0.0032829212
0.0031937675
0.0031060207
0.0030197492
0.0029350167
0.0028518817
0.0027703979
0.0026906136
0.0026125717
0.0025363095
0.0024618585
0.0023892443
0.0023184872
0.0022496035
0.002182603
0.0021174884
0.0020542826
0.0019929368
0.001933418
0.0018757379
0.001819871
0.0017657839
0.0017134394
0.0016627965
0.00161381
0.001566431
0.0015206069
0.0014762836
0.0014334006
0.005254
0.0051629986
0.0050706853
0.004977246
0.0048828566
0.0047876875
0.0046919011
0.0045956529
0.0044990921
0.0044023609
0.0043055845
0.0042088718
0.0041123994
0.0040165206
0.0039208279
0.0038257524
0.0037316517
0.0036380987
0.0035453918
0.0034536801
0.0033630436
0.003273569
0.0031853393
0.0030984322
0.0030129211
0.0029288744
0.0028463556
0.0027654227
0.0026861287
0.0026085209
0.0025326406
0.0024585236
0.0023861991
0.0023156908
0.0022470207
0.0021802033
0.0021152423
0.002052151
0.0019908825
0.0019314357
0.0018738073
0.0018179732
0.001763903
0.0017115617
0.0016609099
0.0016119044
0.0015644976
0.0015186388
0.0014742752
0.0014313474
0.0051920277
0.0051052542
0.0050169444
0.004927292
0.0048364807
0.0047446882
0.0046520846
0.004558833
0.0044650915
0.0043710094
0.0042766991
0.0041822597
0.004087967
0.0039941567
0.0039003297
0.003807059
0.0037145895
0.0036225149
0.0035311928
0.0034407543
0.0033512915
0.0032628949
0.0031756515
0.0030896441
0.0030049508
0.002921645
0.0028397947
0.0027594631
0.0026807073
0.0026035791
0.0025281245
0.0024543829
0.0023823872
0.0023121647
0.0022437434
0.0021771395
0.0021123675
0.0020494069
0.0019882482
0.0019288996
0.0018713478
0.00181557
0.0017615381
0.0017092195
0.0016585769
0.0016095687
0.0015621495
0.0015162699
0.0014718787
0.0014289182
0.005127004
0.0050445351
0.0049603097
0.0048745283
0.004787381
0.0046990522
0.0046097187
0.0045195501
0.0044287116
0.0043373561
0.0042455976
0.0041535304
0.0040615479
0.003969869
0.0038779959
0.0037866611
0.0036958054
0.0036052818
0.0035154254
0.0034263381
0.0033381198
0.0032508679
0.0031646747
0.0030796282
0.0029958115
0.0029133029
0.0028321755
0.0027524968
0.0026743288
0.0025977277
0.0025227438
0.0024494208
0.0023777948
0.0023078958
0.0022397598
0.0021734084
0.0021088482
0.0020460509
0.0019850336
0.0019258098
0.0018683609
0.0018126639
0.0017586928
0.0017064174
0.0016558028
0.0016068095
0.0015593938
0.0015135082
0.001469103
0.0014261223
0.0050590378
0.0049809334
0.0049008583
0.0048190183
0.0047356091
0.0046508208
0.0045648353
0.0044778275
0.0043899665
0.0043014124
0.0042122973
0.0041227221
0.0040332018
0.0039436461
0.0038538252
0.003764424
0.003675266
0.0035863898
0.0034980768
0.0034104148
0.0033235114
0.0032374713
0.0031523928
0.0030683692
0.002985489
0.0029038353
0.0028234861
0.0027445137
0.0026669845
0.0025909592
0.0025164926
0.0024436326
0.0023724179
0.0023028818
0.0022350663
0.0021690118
0.0021046886
0.002042089
0.0019812427
0.0019221752
0.0018648587
0.0018092681
0.0017553811
0.0017031704
0.0016526035
0.0016036432
0.0015562478
0.0015103717
0.0014659668
0.0014229789
0.0049882723
0.0049145742
0.0048386988
0.0047608561
0.0046812462
0.0046000637
0.0045174954
0.0044337205
0.0043489123
0.0042632403
0.0041768668
0.0040899028
0.0040028241
0.0039154598
0.0038277794
0.0037403624
0.0036529976
0.0035658558
0.0034791549
0.0033929871
0.0033074668
0.0032227048
0.0031388054
0.0030558672
0.0029739839
0.0028932437
0.0028137292
0.0027355175
0.0026586794
0.00258328
0.0025093781
0.002437026
0.0023662662
0.0022971356
0.0022296832
0.0021639463
0.0020998891
0.0020375196
0.0019768926
0.0019180206
0.0018608673
0.0018054094
0.0017516299
0.0016995055
0.0016490067
0.0016000983
0.0015527407
0.0015068903
0.0014625004
0.001419519
0.004914887
0.0048456176
0.0047739737
0.0047001681
0.0046244045
0.0045468808
0.004467788
0.0043873097
0.0043056237
0.0042229078
0.0041393427
0.004055046
0.00397044
0.0038853549
0.0037998973
0.003714524
0.0036290447
0.0035437072
0.0034586832
0.0033740757
0.0032900047
0.0032065861
0.0031239297
0.0030421393
0.0029613138
0.0028815461
0.0028029238
0.0027255282
0.0026494347
0.0025747122
0.0025014236
0.002429626
0.0023593662
0.0022906841
0.0022236351
0.0021582191
0.0020944432
0.0020323721
0.0019720564
0.0019134094
0.001856435
0.0018011301
0.0017474803
0.0016954642
0.0016450542
0.0015962172
0.0015489156
0.0015031074
0.001458748
0.0014157871
0.0048390993
0.0047742602
0.0047068609
0.0046371153
0.0045652292
0.0044914033
0.0044158316
0.0043387015
0.0042601947
0.0041804931
0.0040997858
0.0040181968
0.0039361204
0.0038534055
0.0037702464
0.0036869775
0.0036034561
0.0035199865
0.0034367041
0.0033537217
0.0032711644
0.0031891533
0.003107803
0.0030272226
0.0029475156
0.0028687799
0.0027911075
0.0027145844
0.0026392901
0.0025652971
0.0024926723
0.0024214782
0.0023517641
0.0022835859
0.00221696
0.0021519002
0.0020884628
0.0020268393
0.0019668826
0.0019084304
0.0018516275
0.0017964884
0.0017429888
0.001691103
0.0016408034
0.0015920581
0.0015448312
0.0014990826
0.0014547693
0.0014118433
0.0047611656
0.0047007374
0.0046375757
0.0045718947
0.0045039006
0.0044337958
0.0043617764
0.0042880326
0.0042127478
0.0041361053
0.0040582983
0.0039794631
0.003899979
0.0038196757
0.0037389336
0.0036577985
0.0035763001
0.0034947607
0.0034132833
0.0033319889
0.0032510083
0.0031704671
0.0030904851
0.003011176
0.002932648
0.0028550036
0.0027783393
0.0027027455
0.0026283057
0.0025550962
0.0024831877
0.0024126494
0.0023435374
0.0022759055
0.0022097695
0.0021451915
0.0020822434
0.0020209388
0.0019611772
0.0019030222
0.0018464728
0.0017915433
0.0017382247
0.0016864953
0.0016363295
0.0015876972
0.0015405646
0.0014948934
0.0014506425
0.0014077662
0.0046813827
0.0046253235
0.0045663723
0.0045047412
0.0044406359
0.0043742586
0.0043058069
0.0042354719
0.0041634382
0.00408989
0.004015029
0.0039390039
0.0038621609
0.0037843293
0.0037060019
0.0036270681
0.003547684
0.0034681319
0.0033885163
0.0033089686
0.0032296246
0.0031506141
0.0030720609
0.0029940833
0.002916794
0.0028402997
0.0027647014
0.0026900938
0.0026165644
0.0025441928
0.0024730541
0.0024032215
0.0023347719
0.0022677262
0.0022021387
0.0021380731
0.00207557
0.0020145836
0.0019551477
0.0018973175
0.0018410612
0.0017863833
0.0017332794
0.001681735
0.0016317281
0.0015832315
0.0015362135
0.0014906382
0.0014464664
0.0014036549
0.0046000881
0.0045483338
0.0044935447
0.0044359294
0.0043756912
0.0043130307
0.0042481448
0.0041812251
0.0041124574
0.0040420341
0.0039701665
0.0038970106
0.0038228094
0.003747465
0.0036716079
0.0035949536
0.0035177432
0.0034402258
0.0033625252
0.0032847803
0.0032071304
0.0031297087
0.003052643
0.0029760558
0.0029000636
0.0028247775
0.0027503025
0.0026767374
0.0026041739
0.0025326956
0.0024623826
0.0023933129
0.0023255619
0.0022591522
0.0021941551
0.0021306216
0.0020685743
0.0020079941
0.0019489455
0.0018914615
0.0018355252
0.0017811297
0.0017282721
0.0016769414
0.0016271193
0.0015787817
0.0015318993
0.0014864389
0.0014423634
0.0013996321
0.0045176599
0.0044701242
0.0044194282
0.0043657751
0.0043093639
0.0042503924
0.004189055
0.004125543
0.0040600473
0.0039927725
0.0039239029
0.0038537052
0.0037820697
0.003709249
0.0036359625
0.0035616478
0.0034866426
0.003411201
0.0033354647
0.0032595752
0.0031836735
0.0031078963
0.0030323746
0.0029572347
0.0028825968
0.0028085758
0.0027352804
0.0026628135
0.0025912711
0.0025207417
0.0024513082
0.0023830603
0.0023160423
0.0022503187
0.0021859503
0.0021229829
0.0020614398
0.0020013289
0.0019427064
0.0018856046
0.0018300149
0.0017759313
0.0017233497
0.001672261
0.0016226499
0.0015744949
0.0015277697
0.0014824436
0.0014384818
0.0013958465
0.0044345165
0.0043910916
0.0043443995
0.0042946358
0.0042419941
0.0041866675
0.0041288475
0.0040687242
0.0040064936
0.0039423678
0.0038765058
0.0038091685
0.0037400992
0.003670037
0.0035993515
0.0035273647
0.0034545792
0.0033812503
0.0033075236
0.0032335382
0.0031594359
0.0030853558
0.0030114321
0.0029377942
0.002864566
0.0027918656
0.0027198054
0.0026484923
0.0025780264
0.0025084976
0.0024400073
0.0023726131
0.0023063822
0.002241391
0.0021776934
0.0021153346
0.0020543445
0.0019947473
0.0019365933
0.0018799133
0.0018247053
0.001770965
0.0017186891
0.0016678703
0.001618496
0.0015705475
0.0015240014
0.0014788294
0.0014349993
0.0013924761
0.0043511157
0.0043116733
0.004268876
0.0042229103
0.0041739626
0.0041222203
0.0040678701
0.0040110991
0.0039521019
0.0038910841
0.0038281866
0.0037637027
0.0036974651
0.0036302496
0.0035618751
0.0034922381
0.0034217449
0.0033505911
0.003278924
0.0032068902
0.0031346356
0.0030623022
0.0029900275
0.002917944