/*--------------------------------*- C++ -*----------------------------------*\
| =========                 |                                                 |
| \\      /  F ield         | OpenFOAM: The Open Source CFD Toolbox           |
|  \\    /   O peration     | Version:  2312                                  |
|   \\  /    A nd           | Website:  www.openfoam.com                      |
|    \\/     M anipulation  |                                                 |
\*---------------------------------------------------------------------------*/
FoamFile
{
    version     2.0;
    format      ascii;
    arch        "LSB;label=32;scalar=64";
    class       volScalarField;
    location    "0.02";
    object      nut;
}
// * * * * * * * * * * * * * * * * * * * * * * * * * * * * * * * * * * * * * //

dimensions      [0 2 -1 0 0 0 0];

internalField   nonuniform List<scalar> 
3250
(
0.037263983
0.037081472
0.036894043
0.036701469
0.036503586
0.036300282
0.036091497
0.035877227
0.035657522
0.035432499
0.035202351
0.034967344
0.034727788
0.034484074
0.034236649
0.033985987
0.03373261
0.033477056
0.033219985
0.032962087
0.032704078
0.032446707
0.032190738
0.031936952
0.031686134
0.031439064
0.031196512
0.030959226
0.03072792
0.030503267
0.030285887
0.030076342
0.029875121
0.029682639
0.029499225
0.029325127
0.029160498
0.029005406
0.02885983
0.028723665
0.02859673
0.028478771
0.028369473
0.028268482
0.028175432
0.02808986
0.02801133
0.027939382
0.027873559
0.037260618
0.037078275
0.036891006
0.03669858
0.036500838
0.036297668
0.036089011
0.035874863
0.035655275
0.035430363
0.035200322
0.034965418
0.034725959
0.034482339
0.034235003
0.033984426
0.03373113
0.033475653
0.033218655
0.032960827
0.032702885
0.032445575
0.032189665
0.031935933
0.031685166
0.031438143
0.031195635
0.030958388
0.030727118
0.030502497
0.030285147
0.030075627
0.029874427
0.029681963
0.029498564
0.029324476
0.029159855
0.029004768
0.028859194
0.028723027
0.028596088
0.028478123
0.028368819
0.028267822
0.028174756
0.02808917
0.028010623
0.027938662
0.027872829
0.037253966
0.03707194
0.036884973
0.03669283
0.036495357
0.036292442
0.036084028
0.035870111
0.035650745
0.035426045
0.035196205
0.034961493
0.034722218
0.034478774
0.034231607
0.033981191
0.033728049
0.033472718
0.033215861
0.032958166
0.032700351
0.032443163
0.032187367
0.031933745
0.031683079
0.031436153
0.031193735
0.030956573
0.030725381
0.030500832
0.030283547
0.030074087
0.029872942
0.029680525
0.029497169
0.029323117
0.029158527
0.029003464
0.028857909
0.028721757
0.028594826
0.028476866
0.028367565
0.028266568
0.028173491
0.028087892
0.02800933
0.027937358
0.027871513
0.037244035
0.037062476
0.036875951
0.036684226
0.036487149
0.03628461
0.036076554
0.035862979
0.035643938
0.035419548
0.035190004
0.034955575
0.034716571
0.034473386
0.034226467
0.033976288
0.033723372
0.033468258
0.033211608
0.032954112
0.032696486
0.032439478
0.032183854
0.031930394
0.031679883
0.031433102
0.031190822
0.030953788
0.030722716
0.030498279
0.030281098
0.030071733
0.029870674
0.029678335
0.029495048
0.029321058
0.02915652
0.029001502
0.028855983
0.02871986
0.028592952
0.028475007
0.028365716
0.028264725
0.028171641
0.028086032
0.028007456
0.02793547
0.02786961
0.037230836
0.037049893
0.036863951
0.036672778
0.036476222
0.03627418
0.036066596
0.03585347
0.035634858
0.035410878
0.035181725
0.034947668
0.03470902
0.034466177
0.034219585
0.033969718
0.033717101
0.033462273
0.033205897
0.032948663
0.032691288
0.032434519
0.032179123
0.03192588
0.031675575
0.031428989
0.031186893
0.030950033
0.030719123
0.030494838
0.030277798
0.030068563
0.029867622
0.029675391
0.029492201
0.029318297
0.029153834
0.028998881
0.028853416
0.028717337
0.028590464
0.028472545
0.028363273
0.028262291
0.028169206
0.028083589
0.028004999
0.027932997
0.027867119
0.03721533
0.037035106
0.036849844
0.036659315
0.03646337
0.036261907
0.036054875
0.035842275
0.035624164
0.035400662
0.035171964
0.034938343
0.034700111
0.034457667
0.034211456
0.033961955
0.033709687
0.033455194
0.033199139
0.032942212
0.03268513
0.032428642
0.032173514
0.031920527
0.031670464
0.031424109
0.03118223
0.030945576
0.030714859
0.030490755
0.030273882
0.030064802
0.029864005
0.029671904
0.029488831
0.029315031
0.02915066
0.028995787
0.02885039
0.028714367
0.028587538
0.028469654
0.028360406
0.028259439
0.028166357
0.028080735
0.028002133
0.027930115
0.027864215
0.037197999
0.037018574
0.03683407
0.036644258
0.036448993
0.036248176
0.036041758
0.035829743
0.03561219
0.03538922
0.03516103
0.034927892
0.034690124
0.034448124
0.034202339
0.033953245
0.033701366
0.033447246
0.033191549
0.032934965
0.032678211
0.032422037
0.032167209
0.031914507
0.031664716
0.031418619
0.031176985
0.030940561
0.030710062
0.03048616
0.030269477
0.030060573
0.029859937
0.029667984
0.029485044
0.029311364
0.029147099
0.028992317
0.028846999
0.028711041
0.028584265
0.028466422
0.028357203
0.028256254
0.02816318
0.028077555
0.027998942
0.027926906
0.027860983
0.037177496
0.036999014
0.036815402
0.036626436
0.036431972
0.036231916
0.036026221
0.035814896
0.035598001
0.035375658
0.035148066
0.0349155
0.034678278
0.034436802
0.034191519
0.033942905
0.033691485
0.033437806
0.033182531
0.032926352
0.032669986
0.032414183
0.032159709
0.031907346
0.031657877
0.031412086
0.031170742
0.030934592
0.030704351
0.030480692
0.030264235
0.03005554
0.029855097
0.029663321
0.029480542
0.029307005
0.029142868
0.028988197
0.028842974
0.028707096
0.028580385
0.028462592
0.028353412
0.028252486
0.028159423
0.028073797
0.027995174
0.027923119
0.027857169
0.037153605
0.036976217
0.036793642
0.036605657
0.036412124
0.036212952
0.036008098
0.035797574
0.035581443
0.035359829
0.035132932
0.034901028
0.034664441
0.034423574
0.034178875
0.033930819
0.033679932
0.033426765
0.033171982
0.032916274
0.032660361
0.03240499
0.032150929
0.03189896
0.031649867
0.031404433
0.031163428
0.030927599
0.03069766
0.030474284
0.030258092
0.030049644
0.029849428
0.02965786
0.02947527
0.029301903
0.029137916
0.028983378
0.028838268
0.028702486
0.028575853
0.028458122
0.028348987
0.028248091
0.028155043
0.028069419
0.027990786
0.02791871
0.02785273
0.037126101
0.03694997
0.036768584
0.036581725
0.03638926
0.036191102
0.035987213
0.035777608
0.035562353
0.035341577
0.035115477
0.034884335
0.034648477
0.034408309
0.034164279
0.033916864
0.033666591
0.033414013
0.033159795
0.032904629
0.032649235
0.032394361
0.032140777
0.031889261
0.031640602
0.031395581
0.031154967
0.030919508
0.030689918
0.03046687
0.030250985
0.030042821
0.029842869
0.029651542
0.029469172
0.029296003
0.029132193
0.028977808
0.028832832
0.028697162
0.028570621
0.028452963
0.028343883
0.028243024
0.028149995
0.028064376
0.027985733
0.027913636
0.027847621
0.037094754
0.036920049
0.036740013
0.036554434
0.036363183
0.036166177
0.035963384
0.035754823
0.035540565
0.03532074
0.035095547
0.03486527
0.034630241
0.034390868
0.0341476
0.033900914
0.033651338
0.033399431
0.033145856
0.032891307
0.032636505
0.032382199
0.032129156
0.031878159
0.031629994
0.031385443
0.031145276
0.03091024
0.03068105
0.030458378
0.030242844
0.030035007
0.029835357
0.029644308
0.02946219
0.029289249
0.029125641
0.028971435
0.028826613
0.028691073
0.02856464
0.028447067
0.028338051
0.028237236
0.028144232
0.02805862
0.027979968
0.027907848
0.027841797
0.037059324
0.036886226
0.03670771
0.036523572
0.036333687
0.03613798
0.035936422
0.035729038
0.035515903
0.03529715
0.03507298
0.034843678
0.034609583
0.034371107
0.034128699
0.033882835
0.033634047
0.033382896
0.033130048
0.032876196
0.032622062
0.032368396
0.032115967
0.031865556
0.031617951
0.031373933
0.031134272
0.030899716
0.030670978
0.030448732
0.030233597
0.030026131
0.029826825
0.029636092
0.029454262
0.02928158
0.029118204
0.028964202
0.028819556
0.028684166
0.028557856
0.028440383
0.028331441
0.028230677
0.028137703
0.028052101
0.027973442
0.027901296
0.027835206
0.037019564
0.036848262
0.036671446
0.036488919
0.036300563
0.036106308
0.035906131
0.035700064
0.035488186
0.035270632
0.035047606
0.034819396
0.034586348
0.034348877
0.034107431
0.033862488
0.033614582
0.033364279
0.033112245
0.032859175
0.032605791
0.032352845
0.032101104
0.031851352
0.031604374
0.031360955
0.031121864
0.030887847
0.030659619
0.030437853
0.030223167
0.030016121
0.029817202
0.029626825
0.02944532
0.029272933
0.029109819
0.028956048
0.028811602
0.028676383
0.028550215
0.028432854
0.028323998
0.028223294
0.028130356
0.028044767
0.027966101
0.027893929
0.027827797
0.036975222
0.036805914
0.036630986
0.036450249
0.036263592
0.03607095
0.03587231
0.035667705
0.035457224
0.035241005
0.035019252
0.034792255
0.034560372
0.03432402
0.034083645
0.033839727
0.033592804
0.033343445
0.033092319
0.03284012
0.032587573
0.032335428
0.032084456
0.031835438
0.031589163
0.031346413
0.031107957
0.030874544
0.030646887
0.030425657
0.030211475
0.030004898
0.029806414
0.029616437
0.029435298
0.02926324
0.029100421
0.028946911
0.028802691
0.028667664
0.028541656
0.028424423
0.028315665
0.028215031
0.028122134
0.028036562
0.02795789
0.027885692
0.027819513
0.036926038
0.036758934
0.03658609
0.03640733
0.03622255
0.036031691
0.035834748
0.035631761
0.035422824
0.035208081
0.034987737
0.034762082
0.034531488
0.034296374
0.034057185
0.033814402
0.033568567
0.033320254
0.033070134
0.032818901
0.032567282
0.032316027
0.032065907
0.031817705
0.031572209
0.031330202
0.031092454
0.030859712
0.030632689
0.030412058
0.030198436
0.029992381
0.029794383
0.029604852
0.02942412
0.029252431
0.029089943
0.028936724
0.028792757
0.028657946
0.028532118
0.02841503
0.028306382
0.028205827
0.028112979
0.028027428
0.027948751
0.027876525
0.027810297
0.03687175
0.036707066
0.036536512
0.036359925
0.036177207
0.035988309
0.035793231
0.035592023
0.035384785
0.035171666
0.034952873
0.034728695
0.034499521
0.034265771
0.034027888
0.033786355
0.033541719
0.033294561
0.03304555
0.032795383
0.032544787
0.032294515
0.032045336
0.031798036
0.031553401
0.031312216
0.031075251
0.030843251
0.030616931
0.030396961
0.030183961
0.029978486
0.029781025
0.029591991
0.029411711
0.029240433
0.029078311
0.028925417
0.028781733
0.028647163
0.028521535
0.028404609
0.028296086
0.02819562
0.028102828
0.028017303
0.027938623
0.027866368
0.027800088
0.036812088
0.036650052
0.036482001
0.03630779
0.036127329
0.035940577
0.03574754
0.035548279
0.035342901
0.035131562
0.034914467
0.034691907
0.034464292
0.034232037
0.033995586
0.033755425
0.033512104
0.033266212
0.03301842
0.032769424
0.032519953
0.03227076
0.032022617
0.031776308
0.031532622
0.031292342
0.031056238
0.030825057
0.030599511
0.030380272
0.030167957
0.029963123
0.029766256
0.029577769
0.029397991
0.029227166
0.029065451
0.028912916
0.028769546
0.028635243
0.028509839
0.028393094
0.028284711
0.028184346
0.028091618
0.028006122
0.027927441
0.027855156
0.027788822
0.036746783
0.036587627
0.036422303
0.036250679
0.036072677
0.035888262
0.035697451
0.035500311
0.03529696
0.035087562
0.034872323
0.034651527
0.034425613
0.034194993
0.033960105
0.033721441
0.033479559
0.033235052
0.032988592
0.032740878
0.032492638
0.032244628
0.031997619
0.031752396
0.031509749
0.031270462
0.031035303
0.03080502
0.030580326
0.030361889
0.030150327
0.029946197
0.029749984
0.0295621
0.029382874
0.029212549
0.029051282
0.028899145
0.028756121
0.028622115
0.028496958
0.028380414
0.028272187
0.028171934
0.028079279
0.027993819
0.027915139
0.027842824
0.027776431
0.036675561
0.036519527
0.036357159
0.036188343
0.036013007
0.035831129
0.035642733
0.035447897
0.035246747
0.035039457
0.034826236
0.034607356
0.034383297
0.034154454
0.033921265
0.033684231
0.033443915
0.033200917
0.032955909
0.032709592
0.032462696
0.032215975
0.031970203
0.031726168
0.031484656
0.031246453
0.031012328
0.030783028
0.030559264
0.030341706
0.03013097
0.029927611
0.029732115
0.029544892
0.029366271
0.029196496
0.029035722
0.028884022
0.028741379
0.028607699
0.028482817
0.028366495
0.02825844
0.028158314
0.02806574
0.027980321
0.027901645
0.027829299
0.027762845
0.036744471
0.03659815
0.036445486
0.036286312
0.036120529
0.035948076
0.03576894
0.035583156
0.03539081
0.035192041
0.034987032
0.034775998
0.034559194
0.034337147
0.034110229
0.033878882
0.033643614
0.033404999
0.033163639
0.032920209
0.03267541
0.032429973
0.032184655
0.03194023
0.031697485
0.03145721
0.031220188
0.03098719
0.030758961
0.030536213
0.030319613
0.030109778
0.029907262
0.029712549
0.02952605
0.029348091
0.029178917
0.029018684
0.028867462
0.028725237
0.028591916
0.028467335
0.028351258
0.028243394
0.028143408
0.028050927
0.027965555
0.027886885
0.027814509
0.027747991
0.036656773
0.036514282
0.03636524
0.036209504
0.036046985
0.035877636
0.035701454
0.035518484
0.035328824
0.035132619
0.03493007
0.034721398
0.034506834
0.034286965
0.034062125
0.033832765
0.033599408
0.033362632
0.033123046
0.032881324
0.032638169
0.032394313
0.032150515
0.031907551
0.031666207
0.031427274
0.031191535
0.030959761
0.030732696
0.030511052
0.030295495
0.030086641
0.029885043
0.029691184
0.029505472
0.029328236
0.029159718
0.029000075
0.028849376
0.028707609
0.028574682
0.02845043
0.028334622
0.028226969
0.028127138
0.02803476
0.027949443
0.027870783
0.027798376
0.027731791
0.036562079
0.036423691
0.03627853
0.036126479
0.035967462
0.035801443
0.035628431
0.035448484
0.035261706
0.035068257
0.034868348
0.034662219
0.034450069
0.034232548
0.034009942
0.033782721
0.033551423
0.033316632
0.03307896
0.032839082
0.032597702
0.032355555
0.0321134
0.031872014
0.031632186
0.031394705
0.031160356
0.030929908
0.030704105
0.030483659
0.030269234
0.030061444
0.029860842
0.02966791
0.029483056
0.029306606
0.029138802
0.0289798
0.028829672
0.028688405
0.028555906
0.028432016
0.028316503
0.028209081
0.028109421
0.028017158
0.027931904
0.027853259
0.027780822
0.027714166
0.036460128
0.036326115
0.036185099
0.036036984
0.035881708
0.03571925
0.035549631
0.035372918
0.035189228
0.03499873
0.034801643
0.034598218
0.034388717
0.03417369
0.033953476
0.033728551
0.033499468
0.033266812
0.0330312
0.032793306
0.032553838
0.032313531
0.032073147
0.031833464
0.031595271
0.031359358
0.031126509
0.030897494
0.030673056
0.030453904
0.030240704
0.030034067
0.029834544
0.029642617
0.029458692
0.029283095
0.029116066
0.028957762
0.028808253
0.028667529
0.028535498
0.028412001
0.02829681
0.028189643
0.028090172
0.027998036
0.027912853
0.027834227
0.027761762
0.027695034
0.036472942
0.03635067
0.036221304
0.036084697
0.035940772
0.035789481
0.035630818
0.035464815
0.035291552
0.035111158
0.034923811
0.03472974
0.034529212
0.034322528
0.034110175
0.033892521
0.033670054
0.033443348
0.033212983
0.03297958
0.032743816
0.0325064
0.032268071
0.032029591
0.03179174
0.031555306
0.031321081
0.031089849
0.030862378
0.030639411
0.030421657
0.030209778
0.030004386
0.029806029
0.029615188
0.029432268
0.029257593
0.029091404
0.028933855
0.028785018
0.028644883
0.028513361
0.028390293
0.028275453
0.028168563
0.028069299
0.027977305
0.027892203
0.027813602
0.027741112
0.027674309
0.036350557
0.036233465
0.036109018
0.035977086
0.035837604
0.035690543
0.035535909
0.035373749
0.035204156
0.035027269
0.034843277
0.03465242
0.034454983
0.034251289
0.034041788
0.033826871
0.033607029
0.033382865
0.033154952
0.032923913
0.032690429
0.032455212
0.032219001
0.031982563
0.031746676
0.031512131
0.031279719
0.031050224
0.030824414
0.03060303
0.030386779
0.030176324
0.029972273
0.029775173
0.029585504
0.029403668
0.029229989
0.029064706
0.028907973
0.028759863
0.028620366
0.028489395
0.028366792
0.028252334
0.028145747
0.02804671
0.027954873
0.027869862
0.027791294
0.027718781
0.027651909
0.036219913
0.036108287
0.035989032
0.035862035
0.035727251
0.035584664
0.035434295
0.035276206
0.035110503
0.034937336
0.034756905
0.034569463
0.034375311
0.034174785
0.033968318
0.033756321
0.033539269
0.033317822
0.033092525
0.032864008
0.032632958
0.032400089
0.032166144
0.031931889
0.031698105
0.031465583
0.031235114
0.031007482
0.030783453
0.030563768
0.030349132
0.030140205
0.029937595
0.029741848
0.029553439
0.02937277
0.029200164
0.029035858
0.028880006
0.02873268
0.028593873
0.028463498
0.028341398
0.028227355
0.028121096
0.028022309
0.027930644
0.027845736
0.027767206
0.027694677
0.036080814
0.035974931
0.035861135
0.035739334
0.035609497
0.035471625
0.035325757
0.035171967
0.035010373
0.03484114
0.034664479
0.034480654
0.034289981
0.034092806
0.033889556
0.033680667
0.033466569
0.03324802
0.033025505
0.032799673
0.032571215
0.032340849
0.03210932
0.031877395
0.031645856
0.031415496
0.031187104
0.030961464
0.030739341
0.030521476
0.03030857
0.030101283
0.029900219
0.029705922
0.029518866
0.029339451
0.029167998
0.029004744
0.028849839
0.028703358
0.028565293
0.028435561
0.028314005
0.028200411
0.028094511
0.027995994
0.02790452
0.027819727
0.027741243
0.027668685
0.035933087
0.035833214
0.035725139
0.035608785
0.035484141
0.035351224
0.035210088
0.035060821
0.034903557
0.034738471
0.034565787
0.034385782
0.034198782
0.034005142
0.033805289
0.033599666
0.033388769
0.033173266
0.032953697
0.032730715
0.032505011
0.032277307
0.032048348
0.031818903
0.031589757
0.0313617
0.031135524
0.030912011
0.030691925
0.030476003
0.030264947
0.030059414
0.029860005
0.029667261
0.029481655
0.029303584
0.029133368
0.028971242
0.028817355
0.028671781
0.028534516
0.028405475
0.028284507
0.028171398
0.028065886
0.027967665
0.027876399
0.027791735
0.027713306
0.027640727
0.035776588
0.035682982
0.035580877
0.035470216
0.035351003
0.035223273
0.035087095
0.034942574
0.034789854
0.034629127
0.034460627
0.034284642
0.034101509
0.033911594
0.033715325
0.033513161
0.03330563
0.033093355
0.032876905
0.032656942
0.032434158
0.032209277
0.031983046
0.031756237
0.031529634
0.031304028
0.03108021
0.030858962
0.030641045
0.030427197
0.030218115
0.030014453
0.029816812
0.029625728
0.029441672
0.029265038
0.029096146
0.028935229
0.028782431
0.028637832
0.028501425
0.028373128
0.028252791
0.028140206
0.028035113
0.027937214
0.027846178
0.027761657
0.027683293
0.027610702
0.035611206
0.03552411
0.035428213
0.035323477
0.035209924
0.035087606
0.034956606
0.034817045
0.034669082
0.03451292
0.034348806
0.03417704
0.033997968
0.033811966
0.03361947
0.033420954
0.03321696
0.033008093
0.032794939
0.032578166
0.03235847
0.032136576
0.031913235
0.031689219
0.031465313
0.031242308
0.031020995
0.030802154
0.030586545
0.030374903
0.030167922
0.029966255
0.029770497
0.029581183
0.029398781
0.029223682
0.029056203
0.028896577
0.028744946
0.02860139
0.028465902
0.028338403
0.028218745
0.028106724
0.028002084
0.027904533
0.027813748
0.027729387
0.0276511
0.027578507
0.03543687
0.035356506
0.035267039
0.035168448
0.035060772
0.034944078
0.034818467
0.034684074
0.034541072
0.034389677
0.034230149
0.034062795
0.033887974
0.033706073
0.033517539
0.033322855
0.033122573
0.032917292
0.032707611
0.032494201
0.032277763
0.032059023
0.031838736
0.031617673
0.031396621
0.031176372
0.030957714
0.030741425
0.030528266
0.030318965
0.030114218
0.029914671
0.029720917
0.029533487
0.029352846
0.029179382
0.029013407
0.028855152
0.028704772
0.028562333
0.028427829
0.028301184
0.028182254
0.028070838
0.027966687
0.027869514
0.027779003
0.027694819
0.02761662
0.027544036
0.035253549
0.035180121
0.035097287
0.035005042
0.034903444
0.034792576
0.034672552
0.034543524
0.034405678
0.034259244
0.034104492
0.033941741
0.033771358
0.033593744
0.033409357
0.033218683
0.033022291
0.032820774
0.032614742
0.03240487
0.03219186
0.031976443
0.031759374
0.031541428
0.031323391
0.031106053
0.030890202
0.030676616
0.03046605
0.030259232
0.030056852
0.029859554
0.029667927
0.029482499
0.029303728
0.029132002
0.02896763
0.02881084
0.028661788
0.028520538
0.028387083
0.02826135
0.028143199
0.028032433
0.027928808
0.027832044
0.027741832
0.027657845
0.027579749
0.027507183
0.035061264
0.034994949
0.034918927
0.034833211
0.034737874
0.034633014
0.034518762
0.034395283
0.034262777
0.034121488
0.033971697
0.033813732
0.033647964
0.033474821
0.033294761
0.033108273
0.032915946
0.032718372
0.032516165
0.032310002
0.032100591
0.031888666
0.031674983
0.031460318
0.031245456
0.031031189
0.030818301
0.030607568
0.030399743
0.03019555
0.029995676
0.029800759
0.029611386
0.029428079
0.029251293
0.029081412
0.028918741
0.028763509
0.028615868
0.028475881
0.028343544
0.028218784
0.028101464
0.027991394
0.027888335
0.027792012
0.027702125
0.027618356
0.02754038
0.027467845
0.034860087
0.034801033
0.034731976
0.034652947
0.034564032
0.034465346
0.034357033
0.034239271
0.034112276
0.033976303
0.033831648
0.033678643
0.033517661
0.033349163
0.033173609
0.032991473
0.032803388
0.032609931
0.03241172
0.032209439
0.032003797
0.031795532
0.031585402
0.031374183
0.031162661
0.030951624
0.030741856
0.03053413
0.030329196
0.030127773
0.029930544
0.029738144
0.029551153
0.02937009
0.029195405
0.029027478
0.028866612
0.028713033
0.028566887
0.02842824
0.02829709
0.028173365
0.028056932
0.027947605
0.027845152
0.027749306
0.027659773
0.027576245
0.027498406
0.027425916
0.03465015
0.034598471
0.034536502
0.03446429
0.034381935
0.034289564
0.034187337
0.034075444
0.033954114
0.033823615
0.033684256
0.033536374
0.033380334
0.033216652
0.033045772
0.032868156
0.032684484
0.032495312
0.032301266
0.032103034
0.03190133
0.031696893
0.031490482
0.031282875
0.031074855
0.03086721
0.030660721
0.030456157
0.030254265
0.030055759
0.029861318
0.029671571
0.029487094
0.029308399
0.029135933
0.028970072
0.028811115
0.028659283
0.02851472
0.028377493
0.028247601
0.028124976
0.028009487
0.027900953
0.027799149
0.027703815
0.027614667
0.027531405
0.027453724
0.027381294
0.034431647
0.03438742
0.034332629
0.034267333
0.034191646
0.034105708
0.03400969
0.033903796
0.033788266
0.033663382
0.033529462
0.033386852
0.033235904
0.033077193
0.032911138
0.032738233
0.03255913
0.032374397
0.032184677
0.031990659
0.031793058
0.031592615
0.03139009
0.031186258
0.030981904
0.030777811
0.03057476
0.030373514
0.030174816
0.029979376
0.029787866
0.029600911
0.02941908
0.02924288
0.029072753
0.02890907
0.028752127
0.02860214
0.028459248
0.028323522
0.028194962
0.028073502
0.027959016
0.027851327
0.027750217
0.027655433
0.027566701
0.027483733
0.027406231
0.027333879
0.034204843
0.034168103
0.034120541
0.034062226
0.033993284
0.033913866
0.033824156
0.033724367
0.033614751
0.033495599
0.033367237
0.033230025
0.033084348
0.032930745
0.032769657
0.032601609
0.032427224
0.032247086
0.032061851
0.031872207
0.031678872
0.031482585
0.031284107
0.031084214
0.030883686
0.030683307
0.030483852
0.030286079
0.030090728
0.029898502
0.029710067
0.029526043
0.029346992
0.029173415
0.029005745
0.028844355
0.028689532
0.028541488
0.028400357
0.028266215
0.028139062
0.028018835
0.027905411
0.02779862
0.027698249
0.027604056
0.027515775
0.027433128
0.027355831
0.027283578
0.033970074
0.033940812
0.033900488
0.033849182
0.033787027
0.033714186
0.033630851
0.033537247
0.033433635
0.033320313
0.033197618
0.033065925
0.032925642
0.032777273
0.032621287
0.032458229
0.032288704
0.032113312
0.031932714
0.031747598
0.031558683
0.03136671
0.031172439
0.030976643
0.030780102
0.030583594
0.03038789
0.030193746
0.030001893
0.029813029
0.029627814
0.029446859
0.029270721
0.029099893
0.028934804
0.028775819
0.028623222
0.028477221
0.028337941
0.028205465
0.028079796
0.027960871
0.027848571
0.027742731
0.027643148
0.027549587
0.027461793
0.0273795
0.027302433
0.027230301
0.033727757
0.033705916
0.033672794
0.033628481
0.033573118
0.033506874
0.033429952
0.033342583
0.033245039
0.033137623
0.033020683
0.032894606
0.032759812
0.032616789
0.032466027
0.032308082
0.03214355
0.031973042
0.031797222
0.031616781
0.031432436
0.031244928
0.031055016
0.030863472
0.030671072
0.03047859
0.030286793
0.030096429
0.029908224
0.029722869
0.029541015
0.029363267
0.029190174
0.029022223
0.028859835
0.028703368
0.0285531
0.028409236
0.028271899
0.028141177
0.02801707
0.027899515
0.027788401
0.027683569
0.027584822
0.027491937
0.027404668
0.027322761
0.027245954
0.027173968
0.033478393
0.033463862
0.03343786
0.033400481
0.033351871
0.033292208
0.033221699
0.033140585
0.033049142
0.032947683
0.032836559
0.032716168
0.032586938
0.032449356
0.032303923
0.032151202
0.031991781
0.031826284
0.031655373
0.031479742
0.031300106
0.031117207
0.030931802
0.030744658
0.030556549
0.030368243
0.030180502
0.029994067
0.029809656
0.029627953
0.0294496
0.029275194
0.029105276
0.028940326
0.028780757
0.028626914
0.028479064
0.028337406
0.028202138
0.028073268
0.027950801
0.027834688
0.027724822
0.027621053
0.027523193
0.027431027
0.027344323
0.027262837
0.027186322
0.027114511
0.033222569
0.033215184
0.033196167
0.033165615
0.033123679
0.033070538
0.033006406
0.03293153
0.032846191
0.032750706
0.032645432
0.03253077
0.032407161
0.032275094
0.032135076
0.031987675
0.031833467
0.031673089
0.031507206
0.031336508
0.031161711
0.030983555
0.030802794
0.030620192
0.030436516
0.030252531
0.03006899
0.029886627
0.029706153
0.029528241
0.029353526
0.029182594
0.029015978
0.028854149
0.028697511
0.028546401
0.028401087
0.02826178
0.028128627
0.028001676
0.027880924
0.027766321
0.027657766
0.027555116
0.027458193
0.027366794
0.027280696
0.027199669
0.027123478
0.027051873
0.032960967
0.032960507
0.032948288
0.032924407
0.032889015
0.032842295
0.032784463
0.03271577
0.032636502
0.032546978
0.032447555
0.03233864
0.03222069
0.032094188
0.031959648
0.031817636
0.031668727
0.031513565
0.031352811
0.031187156
0.031017316
0.030844026
0.030668037
0.030490108
0.030311
0.030131472
0.029952267
0.029774114
0.029597711
0.029423724
0.029252777
0.029085445
0.028922254
0.028763663
0.028610069
0.028461803
0.028319133
0.028182266
0.028051317
0.02792636
0.027807393
0.027694365
0.027587183
0.027485709
0.027389775
0.027299188
0.027213739
0.02713321
0.027057381
0.026986016
0.032694362
0.032700549
0.032694885
0.032677467
0.032648443
0.032607998
0.032556347
0.032493742
0.032420472
0.032336858
0.032243259
0.032140086
0.032027807
0.031906888
0.031777862
0.03164129
0.031497748
0.031347875
0.031192337
0.031031821
0.03086704
0.030698725
0.030527624
0.030354488
0.030180072
0.030005126
0.029830387
0.02965657
0.029484367
0.029314432
0.029147377
0.028983766
0.028824115
0.028668875
0.028518433
0.028373116
0.028233185
0.028098836
0.027970182
0.027847296
0.027730183
0.027618797
0.027513046
0.027412804
0.02731791
0.027228183
0.027143428
0.027063438
0.026988009
0.02691692
0.032423632
0.032436127
0.032436721
0.032425505
0.032402624
0.032368259
0.032322624
0.03226597
0.032198585
0.032120792
0.032032959
0.031935499
0.031828878
0.031713516
0.031590019
0.031458917
0.031320784
0.031176257
0.031026
0.030870699
0.030711064
0.03054782
0.030381707
0.030213471
0.030043859
0.02987361
0.029703452
0.02953409
0.029366204
0.029200436
0.029037388
0.028877612
0.028721612
0.028569827
0.028422639
0.028280365
0.028143261
0.028011511
0.027885232
0.027764491
0.027649299
0.027539616
0.027435356
0.027336399
0.027242596
0.027153777
0.02706976
0.026990353
0.026915365
0.026844591
0.032149755
0.032168163
0.032174661
0.032169333
0.032152318
0.032123791
0.032083963
0.032033081
0.031971431
0.031899338
0.031817175
0.031725358
0.03162434
0.031514469
0.031396505
0.031270879
0.031138172
0.030999022
0.030854093
0.030704065
0.030549642
0.030391545
0.030230505
0.030067261
0.029902548
0.029737098
0.029571624
0.029406823
0.029243359
0.029081864
0.028922927
0.028767089
0.028614837
0.028466604
0.028322761
0.028183617
0.028049419
0.027920345
0.027796511
0.027677983
0.027564777
0.027456856
0.027354141
0.027256523
0.027163861
0.027075998
0.026992764
0.026913983
0.02683948
0.026769064
0.031873811
0.031897683
0.031909678
0.031909872
0.031898395
0.031875416
0.031841139
0.031795808
0.031739703
0.031673146
0.03159651
0.031510201
0.031414665
0.031310338
0.03119783
0.031077634
0.030950339
0.030816574
0.030676993
0.030532273
0.03038311
0.030230216
0.030074315
0.029916135
0.029756402
0.029595833
0.029435132
0.02927498
0.029116031
0.028958901
0.028804166
0.028652353
0.028503937
0.02835934
0.028218922
0.028082983
0.027951761
0.027825429
0.027704103
0.027587851
0.02747669
0.027370587
0.027269471
0.027173241
0.027081768
0.026994907
0.026912503
0.026834394
0.026760419
0.026690405
0.031596987
0.031625821
0.031642852
0.031648151
0.031641837
0.031624068
0.031595042
0.031554995
0.0315042
0.031442976
0.03137169
0.031290745
0.031200586
0.031101673
0.030994546
0.030879729
0.030757811
0.030629411
0.030495176
0.030355774
0.030211894
0.030064238
0.029913519
0.029760455
0.02960576
0.029450138
0.029294279
0.029138849
0.028984488
0.028831798
0.028681339
0.028533625
0.028389118
0.028248226
0.028111298
0.027978626
0.027850437
0.027726902
0.027608137
0.027494219
0.027385158
0.027280925
0.027181457
0.027086661
0.026996422
0.026910609
0.026829079
0.026751688
0.026678288
0.026608723
0.031320568
0.03135382
0.031375382
0.031385321
0.031383745
0.031370802
0.03134668
0.031311605
0.031265843
0.031209707
0.031143561
0.031067801
0.030982865
0.030889214
0.03078736
0.030677837
0.030561229
0.030438146
0.030309224
0.030175123
0.030036521
0.029894111
0.029748595
0.029600676
0.029451055
0.029300422
0.029149452
0.028998796
0.028849077
0.028700882
0.028554755
0.028411196
0.028270652
0.028133518
0.028000131
0.027870773
0.027745665
0.027624971
0.027508813
0.027397277
0.02729036
0.027188039
0.02709026
0.02699694
0.026907978
0.026823255
0.026742644
0.026666015
0.026593237
0.026524169
0.030997419
0.031045985
0.03108304
0.031108577
0.031122646
0.031125341
0.031116796
0.031097187
0.031066729
0.031025682
0.030974354
0.030913096
0.030842306
0.030762392
0.030673832
0.030577105
0.030472756
0.030361357
0.030243509
0.030119836
0.029990988
0.029857633
0.02972045
0.029580127
0.029437355
0.029292819
0.029147193
0.029001135
0.02885528
0.028710234
0.028566567
0.028424807
0.028285437
0.02814889
0.028015548
0.027885738
0.02775973
0.027637742
0.027519941
0.027406442
0.027297295
0.027192539
0.027092157
0.026996099
0.026904291
0.026816643
0.02673305
0.026653401
0.026577579
0.02650547
0.026436949
0.030723217
0.030774717
0.030814942
0.030843863
0.030861514
0.030867973
0.030863358
0.030847832
0.030821599
0.030784911