/*--------------------------------*- C++ -*----------------------------------*\
| =========                 |                                                 |
| \\      /  F ield         | OpenFOAM: The Open Source CFD Toolbox           |
|  \\    /   O peration     | Version:  2312                                  |
|   \\  /    A nd           | Website:  www.openfoam.com                      |
|    \\/     M anipulation  |                                                 |
\*---------------------------------------------------------------------------*/
FoamFile
{
    version     2.0;
    format      ascii;
    arch        "LSB;label=32;scalar=64";
    class       volScalarField;
    location    "0.02";
    object      O2;
}
// * * * * * * * * * * * * * * * * * * * * * * * * * * * * * * * * * * * * * //

dimensions      [0 0 0 0 0 0 0];

internalField   nonuniform List<scalar> 
3250
(
0.072689754
0.071715398
0.070788087
0.06991798
0.069114936
0.068388974
0.067750254
0.067209079
0.066775899
0.066461318
0.066276098
0.066231169
0.066334279
0.066601398
0.067044144
0.06765383
0.068458491
0.069488582
0.070737056
0.072214968
0.073932975
0.075901018
0.078128043
0.080621654
0.083387689
0.086429749
0.089748665
0.093341951
0.097203262
0.1013219
0.10568244
0.1102645
0.11504275
0.1199872
0.12506371
0.13023485
0.13546102
0.14070164
0.14591656
0.15106743
0.15611918
0.16104152
0.16573275
0.17030833
0.17469988
0.17888213
0.18284722
0.18659168
0.1901156
0.072711725
0.071736656
0.07080878
0.069938316
0.069134985
0.068408782
0.067769862
0.067228522
0.066795211
0.06648053
0.066295235
0.066250251
0.066353334
0.066620432
0.067063165
0.067672856
0.068477549
0.06950765
0.070756123
0.072234031
0.07395202
0.075920024
0.078146983
0.080640492
0.083406383
0.086448248
0.089766911
0.093359882
0.097220806
0.10133899
0.10569899
0.11028044
0.11505802
0.12000173
0.12507744
0.13024775
0.13547306
0.14071281
0.14592687
0.15107688
0.15612774
0.16104916
0.1657395
0.17031412
0.17470519
0.17888697
0.18285156
0.18659526
0.19011825
0.072752506
0.07177642
0.07084771
0.069976652
0.069172867
0.068446314
0.067807137
0.067265626
0.066832223
0.06651752
0.066332272
0.066287388
0.066390625
0.066657924
0.067100889
0.067710843
0.068515909
0.069546331
0.070795119
0.072273345
0.073991639
0.07595992
0.07818711
0.080680789
0.083446771
0.086488631
0.089807174
0.09339989
0.097260412
0.10137803
0.10573729
0.11031783
0.11509433
0.12003678
0.12511109
0.13027987
0.13550354
0.1407416
0.14595391
0.15110213
0.15615102
0.16107023
0.16575863
0.17033198
0.17472167
0.17890212
0.1828654
0.18660754
0.19012886
0.07281207
0.071834664
0.070904869
0.070032996
0.069228592
0.068501583
0.067862096
0.067320408
0.066886951
0.066572309
0.066387226
0.0663426
0.06644617
0.066713892
0.06715733
0.0677678
0.06857358
0.069604628
0.070854042
0.072332904
0.07405182
0.076020683
0.078248395
0.080742507
0.083508807
0.086550839
0.089869381
0.093461894
0.097321983
0.10143891
0.10579722
0.11037653
0.11515151
0.12009219
0.12516448
0.13033102
0.13555228
0.14078781
0.14599751
0.15114299
0.15618886
0.16110451
0.16579
0.17036176
0.17474916
0.17892743
0.18288861
0.18662849
0.19014752
0.072890313
0.071911295
0.070980168
0.070107271
0.069302093
0.068574528
0.06793468
0.067392815
0.066959347
0.06664485
0.066460057
0.06641585
0.066519939
0.066788308
0.067232468
0.067843713
0.068650556
0.069682532
0.07093289
0.072412712
0.07413257
0.07610233
0.078330857
0.080825669
0.083592517
0.086634904
0.089953569
0.093545931
0.09740556
0.10152169
0.10587883
0.11045659
0.11522964
0.12016801
0.12523767
0.13040126
0.13561934
0.14085149
0.14605771
0.15119959
0.1562414
0.16115198
0.16583372
0.1704035
0.17478772
0.17896298
0.18292126
0.18665821
0.19017436
0.0729816
0.072000786
0.071068177
0.070194124
0.069388077
0.068659897
0.068019669
0.067477639
0.067044208
0.066729933
0.066545535
0.066501877
0.066606635
0.066875833
0.067320911
0.067933136
0.068741314
0.069774452
0.071026009
0.072507045
0.0742281
0.076199003
0.078428582
0.080924311
0.083691897
0.086734795
0.090053695
0.093645971
0.097505145
0.10162041
0.10597626
0.11055226
0.1153231
0.12025881
0.1253254
0.13048554
0.13569988
0.14092808
0.14613022
0.1512679
0.15630503
0.16120905
0.16588664
0.17045417
0.17483459
0.17900622
0.18296102
0.18669456
0.19020742
0.073083265
0.072100513
0.071166306
0.070290997
0.069484009
0.068755173
0.068114551
0.067572371
0.067139014
0.066825025
0.066641106
0.066598104
0.066703652
0.066973824
0.067419978
0.068033346
0.068843076
0.069877565
0.071130522
0.072612975
0.074335429
0.076307671
0.078538487
0.081035305
0.083803777
0.086847308
0.090166531
0.093758766
0.097617486
0.10173184
0.10608628
0.11066036
0.11542876
0.12036152
0.12542466
0.13058098
0.13579114
0.14101491
0.14621249
0.15134558
0.15637769
0.16127345
0.16594687
0.17051193
0.17488805
0.17905557
0.18300642
0.18673618
0.19024543
0.073203249
0.072218264
0.07128222
0.070405464
0.069597394
0.068867813
0.068226758
0.067684432
0.0672512
0.066937585
0.066754273
0.066712089
0.066818613
0.067089984
0.067537461
0.068152227
0.06896385
0.069999991
0.071254661
0.072738848
0.074463015
0.076436902
0.078669243
0.081167407
0.083936988
0.086981325
0.090300987
0.093893229
0.097751461
0.10186478
0.1062176
0.11078944
0.11555498
0.12048427
0.12554337
0.13069515
0.13590035
0.14111887
0.14631106
0.15143886
0.15646561
0.16134979
0.16601925
0.17058138
0.17495238
0.17911496
0.1830611
0.18678636
0.19029139
0.073342891
0.072355357
0.071417222
0.07053882
0.069729524
0.068999108
0.06835758
0.06781512
0.067382067
0.067068926
0.066886358
0.066845168
0.066952872
0.067225686
0.06767475
0.068291194
0.069105072
0.070143191
0.071399911
0.072886174
0.074612392
0.076588252
0.078822423
0.081322212
0.084093138
0.087138468
0.09045869
0.094050985
0.097908693
0.10202084
0.1063718
0.11094107
0.11570329
0.12062856
0.12568296
0.13082945
0.13602885
0.14124122
0.14642711
0.15154891
0.15657083
0.16143789
0.16610489
0.17066343
0.17502841
0.17918517
0.18312576
0.18684577
0.19034586
0.073503612
0.072513191
0.0715727
0.070692444
0.069881775
0.069150432
0.068508394
0.067965813
0.067533005
0.067220446
0.067038775
0.066998769
0.067107873
0.067382394
0.067833332
0.06845175
0.069268276
0.070308722
0.071567853
0.073056558
0.07478519
0.076763371
0.078999701
0.081501409
0.084273933
0.087320449
0.09064136
0.094233756
0.098090895
0.10220173
0.10655058
0.11111689
0.11587532
0.12079595
0.12584495
0.13098533
0.13617804
0.14138327
0.14656184
0.15167679
0.15669644
0.16153641
0.16620532
0.17075902
0.17511699
0.17926699
0.18320114
0.18691506
0.19040945
0.07368691
0.072693248
0.071750123
0.0708678
0.070055604
0.069323243
0.068680661
0.068137981
0.067705489
0.067393633
0.067213025
0.067174412
0.067285154
0.067561667
0.068014788
0.0686355
0.069455091
0.07049824
0.07176017
0.073251708
0.07498314
0.076964015
0.079202854
0.081706794
0.084481179
0.087529088
0.090850819
0.094443362
0.098299879
0.10240924
0.1067557
0.11131866
0.11607275
0.12098811
0.12603094
0.13116433
0.13634937
0.14154642
0.14671649
0.15182305
0.15683516
0.16165433
0.16632298
0.17086913
0.17521904
0.17936126
0.183288
0.18699495
0.19048281
0.07389437
0.072897093
0.071951047
0.071066437
0.070252561
0.06951909
0.068875935
0.068333183
0.067901089
0.067590072
0.067410708
0.067373714
0.067486353
0.067765166
0.068220802
0.068844164
0.069667255
0.070713508
0.071978651
0.073473439
0.075208084
0.07719205
0.079433766
0.081940269
0.084716797
0.087766312
0.091088999
0.094681731
0.098537563
0.10264527
0.10698903
0.1115482
0.1162974
0.12120678
0.12624261
0.13136808
0.13654442
0.14173213
0.14689241
0.15198884
0.15699008
0.16179155
0.16645841
0.17099491
0.17533552
0.17946885
0.18338716
0.18708617
0.19056661
0.074127658
0.073126379
0.072177117
0.071289996
0.070474284
0.069739615
0.069095861
0.068553075
0.068121475
0.067811443
0.067633524
0.067598395
0.067713209
0.067994655
0.068453167
0.069079557
0.069906611
0.070956399
0.072225197
0.073723681
0.075461977
0.077449455
0.07969444
0.082203856
0.084982818
0.088034163
0.091357942
0.094950901
0.098805973
0.10291183
0.10725256
0.11180746
0.11655115
0.1214538
0.12648174
0.13159828
0.1367648
0.14194196
0.14709107
0.15217561
0.15716351
0.16194861
0.16661228
0.17113744
0.17546744
0.17959068
0.18349945
0.1871895
0.19066155
0.074388531
0.073382849
0.072430073
0.071540215
0.070722511
0.069986558
0.069342189
0.068799414
0.068368415
0.068059535
0.067883278
0.067850283
0.067967575
0.068252012
0.068713784
0.069343608
0.070175121
0.071228904
0.07250183
0.074004484
0.075746897
0.077738333
0.079986999
0.082499694
0.085281397
0.0883348
0.09165981
0.095253028
0.09910725
0.10321103
0.10754836
0.11209849
0.116836
0.12173111
0.12675021
0.13185674
0.13701225
0.14217756
0.14731408
0.15238502
0.15735726
0.16212641
0.16678547
0.1712978
0.17561581
0.17972771
0.18362577
0.18730575
0.1907684
0.074678841
0.073668341
0.072711754
0.07181893
0.070999079
0.070261763
0.069616769
0.069074066
0.068643791
0.068336246
0.068161891
0.06813132
0.068251419
0.068539233
0.069004679
0.069638372
0.070474868
0.071533138
0.072810695
0.074318024
0.076065048
0.078060912
0.080313694
0.082830052
0.085614813
0.08867051
0.091996887
0.095590385
0.09944365
0.10354511
0.10787863
0.11242343
0.11715405
0.12204073
0.12704997
0.13214535
0.13728857
0.14244068
0.14756321
0.15261896
0.15757275
0.16232608
0.166979
0.17147709
0.17578171
0.17988094
0.18376704
0.18743579
0.19088793
0.075000536
0.073984795
0.0730241
0.072128081
0.071305933
0.07056718
0.069921563
0.069379005
0.068949596
0.06864359
0.0684714
0.06844357
0.068566831
0.068858437
0.069328002
0.069966027
0.070808064
0.071871347
0.073154071
0.074666609
0.076418765
0.078419553
0.080676908
0.083197329
0.085985476
0.089043706
0.092371584
0.095965372
0.099817552
0.1039164
0.10824569
0.11278454
0.11750749
0.12238481
0.1273831
0.13246608
0.13759567
0.14273315
0.14784032
0.15287966
0.15781089
0.16254898
0.16719403
0.17167648
0.17596625
0.18005141
0.18392422
0.18758049
0.19102095
0.075355678
0.074334264
0.073369163
0.072469719
0.071645127
0.070904873
0.07025865
0.069716328
0.069287946
0.068983706
0.068813968
0.068789224
0.068916031
0.069211878
0.069686034
0.070328891
0.071177057
0.072245914
0.073534374
0.075052687
0.076810526
0.078816759
0.081079162
0.083604061
0.086395931
0.089456936
0.092786441
0.096380515
0.10023146
0.10432739
0.10865195
0.11318419
0.11789863
0.12276558
0.12775173
0.13282099
0.1379355
0.14305685
0.14814736
0.15317015
0.15807153
0.16279689
0.16743188
0.17189719
0.1761706
0.18024021
0.18409832
0.18774078
0.19116833
0.075746447
0.07471894
0.073749107
0.072846006
0.07201883
0.071277024
0.070630227
0.070088251
0.06966108
0.069358859
0.06919189
0.069170608
0.069301379
0.069601945
0.0700812
0.070729421
0.071584339
0.072659366
0.073954165
0.075478852
0.077242952
0.079255175
0.081523121
0.084052928
0.086848865
0.089912884
0.093244133
0.096838468
0.10068799
0.10478065
0.10909996
0.11362487
0.11832989
0.12318537
0.12815813
0.13321225
0.13831013
0.14341369
0.14848606
0.15349537
0.15835214
0.16307263
0.16769391
0.17214054
0.17639598
0.18044847
0.18429039
0.18791764
0.19133094
0.07617515
0.075141163
0.074166217
0.073259221
0.072429333
0.071685939
0.071038619
0.070497124
0.070071374
0.069771452
0.069607599
0.069590187
0.069725375
0.070031176
0.070516066
0.071170221
0.072032549
0.073114381
0.074416158
0.075947848
0.077718816
0.079737597
0.0820116
0.084546754
0.087347106
0.090414374
0.09374747
0.09734202
0.10118991
0.1052789
0.10959235
0.11410915
0.11880376
0.12364661
0.12860462
0.13364209
0.13872165
0.14380553
0.14885715
0.15384478
0.1586659
0.16338009
0.16798161
0.17240791
0.17664366
0.18067738
0.18450152
0.18811206
0.19150972
0.077736277
0.076644212
0.075603294
0.074622874
0.073711761
0.072879046
0.07213405
0.071486283
0.070945429
0.07052134
0.070224032
0.070063674
0.070050574
0.070190676
0.070502263
0.070993356
0.071654052
0.072524486
0.073613795
0.074923223
0.076462577
0.078241047
0.080266977
0.082547566
0.085088515
0.087893629
0.090964373
0.094299402
0.09789409
0.10174009
0.10582496
0.11013192
0.11463974
0.11932289
0.12415183
0.12909364
0.13411283
0.1391723
0.14423449
0.14926261
0.15422328
0.15901365
0.1637185
0.16829683
0.17270077
0.17691498
0.18092815
0.18473283
0.18832508
0.19170562
0.078257458
0.077156059
0.076107785
0.07512157
0.074206139
0.073370508
0.072623921
0.07197581
0.071435789
0.071013636
0.070719291
0.070562847
0.070554532
0.070700097
0.071018058
0.071515948
0.072183833
0.073063107
0.074160606
0.075478395
0.077026105
0.078812736
0.080846425
0.083134141
0.085681339
0.08849156
0.091565993
0.094903015
0.098497729
0.10234154
0.10642179
0.11072153
0.11521945
0.11988997
0.12470364
0.1296277
0.13462689
0.1396644
0.14470289
0.14970515
0.15463354
0.15939672
0.16408845
0.16864116
0.1730206
0.1772113
0.18120204
0.1849855
0.18855777
0.19191963
0.078824463
0.077713224
0.076657205
0.075664911
0.074744994
0.073906389
0.073158252
0.072509937
0.071970975
0.071551069
0.071260079
0.071108007
0.071104977
0.071256627
0.071581582
0.072086899
0.07276265
0.073651541
0.074757983
0.076084879
0.077641665
0.079437141
0.081479214
0.083774608
0.086328509
0.089144172
0.092222488
0.095561534
0.099156123
0.10299739
0.10707245
0.11136418
0.11585116
0.12050782
0.12530476
0.13020941
0.13518675
0.14020033
0.14521326
0.15018845
0.15507587
0.15981745
0.16449118
0.16901612
0.17336892
0.17753404
0.18150037
0.1852607
0.18881124
0.19215278
0.079439867
0.078318407
0.077254248
0.076255625
0.075331094
0.074489492
0.073739887
0.073091542
0.072553908
0.072136603
0.071849403
0.07170222
0.071704974
0.071863446
0.072196035
0.072709403
0.073393754
0.074293089
0.075409271
0.07674605
0.078312663
0.080117684
0.082168782
0.08447241
0.087033464
0.089854888
0.092937255
0.096278318
0.099872579
0.10371089
0.10778011
0.11206295
0.11653789
0.12117932
0.12595797
0.13084142
0.13579495
0.14078254
0.14576803
0.15071875
0.15554601
0.16028054
0.16492792
0.16942331
0.17374726
0.17788462
0.18182446
0.18555968
0.18908658
0.19240608
0.081288844
0.080106285
0.078974325
0.07790171
0.076896562
0.075967332
0.075122758
0.074371809
0.073723657
0.073187664
0.07277336
0.072490436
0.072348709
0.072357818
0.072523877
0.072864799
0.073386806
0.074080567
0.074991235
0.076117993
0.077465465
0.079042675
0.080857963
0.082918733
0.08523115
0.087799795
0.090627279
0.093713831
0.097056859
0.10065053
0.10448539
0.10854806
0.11282104
0.11728271
0.12190746
0.12666611
0.13152646
0.13645411
0.1414134
0.14636828
0.15128269
0.15606466
0.16078578
0.16540107
0.16986447
0.17415723
0.17826453
0.18217567
0.18588366
0.18938493
0.19268055
0.082022206
0.080826616
0.079683818
0.078602501
0.077590692
0.076656737
0.075809267
0.075057151
0.074409466
0.073875478
0.073464627
0.073186512
0.073050859
0.073066984
0.073241454
0.073591474
0.074122576
0.074826693
0.07574965
0.076887858
0.078246858
0.079835455
0.081661741
0.083732835
0.086054588
0.088631244
0.091465058
0.094555886
0.09790077
0.10149352
0.10532437
0.10937967
0.11364171
0.11808878
0.12269527
0.12743211
0.13226732
0.13716686
0.14209562
0.1470179
0.15188465
0.15663227
0.16133283
0.16591262
0.17034138
0.17460043
0.17867527
0.18255538
0.18623393
0.18970739
0.19297696
0.082812873
0.081603761
0.080449839
0.079359647
0.07834111
0.077402466
0.07655224
0.075799195
0.075152308
0.074620747
0.074213857
0.07394114
0.073812226
0.073836101
0.074019905
0.074379966
0.074920238
0.075635945
0.076572207
0.077722761
0.07909414
0.080694929
0.08253295
0.084615015
0.086946638
0.089531699
0.092372069
0.095467212
0.098813778
0.10240521
0.10623138
0.11027838
0.1145283
0.11895931
0.12354583
0.1282589
0.1330668
0.13793585
0.14283183
0.14772425
0.15252142
0.15725278
0.16192252
0.16646435
0.17085576
0.17507849
0.17911833
0.182965
0.18661178
0.19005522
0.083663608
0.082440683
0.081275443
0.080176287
0.079151033
0.078207812
0.077355039
0.076601371
0.07595568
0.075427034
0.075024672
0.074757997
0.074636542
0.074668941
0.074863062
0.075234506
0.075783262
0.07651247
0.077463
0.07862678
0.080011398
0.081625191
0.083475683
0.085569354
0.087911357
0.090505179
0.093352284
0.096451716
0.099799709
0.10338931
0.10721005
0.11124771
0.1154842
0.11989756
0.12446226
0.12914947
0.13392774
0.13876363
0.14362275
0.14847215
0.15321579
0.15792745
0.162557
0.1670581
0.17140937
0.17559304
0.17959524
0.18340593
0.18701857
0.19043029
0.084577339
0.083340432
0.082163785
0.081055668
0.080023798
0.079076195
0.078221165
0.077467257
0.076823236
0.07629806
0.075900864
0.075640938
0.075527707
0.075569421
0.075774763
0.076159322
0.076715325
0.077460996
0.078426311
0.079604162
0.081002883
0.082630493
0.084494184
0.086600078
0.088952935
0.091555827
0.094409781
0.097513397
0.10086247
0.10444964
0.10826407
0.11229123
0.11651282
0.12090681
0.12544768
0.13010681
0.13485303
0.13965321
0.14447236
0.14926688
0.15396986
0.15865351
0.16323852
0.16769578
0.17200396
0.17614569
0.18010749
0.18387955
0.18745549
0.19083302
0.085557096
0.084306143
0.083118109
0.082001141
0.080962855
0.080011162
0.079154257
0.078400579
0.077758781
0.077237712
0.07684639
0.076593988
0.076489805
0.076541642
0.076758924
0.077156254
0.077723591
0.078485988
0.079466399
0.080659287
0.082073
0.083715238
0.085592839
0.087711538
0.090075678
0.092687887
0.095548728
0.098656332
0.10200604
0.10559005
0.10939714
0.11341249
0.11761759
0.12199032
0.12650523
0.13113391
0.13584559
0.14060789
0.14538843
0.15010366
0.15478946
0.15943091
0.16396886
0.16837918
0.17264121
0.17673804
0.18065656
0.18438723
0.18792388
0.19126457
0.086605961
0.08534102
0.084141744
0.083016153
0.081971764
0.081016379
0.080158081
0.079405198
0.07876627
0.078250029
0.077865373
0.077621346
0.077527105
0.077589949
0.07782006
0.078230872
0.078811608
0.079591607
0.080587826
0.081796702
0.083226295
0.084883958
0.086776152
0.088908197
0.091283989
0.093905684
0.096773355
0.099884643
0.1032344
0.10681439
0.11061299
0.11461507
0.11880191
0.12315133
0.12763797
0.13223368
0.13690815
0.14162952
0.1463524
0.15101212
0.15567077
0.16026237
0.16474994
0.16911009
0.17332279
0.17737163
0.18124388
0.18493032
0.18842498
0.19172614
0.087727048
0.086448321
0.085238086
0.084104234
0.08305418
0.082095619
0.081236525
0.080485108
0.079849795
0.079339197
0.078962086
0.07872737
0.078644049
0.078718865
0.078962829
0.079388128
0.079983713
0.080782291
0.08179527
0.083021085
0.084467435
0.086141298
0.088048726
0.090194598
0.092582334
0.095213591
0.098087928
0.10120247
0.10455156
0.10812651
0.1119153
0.11590247
0.12006912
0.124393
0.12884888
0.13340893
0.13804341
0.14272347
0.14736345
0.15199516
0.15661172
0.16114984
0.16558359
0.16989021
0.17405027
0.17804792
0.18187083
0.18551008
0.18895994
0.19221884
0.088923478
0.087631337
0.086410584
0.085268979
0.08421384
0.083252754
0.082393581
0.081644419
0.081013573
0.080509534
0.080140942
0.07991656
0.079845227
0.079933091
0.080192005
0.080632852
0.081244555
0.082062721
0.083093502
0.084337217
0.085801184
0.087491982
0.08941523
0.091575334
0.093975213
0.096615996
0.099496702
0.10261391
0.10596147
0.10953019
0.11330766
0.11727811
0.12142243
0.12571836
0.13014081
0.13466228
0.13925259
0.14387118
0.14845082
0.15305275
0.1576139
0.16209509
0.16647149
0.17072109
0.17482513
0.17876829
0.18253867
0.18612769
0.18952984
0.19274371
0.090198368
0.088893373
0.087662719
0.086514038
0.085454548
0.084491729
0.083633331
0.082887335
0.082261927
0.081765468
0.081406466
0.081193537
0.081135349
0.081237431
0.081512468
0.081969866
0.082598945
0.083437739
0.08448739
0.085749955
0.087232366
0.088940782
0.090880359
0.093055006
0.095467112
0.098117253
0.10100388
0.10412302
0.10746798
0.1110291
0.11479355
0.11874525
0.12286491
0.12713027
0.13151647
0.13599674
0.14054479
0.14507566
0.14962133
0.15417757
0.1586792
0.16309976
0.16741518
0.17160419
0.17564872
0.17953399
0.18324858
0.18678423
0.19013569
0.19330165
0.091554808
0.090237728
0.088997985
0.087843083
0.086780143
0.085816543
0.084959919
0.084218137
0.083599259
0.083111515
0.082763274
0.082563007
0.082519226
0.082636795
0.082929223
0.08340394
0.0840518
0.084912294
0.085981865
0.087264196
0.088765824
0.090492464
0.092448786
0.094638171
0.097062453
0.099721625
0.10261356
0.1057337
0.10907481
0.11262674
0.11637625
0.12030698
0.12439943
0.12863134
0.13297813
0.13741267
0.14189795
0.1463641
0.15087555
0.15537074
0.15980912
0.16416529
0.16841599
0.17254076
0.1765222
0.18034612
0.18400156
0.18748063
0.19077833
0.19389348
0.092995828
0.091667661
0.090419852
0.089259782
0.088194479
0.087231216
0.086377522
0.085641144
0.085030019
0.084552239
0.084216029
0.08402971
0.084001671
0.084136145
0.084447511
0.08493952
0.085608189
0.086491401
0.087581873
0.088884821
0.090406363
0.092151738
0.094125102
0.096329281
0.098765525
0.10143322
0.10432964
0.10744963
0.11078541
0.11432634
0.11805879
0.12196608
0.12602854
0.13022395
0.13452841
0.13891891
0.14331158
0.14774328
0.15220418
0.1566338
0.16100497
0.16529286
0.16947505
0.17353183
0.17744653
0.18120557
0.18479846
0.18821768
0.1914585
0.19451986
0.094524373
0.093186362
0.091931738
0.090767764
0.089701378
0.088739753
0.08789031
0.087160676
0.086558659
0.086092213
0.085769406
0.085598407
0.085587427
0.085740402
0.086073486
0.08657972
0.087273656
0.088180045
0.089292292
0.090616627
0.092158679
0.093923181
0.09591374
0.098132605
0.10058041
0.10325593
0.10615579
0.10927426
0.11260299
0.11613086
0.11984385
0.123725
0.12775444
0.1319098
0.13616686
0.14049247
0.14481848
0.14921218
0.15360725
0.15796769
0.16226772
0.1664834
0.17059317
0.17457817
0.17842244
0.18211301
0.18563989
0.18899595
0.19217672
0.19518129
0.096143261
0.094796908
0.093536963
0.092370573
0.09130459
0.090346093
0.089502392
0.088780998
0.088189587
0.087735966
0.087428054
0.087273813
0.087281003
0.087453868
0.087808269
0.088333713
0.089053427
0.089982878
0.091117825
0.092464236
0.094027278
0.095811153
0.097818894
0.10005214
0.1025109
0.10519329
0.10809532
0.11121062
0.11453031
0.11804279
0.12173369
0.12558577
0.12957891
0.13369088
0.13790228
0.1421316
0.14642506
0.15076119
0.15508592
0.15937313
0.16359797
0.16773743
0.17177087
0.17568025
0.17945034
0.18306883
0.18652623
0.18981579
0.19293332
0.19587806
0.097855134
0.096502215
0.095238694
0.09407161
0.093007733
0.09205405
0.091217763
0.090506264
0.089927094
0.089487926
0.089196493
0.089060558
0.089087092
0.089281441
0.089657905
0.090205118
0.090951397
0.091904585
0.093062965
0.094432014
0.096016379
0.0978197
0.09984441
0.10209152
0.10456037
0.10724844
0.11015107
0.11326129
0.11656966
0.12006414
0.12373003
0.12754988
0.13150306
0.13556502
0.13971072
0.14387323
0.14812445
0.15239067
0.15664066
0.1608504
0.16499591
0.16905511
0.17300824
0.17683813
0.18053031
0.1840731
0.18745753
0.19067725
0.19372836
0.19661023
0.099662404
0.098304976
0.097039886
0.095874071
0.094814225
0.093867242
0.09304022
0.09234043
0.091775289
0.091352305
0.09107903
0.090963016
0.091010358
0.0912277
0.09162718
0.092197943
0.092971613
0.093949386
0.095131844
0.096523947
0.098129792
0.099952432
0.10199367
0.10425386
0.10673169
0.10942395
0.11232532
0.11542825
0.11872273
0.12219629
0.12583401
0.12961851
0.13352943
0.1375384
0.14158826
0.14572192
0.14990787
0.15410173
0.1582713
0.1623992
0.16646121
0.17043606
0.17430493
0.17805149
0.18166203
0.18512552
0.18843352
0.19158008
0.1945616
0.19737759
0.10156718
0.10020759
0.098943206
0.097780868
0.0967272
0.095789006
0.09497328
0.094287179
0.093737975
0.093333011
0.093079664
0.09298528
0.093055075
0.093297079
0.093719862
0.09431604
0.095117917
0.096121062
0.097328112
0.098743515
0.1003708
0.10221239
0.10426946
0.10654169
0.10902707
0.11172172
0.11461968
0.11771276
0.12099045
0.12443985
0.12804584
0.1317917
0.13566129
0.1395787
0.14357687
0.14766248
0.15177403
0.15588576
0.15997577
0.16401839
0.16799289
0.17187939
0.17566007
0.17931948
0.18284471
0.18622536
0.18945352
0.19252366
0.19543247
0.19817961
0.10357121
0.10221208
0.10095094
0.099794531
0.098749407
0.097822293
0.097020076
0.096349785
0.095818544
0.095433533
0.095201945
0.09513095
0.095225021
0.095494575
0.095937711
0.096563104
0.097393716
0.098422826
0.099654802
0.10109354
0.10274197
0.1046019
0.10667382
0.10895671
0.1114479
0.11414281
0.11703485
0.12011523
0.12337291
0.1267945
0.13036451
0.13406527
0.1378714
0.14171881
0.1456761
0.14968921
0.15372199
0.15775
0.16175326
0.16570636
0.16958935
0.17338355
0.1770722
0.18064075
0.18407706
0.18737141
0.19051641
0.19350694
0.19634001
0.19901541
0.10567574
0.10431998
0.10306488
0.1019171
0.10088311
0.099969555
0.099183216
0.09853099
0.098019849
0.097656793
0.097448812
0.097402844
0.09752241
0.097819289
0.098287134
0.098943382
0.099801598
0.10085712
0.10211415
0.10357602
0.10524505
0.10712239
0.10920784
0.11149971
0.11399461
0.1166873
0.11957056
0.12263505
0.12586917
0.12925911
0.13278941
0.13644646
0.14015695
0.14396675
0.14786441
0.15179984
0.15574952
0.1596904
0.16360172
0.16746088
0.17124833
0.17494636
0.17853923
0.1820133
0.18535723
0.18856193
0.19162058
0.19452845
0.19728284
0.19988373
0.10788145
0.10653225
0.10528624
0.10414999
0.10312992
0.10223258
0.10146464
0.10083285
0.10034404
0.10000501
0.099822508
0.099803182
0.099949662
0.10027485
0.10076969
0.10145741
0.10234332
0.10342544
0.1047074
0.10619192
0.10788069
0.10977419
0.11187154
0.11417033
0.11666648
0.1193541
0.12222537
0.12527042
0.12847716
0.13183095
0.1353141
0.13890754
0.14255022
0.14631492
0.15013732
0.1539909
0.15785321
0.16170239
0.16551785
0.16927888
0.17296681
0.17656491
0.18005839
0.18343453
0.18668275
0.18979463
0.19276388
0.19558618
0.19825914
0.20078287
0.1101883
0.10884908
0.10761544
0.10649385
0.10549066
0.10461234
0.10386544
0.10325658
0.1027924
0.10247951
0.10232441
0.10233315
0.1025084
0.10286263
0.10338602
0.10410553
0.10501944
0.10612812
0.10743459
0.10894098
0.11064831
0.11255637
0.11466359
0.11696687
0.11946143
0.12214075
0.12499647
0.1280183
0.13119398
0.13450869
0.1379418
0.14144072
0.14505129
0.14874801
0.15249071
0.15625805
0.16002869
0.16378182
0.16749751
0.17115641
0.17474098
0.17823551
0.18162616
0.18490109
0.18805049
0.19106658
0.19394358
0.19667761
0.19926655
0.20171068
0.11259538
0.11126979
0.11005199
0.10894836
0.10796517
0.1071088
0.10638568
0.10580229
0.10536508
0.10508047
0.10495474
0.1049929
0.10519909
0.10558195
0.10613577
0.10688713
0.10782914
0.10896406
0.11029435
0.11182148
0.11354582
0.11546647
0.11758117
0.11988611
0.12237586
0.12504328
0.12787949
0.13087395
0.13401479
0.1372906
0.14063596
0.1440809
0.14764157
0.15126096
0.15491918
0.1585958
0.16227052
0.16592352
0.16953571
0.1730886
0.17656611
0.17995363
0.18323823
0.18640892
0.18945662
0.19237418
0.19515636
0.19779964
0.20030222
0.20266452
0.11510075
0.11379262
0.11259429
0.11151205
0.1105521
0.10972071
0.10902417
0.10846882
0.10806092
0.10780665
0.10771205
0.10778116
0.10802067
0.1084295
0.1090183
0.10980013
0.11076998
0.11193052
0.11328357
0.11482997
0.1165694
0.11850029
0.12061968
0.12292308
0.12540442
0.12805596
0.1308683
0.1338304
0.13692899
0.14014501
0.14342155
0.14682386
0.15030965
0.15384673
0.1574158
0.16099732
0.16457198
0.16812114
0.17162671
0.17506959
0.1784365
0.18171381
0.18488944
0.18795315
0.19089657
0.19371318
0.19639822
0.19894857
0.20136272
0.20364123
0.11770124
0.1164145
0.11523941
0.1141821
0.11324869
0.11244534
0.11177822
0.11125346
0.11087714
0.11065518
0.11059333
0.11069445
0.110967
0.11140602
0.11202915
0.11284046
0.11383765
0.11502284
0.11639724
0.11796105
0.11971327
0.12165165
0.12377255
0.12607084
0.12853982
0.13117121
0.13395526
0.13688108
0.1399382
0.14306448
0.14629787
0.14964093
0.15304675
0.15649675
0.15997217
0.1634543
0.1669249
0.17036671
0.17376485
0.17709205
0.18034519
0.1835096
0.18657373
0.18952808
0.19236501
0.19507859
0.19766454
0.20012012
0.20244408
0.20463714
0.12039229
0.11913091
0.11798285
0.11695405
0.11605052
0.11527828
0.11464335
0.1141517
0.11380915
0.11362139
0.11359383
0.11372823
0.11403391
0.11450475
0.11516169
0.11600199
0.11702562
0.11823414
0.11962812
0.12120709
0.12296941
0.12491216
0.12703103
0.12932029
0.13177263
0.13437925
0.13712983
0.14001215
0.1430092
0.14606818
0.14925442
0.15252101
0.15584248
0.15920096
0.16257845
0.16595705
0.16931924
0.1726479
0.17592558
0.17914445
0.18228372
0.1853335
0.18828414
0.19112722
0.19385586
0.19646473
0.19895001
0.20130935
0.20354175
0.20564805
0.1245077
0.12316725
0.12193548
0.12081829
0.11982157
0.1189512
0.11821308
0.11761305
0.11715688
0.11685018
0.11669836
0.11670641
0.11687657
0.11721235
0.11771763
0.11840753
0.11927605
0.12032492
0.12155508
0.12296648
0.124558
0.12632735
0.12827097
0.13038395
0.13265994
0.13509115
0.13766842
0.14038159
0.14322088
0.14612866
0.14914557
0.15226695
0.1554524
0.1586851
0.16194788
0.16522349
0.16849495
0.17174568
0.17495972
0.17812188
0.18122338
0.18424479
0.18717759
0.19001297
0.19274327
0.19536227
0.1978652
0.2002487
0.20251075
0.20465062
0.20666925
0.12732593
0.12601801
0.12481987
0.12373732
0.12277614
0.12194211
0.12124097
0.1206784
0.12025993
0.11999092
0.11987648
0.11992038
0.12012655
0.12049462
0.12103547
0.12175557
0.12265125
0.12372378
0.12497353
0.12639982
0.12800092
0.1297739
0.1317146
0.13381751
0.13607576
0.13848107
0.14102373
0.14369234
0.14647158
0.14931256
0.15227809
0.15532169
0.15842152
0.16156128
0.16472446
0.1678947
0.17105592
0.17419267
0.1772904
0.18033617
0.18332037
0.18621895
0.18903275
0.1917516
0.19436812
0.19687664
0.19927292
0.201554
0.20371821
0.20576502
0.20769552
0.13020535
0.12893408
0.12777343
0.1267291
0.12580677
0.12501207
0.12435058
0.12382778
0.12344898
0.12321923
0.12314332
0.12322369
0.12346609
0.12386731
0.12444281
0.12519189
0.1261132
0.12720744
0.12847434
0.12991266
0.13152004
0.13329296
0.13522668
0.13731518
0.13955111
0.14192592
0.14443013
0.14705449
0.14974609
0.15254305
0.155441
0.15840268
0.16141285
0.16445589
0.16751609
0.1705779
0.17362622
0.17664653
0.17962512
0.18254905
0.18540532
0.18819156
0.19088815
0.19349041
0.19599286
0.19839067
0.20068014
0.20285872
0.20492503
0.20687879
0.20872115
0.13313311
0.13190238
0.13078285
0.12978009
0.12889964
0.12814699
0.12752755
0.12704656
0.12670907
0.12651987
0.12648341
0.12660083
0.12687876
0.12731363
0.12792233
0.12869903
0.12964414
0.13075777
0.1320391
0.13348628
0.13509639
0.13686534
0.13878786
0.14085746
0.14306638
0.14540558
0.14786446
0.15042905
0.15305388
0.15579683
0.15861652
0.16149219
0.16440907
0.16735215