/*--------------------------------*- C++ -*----------------------------------*\
| =========                 |                                                 |
| \\      /  F ield         | OpenFOAM: The Open Source CFD Toolbox           |
|  \\    /   O peration     | Version:  2312                                  |
|   \\  /    A nd           | Website:  www.openfoam.com                      |
|    \\/     M anipulation  |                                                 |
\*---------------------------------------------------------------------------*/
FoamFile
{
    version     2.0;
    format      ascii;
    arch        "LSB;label=32;scalar=64";
    class       volScalarField;
    location    "0.02";
    object      omega;
}
// * * * * * * * * * * * * * * * * * * * * * * * * * * * * * * * * * * * * * //

dimensions      [0 0 -1 0 0 0 0];

internalField   nonuniform List<scalar> 
3250
(
601.01827
594.40425
587.84056
581.32394
574.85103
568.41834
562.02222
555.65896
549.32473
543.01579
536.72865
530.46018
524.20729
517.96746
511.7382
505.51711
499.3021
493.09084
486.88262
480.67727
474.4751
468.27711
462.08501
455.90126
449.72915
443.57283
437.43735
431.32868
425.25369
419.22013
413.2366
407.31245
401.45776
395.68315
389.99971
384.41886
378.95215
373.6111
368.40704
363.35091
358.45306
353.72312
349.16979
344.80084
340.62335
336.64234
332.86182
329.28445
325.9116
600.963
594.35132
587.78986
581.27535
574.80444
568.37366
561.97937
555.61784
549.28528
542.97792
536.6923
530.42528
524.17378
517.93529
511.70731
505.48745
499.27362
493.06349
486.85636
480.65205
474.45089
468.25388
462.06272
455.87987
449.70863
443.55316
437.4185
431.31062
425.23639
419.20356
413.22074
407.29729
401.44325
395.66928
389.98645
384.40619
378.94003
373.59952
368.39596
363.3403
358.44289
353.71337
349.16045
344.79195
340.61476
336.634
332.85371
329.27659
325.90402
600.85306
594.24599
587.68891
581.17855
574.71159
568.28455
561.89383
555.53571
549.2064
542.90214
536.61946
530.35526
524.10644
517.87052
511.64499
505.42748
499.21589
493.00791
486.80284
480.60052
474.40127
468.20609
462.01669
455.83555
449.66595
443.51206
437.37894
431.27255
425.19977
419.16835
413.18689
407.26477
401.41202
395.63931
389.95771
384.37863
378.91363
373.57422
368.37175
363.31712
358.42072
353.69216
349.1402
344.77263
340.59622
336.61621
332.83662
329.2602
325.88831
600.68857
594.08836
587.5378
581.03362
574.57254
568.15109
561.76569
555.41264
549.08815
542.78849
536.51019
530.25015
524.00531
517.77319
511.55129
505.33725
499.12896
492.92414
486.72212
480.52271
474.32626
468.13377
461.94697
455.76832
449.60114
443.44959
437.31873
431.21453
425.14388
419.11454
413.13511
407.21495
401.36413
395.59329
389.91353
384.33624
378.87298
373.53528
368.33445
363.28143
358.38658
353.65954
349.10905
344.7429
340.56779
336.58899
332.81057
329.23527
325.86448
600.46969
593.87858
587.33665
580.84069
574.38741
567.97338
561.59505
555.24871
548.93063
542.63706
536.36455
530.11003
523.87045
517.64335
511.42625
505.21678
499.01286
492.81222
486.6142
480.41864
474.22588
468.03694
461.85355
455.6782
449.5142
443.36572
437.23784
431.13654
425.06871
419.04211
413.06536
407.14782
401.29956
395.53122
389.8539
384.279
378.81809
373.48267
368.28407
363.23322
358.34047
353.61548
349.06698
344.70275
340.52943
336.55235
332.77554
329.2018
325.8325
600.21224
593.6318
587.10003
580.61371
574.16959
567.76427
561.39421
555.05577
548.74519
542.45876
536.19305
529.94499
523.71157
517.49036
511.27888
505.07477
498.87596
492.6802
486.48687
480.29579
474.10734
467.92255
461.74316
455.57166
449.41138
443.2665
437.1421
431.04419
424.97966
418.95628
412.98266
407.06819
401.22293
395.45754
389.7831
384.21103
378.75288
373.42016
368.2242
363.17593
358.2857
353.56314
349.01702
344.65507
340.48392
336.5089
332.73406
329.1622
325.79468
599.92415
593.35564
586.83521
580.35966
573.92577
567.53018
561.16938
554.83974
548.53754
542.2591
536.00098
529.76012
523.53358
517.31894
511.11374
504.9156
498.72248
492.53217
486.34406
480.15799
473.97435
467.79419
461.61924
455.45203
449.29589
443.15503
437.03452
430.94039
424.87954
418.85975
412.88964
406.9786
401.13671
395.37461
389.7034
384.1345
378.67945
373.34978
368.15679
363.11142
358.22402
353.50421
348.96076
344.6014
340.43271
336.46003
332.68743
329.1177
325.75221
599.583
593.02859
586.52156
580.05874
573.63696
567.25287
560.90301
554.58378
548.29149
542.02248
535.77332
529.54099
523.32257
517.1157
510.9179
504.72681
498.54041
492.35654
486.17459
479.99444
473.81647
467.64176
461.47207
455.30993
449.15868
443.02255
436.90665
430.81698
424.76048
418.74493
412.77898
406.872
401.03409
395.27589
389.60852
384.04338
378.59202
373.26596
368.07651
363.0346
358.15057
353.43405
348.89379
344.5375
340.37175
336.4019
332.63199
329.06482
325.70175
599.18504
592.64705
586.15563
579.70765
573.29996
566.92927
560.59214
554.28503
548.00428
541.74625
535.50753
529.28512
523.07616
516.87832
510.68913
504.50625
498.32767
492.15129
485.97651
479.80324
473.63188
467.46351
461.29993
455.14369
448.99813
442.86752
436.75696
430.6725
424.62106
418.61047
412.64935
406.74711
400.91384
395.16021
389.49732
383.93657
378.48953
373.1677
367.9824
362.94454
358.06447
353.3518
348.81528
344.4626
340.30033
336.3338
332.56706
329.00291
325.64271
598.72635
592.20727
585.7338
579.30288
572.91141
566.55613
560.23366
553.94049
547.67302
541.42762
535.20091
528.9899
522.79183
516.60437
510.4251
504.25166
498.08207
491.91429
485.74776
479.58239
473.41863
467.25757
461.10101
454.95154
448.81254
442.68827
436.58387
430.50539
424.45979
418.4549
412.49935
406.60258
400.77467
395.0263
389.36858
383.81292
378.37086
373.05393
367.87342
362.84026
357.96477
353.25657
348.72439
344.3759
340.21766
336.255
332.49195
328.93132
325.57445
598.20285
591.70529
585.25229
578.84081
572.46781
566.13009
559.82431
553.54702
547.29467
541.06366
534.85062
528.65261
522.46693
516.29131
510.12332
503.96062
497.80128
491.6433
485.48616
479.3298
473.17468
467.02194
460.87339
454.73164
448.6001
442.48306
436.38567
430.31403
424.27508
418.27669
412.32751
406.43698
400.6152
394.87284
389.22103
383.67118
378.23483
372.92351
367.7485
362.72071
357.85048
353.14741
348.6202
344.27653
340.12293
336.16471
332.40592
328.84934
325.4963
597.61025
591.13701
584.70712
578.3176
571.96546
565.64757
559.36065
553.1013
546.86603
540.65128
534.45369
528.27036
522.09868
515.93643
509.78119
503.63063
497.48285
491.33594
485.18941
479.04323
472.89788
466.75453
460.61503
454.48201
448.35891
442.25003
436.16059
430.09666
424.06526
418.07422
412.13225
406.24879
400.43395
394.69841
389.05331
383.51005
378.08019
372.77523
367.60647
362.5848
357.72055
353.0233
348.50177
344.16357
340.01526
336.06211
332.30818
328.75622
325.40755
596.94409
590.49813
584.09415
577.72926
571.40053
565.10489
558.83911
552.59989
546.38377
540.18726
534.007
527.84012
521.68415
515.5369
509.39596
503.25901
497.12421
490.98972
484.85509
478.72032
472.58594
466.45313
460.32379
454.20056
448.08693
441.98724
435.90671
429.85146
423.82852
417.84577
411.91191
406.0364
400.22937
394.50152
388.86397
383.32815
377.90559
372.60782
367.44611
362.43135
357.57385
352.8832
348.36806
344.03606
339.89372
335.94632
332.19789
328.65116
325.30746
596.19973
589.78417
583.40907
577.07163
570.76899
564.49814
558.25594
552.03914
545.84438
539.66821
533.50727
527.35873
521.22027
515.08976
508.96476
502.84298
496.72264
490.602
484.48065
478.35861
472.23646
466.11541
459.99739
453.8851
447.78204
441.6926
435.62203
429.57648
423.563
417.58951
411.66471
405.7981
399.99982
394.28057
388.65149
383.12399
377.70964
372.41992
367.26612
362.25912
357.40921
352.72595
348.218
343.89297
339.75735
335.81642
332.07416
328.53333
325.19521
595.37233
588.99047
582.64738
576.34037
570.06666
563.82329
557.60723
551.41529
545.2442
539.09058
532.95108
526.82286
520.70383
514.59187
508.48454
502.37959
496.27529
490.17002
484.06339
477.95548
471.8469
465.7389
459.63346
453.5333
447.44199
441.36393
435.30443
429.26966
423.26671
417.3035
411.3888
405.5321
399.74356
394.03389
388.41425
382.89604
377.49083
372.21011
367.06514
362.06679
357.22535
352.55036
348.05045
343.73321
339.60511
335.67141
331.93608
328.40184
325.06998
594.45688
588.11219
581.80442
575.53098
569.28917
563.07613
556.88889
550.72438
544.57941
538.45067
532.33482
526.22903
520.13145
514.03998
507.95215
501.86576
495.77917
489.69086
483.60049
477.50819
471.41459
465.32101
459.22947
453.14273
447.0644
440.99893
434.95167
428.92883
422.93752
416.98573
411.08221
405.23649
399.45874
393.75971
388.15054
382.64265
377.24759
371.97686
366.84171
361.85298
357.02096
352.35517
347.8642
343.55563
339.43591
335.51025
331.78264
328.25575
324.93088
593.4482
587.14433
580.87533
574.63876
568.43199
562.25226
556.09669
549.96231
543.84602
537.74462
531.65477
525.5736
519.49961
513.43067
507.36426
501.29826
495.23114
489.16148
483.08899
477.01385
470.93674
464.85903
458.78277
452.7108
446.64676
440.59517
434.56139
428.5517
422.57324
416.63402
410.74284
404.90925
399.14344
393.45616
387.85856
382.36208
376.97826
371.71858
366.59429
361.61623
356.79464
352.13904
347.65798
343.35903
339.24859
335.33187
331.61281
328.09409
324.77696
592.34091
586.08168
579.8551
573.65886
567.49042
561.34714
555.22622
549.12479
543.03988
536.9684
530.90702
524.85278
518.80464
512.76036
506.71739
500.67371
494.6279
488.57867
482.52578
476.46943
470.41039
464.35007
458.29058
452.2348
446.18645
440.15008
434.13111
428.13586
422.17152
416.24613
410.36853
404.54828
398.7956
393.12125
387.53641
382.0525
376.68107
371.43359
366.32129
361.35498
356.54492
351.90057
347.43046
343.14212
339.04194
335.13509
331.4255
327.9158
324.60724
591.12947
584.91888
578.73854
572.58625
566.45961
560.35605
554.2729
548.20738
542.15667
536.11781
530.0875
524.06262
518.04271
512.02533
506.00791
499.98857
493.96602
487.93909
481.90759
475.87178
469.83247
463.79114
457.74997
451.7119
445.6807
439.66097
433.65821
427.67878
421.72991
415.81967
409.95695
404.15133
398.41306
392.75292
387.18208
381.71199
376.35417
371.1201
366.02098
361.06762
356.27023
351.63826
347.18021
342.90356
338.81468
334.91872
331.21955
327.7198
324.42068
595.99548
589.80819
583.65043
577.52031
571.41576
565.33452
559.27412
553.232
547.20551
541.19194
535.1885
529.19198
523.199
517.20984
511.22169
505.23202
499.23914
493.2419
487.23924
481.23102
475.21756
469.19974
463.17909
457.15788
451.1391
445.1266
439.12504
433.13996
427.17779
421.24581
415.35214
409.50568
403.71607
397.99357
392.34898
386.79348
381.33852
375.99563
370.77625
365.6916
360.75243
355.96896
351.35058
346.90576
342.64195
338.56549
334.68147
330.99376
327.50494
324.2162
594.49833
588.37122
582.27065
576.1949
570.14205
564.10996
558.0963
552.09862
546.11439
540.14104
534.17595
528.21607
522.25767
516.30191
510.34539
504.38576
498.42157
492.45179
486.47546
480.49251
474.50331
468.50881
462.51063
456.51109
450.51328
444.52111
438.5393
432.57348
426.63011
420.71652
414.8409
409.01218
403.24003
397.53474
391.90713
386.36839
380.92997
375.60339
370.40009
365.33126
360.40763
355.63938
351.03588
346.60555
342.35581
338.29294
334.42202
330.74686
327.27002
323.99266
592.87479
586.81262
580.77375
574.75668
568.75964
562.78062
556.81742
550.86773
544.92914
538.9992
533.07549
527.1552
521.23423
515.31461
509.39221
503.46502
497.53185
491.59179
485.64396
479.68835
473.7254
467.75615
461.7823
455.80625
449.83117
443.86104
437.90067
431.95574
426.03279
420.1392
414.2832
408.47377
402.72063
397.03408
391.42497
385.9045
380.48411
375.17532
369.98957
364.938
360.03133
355.27971
350.69246
346.27795
342.04358
337.99557
334.13897
330.47754
327.01379
323.74887
591.11861
585.12628
579.15381
573.19989
567.26291
561.34101
555.43214
549.53413
543.64469
537.76151
531.88226
526.0043
520.12453
514.24348
508.35776
502.46552
496.56583
490.65785
484.74078
478.81467
472.88006
466.93808
460.99051
455.03985
449.08935
443.14308
437.20591
431.28361
425.38278
419.51087
413.67616
407.88768
402.15517
396.48899
390.89998
385.39937
379.9986
374.70918
369.54252
364.50976
359.62158
354.88808
350.31853
345.92128
341.70365
337.67185
333.83085
330.18439
326.73494
323.48359
595.15804
589.22346
583.30602
577.40479
571.51864
565.64612
559.78554
553.93501
548.09249
542.25584
536.42289
530.59143
524.75907
518.92333
513.08376
507.23749
501.38284
495.5192
489.64575
483.76179
477.86745
471.96337
466.05077
460.13153
454.20824
448.28426
442.36373
436.45163
430.55379
424.67688
418.82843
413.01677
407.25097
401.54084
395.89674
390.32955
384.8505
379.47103
374.20264
369.05673
364.04441
359.17632
354.46253
349.91223
345.53375
341.33435
337.32018
333.49617
329.866
326.43211
323.19553
593.03331
587.18291
581.34558
575.52058
569.70694
563.90342
558.1085
552.32043
546.53735
540.75727
534.97814
529.19792
523.4145
517.62574
511.83066
506.02673
500.21239
494.3875
488.55115
482.70274
476.84252
470.97123
465.09021
459.20144
453.30762
447.41219
441.5194
435.63432
429.76286
423.91177
418.08865
412.30189
406.56063
400.87469
395.25449
389.71092
384.25522
378.89885
373.65327
368.52986
363.53971
358.69343
354.00102
349.47163
345.11352
340.93391
336.93889
333.13333
329.52087
326.1039
322.8834
590.75107
584.99049
579.23864
573.49497
567.75874
562.02889
556.30407
550.58273
544.86316
539.14352
533.42193
527.69653
521.96544
516.22674
510.47924
504.72071
498.94945
493.16615
487.36954
481.55922
475.73556
469.89943
464.05229
458.19622
452.33404
446.46929
440.60633
434.75031
428.90725
423.08397
417.28816
411.52826
405.81347
400.15367
394.55929
389.04126
383.61082
378.27943
373.05853
367.95948
362.99335
358.1707
353.50145
348.99471
344.65869
340.50053
336.52626
332.7407
329.14744
325.74882
588.30478
582.63973
576.97883
571.32174
565.66792
560.01652
554.36637
548.71613
543.06424
537.40904
531.74883
526.0819
520.40662
514.72121
509.02447
503.31452
497.58912
491.8504
486.09627
480.32665
474.54209
468.74359
462.93271
457.11167
451.2834
445.45156
439.62061
433.79581
427.98327
422.18991
416.42348
410.6925
405.00624
399.3746
393.80808
388.31761
382.91445
377.61005
372.41582
367.3431
362.40294
357.60584
352.96164
348.47941
344.16728
340.03233
336.08052
332.31661
328.74411
325.36529
585.68786
580.12419
574.55981
568.99463
563.42834
557.86026
552.28946
546.71478
541.13485
535.5482
529.95328
524.34859
518.73266
513.1039
507.4611
501.80254
496.12702
490.43546
484.72653
479.00032
473.2575
467.49918
461.72706
455.94348
450.15149
444.35488
438.55822
432.76689
426.98709
421.22585
415.49099
409.79111
404.13553
398.53422
392.9977
387.53692
382.16318
376.88789
371.72244
366.67814
361.76601
356.99649
352.37935
347.92358
343.63726
339.52738
335.59983
331.8593
328.30925
324.95181
582.89385
577.43746
571.97527
566.50743
561.03383
555.55406
550.06736
544.57279
539.06919
533.55526
528.02965
522.49102
516.9381
511.36946
505.78398
500.18023
494.55751
488.91617
483.25537
477.57541
471.87706
466.16158
460.43079
454.68719
448.93395
443.17499
437.41501
431.6595
425.91478
420.18796
414.48696
408.82047
403.19786
397.62914
392.12489
386.69607
381.35398
376.11005
370.97559
365.96193
361.08002
356.34022
351.75226
347.32503
343.06654
338.9837
335.08233
331.36701
327.84116
324.50681
579.91641
574.57326
569.21897
563.85395
558.47831
553.09187
547.6941
542.28427
536.86143
531.42448
525.97225
520.50359
515.01741
509.51246
503.98778
498.44224
492.8754
487.28742
481.67777
476.04697
470.39591
464.726
459.03923
453.33822
447.62629
441.90751
436.1867
430.46948
424.76227
419.0723
413.40758
407.77687
402.18962
396.6559
391.18629
385.79181
380.48375
375.27354
370.17243
365.19175
360.34236
355.63457
351.07801
346.68152
342.453
338.39928
334.52608
330.83793
327.33813
324.02865
576.74937
571.52544
566.28481
561.02811
555.75573
550.4677
545.16374
539.84332
534.50573
529.15007
523.77536
518.38065
512.965
507.5274
502.0671
496.58317
491.07543
485.54399
479.9886
474.40995
468.80909
463.18759
457.5476
451.89189
446.22395
440.54798
434.86893
429.19256
423.52542
417.87484
412.24892
406.65652
401.10715
395.61093
390.17849
384.82085
379.5493
374.37521
369.31002
364.36482
359.5504
354.87701
350.35422
345.99077
341.79447
337.77206
333.92917
330.27021
326.79841
323.51569
573.38681
568.28809
563.16685
558.024
552.86017
547.67565
542.47039
537.2441
531.99628
526.72626
521.43327
516.11651
510.77524
505.40874
500.01644
494.59757
489.15224
483.68062
478.18267
472.65923
467.11156
461.54139
455.95103
450.34344
444.72224
439.0918
433.45722
427.82439
422.19998
416.59144
411.00698
405.45554
399.9467
394.49063
389.09801
383.77985
378.54746
373.41221
368.3855
363.47834
358.70144
354.06498
349.57844
345.25048
341.08877
337.09998
333.28961
329.662
326.22027
322.96626
569.82313
564.85551
559.85937
554.83586
549.78588
544.70996
539.6083
534.48085
529.32734
524.14733
518.94027
513.70554
508.44252
503.15092
497.8303
492.47996
487.10046
481.69198
476.2547
470.78963
465.29821
459.78237
454.24459
448.68801
443.11643
437.53435
431.94705
426.36055
420.78165
415.21793
409.67771
404.17
398.70447
393.29134
387.94131
382.66543
377.47499
372.38136
367.39587
362.52947
357.79278
353.19592
348.74825
344.45832
340.33372
336.38096
332.60546
329.01144
325.60194
322.37871
566.05307
561.22239
556.35697
551.45823
546.52733
541.56505
536.57186
531.54795
526.49327
521.40765
516.29076
511.14213
505.96125
500.74839
495.50319
490.22485
484.91467
479.57275
474.19942
468.79592
463.36389
457.90546
452.4233
446.92072
441.40171
435.87094
430.33383
424.79657
419.26609
413.7501
408.25701
402.79594
397.37663
392.00936
386.70486
381.47419
376.32865
371.27956
366.33816
361.51537
356.82174
352.26727
347.86122
343.61201
339.52712
335.61294
331.87477
328.31671
324.9417
321.75139
562.07184
557.38379
552.65458
547.88593
543.07926
538.23561
533.3557
528.43996
523.48862
518.50172
513.47922
508.4208
503.32586
498.19563
493.02962
487.82684
482.58957
477.3176
472.01155
466.67288
461.30344
455.90557
450.48215
445.03667
439.57328
434.09685
428.61298
423.12798
417.64894
412.1837
406.74079
401.32941
395.95939
390.64104
385.38513
380.20276
375.10518
370.10369
365.20942
360.43326
355.78565
351.2765
346.91494
342.70928
338.66684
334.7939
331.09562
327.57599
324.23782
321.0827
557.87521
553.33524
548.74758
544.11419
539.43677
534.71662
529.95471
525.15172
520.30813
515.42424
510.50028
505.5361
500.53098
495.48722
490.40397
485.2809
480.11997
474.92125
469.68582
464.4153
459.11174
453.77767
448.41618
443.03096
437.62636
432.20743
426.77991
421.35032
415.92589
410.51456
405.12499
399.76649
394.44894
389.18274
383.97864
378.84778
373.8014
368.85071
364.00675
359.28036
354.6819
350.22114
345.90709
341.74791
337.75079
333.92187
330.26616
326.78752
323.48867
320.37107
553.45951
549.07288
544.63186
540.13872
535.59539
531.00344
526.36411
521.67833
516.94682
512.17012
507.34865
502.48257
497.57183
492.61825
487.62135
482.58157
477.50043
472.37847
467.21708
462.01808
456.78373
451.51677
446.22049
440.89879
435.55623
430.19803
424.83014
419.45922
414.09265
408.73853
403.40562
398.10332
392.84161
387.6309
382.48197
377.40602
372.4142
367.51766
362.72735
358.05402
353.50797
349.09882
344.83542
340.7258
336.77699
332.99497
329.38462
325.94966
322.69267
319.61503
548.82186
544.59347
540.30392
535.95574
531.55113
527.09192
522.57958
518.01532
513.40008
508.73466
504.01971
499.25573
494.44323
489.58353
484.6767
479.72368
474.72588
469.68421
464.60033
459.47628
454.31452
449.11802
443.8903
438.63547
433.35829
428.06418
422.75928
417.45041
412.14511
406.85162
401.57881
396.3362
391.1338
385.9821
380.89188
375.87434
370.94061
366.10174
361.36852
356.75172
352.26149
347.90728
343.69783
339.64096
335.74356
332.01145
328.44935
325.06084
321.84836
318.8132
543.96015
539.89455
535.76097
531.56217
527.30063
522.97842
518.59728
514.15866
509.66376
505.11361
500.5091
495.8511
491.14042
486.37827
481.5652
476.70247
471.79155
466.83368
461.83079
456.78513
451.69939
446.57677
441.42103
436.23649
431.02812
425.80156
420.56312
415.3198
410.07931
404.85001
399.6409
394.46157
389.32213
384.23309
379.20528
374.24983
369.37782
364.60026
359.92776
355.3711
350.94024
346.64448
342.49237
338.49157
334.6488
330.96971
327.45885
324.11965
320.95443
317.96434
538.87327
534.97455
531.00101
526.95567
522.84122
518.66001
514.41401
510.10493
505.73421
501.30314
496.81285
492.26448
487.65913
482.99815
478.28243
473.51354
468.69301
463.82244
458.904
453.94018
448.93392
443.88865
438.80836
433.69761
428.56158
423.40611
418.23771
413.06357
407.89154
402.73013
397.58844
392.47616
387.40346
382.3809
377.41932
372.52972
367.72306
363.01019
358.40265
353.91005
349.54229
345.30858
341.21733
337.27604
333.49122
329.86835
326.41182
323.12489
320.00972
317.06738
533.56113
529.83289
526.02302
522.13477
518.17107
514.13449
510.02727
505.85135
501.60843
497.30003
492.92749
488.49221
483.99564
479.43933
474.82448
470.15296
465.42624
460.64642
455.81588
450.93737
446.01406
441.04964
436.04834
431.01494
425.95485
420.87413
415.77947
410.67823
405.57845
400.48875
395.41836
390.37704
385.37502
380.42289
375.53146
370.71167
365.97447
361.33084
356.79165
352.36683
348.06595
343.89803
339.87128
335.99303
332.26958
328.70624
325.30719
322.07555
319.01332
316.12145
528.0249
524.47015
520.82704
517.09903
513.28928
509.40059
505.43542
501.39596
497.28415
493.10174
488.85027
484.53135
480.14693
475.69867
471.18808
466.61721
461.98774
457.30207
452.56286
447.7731
442.93624
438.05621
433.13747
428.18506
423.2046
418.20235
413.18522
408.16076
403.13713
398.1231
393.12802
388.16168
383.23443
378.35684
373.53967
368.79385
364.13033
359.56
355.0932
350.74006
346.50996
342.41165
338.45315
334.64156
330.98299
327.48254
324.14421
320.97095
317.96459
315.12595
522.26711
518.88819
515.41433
511.84917
508.19609
504.45808
500.63782
496.73773
492.76
488.70657
484.57923
480.37983
476.11079
471.7737
467.37058
462.90359
458.37466
453.78649
449.14199
444.44443
439.69752
434.90543
430.07288
425.20513
420.30806
415.38812
410.45242
405.50867
400.56522
395.63096
390.71531
385.82816
380.97989
376.18106
371.44243
366.77488
362.18929
357.69634
353.3062
349.02884
344.87349
340.84871
336.96227
333.22104
329.63092
326.1968
322.92248
319.81071
316.86319
314.0806
516.29184
513.09037
509.78757
506.38727
502.893
499.30794
495.63499
491.87677
488.03565
484.11384
480.11345
476.03664
471.88605
467.66278
463.3702
459.01021
454.58502
450.0976
445.55114
440.94919
436.29571
431.59514
426.85242
422.07308
417.26321
412.42948
407.57918
402.72022
397.86108
393.01077
388.17882
383.3752
378.61026
373.89457
369.23888
364.65398
360.15065
355.73936
351.43015
347.23277
343.15627
339.209
335.39849
331.73138
328.21334
324.84901
321.64201
318.59489
315.7092
312.98548
510.1049
507.08171
503.95107
500.71693
497.383
493.95262
490.42887
486.81454
483.11222
479.32435
475.45339
471.50184
467.47233
463.36515
459.18622
454.93626
450.61787
446.23435
441.78919
437.2862
432.72961
428.12411
423.47491
418.78774
414.06894
409.32539
404.56457
399.79454
395.02393
390.26189
385.51803
380.80235
376.1252
371.49714
366.92887
362.43111
358.01446
353.68922
349.46529
345.35214
341.35865
337.49294
333.76228
330.17308
326.73074
323.43969
320.30333
317.32402
314.50314
311.84108
503.71412
500.86915
497.91095
494.84357
491.67083
488.39622
485.02299
481.55409
477.99231
474.34029
470.60072
466.77628
462.86968
458.88281
454.8197
450.68224
446.47347
442.19688
437.85619
433.45547
428.99919
424.49231
419.94028
415.34908
410.72525
406.0759
401.40869
396.73183
392.05408
387.38471
382.73339
378.11016
373.52535
368.9895
364.51322
360.10713
355.78165
351.54691
347.4126
343.388
339.48173
335.70165
332.0548
328.54728
325.18429
321.96999
318.90756
315.99919
313.24605
310.64844
497.12953
494.46183
491.67548
488.77463
485.7632
482.6448
479.42279
476.1003
472.68026
469.1655
465.55893
461.86348
458.08206
454.21724
450.27236
446.25003
442.15365
437.9869
433.75372
429.45846
425.10585
420.70109
416.24988
411.75844
407.23353
402.68243
398.11299
393.53358
388.95308
384.38084
379.82659
375.30038
370.81252
366.3735
361.99384
357.68398
353.45417
349.31435
345.27402
341.34232
337.52752
333.83717
330.27804
326.85597
323.5759
320.44176
317.45651
314.62212
311.93962
309.40915
490.36368
487.87135
485.25536
482.51998
479.66918
476.70667
473.63591
470.46016
467.18249
463.80591
460.33355
456.76858
453.11408
449.37297
445.54842
441.64359
437.66212
433.6079
429.48514
425.29842
421.05274
416.75354
412.40676
408.01885
403.59677
399.14799
394.68052
390.20286
385.72402
381.25341
376.80078
372.3762
367.98994
363.65238
359.37393
355.16487
351.03525
346.99476
343.05277
339.21831
335.49914
331.90253
328.43495
325.10201
321.90835
318.85769
315.95276
313.19532
310.58622
308.12549
485.62017
483.43243
481.11229
478.66415
476.09224
473.40055
470.59282
467.6726
464.64323
461.50794
458.26996
454.93254
451.49918
447.97278
444.35686
440.65441
436.8691
433.0048
429.0656
425.05597
420.98073
416.84512
412.65483
408.41602
404.13535
399.81997
395.47754
391.1162
386.7446
382.37182
378.00732
373.66087
369.34251
365.06245
360.83097
356.65833
352.55464
348.52976
344.59325
340.75418
337.02078
333.40106
329.90196
326.52962
323.28931
320.18543
317.22143
314.3998
311.72211
309.18904
306.80049
478.37057
476.35452
474.20244
471.91864
469.50727
466.97228
464.31742
461.54627
458.66226
455.66876
452.56919
449.36694
446.0655
442.66808
439.17834
435.59949
431.93544
428.19028
424.36836
420.47436
416.51335
412.49079
408.41262
404.28519
400.11537
395.91049
391.67836
387.42727
383.16595
378.90357
374.64959
370.4138
366.20618
362.03685
357.91597
353.85364
349.85976
345.94399
342.11558
338.38325
334.75511
331.23879
327.84093
324.56735
321.42302
318.41206
315.53768
312.80214
310.20681
307.75221
305.43809
471.00306
469.15275
467.16352
465.0395
462.78474
460.40311
457.89835
455.27403
452.53363
449.68063
446.71865
443.65115
440.48131
437.21325
433.8504
430.3962
426.85476
423.23041
419.52772
415.75159
411.90732
408.0006
404.03755
400.02476
395.96924
391.8785
387.76049
383.62362
379.47669
375.3289
371.18974
367.06894
362.97642
358.92219
354.91626
350.96854
347.08871
343.28615
339.56982
335.94816
332.429
329.01973
325.72654
322.55493
319.50963
316.59448
313.81241
311.16548
308.65486
306.28087
304.0432
463.54622
461.8545
460.02175
458.05188
455.94878
453.71623
451.35789
448.8773
446.27797
443.5635
440.73765
437.80394
434.76434
431.62575
428.39008
425.0611
421.64319
418.14091
414.55904
410.90271
407.1774
403.38901
399.54386
395.64869
391.71071
387.73754
383.73725
379.71835
375.6897
371.66048
367.64018
363.63846
359.66517
355.73015
351.84325
348.01414
344.25228
340.56678
336.9663
333.45901
330.05242
326.75321
323.56761
320.50081
317.55722
314.74038
312.05299
309.49684
307.07292
304.7814
302.62185
456.03391
454.49246
452.80868
450.98625
449.02884
446.94009
444.72354
442.38269
439.92104
437.34221
434.6499
431.84782
428.93909
425.92856
422.81932
419.61549
416.32154
412.94215
409.4823
405.94728
402.34277
398.67485
394.95001
391.17514
387.35758
383.50508
379.62581
375.72831
371.82148
367.91447
364.01674
360.13786
356.28753
352.47545
348.71125
345.00437
341.36399
337.79893
334.31753
330.9276
327.63628
324.44999
321.37466
318.41516
315.57557
312.85916
310.26835
307.80474
305.4691
303.26149
301.18135
448.50621
447.10554
445.56213
443.87934
442.06062
440.10941
438.02911
435.82315
433.49496
431.0482
428.48655
425.81353
423.03313
420.14929
417.16561
414.08642
410.91631
407.6601
404.32291
400.91023
397.42788
393.8821
390.27952
386.62717
382.93248
379.20331
375.44788
371.67476
367.89282
364.11119
360.33924
356.58643
352.86229
349.17634
345.53796
341.95635
338.44039
334.99856
331.63889
328.36883
325.19516
322.12402
319.16076
316.3104
313.57655
310.96212
308.46927
306.09939
303.8531
301.73033
299.73044
441.0104
439.73998
438.32728
436.77533
435.0873
433.26641
431.3159
429.23904
427.03919
424.72004
422.2853
419.73734
417.08263
414.32343
411.46366
408.50787
405.46079
402.32737
399.11288
395.82292
392.46348
389.0409
385.56193
382.0337
378.46374
374.85993
371.23055
367.58413
363.92951
360.27577
356.63213
353.00793
349.41251
345.85515
342.345
338.89094
335.50157
332.18503
328.94899
325.80056
322.74621
319.79174
316.94225
314.20196
311.5746
309.06283
306.66856
304.39294
302.23643
300.19884
298.27945
433.6023
432.45069
431.15811
429.72723
428.16092
426.46214
424.63394
422.67941
420.60173
418.40444
416.09144
413.66614
411.13293
408.49497
405.75648
402.92201
399.99635
396.98455
393.89198
390.72436
387.48778
384.18868
380.83388
377.43059
373.98637
370.50915
367.00717
363.48893
359.96321
356.43896
352.92529
349.43132
345.9662
342.53896
339.15845
335.83329
332.5717
329.38152
326.27007
323.24408
320.30968
317.47232
314.73672
312.1069
309.58619
307.17708
304.88123
302.69964
300.63262
298.67984
296.84054
426.34802
425.30298
424.11907
422.79859
421.34407
419.7582
418.0438
416.20381
414.24137
412.15992
409.96332
407.65488
405.23848
402.71777
400.09704
397.38085
394.57403
391.6817
388.70931
385.66265
382.54788
379.37152
376.14042
372.86184
369.54334
366.19283
362.81851
359.42881
356.03241
352.63812
349.25485
345.89155
342.5571
339.26028
336.00963
332.81345
329.67964
326.61567
323.62852
320.72457
317.90959
315.1887
312.5663
310.04609
307.63103
305.32348
303.12495
301.03622
299.05748
297.1883
295.42789
419.32587
418.37447
417.28704
416.06548
414.712
413.229
411.61907
409.88498
408.02979
406.05681
403.96956
401.7717
399.46646
397.05787
394.55024
391.94814
389.25639
386.48018
383.62499
380.69667
377.7014
374.64574
371.53656
368.38109
365.1869
361.96184
358.71401
355.45176
352.18362
348.91823
345.66432
342.43057
339.22563
336.05797
332.93585
329.8672
326.85961
323.92018
321.05555
318.27174
315.5742
312.9677
310.45636
308.04357
305.73205
303.52379
301.42026
299.42212
297.5294
295.74164
294.05799
412.62868
411.75742
410.75364
409.61886
408.35493
406.96394
405.44825
403.81049
402.05331
400.18031
398.19452
396.09951
393.89854
391.59566
389.19514
386.70152
384.11966
381.45473
378.71226
375.89808
373.0184
370.07976
367.08901
364.05336
360.98031
357.87762
354.75329
351.61553
348.47271
345.33328
342.20572
339.09849
336.01995
332.97827
329.98139
327.03691
324.15207
321.33365
318.58791
315.92056
313.33671
310.84083
308.43673
306.12756
303.91579
301.80323
299.79104
297.87985
296.06967
294.36
292.74994