/*--------------------------------*- C++ -*----------------------------------*\
| =========                 |                                                 |
| \\      /  F ield         | OpenFOAM: The Open Source CFD Toolbox           |
|  \\    /   O peration     | Version:  2312                                  |
|   \\  /    A nd           | Website:  www.openfoam.com                      |
|    \\/     M anipulation  |                                                 |
\*---------------------------------------------------------------------------*/
FoamFile
{
    version     2.0;
    format      ascii;
    arch        "LSB;label=32;scalar=64";
    class       surfaceScalarField;
    location    "0.02";
    object      phi;
}
// * * * * * * * * * * * * * * * * * * * * * * * * * * * * * * * * * * * * * //

dimensions      [1 0 -1 0 0 0 0];

oriented        oriented;

internalField   nonuniform List<scalar> 
6383
(
1.1053762e-07
2.7062419e-09
1.0752176e-07
2.6459928e-09
1.04559e-07
2.5858991e-09
1.0164987e-07
2.5258508e-09
9.8794818e-08
2.4657438e-09
9.59943e-08
2.4056241e-09
9.324879e-08
2.3455238e-09
9.0558866e-08
2.2854797e-09
8.7925275e-08
2.2255346e-09
8.5348929e-08
2.1657362e-09
8.2830757e-08
2.1061244e-09
8.0371488e-08
2.0467436e-09
7.7971215e-08
1.987855e-09
7.5626684e-08
1.929176e-09
7.3340859e-08
1.8709032e-09
7.1113605e-08
1.8132414e-09
6.8937326e-08
1.7560959e-09
6.6818663e-08
1.6994693e-09
6.4757713e-08
1.6436653e-09
6.2754005e-08
1.5886153e-09
6.0807125e-08
1.5343843e-09
5.8916618e-08
1.4810244e-09
5.7081968e-08
1.4285887e-09
5.5302601e-08
1.3771275e-09
5.3577893e-08
1.3266893e-09
5.1907163e-08
1.2773202e-09
5.0289683e-08
1.2290632e-09
4.8724667e-08
1.1819579e-09
4.7211278e-08
1.1360398e-09
4.5748626e-08
1.0913402e-09
4.4335765e-08
1.0478866e-09
4.2971701e-08
1.0057011e-09
4.1655391e-08
9.6480163e-10
4.038574e-08
9.252036e-10
3.9161615e-08
8.8690758e-10
3.7981831e-08
8.499255e-10
3.6845162e-08
8.142522e-10
3.5750341e-08
7.7988178e-10
3.4696063e-08
7.4680484e-10
3.368099e-08
7.1500986e-10
3.2703749e-08
6.8448332e-10
3.1762939e-08
6.5520676e-10
3.0857024e-08
6.2716877e-10
2.9984497e-08
6.0028453e-10
2.9143904e-08
5.7443426e-10
2.8333673e-08
5.4971763e-10
2.7552312e-08
5.2609771e-10
2.6798263e-08
5.0343485e-10
4.8183749e-10
1.1052096e-07
5.3466634e-09
1.0750657e-07
5.2244235e-09
1.0454521e-07
5.1022392e-09
1.0163741e-07
4.9799832e-09
9.878361e-08
4.8575697e-09
9.5984268e-08
4.7350685e-09
9.323986e-08
4.6125453e-09
9.0550963e-08
4.49007e-09
8.7918327e-08
4.3677174e-09
8.5342868e-08
4.2455542e-09
8.2825525e-08
4.1236544e-09
8.0367038e-08
4.0020929e-09
7.7967499e-08
3.8814667e-09
7.5623647e-08
3.7612183e-09
7.3338441e-08
3.6417526e-09
7.1111757e-08
3.5234117e-09
6.8936005e-08
3.4060305e-09
6.6817846e-08
3.2896281e-09
6.4757349e-08
3.1748162e-09
6.2754054e-08
3.0614401e-09
6.0807551e-08
2.949642e-09
5.8917386e-08
2.8395307e-09
5.7083045e-08
2.7312173e-09
5.5303956e-08
2.6248066e-09
5.3579497e-08
2.5204005e-09
5.190899e-08
2.4180962e-09
5.0291707e-08
2.3179851e-09
4.8726865e-08
2.2201521e-09
4.7213628e-08
2.1246743e-09
4.5751107e-08
2.0316219e-09
4.4338359e-08
1.9410564e-09
4.297439e-08
1.8530296e-09
4.1658159e-08
1.7675834e-09
4.0388569e-08
1.6847526e-09
3.9164494e-08
1.6045666e-09
3.7984747e-08
1.5270367e-09
3.6848102e-08
1.4521658e-09
3.5753296e-08
1.3799514e-09
3.4699022e-08
1.3103826e-09
3.3683947e-08
1.243438e-09
3.2706696e-08
1.1790977e-09
3.1765872e-08
1.1173081e-09
3.0859936e-08
1.0580434e-09
2.998737e-08
1.0011941e-09
2.9146738e-08
9.466683e-10
2.8336469e-08
8.9443439e-10
2.7555065e-08
8.4448636e-10
2.6800992e-08
7.9665352e-10
7.5093748e-10
1.1048638e-07
7.9837021e-09
1.07475e-07
7.7996879e-09
1.0451647e-07
7.6155904e-09
1.0161133e-07
7.4312982e-09
9.876004e-08
7.2467484e-09
9.5963057e-08
7.0620312e-09
9.3220858e-08
6.8772467e-09
9.0534022e-08
6.6925003e-09
8.7903298e-08
6.5078985e-09
8.5329615e-08
6.3235212e-09
8.2813937e-08
6.1394635e-09
8.0357025e-08
5.9558307e-09
7.7958964e-08
5.7735826e-09
7.5616483e-08
5.5918861e-09
7.3332527e-08
5.4113493e-09
7.1106988e-08
5.2324342e-09
6.8932293e-08
5.0549103e-09
6.6815155e-08
4.8788672e-09
6.4755571e-08
4.7051287e-09
6.2753111e-08
4.5335115e-09
6.080737e-08
4.3642311e-09
5.8917897e-08
4.1974506e-09
5.7084182e-08
4.0333379e-09
5.5305659e-08
3.8720526e-09
5.3581706e-08
3.7137495e-09
5.1911651e-08
3.5585768e-09
5.029477e-08
3.4066746e-09
4.8730282e-08
3.2581732e-09
4.7217355e-08
3.1131924e-09
4.5755103e-08
2.9718406e-09
4.4342585e-08
2.8342127e-09
4.2978811e-08
2.7003909e-09
4.1662742e-08
2.5704397e-09
4.0393285e-08
2.4444014e-09
3.9169313e-08
2.3223775e-09
3.7989643e-08
2.2043345e-09
3.6853052e-08
2.0902973e-09
3.5758278e-08
1.9802675e-09
3.4704017e-08
1.8742328e-09
3.3688938e-08
1.7721621e-09
3.2711669e-08
1.6740303e-09
3.1770815e-08
1.5797465e-09
3.0864835e-08
1.4892768e-09
2.9992202e-08
1.4024716e-09
2.9151489e-08
1.3192635e-09
2.8341142e-08
1.2395512e-09
2.7559653e-08
1.1632943e-09
2.6805504e-08
1.090308e-09
1.0205075e-09
1.10434e-07
1.061579e-08
1.0742713e-07
1.0370318e-08
1.0447285e-07
1.0124596e-08
1.0157172e-07
9.878538e-09
9.8724197e-08
9.6321107e-09
9.5930753e-08
9.3854269e-09
9.3191868e-08
9.1386236e-09
9.0508121e-08
8.8918456e-09
8.7880264e-08
8.6452306e-09
8.5309242e-08
8.3988646e-09
8.2796063e-08
8.1528417e-09
8.0341518e-08
7.9073035e-09
7.794568e-08
7.6636056e-09
7.5605261e-08
7.4206414e-09
7.3323186e-08
7.1792179e-09
7.1099366e-08
6.9398839e-09
6.8926264e-08
6.7023567e-09
6.6810659e-08
6.4668711e-09
6.4752447e-08
6.2343275e-09
6.2751242e-08
6.0045948e-09
6.0806646e-08
5.7779581e-09
5.8918215e-08
5.5546301e-09
5.7085443e-08
5.3348345e-09
5.530777e-08
5.1187852e-09
5.3584579e-08
4.9066902e-09
5.1915206e-08
4.6987486e-09
5.0298929e-08
4.4951491e-09
4.8734975e-08
4.2960678e-09
4.7222515e-08
4.1016669e-09
4.5760667e-08
3.9120928e-09
4.4348497e-08
3.7274755e-09
4.2985016e-08
3.5479274e-09
4.1669189e-08
3.3735432e-09
4.0399936e-08
3.2043985e-09
3.9176119e-08
3.0405514e-09
3.7996565e-08
2.8820415e-09
3.6860056e-08
2.7288845e-09
3.576533e-08
2.5810821e-09
3.471109e-08
2.4386204e-09
3.3696005e-08
2.3014589e-09
3.2718707e-08
2.1695691e-09
3.1777804e-08
2.0428217e-09
3.0871751e-08
1.9211787e-09
2.9999023e-08
1.8044447e-09
2.9158195e-08
1.6925681e-09
2.8347727e-08
1.5854011e-09
2.7566106e-08
1.4828549e-09
2.6811825e-08
1.384732e-09
1.2908861e-09
1.1036381e-07
1.3241327e-08
1.0736298e-07
1.2934818e-08
1.0441438e-07
1.2627862e-08
1.0151858e-07
1.2320406e-08
9.8676078e-08
1.2012449e-08
9.5887348e-08
1.1704132e-08
9.3152877e-08
1.1395634e-08
9.0473242e-08
1.1087144e-08
8.7849198e-08
1.0778831e-08
8.5281718e-08
1.0470773e-08
8.2771857e-08
1.016305e-08
8.0320475e-08
9.8558104e-09
7.7927609e-08
9.5508926e-09
7.5589943e-08
9.2469076e-09
7.3310381e-08
8.9448374e-09
7.1088846e-08
8.6453092e-09
6.8917899e-08
8.3479553e-09
6.6804321e-08
8.05327e-09
6.4747942e-08
7.7620907e-09
6.2748413e-08
7.4744157e-09
6.0805348e-08
7.1905901e-09
5.8918307e-08
6.910876e-09
5.7086795e-08
6.635552e-09
5.5310256e-08
6.3648858e-09
5.3588085e-08
6.0991382e-09
5.1919622e-08
5.8385596e-09
5.0304154e-08
5.5833876e-09
4.8740913e-08
5.3338443e-09
4.7229078e-08
5.0901341e-09
4.5767773e-08
4.8524423e-09
4.4356067e-08
4.6209337e-09
4.299298e-08
4.3957513e-09
4.167748e-08
4.1770164e-09
4.0408494e-08
3.964829e-09
3.9184887e-08
3.7592514e-09
3.800549e-08
3.560344e-09
3.6869091e-08
3.3681298e-09
3.5774433e-08
3.1826123e-09
3.4720219e-08
3.0037755e-09
3.3705126e-08
2.8315705e-09
3.2727789e-08
2.6659678e-09
3.178682e-08
2.5067976e-09
3.0880668e-08
2.3540208e-09
3.0007815e-08
2.2073949e-09
2.9166839e-08
2.0668765e-09
2.8356209e-08
1.9322785e-09
2.7574408e-08
1.8034671e-09
2.6819941e-08
1.6802281e-09
1.5623718e-09
9.7647275e-08
1.5559243e-08
9.499654e-08
1.5199129e-08
9.2391664e-08
1.4838364e-08
8.9833192e-08
1.4476929e-08
8.7321579e-08
1.4114858e-08
8.4857257e-08
1.3752317e-08
8.2440664e-08
1.338953e-08
8.0072312e-08
1.302673e-08
7.7752869e-08
1.2664117e-08
7.5483252e-08
1.2301717e-08
7.3264355e-08
1.1939704e-08
7.1097147e-08
1.1577978e-08
6.8981525e-08
1.121912e-08
6.691451e-08
1.0861403e-08
6.4898759e-08
1.0505819e-08
6.2934057e-08
1.0153318e-08
6.1014162e-08
9.8030607e-09
5.9144768e-08
9.4562995e-09
5.7325906e-08
9.1133238e-09
5.5557193e-08
8.7745523e-09
5.3838325e-08
8.4402613e-09
5.2168917e-08
8.1107913e-09
5.0548537e-08
7.7864617e-09
4.8976704e-08
7.4675894e-09
4.7452888e-08
7.1544819e-09
4.5976513e-08
6.847435e-09
4.4546954e-08
6.5467295e-09
4.316354e-08
6.2526285e-09
4.1825549e-08
5.9653744e-09
4.0532212e-08
5.685187e-09
3.9282711e-08
5.4122619e-09
3.8076184e-08
5.1467694e-09
3.6911723e-08
4.8888539e-09
3.5788381e-08
4.6386339e-09
3.4705162e-08
4.3961906e-09
3.3661032e-08
4.1615854e-09
3.2654925e-08
3.9348541e-09
3.168573e-08
3.716003e-09
3.0752306e-08
3.5050127e-09
2.9853484e-08
3.3018282e-09
2.8988058e-08
3.1064234e-09
2.8154804e-08
2.9185865e-09
2.7352344e-08
2.7382812e-09
2.6579343e-08
2.565227e-09
2.5834545e-08
2.3993764e-09
2.5116599e-08
2.2405151e-09
2.4424163e-08
2.0884707e-09
2.3755914e-08
1.9430183e-09
1.803929e-09
1.002675e-07
1.7933384e-08
9.7550734e-08
1.7518694e-08
9.4880657e-08
1.7103111e-08
9.2257854e-08
1.6686656e-08
8.9682818e-08
1.62694e-08
8.7156009e-08
1.5851541e-08
8.4677888e-08
1.5433353e-08
8.2248983e-08
1.5015118e-08
7.9869988e-08
1.4597074e-08
7.7541865e-08
1.4179189e-08
7.5265601e-08
1.3761702e-08
7.3042235e-08
1.3344268e-08
7.087164e-08
1.2930268e-08
6.8750737e-08
1.2517626e-08
6.668222e-08
1.2107346e-08
6.4665907e-08
1.170066e-08
6.2695468e-08
1.1296314e-08
6.0776754e-08
1.0896239e-08
5.8909741e-08
1.050028e-08
5.7094076e-08
1.0109212e-08
5.5329453e-08
9.7232677e-09
5.3615488e-08
9.3428632e-09
5.1951745e-08
8.9683611e-09
5.0337741e-08
8.6001289e-09
4.8772939e-08
8.2385217e-09
4.7256756e-08
7.8838824e-09
4.578856e-08
7.5365367e-09
4.4367668e-08
7.1967898e-09
4.2993346e-08
6.8649232e-09
4.1664812e-08
6.5411924e-09
4.0381232e-08
6.2258251e-09
3.9141726e-08
5.9190197e-09
3.7945368e-08
5.6209445e-09
3.6791189e-08
5.3317377e-09
3.5678175e-08
5.0515023e-09
3.460527e-08
4.7802913e-09
3.3571379e-08
4.518166e-09
3.2575369e-08
4.2651296e-09
3.1616072e-08
4.0211601e-09
3.0692291e-08
3.7861965e-09
2.9802794e-08
3.5602184e-09
2.8946322e-08
3.3429714e-09
2.8121453e-08
3.1344188e-09
2.7326835e-08
2.9342463e-09
2.6561175e-08
2.7423965e-09
2.5823089e-08
2.5586293e-09
2.5111199e-08
2.3827363e-09
2.442415e-08
2.2144762e-09
2.0535872e-09
1.0294581e-07
2.0363564e-08
1.001628e-07
1.9893411e-08
9.742722e-08
1.9422085e-08
9.4739715e-08
1.8949643e-08
9.210082e-08
1.8476199e-08
8.9511032e-08
1.8001988e-08
8.6970839e-08
1.7527339e-08
8.4480791e-08
1.7052594e-08
8.2041611e-08
1.6578026e-08
7.9654306e-08
1.6103562e-08
7.7319967e-08
1.5629456e-08
7.50397e-08
1.515515e-08
7.2813353e-08
1.4684852e-08
7.0637757e-08
1.4216123e-08
6.8515637e-08
1.3749993e-08
6.6446858e-08
1.3287925e-08
6.4425001e-08
1.2828348e-08
6.2456085e-08
1.2373725e-08
6.0540022e-08
1.1923623e-08
5.8676495e-08
1.1479073e-08
5.6865199e-08
1.1040304e-08
5.5105751e-08
1.06078e-08
5.3397717e-08
1.0181969e-08
5.1740609e-08
9.7632326e-09
5.0133889e-08
9.3519937e-09
4.8576969e-08
8.9486441e-09
4.7069209e-08
8.5535559e-09
4.5609917e-08
8.1670779e-09
4.4198349e-08
7.789532e-09
4.2833709e-08
7.4212108e-09
4.151515e-08
7.0623749e-09
4.0241776e-08
6.7132518e-09
3.9012643e-08
6.3740346e-09
3.7826763e-08
6.0448808e-09
3.6683099e-08
5.7259064e-09
3.5580578e-08
5.4171922e-09
3.4518078e-08
5.1187897e-09
3.3494442e-08
4.8307088e-09
3.2508476e-08
4.5529259e-09
3.1558958e-08
4.2853745e-09
3.0644628e-08
4.0280404e-09
2.9764191e-08
3.7806313e-09
2.8916175e-08
3.5430985e-09
2.8099223e-08
3.3151067e-09
2.7312001e-08
3.0965794e-09
2.6553091e-08
2.8872522e-09
2.5821079e-08
2.6868828e-09
2.5114578e-08
2.4952091e-09
2.3119406e-09
1.0568103e-07
2.2849414e-08
1.028317e-07
2.2323011e-08
1.0003047e-07
2.1795108e-08
9.7278027e-08
2.1265796e-08
9.4574969e-08
2.0735237e-08
9.1921831e-08
2.0203711e-08
8.9319133e-08
1.9671607e-08
8.6767452e-08
1.9139333e-08
8.4267542e-08
1.8607205e-08
8.1820458e-08
1.8075116e-08
7.94274e-08
1.754331e-08
7.7089572e-08
1.7011007e-08
7.4806776e-08
1.648331e-08
7.2575746e-08
1.5957374e-08
7.039925e-08
1.543427e-08
6.8277193e-08
1.4915663e-08
6.6203109e-08
1.4399734e-08
6.4183144e-08
1.3889367e-08
6.2217172e-08
1.3383979e-08
6.0304911e-08
1.2884786e-08
5.8446054e-08
1.2392041e-08
5.6640226e-08
1.1906289e-08
5.4886994e-08
1.142799e-08
5.3185873e-08
1.0957617e-08
5.1536323e-08
1.0495626e-08
4.9937751e-08
1.0042458e-08
4.8389513e-08
9.5985334e-09
4.689091e-08
9.1642456e-09
4.5441189e-08
8.7399587e-09
4.4039542e-08
8.3260033e-09
4.2685109e-08
7.9226744e-09
4.137698e-08
7.5302295e-09
4.0114195e-08
7.1488873e-09
3.8895747e-08
6.778826e-09
3.7720579e-08
6.4201788e-09
3.6587598e-08
6.0730438e-09
3.5495659e-08
5.7374742e-09
3.4443582e-08
5.4134835e-09
3.3430145e-08
5.1010468e-09
3.2454101e-08
4.8000924e-09
3.1514172e-08
4.510608e-09
3.0609019e-08
4.2322756e-09
2.9737106e-08
3.9650131e-09
2.8897095e-08
3.7084948e-09
2.8087602e-08
3.462601e-09
2.7307174e-08
3.2270488e-09
2.6554361e-08
3.0015635e-09
2.5827745e-08
2.7858599e-09
2.5796194e-09
1.0847172e-07
2.5390365e-08
1.0555618e-07
2.4807035e-08
1.0268931e-07
2.4221823e-08
9.9871857e-08
2.3634857e-08
9.7104474e-08
2.3046348e-08
9.4387749e-08
2.2456626e-08
9.1722239e-08
2.1866146e-08
8.9108549e-08
2.127539e-08
8.6547466e-08
2.0684729e-08
8.4040096e-08
2.0094038e-08
8.1587762e-08
1.9503519e-08
7.9191806e-08
1.8912134e-08
7.6851947e-08
1.8325998e-08
7.4564818e-08
1.7741792e-08
7.2333237e-08
1.7160628e-08
7.0157152e-08
1.6584364e-08
6.8030085e-08
1.6010991e-08
6.5958278e-08
1.5443726e-08
6.3941587e-08
1.4881936e-08
6.1979757e-08
1.432697e-08
6.0072489e-08
1.3779121e-08
5.8219417e-08
1.3238997e-08
5.6420113e-08
1.2707111e-08
5.4674094e-08
1.2183988e-08
5.2980822e-08
1.167014e-08
5.1339703e-08
1.1166059e-08
4.9750091e-08
1.0672216e-08
4.8211279e-08
1.018905e-08
4.6722509e-08
9.7169683e-09
4.5282962e-08
9.2563417e-09
4.3891768e-08
8.8075003e-09
4.2548002e-08
8.370733e-09
4.1250691e-08
7.9462851e-09
3.9998809e-08
7.5343567e-09
3.8791283e-08
7.1350999e-09
3.7626997e-08
6.7486269e-09
3.6504787e-08
6.374997e-09
3.5423448e-08
6.0142269e-09
3.4381733e-08
5.6662915e-09
3.3378366e-08
5.3311181e-09
3.2412067e-08
5.0086722e-09
3.1481442e-08
4.6986529e-09
3.0584872e-08
4.4008841e-09
2.9721068e-08
4.1151367e-09
2.8888584e-08
3.8411769e-09
2.8085934e-08
3.5787242e-09
2.7311632e-08
3.3274727e-09
2.6564225e-08
3.0871119e-09
2.857295e-09
1.1131605e-07
2.7985631e-08
1.0833462e-07
2.7344823e-08
1.0540229e-07
2.6701689e-08
1.0251992e-07
2.6056391e-08
9.968821e-08
2.5409196e-08
9.6907808e-08
2.4760491e-08
9.4179317e-08
2.4110801e-08
9.1503371e-08
2.3460691e-08
8.8880787e-08
2.2810601e-08
8.6312728e-08
2.2160404e-08
8.3800654e-08
2.1510238e-08
8.1346104e-08
2.085873e-08
7.8948665e-08
2.0213185e-08
7.6604859e-08
1.9569706e-08
7.4317562e-08
1.8929446e-08
7.2086764e-08
1.8294454e-08
6.9906023e-08
1.7662583e-08
6.7781643e-08
1.7037312e-08
6.5713473e-08
1.6418041e-08
6.3701291e-08
1.5806204e-08
6.1744808e-08
1.5202157e-08
5.9843668e-08
1.4606564e-08
5.7997452e-08
1.4019995e-08
5.6205684e-08
1.3443033e-08
5.4467829e-08
1.2876244e-08
5.2783295e-08
1.2320174e-08
5.1151433e-08
1.1775346e-08
4.9571536e-08
1.1242247e-08
4.8042837e-08
1.072133e-08
4.6564513e-08
1.0213005e-08
4.5135682e-08
9.7176407e-09
4.3755409e-08
9.235557e-09
4.2422705e-08
8.7670277e-09
4.1136531e-08
8.3122762e-09
3.9895796e-08
7.8714739e-09
3.8699364e-08
7.4447468e-09
3.7546052e-08
7.0321624e-09
3.6434631e-08
6.633741e-09
3.5363833e-08
6.2494578e-09
3.4332357e-08
5.8792382e-09
3.33389e-08
5.5230216e-09
3.238202e-08
5.1805345e-09
3.1460048e-08
4.8515036e-09
3.0571711e-08
4.5357944e-09
2.971551e-08
4.2330621e-09
2.8889926e-08
3.9430245e-09
2.8093437e-08
3.6653462e-09
2.7324555e-08
3.3996908e-09
3.1456823e-09
1.1421183e-07
3.0634188e-08
1.11165e-07
2.993549e-08
1.0816762e-07
2.9233951e-08
1.052206e-07
2.8529767e-08
1.0232473e-07
2.7823267e-08
9.9480733e-08
2.7114897e-08
9.6689245e-08
2.6405259e-08
9.395094e-08
2.5695013e-08
9.1266658e-08
2.4984683e-08
8.8637618e-08
2.4274169e-08
8.6065443e-08
2.3563514e-08
8.3551954e-08
2.2850883e-08
8.1096529e-08
2.2145044e-08
7.8695561e-08
2.1441363e-08
7.6351996e-08
2.0741024e-08
7.4065881e-08
2.0046291e-08
7.1830848e-08
1.935491e-08
6.965323e-08
1.8670579e-08
6.7532888e-08
1.7992787e-08
6.5469629e-08
1.7323024e-08
6.3463178e-08
1.6661722e-08
6.1513195e-08
1.6009597e-08
5.9619274e-08
1.5367281e-08
5.7780945e-08
1.4735417e-08
5.5997681e-08
1.4114629e-08
5.4268895e-08
1.3505518e-08
5.2593939e-08
1.290866e-08
5.0972104e-08
1.2324593e-08
4.9402622e-08
1.1753815e-08
4.7884662e-08
1.119678e-08
4.6417336e-08
1.0653893e-08
4.4999699e-08
1.0125509e-08
4.363075e-08
9.6119308e-09
4.2309436e-08
9.1134065e-09
4.1034649e-08
8.6301274e-09
3.9805237e-08
8.1622337e-09
3.8619997e-08
7.7098024e-09
3.7477679e-08
7.2728576e-09
3.6376994e-08
6.8513753e-09
3.5316619e-08
6.4452767e-09
3.4295217e-08
6.05448e-09
3.3311301e-08
5.6787364e-09
3.2363178e-08
5.3176904e-09
3.1449563e-08
4.9712732e-09
3.0568915e-08
4.6390538e-09
2.9719679e-08
4.3207387e-09
2.89003e-08
4.0159644e-09
2.8109254e-08
3.7243672e-09
3.4455421e-09
1.1715642e-07
3.3334755e-08
1.1404493e-07
3.2577916e-08
1.1098309e-07
3.1817635e-08
1.079719e-07
3.1054147e-08
1.0501225e-07
3.0287849e-08
1.021049e-07
2.9519251e-08
9.9250571e-08
2.8749036e-08
9.6449962e-08
2.7977973e-08
9.3703931e-08
2.7206691e-08
9.1013745e-08
2.643515e-08
8.8381221e-08
2.5663271e-08
8.5808585e-08
2.4888559e-08
8.3294888e-08
2.412164e-08
8.0836375e-08
2.3356913e-08
7.8436086e-08
2.2595576e-08
7.6094137e-08
2.1840147e-08
7.3804274e-08
2.1088297e-08
7.1572836e-08
2.0343913e-08
6.93997e-08
1.960661e-08
6.7284706e-08
1.8877915e-08
6.5227598e-08
1.8158341e-08
6.3228054e-08
1.7448663e-08
6.1285684e-08
1.6749575e-08
5.940003e-08
1.6061781e-08
5.7570576e-08
1.5385966e-08
5.5796741e-08
1.472279e-08
5.4077881e-08
1.4072883e-08
5.241329e-08
1.3436835e-08
5.0802197e-08
1.2815192e-08
4.924377e-08
1.2208452e-08
4.7737115e-08
1.1617061e-08
4.6281278e-08
1.1041407e-08
4.487525e-08
1.0481825e-08
4.3517962e-08
9.9385876e-09
4.2208296e-08
9.4119084e-09
4.0945081e-08
8.9019418e-09
3.9727096e-08
8.4087755e-09
3.8553072e-08
7.932438e-09
3.7421702e-08
7.4729059e-09
3.6331641e-08
7.0300939e-09
3.5281513e-08
6.6039073e-09
3.4269785e-08
6.1941157e-09
3.329476e-08
5.8002992e-09
3.2355122e-08
5.4224216e-09
3.1449294e-08
5.0599939e-09
3.0575687e-08
4.7127016e-09
2.973271e-08
4.380154e-09
2.8918805e-08
4.0619598e-09
3.757684e-09
1.2014673e-07
3.6085777e-08
1.1697157e-07
3.5270719e-08
1.138461e-07
3.4451522e-08
1.1077144e-07
3.3628464e-08
1.0774856e-07
3.2802017e-08
1.0477832e-07
3.1972759e-08
1.0186149e-07
3.1141462e-08
9.8998806e-08
3.0309009e-08
9.619114e-08
2.947617e-08
9.3439782e-08
2.8643014e-08
9.0746777e-08
2.7809306e-08
8.8114945e-08
2.6971587e-08
8.5542825e-08
2.6142928e-08
8.3026495e-08
2.5316406e-08
8.0569126e-08
2.4493219e-08
7.8170926e-08
2.3676206e-08
7.5825793e-08
2.2862989e-08
7.3540041e-08
2.2057623e-08
7.1313573e-08
2.1259878e-08
6.9146263e-08
2.04713e-08
6.703788e-08
1.9692492e-08
6.4988124e-08
1.8924285e-08
6.2996623e-08
1.8167442e-08
6.1062937e-08
1.7422732e-08
5.9186562e-08
1.66909e-08
5.7366928e-08
1.5972669e-08
5.5603399e-08
1.5268725e-08
5.3895272e-08
1.4579713e-08
5.2241779e-08
1.3906227e-08
5.0642086e-08
1.3248812e-08
4.9095296e-08
1.2607953e-08
4.7600451e-08
1.1984079e-08
4.6156531e-08
1.1377553e-08
4.476246e-08
1.0788676e-08
4.3417105e-08
1.0217685e-08
4.211928e-08
9.664749e-09
4.0867747e-08
9.1299673e-09
3.9661222e-08
8.6133734e-09
3.8498378e-08
8.1149442e-09
3.7377853e-08
7.6345864e-09
3.6298224e-08
7.1722015e-09
3.5257916e-08
6.7275702e-09
3.4255239e-08
6.3002244e-09
3.3288837e-08
5.8901322e-09
3.2357096e-08
5.49677e-09
3.1458397e-08
5.1197953e-09
3.0591114e-08
4.7587907e-09
2.9753652e-08
4.4133367e-09
4.0829684e-09
1.2317918e-07
3.8885405e-08
1.199416e-07
3.8012242e-08
1.1675359e-07
3.7134133e-08
1.1361638e-07
3.6251408e-08
1.1053107e-07
3.5364619e-08
1.0749859e-07
3.4474417e-08
1.045198e-07
3.3581662e-08
1.0159548e-07
3.2687369e-08
9.872647e-08
3.1792481e-08
9.5914066e-08
3.0897253e-08
9.3160571e-08
3.0001269e-08
9.0469684e-08
2.9099647e-08
8.7839137e-08
2.8208742e-08
8.5264832e-08
2.7319784e-08
8.2750142e-08
2.6433964e-08
8.0295384e-08
2.5554551e-08
7.7894647e-08
2.4679138e-08
7.5554188e-08
2.3811938e-08
7.3273945e-08
2.2952885e-08
7.1053827e-08
2.2103538e-08
6.8893632e-08
2.1264591e-08
6.6793088e-08
2.0436936e-08
6.4751845e-08
1.9621406e-08
6.2769485e-08
1.8818838e-08
6.084552e-08
1.8030045e-08
5.8979393e-08
1.725581e-08
5.717048e-08
1.6496879e-08
5.5418084e-08
1.5753952e-08
5.3721444e-08
1.5027677e-08
5.2079727e-08
1.4318644e-08
5.0492034e-08
1.3627382e-08
4.8957405e-08
1.2954358e-08
4.7474813e-08
1.2299969e-08
4.6043174e-08
1.1664545e-08
4.4661345e-08
1.1048345e-08
4.3328125e-08
1.0451556e-08
4.2042262e-08
9.8742899e-09
4.0802455e-08
9.3165847e-09
3.9607364e-08
8.7784182e-09
3.8455608e-08
8.2596873e-09
3.734572e-08
7.7602998e-09
3.6276074e-08
7.2800391e-09
3.5245001e-08
6.8184037e-09
3.4251097e-08
6.3753436e-09
3.3292717e-08
5.9503181e-09
3.2368209e-08
5.5429521e-09
3.1475912e-08
5.1528018e-09
3.0614199e-08
4.7794198e-09
4.4223108e-09
1.262497e-07
4.173148e-08
1.229512e-07
4.0800533e-08
1.19702e-07
3.986371e-08
1.1650344e-07
3.8921409e-08
1.1335671e-07
3.7974259e-08
1.1026289e-07
3.702299e-08
1.072229e-07
3.6068551e-08
1.0423757e-07
3.5112095e-08
1.0130773e-07
3.4154781e-08
9.8434579e-08
3.3197167e-08
9.5620689e-08
3.2238655e-08
9.2871122e-08
3.1272257e-08
9.0182299e-08
3.03188e-08
8.7549985e-08
2.9366874e-08
8.4977854e-08
2.8417702e-08
8.246636e-08
2.7475149e-08
8.0009805e-08
2.6536791e-08
7.761436e-08
2.5606989e-08
7.5280005e-08
2.4685842e-08
7.3006685e-08
2.3774911e-08
7.0794235e-08
2.2874987e-08
6.8642412e-08
2.1987026e-08
6.6550897e-08
2.1111938e-08
6.4519295e-08
2.0250628e-08
6.254714e-08
1.9403977e-08
6.0633892e-08
1.8572836e-08
5.877894e-08
1.7758012e-08
5.6981601e-08
1.6960263e-08
5.5241118e-08
1.6180288e-08
5.3556665e-08
1.5418728e-08
5.1927345e-08
1.4676158e-08
5.0352197e-08
1.3953083e-08
4.883019e-08
1.3249937e-08
4.7360233e-08
1.2567081e-08
4.5941175e-08
1.1904796e-08
4.4571804e-08
1.1263287e-08
4.3250852e-08
1.0642681e-08
4.1977006e-08
1.0043023e-08
4.0748911e-08
9.4642904e-09
3.9565179e-08
8.9063677e-09
3.842429e-08
8.3691809e-09
3.7324561e-08
7.852503e-09
3.626436e-08
7.3558199e-09
3.5242228e-08
6.8790424e-09
3.425649e-08
6.4216243e-09
3.3305462e-08
5.9831564e-09
3.2387451e-08
5.5631691e-09
3.1500794e-08
5.1611866e-09
4.7766838e-09
1.2935363e-07
4.4621517e-08
1.2599606e-07
4.3633329e-08
1.2268731e-07
4.2638201e-08
1.1942883e-07
4.1636618e-08
1.1622198e-07
4.0629282e-08
1.1306793e-07
3.9616999e-08
1.0996774e-07
3.8600811e-08
1.0692228e-07
3.7582009e-08
1.0393234e-07
3.6562006e-08
1.0099892e-07
3.5541829e-08
9.8124814e-08
3.4520785e-08
9.5317238e-08
3.3488764e-08
9.257045e-08
3.2472706e-08
8.9880212e-08
3.1457381e-08
8.7250657e-08
3.0444191e-08
8.4682391e-08
2.943784e-08
8.2169938e-08
2.8435883e-08
7.9719358e-08
2.7442807e-08
7.7330671e-08
2.6458865e-08
7.5003866e-08
2.5485618e-08
7.2738819e-08
2.4523957e-08
7.0535325e-08
2.3574905e-08
6.8393098e-08
2.2639451e-08
6.6311772e-08
2.1718576e-08
6.4290907e-08
2.0813232e-08
6.2329984e-08
1.9924339e-08
6.042841e-08
1.9052766e-08
5.8585515e-08
1.8199331e-08
5.6800555e-08
1.7364791e-08
5.5072711e-08
1.6549836e-08
5.3401092e-08
1.5755089e-08
5.1784737e-08
1.4981096e-08
5.0222616e-08
1.422833e-08
4.8713633e-08
1.3497182e-08
4.7256629e-08
1.278796e-08
4.5850384e-08
1.2100888e-08
4.4493618e-08
1.1436105e-08
4.3185e-08
1.0793669e-08
4.1923169e-08
1.0173558e-08
4.0706743e-08
9.575638e-09
3.9534139e-08
8.9998673e-09
3.8403594e-08
8.4459834e-09
3.731355e-08
7.913504e-09
3.6262478e-08
7.4022659e-09
3.5248675e-08
6.9117281e-09
3.4270428e-08
6.4414483e-09
3.3326011e-08
5.9909317e-09
3.2413725e-08
5.5596743e-09
5.1471217e-09
1.324858e-07
4.7552702e-08
1.2907128e-07
4.6508045e-08
1.257049e-07
4.545525e-08
1.2238825e-07
4.4394899e-08
1.1912281e-07
4.3327757e-08
1.1590993e-07
4.2254712e-08
1.1275077e-07
4.1176888e-08
1.0964631e-07
4.0095704e-08
1.0659726e-07
3.9012849e-08
1.0360429e-07
3.7930034e-08
1.0067015e-07
3.6846775e-08
9.7805668e-08
3.5748348e-08
9.5001358e-08
3.4669974e-08
9.2253393e-08
3.3590884e-08
8.9566588e-08
3.2513037e-08
8.6941674e-08
3.1442325e-08
8.4373396e-08
3.0376223e-08
8.1867668e-08
2.931931e-08
7.9424561e-08
2.8271972e-08
7.7044111e-08
2.7235769e-08
7.4726242e-08
2.6211693e-08
7.2470793e-08
2.5200844e-08
7.0277517e-08
2.4204295e-08
6.8146082e-08
2.3223103e-08
6.6076076e-08
2.2258298e-08
6.4067009e-08
2.1310867e-08
6.2118307e-08
2.0381748e-08
6.0229321e-08
1.947182e-08
5.8399319e-08
1.8581898e-08
5.6627494e-08
1.7712727e-08
5.4912964e-08
1.6864976e-08
5.3254772e-08
1.6039239e-08
5.1651891e-08
1.5236025e-08
5.0103221e-08
1.445576e-08
4.8607601e-08
1.3698778e-08
4.71638e-08
1.2965324e-08
4.5770531e-08
1.2255551e-08
4.4426445e-08
1.1569533e-08
4.3130169e-08
1.0907261e-08
4.1880366e-08
1.0268546e-08
4.0675368e-08
9.6534332e-09
3.9513294e-08
9.0615345e-09
3.8392714e-08
8.4925407e-09
3.7312008e-08
7.9461052e-09
3.6269452e-08
7.4217244e-09
3.5263301e-08
6.9189259e-09
3.4291798e-08
6.4371895e-09
3.3353211e-08
5.9759829e-09
5.5347233e-09
1.3564042e-07
5.0521864e-08
1.3217141e-07
4.9421762e-08
1.2874964e-07
4.831218e-08
1.2537685e-07
4.7193807e-08
1.2205466e-07
4.6067467e-08
1.187846e-07
4.4934125e-08
1.1556797e-07
4.379498e-08
1.1240588e-07
4.2651542e-08
1.0929902e-07
4.1505754e-08
1.0624754e-07
4.0360208e-08
1.0325336e-07
3.9215457e-08
1.0033373e-07
3.8050096e-08
9.7472387e-08
3.691008e-08
9.4666994e-08
3.5766815e-08
9.1923293e-08
3.4623664e-08
8.9242045e-08
3.3488144e-08
8.661818e-08
3.2357482e-08
8.4057448e-08
3.1236295e-08
8.1559974e-08
3.012507e-08
7.9125853e-08
2.9025372e-08
7.6755064e-08
2.79383e-08
7.4447498e-08
2.6865039e-08
7.2202949e-08
2.5806748e-08
7.0021126e-08
2.4764568e-08
6.7901653e-08
2.3739607e-08
6.5844068e-08
2.2732924e-08
6.3847825e-08
2.1745528e-08
6.1912294e-08
2.0778362e-08
6.0036764e-08
1.9832301e-08
5.8220444e-08
1.8908144e-08
5.6462462e-08
1.8006615e-08
5.4761869e-08
1.7128351e-08
5.3117641e-08
1.6273905e-08
5.1528682e-08
1.5443736e-08
4.9993826e-08
1.4638209e-08
4.8511839e-08
1.3857585e-08
4.7081424e-08
1.3102033e-08
4.5701223e-08
1.2371647e-08
4.4369856e-08
1.1666442e-08
4.3086004e-08
1.0986186e-08
4.1847915e-08
1.033097e-08
4.0653675e-08
9.7003272e-09
3.9501889e-08
9.0940631e-09
3.8390882e-08
8.5117052e-09
3.7318906e-08
7.9527668e-09
3.6284187e-08
7.4167491e-09
3.5284936e-08
6.9031066e-09
3.431939e-08
6.4112794e-09
5.940657e-09
1.4237563e-07
5.4668295e-08
1.3881101e-07
5.3525405e-08
1.3529036e-07
5.2371162e-08
1.3181578e-07
5.1205967e-08
1.2838919e-07
5.0030577e-08
1.2501239e-07
4.884589e-08
1.2168707e-07
4.7652954e-08
1.1841474e-07
4.6453029e-08
1.1519666e-07
4.524767e-08
1.120336e-07
4.4038932e-08
1.0892512e-07
4.2830293e-08
1.0587055e-07
4.1624857e-08
1.0289845e-07
4.0393563e-08
9.9980426e-08
3.9192519e-08
9.7118001e-08
3.7984399e-08
9.4318e-08
3.6775263e-08
9.1580944e-08
3.557466e-08
8.8901917e-08
3.437919e-08
8.6286489e-08
3.3193429e-08
8.3734858e-08
3.2017948e-08
8.1247188e-08
3.0854327e-08
7.8823523e-08
2.9703784e-08
7.6463808e-08
2.8567594e-08
7.4167891e-08
2.744701e-08
7.1935523e-08
2.6343261e-08
6.9766368e-08
2.5257534e-08
6.7659999e-08
2.4190966e-08
6.56159e-08
2.3144637e-08
6.3633469e-08
2.2119557e-08
6.1712017e-08
2.1116663e-08
5.9850771e-08
2.0136815e-08
5.8048875e-08
1.9180788e-08
5.6305391e-08
1.8249269e-08
5.4619303e-08
1.7342854e-08
5.2989517e-08
1.6462041e-08
5.1414867e-08
1.5607223e-08
4.9894118e-08
1.4778681e-08
4.8425971e-08
1.3976591e-08
4.7009057e-08
1.3201077e-08
4.5641992e-08
1.2452194e-08
4.4323468e-08
1.1729694e-08
4.3051643e-08
1.1033639e-08
4.1824624e-08
1.0363544e-08
4.0640998e-08
9.7192646e-09
3.9499052e-08
9.1002696e-09
3.8397016e-08
8.5060703e-09
3.733309e-08
7.9361424e-09
3.6305454e-08
7.3899155e-09
3.5312312e-08
6.8668017e-09
6.3661644e-09
1.4560196e-07
5.7752643e-08
1.4199054e-07
5.6559224e-08
1.3842143e-07
5.5352568e-08
1.3489696e-07
5.4133231e-08
1.3141925e-07
5.2902104e-08
1.2799029e-07
5.1660189e-08
1.2461195e-07
5.0408624e-08
1.2128593e-07
4.9148724e-08
1.1801372e-07
4.788203e-08
1.1479642e-07
4.6610407e-08
1.1163331e-07
4.5337534e-08
1.0851692e-07
4.4070856e-08
1.054967e-07
4.2780214e-08
1.0252183e-07
4.1516907e-08
9.9602887e-08
4.0242524e-08
9.6747493e-08
3.8966719e-08
9.3955405e-08
3.7701044e-08
9.1221839e-08
3.6440725e-08
8.8552201e-08
3.5190248e-08
8.5946789e-08
3.395027e-08
8.3405852e-08
3.2722422e-08
8.0929507e-08
3.1508045e-08
7.8517762e-08
3.030852e-08
7.6170519e-08
2.9125198e-08
7.3887581e-08
2.7959397e-08
7.1668656e-08
2.6812389e-08
6.9513356e-08
2.5685391e-08
6.7421202e-08
2.4579556e-08
6.5391621e-08
2.3495965e-08
6.3423953e-08
2.2435621e-08
6.1517446e-08
2.1399444e-08
5.9671265e-08
2.0388264e-08
5.7884486e-08
1.9402821e-08
5.6156103e-08
1.8443758e-08
5.4485029e-08
1.7511613e-08
5.2870096e-08
1.660681e-08
5.1310073e-08
1.5729648e-08
4.9803668e-08
1.48803e-08
4.8349506e-08
1.4058928e-08
4.6946191e-08
1.3265652e-08
4.5592422e-08
1.2500251e-08
4.4286269e-08
1.1762645e-08
4.3025893e-08
1.1052404e-08
4.180983e-08
1.0369392e-08
4.0636346e-08
9.7130626e-09
3.9503646e-08
9.082915e-09
3.8409905e-08
8.4783996e-09
3.7353273e-08
7.8989211e-09
3.6331925e-08
7.3438638e-09
6.8125653e-09
1.4882573e-07
6.0860786e-08
1.4517129e-07
5.9619043e-08
1.4155729e-07
5.8361942e-08
1.3798621e-07
5.7090229e-08
1.344604e-07
5.5804937e-08
1.3098205e-07
5.4507194e-08
1.2755321e-07
5.3198251e-08
1.2417579e-07
5.1879487e-08
1.208515e-07
5.055242e-08
1.1758169e-07
4.9218626e-08
1.143673e-07
4.7879014e-08
1.1118986e-07
4.6534633e-08
1.0812422e-07
4.5225415e-08
1.0509181e-07
4.3882543e-08
1.0211754e-07
4.253939e-08
9.9208114e-08
4.1196583e-08
9.6362039e-08
3.9866274e-08
9.3574756e-08
3.8541317e-08
9.0851579e-08
3.7226144e-08
8.8192942e-08
3.5921569e-08
8.5599193e-08
3.4629316e-08
8.3070531e-08
3.3350872e-08
8.0607033e-08
3.2087727e-08
7.8208661e-08
3.0841336e-08
7.5875274e-08
2.9613111e-08
7.3606629e-08
2.8404411e-08