/*--------------------------------*- C++ -*----------------------------------*\
| =========                 |                                                 |
| \\      /  F ield         | OpenFOAM: The Open Source CFD Toolbox           |
|  \\    /   O peration     | Version:  2312                                  |
|   \\  /    A nd           | Website:  www.openfoam.com                      |
|    \\/     M anipulation  |                                                 |
\*---------------------------------------------------------------------------*/
FoamFile
{
    version     2.0;
    format      ascii;
    arch        "LSB;label=32;scalar=64";
    class       volScalarField;
    location    "0.02";
    object      Qdot;
}
// * * * * * * * * * * * * * * * * * * * * * * * * * * * * * * * * * * * * * //

dimensions      [1 -1 -3 0 0 0 0];

internalField   nonuniform List<scalar> 
3250
(
28022405
28424742
28889005
29416566
30009802
30671774
31406201
32217422
33110365
34090479
35163581
36335495
37573191
38949904
40446562
42008436
43708893
45522994
47419908
49378620
51369681
53353749
55280643
57088919
58706253
60050937
61034767
61567520
61563040
60946688
59663572
57686642
55023437
51720159
47861954
43568707
38986474
34275452
29596162
25095866
20897069
17089220
13784535
10910091
8492432.6
6509972.1
4918984.4
3666812.4
2698907.5
28016019
28419177
28884195
29412346
30006097
30668529
31403359
32214928
33108162
34088505
35161770
36333780
37571487
38948120
40444617
42006230
43706335
45519946
47416218
49374155
51364306
53347330
55273062
57080083
58696104
60039470
61022039
61553666
61548278
60931319
59647973
57671246
55008706
51706546
47849867
43558464
38978277
34269368
29592120
25093685
20896506
17090022
13786344
10912645
8495215.9
6512820.5
4921624.2
3669267.1
2701267.1
28004865
28409534
28875948
29405305
30000135
30663541
31399244
32211585
33105483
34086373
35160056
36332356
37570202
38946833
40443127
42004346
43703956
45516689
47411768
49368220
51356568
53337468
55260764
57065071
58678162
60018468
60997973
61526681
61518698
60899654
59614914
57637643
54975512
51674756
47820437
43532210
38955810
34251039
29578000
25083600
20890167
17087151
13786172
10914144
8497895.5
6516172.4
4925187.1
3672853.8
2704821.4
27988850
28395725
28864167
29395333
29991799
30656687
31393727
32207255
33102183
34083931
35158282
36331056
37569158
38945856
40441891
42002566
43701531
45512978
47406301
49360540
51346181
53323861
55243437
57043565
58652100
59987606
60962244
61486252
61474000
60851413
59564146
57585620
54923691
51624667
47773559
43489870
38919026
34220441
29553791
25065600
20878035
17080657
13784018
10914581
8500446.8
6520019.8
4929662.6
3677555.6
2709529.5
27967975
28377746
28848849
29382421
29981075
30647952
31386791
32201922
33098245
34081161
35156431
36329862
37568336
38945171
40440895
42000872
43699043
45508783
47399791
49351093
51333120
53306487
55221057
57015539
58617895
59946859
60914832
61432355
61414164
60786577
59495647
57515145
54853191
51556224
47709188
43431391
38867862
34177503
29519413
25039586
20859975
17070546
13779819
10913893
8502789.8
6524299
4934993.1
3683326
2715349.9
27943721
28356868
28831077
29367478
29968714
30637945
31378913
32195948
33093931
34078240
35154611
36328837
37567770
38944801
40440184
41999360
43696643
45504369
47392675
49340524
51318292
53286562
55195204
56982984
58577989
59899148
60859144
61368878
61343514
60709842
59414388
57431346
54769154
51474408
47632015
43361040
38806051
34125356
29477368
25007420
20837196
17057698
13773892
10912132
8504736.4
6528683.6
4940773.7
3689734.7
2721862.7
27916731
28333632
28811297
29350862
29954990
30626860
31370221
32189395
33089247
34075127
35152743
36327868
37567324
38944597
40439612
41997898
43694207
45499679
47384964
49328948
51301940
53264488
55166466
56946706
58533429
59845785
60796771
61297691
61264191
60623590
59322947
57336935
54674354
51381984
47544716
43281282
38735808
34065920
29429254
24970355
20810519
17042922
13766609
10909514
8506352
6533136.8
4946898.1
3696639.8
2728917.5
27884877
28306204
28787949
29331257
29938815
30613817
31360020
32181738
33083815
34071566
35150666
36326867
37566951
38944529
40439123
41996361
43691526
45494330
47376040
49315442
51282767
53238519
55132578
56903850
58480714
59782584
60722824
61213221
61169988
60521075
59214174
57224532
54561379
51271722
47440412
43185860
38651612
33994509
29371263
24925413
20777506
17025450
13757326
10905766
8507703.4
6537958.9
4953806
3704555.5
2737059.8
27847750
28274225
28760715
29308387
29919947
30598608
31348134
32172829
33077510
34067453
35148291
36325752
37566574
38944521
40438632
41994650
43688479
45488169
47365703
49299749
51260449
53208250
55093042
56853814
58419133
59708716
60636361
61114411
61059749
60401058
59086772
57092807
54428901
51142326
47317890
43073644
38552455
33910252
29302674
24871995
20737068
17005939
13745724
10900730
8508716.4
6543134.3
4961520.4
3713529.8
2746355.9
27804899
28237293
28729243
29281940
29898113
30580995
31334355
32162489
33070179
34062654
35145498
36324410
37566083
38944463
40438020
41992627
43684902
45480994
47353702
49281559
51234598
53173209
55047286
56795919
58347890
59623267
60536345
61000115
60932227
60262211
58939357
56940351
54275518
50992437
47175870
42943454
38437279
33812238
29222743
24809560
20687399
16986019
13731139
10894221
8509303.8
6548641.6
4970062
3723611
2756872.3
27755832
28194972
28693140
29251566
29873001
30560701
31318442
32150505
33061636
34057003
35142132
36322692
37565331
38944206
40437128
42012595
43680585
45472553
47339732
49260499
51204765
53132852
54994663
56729405
58266104
59525231
60421652
60869093
60786082
60103115
58770456
56765670
54099751
50820623
47013002
42794049
38304981
33699512
29130698
24737804
20633742
16958478
13712242
10886012
8509361.7
6554449.9
4979446.6
3734844.8
2768674.2
27700015
28146779
28651973
29216873
29844262
30537414
31300113
32136627
33051657
34050298
35138004
36320411
37564131
38943560
40435752
42009179
43675266
45462539
47323426
49236129
51170424
53086557
54934443
56653421
58172799
59413505
60291053
60720002
60619872
59922253
58578505
56567186
53900040
50625382
46827872
42624134
38154401
33571072
29025711
24656132
20574311
16924213
13689118
10875822
8508771.9
6560518
4989682.4
3747272.4
2781824.2
27636865
28092187
28605260
29177426
29811499
30510776
31279046
32120563
33039976
34042294
35132879
36317333
37562248
38942285
40433636
42004752
43668621
45450577
47304346
49207936
51130971
53033614
54865800
56567016
58066895
59286879
60143212
60551391
60432052
59718005
58361844
56343229
53674744
50405137
46619000
42432354
37984332
33425866
28906892
24563788
20507905
16883519
13661812
10863454
8507412.9
6566793.9
5000768.1
3760928.4
2796380.8
27565747
28030616
28552470
29132739
29774269
30480379
31254868
32101972
33026281
34032701
35126476
36313169
37559390
38940084
40430463
41998962
43660255
45436216
47281973
49175317
51085705
52973213
54787801
56469131
57947197
59144024
59976673
60361693
60220959
59488645
58118709
56092039
53422141
50158239
46384842
42217296
37793511
33262792
28773286
24459903
20433689
16836359
13630274
10848737
8505156.4
6573212.1
5012690.7
3775838.7
2812396.8
27485967
27961433
28493015
29082268
29732069
30445761
31227150
32080455
33010202
34021173
35118455
36307566
37555200
38936590
40425844
41991384
43649689
45418919
47255694
49137569
51033820
52904431
54699395
56358577
57812380
58983481
59789855
60149214
59984814
59232334
57847239
55811763
53140425
49882964
46123789
41977491
37580628
33080702
28623869
24343473
20351140
16782496
13594344
10831479
8501857.2
6579689.6
5025422.1
3792017.6
2829916.5
27396767
27883943
28426245
29025409
29684339
30406396
31195401
32055551
32991308
34007302
35108415
36300097
37549243
38931360
40419307
41981507
43636349
45398047
47224789
49093874
50974386
52826214
54599397
56234031
57660981
58803652
59581032
59912126
59721708
58947114
57545460
55500452
52827709
49577520
45834172
41711418
37344324
32878402
28457558
24213252
20260164
16721508
13553740
10811445
8497342.4
6586120
5038914.7
3809464
2848973.5
27297316
27797376
28351440
28961489
29630444
30361688
31159054
32026725
32969091
33990612
35095887
36290241
37540996
38923861
40410285
41968716
43619554
45372843
47188413
49043285
50906338
52737366
54486471
56094014
57491379
58602781
59348332
59648457
59429600
58630906
57211293
55156065
52482024
49240045
45514263
41417503
37083194
32654666
28273239
24067460
20161525
16652636
13508051
10788339
8491399.5
6592366.9
5053096.5
3828157.8
2869586.3
27186708
27700877
28267804
28889758
29569675
30310963
31117465
31993355
32942959
33970546
35080325
36277366
37529831
38913458
40398100
41952279
43598494
45342421
47145582
48984704
50828451
52636527
54359112
55936875
57301782
58378946
59089717
59356080
59106304
58281504
56842549
54776465
52101325
48868614
45162282
41094128
36795793
32408242
28069883
23903028
20057977
16574225
13456787
10761793
8483768.2
6598256.6
5067865.7
3848054.5
2891754.6
27063987
27593490
28174459
28809384
29501238
30253457
31069897
31954727
32912222
33946460
35061116
36260702
37515006
38899401
40381945
41931331
43572218
45305739
47095151
48916865
50739327
52522153
54215631
55760778
57090210
58130041
58802977
59032710
58749493
57896574
56436928
54359427
51683492
48461243
44776399
40739631
36480640
32137868
27846965
23727654
19938253
16483733
13399275
10731361
8474133.3
6603571.9
5083084.2
3869080.1
2915454
26431189
26928276
27474244
28070450
28719447
29424246
30188309
31015508
31910012
32876070
33917599
35037584
36239297
37495655
38880810
40360866
41904847
43539609
45261586
47035794
48838316
50637370
52392501
54054130
55563676
56854483
57853764
58485716
58675889
58356684
57473652
55992023
53902637
51226339
48015895
44354747
40352322
36136219
31842201
27603308
23538303
19803061
16382238
13334716
10696529
8462123.6
6608046.1
5098571
3891124.3
2940629.3
26261951
26778335
27342064
27954731
28618930
29337709
30114553
30953345
31858260
32833550
33883070
35008989
36212001
37470804
38856671
40353318
41871632
43499367
45208558
46965984
48747387
50520764
52245601
53872487
55343300
56592199
57547605
58135344
58282984
57925243
57010143
55505321
53403702
50727618
47530492
43895425
39930482
35760989
31519818
27337339
23333646
19652216
16269798
13262505
10656756
8447311.8
6611357
5114095.3
3914033.5
2967187.9
26075636
26612930
27195778
27826157
28506714
29240527
30031104
30882331
31798384
32783544
33841764
34974315
36177628
37439444
38825844
40318393
41830281
43449984
45145032
46883965
48642177
50387450
52079235
53668329
55097136
56300719
57208830
57749068
57851181
57452381
56503327
54974212
52860156
50185037
47002926
43396517
39472382
35353391
31169231
27046861
23114182
19484564
16145926
13182013
10611451
8429208.9
6613119.6
5129368
3937603.9
2994992.6
25871093
26430759
27034119
27683483
28381565
29131481
29936750
30801254
31729148
32724738
33792294
34935819
36130448
37400408
38787009
40274537
41779154
43389719
45069145
46787729
48520521
50235102
51890916
53439018
54822409
55977156
56834473
57323883
57377484
56935155
55950363
54395998
52269474
49596264
46431071
42856098
38976288
34911870
30789008
26728012
22883961
19296871
16010081
13092518
10559952
8407252.8
6612877.2
5144033.2
3961573.3
3023857.2
25104859
25647306
26230524
26855741
27525354
28242133
29009223
29830145
30708755
31649171
32655649
33732481
34883780
36078011
37352873
38738669
40219891
41716351
43316575
44978766
46674987
48379965
50061101
51677864
53181625
54516064
55618362
56421328
56856571
56858713
56370477
55348300
53767904
51629089
48958954
45812804
42272258
38440483
34434890
30378312
26390693
22625754
19089625
15860782
12993110
10501504
8380798.4
6610091.1
5157657
3985613.8
3053557.9
24833569
25402662
26010796
26659196
27350308
28086945
28872270
29709790
30603324
31556917
32574726
33660889
34819217
36016003
37294978
38696594
40152210
41639695
43228280
44871472
46543146
48217743
49862510
51436985
52892916
54174753
55220912
55965941
56343702
56291515
55755123
54694092
53087098
50936407
48270762
45146021
41643117
37863283
33920862
29934803
26032535
22340716
18863370
15696951
12882829
10435265
8349109
6604131
5169716
4009319.8
3083889.8
24538339
25135646
25770065
26442939
27156769
27914398
28718992
29574034
30483279
31450675
32480240
33575901
34741175
35941581
37224589
38623169
40068788
41546788
43122278
44744515
46389276
48030748
49636054
51164850
52569334
53794827
54781106
55464615
55781636
55672369
55085748
53984615
52350717
50188840
47529373
44428667
40966847
37243069
33368315
29453964
25657034
22026409
18617781
15517610
12760672
10360303
8311349.4
6594264
5179581.6
4032167.8
24217910
24844763
25506755
26205335
26943047
27722755
28547612
29421055
30346757
31328538
32370249
33475588
34647810
35852116
37139066
38534345
39966662
41435208
42995747
44594811
46210090
47815512
49378100
50857682
52206989
53372325
54294966
54913413
55166543
54997613
54358914
53216703
51555892
49383831
46732534
43658761
40241698
36578307
32776706
28946942
25244944
21682166
18351364
15321593
12625541
10275592
8266577.3
6579645.3
5186504.7
4053352.1
23870931
24528497
25219235
25944660
26707343
27510148
28356197
29248860
30191700
31188388
32242571
33357703
34536771
35744772
37035155
38429842
39838513
41302445
42845456
44418879
46001916
47568185
49084640
50511344
51801654
52902980
53758245
54308174
54494416
54263461
53571115
52387174
50699790
48518897
45878088
42834432
39466009
35867394
32143915
28410969
24796548
21310452
18062752
15107661
12476248
10180002
8213736.8
6559310.6
5189631.7
4072261.7
23496028
24185316
24905829
25659118
26447754
27274577
28142657
29055273
30015852
31027879
32094772
33219704
34405366
35616509
36923759
38297781
39691311
41145643
42667587
44212818
45760679
47284523
48751284
50121335
51348768
52382228
53166445
53644538
53761109
53466052
52718829
51492882
49779659
47591671
44964025
41953963
38638261
35108701
31465682
27850784
24308103
20911557
17750884
14874565
12311532
10072300
8151655.3
6532168.9
5187961.9
4088022.3
23091871
23813695
24564837
25346851
26162281
27013916
27904748
28837936
29816743
30844437
31924160
33058771
34250621
35464210
36771340
38138182
39518236
40960147
42458055
43972326
45481895
46959882
48373259
49682800
50843447
51805229
52514844
52917984
52962381
52601488
51798561
50530770
48792883
46599960
43988527
41015848
37757171
34301190
30755593
27242703
23783063
20483594
17414446
14620991
12130056
9951157.6
8079045
6497001.8
5180369.8
4099611.3
22657206
23412141
24194549
25005957
25848845
26725925
27640077
28594313
29591701
30635250
31727786
32871797
34069264
35297820
36590143
37948236
39314253
40741145
42212326
43692680
45160671
46589223
47945421
49190545
50280518
51166905
51798546
52123883
52093949
51665910
50806919
49497936
47737050
45541806
42950030
40018852
36821874
33443306
30016006
26586536
23223305
20025472
17052190
14345604
11930427
9815160.5
7994508.8
6452466.4
5165599.3
4105871.4
22190900
22979233
23793284
24634515
25505309
26408262
27346114
28321695
29337844
30397277
31502442
32655392
33857708
35086169
36376336
37723964
39074533
40483683
41925421
43368743
44791713
46167128
47462281
48639074
49654556
50461992
51012539
51257568
51151574
50655568
49740690
48391716
46610026
44415554
41847272
38961970
35831832
32547387
29224157
25882983
22627867
19536161
16662921
14047074
11711214
9662823.1
7896553.2
6397104.1
5142264.1
4105510.6
21691977
22513655
23359416
24230615
25129499
26058511
27020209
28017214
29052100
30127251
31244680
32405889
33623645
34839265
36125671
37460683
38794036
40182551
41591976
42994989
44369354
45687836
46918048
48022645
48959955
49685116
50151782
50314423
50131148
49566926
48596941
47209781
45410047
43219940
40679385
37844440
34783004
31613922
28377721
25138584
21996075
19014752
16245518
13724097
11470975
9492614.6
7783610.7
6329358.9
5108861.8
4097110.8
21159663
22014241
22891418
23792399
24719247
25674208
26659624
27677864
28731213
29821696
30950820
32119368
33338671
34552701
35833645
37153050
38467445
39832263
41206290
42565545
43887602
45145302
46306697
47335344
48191014
48830892
49211309
49289997
49028816
48396775
47373130
45950240
44135820
41954187
39446021
36666838
33690605
30622899
27477630
24353068
21327447
18460490
15798971
13375439
11208296
9302996.1
7654072.5
6247605.9
5063799.7
4079148.1
20593432
21480023
22387910
23318101
24272426
25252887
26261562
27300535
28371774
29476932
30616988
31801591
33010295
34221766
35495982
36794630
38089289
39427078
40762366
42074251
43340212
44533277
45622068
46571198
47342055
47894052
48186365
48180146
47841111
47142372
46067245
44611773
42786645
40618119
38147290
35426307
32558024
29573119
26532016
23526487
20621758
17872841
15322441
12999991
10921845
9092469.4
7506335.5
6150195.5
5005433.2
4050026.7
19993058
20910282
21847713
22806106
23787009
24792128
25823228
26882059
27970246
29089089
30247957
31428341
32632554
33841421
35110695
36375663
37654531
38961001
40253960
41514743
42720790
43845425
44857987
45724309
46407573
46869597
47072571
46981192
46565123
45801599
44677945
43193763
41362535
39212315
36784855
34138315
31363576
28467318
25542094
22659406
19879150
17251561
14815330
12596835
10610437
8859642.5
7338863.8
6035510.1
4932120
4008127.7
19358667
20304608
21269906
22255012
23261134
24289627
25341887
26419278
27523030
28661846
29821158
31009039
32196082
33405037
34662168
35901081
37158138
38427670
39674677
40880580
42022929
43075478
44008438
44789034
45382420
45752996
45866110
45690119
45198683
44373141
43204736
41696457
39864377
37738125
35357109
32807693
30107103
27314146
24508995
21752760
19100171
16596783
14277364
12165331
10273119
8603309.3
7150266
5902038.6
4842289.8
3951874
18690789
19662960
20653899
21663699
22693174
23743272
24814959
25909147
27033264
28174756
29340021
30528781
31706302
32909690
34148919
35362080
36592521
37820955
39018179
40165416
41240391
42217423
43067759
43760191
44262025
44540400
44563957
44304788
43740568
42856680
41648143
40121115
38294053
36199109
33880046
31412995
28795944
26115492
23434516
20808042
18285886
15909107
13708691
11705210
9909259.1
8322542.8
6939387.3
5748465.6
4734529.6
3879811.2
17990417
18985731
19999500
21031411
22081831
23151240
24240118
25354514
26483632
27632621
28800876
29987164
31155708
32349643
33566265
34751731
35951054
37134656
38278319
39363199
40367325
41265739
42030889
42633316
43042645
43228902
43164122
42824181
42190735
41253110
40009917
38470163
36654044
34596823
32360541
29956266
27438823
24873651
22321331
19827468
17437993
15189705
13109978
11216677
9518657.3
8016802
6705414.6
5573774.4
4607683.4
3790701.8
17259053
18273811
19306997
20357845
21426222
22512093
23620087
24740958
25878602
27032182
28200355
29381186
30539082
31720226
32908117
34063974
35227865
36362988
37449409
38468425
39398534
40215665
40893649
41404944
41721653
41816813
41665926
41248652
40550555
39564753
38293228
36747425
34946995
32952483
30777976
28451208
26040741
23599383
21173951
18814190
16558939
14440425
12482521
10700522
9101655
7686044.8
6447990.2
5377358.8
4460960.7
3683630.1
16498758
17528654
18577234
19643239
20729472
21828695
22943409
24072792
25215716
26370583
27535246
28707172
29852104
31020119
32165643
33293979
34417938
35500880
36526512
37476434
38329774
39063521
39653060
40072932
40297855
40303969
40070280
39580191
38823052
37795571
36502905
34959171
33190463
31252630
29138605
26905519
24606119
22288265
19995798
17771992
15651961
13663886
11828343
10158227
8659247.6
7330842.9
6167327
5159137.9
4294049.5
3558110.8
15712196
16752340
17814117
18891179
19984415
21092620
22214513
23348621
24493111
25645579
26802842
27961128
29088602
30234630
31344074
32440321
33517189
34544238
35505762
36383746
37158103
37807051
38307692
38636797
38771809
38692036
38379976
37822688
37013132
35951378
34645396
33109531
31393880
29501024
27460706
25326368
23141753
20950236
18792349
16705589
14721158
12863546
11150290
9592061.6
8193187
6952487.2
5864315.7
4919663.1
4107221.2
3414192.1
14904229
15949424
17014607
18097448
19196083
20308674
21433293
22567803
23709707
24855885
26001968
27139754
28246367
29365351
30438233
31497168
32522539
33490252
34384713
35188430
35882254
36445795
36858024
37098064
37146163
36984816
36599958
35982161
35127771
34040004
32730192
31217600
29547910
27708625
25753161
23722052
21655475
19592672
17570131
15620689
13771557
12043775
10452095
9005165
7706063.6
6553073.4
5540612.3
4660206.9
3901419.8
3252542.4
14075365
15119463
16184520
17267656
18366386
19478222
20600561
21730607
22865285
24001276
25135484
26237712
27325026
28411764
29445540
30462058
31432463
32337783
33162725
33890486
34503017
34981468
35306808
35460608
35425963
35188524
34737561
34066966
33176140
32070877
30765793
29296699
27661905
25891186
24025874
22102011
20156135
18223494
16336563
14523980
12809142
11209883
9738417.4
8401583.4
7201353.1
6135553.3
5198693.3
4382819.8
3678319.7
3074508.8
13232077
14268832
15327670
16405170
17498224
18603677
19718235
20838382
21960327
23079995
24193064
25266086
26327798
27373529
28365929
29335155
30247439
31087772
31841355
32492236
33023614
33418313
33659402
33730955
33618913
33312011
32802694
32087930
31169729
30054717
28776936
27340581
25754157
24060168
22290071
20476926
18653721
16851867
15100010
13423112
11840853
10368112
9014838
7786267.9
6683417
5703739.1
4841863.9
4090342.8
3440341.7
2882136
12379558
13402506
14448740
15514335
16595574
17688646
18789550
19894024
20997469
22094928
23181124
24223485
25257154
26247876
27202654
28118916
28970284
29743604
30424724
30998677
31450038
31763412
31924039
31918514
31735571
31366904
30807935
30058463
29123269
28014135
26764223
25362468
23840023
22228869
20558375
18858675
17159301
15487945
13869585
12326626
10874522
9525577.6
8287789.4
7165010
6157442.5
5262249.7
4474209.9
3786365.4
3190616.4
2678134.9
11523541
12526185
13553286
14600508
15663563
16738008
17819166
18902046
19981234
21050794
22104332
23111304
24107365
25050033
25959441
26818199
27606415
28311422
28919825
29417768
29791310
30026912
30112018
30035713
29789429
29367643
28768497
27994157
27050416
25966375
24741543
23386770
21934954
20411834
18844481
17260121
15684945
14142946
12654562
11244005
9918800.6
8690137.6
7564420.5
6544307.2
5629314.8
4816389.9
4100485.7
3475121.7
2932889.7
2465796.8
10670207
11646235
12647714
13670056
14708474
15757954
16813203
17868596
18918044
19954577
20968609
21936644
22888245
23782483
24641702
25440543
26164130
26800367
27336744
27760624
28059635
28222133
28237754
28097999
27796850
27331357
26702127
25913773
24976323
23917627
22726158
21430414
20055153
18624366
17162763
15694759
14243543
12830354
11474265
10186629
8982995.3
7870144.3
6852368.6
5931152.3
5105418.6
4371963.3
3725937.9
3161326.2
2671370.3
2248853.7
8915446
9826828.8
10769724
11739211
12730295
13737725
14755967
15779197
16801329
17816132
18817706
19778598
20711488
21605873
22453686
23259104
23996467
24654788
25222718
25688752
26041565
26270399
26365511
26318668
26123668
25776855
25277570
24628421
23834910
22921844
21886920
20741235
19511056
18217329
16882138
15527793
14175950
12846830
11558570
10326690
9161481.7
8075623.3
7073935.7
6159434
5332753.3
4592377
3935025.3
3356073.2
2849956
2410527.9
2031292.5
8128566.3
8999943
9903983.7
10835571
11789388
12759784
13740766
14726009
15708878
16682494
17639860
18551986
19440551
20280235
21078502
21824644
22499555
23092811
23593844
23992224
24277983
24441989
24476357
24374889
24133512
23750705
23227850
22569576
21784724
20896851
19895546
18805492
17646540
16438252
15200763
13954007
12716980
11507078
10339517
9226760.8
8177772.1
7205652.2
6309831.3
5493315.2
4756226.1
4096747.9
3511594
2996385.4
2545996.8
2154857.5
1817138.2
7369779.2
8196476.5
9056648.7
9945066.9
10856184
11784039
12722265
13664102
14602397
15529591
16437759
17299431
18138330
18923045
19668005
20353652
20966100
21495444
21931963
22266346
22490001
22595391
22576408
22428744
22150255
21741268
21204744
20545991
19786042
18923080
17966444
16937886
15854498
14734252
13595287
12455231
11330597
10236265
9185095.1
8187738.5
7252885.3
6382980.5
5585850.1
4861254.3
4208249.6
3624697
3107342
2652067.3
2254174.1
1908631.3
1610226.5
6645072.1
7423296.4
8235438.6
9076234.1
9939997.5
10820560
11711292
12605134
13494577
14371422
15225619
16034911
16819628
17549329
18238562
18863801
19414804
19882365
20257689
20532619
20699919
20753584
20689158
20504048
20197805
19772357
19232245
18585296
17851482
17022586
16118704
15156378
14151541
13120545
12079563
11044035
10028176
9044573.1
8103887.2
7214650.6
6383092.4
5611538.2
4908097.7
4269465.1
3694694.7
3181675.6
2727297.9
2327733.2
1978696.8
1675663.5
1413989.8
5959929.7
6686934.4
7447898.5
8237603.2
9050316.8
9879763.1
10719176
11561391
12399014
13224798
14015006
14775907
15497867
16177894
16809079
17374813
17866291
18275092
18593383
18814147
18931453
18940724
18839006
18625207
18300291
17867357
17331404
16709945
16003064
15216968
14370453
13477474
12552624
11610594
10665659
9731210.6
8819372
7940689
7103921.9
6315938.2
5581718.4
4904558.6
4282890.9
3723396.1
3220453.9
2772169.5
2375595.6
2027184
1723041.7
1459113.6
1231278.2
5319217
5993375.8
6701141.1
7437408.5
8196480.6
8972055.7
9757288.3
10544878
11327193
12096377
12828332
13536256
14200093
14826431
15399514
15907529
16342292
16696175
16962294
17134737
17208792
17181179
17050263
16816232
16481233
16049517
15527956
14933344
14260104
13523317
12737404
11915332
11070344
10215516
9363329.7
8525300.6
7711675.1
6931205.2
6191011.4
5496531.3
4851550.3
4258298.7
3716927.6
3227284.1
2789111.7
2399461.3
2055279.6
1753236.3
1489799.3
1261347.3
1064236
4726969
5347834.7
6001585.7
6683290.5
7387360.1
8107550.1
8837018.3
9568401.1
10293910
11005434
11680460
12332901
12940996
13513107
14030020
14483083
14864771
15168260
15387595
15517899
15555571
15498476
15346099
15099649
14762053
14337733
13841017
13274914
12640968
11956376
11232527
10481257
9714447.8
8943626.4
8179618.1
7432246.3
6710102
6020384.9
5368820.4
4759647.4
4195670.4
3678356.3
3207955.4
2781628.8
2402368.4
2065442.1
1768195.7
1507635
1280597.7
1083870.2
914242.8
4186228.9
4754568.4
5354728.7
5982009.7
6631002.8
7295609.4
7969098.7
8644161.7
9312897.6
9966451.7
10587588
11179926
11738826
12256839
12720419
13122083
13454996
13713115
13891362
13985806
13993830
13914277
13747565
13495753
13162533
12753125
12282366
11747720
11158280
10527310
9865383.9
9183243.8
8491469.3
7800153.8
7118622.9
6455202.2
5817046.8
5210035
4638725.2
4106372.4
3614995.7
3165484.1
2757733.7
2390821
2061260.9
1770876.2
1515049.5
1291068.2
1096110.7
927335.88
781923.19
3699147.4
4216826.2
4764996.7
5339224.4
5934336
6544462.3
7163135.4
7783451.4
8398380.1
8989445.9
9560122.9
10099338
10608817
11075272
11489173
11843671
12132607
12350684
12493630
12558354
12543079
12447458
12272644
12021333
11697801
11308119
10865309
10365458
9821480.7
9243761.6
8641988.2
8025824
7404625.4
6787179.8
6181481.1
5594552.9
5032326.7
4499574.6
3999897.5
3535760.1
3108566.9
2718768.6
2365989.8
2049169.5
1766703.8
1515249.4
1295447.4
1103245.1
936135.88
791621.42
667217.59
3266910.6
3736775.7
4235645
4759348.6
5302970.6
5860889.6
6426866.9
6994178.3
7555840.2
8094396.8
8612675.3
9103199.7
9565333.5
9984144.9
10352704
10664776
10914851
11098320
11211631
11252415
11219596
11113459
10935680
10689271
10378398
10014066
9598960.2
9135377.4
8636075.8
8109631.2
7564783.9
7010147.9
6453951.5
5903816.2
5366575.7
4848142.9
4353424
3886282.6
3449547.9
3045062.9
2673763.2
2335780.7
2030560.7
1756987.1
1513506.4
1298229
1108090.2
943059.86
799729.88
675959.97
569504.17
2889555
3315446.5
3768725.5
4245514.5
4741184.6
5250392.8
5767136.3
6284765
6796112.8
7286227
7756727.5
8204242.8
8621203
8996876.3
9324921.8
9599634.7
9816093.3
9970305.8
10059340
10081433
10036071
9924034.4
9747398
9509476.4
9214708.8
8874121.3
8487157
8060299.2
7603722.1
7125312.5
6632966.5
6134353.9
5636704.4
5146626.8
4669967
4211708
3775914.3
3365716.2
2983333.2
2630128.7
2306689.2
2012921.6
1748160.1
1511276.6
1300787.8
1114955
951880.08
808836.72
685334.47
579124.42
487761.71
2566463
2952979.7
3365239.2
3799660.4
4251925
4717030.7
5189323.4
5662051.8
6126362.9
6573214
7001598.4
7409753.3
7786589.7
8124294.5
8417037.2
8659632.5
8847692.1
8977759.6
9047425.4
9055415.9
9001653.1
8887281.3
8714653.2
8487266.5
8209629.8
7892049.2
7532814.1
7140455
6723262.1
6288457.1
5843169.1
5394234.5
4948019.8
4510275
4086022.8
3679485.5
3294049.3
2932265.3
2595880.9
2285898.1
2002650.5
1745893.8
1514903.1
1308571.5
1125505.3
964113.26
822689.13
699485.33
592267.22
499787
420769.2
2296604.1
2648942
3025447
3422802.4
3836966
4263232
4696327.1
5130489.3
5551863.2
5962862.9
6354446.2
6727582.4
7069788.9
7375007.8
7637857.4
7853609.3
8018333.4
8129021.9
8183688
8181438.4
8122515.4
8008307.6
7841333.6
7625203.8
7364536.3
7068473.8
6735060.3
6373711.7
5991435.8
5594837.4
5190363.8
4784133.3
4381785.6
3988362
3608217.1
3244965.3
2901460.2
2579805.5
2281392.3
2006956.8
1756655.4
1530147.6
1326684.5
1145196.7
984378.4
842763.67
718794.17
610874.17
517410.17
436583.59
367139.61
2078891.1
2402742.1
2749346.2
3115609
3497720
3891210.5
4291056.2
4691800.6
5080627.1
5458281.9
5821211
6164089.9
6477551.1
6756037.3
6994525.5
7188663.8
7334897.4
7430577.9
7474047.6
7464695.4
7402981.6
7290426.8
7129577.1
6924076
6679841.5
6402507.7
6091647
5756817.2
5404105.6
5039559.8
4669042.7
4298077.8
3931716.8
3574437.2
3230070.2
2901760.8
2591957.3
2302429
2034305.5
1788134.7
1563952.9
1361362.6
1179612.7
1017677.8
874332.43
748218.69
637904.78
541933.76
458862.53
387292.16
325763.38
1912652.7
2214166.6
2537265.8
2879034.8
3235847.8
3603419.8
3976917.3
4351131
4714156.7
5066456.8
5406106.6
5725219.9
6016300.6
6274085.6
6493852.4
6671551
6803920.1
6888584.7
6924130
6910146.7
6847243.9
6737027.4
6582041.3
6385677.6
6155398.4
5892763.9
5600618.8
5287113.3
4957912.5
4618634.8
4274694.5
3931160.1
3592637.9
3263182.4
2946236.4
2644600.4
2360429.8
2095255.1
1850023.7
1625155.6
1420610.4
1235959.8
1070461.9
923133.48
792817.45
678243.81
578082.4
490987.12
415631.83
350737.3
295081.89
1798296.3
2084127.1
2390696.9
2715223.6
3054214.9
3403499.9
3758338.1
4113692.1
4458480
4793027.9
5116083.9
5418590.2
5694071.5
5937483.3
6144327
6310771.3
6433761.6
6511110.8