/*--------------------------------*- C++ -*----------------------------------*\
| =========                 |                                                 |
| \\      /  F ield         | OpenFOAM: The Open Source CFD Toolbox           |
|  \\    /   O peration     | Version:  2312                                  |
|   \\  /    A nd           | Website:  www.openfoam.com                      |
|    \\/     M anipulation  |                                                 |
\*---------------------------------------------------------------------------*/
FoamFile
{
    version     2.0;
    format      ascii;
    arch        "LSB;label=32;scalar=64";
    class       volScalarField;
    location    "0.05";
    object      alphat;
}
// * * * * * * * * * * * * * * * * * * * * * * * * * * * * * * * * * * * * * //

dimensions      [1 -1 -1 0 0 0 0];

internalField   nonuniform List<scalar> 
3275
(
0.0048151096
0.0053189014
0.0059360296
0.0065971922
0.0072904868
0.0080097425
0.0087716049
0.0095803167
0.010434265
0.01132309
0.012231941
0.01306636
0.013923981
0.014740276
0.01548848
0.016148457
0.016699813
0.017155272
0.017533558
0.01785079
0.018120038
0.018343152
0.018531116
0.018689608
0.018823222
0.018935709
0.019030152
0.019109109
0.019174717
0.019228772
0.019272796
0.019308084
0.019335746
0.019356739
0.019371892
0.019381926
0.019387471
0.019389081
0.019387244
0.019382391
0.019374906
0.019365131
0.01935337
0.0193399
0.019324975
0.019308811
0.019291612
0.019273559
0.01925482
0.019235549
0.019215884
0.019195947
0.0048701431
0.0054319907
0.0060410663
0.0066878662
0.0073672119
0.0080716618
0.0088234237
0.0096240631
0.010471783
0.011355282
0.012259367
0.013090678
0.013944402
0.014757268
0.01550251
0.016159935
0.016709158
0.017162806
0.017539602
0.017855609
0.018123874
0.018346199
0.018533527
0.018691505
0.018824702
0.01893685
0.019031017
0.019109749
0.019175173
0.019229078
0.019272979
0.019308167
0.019335748
0.019356675
0.019371776
0.019381768
0.019387281
0.019388867
0.019387012
0.019382147
0.019374655
0.019364876
0.019353116
0.01933965
0.019324731
0.019308575
0.019291385
0.019273344
0.019254619
0.019235362
0.019215714
0.019195797
0.0050210496
0.0056735935
0.0062577016
0.0068722564
0.0075224056
0.0081952473
0.0089260031
0.0097112291
0.01054662
0.011419469
0.012314029
0.013139219
0.013985016
0.014791077
0.015530421
0.016182756
0.01672772
0.017177764
0.017551596
0.017865168
0.018131484
0.018352243
0.018538307
0.018695263
0.018827632
0.018939106
0.019032725
0.019111009
0.019176067
0.019229672
0.019273329
0.019308317
0.019335736
0.019356533
0.019371529
0.019381439
0.019386887
0.019388424
0.019386534
0.019381645
0.019374138
0.019364353
0.019352595
0.019339137
0.019324228
0.019308088
0.019290919
0.019272901
0.019254202
0.019234975
0.019215361
0.019195479
0.0053606415
0.0060878303
0.0065919633
0.0071513757
0.0077564803
0.0083775112
0.0090779082
0.0098407756
0.01065792
0.011514915
0.012395301
0.01321164
0.014045296
0.014841302
0.015571885
0.016216643
0.016755244
0.01719993
0.017569366
0.017879328
0.018142757
0.018361196
0.018545388
0.018700829
0.018831969
0.018942444
0.019035248
0.019112867
0.019177381
0.019230542
0.019273835
0.019308527
0.019335705
0.019356308
0.019371148
0.019380935
0.019386288
0.019387753
0.01938581
0.019380885
0.019373357
0.019363564
0.019351807
0.01933836
0.01932347
0.019307355
0.019290215
0.019272233
0.019253574
0.019234391
0.019214825
0.019194995
0.0061467256
0.0067103743
0.0070853629
0.0075270712
0.0080493064
0.0086337397
0.0092815656
0.010011136
0.010804492
0.011640599
0.012502251
0.013307494
0.014124525
0.014907384
0.015626438
0.016261193
0.016791361
0.017228991
0.017592658
0.017897881
0.018157534
0.018372933
0.01855467
0.018708124
0.018837652
0.018946815
0.019038548
0.019115293
0.019179092
0.019231668
0.019274482
0.019308784
0.019335646
0.019355993
0.019370628
0.019380253
0.019385481
0.01938685
0.019384839
0.019379867
0.019372312
0.019362507
0.019350754
0.019337322
0.019322456
0.019306375
0.019289276
0.019271342
0.019252736
0.019233612
0.01921411
0.019194347
0.0081186248
0.0076128225
0.0076785977
0.0079662931
0.0083802233
0.00890728
0.0095274002
0.010210119
0.010974258
0.011786159
0.012625865
0.013419326
0.014216206
0.014983897
0.015689596
0.016312725
0.016833042
0.017262495
0.017619504
0.01791926
0.018174569
0.018386464
0.018565372
0.018716534
0.018844201
0.018951848
0.019042345
0.019118078
0.019181049
0.019232947
0.019275208
0.019309058
0.019335552
0.019355603
0.019370001
0.019379438
0.01938452
0.019385781
0.01938369
0.019378665
0.019371078
0.019361262
0.019349513
0.019336099
0.019321263
0.019305221
0.019288172
0.019270294
0.019251751
0.019232696
0.019213268
0.019193584
0.010636243
0.0086433651
0.0083233339
0.0084368903
0.0087578223
0.0092156186
0.0097900132
0.010436842
0.011161442
0.011946772
0.012761575
0.013543662
0.014317353
0.015068196
0.015759153
0.016369413
0.016878779
0.01729922
0.017648922
0.017942678
0.018193237
0.018401295
0.018577102
0.018725752
0.018851376
0.018957359
0.019046496
0.019121117
0.019183177
0.01923433
0.01927598
0.019309332
0.019335422
0.019355146
0.019369283
0.019378514
0.019383436
0.019384576
0.019382398
0.019377316
0.019369696
0.019359867
0.019348123
0.01933473
0.019319928
0.019303932
0.019286938
0.019269124
0.019250652
0.019231674
0.019212329
0.019192733
0.013489817
0.0099148108
0.0091071231
0.0089986516
0.0091981226
0.0095779879
0.010088688
0.010699659
0.011384623
0.012133617
0.012917796
0.013689594
0.014435503
0.015166072
0.015839891
0.016435126
0.016931649
0.01734162
0.017682876
0.017969697
0.018214786
0.018418416
0.018590645
0.018736392
0.018859655
0.018963711
0.019051274
0.019124605
0.019185609
0.019235896
0.019276838
0.019309612
0.019335232
0.019354576
0.01936841
0.019377402
0.019382139
0.01938314
0.019380862
0.019375713
0.019368055
0.019358213
0.019346477
0.019333111
0.01931835
0.019302408
0.01928548
0.019267742
0.019249356
0.019230469
0.019211223
0.019191729
0.016213506
0.011344093
0.010000029
0.0096412612
0.0096983629
0.0099878009
0.010433059
0.010992387
0.01164167
0.012349565
0.013099197
0.013850772
0.014572726
0.015277474
0.015931868
0.01650986
0.016991589
0.017389625
0.017721305
0.01800027
0.018239178
0.0184378
0.018605978
0.018748437
0.018869022
0.01897089
0.019056663
0.019128528
0.019188329
0.01923763
0.019277765
0.01930988
0.019334964
0.019353876
0.019367363
0.019376083
0.01938061
0.019381453
0.019379062
0.019373839
0.01936614
0.019356284
0.019344559
0.019331224
0.019316513
0.019300636
0.019283786
0.019266138
0.019247851
0.019229073
0.019209941
0.019190568
0.018533195
0.012855054
0.010985988
0.010357372
0.010257623
0.010445178
0.01081882
0.011322095
0.011924248
0.01259657
0.013305303
0.014028447
0.014728003
0.015402873
0.016035013
0.016593466
0.017058415
0.017443068
0.017764076
0.018034288
0.018266326
0.018459378
0.01862305
0.018761845
0.018879439
0.018978864
0.019062635
0.019132858
0.019191312
0.019239507
0.019278737
0.019310112
0.019334594
0.019353021
0.019366121
0.019374535
0.019378827
0.019379494
0.019376979
0.019371674
0.019363931
0.019354062
0.019342353
0.019329056
0.019314404
0.019298603
0.019281844
0.0192643
0.019246129
0.019227475
0.019208476
0.019189243
0.020388985
0.014364279
0.012040667
0.011138852
0.010872375
0.010949519
0.01124355
0.011687218
0.012237423
0.012865417
0.013539139
0.014222238
0.014898584
0.015544878
0.016149017
0.016685615
0.017131809
0.01750168
0.017810971
0.018071591
0.018296088
0.018483045
0.018641776
0.018776545
0.018890852
0.018987585
0.019069149
0.01913756
0.019194525
0.019241497
0.019279725
0.019310281
0.019334098
0.019351987
0.019364659
0.019372736
0.019376769
0.019377243
0.019374592
0.019369199
0.019361409
0.019351531
0.019339841
0.019326591
0.019312008
0.019296296
0.019279643
0.01926222
0.019244181
0.019225671
0.019206824
0.01918775
0.021830301
0.01580422
0.01313407
0.011973876
0.011537138
0.011497796
0.011706622
0.012084145
0.012581004
0.013159484
0.013792032
0.014438769
0.015080514
0.015701212
0.016274626
0.016785767
0.017211316
0.017565089
0.017861692
0.018111972
0.018328259
0.018508653
0.01866204
0.018792444
0.01890318
0.018996987
0.019076148
0.019142583
0.019197923
0.019243561
0.019280693
0.019310355
0.019333444
0.019350747
0.01936295
0.01937066
0.019374411
0.019374677
0.01937188
0.019366394
0.019358558
0.019348672
0.019337009
0.019323815
0.019309313
0.019293704
0.019277172
0.019259887
0.019242
0.019223653
0.019204979
0.019186087
0.022939884
0.017132861
0.01423495
0.012847422
0.012244328
0.012085631
0.012205097
0.012512112
0.012950499
0.013478789
0.014063445
0.014673297
0.0152798
0.015865775
0.016412429
0.016893404
0.017296329
0.017632816
0.017915848
0.018155196
0.018362554
0.01853602
0.018683692
0.01880942
0.018916324
0.019006986
0.01908356
0.019147867
0.019201456
0.019245652
0.019281601
0.019310295
0.019332599
0.019349268
0.019360966
0.019368281
0.01937173
0.019371773
0.019368821
0.01936324
0.019355358
0.019345469
0.019333841
0.019320714
0.019306306
0.019290816
0.019274423
0.019257295
0.01923958
0.019221418
0.01920294
0.019184252
0.02379757
0.018331067
0.015315157
0.013742466
0.012984381
0.012707228
0.012735053
0.012968364
0.013344706
0.013819267
0.014355539
0.014921818
0.015492635
0.016043234
0.016555585
0.017009863
0.01738604
0.017704283
0.017972993
0.018200907
0.018398671
0.01856494
0.018706555
0.018827323
0.01893016
0.019017479
0.019091302
0.01915334
0.019205059
0.019247716
0.019282401
0.019310061
0.019331524
0.019347515
0.019358675
0.019365569
0.019368698
0.019368507
0.019365395
0.019359717
0.019351791
0.019341907
0.019330324
0.019317276
0.019302978
0.019287623
0.019271389
0.019254438
0.019236917
0.019218964
0.019200705
0.019182245
0.024467924
0.019395406
0.016352039
0.014641503
0.013746186
0.013355432
0.013291534
0.013449235
0.013761077
0.014178922
0.014664746
0.015185611
0.015715085
0.016230323
0.016707605
0.017128413
0.017482191
0.017778835
0.018032629
0.018248668
0.018436305
0.018595163
0.018730419
0.018845982
0.018944545
0.019028349
0.019099273
0.019158919
0.019208662
0.019249692
0.019283039
0.019309604
0.019330178
0.019345454
0.019356046
0.019362497
0.01936529
0.019364857
0.01936158
0.019355806
0.019347843
0.019337972
0.019326445
0.019313491
0.01929932
0.01928412
0.019268065
0.019251314
0.019234012
0.019216291
0.019198278
0.019180072
0.024998926
0.020331106
0.017329235
0.015527959
0.014517728
0.014021937
0.013868588
0.013950236
0.014196049
0.014555252
0.014988191
0.015461759
0.01594786
0.016423025
0.016865472
0.017252191
0.017578867
0.017858103
0.018094199
0.018298024
0.018475132
0.018626388
0.018755047
0.018865203
0.01895932
0.019039462
0.019107363
0.019164509
0.019212187
0.019251512
0.019283457
0.019308876
0.019328518
0.019343045
0.019353043
0.019359033
0.01936148
0.019360798
0.019357357
0.01935149
0.019343497
0.01933365
0.019322194
0.019309351
0.019295326
0.019280301
0.019264449
0.019247922
0.019230865
0.019213405
0.019195664
0.019177739
0.02542439
0.021146861
0.018235858
0.016387189
0.015286804
0.01469761
0.014459384
0.014466095
0.014645385
0.014944718
0.015323208
0.01574717
0.016188238
0.016621527
0.0170252
0.017378609
0.017678835
0.017936951
0.018159199
0.018348498
0.01851481
0.018658299
0.018780186
0.018884775
0.018974311
0.019050675
0.019115454
0.019170011
0.019215549
0.019253105
0.019283595
0.019307822
0.019326498
0.019340249
0.019349634
0.019355151
0.019357244
0.019356311
0.019352708
0.019346756
0.019338743
0.019328934
0.019317565
0.019304853
0.019290994
0.019276169
0.019260543
0.019244268
0.019227483
0.019210313
0.019192875
0.019175259
0.025767242
0.021851183
0.019065301
0.017207002
0.016041689
0.015372889
0.015056406
0.01499084
0.015104208
0.015343207
0.01566621
0.016039098
0.016433057
0.016823069
0.017186417
0.017504533
0.017779492
0.018018293
0.01822308
0.018401461
0.018555009
0.018690559
0.018805575
0.01890448
0.018989334
0.019061838
0.019123422
0.019175321
0.01921866
0.019254397
0.01928339
0.019306392
0.019324074
0.01933703
0.019345788
0.019350822
0.019352559
0.019351378
0.019347619
0.019341591
0.019333573
0.019323817
0.019312555
0.019299994
0.019286326
0.019271725
0.019256354
0.019240359
0.019223877
0.01920703
0.019189926
0.01917265
0.026049777
0.02246426
0.019814236
0.01797779
0.016771667
0.016038195
0.015651693
0.01551793
0.015567067
0.015746068
0.016013128
0.016333955
0.016679476
0.017024436
0.017345843
0.0176304
0.017879816
0.018098335
0.018288592
0.018452896
0.01859713
0.018722791
0.018830962
0.018924097
0.019004206
0.0190728
0.019131144
0.019180333
0.019221436
0.019255315
0.019282781
0.019304533
0.019321204
0.019333352
0.019341475
0.019346024
0.019347407
0.019345984
0.019342079
0.019335989
0.019327982
0.0193183
0.019307166
0.019294782
0.019281331
0.019266982
0.019251894
0.019236209
0.019220065
0.019203574
0.01918684
0.019169939
0.026286847
0.023001341
0.020489187
0.018692553
0.017467332
0.016684306
0.016237115
0.016040425
0.016028045
0.016148178
0.016359442
0.016627731
0.016923902
0.017222744
0.017502215
0.017754737
0.017979351
0.018177836
0.018352418
0.018505268
0.018637863
0.018755839
0.018856364
0.018943409
0.019018748
0.01908342
0.019138512
0.019184947
0.019223798
0.019255791
0.019281714
0.0193022
0.01931785
0.019329187
0.019336672
0.019340739
0.019341775
0.019340121
0.019336086
0.019329951
0.019321974
0.019312389
0.019301409
0.019289228
0.019276023
0.019261955
0.019247182
0.01923184
0.019216068
0.019199972
0.019183646
0.026488725
0.023474703
0.021099842
0.019348084
0.01812069
0.017302661
0.016804642
0.01655119
0.016480898
0.016544029
0.016700235
0.016916029
0.017162347
0.017414155
0.017654632
0.01787651
0.018077149
0.018256498
0.018415421
0.018555805
0.018679178
0.018787189
0.018882136
0.018962771
0.019032797
0.019093571
0.019145436
0.019189067
0.019225683
0.019255765
0.019280144
0.019299354
0.019313983
0.019324514
0.019331365
0.019334957
0.01933566
0.019333791
0.019329643
0.019323484
0.019315561
0.019306097
0.019295299
0.019283353
0.019270425
0.01925667
0.019242246
0.019227278
0.01921192
0.019196261
0.019180379
0.026662761
0.023894289
0.021654122
0.019952514
0.018726039
0.01788546
0.01734662
0.01704311
0.01691923
0.016927862
0.017030275
0.017194153
0.017390528
0.01759812
0.017802452
0.017995321
0.018172783
0.018333515
0.018477554
0.018605394
0.018718742
0.018818593
0.01890639
0.018981466
0.019047508
0.019103154
0.01915188
0.019192595
0.019227059
0.019255185
0.019278045
0.01929597
0.019309587
0.019319327
0.019325549
0.019328679
0.019329067
0.019327006
0.019322767
0.019316607
0.019308764
0.019299451
0.019288866
0.019277187
0.019264571
0.01925116
0.019237125
0.01922256
0.019207661
0.019192486
0.019177098
0.02681436
0.024268196
0.022158689
0.020511887
0.019290932
0.018429281
0.017856061
0.017509331
0.017336713
0.017293828
0.017344112
0.017457225
0.017607347
0.017774755
0.017945533
0.018110965
0.018266176
0.018408837
0.01853812
0.018654174
0.018757349
0.018848749
0.018929567
0.019000288
0.019060565
0.019112785
0.019158246
0.019195395
0.019227965
0.019253998
0.019275421
0.019292034
0.019304662
0.01931364
0.019319235
0.019321919
0.019322018
0.01931979
0.019315486
0.019309353
0.019301618
0.019292486
0.019282148
0.019270773
0.01925851
0.019245468
0.019231872
0.019217726
0.019203345
0.019188704
0.019173369
0.026947585
0.024603051
0.022619232
0.021030947
0.019820754
0.018941277
0.018334975
0.017946577
0.017727681
0.017636781
0.017639219
0.017706328
0.017814345
0.017944789
0.018084208
0.0182236
0.018357417
0.018482545
0.01859745
0.018701593
0.018795239
0.018878364
0.018951901
0.019017421
0.019073714
0.019121756
0.019163175
0.019198374
0.019228618
0.019252103
0.019272347
0.019287541
0.019299228
0.019307502
0.019312449
0.019314708
0.019314554
0.019312189
0.019307846
0.019301768
0.019294172
0.019285256
0.019275199
0.01926417
0.019252307
0.019239647
0.019226569
0.019212815
0.019199039
0.01918446
0.027065549
0.024904299
0.023040656
0.021513595
0.020319464
0.019426536
0.018789809
0.018361936
0.018098853
0.017962471
0.017920097
0.017944549
0.018013512
0.018109443
0.018219247
0.018333743
0.018446878
0.018554915
0.018655716
0.018748221
0.018832109
0.01890726
0.018974079
0.019033494
0.019085576
0.01912998
0.019168486
0.019200576
0.019228101
0.019250381
0.01926907
0.01928246
0.019293336
0.019301018
0.019305226
0.019307098
0.019306741
0.019304272
0.019299917
0.019293921
0.019286498
0.01927783
0.019268092
0.019257451
0.019246063
0.019233736
0.019221348
0.019207843
0.01919431
0.019180692
0.027170674
0.025176436
0.023427201
0.021963135
0.020790067
0.019888685
0.019225216
0.018760477
0.018455691
0.018275879
0.018190914
0.018175055
0.018207129
0.018270314
0.018351789
0.018442239
0.018535217
0.018626468
0.018713335
0.018794273
0.018868504
0.018935658
0.018995768
0.019049258
0.019096959
0.019137618
0.019172741
0.019202458
0.019227825
0.019247997
0.019264819
0.019277529
0.019287234
0.019294413
0.019297584
0.019299162
0.019298681
0.019296141
0.019291791
0.019285905
0.019278687
0.019270303
0.019260915
0.0192507
0.019239943
0.019227717
0.019215736
0.019203118
0.019190232
0.019177194
0.027264865
0.025423184
0.023782538
0.022382422
0.021234926
0.020330312
0.019644496
0.019146176
0.018802238
0.018581192
0.018455411
0.018400931
0.018397618
0.018429265
0.018483274
0.01855023
0.018623357
0.018697969
0.018770944
0.018840301
0.018904864
0.018963974
0.019017377
0.019065055
0.019107828
0.019145085
0.019176817
0.019203935
0.019226818
0.019245501
0.019260896
0.019272257
0.019280743
0.019287139
0.019290159
0.019291257
0.019290534
0.019287933
0.019283589
0.019277837
0.019270861
0.019262793
0.019253782
0.01924398
0.01923352
0.019222172
0.019210615
0.01919865
0.019186438
0.019174067
0.027349641
0.025647639
0.024109841
0.022773951
0.021655942
0.020753267
0.020049926
0.019521868
0.01914164
0.018881764
0.018716844
0.018625063
0.018587419
0.01858831
0.018615364
0.018659097
0.018712466
0.018770409
0.018829395
0.018887046
0.018941817
0.018992757
0.019039345
0.019081367
0.0191189
0.019152242
0.019181074
0.019205414
0.019225877
0.019242847
0.019256518
0.019266923
0.019274621
0.019280188
0.019282594
0.019283286
0.01928245
0.019279836
0.01927546
0.019269866
0.019263175
0.019255455
0.019246851
0.019237498
0.019227499
0.019216856
0.019205879
0.019194583
0.019183084
0.01917146
0.027426227
0.025852386
0.024411854
0.023139913
0.022054692
0.021158877
0.020443022
0.019889495
0.019476256
0.019179931
0.018977965
0.018850051
0.01877888
0.018749517
0.018749861
0.018770409
0.018803912
0.018844989
0.018889746
0.018935436
0.018980178
0.019022724
0.019062295
0.019098453
0.01913101
0.019159855
0.019185629
0.019207137
0.019225395
0.019240484
0.019252484
0.019261797
0.019268572
0.019273174
0.019275372
0.019275781
0.019274666
0.019272121
0.019267564
0.019262173
0.019255829
0.019248485
0.019240315
0.01923145
0.01922199
0.019212009
0.019201681
0.019191088
0.019180338
0.019169583
0.027495622
0.026039591
0.024690951
0.023482235
0.022432499
0.021548092
0.020824733
0.020250288
0.019807708
0.019477663
0.019240599
0.019078128
0.018974169
0.018914913
0.018888623
0.018885857
0.018899226
0.018923089
0.018953235
0.018986585
0.01902094
0.019054765
0.019087027
0.019117061
0.019144469
0.019168991
0.019190854
0.019209835
0.019225539
0.019238761
0.019249203
0.019257279
0.019263033
0.019266826
0.019268627
0.01926872
0.019267361
0.019264627
0.019260403
0.019255196
0.019249087
0.019242118
0.019234403
0.019226058
0.019217181
0.019207862
0.019198224
0.01918836
0.019178362
0.019168289
0.027558649
0.026211079
0.02494918
0.023802612
0.022790492
0.021921597
0.021195594
0.020604923
0.020136986
0.019776301
0.019506344
0.01931094
0.019175194
0.019086403
0.019033493
0.019007186
0.019000041
0.019006225
0.01902126
0.019041773
0.019065269
0.019089941
0.019114505
0.019138077
0.019160064
0.019180081
0.019197939
0.019213786
0.019227211
0.019238205
0.019246886
0.019253739
0.019258486
0.019261487
0.019262776
0.019262488
0.019260906
0.019258089
0.019254031
0.019249041
0.019243215
0.019236633
0.019229387
0.019221585
0.019213317
0.019204673
0.019195753
0.019186645
0.019177429
0.019168151
0.027615995
0.026368402
0.025188317
0.024102537
0.023129642
0.022279882
0.021555838
0.020953644
0.020464557
0.020076637
0.019776316
0.019549696
0.019383502
0.019265688
0.019186214
0.019136127
0.019108038
0.019096003
0.019095338
0.019102419
0.019114485
0.019129471
0.019145855
0.019162535
0.019178732
0.019193905
0.019207709
0.019219913
0.019230744
0.019239565
0.019246473
0.019251749
0.019255275
0.019257531
0.019258213
0.019257615
0.019255714
0.01925285
0.01924885
0.019244081
0.019238549
0.019232362
0.019225589
0.019218341
0.019210699
0.019202741
0.019194556
0.019186226
0.019177823
0.019169391
0.027668241
0.026512882
0.025409908
0.024383329
0.023450795
0.022623299
0.021905482
0.021296371
0.020790462
0.02037898
0.020051153
0.019795351
0.019600003
0.01945424
0.019348368
0.019274328
0.019224884
0.019194071
0.019177068
0.019170053
0.019170035
0.019174715
0.019182346
0.019191617
0.019201564
0.019211486
0.019220889
0.019229428
0.019236886
0.019243509
0.019248445
0.019252073
0.019254392
0.019255546
0.019255411
0.019254499
0.019252216
0.019249341
0.019245341
0.01924077
0.019235497
0.019229704
0.019223386
0.01921669
0.019209681
0.01920241
0.019194969
0.019187429
0.019179859
0.0191723
0.027715883
0.026645663
0.0256153
0.024646155
0.02375469
0.022952103
0.022244393
0.021632778
0.0211144
0.020683229
0.020331053
0.020048438
0.019825551
0.019652806
0.019521298
0.019423282
0.019352163
0.019302052
0.019268075
0.01924627
0.019233463
0.01922715
0.019225379
0.019226645
0.019229801
0.019233985
0.019238558
0.019243054
0.019247142
0.019250631
0.019253659
0.019255443
0.01925632
0.019256311
0.019255392
0.019253697
0.019251017
0.01924804
0.019243932
0.019239635
0.019234522
0.019229098
0.019223234
0.019217078
0.01921068
0.01920408
0.019197378
0.01919063
0.0191839
0.019177223
0.027759352
0.026767737
0.025805682
0.024892056
0.024041988
0.023266481
0.022572341
0.021962372
0.021435808
0.020988934
0.020615817
0.02030908
0.02006061
0.019862163
0.019705813
0.019584267
0.019491313
0.01942149
0.019369958
0.019332684
0.019306365
0.019288334
0.019276459
0.019269056
0.019264808
0.019262695
0.019261937
0.019261941
0.019262266
0.019262592
0.019262751
0.019262745
0.019261931
0.019260577
0.019258646
0.019256155
0.019253062
0.01924954
0.019245307
0.019241136
0.019236078
0.01923113
0.019225627
0.019219982
0.019214179
0.019208204
0.019202228
0.019196255
0.019190359
0.01918456
0.027799024
0.026879979
0.02598211
0.025121967
0.024313282
0.023566579
0.022889038
0.022284546
0.021753931
0.021295368
0.020904898
0.020577014
0.020305253
0.020082721
0.019902537
0.019758151
0.019643562
0.019553782
0.019484226
0.019430871
0.019390347
0.019359868
0.019337159
0.01932038
0.019308059
0.019299028
0.019292369
0.019287364
0.019283461
0.019280239
0.019277386
0.019274719
0.019272197
0.019269247
0.019266068
0.019262615
0.019258856
0.01925482
0.01925045
0.019245928
0.019240934
0.0192363
0.019230961
0.019225967
0.019220752
0.019215282
0.019210027
0.019204784
0.019199704
0.019194761
0.027835234
0.026983167
0.026145531
0.025336743
0.024569121
0.023852523
0.023194174
0.022598627
0.022067875
0.021601587
0.021197456
0.020851631
0.020559175
0.020314517
0.020111845
0.019945425
0.019809834
0.019700113
0.01961224
0.019542311
0.019486962
0.019443344
0.019409078
0.0193822
0.019361104
0.019344488
0.019331302
0.019320711
0.019312051
0.019304802
0.019298558
0.019293008
0.01928795
0.019283349
0.019278642
0.01927399
0.019269326
0.019264624
0.01925985
0.019255035
0.019250113
0.019245266
0.019240145
0.019235664
0.019230724
0.019225803
0.019221381
0.019216743
0.019212471
0.019208333
0.02786828
0.027077997
0.026296803
0.025537168
0.024810023
0.024124438
0.023487439
0.022903921
0.022376671
0.021906491
0.021492416
0.021132012
0.02082172
0.020557215
0.020333745
0.020146431
0.019990495
0.019861429
0.019755148
0.019668323
0.019597654
0.019540288
0.019493791
0.019456109
0.01942553
0.019400636
0.019380263
0.019363462
0.019349464
0.01933765
0.019327526
0.019318699
0.019310859
0.019303776
0.019297459
0.019291312
0.01928547
0.01927987
0.019274456
0.019269202
0.019264073
0.019259098
0.019254207
0.019249589
0.019244857
0.019240859
0.019236612
0.01923259
0.019229289
0.019225825
0.027898443
0.027165098
0.026436714
0.025723978
0.025036487
0.024382461
0.023768554
0.023199745
0.022679313
0.022208877
0.021788521
0.021416988
0.021091916
0.020810121
0.020567871
0.020361145
0.020185851
0.020037998
0.019913814
0.019809995
0.019723689
0.0196521
0.019592788
0.019543654
0.019502912
0.019469054
0.019440818
0.019417156
0.019397201
0.019380241
0.019365695
0.019353091
0.019342046
0.019332255
0.019323458
0.019315723
0.019308374
0.019301593
0.019295273
0.019289352
0.019283779
0.019278531
0.019273574
0.019268934
0.019264525
0.019260506
0.019256527
0.019253524
0.019250507
0.01924765
0.027926012
0.027245025
0.026565991
0.025897868
0.025249007
0.024626756
0.024037281
0.023485456
0.022974804
0.022507494
0.022084394
0.021705183
0.021368516
0.021072215
0.020813494
0.020589166
0.020395841
0.020230089
0.020088568
0.019968126
0.019866092
0.019779985
0.019707413
0.019646278
0.019594759
0.019551287
0.019514528
0.019483349
0.0194568
0.019434083
0.019414536
0.019397611
0.019382855
0.019369895
0.019358427
0.019348214
0.019339208
0.01933092
0.019323385
0.019316517
0.019310237
0.019304489
0.019299228
0.019294429
0.019290052
0.019286108
0.019282504
0.019279316
0.019277141
0.019275106
0.027951198
0.02731842
0.026685323
0.026059512
0.025448082
0.024857521
0.024293441
0.023760472
0.02326219
0.022801089
0.022378587
0.021995083
0.021650055
0.021342189
0.021069546
0.020829721
0.020620015
0.020437577
0.020279533
0.020143085
0.020025582
0.019924891
0.019838796
0.019765254
0.01970245
0.019648791
0.019602894
0.019563568
0.019529792
0.019500698
0.01947555
0.01945373
0.019434718
0.019418079
0.019403452
0.01939054
0.019379094
0.019368999
0.019359951
0.019351809
0.019344516
0.01933799
0.019332164
0.019326985
0.019322406
0.0193184
0.019314932
0.019312033
0.019309792
0.019307823
0.027973967
0.02738605
0.026795497
0.026209568
0.025634221
0.025075
0.024536928
0.024024295
0.023540588
0.023088445
0.022669637
0.022285083
0.021934902
0.021618496
0.021334655
0.021081686
0.020857541
0.020659945
0.020486508
0.020334821
0.02020254
0.020087447
0.019987787
0.019901615
0.019827166
0.01976286
0.019707296
0.019659249
0.019617649
0.019581572
0.019550223
0.019522922
0.019499087
0.019478227
0.019459924
0.019443828
0.019429642
0.019417121
0.019406072
0.019396402
0.019387745
0.019380116
0.019373426
0.019367593
0.019362552
0.019358256
0.019354668
0.019351775
0.019349565
0.019347907
0.027994763
0.027447662
0.026897344
0.026348771
0.025807944
0.02527948
0.024767709
0.024276522
0.023809213
0.023368422
0.02295611
0.022573545
0.022221322
0.021899405
0.021607195
0.021343619
0.021107225
0.020896284
0.020708887
0.020543033
0.020396702
0.020267908
0.020154888
0.020056087
0.019969822
0.019894561
0.019828922
0.019771671
0.019721717
0.019678097
0.019639972
0.019606612
0.019577385
0.019551747
0.01952923
0.019509434
0.019492019
0.019476692
0.019463208
0.019451339
0.019441089
0.019431987
0.019424096
0.01941729
0.019411487
0.019406623
0.019402641
0.019399504
0.019397174
0.019395584
0.028013721
0.027504097
0.026990699
0.026477977
0.025969865
0.025471296
0.024985831
0.024516853
0.024067388
0.023639979
0.023236644
0.022858854
0.022507532
0.022183065
0.021885343
0.021613812
0.021367544
0.021145312
0.020945667
0.020767015
0.020607679
0.020465964
0.020340196
0.020229026
0.020130996
0.020044663
0.019968697
0.01990189
0.019843151
0.019791503
0.019746081
0.019706121
0.019670951
0.019639985
0.019612711
0.019588686
0.019567528
0.019548904
0.01953253
0.019518161
0.019505603
0.019494691
0.019485277
0.019477135
0.01947023
0.019464478
0.019459799
0.019456137
0.019453438
0.019451635
0.028030992
0.027555754
0.027076554
0.026597026
0.02612078
0.025650905
0.025191422
0.024745093
0.024314563
0.023902198
0.023509976
0.023139455
0.022791757
0.022467565
0.022167139
0.021890346
0.021636698
0.021405412
0.021195461
0.021005641
0.020834625
0.020681014
0.020543393
0.020420375
0.020310874
0.02021357
0.020127218
0.020050663
0.019982842
0.019922789
0.019869635
0.019822596
0.019780977
0.019744161
0.019711604
0.019682825
0.019657405
0.019634979
0.019615226
0.019597869
0.019582673
0.019569428
0.019557929
0.019548178
0.019539789
0.019532799
0.019527085
0.01952258
0.019519213
0.019516904
0.02804672
0.027603011
0.027155439
0.026706947
0.026260489
0.025818955
0.025384766
0.024961157
0.024550314
0.0241543
0.023774977
0.023413896
0.023072275
0.022750986
0.02245055
0.022171152
0.021912664
0.021674675
0.021456535
0.021257397
0.021076265
0.02091204
0.020763558
0.02062962
0.020509199
0.020401265
0.020304682
0.020218377
0.020141343
0.020072649
0.02001144
0.019956938
0.019908438
0.019865307
0.019826977
0.019792944
0.019762759
0.019736027
0.019712399
0.019691567
0.019673265
0.019657255
0.019643331
0.019631333
0.019621075
0.01961254
0.019605403
0.01959971
0.019595342
0.019592209
0.028061042
0.02764622
0.02722786
0.026808316
0.026389976
0.025975205
0.0255663
0.025165163
0.024774349
0.02439565
0.024030659
0.023680855
0.023347467
0.023031461
0.022733528
0.02245408
0.022193261
0.021950966
0.021726859
0.021520411
0.021330933
0.021157608
0.020999529
0.020855732
0.020725231
0.020607263
0.020500839
0.020404994
0.020318806
0.020241399
0.02017196
0.020109731
0.020054018
0.020004186
0.019959661
0.019919923
0.019884505
0.019852988
0.019825002
0.019800213
0.01977833
0.019759093
0.019742274
0.019727675
0.019715117
0.019704451
0.019695568
0.019688346
0.019682608
0.019678311
0.028074081
0.027685713
0.027294296
0.026901691
0.026509801
0.026120532
0.025735755
0.025357284
0.024986634
0.024625755
0.024276193
0.023939161
0.02361584
0.023307217
0.023014069
0.022736957
0.02247622
0.022231983
0.022004168
0.021792515
0.021596602
0.021415873
0.021249664
0.021097231
0.020957773
0.020830594
0.020714949
0.020609998
0.020514919
0.020428917
0.020351237
0.020281165
0.020218035
0.020161228
0.020110175
0.020064355
0.020023293
0.019986559
0.019953765
0.019924562
0.019898637
0.019875713
0.019855541
0.019837902
0.019822599
0.019809465
0.019798349
0.019789107
0.019781681
0.019775876