/*--------------------------------*- C++ -*----------------------------------*\
| =========                 |                                                 |
| \\      /  F ield         | OpenFOAM: The Open Source CFD Toolbox           |
|  \\    /   O peration     | Version:  2312                                  |
|   \\  /    A nd           | Website:  www.openfoam.com                      |
|    \\/     M anipulation  |                                                 |
\*---------------------------------------------------------------------------*/
FoamFile
{
    version     2.0;
    format      ascii;
    arch        "LSB;label=32;scalar=64";
    class       volScalarField;
    location    "0.05";
    object      CH4;
}
// * * * * * * * * * * * * * * * * * * * * * * * * * * * * * * * * * * * * * //

dimensions      [0 0 0 0 0 0 0];

internalField   nonuniform List<scalar> 
3275
(
0.96858128
0.85941277
0.74120761
0.63908392
0.5553352
0.48892873
0.43518291
0.39116195
0.3545836
0.32388288
0.2978025
0.27908602
0.26129621
0.2459809
0.23288735
0.2215991
0.21177758
0.20315001
0.19550416
0.18867513
0.1825337
0.17697625
0.17191846
0.16729206
0.16304081
0.15911797
0.15548436
0.15210684
0.14895723
0.14601135
0.14324833
0.14065004
0.13820064
0.1358862
0.13369444
0.13161443
0.12963642
0.12775165
0.12595227
0.12423112
0.12258174
0.12099819
0.11947504
0.1180073
0.11659023
0.11521934
0.11389089
0.11260112
0.11134649
0.11012368
0.10892955
0.10776109
0.95132134
0.82622882
0.71468506
0.62022496
0.54237569
0.48038476
0.42934583
0.38709458
0.35166334
0.32174517
0.29621768
0.27781873
0.260312
0.24520324
0.23226071
0.22108546
0.21135015
0.20278956
0.19519654
0.1884098
0.18230265
0.17677332
0.17173887
0.16713201
0.1628973
0.15898856
0.15536706
0.15200003
0.14885955
0.14592167
0.1431657
0.14057365
0.13812981
0.13582034
0.13363304
0.13155704
0.12958266
0.12770119
0.1259048
0.12418638
0.12253949
0.12095823
0.11943717
0.11797134
0.11655603
0.11518687
0.11386
0.11257169
0.11131842
0.11009689
0.10890396
0.1077366
0.90240004
0.75855507
0.66305501
0.583972
0.51742229
0.46398268
0.41813535
0.37918549
0.34594901
0.31754572
0.29309443
0.27531198
0.25836635
0.24366246
0.23101719
0.22006498
0.21050019
0.20207222
0.19458398
0.18788118
0.18184215
0.17636875
0.17138072
0.1668128
0.16261103
0.15873039
0.15513305
0.15178694
0.14866469
0.14574278
0.14300089
0.14042132
0.13798858
0.13568905
0.13351066
0.1314427
0.12947558
0.1276007
0.1258103
0.12409735
0.12245547
0.12087879
0.11936194
0.11789997
0.11648825
0.11512246
0.11379871
0.11251329
0.11126272
0.11004371
0.10885315
0.107688
0.79362122
0.65290221
0.59109403
0.53405804
0.48272134
0.44125881
0.40233486
0.36788235
0.33770844
0.31144896
0.28853494
0.2716275
0.25550794
0.24139002
0.22917815
0.2185526
0.2092384
0.20100587
0.19367236
0.18709376
0.18115566
0.17576525
0.1708462
0.16633617
0.16218342
0.15834465
0.15478331
0.15146839
0.14837333
0.14547528
0.14275442
0.14019349
0.13777735
0.13549266
0.13332761
0.13127166
0.1293154
0.12745038
0.12566896
0.12396421
0.12232981
0.12076001
0.11924948
0.11779333
0.11638699
0.11502622
0.11370712
0.11242602
0.11117948
0.10996424
0.10877719
0.10761534
0.57294422
0.51932194
0.50200883
0.4754703
0.44358995
0.41218217
0.38257214
0.35378598
0.3273013
0.30367822
0.28268217
0.26685019
0.25180338
0.2384299
0.2267737
0.21656954
0.2075801
0.19960179
0.19247016
0.186054
0.18024819
0.17496676
0.17013842
0.16570463
0.16161653
0.157833
0.15431924
0.15104556
0.14798649
0.14512001
0.14242701
0.13989078
0.13749665
0.13523166
0.13308429
0.13104429
0.12910247
0.12725054
0.12548104
0.12378718
0.12216275
0.12060208
0.11909996
0.11765156
0.11625239
0.11489827
0.11358534
0.11231
0.11106881
0.10985855
0.10867618
0.1075187
0.22633577
0.38085471
0.41724326
0.4178748
0.40469471
0.38404993
0.36071509
0.33835776
0.31583966
0.29502476
0.27611468
0.26141365
0.24758849
0.23504256
0.22400978
0.21428178
0.20566147
0.19797343
0.19107318
0.1848438
0.17919051
0.174035
0.1693117
0.16496634
0.16095333
0.15723407
0.15377571
0.1505501
0.147533
0.14470339
0.14204294
0.1395356
0.13716721
0.13492526
0.13279861
0.13077729
0.12885238
0.12701581
0.12526029
0.12357919
0.12196645
0.12041652
0.11892427
0.11748497
0.11609421
0.1147479
0.11344223
0.11217362
0.11093871
0.10973432
0.10855742
0.10740508
0.10680535
0.28161262
0.34678053
0.36695829
0.36644867
0.35575276
0.339345
0.32202859
0.30388014
0.28588011
0.26913433
0.25553637
0.2430287
0.23136106
0.22099191
0.21177447
0.20355236
0.19617897
0.18953052
0.18350507
0.17801879
0.17300151
0.16839374
0.16414585
0.16021572
0.15656749
0.15317043
0.14999807
0.14702752
0.14423882
0.14161452
0.13913927
0.13679952
0.13458321
0.13247961
0.1304791
0.12857303
0.12675357
0.12501364
0.12334678
0.12174708
0.12020911
0.11872788
0.11729875
0.11591739
0.1145798
0.11328222
0.11202113
0.11079323
0.10959538
0.10842459
0.10727798
0.06073734
0.20676792
0.28354605
0.31776799
0.32851359
0.3264571
0.31729231
0.30455106
0.29050416
0.27574023
0.26137494
0.24884995
0.23782037
0.22714816
0.21751943
0.20887695
0.20110648
0.19409196
0.18773202
0.18194116
0.17664763
0.17179033
0.16731664
0.16318208
0.15934852
0.15578317
0.15245775
0.1493477
0.14643166
0.14369093
0.14110906
0.13867151
0.1363654
0.13417925
0.13210278
0.13012677
0.12824288
0.12644358
0.12472203
0.12307195
0.12148764
0.1199638
0.11849558
0.11707845
0.11570819
0.11438089
0.11309286
0.11184066
0.11062104
0.10943091
0.10826735
0.1071275
0.040401132
0.15447811
0.23116926
0.27308935
0.29231557
0.29758885
0.29450846
0.28669034
0.27614989
0.26465033
0.25274188
0.24166801
0.23193771
0.22242782
0.2136008
0.20559116
0.19832183
0.19170806
0.18567199
0.18014563
0.17507029
0.1703947
0.16607372
0.16206856
0.15834551
0.15487519
0.15163203
0.14859364
0.14574039
0.14305496
0.14052204
0.13812803
0.13586082
0.13370956
0.1316645
0.12971685
0.12785868
0.12608276
0.12438252
0.12275194
0.12118548
0.11967806
0.11822495
0.11682176
0.11546441
0.11414907
0.11287216
0.11163029
0.1104203
0.10923915
0.108084
0.10695201
0.029926651
0.11830554
0.18895524
0.23385431
0.25868326
0.26975783
0.27181854
0.26838348
0.26150161
0.25272126
0.24337808
0.23400057
0.22546734
0.21721084
0.20924987
0.20192384
0.19520011
0.18902572
0.18334683
0.17811367
0.17328124
0.16880872
0.16465897
0.16079934
0.15720085
0.15383789
0.15068784
0.14773069
0.14494871
0.14232614
0.13984895
0.13750456
0.13528171
0.13317027
0.13116108
0.12924587
0.12741711
0.12566795
0.12399212
0.12238386
0.12083788
0.11934927
0.11791349
0.11652632
0.11518378
0.11388217
0.11261801
0.11138801
0.11018907
0.10901825
0.10787275
0.1067498
0.023698387
0.09305271
0.15545084
0.20009013
0.22810131
0.24341399
0.24973663
0.2500367
0.24651785
0.24052477
0.23329382
0.22591987
0.2185468
0.21144941
0.20448802
0.19788665
0.19174685
0.1860464
0.18075529
0.17584223
0.17127634
0.16702758
0.16306722
0.15936906
0.15590918
0.15266597
0.14961998
0.14675381
0.14405178
0.14149985
0.13908534
0.13679683
0.13462399
0.13255749
0.13058882
0.12871028
0.1269148
0.12519592
0.12354774
0.12196478
0.12044201
0.11897475
0.11755864
0.11618964
0.11486392
0.11357791
0.11232824
0.11111173
0.10992537
0.10876629
0.10763176
0.10651909
0.019542337
0.07504415
0.12903546
0.17143716
0.20074465
0.21889995
0.22853618
0.2320587
0.23140277
0.22804474
0.22293006
0.21726672
0.21133745
0.20524388
0.19930944
0.19349602
0.18797144
0.18277469
0.17789855
0.17333023
0.16905297
0.16504766
0.16129422
0.15777313
0.15446572
0.15135457
0.14842363
0.14565824
0.14304496
0.14057155
0.13822684
0.13600063
0.13388363
0.13186735
0.12994402
0.12810652
0.12634833
0.12466342
0.12304625
0.1214917
0.11999501
0.11855174
0.11715777
0.11580921
0.11450242
0.11323398
0.11200063
0.11079931
0.10962711
0.10848127
0.10735912
0.10625804
0.016528627
0.061852101
0.10820328
0.14734229
0.17657544
0.19639971
0.20847271
0.21462767
0.21648597
0.21539684
0.21237943
0.20827162
0.20369091
0.19878957
0.1937152
0.1887661
0.18388707
0.17921833
0.1747804
0.17057864
0.16661017
0.16286667
0.15933681
0.1560078
0.15286635
0.14989937
0.14709437
0.14443954
0.14192384
0.13953692
0.13726923
0.13511187
0.13305665
0.13109601
0.12922296
0.12743104
0.12571428
0.12406715
0.12248451
0.1209616
0.11949397
0.11807745
0.11670816
0.11538243
0.11409679
0.11284796
0.11163286
0.11044853
0.10929217
0.10816113
0.10705284
0.10596474
0.014216494
0.051915824
0.091683829
0.12718083
0.15541885
0.17597475
0.18971019
0.19791968
0.20190544
0.20281744
0.20163157
0.19911072
0.19575998
0.19197482
0.18789211
0.18366433
0.17951185
0.17538826
0.17140719
0.16759061
0.16394874
0.16048377
0.15719299
0.15407029
0.15110775
0.14829669
0.14562827
0.14309369
0.14068433
0.1383919
0.13620847
0.13412659
0.1321392
0.13023972
0.12842201
0.12668031
0.12500924
0.12340381
0.12185932
0.1203714
0.11893592
0.11754903
0.11620709
0.11490666
0.11364447
0.11241742
0.11122257
0.1100571
0.10891834
0.10780374
0.10671086
0.10563721
0.012374424
0.044233291
0.078467033
0.11033433
0.13701846
0.15759581
0.17233769
0.18207114
0.18778416
0.19043152
0.19085466
0.18977711
0.18768101
0.18490643
0.1817568
0.17835287
0.17480928
0.17129833
0.16778785
0.16437146
0.16107136
0.15789967
0.15486206
0.15195889
0.14918747
0.14654356
0.14402201
0.14161711
0.13932274
0.1371327
0.13504081
0.13304102
0.13112755
0.12929483
0.1275376
0.12585085
0.12422985
0.12267014
0.12116752
0.11971803
0.11831791
0.11696361
0.11565178
0.11437922
0.11314287
0.11193984
0.11076733
0.10962268
0.10850335
0.10740693
0.10633109
0.10527343
0.010868345
0.038152447
0.067777674
0.096236812
0.12107789
0.14116911
0.15638372
0.16717174
0.17423454
0.17833003
0.18017142
0.18037908
0.17944533
0.17769651
0.1753894
0.17276413
0.1699143
0.16691667
0.16393379
0.16092874
0.15798257
0.15511666
0.15234471
0.14967305
0.14710406
0.14463783
0.14227294
0.14000682
0.13783584
0.13575596
0.13376274
0.13185168
0.13001821
0.12825786
0.1265663
0.12493929
0.12337279
0.12186291
0.12040597
0.11899843
0.11763695
0.11631831
0.11503943
0.11379739
0.11258938
0.11141268
0.11026468
0.10914288
0.10804489
0.10696844
0.10591133
0.1048713
0.0096136524
0.033239776
0.059031524
0.084396438
0.10729158
0.12655827
0.14182914
0.1532706
0.16133881
0.16660627
0.16965552
0.17101773
0.1711289
0.17033712
0.16888233
0.16696381
0.16476985
0.16235486
0.15981793
0.15727215
0.15468884
0.15213871
0.14964303
0.14721351
0.14485713
0.14257824
0.14037916
0.13826044
0.13622092
0.13425871
0.13237118
0.13055533
0.1288079
0.12712553
0.12550483
0.12394239
0.12243486
0.12097897
0.11957157
0.1182096
0.11689011
0.11561024
0.11436725
0.11315847
0.11198134
0.11083337
0.10971213
0.10861529
0.10754061
0.10648598
0.10544938
0.10442868
0.0085531654
0.029199634
0.051791038
0.074400084
0.095366007
0.11360278
0.12861912
0.14038264
0.14915154
0.15533341
0.1593856
0.16175046
0.16281261
0.16288594
0.16222904
0.16102549
0.15943892
0.15755761
0.15553553
0.1533786
0.15119854
0.14897137
0.14676068
0.14458234
0.14244746
0.14036454
0.13833957
0.13637632
0.13447585
0.13263854
0.13086345
0.12914916
0.12749368
0.1258948
0.12435013
0.12285707
0.121413
0.12001528
0.11866133
0.11734857
0.11607449
0.11483658
0.11363245
0.11245972
0.1113161
0.11019932
0.10910716
0.10803746
0.10698811
0.10595722
0.10494296
0.1039434
0.0076465095
0.02582584
0.045727838
0.065908097
0.085032217
0.1021327
0.11667395
0.12849496
0.13770267
0.14456515
0.14942577
0.15264145
0.1545414
0.15540824
0.1554759
0.15494163
0.15395187
0.15261159
0.15103845
0.14932971
0.14749184
0.14562176
0.14370282
0.14178303
0.13987705
0.13799747
0.13615398
0.13435359
0.13259919
0.13089358
0.12923736
0.12763073
0.12607295
0.12456296
0.12309939
0.12168048
0.12030432
0.11896895
0.11767236
0.11641249
0.11518725
0.11399454
0.1128323
0.11169846
0.11059102
0.10950797
0.10844725
0.10740692
0.10638499
0.10537978
0.10438972
0.10341322
0.0068640607
0.02297204
0.040595696
0.058644783
0.076051669
0.09197956
0.10589861
0.11757318
0.12700091
0.1343372
0.13982595
0.14374501
0.14636758
0.14794043
0.14867608
0.14875392
0.14832938
0.14751174
0.14640178
0.14508478
0.14363921
0.14207619
0.14047239
0.13882064
0.1371492
0.13547893
0.13382307
0.1321923
0.13059022
0.12902263
0.12749128
0.12599811
0.12454353
0.12312762
0.1217501
0.12041002
0.11910616
0.11783727
0.11660193
0.11539862
0.11422568
0.11308142
0.11196412
0.11087206
0.10980351
0.10875676
0.10772989
0.10672124
0.10572882
0.10475126
0.10378726
0.0061834198
0.020531723
0.036209503
0.052388597
0.068217543
0.082983556
0.096190625
0.10756746
0.11703747
0.12466899
0.13062257
0.13510536
0.13833669
0.14052568
0.1418606
0.14250682
0.14260596
0.14227814
0.1416206
0.14070821
0.13960885
0.13838991
0.13706693
0.13569218
0.13426853
0.13281193
0.13134839
0.12989349
0.1284489
0.12702525
0.12562418
0.12424993
0.12290371
0.1215868
0.12030014
0.11904341
0.11781613
0.11661775
0.11544751
0.1143044
0.1131872
0.11209464
0.11102534
0.10997793
0.10895101
0.10794317
0.1069526
0.10597799
0.1050172
0.10406926
0.10313309
0.0055872683
0.018425573
0.032428917
0.046963684
0.061353425
0.07499779
0.087446182
0.098417889
0.10778982
0.11556598
0.1218396
0.12675681
0.13048716
0.13320285
0.1350669
0.13622788
0.13681663
0.13694477
0.13671095
0.13619623
0.13545345
0.13454385
0.13352429
0.1324152
0.13121946
0.1300007
0.12873216
0.12745954
0.12617588
0.12490187
0.12363566
0.12238545
0.12115234
0.11993897
0.11874775
0.11757874
0.11643212
0.11530818
0.11420679
0.11312745
0.1120694
0.11103175
0.1100135
0.1090136
0.10803103
0.10706479
0.10611291
0.10517487
0.10424774
0.10333139
0.10242488
0.0050619826
0.016593314
0.029145883
0.042231264
0.055312838
0.067890837
0.079564443
0.09005903
0.099225323
0.10702201
0.1134899
0.1187243
0.1228507
0.12600671
0.12832979
0.12995002
0.1309856
0.13154068
0.13170616
0.13156123
0.13117016
0.1305783
0.12984214
0.12898411
0.12804727
0.12703944
0.12597109
0.12489494
0.12377194
0.12265413
0.12152584
0.12040468
0.11928886
0.11818303
0.11709172
0.11601453
0.11495242
0.11390663
0.11287772
0.11186565
0.11087007
0.1098905
0.1089263
0.10797674
0.10704117
0.10611932
0.10520835
0.10430972
0.10341812
0.10253529
0.1016713
0.0045966929
0.014988319
0.026276042
0.038080516
0.049975928
0.061549732
0.072452129
0.082424189
0.091304672
0.099021924
0.10557734
0.11102519
0.11545337
0.11896789
0.12168122
0.12370442
0.12514189
0.1260884
0.12662828
0.12683504
0.12677095
0.12648985
0.12603488
0.12543844
0.12472977
0.12394659
0.12309286
0.12218874
0.12123659
0.12028581
0.11929501
0.11830864
0.11731341
0.11631828
0.11533139
0.1143498
0.11337567
0.11241153
0.11145859
0.11051715
0.10958726
0.10866885
0.10776165
0.10686515
0.10597904
0.10510474
0.10423633
0.10338077
0.10252598
0.10168989
0.0041826215
0.013573948
0.023752698
0.034422064
0.045243649
0.055878898
0.066027043
0.075450791
0.083987188
0.091546016
0.098100094
0.1036714
0.10831635
0.11211292
0.11515015
0.11752034
0.11931355
0.12061409
0.1214987
0.12203561
0.12228401
0.12229411
0.12211211
0.12177466
0.12130244
0.12073216
0.12007382
0.11936265
0.11858966
0.1177863
0.11694205
0.11610009
0.11522683
0.11434414
0.11346697
0.11258419
0.11170096
0.11082167
0.10994801
0.10908044
0.10821932
0.10736505
0.1065177
0.1056769
0.10484218
0.10401968
0.10319358
0.10238721
0.10158016
0.1007744
0.0038126046
0.01232101
0.021522499
0.031183193
0.041033518
0.050796715
0.060217143
0.069082127
0.077234114
0.084573322
0.091052995
0.096670446
0.10145637
0.10546447
0.10876247
0.11142483
0.11352734
0.11514329
0.11634117
0.11718325
0.11772477
0.11801394
0.1180932
0.11799952
0.11776161
0.1174046
0.11694867
0.11641667
0.11581399
0.11517487
0.11448433
0.11377056
0.11302809
0.1122593
0.11150014
0.11071795
0.10992772
0.1091362
0.10834507
0.1075544
0.10676493
0.10597762
0.10519292
0.1044105
0.10362737
0.1028646
0.10208996
0.10132295
0.10055789
0.099793502
0.003480739
0.011205954
0.019542308
0.028304257
0.037276407
0.046233034
0.054958779
0.063266345
0.071008257
0.078081822
0.084427983
0.090025985
0.094886048
0.099041435
0.10254097
0.10544263
0.10780844
0.10970064
0.11117911
0.11229959
0.11311274
0.11366377
0.11399277
0.11413457
0.11411792
0.11397011
0.11371399
0.11336268
0.1129356
0.1124495
0.1119061
0.11133364
0.11072484
0.11007695
0.10942348
0.10874788
0.10805555
0.10735467
0.10664931
0.10593838
0.10522312
0.1045054
0.10378612
0.10306559
0.10234404
0.1016286
0.10090801
0.10018818
0.099467594
0.098745725
0.0031821179
0.010209571
0.017776899
0.025735958
0.033914055
0.042127285
0.050195441
0.057955853
0.065273856
0.072048649
0.078214515
0.083738232
0.088614283
0.092859144
0.096505342
0.099596008
0.10218027
0.10430963
0.10603526
0.10740612
0.10846779
0.10926177
0.10982543
0.11019176
0.11038921
0.11044308
0.11037617
0.11020584
0.1099515
0.10962095
0.10923015
0.1087918
0.1083101
0.10778549
0.10724793
0.10667992
0.10608555
0.10547697
0.10486104
0.10423228
0.10359332
0.10294756
0.10229618
0.10163988
0.10097962
0.10031803
0.099651359
0.098981289
0.098307318
0.097629039
0.0029126288
0.0093160295
0.01619724
0.023437255
0.030897105
0.038426972
0.045876809
0.053106882
0.059996586
0.066450312
0.07239996
0.077804386
0.082646547
0.086929559
0.090672246
0.093904701
0.096664293
0.098992347
0.10093154
0.10252395
0.10380976
0.1048264
0.10560811
0.10618571
0.10658652
0.10683488
0.10695233
0.10695655
0.10686622
0.10669319
0.10645285
0.10614988
0.10579796
0.10540005
0.10497128
0.10451021
0.10401875
0.10350277
0.10298171
0.10243664
0.10187528
0.10130363
0.10072235
0.10013232
0.099534589
0.098930534
0.098319168
0.097701034
0.097075706
0.09644061
0.0026687995
0.0085121628
0.014779194
0.021373742
0.028183544
0.035086464
0.041958005
0.048679177
0.055143615
0.061262962
0.066969928
0.07221901
0.076985219
0.08126146
0.08505537
0.088385876
0.091279877
0.093769314
0.095888764
0.097673544
0.099158326
0.10037619
0.10135801
0.1021321
0.10272408
0.10315702
0.10345149
0.10362534
0.10369525
0.10367466
0.10357762
0.10341224
0.10319144
0.10291639
0.10259999
0.10224754
0.10185907
0.10144253
0.10100735
0.1005482
0.10006883
0.099573542
0.099064429
0.098542482
0.098008909
0.0974649
0.096910621
0.096346518
0.095772702
0.095189305
0.0024476772
0.0077869277
0.013502535
0.019516388
0.025737438
0.032065987
0.038398971
0.044635746
0.050683664
0.056462709
0.061908631
0.066974373
0.071629886
0.075860672
0.079665542
0.083054125
0.086044223
0.088659333
0.090926499
0.092874542
0.094532688
0.095929559
0.097092478
0.098047005
0.098816698
0.099423064
0.099885549
0.10022149
0.1004466
0.10057458
0.10061787
0.10058682
0.10049224
0.10033934
0.1001371
0.099895297
0.099608439
0.099289603
0.098945227
0.098572432
0.098175431
0.097757893
0.097322757
0.096870507
0.096402626
0.095920581
0.095425111
0.094916836
0.094396228
0.093863916
0.0022467349
0.0071309893
0.012350189
0.017840547
0.023527922
0.029330785
0.035163925
0.040942653
0.046587062
0.052025857
0.057199271
0.06206079
0.066577654
0.070730282
0.074510855
0.077921492
0.080972299
0.083679354
0.086062861
0.088145554
0.089951404
0.091504609
0.092828846
0.09394675
0.094879586
0.095647075
0.096267308
0.096756715
0.097130184
0.097401013
0.097581201
0.097681234
0.097710566
0.097677034
0.097588573
0.097453348
0.097269579
0.097047532
0.096797592
0.096511059
0.096196737
0.095857644
0.095498363
0.095117063
0.094716091
0.094297524
0.093862385
0.093411466
0.092945452
0.092465031
0.0020637962
0.0065363999
0.01130764
0.016325166
0.021528364
0.026850414
0.032220896
0.037568812
0.042825789
0.047929128
0.052824355
0.057466989
0.061823412
0.06587088
0.069596812
0.072997531
0.076076816
0.07884439
0.081314388
0.083503979
0.085432184
0.087118912
0.088584209
0.089847705
0.090928221
0.091843519
0.092610151
0.093243378
0.093757181
0.094164213
0.094475939
0.09470264
0.094853501
0.094936582
0.09495916
0.094928744
0.094847291
0.094725262
0.09456336
0.094365658
0.094134883
0.093873773
0.093593263
0.093283409
0.092950024
0.092596142
0.092222617
0.091830346
0.09142016
0.090992781
0.0018969763
0.0059963487
0.010362468
0.014952169
0.019715695
0.024598144
0.029541302
0.034485805
0.039373506
0.044149848
0.04876599
0.053180451
0.057360148
0.061280759
0.064926497
0.068289391
0.071368234
0.07416745
0.076695928
0.078965862
0.080991715
0.082789341
0.08437526
0.085766096
0.086978156
0.088027132
0.088927897
0.089694373
0.090339478
0.090875082
0.091312007
0.091660093
0.091928234
0.092124382
0.092255704
0.092328789
0.092348172
0.092321057
0.092249608
0.092140737
0.091993494
0.091813778
0.091606127
0.091369052
0.091105409
0.090817328
0.090506465
0.090173891
0.089820598
0.089447374
0.0017446344
0.0055049635
0.0095039861
0.013705951
0.01806985
0.02255045
0.027099584
0.031667692
0.036205559
0.040666111
0.045006134
0.049187715
0.053179284
0.056956176
0.060500721
0.063801922
0.066854794
0.069659513
0.072220548
0.074545755
0.076645503
0.078531895
0.080218102
0.081717825
0.083044856
0.084212765
0.085234652
0.08612299
0.086889512
0.087545152
0.088100013
0.088563348
0.088943625
0.089248534
0.089485026
0.089659378
0.089776921
0.089843244
0.08986215
0.089838805
0.089774458
0.089675673
0.089542999
0.089378281
0.089184499
0.088962612
0.088715141
0.088443019
0.088147464
0.087829324
0.001605335
0.0050571533
0.0087229459
0.012572976
0.016573314
0.020686582
0.024872868
0.029090832
0.033298956
0.037456898
0.04152683
0.045474651
0.04927095
0.052891638
0.056318228
0.059537784
0.062542578
0.065329517
0.067899473
0.07025662
0.072407733
0.07436153
0.07612808
0.077718295
0.079143525
0.080415215
0.081544659
0.082542803
0.083420113
0.084186484
0.084851177
0.085422791
0.085909252
0.086317845
0.086655231
0.086927448
0.087139898
0.087297667
0.087405043
0.087466246
0.087484175
0.087463363
0.087405043
0.087313544
0.087190125
0.087033967
0.086850457
0.086639166
0.08640195
0.086139571
0.0014778167
0.0046484817
0.0080113044
0.011541451
0.015210743
0.018988195
0.022840679
0.026733707
0.030632339
0.034502177
0.038310396
0.04202672
0.045624264
0.049080159
0.052375927
0.0554976
0.058435591
0.061184385
0.063742055
0.066109743
0.068291156
0.070292027
0.072119613
0.073782243
0.075288932
0.076649065
0.077872131
0.078967525
0.079944393
0.080811516
0.081577235
0.082249394
0.082835317
0.083341784
0.083775065
0.084140916
0.084444572
0.084690852
0.084884057
0.085028146
0.085126502
0.085182623
0.085198873
0.085178706
0.085123311
0.085033359
0.084915035
0.084764247
0.084585804
0.084379535
0.0013609663
0.0042750649
0.0073620352
0.010601061
0.01396865
0.01743904
0.020984671
0.024576756
0.028185927
0.031782969
0.035339591
0.038829196
0.042227581
0.045513511
0.048669122
0.051680128
0.05453585
0.057229071
0.059755762
0.062114681
0.064306988
0.066335857
0.068206058
0.069923572
0.071495249
0.072928511
0.074231097
0.075410859
0.076475603
0.077432961
0.078290292
0.07905462
0.079732587
0.080330421
0.080853919
0.081308462
0.081699025
0.082030172
0.082306062
0.082530492
0.082706879
0.082838411
0.082927791
0.082977707
0.082989913
0.082966727
0.082910046
0.08281988
0.0827015
0.082551129
0.0012537979
0.0039334881
0.0067689735
0.0097427438
0.012835147
0.016024693
0.0192884
0.022602211
0.025941456
0.029281385
0.032597745
0.035867367
0.039068732
0.042182467
0.045191732
0.048082471
0.050843528
0.053466621
0.055946203
0.058279231
0.060464844
0.062504079
0.064399565
0.066155207
0.067775889
0.069267206
0.070635235
0.071886337
0.07302699
0.074063664
0.075002711
0.07585029
0.076612303
0.077294362
0.077901754
0.078439422
0.078911981
0.079323718
0.07967857
0.079980153
0.08023177
0.080436446
0.080596883
0.080715558
0.080794531
0.080835821
0.080841047
0.080812266
0.08075039
0.080655659
0.0011554354
0.0036207377
0.0062266905
0.0089585167
0.011799723
0.014732325
0.017737114
0.020793949
0.023882104
0.026980648
0.030068867
0.033126712
0.036135242
0.039077033
0.041936524
0.044700277
0.047357135
0.049898274
0.05231716
0.05460943
0.056772686
0.058806254
0.060710975
0.062488962
0.064143355
0.065678095
0.067097717
0.068407166
0.069611642
0.070716469
0.071726987
0.072648467
0.073486045
0.074244667
0.074929057
0.075543691
0.076092769
0.076580235
0.077009759
0.077384732
0.077708277
0.077983261
0.078212286
0.078397716
0.078541644
0.078645996
0.078712469
0.078742684
0.078737871
0.078699661
0.0010650998
0.0033341467
0.005730388
0.008241322
0.010853061
0.013550511
0.01631757
0.019137349
0.021992419
0.024865089
0.027737719
0.030593046
0.033414529
0.036186674
0.038895332
0.041527939
0.044073688
0.046523625
0.048870672
0.051109577
0.053236809
0.055250393
0.057149724
0.058935416
0.060609105
0.06217327
0.063631047
0.064986072
0.066242337
0.067404064
0.068475602
0.069461337
0.070365619
0.071192712
0.07194674
0.072631664
0.073251252
0.073809059
0.074308434
0.074752501
0.075144165
0.075486104
0.075780775
0.076030422
0.076237075
0.076402583
0.076528611
0.076616678
0.076668096
0.076684071
0.00098209676
0.0030713503
0.0052758148
0.007584903
0.0099868855
0.012469055
0.015017879
0.017619163
0.020258232
0.022920137
0.025589876
0.02825264
0.030894071
0.033500518
0.036059278
0.038558811
0.0409889
0.043340774
0.04560716
0.047782291
0.049861858
0.051842923
0.053723779
0.055503824
0.057183437
0.058763835
0.060246919
0.061635144
0.062931387
0.064138836
0.065260887
0.066301063
0.06726294
0.068150085
0.068966012
0.069714141
0.070397769
0.071020049
0.071583969
0.072092351
0.072547836
0.072952892
0.073309794
0.073620638
0.073887343
0.07411166
0.074295182
0.074439353
0.074545464
0.07461471
0.00090579451
0.0028302355
0.0048592016
0.0069837038
0.0091938302
0.011478849
0.013827356
0.016227393
0.018666584
0.021132288
0.023611756
0.026092315
0.028561558
0.031007542
0.033418979
0.035785415
0.038097376
0.040346492
0.042525566
0.044628615
0.046650861
0.048588696
0.050439603
0.052202046
0.053875387
0.055459786
0.056956085
0.058365696
0.059690495
0.060932716
0.062094869
0.063179653
0.06418989
0.065128466
0.065998279
0.0668022
0.067543038
0.068223515
0.068846244
0.069413718
0.069928289
0.070392173
0.070807442
0.071176014
0.071499664
0.071780021
0.072018575
0.072216684
0.072375581
0.072496423
0.00083563235
0.0026089095
0.0044771793
0.0064327851
0.0084673295
0.010571748
0.012736397
0.01495118
0.01720564
0.019489072
0.021790643
0.024099521
0.026405019
0.028696744
0.030964743
0.033199651
0.035392816
0.03753641
0.039623507
0.04164814
0.043605317
0.045491016
0.047302152
0.04903651
0.050692663
0.052269918
0.053768235
0.055188133
0.056530607
0.057797041
0.05898913
0.060108809
0.061158187
0.062139492
0.06305502
0.063907096
0.064698037
0.065430123
0.066105575
0.066726536
0.067295057
0.067813079
0.06828244
0.068704857
0.069081936
0.069415156
0.069705886
0.069955378
0.070164781
0.070335197
0.00077110568
0.0024056862
0.0041267336
0.0059277282
0.0078015292
0.009740461
0.011736372
0.013780707
0.015864613
0.01797901
0.020114686
0.022262386
0.024412923
0.026557285
0.028686749
0.030792997
0.03286822
0.034905214
0.036897456
0.038839162
0.040725324
0.042551721
0.044314911
0.046012205
0.047641606
0.04920176
0.050691912
0.052111844
0.053461799
0.054742417
0.055954669
0.057099795
0.058179244
0.059194625
0.06014766
0.061040142
0.061873904
0.062650784
0.063372605
0.064041151
0.064658151
0.065225267
0.065744082
0.066216091
0.066642705
0.067025238
0.067364914
0.067662861
0.067920127
0.068137738
0.00071176004
0.0022190546
0.003805179
0.0054645789
0.0071911835
0.0089784675
0.010819522
0.012707104
0.014633693
0.016591572
0.018572897
0.020569759
0.022574264
0.024578617
0.026575206
0.02855669
0.030516085
0.032446844
0.034342923
0.036198839
0.038009714
0.039771293
0.041479959
0.043132721
0.044727192
0.046261536
0.04773445
0.049145119
0.050493168
0.051778607
0.053001779
0.054163304
0.05526404
0.056305025
0.057287444
0.058212589
0.059081824
0.059896557
0.060658215
0.061368222
0.062027982
0.062638862
0.063202182
0.063719206
0.064191132
0.06461909
0.065004141
0.065347273
0.065649414
0.065911499
0.00065718598
0.0020476599
0.003510112
0.0050398115
0.006631594
0.0082799122
0.0099788877
0.01172237
0.013503974
0.015317127
0.017155132
0.019011224
0.020878621
0.022750587
0.024620497
0.026481902
0.0283286
0.030154694
0.031954658
0.033723381
0.035456215
0.037148999
0.038798079
0.040400312
0.041953065
0.043454177
0.044901944
0.046295097
0.047632765
0.04891444
0.050139937
0.051309345
0.052422996
0.053481421
0.054485316
0.055435504
0.056332912
0.057178536
0.05797342
0.058718636
0.059415263
0.060064373
0.060667017
0.061224215
0.061736948
0.062206151
0.062632706
0.063017447
0.063361163
0.063664687
0.0006070146
0.0018902864
0.0032393815
0.0046502734
0.0061185681
0.007639546
0.0092082047
0.010819301
0.012467398
0.014146897
0.015852071
0.01757712
0.019316211
0.021063525
0.022813302
0.024559895
0.02629782
0.028021806
0.029726848
0.031408245
0.03306164
0.034683054
0.036268902
0.037816009
0.039321615
0.040783361
0.042199273
0.04356775
0.044887548
0.046157749
0.047377733
0.048547149
0.049665879
0.050734011
0.051751803
0.05271966
0.053638103
0.054507746
0.055329271
0.056103412
0.056830933
0.057512615
0.058149241
0.058741586
0.059290408
0.059796439
0.060260377
0.060682888
0.06106461
0.061406257
0.00056091388
0.0017458445
0.0029910629
0.0042931467
0.0056483589
0.0070526825
0.0085018556
0.0099914069
0.01151669
0.013072918
0.014655194
0.016258537
0.01787792
0.019508309
0.0211447
0.022782152
0.024415834
0.026041056
0.027653316
0.029248332
0.030822076
0.032370803
0.033891072
0.035379764
0.03683409
0.038251596
0.039630144
0.040967914
0.042263389
0.043515345
0.044722822
0.04588511
0.047001722
0.048072366
0.049096926
0.050075435
0.051008053
0.051895044
0.052736757
0.053533609
0.054286066
0.054994628
0.055659819
0.056282173
0.056862225
0.057400502
0.057897516
0.058353759
0.058769711
0.00051858556
0.0016133587
0.0027634368
0.0039659168
0.0052176232
0.0065151371
0.0078548248
0.0092328679
0.010645291
0.01208799
0.013556758
0.015047315
0.016555326
0.018076424
0.019606255
0.021140502
0.02267491
0.024205322
0.025727708
0.027238193
0.028733089
0.030208916
0.031662426
0.033090617
0.034490748
0.035860344
0.037197194
0.038499348
0.03976511
0.040993036
0.042181915
0.043330758
0.04443878
0.045505382
0.04653013
0.04751274
0.048453056
0.049351033
0.05020672
0.051020243
0.051791792
0.052521605
0.053209959
0.053857156
0.054463514
0.055029361
0.055555028
0.056040856
0.056487283
0.00047976257
0.0014919584
0.0025549716
0.0036663458
0.0048233866
0.0060231852
0.0072626422
0.0085384926
0.0098473297
0.011185628
0.012549765
0.013936042