/*--------------------------------*- C++ -*----------------------------------*\
| =========                 |                                                 |
| \\      /  F ield         | OpenFOAM: The Open Source CFD Toolbox           |
|  \\    /   O peration     | Version:  2312                                  |
|   \\  /    A nd           | Website:  www.openfoam.com                      |
|    \\/     M anipulation  |                                                 |
\*---------------------------------------------------------------------------*/
FoamFile
{
    version     2.0;
    format      ascii;
    arch        "LSB;label=32;scalar=64";
    class       volScalarField;
    location    "0.05";
    object      CO2;
}
// * * * * * * * * * * * * * * * * * * * * * * * * * * * * * * * * * * * * * //

dimensions      [0 0 0 0 0 0 0];

internalField   nonuniform List<scalar> 
3275
(
0.0023181599
0.014096105
0.028935149
0.042427578
0.053313227
0.061383668
0.067149771
0.071017905
0.073341279
0.074440528
0.074615119
0.074222135
0.073336437
0.072150434
0.070801179
0.069375296
0.067929338
0.066497793
0.065101654
0.063753596
0.062461037
0.061227759
0.060054988
0.058942569
0.057889382
0.056893701
0.055953448
0.055066358
0.054230093
0.053442322
0.052700769
0.052003242
0.051347659
0.050732053
0.050154581
0.049613521
0.049107269
0.048634338
0.04819335
0.047783028
0.047402195
0.047049762
0.046724727
0.046426142
0.046153027
0.045904624
0.045680208
0.045479091
0.045300607
0.045144131
0.045009091
0.044894994
0.0033363741
0.016826284
0.031097009
0.043827503
0.054082655
0.061679482
0.067176595
0.070894492
0.073139899
0.07420556
0.074373569
0.073987131
0.07311781
0.071951517
0.070622388
0.06921564
0.067787161
0.066371226
0.064988849
0.063652842
0.062370802
0.061146698
0.059981937
0.058876525
0.057829482
0.056839204
0.055903716
0.055020842
0.054188319
0.05340388
0.052665301
0.051970439
0.051317249
0.0507038
0.050128276
0.04958898
0.049084329
0.048612854
0.048173194
0.047764085
0.047384362
0.047032945
0.046708838
0.046411092
0.046138777
0.045891121
0.045667395
0.045466913
0.045289017
0.045133085
0.044998535
0.044884874
0.0061690296
0.021915788
0.034930988
0.046265092
0.055395542
0.062125512
0.067152181
0.070606162
0.072715706
0.073725323
0.073886267
0.073515747
0.072681015
0.071554751
0.070266077
0.068897595
0.067503971
0.066119119
0.064764131
0.063452103
0.062190992
0.060985147
0.059836333
0.058744875
0.057710072
0.056730562
0.055804575
0.054930109
0.054105052
0.053327263
0.052594624
0.051905085
0.051256679
0.050647542
0.050075913
0.049540146
0.049038701
0.048570145
0.048133147
0.047726473
0.047348979
0.046999606
0.046677373
0.046381348
0.046110638
0.045864472
0.045642127
0.045442922
0.04526621
0.045111373
0.044977823
0.044865074
0.011413923
0.028529589
0.039244845
0.048981057
0.056813207
0.062443329
0.066937823
0.070079563
0.072032632
0.072983885
0.073147974
0.072807525
0.072028443
0.070963321
0.069735544
0.068424237
0.067082498
0.065743828
0.064429498
0.06315306
0.061923021
0.060744292
0.059619172
0.058548459
0.057531863
0.056568378
0.055656538
0.0547946
0.053980671
0.053212797
0.052489021
0.051807426
0.051166162
0.050563464
0.049997656
0.049467165
0.048970513
0.048506322
0.048073309
0.047670279
0.047296124
0.046949816
0.046630398
0.046336964
0.04606866
0.045824724
0.045604445
0.045407154
0.045232217
0.045079026
0.044946989
0.044835634
0.017772051
0.033129652
0.043145035
0.051014618
0.057462321
0.062566226
0.066395691
0.069225419
0.071047284
0.071962557
0.072153227
0.071863101
0.071164001
0.070182071
0.069035684
0.067800087
0.066526729
0.065248779
0.063987857
0.062758163
0.061568944
0.060425861
0.059331909
0.058288504
0.057295894
0.056353535
0.055460359
0.054614959
0.053815731
0.053060962
0.052348906
0.051677823
0.051046015
0.050451844
0.04989375
0.049370252
0.048879956
0.048421557
0.047993832
0.04759564
0.047225921
0.046883687
0.046568013
0.046278033
0.046012926
0.045771952
0.045554417
0.045359671
0.045187096
0.045036097
0.044906086
0.044796606
0.01467708
0.033641475
0.044051891
0.051356022
0.057119699
0.06186497
0.065511136
0.068046126
0.069796301
0.070721327
0.070971312
0.070753666
0.070155197
0.069273199
0.06822263
0.067075263
0.065881182
0.064673454
0.063474239
0.062298552
0.06115652
0.060054674
0.058996812
0.057985057
0.057020275
0.05610245
0.055230966
0.054404805
0.05362269
0.052883192
0.0521848
0.05152598
0.050905209
0.050321
0.049771918
0.049256597
0.048773737
0.048322116
0.047900582
0.047508058
0.047143537
0.046806078
0.0464948
0.046208873
0.045947518
0.045710017
0.045495702
0.045303943
0.04513414
0.044985717
0.044858094
0.04475083
0.00822262
0.029578496
0.041934281
0.050105695
0.055948024
0.060487171
0.06410598
0.066605486
0.068313447
0.069299746
0.069642324
0.069519109
0.069037831
0.068269447
0.067325669
0.066275762
0.065168865
0.0640382
0.062906661
0.061790217
0.060699981
0.059643442
0.058625271
0.057648364
0.056714251
0.055823493
0.054975966
0.05417107
0.053407887
0.052685294
0.052002042
0.051356819
0.050748294
0.050175142
0.049636072
0.049129837
0.048655245
0.048211162
0.047796518
0.047410304
0.047051573
0.046719436
0.046413059
0.046131653
0.04587448
0.045640853
0.045430129
0.045241702
0.045074994
0.044929447
0.044804497
0.044699716
0.0054086999
0.023773002
0.03760062
0.047013165
0.053648346
0.058429764
0.062058355
0.064740244
0.066507932
0.067590454
0.068069143
0.068073704
0.067732693
0.067100751
0.066282107
0.065345487
0.064339518
0.063297913
0.062244559
0.061196591
0.06016628
0.059162219
0.058190085
0.057253648
0.0563552
0.055495955
0.054676352
0.05389627
0.053155203
0.052452376
0.051786841
0.051157542
0.050563369
0.050003187
0.049475867
0.048980303
0.048515426
0.048080207
0.047673667
0.047294879
0.046942965
0.046617097
0.046316496
0.046040421
0.04578818
0.04555912
0.045352632
0.045168137
0.045005083
0.044862932
0.04474114
0.044639299
0.0041413306
0.018900084
0.032484119
0.042778137
0.050214076
0.055627605
0.059511297
0.06237812
0.064367814
0.065595457
0.066247935
0.06642004
0.066237136
0.065766641
0.06509099
0.064283147
0.063391532
0.062450719
0.061485864
0.060515475
0.059553146
0.058608713
0.057688969
0.056798661
0.055940928
0.055117713
0.054330078
0.053578443
0.052862757
0.052182641
0.051537483
0.050926518
0.050348883
0.049803658
0.049289899
0.048806661
0.048353011
0.047928042
0.047530881
0.04716069
0.046816672
0.046498071
0.046204167
0.045934277
0.045687758
0.045464
0.045262429
0.0450825
0.04492369
0.044785486
0.044667368
0.044568949
0.0034533125
0.015345194
0.027682498
0.038112397
0.046133345
0.052103685
0.056499002
0.059628717
0.061855299
0.063337509
0.064187583
0.064560563
0.064558384
0.064268675
0.063753791
0.063089352
0.062324778
0.061495919
0.060629444
0.05974542
0.058858914
0.05798111
0.057120025
0.056281467
0.055469493
0.054686841
0.053935258
0.053215747
0.052528767
0.051874369
0.051252314
0.050662158
0.050103314
0.049575099
0.049076777
0.048607579
0.048166729
0.047753455
0.047367
0.04700663
0.046671639
0.046361348
0.046075108
0.045812299
0.045572333
0.045354648
0.045158714
0.04498402
0.044830076
0.044696402
0.044582501
0.044488013
0.0030100082
0.012782639
0.023632513
0.033596048
0.041813608
0.048202001
0.053022588
0.056589385
0.059050011
0.060803978
0.061920416
0.062504551
0.062710577
0.062610678
0.062274909
0.061766867
0.061140802
0.060434142
0.059675232
0.058885838
0.058082611
0.057278164
0.056481818
0.055700504
0.054939258
0.054201664
0.053490201
0.052806506
0.052151578
0.051525941
0.050929759
0.050362935
0.049825185
0.049316086
0.048835129
0.048381741
0.047955317
0.047555233
0.047180863
0.046831587
0.046506799
0.046205907
0.045928341
0.04567355
0.045441007
0.045230205
0.045040659
0.044871903
0.044723482
0.044594949
0.044485839
0.044395818
0.0026854767
0.010892664
0.020346727
0.029541603
0.03759697
0.044178142
0.0493262
0.053261175
0.056050797
0.05805478
0.059450643
0.06028082
0.06070475
0.060807979
0.060660049
0.06032078
0.059842976
0.059267478
0.05862434
0.057937096
0.057224047
0.056499268
0.055773434
0.05505464
0.054348937
0.053660795
0.052993459
0.052349234
0.051729697
0.051135869
0.050568345
0.050027405
0.049513086
0.049025249
0.048563627
0.048127862
0.047717532
0.047332179
0.046971317
0.046634451
0.046321083
0.046030721
0.045762878
0.045517081
0.045292869
0.045089794
0.044907425
0.044745341
0.04460313
0.04448038
0.044376662
0.04429167
0.0024274827
0.0094559867
0.017698422
0.026038411
0.033695464
0.040246384
0.045574911
0.049761781
0.052907272
0.055180527
0.056812981
0.057915171
0.058565043
0.058876417
0.058920266
0.058758156
0.058436571
0.057999566
0.057479141
0.056900597
0.056283884
0.055644521
0.05499455
0.054343233
0.053697654
0.053063185
0.052443862
0.051842682
0.051261821
0.050702821
0.050166733
0.049654231
0.049165694
0.048701284
0.048260995
0.047844696
0.047452166
0.047083119
0.046737224
0.046414121
0.04611343
0.045834764
0.045577731
0.045341938
0.045126998
0.044932529
0.044758156
0.044603511
0.044468226
0.044351931
0.044254233
0.044174859
0.00221198
0.0083304207
0.01555014
0.023057953
0.030199174
0.036550157
0.041911663
0.046260331
0.049650201
0.052222536
0.054087628
0.055422738
0.056315443
0.056835203
0.057072908
0.057087236
0.056928836
0.05663563
0.056243319
0.055778838
0.055263696
0.054714788
0.054145481
0.05356618
0.052984985
0.052408166
0.051840562
0.051285866
0.050746871
0.050225655
0.049723739
0.049242204
0.048781793
0.048342978
0.04792603
0.047531058
0.047158053
0.046806914
0.046477474
0.046169517
0.045882791
0.04561702
0.045371913
0.045147166
0.044942472
0.044757517
0.044591991
0.044445579
0.044317964
0.044208822
0.0441178
0.044044659
0.0020265579
0.0074239121
0.013787717
0.020530337
0.027118001
0.03316278
0.038435683
0.042848636
0.046406169
0.049193583
0.051317775
0.052861641
0.053968555
0.054706171
0.05513374
0.055324749
0.055326592
0.055182434
0.054921867
0.054575422
0.054165997
0.053711733
0.053227228
0.052723959
0.052210998
0.051695492
0.051183065
0.050678108
0.050184028
0.049703446
0.049238361
0.048790274
0.048360296
0.047949227
0.047557621
0.047185839
0.046834093
0.046502478
0.046190999
0.045899592
0.045628141
0.045376489
0.045144452
0.04493182
0.04473837
0.044563867
0.044408063
0.044270706
0.044151533
0.044050267
0.0439666
0.043900332
0.0018640043
0.0066759855
0.012323036
0.018380701
0.024421721
0.03010554
0.03520313
0.0395933
0.043241487
0.046186748
0.048502898
0.050274712
0.051568711
0.052499805
0.053121982
0.053483932
0.053644826
0.053646251
0.053521034
0.053295045
0.052994249
0.052637845
0.0522415
0.05181766
0.051376295
0.050925371
0.05047127
0.050019063
0.049572759
0.049135516
0.04870981
0.048297567
0.047900271
0.047519054
0.047154763
0.046808018
0.04647926
0.046168787
0.045876782
0.045603341
0.04534849
0.045112199
0.044894394
0.044694968
0.044513786
0.044350692
0.04420551
0.044078053
0.043968115
0.043875471
0.043799863
0.043741133
0.0017196478
0.0060460199
0.011089602
0.016542057
0.022065536
0.027368478
0.032236153
0.036535024
0.040204867
0.043249681
0.045712953
0.047657417
0.049152567
0.050251203
0.051046378
0.051581192
0.051894847
0.05204052
0.052046549
0.051943426
0.051752833
0.051496422
0.051190726
0.050849006
0.050482027
0.050098493
0.049705496
0.049308753
0.048912846
0.048521459
0.048137533
0.047763413
0.047400959
0.047051635
0.046716583
0.046396688
0.046092624
0.045804895
0.045533872
0.045279814
0.045042895
0.044823215
0.044620819
0.044435704
0.044267828
0.04411712
0.04398348
0.043866787
0.043766897
0.043683642
0.043616815
0.043566309
0.001590199
0.0055060046
0.010037456
0.014958191
0.020002885
0.02492629
0.02953418
0.033692779
0.037327604
0.040418216
0.042983023
0.045063827
0.046714135
0.047990755
0.048935586
0.049623889
0.05008988
0.050375907
0.050510074
0.050525852
0.050446986
0.050291545
0.050078039
0.049820354
0.049529914
0.049216047
0.048886501
0.048547584
0.048204412
0.047861166
0.047521234
0.04718737
0.046861799
0.046546315
0.046242355
0.045951068
0.045673362
0.045409953
0.0451614
0.044928131
0.044710469
0.044508653
0.044322845
0.044153153
0.043999633
0.0438623
0.043741134
0.043636085
0.043547073
0.043473987
0.043416681
0.043375106
0.0014732559
0.0050362032
0.0091288702
0.013583131
0.018190741
0.022748087
0.027083573
0.031069787
0.034626134
0.037716479
0.040340076
0.042520559
0.044296191
0.045712034
0.046814509
0.047636504
0.048240344
0.048659247
0.048921069
0.049052373
0.049081697
0.049028011
0.048907252
0.048734678
0.04852224
0.048279728
0.048015495
0.047736371
0.04744794
0.047154849
0.046860902
0.046569242
0.046282446
0.04600263
0.045731519
0.045470522
0.04522078
0.044983222
0.044758592
0.044547492
0.044350398
0.044167685
0.043999642
0.043846486
0.043708374
0.043585411
0.04347766
0.043385144
0.043307848
0.043245726
0.043198691
0.043166766
0.0013669867
0.0046225388
0.0083354373
0.012379684
0.016591316
0.02080254
0.024864363
0.028659162
0.032105594
0.03515836
0.037803018
0.040048477
0.041919448
0.043449691
0.04467681
0.045639035
0.046363606
0.046903687
0.047285214
0.047531684
0.04766556
0.047710822
0.047682563
0.047595538
0.047461846
0.047291731
0.047094144
0.046876341
0.046644284
0.046403054
0.046156822
0.045909099
0.045662793
0.045420326
0.045183701
0.044954578
0.044734328
0.044524086
0.044324785
0.044137196
0.04396195
0.043799561
0.043650442
0.043514924
0.043393267
0.043285669
0.043192276
0.043113186
0.043048453
0.042998093
0.042962087
0.0012699503
0.0042547189
0.0076357723
0.01131804
0.015172232
0.019060265
0.022854364
0.026448285
0.029763318
0.032749627
0.035383562
0.037662728
0.039600442
0.041220213
0.042551274
0.043625649
0.044475949
0.045124618
0.045614267
0.045968217
0.046206709
0.046347164
0.046409284
0.046406536
0.046352109
0.046254727
0.046124564
0.045969141
0.045794676
0.045606672
0.045409592
0.045207293
0.045002984
0.044799373
0.044598727
0.044402943
0.044213615
0.044032075
0.04385944
0.04369665
0.04354449
0.04340361
0.043274551
0.043157756
0.043053588
0.042962339
0.042884241
0.042819469
0.042768144
0.042730346
0.04270613
0.0011809888
0.0039250304
0.0070136883
0.010374659
0.013906149
0.017494751
0.021031447
0.024421775
0.027591731
0.030490105
0.033087509
0.03537328
0.03735156
0.0390371
0.040451609
0.041620914
0.04257258
0.043334132
0.043922959
0.044372393
0.044708496
0.044944671
0.045093324
0.045173438
0.045196179
0.045171817
0.045109298
0.045016837
0.044900727
0.044766949
0.04462013
0.044464467
0.044303428
0.044139984
0.043976641
0.04381552
0.043658423
0.043506872
0.043362159
0.043225387
0.043097493
0.042979264
0.042871362
0.042774344
0.042688676
0.042614743
0.042552865
0.042503294
0.042466215
0.042441772
0.042430118
0.0010991565
0.0036275649
0.00645671
0.0095311328
0.012770677
0.016082721
0.019374694
0.022563361
0.025580481
0.028375583
0.030916125
0.033185736
0.035181513
0.036911046
0.038389405
0.039636541
0.040675021
0.041528215
0.042218765
0.042759363
0.043180487
0.043506146
0.04374094
0.043901944
0.043999402
0.044046493
0.044051034
0.044021903
0.043964401
0.04388549
0.043789677
0.043681567
0.043564808
0.04344262
0.043317716
0.043192419
0.043068725
0.042948333
0.042832695
0.042723076
0.042620559
0.042526062
0.042440366
0.042364138
0.042297948
0.042242271
0.042197516
0.042164015
0.042142008
0.042131711
0.042133362
0.0010236705
0.0033577064
0.0059550663
0.0087728331
0.011747796
0.01480463
0.017865317
0.020857107
0.023717926
0.026399362
0.02886757
0.031102488
0.03309608
0.034850191
0.036374179
0.037682667
0.038793503
0.039726035
0.040499687
0.041132948
0.041636271
0.042041514
0.04235702
0.042594463
0.042767266
0.042883048
0.042953761
0.042986773
0.042987983
0.042964262
0.042919783
0.042859837
0.042788084
0.042708003
0.042622464
0.042533967
0.042444694
0.042356497
0.042270969
0.042189536
0.042113422
0.042043667
0.041981163
0.041926688
0.04188091
0.04184439
0.041817634
0.041801049
0.041794918
0.041799514
0.00095387562
0.0031117848
0.0055009911
0.0080879831
0.01082279
0.01364433
0.016487299
0.019288678
0.021992685
0.02455384
0.026938313
0.02912386
0.0310988
0.032860495
0.034413537
0.035767872
0.036937043
0.037936622
0.038782895
0.039491775
0.040077215
0.040562553
0.040950319
0.041257568
0.041501371
0.041686068
0.041822023
0.041915077
0.041974587
0.042005177
0.042012287
0.04200083
0.041974492
0.041937123
0.041891641
0.041840718
0.041786713
0.041731599
0.041677078
0.041624746
0.041575964
0.041531874
0.041493476
0.041461652
0.041437169
0.041420657
0.041412734
0.041413888
0.041424326
0.04144465
0.00088921757
0.0028868359
0.0050882269
0.0074669883
0.0099834852
0.012588275
0.015227018
0.0178456
0.02039446
0.022831596
0.025124151
0.027248844
0.02919152
0.030946136
0.032513397
0.033899261
0.035113443
0.036168062
0.037076466
0.037852331
0.038509222
0.039063771
0.039526636
0.039902046
0.040208812
0.040459199
0.040657031
0.040810998
0.040927632
0.041011119
0.041069607
0.041106269
0.041125449
0.041131243
0.041126252
0.041113454
0.041095385
0.041074086
0.041051304
0.041028857
0.041008224
0.040990628
0.04097716
0.040968806
0.040966447
0.040970718
0.040982392
0.041002018
0.041029935
0.041066651
0.00082922261
0.0026804298
0.0047116668
0.006901948
0.0092197139
0.011624974
0.014072729
0.01651689
0.018913896
0.02122551
0.023420538
0.025475544
0.027374835
0.029109863
0.030678248
0.03208261
0.033329345
0.034427471
0.035387617
0.036221252
0.036940336
0.037557869
0.038084376
0.038529658
0.038897952
0.03920923
0.039464232
0.039677286
0.039848357
0.039985641
0.040094733
0.040178392
0.040242725
0.040292053
0.040327513
0.040353118
0.040371537
0.04038463
0.040394116
0.040402191
0.040410412
0.040420028
0.040432213
0.040448054
0.04046851
0.040494362
0.040526384
0.040565193
0.040611268
0.040665113
0.00077348203
0.0024905489
0.0043670932
0.0063862903
0.0085229013
0.010744576
0.013014195
0.015292781
0.017542434
0.019728795
0.021822779
0.023801481
0.025648424
0.027353313
0.028911387
0.030322535
0.031590325
0.032721041
0.033722826
0.034604993
0.035377602
0.036051234
0.03663546
0.037139122
0.037569741
0.037941239
0.038251945
0.038518955
0.038741333
0.038930874
0.039088318
0.039219925
0.039329331
0.039421528
0.039496886
0.039560947
0.039616251
0.039664172
0.039706156
0.039745248
0.039782921
0.039820345
0.039858787
0.039899449
0.039943378
0.039991455
0.040044484
0.04010315
0.040168046
0.040239767
0.00072163992
0.0023154964
0.0040509823
0.0059144958
0.0078857578
0.0099385765
0.012042417
0.014164521
0.01627221
0.018334981
0.020326133
0.022223783
0.024011291
0.025677254
0.027215139
0.028622656
0.02990101
0.031054115
0.032087873
0.033009561
0.033827365
0.034549965
0.035185751
0.035742746
0.036228674
0.036652906
0.037019995
0.037341249
0.037614232
0.037850844
0.038054435
0.038233152
0.038386322
0.038520293
0.038636767
0.038739051
0.03883087
0.038913997
0.038988175
0.039058701
0.039126344
0.039192031
0.039257193
0.039323187
0.039391146
0.039462012
0.039536626
0.039615735
0.039700044
0.039790568
0.00067338364
0.0021538293
0.0037603588
0.0054818871
0.0073020391
0.0091995766
0.011149429
0.013124207
0.015095958
0.017037898
0.018925856
0.020739308
0.022461936
0.024081767
0.025591028
0.026985746
0.028265191
0.029431258
0.03048787
0.031440434
0.03229539
0.033059782
0.033740769
0.034345453
0.034880907
0.035354566
0.035772332
0.036141777
0.036467336
0.036749422
0.036999958
0.037221576
0.037416203
0.037591867
0.03774857
0.03788825
0.038016687
0.038134188
0.038242017
0.038343996
0.038441525
0.038535734
0.038627902
0.03871961
0.038812049
0.038906181
0.03900287
0.039102906
0.039206996
0.039315831
0.00062843624
0.0020043071
0.0034926849
0.0050844653
0.006766358
0.0085211052
0.010328145
0.01216467
0.01400694
0.015831662
0.017617235
0.019344719
0.020998465
0.022566383
0.02403992
0.025413859
0.026685929
0.027856341
0.028927299
0.02990254
0.030786915
0.031586008
0.032305763
0.032952289
0.03353179
0.034050548
0.034514316
0.034929071
0.035299394
0.035628906
0.035925935
0.036188067
0.036425033
0.036639641
0.036834776
0.037009919
0.037175659
0.037327626
0.037468081
0.037601681
0.037729367
0.037852295
0.037971532
0.038089206
0.038206482
0.03832426
0.038443423
0.038564796
0.038689108
0.038817045
0.00058655053
0.001865853
0.0032457751
0.004718784
0.0062740361
0.0078974717
0.0095722319
0.011279385
0.012998888
0.014710658
0.01639561
0.018036522
0.019618669
0.02113018
0.022562126
0.023908431
0.025165643
0.026332602
0.027410054
0.028400272
0.029306691
0.030133571
0.030885699
0.03156818
0.032186311
0.032745461
0.033250818
0.033707482
0.034119923
0.034492304
0.034829904
0.035135024
0.035414474
0.03566567
0.03589776
0.036108882
0.036310418
0.036496243
0.036667607
0.036833081
0.036991044
0.03714285
0.037288793
0.037432599
0.037574999
0.037716704
0.037858636
0.038001671
0.038146574
0.038294089
0.00054750428
0.0017375239
0.003017731
0.0043818495
0.0058209846
0.0073236476
0.0088760101
0.010462393
0.012065959
0.013669525
0.015256396
0.016811118
0.018320069
0.019771851
0.021157475
0.022470355
0.023706181
0.02486271
0.025939482
0.026937516
0.027859
0.028707009
0.029485248
0.030197848
0.030849219
0.031443908
0.031986443
0.032481266
0.032932541
0.033344269
0.033720634
0.034064941
0.034381411
0.03467183
0.034942086
0.03518731
0.035423516
0.03563819
0.035845296
0.036040204
0.036227965
0.036409047
0.036580306
0.03675055
0.036918356
0.037084144
0.037249013
0.037413929
0.037579685
0.037747081
0.00051109645
0.001618487
0.0028068902
0.0040710427
0.0054036092
0.0067951704
0.0082343716
0.0097082472
0.011202708
0.012703146
0.01419509
0.015664832
0.01709996
0.018489744
0.019825376
0.021100043
0.022308872
0.023448806
0.024518418
0.025517673
0.026447685
0.027310479
0.028108766
0.028845765
0.029525042
0.030150375
0.030725626
0.031254647
0.031741184
0.032188894
0.032601396
0.032981999
0.033334106
0.033660405
0.033964372
0.034247012
0.034515548
0.034761692
0.035001658
0.035223523
0.035441317
0.035649074
0.035849383
0.036045295
0.036237588
0.036427391
0.036615209
0.03680211
0.036988861
0.03717632
0.00047714416
0.0015080014
0.0026117862
0.0037840573
0.0050187334
0.0063080636
0.0076427098
0.009011957
0.010404052
0.011806643
0.013207285
0.014593946
0.015955463
0.01728191
0.018564849
0.019797464
0.020974571
0.022092545
0.023149212
0.02414368
0.025076158
0.025947751
0.026760286
0.027516136
0.028218083
0.028869184
0.029472657
0.03003179
0.030549864
0.031030131
0.031475796
0.031889912
0.032275475
0.03263522
0.032971945
0.033287826
0.033586281
0.033867052
0.034136924
0.034387672
0.034635217
0.034867231
0.035095269
0.035316862
0.035533425
0.035747409
0.03595801
0.03616691
0.036374666
0.036582258
0.00044548017
0.0014054038
0.0024311165
0.0035188496
0.0046635354
0.0058587711
0.0070968609
0.0083689496
0.0096652535
0.010975376
0.012288686
0.013594718
0.014883552
0.016146143
0.017374568
0.018562182
0.019703689
0.020795118
0.021833753
0.022818031
0.023747411
0.024622221
0.025443505
0.02621288
0.026932406
0.02760447
0.028231679
0.028816776
0.029362569
0.029871888
0.030347548
0.030792298
0.031208813
0.031599646
0.031967291
0.032314025
0.032642278
0.03295356
0.033250812
0.033533654
0.03380846
0.0340665
0.03432306
0.034566868
0.034806536
0.03504559
0.035278279
0.035509216
0.035737795
0.035965501
0.00041595094
0.0013100969
0.0022637176
0.0032735991
0.0043354971
0.0054441014
0.0065930537
0.0077750311
0.0089819002
0.01020494
0.011435122
0.012663414
0.013881093
0.015080026
0.016252899
0.017393381
0.018496221
0.019557279
0.020573485
0.021542779
0.022464024
0.023336901
0.024161783
0.024939618
0.02567182
0.026360158
0.027006671
0.027613581
0.028183228
0.028718022
0.029220399
0.02969278
0.030137548
0.030557012
0.030953419
0.031328914
0.031685583
0.032025228
0.03234987
0.032660753
0.032960436
0.033248228
0.033530013
0.033796816
0.034062671
0.034324643
0.03457658
0.034830263
0.035079019
0.035326823
0.00038841497
0.00122154
0.0021085447
0.0030466759
0.0040323623
0.0050611818
0.0061278667
0.0072263534
0.0083498845
0.0094911639
0.010642558
0.011796326
0.012944869
0.014080958
0.015197941
0.0162899
0.017351764
0.018379359
0.019369422
0.020319553
0.021228165
0.022094419
0.022918126
0.023699661
0.024439863
0.025139949
0.02580143
0.02642604
0.027015671
0.027572325
0.028098067
0.028594987
0.029065172
0.029510679
0.029933516
0.03033563
0.030718905
0.031085093
0.031435922
0.031772894
0.032097697
0.032411288
0.032715864
0.033010609
0.033301203
0.033580085
0.033858343
0.034133207
0.034398842
0.034667295
0.00036274143
0.0011392417
0.0019646551
0.0028366146
0.0037521016
0.0047074195
0.0056981905
0.0067193851
0.0077653888
0.0088301074
0.0099071108
0.010989805
0.012071618
0.013146194
0.01420756
0.015250277
0.016269547
0.017261288
0.018222158
0.019149559
0.020041591
0.020897012
0.021715181
0.022495991
0.023239785
0.02394729
0.024619543
0.025257827
0.025863612
0.026438509
0.026984224
0.027502523
0.027995199
0.028464047
0.028910845
0.029337329
0.02974519
0.030136052
0.030511476
0.030872925
0.031221836
0.031559445
0.031887172
0.032205828
0.032517486
0.032821588
0.033122743
0.033412683
0.033702096
0.033990544
0.00033880917
0.0010627534
0.0018311951
0.0026420923
0.0034928842
0.0043804685
0.0053011957
0.0062508853
0.0072248687
0.0082180609
0.0092250603
0.010240274
0.011258061
0.012272878
0.013279426
0.014272775
0.01524847
0.016202609
0.017131881
0.018033592
0.018905648
0.019746522
0.020555223
0.021331248
0.022074528
0.022785364
0.023464373
0.024112428
0.024730612
0.02532017
0.025882465
0.02641895
0.02693113
0.02742054
0.027888722
0.028337207
0.028767494
0.029181045
0.029579278
0.029963547
0.030335159
0.030695334
0.031045286
0.031386086
0.031719021
0.032044861
0.032365386
0.03268069
0.032986166
0.03329039
0.00031650634
0.00099166534
0.0017073885
0.0024619112
0.0032530533
0.0040782019
0.0049343049
0.0058178793
0.0067250387
0.0076515405
0.0085928557
0.0095442587
0.010500932
0.011458081
0.012411049
0.013355424
0.014287134
0.015202521
0.016098388
0.016972039
0.017821277
0.018644394
0.019440144
0.020207719
0.020946709
0.02165706
0.022339024
0.022993113
0.023620058
0.024220766
0.024796282
0.025347759
0.025876427
0.026383565
0.026870485
0.027338505
0.027788939
0.028223081
0.028642197
0.029047516
0.029440226
0.029821465
0.030192337
0.03055389
0.030907179
0.031253122
0.031592737
0.031926424
0.032254046
0.032579636
0.00029572948
0.00092560294
0.0015925286
0.0022949837
0.0030311061
0.0037986878
0.0045951681
0.0054176381
0.0062628571
0.007127284
0.0080071256
0.0088983993
0.0097970102
0.010698837
0.011599822
0.01249606
0.013383879
0.014259905
0.015121121
0.015964899
0.016789018
0.017591672
0.01837145
0.019127318
0.019858603
0.020564957
0.021246326
0.021902912
0.022535132
0.023143588
0.023729035
0.024292346
0.024834487
0.025356497
0.025859457
0.026344483
0.026812699
0.027265231
0.027703192
0.028127673
0.02853974
0.02894043
0.029330744
0.029711646
0.03008407
0.030448882
0.030806897
0.031158734
0.031505011
0.03184726
0.0002763795
0.00086421989
0.0014859724
0.002140321
0.0028256776
0.0035401694
0.0042816417
0.0050476585
0.0058355125
0.0066422456
0.0074646817
0.0082994705
0.0091431431
0.0099921753
0.010843057
0.011692364
0.01253682
0.013373363
0.014199193
0.015011806
0.015809024
0.016589009
0.017350257
0.018091586
0.018812125
0.019511301
0.020188809
0.020844586
0.021478783
0.022091733
0.022683925
0.023255978
0.023808616
0.024342645
0.024858934
0.025358395
0.025841969
0.026310612
0.026765284
0.027206938
0.027636513
0.028054929
0.028463084
0.028861845
0.029252047
0.029634476
0.030009866
0.030378872
0.030742149
0.031100502
0.00025836616
0.00080719556
0.0013871287
0.0019970247
0.0026355262
0.0033010477
0.0039917695
0.0047056461
0.005440411
0.00619359
0.0069625228
0.0077443939
0.0085362718
0.0093351552
0.010138026
0.010941902
0.011743894
0.012541255
0.013331423
0.014112061
0.014881085
0.015636676
0.016377297
0.017101682
0.01780883
0.018497997
0.019168683
0.019820612
0.020453707
0.021068071
0.021663963
0.022241771
0.022801997
0.023345235
0.02387215
0.024383464
0.024879938
0.025362364
0.025831549
0.026288305
0.026733445
0.027167768
0.027592063
0.028007095
0.028413607
0.028812301
0.029203842
0.029588849
0.029967916
0.030341656
0.00024160539
0.00075423696
0.0012954539
0.0018642711
0.002459524
0.0030798673
0.003723767
0.0043894997
0.0050751636
0.0057786856
0.006497836
0.0072302492
0.0079734515
0.0087248947
0.0094819949
0.010242174
0.011002903
0.011761741
0.01251638
0.013264671
0.014004655
0.014734582
0.015452928
0.016158393
0.016849901
0.017526594
0.018187826
0.018833154
0.019462319
0.020075231
0.020671948
0.021252659
0.021817669
0.022367376
0.022902259
0.02342286
0.023929773
0.02442363
0.024905087
0.025374819
0.02583351
0.026281841
0.02672049
0.02715012
0.027571376
0.027984878
0.028391217
0.028790951
0.029184611
0.029572732
0.00022601898
0.00070507412
0.0012104526
0.0017413063
0.0022966393
0.002875305
0.0034760075
0.0040972977
0.0047375748
0.0053950984
0.0060679971
0.0067542826
0.0074518693
0.0081585977
0.0088722637
0.009590649
0.010311555
0.011032834
0.011752427
0.012468383
0.013178895
0.013882313
0.014577161
0.015262146
0.015936165
0.016598289
0.017247778
0.017884062
0.018506743
0.019115572
0.019710442
0.020291374
0.020858496
0.021412036
0.021952304
0.022479678
0.022994593
0.02349753
0.023989005
0.024469557
0.024939742
0.025400126
0.025851276
0.026293751
0.026728103
0.027154865
0.027574549
0.027987644
0.028394615
0.028795935
0.00021153435
0.00065945862
0.0011316714
0.0016274455
0.0021459308
0.0026861528
0.0032470119
0.0038272867
0.0044256326
0.0050405846
0.0056705691
0.0063139135
0.006968859
0.0076335781
0.0083061944
0.0089848068
0.009667514
0.010352441
0.011037764
0.011721738
0.012402714
0.013079162
0.013749686
0.014413032
0.015068099
0.015713935
0.01634974
0.016974861
0.017588795
0.018191173
0.018781756
0.01936042
0.019927151
0.020482025
0.021025201
0.021556912
0.022077448
0.022587151
0.023086401
0.023575611
0.024055215
0.024525664
0.024987415
0.02544093
0.025886663
0.026325061
0.026756555
0.027181561
0.027600474
0.028013701
0.00019808434
0.00061716227
0.0010586957
0.0015220644
0.0020065453
0.0025113112
0.0030354312
0.0035778715
0.0041374995
0.0047130845
0.0053033008
0.0059067386
0.0065219138
0.0071472799
0.0077812421
0.008422175
0.0090684413
0.0097184122
0.010370487
0.011023116
0.011674813
0.012324181
0.012969918
0.013610837
0.014245866
0.014874059
0.01549459
0.016106759
0.016709991
0.01730383
0.017887935