/*--------------------------------*- C++ -*----------------------------------*\
| =========                 |                                                 |
| \\      /  F ield         | OpenFOAM: The Open Source CFD Toolbox           |
|  \\    /   O peration     | Version:  2312                                  |
|   \\  /    A nd           | Website:  www.openfoam.com                      |
|    \\/     M anipulation  |                                                 |
\*---------------------------------------------------------------------------*/
FoamFile
{
    version     2.0;
    format      ascii;
    arch        "LSB;label=32;scalar=64";
    class       volScalarField;
    location    "0.05";
    object      k;
}
// * * * * * * * * * * * * * * * * * * * * * * * * * * * * * * * * * * * * * //

dimensions      [0 2 -2 0 0 0 0];

internalField   nonuniform List<scalar> 
3275
(
11.308568
12.198744
13.150712
14.166943
15.300163
16.601319
18.096324
19.76988
21.578705
23.460376
25.341832
27.173077
28.899286
30.445157
31.750707
32.758531
33.409809
33.763981
33.896519
33.866119
33.717331
33.467949
33.14869
32.777365
32.367639
31.930059
31.472814
31.002294
30.523504
30.040377
29.556009
29.072839
28.592787
28.117363
27.647748
27.184858
26.729402
26.281914
25.84279
25.412318
24.99069
24.578026
24.174387
23.779784
23.394184
23.017522
22.649716
22.290658
21.940222
21.59827
21.264655
20.939222
11.37335
12.255868
13.172389
14.172804
15.301614
16.602928
18.098887
19.771949
21.578826
23.457592
25.335893
27.16368
28.88625
30.428948
31.731863
32.737699
33.387842
33.741373
33.873764
33.843588
33.695325
33.446676
33.128269
32.757861
32.349076
31.912437
31.456114
30.986486
30.508552
30.026239
29.542642
29.060201
28.580837
28.10606
27.637053
27.174737
26.719818
26.272835
25.834187
25.404161
24.982953
24.570685
24.167418
23.773165
23.387896
23.011548
22.644038
22.285258
21.935087
21.593385
21.260008
20.934798
11.503248
12.345079
13.200856
14.178253
15.302298
16.605499
18.103619
19.775676
21.578632
23.45162
25.323663
27.144575
28.859916
30.396321
31.693991
32.695862
33.343718
33.69599
33.828125
33.798426
33.651242
33.40408
33.087392
32.718827
32.311935
31.877184
31.422711
30.95487
30.478648
29.997966
29.515914
29.034933
28.556945
28.083464
27.615676
27.154504
26.700662
26.254691
25.816995
25.387863
24.967497
24.556022
24.153501
23.759951
23.375345
22.999624
22.632706
22.274487
21.924844
21.583644
21.250742
20.925981
11.673381
12.411978
13.210513
14.173649
15.299103
16.608383
18.109835
19.780228
21.57733
23.441765
25.304564
27.115298
28.819932
30.347023
31.636895
32.632839
33.277209
33.627644
33.759468
33.730552
33.585046
33.340154
33.026074
32.660296
32.256255
31.824345
31.372649
30.907493
30.43384
29.955602
29.475868
28.997075
28.52115
28.04961
27.583648
27.124194
26.671965
26.227511
25.79124
25.36345
24.944346
24.534058
24.132656
23.740161
23.356549
22.981768
22.615738
22.258357
21.909508
21.569059
21.236868
20.91278
11.75765
12.388197
13.180886
14.151006
15.290305
16.611222
18.116435
19.784377
21.573778
23.427028
25.277761
27.075174
28.765781
30.280671
31.56027
32.548351
33.18798
33.536056
33.667602
33.639844
33.496685
33.254891
32.944338
32.582308
32.182092
31.753981
31.305997
30.84442
30.374193
29.899214
29.422565
28.946686
28.473507
28.004552
27.54102
27.08385
26.633769
26.191333
25.75696
25.330955
24.91353
24.504824
24.104912
23.71382
23.331534
22.958003
22.593154
22.236891
21.889098
21.549648
21.218403
20.895212
11.381324
12.250837
13.11111
14.11395
15.27689
16.613114
18.122679
19.786703
21.566976
23.407364
25.244234
27.026321
28.700774
30.201585
31.469259
32.448136
33.08206
33.427494
33.558909
33.532683
33.39244
33.154399
32.848073
32.490507
32.094827
31.671211
31.227607
30.770251
30.304059
29.832915
29.359896
28.887444
28.417494
27.951577
27.490903
27.036418
26.588861
26.148797
25.716654
25.292747
24.877296
24.470448
24.072287
23.682847
23.302117
22.930057
22.566598
22.211647
21.865096
21.526821
21.196689
20.874552
11.231196
12.106911
13.030478
14.072789
15.261946
16.613253
18.127164
19.786797
21.556464
23.38272
25.204415
26.969762
28.626565
30.111908
31.366425
32.335062
32.96248
33.30512
33.436614
33.412297
33.275492
33.041769
32.74026
32.38775
31.997184
31.578623
31.139937
30.687314
30.22564
29.758788
29.28983
28.821211
28.35487
27.89235
27.434868
26.983385
26.538648
26.101235
25.671585
25.250022
24.836778
24.432007
24.035803
23.648208
23.269219
22.898803
22.536896
22.183413
21.83825
21.50129
21.172402
20.851443
11.175299
11.988431
12.950743
14.029708
15.245043
16.611214
18.129153
19.783464
21.540397
23.350008
25.154127
26.900194
28.536745
30.004099
31.243283
32.199879
32.819472
33.159033
33.290927
33.269129
33.136624
32.908172
32.612482
32.266036
31.881579
31.469038
31.036195
30.589186
30.132868
29.671098
29.206947
28.742861
28.28079
27.822286
27.36858
26.920644
26.479242
26.044963
25.61826
25.199469
24.788833
24.386519
23.992629
23.607216
23.230286
22.861814
22.501743
22.149996
21.806476
21.471069
21.143653
20.824089
11.161627
11.911667
12.884815
13.990112
15.227682
16.606777
18.127383
19.774778
21.517095
23.307555
25.091313
26.815619
28.429533
29.876234
31.097841
32.04051
32.65088
32.98717
33.11993
33.101409
32.974203
32.752099
32.463337
32.124063
31.746795
31.341314
30.91531
30.474861
30.024793
29.56895
29.1104
28.651595
28.194496
27.740668
27.291357
26.847552
26.410031
25.9794
25.556127
25.140562
24.732963
24.333509
23.942314
23.559441
23.184909
22.8187
22.460768
22.111043
21.769435
21.435839
21.110138
20.792198
11.168621
11.874888
12.839471
13.958107
15.211194
16.599546
18.1204
19.758735
21.484418
23.253399
25.013827
26.713859
28.302835
29.726235
30.927902
31.854673
32.454399
32.787364
32.921627
32.907306
32.786537
32.571993
32.291388
31.960492
31.591582
31.194283
30.776184
30.343305
29.900442
29.451425
28.999321
28.546592
28.095211
27.646759
27.2025
26.763443
26.330384
25.903947
25.484617
25.072761
24.668653
24.272486
23.88439
23.504438
23.132663
22.769058
22.413586
22.066187
21.72678
21.395267
21.071537
20.755467
11.185878
11.868154
12.815243
13.935431
15.196055
16.588693
18.106448
19.733227
21.439959
23.185142
24.919461
26.592522
28.154301
29.551839
30.731057
31.639859
32.227599
32.557369
32.693969
32.684966
32.571898
32.366273
32.095174
31.773967
31.414675
31.026758
30.617704
30.193471
29.758825
29.317587
28.872825
28.427013
27.982139
27.539804
27.101294
26.667638
26.239654
25.817987
25.403143
24.995507
24.595372
24.202946
23.818375
23.44175
23.073113
22.712471
22.3598
22.015049
21.678147
21.349006
21.027524
20.713582
11.207548
11.880957
12.808631
13.921457
15.181679
16.57294
18.083623
19.695905
21.381191
23.100092
24.805711
26.449134
27.981245
29.350546
30.504745
31.393282
31.967956
32.294911
32.434892
32.432563
32.328539
32.13336
31.873234
31.563126
31.214801
30.837547
30.438746
30.024299
29.598943
29.16649
28.730016
28.292007
27.854472
27.419036
26.987008
26.559442
26.13718
25.720894
25.311108
24.908231
24.512575
24.12437
23.743777
23.370903
23.005807
22.64851
22.299
21.957239
21.623165
21.296702
20.977757
20.66622
11.230149
11.904475
12.81411
13.913683
15.166426
16.550484
18.049721
19.644199
21.305374
22.995452
24.669785
26.280998
27.780876
29.11953
30.24622
31.111806
31.672894
31.99775
32.142356
32.148383
32.054695
31.871711
31.624131
31.326628
30.990701
30.625463
30.238193
29.834732
29.419794
28.997185
28.569992
28.140718
27.711397
27.28368
26.858904
26.438152
26.022294
25.612026
25.207901
24.810351
24.41971
24.036229
23.660089
23.291416
22.930287
22.576736
22.230767
21.892355
21.561451
21.237989
20.921887
20.613046
11.251473
11.931555
12.825524
13.908308
15.147732
16.519009
18.002259
19.575389
21.209591
22.868273
24.508705
26.085099
27.550301
28.855808
29.952445
30.791766
31.339864
31.663755
31.814469
31.830681
31.74874
31.579876
31.346483
31.06317
30.741147
30.389349
30.014947
29.62373
29.220389
28.808731
28.391857
27.972293
27.5521
27.13296
26.716242
26.303062
25.894319
25.490741
25.092908
24.701279
24.316213
23.937985
23.566798
23.202799
22.846081
22.496699
22.154671
21.819987
21.492611
21.172491
20.859556
20.553718
11.269871
11.956359
12.836611
13.900731
15.122287
16.475713
17.938482
19.486585
21.090797
22.715422
24.319343
25.858286
27.28634
28.556305
29.620324
30.430227
30.966642
31.290992
31.449533
31.477826
31.409241
31.256492
31.038995
30.771523
30.464973
30.128092
29.767948
29.390281
28.999762
28.600206
28.19473
27.785888
27.375774
26.966104
26.558284
26.153464
25.75258
25.356391
24.965508
24.580421
24.201517
23.829095
23.463385
23.104553
22.752715
22.407945
22.070277
21.739717
21.416248
21.099827
20.790399
20.487885
11.283786
11.973685
12.841339
13.885938
15.086235
16.417379
17.855364
19.374731
20.945827
22.533634
24.098405
25.597294
26.985665
28.217684
29.246784
30.025417
30.551384
30.877888
31.04609
31.088439
31.034982
30.90031
30.70049
30.450561
30.161095
29.840651
29.496196
29.133421
28.756988
28.370719
27.977755
27.580681
27.181629
26.782354
26.384301
25.98866
25.596406
25.208332
24.825085
24.447187
24.075054
23.709016
23.349327
22.996178
22.649709
22.310012
21.977143
21.651125
21.331955
21.019609
20.714043
20.415193
11.291318
11.978322
12.833894
13.85877
15.035354
16.340438
17.749631
19.236603
20.771398
22.319543
23.842472
25.298688
26.644839
27.83644
28.828414
29.57562
30.09268
30.423236
30.603068
30.661443
30.624989
30.51029
30.329961
30.0993
29.828549
29.526083
29.19877
28.852257
28.491198
28.119429
27.740117
27.355885
26.968905
26.580975
26.193586
25.807968
25.425139
25.045932
24.671029
24.300989
23.936261
23.577204
23.224103
22.877174
22.536581
22.20244
21.874826
21.553783
21.239325
20.931445
20.630114
20.335282
11.290095
11.964207
12.808604
13.814102
14.96522
16.24105
17.617783
19.068817
20.564111
22.069686
23.548022
24.95891
26.260261
27.408912
28.361226
29.079282
29.589684
29.926329
30.11979
30.196161
30.178621
30.085623
29.92662
29.716937
29.466524
29.183574
28.874859
28.545985
28.201601
27.845558
27.481056
27.110758
26.73688
26.361267
25.985457
25.610729
25.238142
24.868573
24.502745
24.141253
23.784583
23.433127
23.087198
22.747045
22.412855
22.084769
21.762885
21.447266
21.137949
20.834942
20.538234
20.247789
11.284142
11.939168
12.760043
13.747031
14.871341
16.115175
17.456118
18.867836
20.32046
21.780507
23.211439
24.574298
25.828202
26.931278
27.839969
28.535472
29.042168
29.387091
29.596101
29.692293
29.695742
29.625722
29.489951
29.302894
29.074394
28.812467
28.523785
28.213916
27.887503
27.548415
27.199886
26.844621
26.484886
26.122575
25.759275
25.396317
25.034806
24.675665
24.319659
23.967423
23.619481
23.276261
22.938109
22.605303
22.27806
21.956545
21.640881
21.331154
21.02742
20.729707
20.438025
20.152357
11.27532
11.906717
12.693221
13.653077
14.749275
15.958638
17.260772
18.629982
20.036839
21.448372
22.829018
24.141098
25.344836
26.399917
27.266872
27.944859
28.450831
28.806115
29.032444
29.15001
29.176697
29.130288
29.019802
28.856858
28.651762
28.412299
28.145038
27.855505
27.548335
27.227414
26.896011
26.556876
26.212324
25.864303
25.514452
25.164153
24.814563
24.466651
24.121226
23.778967
23.440438
23.106104
22.776347
22.451476
22.131737
21.817325
21.508385
21.205031
20.907337
20.615355
20.329113
11.264555
11.868955
12.615201
13.530627
14.594679
15.767175
17.027756
18.351461
19.709569
21.069585
22.396971
23.65549
24.806179
25.810048
26.644165
27.309361
27.817334
28.184793
28.42989
28.570202
28.621738
28.599977
28.516237
28.37881
28.198486
27.982833
27.738302
27.470375
27.183673
26.882096
26.568947
26.247019
25.918682
25.585932
25.250464
24.913715
24.576895
24.241017
23.906941
23.575389
23.246968
22.922182
22.601448
22.285111
21.973447
21.66668
21.364983
21.068493
20.777309
20.491506
20.211123
11.252372
11.827259
12.5302
13.39208
14.404553
15.536435
16.753009
18.028386
19.33494
20.640417
21.911429
23.113643
24.208269
25.167413
25.975841
26.632161
27.144317
27.525318
27.790227
27.954262
28.03176
28.035917
27.979598
27.869089
27.714734
27.524085
27.303488
27.058349
26.793267
26.512154
26.218343
25.914667
25.603547
25.287032
24.966868
24.644553
24.321344
23.998307
23.676347
23.356236
23.038623
22.724051
22.412978
22.105782
21.802772
21.504203
21.210275
20.921153
20.63696
20.357794
20.083711
11.239114
11.782618
12.44087
13.244969
14.194929
15.268107
16.43248
17.656807
18.909292
20.157169
21.368399
22.511812
23.556552
24.479466
25.267378
25.917615
26.435373
26.830677
27.115931
27.304203
27.408207
27.439733
27.410569
27.328452
27.201002
27.036386
26.840765
26.619471
26.377066
26.117456
25.844002
25.559569
25.266631
24.967279
24.663317
24.356299
24.047532
23.738129
23.429049
23.121109
22.815002
22.511314
22.210541
21.913097
21.619326
21.329513
21.043889
20.762646
20.485931
20.21387
19.946545
11.225042
11.735814
12.348993
13.093993
13.976121
14.980015
16.078183
17.239106
18.429864
19.61764
20.771295
21.861879
22.863069
23.754879
24.525411
25.171079
25.694964
26.104626
26.410151
26.622659
26.753319
26.812787
26.811064
26.7578
26.658129
26.520357
26.350591
26.154051
25.935242
25.698071
25.445906
25.181637
24.907786
24.626479
24.339577
24.048689
23.755168
23.460176
23.164722
22.869672
22.575763
22.283624
21.993788
21.706708
21.422761
21.142266
20.865483
20.592633
20.323889
20.059407
11.210372
11.6875
12.255853
12.94218
13.754804
14.684161
15.707876
16.796908
17.919465
19.043646
20.13936
21.179323
22.139865
23.002959
23.757367
24.398696
24.928285
25.351601
25.676678
25.912843
26.069803
26.157065
26.183549
26.158269
26.087373
25.976982
25.833721
25.662653
25.468222
25.254294
25.024233
24.780957
24.527023
24.264577
23.99554
23.721574
23.444066
23.164231
22.883126
22.601668
22.320635
22.040696
21.762427
21.486315
21.212773
20.942156
20.67475
20.410809
20.150533
19.894099
11.195296
11.638248
12.162437
12.791543
13.535316
14.388558
15.33384
16.345898
17.395537
18.452729
19.488853
20.478098
21.398487
22.23316
22.971109
23.607149
24.141107
24.576616
24.919867
25.178523
25.36089
25.475348
25.529965
25.532335
25.490164
25.407566
25.291239
25.14616
24.97669
24.786651
24.57939
24.357823
24.124529
23.881682
23.631248
23.374935
23.114159
22.850186
22.584122
22.316928
22.049425
21.782321
21.51623
21.251681
20.989116
20.728927
20.471434
20.216916
19.965603
19.717692
11.179984
11.588564
12.069542
12.643476
13.320477
14.098483
14.964442
15.897261
16.871157
17.858702
18.833217
19.770422
20.64962
21.454689
22.174611
22.803418
23.339589
23.785125
24.144538
24.423938
24.630285
24.770845
24.85279
24.882938
24.868182
24.813842
24.724565
24.605744
24.461622
24.295943
24.112009
23.912732
23.700692
23.478089
23.246911
23.008901
22.765514
22.518056
22.267679
22.015386
21.762033
21.50837
21.25505
21.002635
20.751607
20.502386
20.255328
20.01074
19.76888
19.529965
11.164587
11.538899
11.977831
12.498968
13.112112
13.817342
14.60525
15.45879
16.355895
17.272185
18.183309
19.066699
19.902845
20.676203
21.375665
21.994537
22.530096
22.982879
23.35587
23.653723
23.882108
24.047191
24.155248
24.212408
24.224534
24.197559
24.135472
24.042909
23.924286
23.783231
23.622984
23.446427
23.256117
23.054277
22.842907
22.623768
22.398352
22.167996
21.933894
21.697088
21.458466
21.218814
20.978823
20.739091
20.500136
20.262406
20.026291
19.792125
19.560195
19.330741
11.149242
11.48965
11.887864
12.358743
12.911392
13.54726
14.259844
15.035737
15.856542
16.701109
17.547663
18.375544
19.1665
19.905587
20.581649
21.187377
21.719006
22.175772
22.559272
22.872808
23.120816
23.308386
23.440893
23.523737
23.562169
23.561178
23.526013
23.459479
23.366259
23.249869
23.113468
22.959884
22.791634
22.610946
22.419817
22.220011
22.013054
21.800311
21.583005
21.362212
21.138846
20.91373
20.68759
20.461056
20.234678
20.008936
19.784248
19.560979
19.339442
19.1199
11.134067
11.441166
11.80011
12.223337
12.719049
13.289494
13.930402
14.631479
15.377724
16.151184
16.93277
17.703871
18.447625
19.149804
19.799337
20.388459
20.912537
21.369685
21.760255
22.086309
22.351113
22.558719
22.713606
22.820425
22.88381
22.908217
22.898245
22.857613
22.789425
22.697504
22.584893
22.454341
22.30831
22.14901
21.978418
21.798293
21.610183
21.415472
21.215402
21.01107
20.803424
20.593315
20.381498
20.168634
19.955302
19.742011
19.529208
19.317284
19.10658
18.897381
11.119167
11.393745
11.714963
12.093144
12.535513
13.04471
13.618119
14.248013
14.922398
15.626323
16.343362
17.057027
17.751964
18.414816
19.034771
19.603799
20.116598
20.570343
20.964301
21.299411
21.577856
21.802693
21.977523
22.106249
22.192874
22.241366
22.25559
22.239482
22.195967
22.128067
22.038963
21.931299
21.807463
21.669619
21.519712
21.359485
21.190491
21.014123
20.831633
20.644132
20.452595
20.257898
20.060818
19.862043
19.66218
19.461764
19.261267
19.061106
18.861646
18.663198
11.104629
11.347636
11.632743
11.96845
12.36101
12.813173
13.323511
13.886349
14.492261
15.129009
15.782697
16.43896
17.084026
17.70555
18.293168
18.838789
19.33665
19.783181
20.176734
20.517258
20.805949
21.044931
21.236963
21.385202
21.493021
21.563857
21.601116
21.608071
21.588211
21.543774
21.477655
21.392518
21.290655
21.174158
21.044924
20.904665
20.754925
20.597093
20.432421
20.262027
20.086905
19.907948
19.725951
19.541626
19.3556
19.168432
18.980618
18.7926
18.604764
18.417441
11.090526
11.303048
11.553705
11.849451
12.195617
12.594878
13.046629
13.546789
14.08807
14.660605
15.25282
15.852394
16.447171
17.025918
17.578883
18.098117
18.577605
19.013231
19.402607
19.744837
20.040242
20.290088
20.496338
20.661432
20.78811
20.87927
20.937855
20.966764
20.968805
20.94706
20.903208
20.84002
20.759699
20.66425
20.555505
20.43513
20.30464
20.165407
20.018674
19.865558
19.707061
19.544085
19.37744
19.207853
19.035969
18.862368
18.687565
18.512022
18.336146
18.160288
11.07692
11.260144
11.478046
11.73627
12.039305
12.38964
12.787209
13.229148
13.709899
14.221615
14.754792
15.299018
15.843724
16.378857
16.895398
17.385719
17.843753
18.265029
18.646601
18.986878
19.285428
19.542751
19.760075
19.939158
20.08213
20.191347
20.269285
20.318452
20.341326
20.340349
20.318117
20.276067
20.216648
20.141755
20.053134
19.95239
19.840995
19.720286
19.591487
19.455704
19.313935
19.167087
19.015976
18.861338
18.70383
18.544048
18.382525
18.219737
18.05611
17.89201
11.063855
11.219052
11.405904
11.628964
11.891966
12.19715
12.544784
12.932906
13.357333
13.811901
14.288903
14.779659
15.275114
15.766408
16.245349
16.704764
17.138707
17.542544
17.912936
18.247758
18.54595
18.807349
19.032522
19.222599
19.379124
19.50393
19.599029
19.66653
19.708569
19.727267
19.724747
19.703143
19.66378
19.608754
19.539711
19.458175
19.365556
19.263149
19.152144
19.033623
18.908575
18.777898
18.642405
18.502838
18.35986
18.214078
18.066036
17.916223
17.765078
17.612982
11.051369
11.179863
11.337373
11.527539
11.753434
12.017022
12.318754
12.657326
13.029625
13.430857
13.854848
14.294446
14.741999
15.189813
15.630571
16.057659
16.465391
16.849129
17.205312
17.531426
17.825916
18.088067
18.31787
18.515884
18.683116
18.820897
18.93079
19.014506
19.073833
19.110593
19.126594
19.123648
19.103574
19.067537
19.017341
18.954415
18.880094
18.795614
18.702118
18.600659
18.4922
18.377622
18.257732
18.133265
18.004883
17.873201
17.738768
17.602081
17.463588
17.323683
11.039487
11.14264
11.272499
11.431951
11.623496
11.848816
12.108442
12.401536
12.725802
13.07755
13.451874
13.842954
14.244397
14.649616
15.052176
15.446089
15.826033
16.187501
16.526856
16.841338
17.129027
17.388767
17.620062
17.822978
17.998029
18.146087
18.268286
18.365948
18.440518
18.493511
18.52647
18.540933
18.538438
18.520572
18.488316
18.443233
18.386567
18.319485
18.243072
18.158335
18.066205
17.967537
17.863122
17.753678
17.639866
17.522298
17.40152
17.278035
17.152299
17.024708
11.028225
11.107418
11.211293
11.342119
11.501904
11.692059
11.913127
12.164586
12.444759
12.750821
13.078912
13.424334
13.781809
14.145768
14.51063
14.871066
15.222194
15.559737
15.880102
16.180418
16.45852
16.712919
16.942731
17.1476
17.327616
17.48323
17.61518
17.72442
17.812059
17.879312
17.927455
17.957792
17.971627
17.970252
17.955091
17.926919
17.887104
17.836739
17.776836
17.708346
17.632155
17.549084
17.459897
17.365295
17.265927
17.162389
17.055226
16.944943
16.831989
16.716767
11.017595
11.074205
11.153733
11.257928
11.388385
11.546262
11.732068
11.945491
12.185312
12.449378
12.73467
13.037427
13.353333
13.677729
14.005844
14.333002
14.654806
14.967285
15.266985
15.551029
15.817124
16.063551
16.289128
16.493163
16.675382
16.835871
16.97501
17.093412
17.191868
17.271302
17.332729
17.377217
17.405865
17.419776
17.420025
17.40791
17.383986
17.349509
17.3054
17.252544
17.19177
17.12386
17.04954
16.969486
16.884324
16.794636
16.70096
16.603786
16.503561
16.40069
11.007617
11.042985
11.099765
11.179237
11.282646
11.410926
11.564523
11.743261
11.946249
12.171852
12.417717
12.680853
12.957756
13.244571
13.537261
13.831781
14.124235
14.411005
14.688849
14.954969
15.207037
15.443202
15.662077
15.862706
16.044525
16.207309
16.351125
16.476278
16.583268
16.672744
16.745467
16.802277
16.844066
16.871753
16.886266
16.888539
16.879606
16.86006
16.830892
16.792921
16.746917
16.693606
16.633673
16.567759
16.496463
16.420344
16.339921
16.255677
16.168046
16.077424
10.998281
11.013775
11.04932
11.105884
11.184381
11.28555
11.409762
11.556916
11.72636
11.916847
12.126547
12.353089
12.59365
12.845061
13.103943
13.366838
13.630342
13.891216
14.146478
14.393473
14.629917
14.853908
15.063934
15.258854
15.43788
15.600534
15.746618
15.876172
15.98943
16.086791
16.168777
16.23601
16.289181
16.329027
16.356316
16.37183
16.376346
16.370707
16.35555
16.331593
16.299583
16.26019
16.214047
16.161754
16.103876
16.040941
15.973446
15.901853
15.826588
15.748036
10.989484
10.986647
11.002364
11.037692
11.093277
11.169637
11.267068
11.385504
11.524457
11.682973
11.859623
12.052535
12.259437
12.477746
12.704654
12.937238
13.172557
13.407756
13.640141
13.867248
14.08689
14.297185
14.496567
14.683779
14.857871
15.018174
15.164274
15.295985
15.413313
15.516432
15.605647
15.681374
15.744114
15.794428
15.832923
15.860235
15.877014
15.883915
15.8816
15.870769
15.851861
15.825587
15.792527
15.753227
15.708211
15.657974
15.602982
15.543675
15.48046
15.413704
10.981311
10.961263
10.958879
10.97451
11.009012
11.062699
11.135747
11.228104
11.339392
11.46887
11.615418
11.777554
11.953456
12.141023
12.337939
12.541752
12.74995
12.960048
13.169647
13.376504
13.578574
13.774043
13.961348
14.13918
14.306486
14.462457
14.606517
14.738295
14.857608
14.964431
15.05888
15.141183
15.211663
15.270716
15.318794
15.356391
15.384028
15.402244
15.411585
15.412581
15.405913
15.391855
15.371068
15.344029
15.311219
15.273093
15.230085
15.182603
15.131033
15.07572
10.973731
10.937726
10.91844
10.916233
10.931299
10.964254
11.015131
11.083835
11.170062
11.273224
11.392436
11.526517
11.674005
11.833196
12.002185
12.178929
12.361302
12.547161
12.734401
12.921011
13.105114
13.285003
13.459163
13.626281
13.785254
13.935186
14.07538
14.205327
14.324688
14.433279
14.531047
14.618057
14.694471
14.760531
14.816546
14.862872
14.899907
14.928075
14.947818
14.959586
14.963849
14.961066
14.951691
14.936084
14.914727
14.888035
14.856397
14.820192
14.779774
14.735464
10.96672
10.915968
10.881098
10.862333
10.859916
10.873868
10.904576
10.951856
11.015417
11.094779
11.189231
11.297827
11.419387
11.552526
11.695684
11.847162
12.005172
12.167884
12.333471
12.500151
12.666233
12.830138
12.990431
13.145838
13.295247
13.437717
13.572475
13.698914
13.816576
13.925147
14.024438
14.114372
14.194971
14.26634
14.328653
14.382144
14.42709
14.463805
14.49263
14.513925
14.528063
14.53542
14.536356
14.531362
14.52062
14.504601
14.483634
14.45807
14.428228
14.394402
10.960254
10.895917
10.846717
10.812775
10.794229
10.79118
10.803501
10.831368
10.874459
10.932338
11.004422
11.089939
11.187932
11.297272
11.416677
11.54474
11.679962
11.82079
11.965649
12.112982
12.26128
12.409111
12.555144
12.698164
12.837088
12.970966
13.098988
13.220483
13.334909
13.441855
13.541021
13.632217
13.715344
13.790389
13.857407
13.916517
13.967888
14.011731
14.048288
14.077831
14.100647
14.117037
14.127308
14.131788
14.130766
14.124637
14.113555
14.097923
14.078005
14.054066
10.954311
10.877497
10.81516
10.76734
10.734095
10.715454
10.711388
10.721658
10.74625
10.784774
10.836694
10.901373
10.978024
11.065719
11.163402
11.269904
11.383972
11.504292
11.629517
11.758294
11.889295
12.021237
12.152902
12.283159
12.410976
12.535422
12.65568
12.771047
12.88093
12.984847
13.082418
13.173362
13.257483
13.334666
13.404866
13.468102
13.524444
13.574007
13.616946
13.653444
13.683709
13.70797
13.726467
13.739453
13.747182
13.749916
13.74793
13.741478
13.730757
13.716041
10.948867
10.860631
10.786287
10.725813
10.679203
10.64643
10.62742
10.622034
10.629962
10.651021
10.684808
10.730724
10.788112
10.856202
10.934115
11.02088
11.115446
11.216703
11.323502
11.434677
11.549066
11.665531
11.782975
11.900362
12.016722
12.13117
12.242903
12.351213
12.455481
12.555183
12.649883
12.739232
12.822958
12.900867
12.972829
13.038775
13.098692
13.15261
13.200602
13.242772
13.279254
13.310206
13.335803
13.356235
13.371701
13.382411
13.388578
13.390404
13.388145
13.381942
10.943895
10.845239
10.759956
10.687978
10.629249
10.583696
10.551209
10.531627
10.524729
10.530162
10.547599
10.576664
10.61672
10.667119
10.727123
10.795916
10.872615
10.95628
11.045933
11.140572
11.239185
11.340772
11.444355
11.548993
11.653795
11.75793
11.860631
11.961201
12.059021
12.153544
12.244302
12.330898
12.413008
12.490375
12.562801
12.630148
12.692329
12.749302
12.801067
12.84766
12.889145
12.925615
12.957184
12.983982
13.006154
13.023859
13.037261
13.046529
13.051843
10.939372
10.831242
10.736027
10.653623
10.583938
10.526858
10.482244
10.449916
10.429647
10.421157
10.424074
10.437946
10.462456
10.496948
10.540795
10.593304
10.653727
10.721266
10.795086
10.874325
10.958108
11.045557
11.135808
11.228016
11.321371
11.415104
11.508495
11.600877
11.691642
11.780243
11.866197
11.94908
12.028531
12.104249
12.175985
12.243547
12.306788
12.365606
12.419939
12.469761
12.515078
12.555923
12.592351
12.624441
12.652285
12.675992
12.69568
12.711475
12.72349
10.935272
10.818562
10.714362
10.622544
10.542982
10.475537
10.420042
10.376299
10.344076
10.323095
10.313035
10.313526
10.324006
10.344252
10.373579
10.4114
10.457075
10.509921
10.569222
10.634235
10.704202
10.778357
10.855937
10.93619
11.018387
11.101824
11.185835
11.269791
11.353111
11.435259
11.515752
11.594157
11.670092
11.743225
11.813276
11.880007
11.943229
12.00279
12.058579
12.110517
12.158559
12.202684
12.2429
12.279233
12.311731
12.340454
12.365478
12.386887
12.404751
10.93157
10.80712
10.694826
10.594537
10.506108
10.429373
10.364145
10.31021
10.267326
10.23522
10.213582
10.202064
10.200275
10.207685
10.224005
10.248637
10.281015
10.32055
10.366622
10.41859
10.475794
10.537565
10.603232
10.672128
10.7436
10.81701
10.891748
10.967231
11.042909
11.11827
11.192844
11.266197
11.337942
11.407733
11.475264
11.540274
11.602536
11.661865
11.718108
11.771145
11.820887
11.867271
11.910259
11.949835
11.986003
12.018784
12.048211
12.074331
12.097179
10.928243
10.796843
10.677287
10.569412
10.473052
10.388023
10.31412
10.251113
10.198754
10.156767
10.12485
10.102672
10.08987
10.08605
10.090731
10.103531
10.12398
10.151521
10.185616
10.225703
10.271207
10.321543
10.376119
10.434346
10.495638
10.559423
10.625145
10.692269
10.760282
10.828703
10.89708
10.964992
11.032054
11.097917
11.162264
11.224817
11.285328
11.343585
11.399405
11.452636
11.503155
11.550863
11.595684
11.637567
11.676477
11.712399
11.745332
11.775286
11.802264
10.925267
10.787656
10.661619
10.546982
10.443563
10.351162
10.269558
10.198511
10.13776
10.087028
10.046018
10.014408
9.9918579
9.9780007
9.9724471
9.9747612
9.9844914
10.001284
10.024598
10.053937
10.088797
10.128661
10.173007
10.221312
10.273055
10.32772
10.384806
10.443822
10.504298
10.565783
10.627851
10.690101
10.752157
10.813676
10.874339
10.933859
10.991979
11.048467
11.103121
11.155766
11.206251
11.25445
11.300258
11.343592
11.384386
11.422595
11.458186
11.491138
11.521425
10.92262
10.779491
10.647702
10.527071
10.417403
10.318483
10.230078
10.151934
10.083784
10.025346
9.9763225
9.9364016
9.9052549
9.8825373
9.8678864
9.860923
9.8612554
9.868378
9.8820498
9.9017313
9.926977
9.9573288
9.9923231
10.031494
10.074375
10.120505
10.16943
10.220704
10.273896
10.328589
10.384384
10.440904
10.49779
10.554706
10.611343
10.667412
10.722651
10.77682
10.829704
10.881113
10.930877
10.978848
11.0249
11.068924
11.11083
11.150546
11.188014
11.223185
11.256009
10.920281
10.772282
10.635423
10.509514
10.394349
10.2897
10.195321
10.110949
10.036308
9.9711109
9.9150605
9.867849
9.8291576
9.798656
9.7760025
9.7608437
9.752815
9.7515394
9.7565607
9.7676151
9.7842434
9.8060267
9.8325495
9.863394
9.8981425
9.9363793
9.9776933
10.021681
10.067947
10.116109
10.165797
10.216656
10.268348
10.320554
10.372971
10.425319
10.477337
10.528782
10.579434
10.629092
10.677576
10.724722
10.770388
10.814447
10.856789
10.897322
10.935964
10.972648
11.007298
10.91823
10.765969
10.624677
10.494158
10.374194
10.264546
10.164957
10.075153
9.9948525
9.9237626
9.8615851
9.8080148
9.7627393
9.7254391
9.6957876
9.6734504
9.6580856
9.6493437
9.6468684
9.6502542
9.6591972
9.6733318
9.692255
9.7155895
9.7429578
9.7739837
9.8082947
9.8455233
9.8853091
9.9273002
9.9711549
10.016543
10.063148
10.110667
10.158812
10.207311
10.255908
10.304365
10.352461
10.399991
10.446767
10.492617
10.537388
10.58094
10.62315
10.663906
10.703113
10.740684
10.776528
10.91645
10.760495
10.615367
10.480861
10.356747
10.242776
10.13868
10.044178
9.9589795
9.8827896
9.8153082
9.7562315
9.7052519
9.6620577
9.6263332
9.5977582
9.5760084
9.5607552
9.551666
9.548405
9.5506045
9.5579422
9.5701233
9.5867631
9.6075173
9.6320434
9.6600016
9.6910562
9.7248773
9.7611412
9.7995326
9.8397452
9.8814828
9.9244605
9.9684057
10.013058
10.058172
10.103513
10.148864
10.194021
10.238793
10.283005
10.326496
10.369119
10.410738
10.451233
10.490494
10.528423
10.564913
10.914925
10.755812
10.607408
10.469496
10.341836
10.224168
10.116215
10.017688
9.928293
9.8477312
9.7757021