/*--------------------------------*- C++ -*----------------------------------*\
| =========                 |                                                 |
| \\      /  F ield         | OpenFOAM: The Open Source CFD Toolbox           |
|  \\    /   O peration     | Version:  2312                                  |
|   \\  /    A nd           | Website:  www.openfoam.com                      |
|    \\/     M anipulation  |                                                 |
\*---------------------------------------------------------------------------*/
FoamFile
{
    version     2.0;
    format      ascii;
    arch        "LSB;label=32;scalar=64";
    class       volScalarField;
    location    "0.05";
    object      Ma;
}
// * * * * * * * * * * * * * * * * * * * * * * * * * * * * * * * * * * * * * //

dimensions      [0 0 0 0 0 0 0];

internalField   nonuniform List<scalar> 
3275
(
0.072402796
0.065105299
0.055914184
0.047741907
0.041071851
0.035845554
0.031748326
0.028485557
0.025862086
0.023706907
0.021952268
0.020495387
0.019279627
0.018220926
0.017315164
0.016527715
0.015836307
0.015223538
0.014676138
0.014183678
0.013737866
0.01333194
0.012960345
0.012618531
0.01230268
0.012009586
0.01173653
0.011481193
0.011241584
0.011015985
0.010802904
0.010601039
0.010409252
0.010226538
0.010052013
0.0098848897
0.0097244711
0.0095701336
0.00942132
0.0092775304
0.0091383154
0.0090032703
0.00887203
0.0087442644
0.0086196738
0.0084979858
0.0083789565
0.0082623626
0.0081480002
0.0080356838
0.0079252448
0.0078165253
0.071686846
0.063342203
0.05406523
0.046333714
0.040089255
0.035172337
0.031283756
0.02815707
0.02562435
0.023531062
0.021818922
0.020391929
0.019197533
0.018155198
0.017261444
0.016483199
0.015798953
0.01519185
0.014648994
0.014160221
0.013717433
0.013314014
0.012944515
0.012604468
0.012290119
0.01199831
0.011726361
0.011471984
0.011233213
0.011008347
0.010795912
0.01059462
0.010403341
0.010221081
0.010046962
0.0098802053
0.0097201168
0.0095660784
0.0094175363
0.0092739941
0.0091350052
0.0090001672
0.0088691173
0.0087415267
0.0086170975
0.0084955591
0.0083766685
0.0082602033
0.008145961
0.0080337568
0.007923423
0.0078148028
0.069602893
0.05942528
0.050356862
0.043607426
0.038206019
0.033877539
0.030383867
0.027518058
0.025159797
0.023186123
0.021556504
0.020187837
0.019035202
0.018025026
0.017154903
0.016394814
0.01572472
0.015128828
0.014594972
0.01411351
0.013676724
0.013278282
0.012912948
0.012576416
0.012265054
0.011975803
0.011706059
0.011453594
0.011216489
0.010993086
0.010781939
0.010581786
0.010391521
0.010210166
0.010036858
0.0098708301
0.0097113999
0.0095579575
0.0094099569
0.0092669079
0.0091283697
0.0089939446
0.0088632738
0.0087360322
0.0086119249
0.0084906845
0.0083720701
0.0082558614
0.0081418581
0.008029877
0.0079197522
0.0078113286
0.064012919
0.05265746
0.044816977
0.03974911
0.03557796
0.032054246
0.029104274
0.026602116
0.024488927
0.022684806
0.021173106
0.01988852
0.018796224
0.017832906
0.016997309
0.016263842
0.015614556
0.015035185
0.014514617
0.014043966
0.013616069
0.013225007
0.012865855
0.012534544
0.012227624
0.01194218
0.011675718
0.0114261
0.011191481
0.010970256
0.01076103
0.010562579
0.010373826
0.010193822
0.010021725
0.0098567864
0.0096983396
0.0095457878
0.0093985963
0.0092562845
0.0091184199
0.0089846119
0.0088545079
0.0087277882
0.0086041624
0.0084833675
0.008365166
0.008249341
0.008135695
0.0080240474
0.0079142347
0.0078061044
0.049800497
0.042011469
0.037782317
0.035087918
0.03238973
0.029859518
0.027526939
0.025455314
0.023640207
0.02204497
0.020680175
0.019501749
0.018485789
0.017582446
0.016791243
0.016092159
0.015469856
0.014911974
0.014408735
0.013952216
0.013535959
0.013154579
0.012803549
0.012479106
0.012178037
0.01189761
0.011635479
0.011389622
0.011158286
0.010939943
0.010733258
0.010537058
0.010350309
0.010172094
0.010001602
0.0098381072
0.0096809644
0.0095295939
0.0093834759
0.0092421424
0.0091051719
0.0089721833
0.0088428319
0.0087168051
0.0085938189
0.0084736159
0.008355963
0.0082406477
0.0081274764
0.008016272
0.0079068738
0.0077991326
0.021336018
0.029614671
0.030547958
0.030393651
0.029113411
0.027528012
0.02585103
0.024208736
0.022703966
0.021331402
0.020125273
0.019063735
0.018131866
0.017295568
0.016554329
0.01589415
0.015302538
0.014769192
0.014285808
0.013845527
0.01344268
0.013072476
0.01273084
0.012414353
0.012120072
0.011845474
0.01158838
0.011346901
0.01111939
0.010904408
0.010700689
0.010507118
0.010322709
0.010146586
0.0099779707
0.0098161662
0.0096605499
0.0095105628
0.0093657023
0.0092255154
0.009089593
0.008957565
0.0088290963
0.0087038825
0.0085816469
0.0084621385
0.0083451297
0.0082304128
0.0081177989
0.0080071147
0.0078982032
0.0077909185
0.0094356659
0.020741786
0.024373865
0.026034893
0.0259756
0.025224372
0.024143969
0.022929737
0.021724
0.020576486
0.019532472
0.018593203
0.017749057
0.016983661
0.016295766
0.015677333
0.01511883
0.014612067
0.014150269
0.013727695
0.01333951
0.012981555
0.012650235
0.012342501
0.012055698
0.011787531
0.011536001
0.011299363
0.011076088
0.010864829
0.010664398
0.010473745
0.010291935
0.010118137
0.0099516081
0.0097916834
0.009637766
0.0094893194
0.0093458598
0.0092069506
0.0090721968
0.0089412404
0.0088137567
0.0086894505
0.0085680531
0.0084493206
0.0083330315
0.0082189836
0.008106993
0.0079968906
0.0078885236
0.0077817495
0.0055209344
0.014827597
0.019250208
0.021984191
0.022877118
0.022867012
0.022339622
0.021552424
0.02065538
0.019739163
0.018866977
0.018062263
0.017313788
0.016626476
0.015998427
0.015427024
0.014906068
0.0144296
0.013992506
0.013590273
0.013218982
0.01287518
0.012555809
0.012258235
0.011980128
0.011719451
0.011474411
0.011243428
0.011025104
0.010818203
0.010621626
0.010434394
0.010255634
0.010084566
0.0099204897
0.0097627754
0.009610857
0.0094642238
0.0093224142
0.0091850107
0.0090516346
0.008921942
0.0087956205
0.0086723856
0.008551978
0.0084341621
0.0083187234
0.0082054662
0.0080942124
0.0079847981
0.0078770749
0.0077709047
0.0044167201
0.010948585
0.015172768
0.018383271
0.019937499
0.020531246
0.020500626
0.020105952
0.01951802
0.018834513
0.018139763
0.017472989
0.016830233
0.016225575
0.015663198
0.015143578
0.014664248
0.014221563
0.013812158
0.013432818
0.013080613
0.012752851
0.012447059
0.012161058
0.01189288
0.011640771
0.011403167
0.011178673
0.01096604
0.010764153
0.010572013
0.010388726
0.010213486
0.010045571
0.0098843284
0.0097291706
0.0095795655
0.0094350322
0.0092951343
0.0091594761
0.0090276977
0.0088994714
0.008774499
0.0086525081
0.0085332503
0.0084164994
0.0083020492
0.0081897114
0.0080793145
0.0079707006
0.0078637266
0.0077582592
0.0039608907
0.0083904178
0.012026228
0.015292429
0.017241371
0.018286191
0.0186727
0.01863104
0.018329536
0.017878861
0.017360435
0.016832936
0.016302123
0.015783728
0.015291545
0.014827841
0.014393744
0.013988021
0.013609084
0.013255061
0.012924052
0.012614168
0.012323562
0.012050541
0.011793524
0.011551068
0.011321858
0.011104701
0.010898512
0.010702312
0.010515212
0.010336408
0.010165174
0.01000085
0.0098428388
0.0096905976
0.0095436337
0.0094014993
0.0092637868
0.0091301248
0.0090001748
0.0088736274
0.0087502002
0.0086296349
0.0085116953
0.0083961657
0.0082828494
0.0081715666
0.0080621532
0.0079544583
0.0078483448
0.0077436845
0.0037243632
0.0067210562
0.0096597747
0.01271502
0.014836684
0.016184613
0.016897987
0.017159664
0.017117412
0.016883318
0.016541949
0.016149738
0.01573348
0.015305509
0.014885548
0.014481153
0.014095328
0.013729349
0.013383392
0.013056928
0.012749104
0.012458857
0.012184991
0.011926325
0.011681687
0.011449964
0.011230108
0.011021143
0.010822163
0.010632332
0.010450886
0.010277119
0.01011039
0.0099501085
0.0097957382
0.0096467866
0.0095028039
0.0093633793
0.0092281369
0.0090967328
0.0089688519
0.0088442056
0.008722529
0.0086035795
0.0084871344
0.0083729901
0.0082609605
0.0081508752
0.0080425786
0.0079359274
0.0078307912
0.0077270482
0.0035964724
0.0056442005
0.0079193386
0.010617578
0.012742652
0.01426167
0.015212339
0.015719628
0.015904625
0.015867213
0.015692145
0.015435116
0.015128762
0.014794364
0.01444841
0.014105286
0.013770172
0.01344625
0.013135449
0.012838553
0.01255574
0.012286776
0.012031129
0.011788143
0.011557069
0.011337138
0.011127586
0.010927665
0.010736659
0.010553888
0.010378717
0.010210549
0.010048834
0.009893058
0.0097427495
0.0095974713
0.0094568206
0.0093204272
0.00918795
0.0090590752
0.0089335138
0.0088109997
0.0086912878
0.0085741524
0.0084593862
0.0083467987
0.0082362156
0.008127477
0.0080204367
0.00791496
0.0078109241
0.0077082139
0.0035179717
0.0049489303
0.0066630119
0.0089462533
0.010956743
0.012537291
0.013641681
0.014336431
0.014710237
0.014847547
0.014823657
0.014696086
0.014497446
0.01425303
0.013983955
0.013702582
0.013419818
0.013139756
0.012865897
0.012600295
0.012344116
0.012097934
0.01186188
0.011635824
0.011419448
0.011212337
0.011014016
0.010823978
0.010641705
0.010466682
0.01029841
0.010136408
0.0099802222
0.0098294215
0.009683604
0.0095423917
0.0094054329
0.0092724009
0.009142993
0.0090169278
0.0088939448
0.0087738024
0.0086562772
0.0085411623
0.0084282667
0.0083174146
0.0082084447
0.0081012086
0.0079955704
0.0078914048
0.0077885977
0.0076870413
0.0034617445
0.0044946919
0.0057697199
0.0076388523
0.0094613796
0.011018488
0.012203222
0.013029667
0.013552853
0.013838384
0.013950133
0.013940763
0.013845434
0.01368893
0.013493962
0.013276613
0.013046151
0.012811212
0.012575657
0.012342749
0.012114582
0.0118925
0.011677282
0.011469309
0.011268695
0.011075378
0.010889181
0.010709842
0.010537047
0.010370451
0.010209697
0.010054427
0.0099042881
0.0097589364
0.0096180442
0.0094812967
0.0093483962
0.0092190634
0.0090930361
0.0089700683
0.0088499301
0.0087324066
0.0086172975
0.0085044163
0.0083935901
0.0082846588
0.0081774752
0.0080719035
0.0079678193
0.0078651073
0.0077636627
0.0076633864
0.0034179136
0.0041923176
0.0051414291
0.006632845
0.0082298151
0.0097021932
0.010906284
0.011813581
0.012447572
0.012853457
0.013082277
0.013179551
0.013179067
0.013106931
0.012984295
0.012828712
0.012652275
0.012462248
0.012265917
0.012066747
0.011867691
0.011670816
0.011477514
0.01128866
0.01110478
0.010926167
0.010752937
0.010585077
0.010422478
0.01026497
0.010112344
0.0099643651
0.0098207877
0.0096813583
0.0095458275
0.0094139468
0.0092854756
0.0091601846
0.009037855
0.0089182785
0.0088012577
0.0086866065
0.0085741493
0.0084637216
0.0083551697
0.0082483506
0.0081431325
0.0080393932
0.0079370203
0.0078359097
0.0077359667
0.0076371013
0.0033826339
0.003986054
0.0047016788
0.0058698725
0.0072306823
0.008578062
0.0097535131
0.010697408
0.011406
0.011904581
0.012230425
0.012420975
0.012506494
0.012512058
0.012458972
0.012363664
0.012239323
0.012095512
0.011938106
0.011773353
0.011604204
0.011433402
0.011262911
0.011094065
0.010927785
0.010764698
0.010605216
0.010449566
0.010297847
0.010150063
0.010006154
0.0098660135
0.0097295039
0.0095964653
0.0094667299
0.0093401179
0.0092164481
0.0090955442
0.008977233
0.0088613458
0.00874772
0.0086361994
0.0085266353
0.0084188861
0.0083128189
0.0082083091
0.008105241
0.0080035072
0.0079030084
0.0078036522
0.0077053545
0.0076080355
0.003353852
0.0038411143
0.004392943
0.0052979689
0.0064311762
0.0076309439
0.0087422385
0.0096858974
0.010436484
0.01100126
0.011403962
0.01167311
0.011834555
0.01191086
0.011922079
0.011884779
0.011811288
0.011712014
0.011594508
0.011463831
0.011325078
0.011180961
0.011033963
0.010885852
0.010737904
0.01059107
0.010446036
0.010303269
0.010163067
0.010025606
0.0098909774
0.0097592018
0.0096302519
0.0095040623
0.0093805496
0.0092596043
0.0091411065
0.0090249348
0.0089109637
0.0087990662
0.0086891156
0.0085809877
0.0084745617
0.0083697204
0.0082663529
0.0081643539
0.0080636251
0.0079640748
0.0078656174
0.0077681731
0.0076716693
0.0075760362
0.0033301503
0.0037357856
0.0041735296
0.0048725656
0.0057991422
0.0068428603
0.0078657997
0.0087799812
0.0095443152
0.01015082
0.010610707
0.010943505
0.011169739
0.011308929
0.011378977
0.011395479
0.01137082
0.011315244
0.011236044
0.011140174
0.01103145
0.010914371
0.010791325
0.010664486
0.010535459
0.010405484
0.010275509
0.010146223
0.010018117
0.0098915338
0.0097667141
0.0096438029
0.0095228838
0.0094039858
0.0092871118
0.0091722234
0.0090592624
0.0089481647
0.0088388541
0.0087312463
0.0086252522
0.0085207809
0.0084177404
0.0083160393
0.0082155897
0.0081163065
0.0080181102
0.0079209252
0.007824681
0.0077293105
0.0076347525
0.0075409486
0.0033104576
0.0036564805
0.004014266
0.0045568265
0.0053044418
0.0061945109
0.0071147299
0.007977495
0.008732052
0.0093584632
0.0098569952
0.010238636
0.010518231
0.010711618
0.010834297
0.010900224
0.010921194
0.010907086
0.010865731
0.01080321
0.010725076
0.010634667
0.010535802
0.01043058
0.010320897
0.010208258
0.010093845
0.0099785524
0.0098630535
0.0097478479
0.009633321
0.0095197388
0.0094072941
0.0092961084
0.0091862728
0.009077819
0.0089707503
0.0088650615
0.0087607273
0.0086577067
0.008555949
0.0084553976
0.0083559909
0.0082576637
0.008160352
0.0080639924
0.0079685245
0.0078738898
0.0077800337
0.0076869024
0.0075944457
0.0075026169
0.0032939426
0.0035946601
0.0038953529
0.0043214423
0.0049198651
0.0056663976
0.0064777489
0.0072738761
0.007999907
0.0086274184
0.0091476694
0.0095639492
0.0098854675
0.010124097
0.010292518
0.010402887
0.010465887
0.010490723
0.010485189
0.010455567
0.01040674
0.010343377
0.010268391
0.010184878
0.010094792
0.0099998234
0.0099013615
0.0098004747
0.009698015
0.0095946197
0.0094908172
0.0093869858
0.0092834248
0.0091803442
0.0090779248
0.008976266
0.0088754313
0.008775476
0.008676426
0.0085782843
0.0084810391
0.0083846688
0.0082891427
0.0081944225
0.0081004695
0.008007242
0.0079147001
0.0078228026
0.0077315122
0.0076407883
0.007550591
0.0032799455
0.0035448934
0.0038036354
0.0041439688
0.0046217196
0.0052396708
0.0059425738
0.0066627995
0.0073461581
0.0079591457
0.0084861336
0.0089238285
0.0092761593
0.009550992
0.0097580227
0.0099073173
0.01000823
0.010069096
0.010097185
0.010098711
0.010078716
0.010041318
0.0099903584
0.009928374
0.0098578354
0.0097807315
0.0096984848
0.0096123026
0.0095232258
0.009431997
0.0093392898
0.0092455797
0.0091512703
0.0090566527
0.0089619998
0.0088674745
0.008773197
0.0086792851
0.0085858162
0.0084928366
0.0084003731
0.0083084399
0.0082170377
0.0081261554
0.0080357804
0.0079458932
0.0078564753
0.0077675023
0.0076789562
0.0075908095
0.0075030353
0.0032679481
0.0035036753
0.0037304998
0.0040078124
0.0043901246
0.0048967742
0.0054965741
0.0061367337
0.0067675494
0.0073535785
0.0078744624
0.0083216105
0.0086942491
0.008996418
0.0092348224
0.0094172779
0.0095515841
0.0096450465
0.0097043064
0.0097350711
0.0097423787
0.0097304117
0.0097026237
0.0096619643
0.0096111138
0.0095516497
0.009485757
0.0094144456
0.0093390026
0.0092602076
0.0091788986
0.0090956205
0.0090108823
0.0089250443
0.008838475
0.0087513944
0.0086639736
0.0085763963
0.0084887904
0.0084012439
0.0083138216
0.0082265739
0.0081395332
0.0080527151
0.0079661343
0.0078797932
0.0077936964
0.007707833
0.0076222101
0.007536814
0.0074516409
0.0032575497
0.0034687128
0.0036703262
0.0039010499
0.0042090403
0.0046219463
0.0051273131
0.0056874185
0.006259665
0.0068093785
0.0073135388
0.007759626
0.008142909
0.0084639463
0.0087265555
0.0089362709
0.0090992223
0.0092215353
0.0093090245
0.0093669502
0.0093998873
0.0094120067
0.0094067165
0.0093869794
0.0093551417
0.0093134952
0.0092639001
0.009207397
0.0091457609
0.0090795615
0.0090098805
0.0089372761
0.0088623738
0.0087855844
0.0087073762
0.0086280191
0.0085477262
0.0084667514
0.0083852716
0.0083034136
0.008221279
0.0081389545
0.0080565042
0.0079739697
0.0078913946
0.0078088004
0.00772622
0.0076436461
0.0075611279
0.0074786691
0.0073961915
0.003248445
0.0034384831
0.0036194446
0.0038152681
0.0040659308
0.0044016021
0.0048230546
0.0053063063
0.005817275
0.0063241867
0.0068032278
0.0072393014
0.0076245708
0.0079565702
0.0082364474
0.008467529
0.0086542395
0.0088014341
0.0089139986
0.0089965357
0.0090532961
0.0090880309
0.0091041149
0.0091043863
0.0090913515
0.0090670294
0.009033401
0.0089919274
0.0089440402
0.008890439
0.008832556
0.0087707858
0.0087059218
0.0086383987
0.0085687822
0.0084973895
0.0084244616
0.0083503299
0.0082752169
0.0081992836
0.0081226661
0.0080454887
0.0079678465
0.0078898055
0.0078114412
0.0077327859
0.0076539175
0.0075748043
0.0074955874
0.0074161608
0.0032404029
0.0034119585
0.0035754469
0.0037446074
0.0039512187
0.0042243608
0.0045731477
0.0049850211
0.005434735
0.0058949188
0.0063425642
0.0067612694
0.0071409649
0.0074767065
0.0077672855
0.0080139749
0.0082195296
0.0083874989
0.0085217706
0.008626225
0.0087045845
0.0087602851
0.0087964479
0.0088157338
0.0088206542
0.0088132373
0.0087954253
0.008768565
0.0087342624
0.0086934656
0.0086473575
0.008596453
0.0085417653
0.0084836839
0.008422828
0.0083595954
0.0082942329
0.0082271538
0.0081586213
0.0080888255
0.0080179342
0.0079461102
0.0078734794
0.0078001292
0.0077261752
0.0076516353
0.0075766859
0.0075011907
0.007425386
0.0073492799
0.0032332483
0.0033884307
0.0035367391
0.0036850225
0.0038577248
0.0040808953
0.0043681234
0.0047155594
0.0051062258
0.005517992
0.0059299219
0.0063254586
0.006693164
0.0070262087
0.0073214053
0.0075781913
0.0077977477
0.0079823347
0.0081348144
0.0082582878
0.0083558895
0.0084306388
0.0084853368
0.0085225205
0.0085444703
0.0085532318
0.0085506476
0.0085381835
0.0085173304
0.0084890531
0.0084546178
0.0084147662
0.0083702414
0.0083217302
0.0082696974
0.008214772
0.0081571447
0.0080972923
0.0080355217
0.0079720482
0.0079070673
0.007840782
0.0077733471
0.0077048713
0.0076355308
0.0075652466
0.007494343
0.0074227338
0.0073505493
0.0072778446
0.0032268471
0.003367399
0.0035022521
0.0036337346
0.0037801515
0.0039637208
0.0041997343
0.0044904069
0.0048258623
0.0051894216
0.0055631
0.0059311648
0.0062816278
0.0066063832
0.006900684
0.0071623981
0.0073912789
0.0075883608
0.007755491
0.007894965
0.0080092871
0.0081009988
0.0081725493
0.0082262069
0.00826415
0.0082882374
0.0083002276
0.0083016322
0.0082938243
0.0082779274
0.008255082
0.0082260797
0.0081917029
0.0081527408
0.0081097201
0.0080631496
0.0080133646
0.0079608671
0.0079059998
0.0078490009
0.0077900861
0.0077295003
0.0076674235
0.0076039908
0.0075393733
0.0074736247
0.0074069224
0.0073393132
0.0072709
0.0072017554
0.0032210952
0.0033484988
0.0034712542
0.0035888366
0.0037146374
0.0038669478
0.0040609551
0.0043026631
0.0045878327
0.0049049361
0.0052394137
0.0055771184
0.0059062457
0.0062180085
0.0065065391
0.0067684364
0.0070022125
0.0072077787
0.0073860123
0.0075384062
0.0076668146
0.0077732646
0.0078598121
0.0079284415
0.0079810822
0.0080194807
0.0080452918
0.0080599188
0.0080646906
0.0080607779
0.0080492277
0.0080309574
0.0080066914
0.0079772315
0.0079431318
0.0079049558
0.0078630968
0.007818047
0.0077701816
0.0077197733
0.0076670504
0.0076123004
0.0075557252
0.0074974862
0.0074377591
0.0073766573
0.0073143245
0.0072508591
0.0071863629
0.0071209293
0.0032159099
0.0033314547
0.003443231
0.0035490142
0.0036583914
0.0037860203
0.0039459316
0.0041461393
0.0043865411
0.004660103
0.0049557917
0.0052615527
0.0055663798
0.0058613561
0.0061399321
0.0063977578
0.006632321
0.0068425442
0.00702841
0.0071906392
0.007330438
0.0074493031
0.007548869
0.0076308006
0.007696762
0.0077483294
0.0077869886
0.0078140775
0.0078308653
0.0078384491
0.0078378488
0.0078300128
0.0078156558
0.0077955557
0.0077703567
0.0077405593
0.0077066154
0.00766907
0.0076282359
0.0075844926
0.0075380629
0.0074892578
0.0074383013
0.0073853786
0.007330675
0.0072743381
0.0072165132
0.0071573238
0.0070968791
0.0070353064
0.0032112236
0.0033160506
0.0034178072
0.0035133519
0.0036094048
0.003717462
0.0038498835
0.0040154163
0.0042167388
0.0044504624
0.0047088791
0.0049822801
0.0052609141
0.0055362177
0.005801377
0.0060514193
0.0062830438
0.0064943442
0.0066845091
0.0068535416
0.0070020236
0.0071309232
0.0072414411
0.0073348977
0.0074126726
0.0074761288
0.007526582
0.0075652604
0.0075933034
0.0076118191
0.0076217281
0.0076239515
0.0076192201
0.0076082935
0.0075918163
0.0075703042
0.0075442406
0.0075141465
0.0074804155
0.0074433626
0.0074032794
0.0073604909
0.0073152372
0.0072677247
0.0072181501
0.0071666838
0.0071134819
0.0070586832
0.0070024104
0.0069447911
0.0032069805
0.0033021106
0.0033946973
0.003481201
0.0035662316
0.003658647
0.003768975
0.0039058536
0.0040736262
0.0042716584
0.0044951539
0.0047367747
0.0049883107
0.0052419384
0.0054909553
0.0057300826
0.0059554761
0.0061645779
0.0063559033
0.0065288138
0.0066833092
0.006819848
0.0069391985
0.0070423239
0.0071303058
0.0072042706
0.0072653446
0.0073146165
0.0073531151
0.0073818389
0.0074016757
0.0074135203
0.0074180568
0.0074160192
0.0074080404
0.0073946514
0.0073763587
0.0073536572
0.0073269603
0.0072965991
0.0072628877
0.0072261539
0.0071866559
0.0071446193
0.0071002517
0.0070537414
0.0070052564
0.0069549483
0.006902954
0.0068494066
0.0032031328
0.0032894866
0.0033736736
0.0034520894
0.0035278251
0.0036076037
0.003700172
0.003813557
0.0039529201
0.004119553
0.0043110435
0.0045222666
0.0047466758
0.0049774574
0.0052083366
0.0054340205
0.0056503632
0.0058543421
0.0060439349
0.0062179545
0.0063758781
0.0065176883
0.0066437355
0.0067546261
0.0068511375
0.0069341457
0.007004572
0.0070633445
0.0071113672
0.0071495262
0.0071786503
0.007199537
0.0072128688
0.0072193693
0.0072195962
0.0072141197
0.0072034073
0.0071879755
0.007168214
0.0071444931
0.0071171263
0.0070864462
0.0070527227
0.0070161964
0.006977085
0.0069355917
0.0068918951
0.0068461574
0.0067985278
0.0067491462
0.0031996396
0.0032780505
0.0033545461
0.0034256615
0.0034934187
0.0035628546
0.0036410999
0.0037353149
0.0038508814
0.0039903164
0.0041530348
0.0043358418
0.0045338334
0.0047413592
0.0049528084
0.0051631286
0.0053680995
0.0055644208
0.0057496777
0.0059222399
0.006081135
0.0062259173
0.0063565466
0.0064732833
0.0065766039
0.0066671283
0.006745564
0.0068126632
0.0068691915
0.0069159143
0.0069535722
0.0069828814
0.0070044943
0.0070190523
0.0070271055
0.0070292536
0.0070258759
0.0070175375
0.0070045666
0.0069873822
0.0069662847
0.0069416165
0.006913647
0.0068826312
0.0068487944
0.0068123519
0.00677349
0.0067323793
0.0066891794
0.0066440368
0.003196465
0.0032676892
0.0033371501
0.0034016381
0.0034624411
0.00352329
0.0035899134
0.003668516
0.0037643105
0.0038804879
0.0040177693
0.004174541
0.004347409
0.0045319314
0.0047233145
0.0049169461
0.0051087348
0.0052952813
0.0054739246
0.0056427051
0.0058002846
0.0059458479
0.0060790019
0.0061996837
0.0063080796
0.0064045563
0.0064896039
0.0065637916
0.0066277335
0.0066820679
0.006727432
0.0067644536
0.0067937292
0.0068158368
0.0068313054
0.0068406609
0.0068443214
0.0068428233
0.0068364414
0.006825655
0.0068107004
0.0067919587
0.0067696834
0.0067441429
0.0067155661
0.0066841779
0.0066501698
0.0066137173
0.0065749894
0.0065341382
0.0031935774
0.0032583013
0.0033213384
0.0033797905
0.0034344553
0.0034880693
0.0035451833
0.00361106
0.0036905145
0.0037870072
0.0039021176
0.0040354504
0.0041849156
0.0043472339
0.0045185012
0.0046946846
0.0048719878
0.0050470747
0.0052171799
0.0053801306
0.0055343136
0.0056786112
0.0058123256
0.0059351015
0.0060468549
0.006147709
0.0062379396
0.0063179306
0.0063881382
0.0064490657
0.0065012393
0.0065451911
0.006581445
0.0066105145
0.0066328865
0.0066490352
0.0066593817
0.0066643711
0.0066643351
0.0066597293
0.0066507442
0.0066378168
0.0066211318
0.006600993
0.0065776278
0.0065512655
0.006522101
0.0064903109
0.0064560735
0.0064195436
0.0031909487
0.0032497951
0.0033069764
0.0033599233
0.003409117
0.0034565481
0.0035058013
0.0035612698
0.0036272577
0.0037072183
0.0038032305
0.0039157789
0.0040438366
0.0041851728
0.0043367738
0.0044952656
0.004657268
0.0048196453
0.0049796577
0.0051350327
0.0052839752
0.0054251385
0.0055575747
0.0056806758
0.005794114
0.0058977862
0.0059917626
0.0060762451
0.0061515306
0.0062179839
0.006276013
0.0063260504
0.0063685369
0.0064039153
0.0064326187
0.0064550703
0.006471666
0.0064828006
0.006488818
0.0064900861
0.0064868651
0.0064795642
0.0064683119
0.0064534845
0.006435256
0.0064138496
0.0063894898
0.0063623373
0.0063325838
0.0063003816
0.0031885538
0.0032420872
0.0032939399
0.003341864
0.0033861453
0.003428223
0.0034709031
0.0035178108
0.0035727032
0.0036388519
0.0037185659
0.0038129182
0.0039216998
0.0040435738
0.0041763596
0.0043173661
0.0044637057
0.0046125464
0.0047612868
0.0049076596
0.0050497793
0.005186146
0.0053156214
0.0054373902
0.0055509144
0.005655887
0.0057521882
0.0058398454
0.0059189999
0.0059898779
0.0060527667
0.0061079944
0.0061559142
0.0061968921
0.0062312987
0.0062595031
0.0062818623
0.0062987275
0.0063104257
0.0063172826
0.006319579
0.0063176305
0.006311642
0.0063019705
0.0062887328
0.0062721901
0.006252585
0.0062300125
0.0062047111
0.006176817
0.0031863705
0.0032351015
0.0032821128
0.003325456
0.0033653032
0.0034026914
0.0034398085
0.0034796207
0.0035253517
0.0035799935
0.0036458953
0.003724483
0.0038161402
0.0039202516
0.0040353729
0.0041594727
0.0042901899
0.0044250653
0.0045617231
0.0046979938
0.0048319869
0.0049621237
0.0050871377
0.0052060557
0.0053181675
0.0054229909
0.0055202354
0.0056097677
0.0056915806
0.005765766
0.0058324911
0.0058919782
0.0059444886
0.0059903093
0.0060297422
0.0060630974
0.006090685
0.0061128125
0.0061297767
0.0061418689
0.0061493594
0.0061525231
0.00615159
0.0061468272
0.0061384161
0.006126663
0.0061116405
0.006093574
0.0060726876
0.0060490529
0.0031843787
0.0032287685
0.0032713866
0.0033105546
0.0033463844
0.0033796231
0.003411974
0.0034458502
0.0034839835
0.0035290426
0.0035832925
0.0036483329
0.0037249463
0.0038130701
0.0039118779
0.0040199388
0.0041354142
0.0042562544
0.0043803698
0.0045057618
0.0046306112
0.0047533299
0.0048725847
0.0049872958
0.0050966222
0.0051999388
0.0052968088
0.0053869553
0.0054702348
0.0055466123
0.0056161389
0.0056789324
0.0057351614
0.0057850311
0.0058287726
0.0058666333
0.0058988701
0.0059257448
0.0059475166
0.0059644422
0.0059767689
0.0059847411
0.0059885838
0.0059885291
0.0059847768
0.0059775535
0.0059669993
0.0059533825
0.0059367512
0.0059173065
0.0031825605
0.0032230247
0.0032616598
0.0032970245
0.0033292043
0.0033587397
0.0033869575
0.0034158148
0.0034476061
0.0034846693
0.0035291111
0.0035825767
0.0036460916
0.0037199924
0.003803946
0.0038970414
0.003997928
0.0041049717
0.0042164046
0.0043304513
0.0044454249
0.004559791
0.0046722065
0.0047815361
0.0048868509
0.0049874177
0.005082681
0.0051722415
0.0052558348
0.0053333097
0.0054046084
0.0054697486
0.0055288076
0.0055819089
0.0056292106
0.0056708965
0.0057071668
0.0057382338
0.0057643151
0.0057856305
0.0058023975
0.0058148319
0.005823141
0.005827531
0.0058281948
0.0058253301
0.0058191028
0.0058096609
0.0057972522
0.0057819383
0.0031808998
0.003217812
0.0032528373
0.0032847388
0.0033135945
0.0033398
0.0033643919
0.0033889559
0.0034154083
0.0034457712
0.0034819554
0.0035255654
0.0035777507
0.003639117
0.0037097058
0.003789035
0.0038761874
0.0039699258
0.0040688149
0.0041713347
0.0042759754
0.0043813075
0.0044860298
0.0045889986
0.0046892397
0.0047859479
0.0048784785
0.0049663337
0.0050491465
0.0051266635
0.0051987281
0.0052652642
0.0053262624
0.0053817663
0.0054318619
0.0054766677
0.0055163269
0.0055509997
0.005580859
0.0056060849
0.0056268617
0.0056433746
0.0056558071
0.0056643415
0.0056691547
0.005670422
0.0056683037
0.0056629443
0.0056545259
0.0056431533
0.0031793821
0.0032130779
0.0032448306
0.0032735776
0.0032993995
0.0033225906
0.0033439656
0.003364811
0.0033867225
0.0034114339
0.0034406473
0.0034758742
0.0035183016
0.0035687003
0.0036273808
0.0036941991
0.0037686055
0.0038497224
0.0039364381
0.004027501
0.0041216067
0.0042174684
0.0043138699
0.0044097017
0.0045039837
0.0045958742
0.00468467
0.0047698
0.0048508154
0.0049273768
0.004999241
0.0050662479
0.0051283072
0.0051853871
0.0052375037
0.0052847115
0.0053270955
0.0053647642
0.0053978435
0.0054264723
0.005450798
0.0054709741
0.0054871562
0.0054995015
0.0055081658
0.0055133031
0.0055150599
0.0055135746
0.0055090018
0.0055014704
0.003177994
0.0032087741
0.0032375579
0.0032634282
0.0032864737
0.0033069185
0.0033254081
0.0033429904
0.0033609933
0.0033808956
0.0034041949
0.0034322808
0.0034663199
0.0035071683
0.0035553174
0.0036108776
0.0036735973
0.0037429108
0.0038180046
0.0038978923
0.0039814877
0.0040676714
0.0041553441
0.0042434664
0.0043310875
0.0044173624
0.0045015593
0.0045830598
0.004661355
0.0047360376
0.0048067926
0.0048733863
0.0049356566
0.0049935023
0.0050468737
0.0050957638
0.005140201
0.0051802418
0.0052159652
0.0052474675
0.0052748581
0.0052982562
0.0053177876
0.0053335824
0.0053457726
0.0053544906
0.0053598662
0.0053620263
0.005361104
0.0053572214
0.0031767239
0.0032048563
0.0032309424
0.0032541847
0.0032746806
0.003292607
0.0033084805
0.0033231601
0.0033377532
0.0033535178
0.0033717616
0.0033937406
0.0034205645
0.0034531174
0.0034920017
0.0035375089
0.0035896195
0.003648027
0.0037121813
0.0037813437
0.0038546464
0.0039311494
0.004009891
0.0040899293
0.0041703723
0.0042504012
0.0043292831
0.004406378
0.004481139
0.0045531098
0.0046219189
0.0046872727
0.004748947
0.0048067789
0.0048606587
0.0049105224
0.0049563441
0.0049981301
0.005035913
0.0050697465
0.0050997014
0.0051258616
0.0051483213
0.0051671819
0.0051825502
0.0051945356
0.0052032487
0.0052088004
0.0052113042
0.0052108684
0.0031755613
0.0032012848
0.0032249131
0.0032457475
0.0032638921
0.0032794921
0.0032929678
0.0033050287
0.0033166028
0.003328761
0.0033426398
0.0033593624
0.0033799612
0.0034053092
0.0034360666
0.0034726463
0.0035152014
0.0035636324
0.0036176123
0.0036766245
0.0037400079
0.0038070029
0.0038767967
0.0039485623
0.0040214895
0.0040948099
0.0041678147
0.004239865
0.0043103977
0.0043789266
0.0044450402
0.0045083986
0.0045687269
0.0046258099
0.0046794853
0.0047296371
0.0047761897
0.0048191017
0.0048583609
0.0048939797
0.0049259901
0.0049544408
0.0049793936
0.0050009204
0.0050191012
0.0050340213
0.0050457703
0.0050544402
0.0050601259
0.0050629209
0.0031744965
0.0031980234
0.003219405
0.003238023
0.0032539873
0.0032674217
0.0032786744
0.0032883383
0.0032971968
0.0033061643
0.0033162279
0.0033283855
0.0033435835