/*--------------------------------*- C++ -*----------------------------------*\
| =========                 |                                                 |
| \\      /  F ield         | OpenFOAM: The Open Source CFD Toolbox           |
|  \\    /   O peration     | Version:  2312                                  |
|   \\  /    A nd           | Website:  www.openfoam.com                      |
|    \\/     M anipulation  |                                                 |
\*---------------------------------------------------------------------------*/
FoamFile
{
    version     2.0;
    format      ascii;
    arch        "LSB;label=32;scalar=64";
    class       volScalarField;
    location    "0.05";
    object      N2;
}
// * * * * * * * * * * * * * * * * * * * * * * * * * * * * * * * * * * * * * //

dimensions      [0 0 0 0 0 0 0];

internalField   nonuniform List<scalar> 
3275
(
0.023541734
0.10429554
0.19114834
0.26599639
0.32742739
0.37629506
0.41606084
0.44887121
0.47638438
0.49971538
0.51974825
0.53427023
0.54821697
0.56034264
0.57080338
0.57989556
0.58786398
0.59490901
0.60118819
0.60682492
0.61191661
0.616542
0.62076568
0.62464024
0.62820932
0.63150937
0.63457118
0.63742087
0.64008081
0.64257028
0.64490598
0.64710249
0.64917258
0.65112754
0.65297734
0.65473088
0.65639613
0.65798022
0.65948962
0.66093017
0.6623072
0.66362557
0.66488975
0.66610384
0.66727179
0.66839728
0.66948336
0.67053314
0.67154952
0.67253523
0.67349286
0.67442485
0.036546079
0.12908084
0.21096389
0.28012484
0.33719025
0.3827909
0.42054788
0.45203775
0.47868953
0.50142738
0.52103638
0.53531202
0.5490362
0.56099729
0.57133611
0.5803359
0.58823303
0.59522211
0.60145674
0.60705753
0.61211988
0.61672104
0.6209245
0.62478204
0.62833666
0.63162435
0.63467549
0.63751593
0.64016779
0.64265016
0.6449796
0.64717055
0.6492357
0.65118622
0.65303205
0.65478201
0.65644401
0.65802516
0.65953188
0.66096999
0.66234478
0.66366111
0.66492342
0.66613582
0.66730218
0.66842612
0.6695108
0.67055927
0.67157443
0.672559
0.67351556
0.67444657
0.073420388
0.17976106
0.24964287
0.30735542
0.35603586
0.39529532
0.42918681
0.45820869
0.48320864
0.50479577
0.52357808
0.53737456
0.55065698
0.56229509
0.57239365
0.58121096
0.58896701
0.59584525
0.60199152
0.60752093
0.61252496
0.61707793
0.62124116
0.62506482
0.62859064
0.63185367
0.63488354
0.63770551
0.64034125
0.64280945
0.64512638
0.64730623
0.64936149
0.65130316
0.65314103
0.65488381
0.65653932
0.65811458
0.65961594
0.66104915
0.66241947
0.66373169
0.66499023
0.66619917
0.66736233
0.66848325
0.66956514
0.67061102
0.67162376
0.67260608
0.67356053
0.67448958
0.15570789
0.25925734
0.30384197
0.34502683
0.38235767
0.41270349
0.44141337
0.46705993
0.48974563
0.50969841
0.52729614
0.54041042
0.55304114
0.56421089
0.57395865
0.58250838
0.59005691
0.5967717
0.60278741
0.6082112
0.61312879
0.61761026
0.62171373
0.62548699
0.62896995
0.63219625
0.63519443
0.63798887
0.64060054
0.6430476
0.64534585
0.64750912
0.64954959
0.65147802
0.653304
0.65503605
0.65668184
0.65824829
0.65974162
0.6611675
0.66253111
0.66383718
0.66509007
0.6662938
0.66745214
0.66856857
0.66964629
0.6706883
0.67169744
0.67267639
0.6736277
0.67455381
0.32384452
0.36082295
0.37134283
0.38956858
0.41230665
0.43505802
0.45678284
0.4781539
0.49803572
0.51596857
0.532082
0.54435405
0.55613631
0.5667095
0.57600654
0.58421055
0.59148982
0.59799182
0.60383709
0.60912269
0.61392696
0.61831451
0.62233938
0.62604627
0.62947273
0.63265056
0.63560687
0.63836491
0.64094475
0.64336382
0.64563733
0.64777863
0.6497995
0.65171038
0.65352057
0.65523838
0.65687128
0.65842601
0.65990868
0.66132482
0.66267952
0.66397741
0.66522277
0.66641957
0.66757149
0.66868196
0.66975415
0.67079102
0.67179537
0.67276986
0.673717
0.67463921
0.59160175
0.46729906
0.43635778
0.43382129
0.44235216
0.45691669
0.47386106
0.49036466
0.50721233
0.52298015
0.53747073
0.54885161
0.55966495
0.56957288
0.57836299
0.58617559
0.59314839
0.59940716
0.60505696
0.61018358
0.61485716
0.61913618
0.62307005
0.62669996
0.63006078
0.63318225
0.63608981
0.63880544
0.64134816
0.64373456
0.64597917
0.64809479
0.65009274
0.65198308
0.65377479
0.65547592
0.65709371
0.65863472
0.66010488
0.66150961
0.66285384
0.66414213
0.66537866
0.66656731
0.6677117
0.66881518
0.66988088
0.67091172
0.67191045
0.6728797
0.67382195
0.67473958
0.68545188
0.5448559
0.49120847
0.47337796
0.47213049
0.47909224
0.49071046
0.5033425
0.5168374
0.53042056
0.54321865
0.55372366
0.56348964
0.57268939
0.58093853
0.58833065
0.59497236
0.60096723
0.60640414
0.61135711
0.61588756
0.62004742
0.62388119
0.62742628
0.63071467
0.63377385
0.63662749
0.63929615
0.64179772
0.64414787
0.6463604
0.64844749
0.65041996
0.65228745
0.65405859
0.65574115
0.65734212
0.65886784
0.66032407
0.66171606
0.66304863
0.66432621
0.66555288
0.66673243
0.66786841
0.66896409
0.67002255
0.67104665
0.67203912
0.67300252
0.67393931
0.67485182
0.72171408
0.60411587
0.54111544
0.51212254
0.501986
0.5022274
0.50826578
0.51732376
0.5276437
0.53870807
0.54963497
0.55927792
0.56786641
0.57626138
0.58390528
0.59082288
0.5970885
0.60278204
0.60797485
0.61272797
0.61709318
0.62111513
0.62483274
0.6282792
0.63148324
0.63446974
0.63726039
0.63987411
0.64232749
0.64463516
0.64681006
0.64886365
0.65080618
0.65264681
0.65439377
0.65605448
0.65763564
0.65914335
0.66058315
0.66196013
0.66327894
0.66454388
0.66575891
0.66692773
0.66805377
0.66914025
0.67019015
0.67120631
0.67219138
0.67314787
0.6740782
0.67498468
0.7377287
0.6457468
0.58288172
0.54771383
0.53082245
0.52524249
0.52652429
0.53173955
0.53929721
0.54780727
0.55679364
0.5652722
0.57281586
0.58027053
0.58725698
0.59365114
0.59949879
0.60485547
0.60977406
0.61430173
0.61847986
0.62234516
0.62593048
0.62926435
0.63237187
0.6352751
0.63799343
0.64054399
0.64294191
0.64520063
0.6473321
0.64934702
0.65125496
0.65306454
0.65478351
0.65641891
0.65797712
0.65946395
0.66088471
0.66224427
0.66354711
0.66479737
0.66599889
0.66715523
0.66826973
0.6693455
0.67038547
0.67139239
0.67236884
0.67331731
0.67424013
0.67513959
0.74598717
0.6745975
0.61673428
0.57923444
0.55786475
0.54766152
0.54484105
0.54660757
0.55128163
0.55762646
0.56458209
0.57169808
0.57826927
0.58470809
0.59098255
0.59681009
0.60220196
0.6071889
0.61180485
0.61608252
0.62005232
0.62374255
0.62717956
0.63038686
0.63338562
0.6361948
0.63883132
0.64131031
0.64364529
0.64584839
0.64793047
0.64990135
0.65176986
0.653544
0.65523102
0.65683751
0.65836947
0.65983242
0.66123138
0.662571
0.66385554
0.66508898
0.666275
0.66741703
0.66851828
0.66958178
0.67061034
0.67160664
0.67257321
0.67351245
0.67442666
0.67531805
0.75090736
0.69476146
0.64366946
0.60650054
0.58262536
0.56904144
0.56281993
0.56158771
0.56360655
0.5677289
0.57298335
0.57849733
0.58411676
0.58960979
0.5950643
0.60028995
0.60519333
0.60978102
0.6140682
0.61807283
0.62181403
0.62531138
0.62858439
0.63165129
0.63452908
0.63723341
0.63977854
0.64217743
0.64444185
0.64658249
0.64860905
0.65053035
0.65235443
0.6540886
0.65573955
0.65731336
0.65881566
0.66025158
0.66162587
0.66294289
0.6642067
0.66542106
0.6665895
0.66771528
0.6688015
0.66985104
0.67086665
0.6718509
0.67280624
0.67373499
0.67463939
0.67552161
0.75419862
0.70915855
0.66493159
0.62970138
0.60487356
0.58904671
0.58018182
0.57636497
0.57608702
0.57811021
0.5816567
0.58578446
0.590231
0.59489407
0.5995051
0.60407666
0.6084647
0.61262774
0.61656289
0.6202734
0.62376705
0.62705458
0.63014847
0.63306148
0.63580628
0.63839505
0.6408392
0.64314942
0.64533557
0.64740682
0.64937159
0.65123766
0.65301218
0.65470171
0.65631232
0.65784958
0.65931865
0.66072429
0.66207089
0.66336256
0.66460308
0.66579602
0.66694469
0.6680522
0.6691215
0.67015535
0.67115637
0.67212705
0.67306973
0.67398667
0.67488002
0.67575189
0.75659159
0.71971969
0.68171572
0.64923774
0.62457897
0.60747551
0.59668364
0.59076912
0.58845532
0.58865588
0.59052107
0.59337471
0.59671944
0.60040607
0.60430103
0.60815734
0.61200446
0.61572206
0.61928534
0.62268309
0.62591193
0.6289739
0.63187434
0.63462051
0.63722065
0.63968334
0.64201706
0.64423005
0.64633022
0.64832509
0.65022174
0.65202682
0.65374652
0.65538664
0.65695254
0.65844925
0.65988143
0.6612534
0.66256922
0.66383266
0.66504725
0.6662163
0.66734292
0.66843005
0.66948047
0.67049679
0.67148152
0.67243703
0.67336556
0.67426928
0.67515027
0.67601057
0.75843242
0.72768656
0.6950387
0.66559865
0.64185092
0.62424023
0.61215903
0.6046171
0.60059657
0.5991723
0.59956191
0.60112821
0.60345771
0.6062264
0.60930337
0.61255474
0.61579661
0.61905408
0.62222963
0.62529878
0.62824762
0.63106973
0.63376345
0.63633055
0.63877486
0.64110131
0.64331534
0.6454227
0.64742924
0.64934076
0.65116293
0.6529012
0.65456079
0.65614662
0.65766337
0.65911543
0.66050693
0.66184177
0.6631236
0.66435584
0.66554175
0.66668437
0.66778659
0.66885114
0.66988062
0.67087751
0.67184416
0.67278282
0.67369565
0.67458469
0.67545194
0.67629936
0.75990286
0.73385656
0.70571033
0.67927994
0.65688407
0.63934282
0.62651153
0.61777811
0.61238053
0.60955967
0.60863762
0.60903399
0.61033729
0.61226668
0.61457188
0.6171393
0.61986735
0.62261125
0.62538747
0.62811534
0.63077136
0.63334108
0.63581605
0.63819277
0.64047077
0.64265131
0.64473677
0.64673031
0.6486357
0.65045698
0.65219834
0.653864
0.65545813
0.65698478
0.65844784
0.65985108
0.66119807
0.66249222
0.66373677
0.66493478
0.66608918
0.66720274
0.66827811
0.66931779
0.67032421
0.67129968
0.67224639
0.67316648
0.67406197
0.67493481
0.67578686
0.67662003
0.76110817
0.73874875
0.71435226
0.69073841
0.66991514
0.65284952
0.63970344
0.6301644
0.62370204
0.61972182
0.61765383
0.61699661
0.61735239
0.61843764
0.62003948
0.62195935
0.62410857
0.62641635
0.62874833
0.63112566
0.63347866
0.63578546
0.63803114
0.6402073
0.64230934
0.64433494
0.6462834
0.64815528
0.64995225
0.65167655
0.65333087
0.65491816
0.65644152
0.65790406
0.6593089
0.66065911
0.66195769
0.66320753
0.66441144
0.6655721
0.66669209
0.66777389
0.66881988
0.66983236
0.67081352
0.6717655
0.67269036
0.67359007
0.67446653
0.67532157
0.67615693
0.6769744
0.7621148
0.74270833
0.72143301
0.70037159
0.68119196
0.66486814
0.65174327
0.64172671
0.63448411
0.62957353
0.6265342
0.62493951
0.62443425
0.62473555
0.62563255
0.6269597
0.62856103
0.63037969
0.63233145
0.63432066
0.63636332
0.63839892
0.64040641
0.64237309
0.64429054
0.64615297
0.64795662
0.64969944
0.65138104
0.65300185
0.65456307
0.65606635
0.65751368
0.65890723
0.6602493
0.66154226
0.6627885
0.66399039
0.66515027
0.6662704
0.66735302
0.6684003
0.66941434
0.67039719
0.67135083
0.67227721
0.67317822
0.67405568
0.67491138
0.67574697
0.67656407
0.67736434
0.76296771
0.74597082
0.72730351
0.70851336
0.69095362
0.67552937
0.66267341
0.65244824
0.64467594
0.63904841
0.63520832
0.63280333
0.63152226
0.63110747
0.63134808
0.63208163
0.63317251
0.63454085
0.6360602
0.63771663
0.63941743
0.64117601
0.6429382
0.64468788
0.64641329
0.64810528
0.64975704
0.65136392
0.65292366
0.65443479
0.65589709
0.65731087
0.65867704
0.65999681
0.66127161
0.66250311
0.6636931
0.66484337
0.66595579
0.66703219
0.66807445
0.6690844
0.67006386
0.67101462
0.67193843
0.67283703
0.67371215
0.67456545
0.67539857
0.67621303
0.67701025
0.67779173
0.76369866
0.74870051
0.73222721
0.71543816
0.69941929
0.68497273
0.67255906
0.66233801
0.65424986
0.64809833
0.64361925
0.64053115
0.6385698
0.63750493
0.6371434
0.63732407
0.63791671
0.63883116
0.63996901
0.64124791
0.64265486
0.64410992
0.64562143
0.64714813
0.64867541
0.65019079
0.65168449
0.65314918
0.65458108
0.65597674
0.6573346
0.65865364
0.6599337
0.66117502
0.66237815
0.66354406
0.6646739
0.66576891
0.66683044
0.6678599
0.66885877
0.66982856
0.67077078
0.67168695
0.67257858
0.67344718
0.67429431
0.67512147
0.6759302
0.6767218
0.67749749
0.6782585
0.76433098
0.75101405
0.73640167
0.72136871
0.70678326
0.69333676
0.68147899
0.67142443
0.66319771
0.65669191
0.65172326
0.64807532
0.64553079
0.64389019
0.64297932
0.64264931
0.64277284
0.64325086
0.64399846
0.64494339
0.64601893
0.64720977
0.64845267
0.64974898
0.65107355
0.65240745
0.65373797
0.65505485
0.65635365
0.65762846
0.65887678
0.66009613
0.66128537
0.66244376
0.66357095
0.66466722
0.66573311
0.66676927
0.66777652
0.66875584
0.66970831
0.67063508
0.67153738
0.67241644
0.67327349
0.67410983
0.67492686
0.67572587
0.67650833
0.67727533
0.67802786
0.76488231
0.75299634
0.73997543
0.72648397
0.71321387
0.70075273
0.68951834
0.67974942
0.67152703
0.66481255
0.659489
0.65539753
0.65236552
0.65022537
0.64882388
0.64802474
0.64770976
0.64778013
0.64814902
0.64875224
0.64953183
0.65043102
0.65143232
0.65249169
0.65360322
0.65475218
0.65591569
0.65707965
0.658241
0.65939005
0.66052426
0.6616393
0.66273331
0.66380457
0.66485171
0.66587444
0.66687269
0.66784649
0.66879614
0.66972214
0.67062521
0.67150614
0.67236585
0.67320526
0.67402536
0.67482714
0.67561193
0.67638069
0.67713504
0.6778757
0.67860348
0.76536632
0.75471061
0.7430611
0.73092596
0.71885462
0.7073412
0.69676324
0.68736342
0.67925728
0.67245611
0.66689638
0.66246855
0.65904092
0.65647675
0.65464441
0.65342227
0.65270184
0.65238943
0.65240422
0.65267444
0.65315207
0.65378621
0.65452959
0.65536114
0.65627552
0.65722085
0.65821523
0.65922116
0.66024223
0.66126084
0.6622771
0.66328353
0.66427831
0.66525857
0.66622175
0.66716721
0.6680943
0.66900238
0.66989117
0.67076077
0.67161148
0.67244377
0.67325823
0.67405551
0.67483626
0.67560115
0.67635159
0.67708792
0.67781235
0.67852493
0.67922633
0.76579376
0.75620495
0.74574538
0.73480669
0.7238246
0.7132099
0.70329722
0.69432139
0.68641649
0.67962851
0.67393515
0.66926763
0.66553013
0.66261456
0.66041086
0.65881325
0.65772439
0.65705753
0.65673631
0.65669619
0.65687915
0.65724352
0.6577445
0.65836003
0.65905409
0.65981696
0.66063837
0.66147524
0.66235616
0.66323909
0.66413484
0.66502856
0.6659206
0.66680647
0.66768194
0.66854664
0.66939929
0.67023844
0.67106327
0.67187344
0.67266893
0.67344984
0.67421645
0.67496913
0.67570822
0.6764338
0.67714793
0.67784941
0.67854225
0.67922503
0.67988993
0.76617322
0.75751655
0.74809596
0.73821562
0.72822114
0.71845131
0.70919738
0.70067916
0.69303821
0.6863433
0.68060285
0.67578071
0.67181146
0.66861295
0.66609594
0.66417083
0.6627522
0.66176168
0.66112885
0.66079193
0.66070004
0.66080279
0.6610646
0.66145726
0.66195448
0.66252509
0.66316267
0.66384964
0.66458253
0.66532135
0.66609684
0.66687325
0.66765981
0.66844862
0.66923263
0.67001339
0.67078864
0.67155589
0.67231377
0.67306165
0.67379914
0.67452601
0.67524222
0.67594794
0.67664321
0.6773268
0.67800311
0.67866666
0.6793267
0.6799693
0.76651165
0.75867464
0.7501664
0.74122487
0.73212464
0.72314354
0.71453151
0.70648893
0.69915694
0.69261778
0.68690187
0.68199854
0.67786761
0.67444979
0.67167523
0.66947007
0.66776115
0.66647921
0.66556056
0.6649482
0.66459265
0.66444869
0.66448004
0.66465368
0.66494891
0.66533625
0.66580507
0.66632662
0.66690519
0.66751527
0.66816343
0.66881503
0.66949493
0.67018518
0.67087346
0.6715676
0.67226295
0.67295558
0.67364371
0.67432654
0.67500341
0.67567369
0.67633705
0.67699352
0.67764325
0.67828133
0.67891977
0.67954047
0.68015909
0.68077392
0.76681471
0.75970255
0.75199951
0.74389311
0.73560203
0.72735326
0.71935889
0.71179787
0.70480543
0.69847019
0.69283738
0.68791559
0.68368518
0.68010647
0.67712713
0.67468815
0.67272845
0.67118818
0.67001087
0.66914475
0.66854344
0.66816517
0.66797427
0.66794109
0.66803823
0.66824291
0.66853851
0.668905
0.6693364
0.66980517
0.67032056
0.67085996
0.67142637
0.67201681
0.67260286
0.67320883
0.6738225
0.67443805
0.67505373
0.67566895
0.67628276
0.67689404
0.67750216
0.67810709
0.67871088
0.67929713
0.67989044
0.68047564
0.68105703
0.6816354
0.76708709
0.76061908
0.75362996
0.7462685
0.7387094
0.73113769
0.72373184
0.71664899
0.71001494
0.70391948
0.69841685
0.6935296
0.68925428
0.68556766
0.68243283
0.6798044
0.67763282
0.67586763
0.67445976
0.67336304
0.67253512
0.67193755
0.67153649
0.67130238
0.67121188
0.6712384
0.6713641
0.67157488
0.67185579
0.67219164
0.67257952
0.67299692
0.67344773
0.67393286
0.67442618
0.6749393
0.67546734
0.67600345
0.67654402
0.67708929
0.67763785
0.67818791
0.67873845
0.67928894
0.67983891
0.68038265
0.68092864
0.68147212
0.68201416
0.68255498
0.76733267
0.76143959
0.75508605
0.74839083
0.741494
0.73454625
0.72769674
0.72108168
0.7148154
0.70898516
0.70364971
0.69884109
0.69456815
0.6908211
0.68757623
0.68480037
0.68245467
0.68049773
0.67888786
0.67758473
0.67655044
0.67575005
0.6751521
0.67472872
0.67445588
0.67431019
0.67427458
0.67433086
0.67446436
0.67466576
0.67492258
0.67522326
0.67556356
0.67594173
0.6763346
0.67675409
0.67719634
0.67765161
0.6781142
0.67858749
0.67906903
0.67955588
0.68004677
0.68054082
0.68103701
0.68153305
0.68203162
0.68253122
0.68303207
0.68353431
0.76755473
0.76217676
0.75639112
0.75029327
0.7439959
0.73762173
0.73129487
0.7251321
0.71923545
0.71368713
0.70854704
0.70385302
0.69962286
0.69585737
0.69254388
0.68965986
0.6871762
0.68505998
0.68327669
0.68179188
0.68057231
0.67958674
0.67880642
0.67820539
0.67776044
0.67745021
0.6772568
0.67716347
0.67715648
0.67722338
0.67735139
0.67753461
0.67776269
0.67803158
0.67832915
0.67865556
0.67900833
0.67938241
0.67976292
0.68016294
0.68057632
0.68099817
0.68142758
0.6818635
0.68230479
0.68275013
0.68320006
0.68365392
0.68411187
0.68457558
0.76775602
0.76284112
0.7575646
0.75200361
0.7462492
0.74040137
0.73456301
0.72883345
0.72330242
0.71804548
0.71312123
0.70857047
0.70441701
0.70066968
0.69732478
0.69436886
0.6917814
0.68953728
0.68760878
0.68596719
0.68458399
0.68343174
0.68248466
0.68171895
0.6811129
0.68064666
0.68030274
0.68006526
0.67992014
0.6798569
0.67986139
0.67992663
0.68004211
0.6802047
0.68040446
0.68063673
0.68089991
0.68118778
0.68149272
0.68181776
0.68215961
0.68251466
0.68288092
0.68325719
0.68364221
0.68403479
0.68443456
0.68484094
0.68525367
0.68567243
0.76793891
0.76344152
0.75862276
0.75354533
0.74828307
0.74291759
0.73753401
0.73221624
0.72704228
0.72208028
0.71738577
0.71300031
0.70895143
0.70525367
0.70191037
0.69891556
0.69625618
0.69391408
0.69186782
0.69009415
0.6885692
0.68726938
0.68617198
0.68525559
0.68450034
0.68388791
0.68340171
0.6830267
0.68274951
0.68255857
0.68244196
0.68239239
0.68239881
0.68245639
0.68255749
0.6826946
0.68286907
0.68307204
0.6832979
0.68354756
0.68381753
0.68410465
0.68440635
0.68472167
0.68504913
0.68538736
0.68573553
0.68609294
0.68645902
0.68683307
0.76810539
0.76398546
0.75957938
0.75493838
0.7501226
0.74519875
0.74023719
0.73530843
0.73047964
0.72581134
0.72135491
0.717151
0.71322897
0.70960724
0.70629432
0.70329029
0.70058834
0.69817642
0.69603875
0.6941572
0.69251234
0.69108434
0.68985364
0.68880137
0.68790966
0.68716183
0.68654249
0.68603755
0.68563431
0.68532134
0.68508794
0.68492537
0.68482445
0.68477986
0.68478295
0.68482792
0.68491297
0.6850319
0.68517637
0.68535067
0.68554847
0.68576708
0.68600288
0.68625623
0.68652512
0.68680775
0.68710307
0.68741024
0.68772849
0.68805709
0.76825721
0.76447932
0.76044616
0.7561998
0.75178943
0.74726972
0.74269876
0.73813563
0.7336377
0.72925808
0.72504339
0.72103222
0.71725428
0.71373029
0.71047245
0.70748544
0.70476757
0.70231198
0.70010791
0.69814185
0.69639855
0.69486182
0.69351518
0.69234234
0.6913276
0.69045598
0.68971348
0.6890871
0.6885649
0.68813601
0.68779044
0.68751934
0.68731446
0.68716907
0.68707595
0.68703065
0.68702718
0.687061
0.68712765
0.68722528
0.6873504
0.68750074
0.68766877
0.68785969
0.6880694
0.68829547
0.68853691
0.68879277
0.68906219
0.68934436
0.76839588
0.76492857
0.76123312
0.75734426
0.75330235
0.74915232
0.74494216
0.74072124
0.73653829
0.7324394
0.72846625
0.72465463
0.7210335
0.71762459
0.71444254
0.71149539
0.70878544
0.70631014
0.70406306
0.7020348
0.70021392
0.69858765
0.6971425
0.69586478
0.69474091
0.69375776
0.6929028
0.69216422
0.69153102
0.69099304
0.69054093
0.69016618
0.68986098
0.68961847
0.68943215
0.68929665
0.68920647
0.68915837
0.68914615
0.68916782
0.68922018
0.68930036
0.68940414
0.68953181
0.68968095
0.6898496
0.69003635
0.69024008
0.69045979
0.69069463
0.76852272
0.76533795
0.76194893
0.75838441
0.75467769
0.75086578
0.74698838
0.74308665
0.73920181
0.73537354
0.73163864
0.72802966
0.72457405
0.72129359
0.71820425
0.71531641
0.71263537
0.710162
0.70789348
0.70582401
0.70394555
0.70224846
0.7007221
0.69935524
0.69813648
0.69705453
0.69609838
0.69525752
0.69452198
0.69388244
0.69333021
0.69285731
0.69245638
0.69212074
0.69184424
0.69162144
0.69144727
0.69131751
0.69122732
0.69117503
0.69115521
0.69116626
0.69120453
0.69126927
0.69135781
0.6914687
0.69160025
0.69175124
0.6919206
0.69210737
0.76863887
0.76571157
0.76260104
0.75933125
0.75592974
0.75242708
0.74885618
0.74525134
0.74164729
0.738078
0.73457558
0.73116923
0.72788438
0.72474213
0.72175892
0.71894658
0.71631255
0.71386033
0.71159001
0.70949881
0.70758167
0.70583178
0.7042411
0.70280077
0.70150147
0.70033373
0.6992881
0.6983554
0.69752678
0.69679382
0.6961486
0.69558373
0.69509236
0.69466815
0.69430529
0.69399847
0.69374286
0.69353413
0.69336813
0.69324173
0.6931509
0.69309461
0.69306762
0.69306975
0.69309761
0.69315086
0.69322695
0.69332492
0.69344351
0.6935817
0.76874535
0.766053
0.763196
0.76019437
0.75707101
0.75385125
0.7505624
0.74723306
0.74389242
0.74056941
0.73729185
0.73408558
0.73097375
0.72797626
0.72510938
0.72238565
0.71981392
0.7173996
0.71514504
0.71304993
0.71111174
0.70932615
0.70768747
0.70618901
0.70482343
0.70358302
0.70245989
0.70144619
0.70053421
0.69971653
0.69898602
0.69833598
0.69776009
0.69725249
0.69680771
0.69642073
0.69608691
0.69580206
0.69556229
0.69536419
0.69520446
0.69508058
0.69498908
0.69492983
0.69489797
0.6948938
0.6949143
0.69495929
0.69502696
0.6951163
0.76884305
0.76636539
0.7637395
0.76098218
0.75811252
0.7551516
0.75212212
0.74904794
0.74595358
0.74286358
0.73980187
0.7367911
0.73385203
0.73100306
0.72825979
0.72563489
0.72313802
0.72077589
0.71855252
0.71646955
0.71452653
0.71272124
0.71105008
0.70950832
0.70809046
0.70679044
0.70560189
0.70451826
0.70353301
0.70263971
0.70183211
0.70110421
0.70045031
0.69986505
0.69934339
0.69888064
0.69847244
0.69811479
0.697804
0.69753672
0.69730985
0.69712066
0.69696646
0.6968454
0.69675454
0.69669421
0.69665985
0.69665223
0.69666891
0.6967094
0.76893278
0.76665151
0.76423656
0.76170206
0.759064
0.75633996
0.75354887
0.75071067
0.74784592
0.74497539
0.74211956
0.73929813
0.73652951
0.73383039
0.73121543
0.72869696
0.72628494
0.72398687
0.72180798
0.71975133
0.71781812
0.7160079
0.71431882
0.71274791
0.71129132
0.70994452
0.70870255
0.70756015
0.70651192
0.70555243
0.7046763
0.7038783
0.70315338
0.70249671
0.70190373
0.70137013
0.7008919
0.70046527
0.70008677
0.69975322
0.69946165
0.6992094
0.69899398
0.69881327
0.69866508
0.69854803
0.69845958
0.69840045
0.69836694
0.69835898
0.76901524
0.7669138
0.76469158
0.76236052
0.75993405
0.75742687
0.75485482
0.75223456
0.74958337
0.74691879
0.74425828
0.74161887
0.7390167
0.73646676
0.73398251
0.73157569
0.72925613
0.72703174
0.72490845
0.7228904
0.72098002
0.71917825
0.71748472
0.71589796
0.71441555
0.71303438
0.7117508
0.71056073
0.70945988
0.7084438
0.70750799
0.70664798
0.7058594
0.70513801
0.70447973
0.7038807
0.70333725
0.70284594
0.70240355
0.70200707
0.70165375
0.70134103
0.70106656
0.70082823
0.70062406
0.70045234
0.70031129
0.70019961
0.70011766
0.70006174
0.76909106
0.76715444
0.76510849
0.76296335
0.76073031
0.75842173
0.75605087
0.75363171
0.75117875
0.74870682
0.74623076
0.7437652
0.74132422
0.7389211
0.73656804
0.73427595
0.7320543
0.72991101
0.72785242
0.72588335
0.72400711
0.72222572
0.72053998
0.71894966
0.7174536
0.71604992
0.71473613
0.71350928
0.71236609
0.71130307
0.71031656
0.70940287
0.70855831
0.70777922
0.70706206
0.70640342
0.70580003
0.70524878
0.70474674
0.70429115
0.70387945
0.70350926
0.70317838
0.70288477
0.70262658
0.70240214
0.70220987
0.70204848
0.70191701
0.70181337
0.7691608
0.76737534
0.76549077
0.76351566
0.76145958
0.75933293
0.75714685
0.75491309
0.75264384
0.75035163
0.74804906
0.74574865
0.74346261
0.74120261
0.73897957
0.73680347
0.7346832
0.73262647
0.73063973
0.72872815
0.72689567
0.72514506
0.72347804
0.72189536
0.72039691
0.71898185
0.71764874
0.71639563
0.71522019
0.71411979
0.7130916
0.71213267
0.71123998
0.71041047
0.70964116
0.70892908
0.70827138
0.70766532
0.70710829
0.70659781
0.70613153
0.70570728
0.70532302
0.70497686
0.70466706
0.70439203
0.70415033
0.70394065
0.70376183
0.70361248
0.76922499
0.76757823
0.76584148
0.76402201
0.76212792
0.76016798
0.75815159
0.75608863
0.7539894
0.75186446
0.74972452
0.74758027
0.74544224
0.74332062
0.74122509
0.73916465
0.73714752
0.735181
0.73327143
0.7314241
0.72964332
0.72793237
0.72629362
0.72472857
0.72323797
0.72182185
0.72047966
0.71921031
0.71801233
0.71688389
0.71582294
0.71482721
0.71389433
0.71302186
0.71220731
0.71144822
0.71074216
0.71008677
0.70947976
0.70891896
0.70840227
0.70792775
0.70749353
0.70709791
0.70673927
0.70641615
0.70612719
0.70587115
0.70564691
0.70545332
0.76928407
0.76776467
0.76616339
0.76448646
0.76274071
0.76093359
0.75907302
0.75716735
0.75522527
0.75325572
0.75126778
0.74927058
0.74727319
0.74528443
0.74331282
0.74136642
0.73945269
0.73757843
0.73574969
0.73397173
0.73224897
0.73058502
0.72898268
0.72744403
0.72597043
0.72456262
0.72322079
0.72194461
0.72073333
0.71958586
0.71850082
0.71747661
0.71651146
0.7156035
0.71475077
0.71395128
0.71320302
0.71250402
0.71185235
0.71124611
0.71068352
0.71016284
0.70968244
0.70924079
0.70883643
0.70846804
0.70813437
0.70783428
0.70756671
0.70733062
0.76933847
0.76793602
0.76645898
0.76491263
0.7633028
0.76163579
0.7599183
0.75815739
0.75636043
0.75453497
0.75268875
0.75082956
0.74896515
0.74710318
0.74525111
0.74341604
0.74160472
0.73982336
0.73807764
0.73637262
0.7347127
0.73310162
0.73154246
0.73003766
0.72858905
0.72719793
0.72586504
0.72459069
0.72337476
0.72221678
0.72111598
0.72007137
0.71908173
0.71814572
0.71726187
0.71642866
0.7156445
0.7149078
0.71421698
0.71357046
0.71296673
0.71240432
0.71188181
0.71139787
0.71095124
0.71054071
0.7101652
0.70982366
0.70951514
0.70923867
0.76938854
0.76809353
0.76673044
0.76530379
0.76381851
0.76227998
0.76069385
0.75906613
0.75740304
0.75571103
0.75399665
0.75226655
0.7505274
0.7487858
0.74704823
0.74532098
0.74361002
0.74192102
0.74025919
0.73862931
0.73703564
0.73548192
0.73397135
0.73250659
0.7310898
0.72972264
0.72840633
0.72714166
0.72592902
0.72476847
0.72365979
0.72260249
0.72159587
0.72063907
0.71973109
0.71887083
0.71805711
0.71728872
0.71656441
0.71588293
0.71524305
0.71464356
0.71408327
0.71356106
0.71307586
0.71262663
0.71221243
0.71183235
0.71148554
0.71117111
0.76943463
0.76823832
0.76697977
0.76566284
0.76429173
0.76287099
0.76140546
0.75990021
0.75836054
0.75679192
0.75519995
0.7535903
0.7519687
0.75034084
0.74871235
0.74708873
0.74547528
0.74387708
0.74229889
0.74074513
0.73921985
0.73772668
0.73626883
0.73484906
0.73346972
0.73213273
0.73083963
0.72959158
0.7283894
0.72723357
0.72612431
0.72506157
0.72404512
0.72307452
0.72214919
0.72126843
0.72043144
0.71963737
0.71888529
0.71817427
0.71750336
0.7168716
0.71627806
0.71572182
0.715202
0.71471775
0.71426827
0.71385281
0.71347063
0.71312095
0.76947704
0.76837138
0.76720873
0.76599238
0.76472591
0.76341318
0.76205831
0.76066563
0.75923963
0.75778499
0.75630647
0.75480893
0.7532973
0.75177648
0.75025135
0.74872671
0.74720726
0.7456975
0.74420174
0.74272404
0.74126815
0.73983755
0.73843535
0.73706433
0.73572693
0.73442521
0.73316094
0.73193553
0.73075012
0.72960553
0.72850233
0.72744087
0.72642127
0.72544349
0.7245073
0.72361237
0.72275825
0.72194441
0.72117026
0.72043514
0.71973838
0.71907927
0.71845712
0.71787123
0.71732092
0.71680552
0.71632438
0.71587692
0.71546254
0.71508054
0.76951604
0.76849361
0.76741892
0.76629475
0.76512416
0.76391044
0.76265709
0.7613678
0.7600464
0.75869689
0.75732335
0.75592993
0.75452087
0.75310041
0.75167278
0.75024217
0.74881271
0.74738839
0.74597307
0.74457044
0.74318397
0.74181689
0.74047219
0.73915258
0.7378605
0.73659809
0.73536723
0.73416953
0.73300631
0.73187868
0.73078748
0.72973335
0.72871674
0.7277379
0.72679695
0.72589387
0.72502852
0.72420067
0.72341
0.72265615
0.72193869
0.72125718
0.72061114
0.72000008
0.71942351
0.71888096
0.71837195
0.71789603
0.71745276
0.76955188
0.76860581
0.76761174
0.76657203
0.76548926
0.76436625
0.76320596
0.76201156
0.76078632
0.75953366
0.75825708
0.75696014
0.7556465
0.75431982
0.75298378
0.75164204
0.7502982
0.74895581
0.74761832
0.74628904
0.74497115
0.74366763
0.74238129
0.74111474
0.73987035
0.73865026
0.73745641
0.7362905
0.73515401
0.73404821
0.73297415
0.73193272
0.73092459
0.72995029
0.72901021
0.72810459
0.72723356
0.72639716
0.72559534
0.72482797
0.72409487
0.72339583
0.72273057
0.72209883
0.7215003
0.72093468
0.72040166
0.71990091
0.71943201
0.76958478
0.76870871
0.76778847
0.76682606
0.76582367
0.76478369
0.76370865
0.76260125
0.7614643
0.76030072
0.75911353
0.75790581
0.75668069
0.75544136
0.75419102
0.75293285
0.75167004
0.75040571
0.74914292
0.74788466
0.74663379
0.74539307
0.7441651
0.74295233
0.74175704
0.74058133
0.73942714
0.73829619
0.73719004
0.73611009
0.73505752
0.73403339
0.73303856
0.73207378
0.73113963
0.73023659
0.72936503
0.72852519
0.72771726
0.72694134
0.72619746
0.72548562
0.72480575
0.72415776
0.72354154
0.72295694
0.72240381
0.72188198
0.72139111
0.76961494
0.76880294
0.76795023
0.76705849
0.76612957
0.76516551
0.76416845
0.76314071
0.76208469
0.76100291
0.75989797
0.75877253
0.75762932
0.75647108
0.75530062
0.75412072
0.75293417
0.75174374
0.75055215
0.74936208
0.7481761
0.74699673
0.74582637
0.74466729
0.74352167
0.74239152
0.74127872
0.74018499
0.73911194
0.73806099
0.73703344
0.73603044
0.73505301
0.73410204
0.73317828
0.7322824
0.73141493
0.73057633
0.72976697
0.72898714
0.72823708
0.72751694
0.72682686
0.72616692
0.72553717
0.72493763
0.72436829
0.72382911
0.7233199
0.76964252
0.76888907
0.76809801
0.76727077
0.7664089
0.76551412
0.76458827
0.76363332
0.76265136
0.76164453
0.76061509
0.75956534
0.75849766
0.75741446
0.75631816
0.75521121
0.75409608
0.75297521
0.75185102
0.7507259
0.74960219
0.74848215
0.74736799
0.74626182
0.74516566
0.74408143
0.74301094
0.74195586
0.74091779
0.73989817
0.73889834
0.73791953
0.73696284