/*--------------------------------*- C++ -*----------------------------------*\
| =========                 |                                                 |
| \\      /  F ield         | OpenFOAM: The Open Source CFD Toolbox           |
|  \\    /   O peration     | Version:  2312                                  |
|   \\  /    A nd           | Website:  www.openfoam.com                      |
|    \\/     M anipulation  |                                                 |
\*---------------------------------------------------------------------------*/
FoamFile
{
    version     2.0;
    format      ascii;
    arch        "LSB;label=32;scalar=64";
    class       volScalarField;
    location    "0.05";
    object      nut;
}
// * * * * * * * * * * * * * * * * * * * * * * * * * * * * * * * * * * * * * //

dimensions      [0 2 -1 0 0 0 0];

internalField   nonuniform List<scalar> 
3275
(
0.024581302
0.02559815
0.026560336
0.027451705
0.028333423
0.029272203
0.030312265
0.031458651
0.032691635
0.033973706
0.035256619
0.036509884
0.037697044
0.038766129
0.039676638
0.040390197
0.040867973
0.041151046
0.041290222
0.041326218
0.041290094
0.041185832
0.041037474
0.040856402
0.040651285
0.040428775
0.040194009
0.039950977
0.039702793
0.039451902
0.039200223
0.038949272
0.038700246
0.03845409
0.038211553
0.037973222
0.03773956
0.037510928
0.037287605
0.037069806
0.03685769
0.036651376
0.036450945
0.036256454
0.036067928
0.035885373
0.035708796
0.035538181
0.035373502
0.035214727
0.035061816
0.034914725
0.024656758
0.025654433
0.026563008
0.027431498
0.028307567
0.029248135
0.030292046
0.031441473
0.032676248
0.033959031
0.03524206
0.036494765
0.037680851
0.038748889
0.039658478
0.040371376
0.040848929
0.041132013
0.04127146
0.0413079
0.041272381
0.04116883
0.041021232
0.040840937
0.040636595
0.040414841
0.040180804
0.039938469
0.03969095
0.039440686
0.0391896
0.038939209
0.038690709
0.038445049
0.038202978
0.037965086
0.037731837
0.037503594
0.037280638
0.037063185
0.036851396
0.03664539
0.036445251
0.036251034
0.03606277
0.035880465
0.035704125
0.035533735
0.035369271
0.0352107
0.035057984
0.034911077
0.024810842
0.02573826
0.026554313
0.027387074
0.028255963
0.02920131
0.030252751
0.03140788
0.032645911
0.033929908
0.035213033
0.036464535
0.037648433
0.038714361
0.039622099
0.040333659
0.040810741
0.041093859
0.041233865
0.041271206
0.041236915
0.0411348
0.04098873
0.040809997
0.040607206
0.040386968
0.040154393
0.039913456
0.039667265
0.039418259
0.039168361
0.038919089
0.038671643
0.038426976
0.038185838
0.037948824
0.037716403
0.03748894
0.03726672
0.03704996
0.036838827
0.03663344
0.036433887
0.036240225
0.036052486
0.035870682
0.035694818
0.035524879
0.035360845
0.035202683
0.035050358
0.034903823
0.025017055
0.025784835
0.026508178
0.02731189
0.028179152
0.02913417
0.03019623
0.031359057
0.03260137
0.03388677
0.03516978
0.036419316
0.037599856
0.038662588
0.039567518
0.040277035
0.040753341
0.041036519
0.041177398
0.041216119
0.041183705
0.041083762
0.040939999
0.040763616
0.04056316
0.040345198
0.040114817
0.039875977
0.039631778
0.039384658
0.03913654
0.038888945
0.03864308
0.038399899
0.03816016
0.037924464
0.037693283
0.037466989
0.037245872
0.037030153
0.036820002
0.036615544
0.03641687
0.03622404
0.036037091
0.035856038
0.035680886
0.035511626
0.035348236
0.035190689
0.03503895
0.034892972
0.025133066
0.025719396
0.026406894
0.027202328
0.028079764
0.029050244
0.030124744
0.031296478
0.032543551
0.033830166
0.035112591
0.036359249
0.037535188
0.038593606
0.039494739
0.040201468
0.040676618
0.040959896
0.041101999
0.041142611
0.041112758
0.041015745
0.040875079
0.040701846
0.040504511
0.040289589
0.040062134
0.039826088
0.039584543
0.039339934
0.039094186
0.038848825
0.038605062
0.03836386
0.038125983
0.037892041
0.037662511
0.037437773
0.037218123
0.037003789
0.036794947
0.036591727
0.036394224
0.036202503
0.036016606
0.035836552
0.03566235
0.035493992
0.035331462
0.035174733
0.035023774
0.034878539
0.024758962
0.025527768
0.026257588
0.027072066
0.02796944
0.028958729
0.030046326
0.031226191
0.032477469
0.033764667
0.035045828
0.036288766
0.037459139
0.038512392
0.039408981
0.040112337
0.040585962
0.04086939
0.041013023
0.041055933
0.041029179
0.040935665
0.040798683
0.040629181
0.040435533
0.040224197
0.04000019
0.039767434
0.039529012
0.039287356
0.039044395
0.038801659
0.038560367
0.038321491
0.038085804
0.037853921
0.037626332
0.037403424
0.037185498
0.036972793
0.036765489
0.036563724
0.036367598
0.036177182
0.035992521
0.035813643
0.035640557
0.035473261
0.035311741
0.035155975
0.035005933
0.034861573
0.024605229
0.025327561
0.026096956
0.026937088
0.02785608
0.028863406
0.029963798
0.031151194
0.032405529
0.033692479
0.034971618
0.036210073
0.037374084
0.038421451
0.039312872
0.040012351
0.040484093
0.04076773
0.040913178
0.040958745
0.040935553
0.040846012
0.040713192
0.040547892
0.040358388
0.040151074
0.03993093
0.039701857
0.039466929
0.039228576
0.03898873
0.038748929
0.0385104
0.038274122
0.038040881
0.037811301
0.037585881
0.037365016
0.037149019
0.036938134
0.036732549
0.036532411
0.036337824
0.036148867
0.03596559
0.035788026
0.035616189
0.03545008
0.03528969
0.035135
0.034985984
0.034842601
0.02454362
0.025160055
0.025937683
0.026797198
0.027735963
0.028760219
0.029872781
0.031067066
0.032323085
0.033608396
0.034884313
0.036117057
0.037273415
0.038313636
0.039198829
0.039893585
0.040362892
0.040646844
0.040794581
0.04084341
0.040824558
0.040739796
0.040611959
0.040451672
0.040267097
0.040064558
0.039848995
0.039624284
0.039393491
0.039159047
0.038922886
0.038686555
0.038451291
0.038218087
0.037987738
0.03776088
0.037538024
0.037319576
0.037105858
0.036897125
0.036693574
0.036495359
0.036302593
0.036115362
0.035933722
0.035757712
0.035587352
0.035422648
0.035263595
0.035110179
0.034962376
0.034820151
0.024520523
0.025042498
0.025796603
0.026661679
0.027614028
0.028651891
0.029774602
0.030974042
0.032230181
0.033512088
0.034783026
0.036008665
0.037156077
0.038187695
0.039065483
0.039754569
0.040220812
0.040505232
0.040655824
0.040708611
0.040694966
0.040615874
0.040493917
0.040339519
0.040160718
0.039963764
0.039753547
0.039533926
0.039307953
0.039078061
0.038846191
0.038613901
0.038382439
0.038152812
0.037925828
0.037702139
0.037482268
0.037266633
0.037055569
0.036849342
0.036648159
0.036452183
0.036261538
0.036076317
0.035896584
0.035722384
0.035553745
0.035390677
0.035233183
0.03508125
0.034934861
0.034793985
0.024515892
0.02497008
0.025682179
0.026537719
0.027494806
0.028541034
0.029670482
0.030872398
0.032126596
0.033403125
0.034666896
0.035883786
0.03702087
0.038042316
0.038911365
0.039593724
0.040056228
0.040341343
0.040495459
0.040553002
0.040545516
0.040473075
0.040357973
0.04021041
0.040038292
0.039847785
0.039643735
0.039429974
0.039209549
0.038984894
0.038757959
0.038530314
0.038303223
0.038077707
0.037854592
0.037634545
0.037418105
0.037205704
0.036997691
0.036794345
0.036595885
0.036402485
0.036214279
0.036031369
0.03585383
0.035681713
0.035515054
0.03535387
0.035198167
0.035047942
0.034903182
0.034763858
0.024520571
0.024930283
0.025595377
0.026429295
0.027381573
0.028429635
0.029561223
0.030762353
0.03201192
0.033280798
0.03453508
0.035741215
0.036866461
0.037876107
0.038734897
0.039409342
0.039867453
0.040153586
0.040312009
0.04037524
0.040374924
0.040310215
0.040203025
0.040063313
0.039898845
0.039715705
0.03951869
0.039311609
0.039097503
0.038878809
0.03865749
0.038435129
0.03821301
0.037992171
0.037773456
0.037557552
0.037345015
0.037136293
0.036931752
0.036731684
0.036536323
0.036345855
0.036160425
0.035980148
0.035805106
0.035635361
0.035470956
0.035311917
0.035158257
0.035009977
0.034867071
0.034729517
0.024529246
0.024911674
0.025532592
0.026337232
0.027276002
0.028318909
0.0294474
0.030643811
0.031885635
0.033144174
0.034386553
0.035579732
0.036691321
0.037687554
0.038534432
0.039199559
0.039652755
0.039940369
0.040104
0.040174025
0.040181885
0.040126118
0.040027974
0.039897194
0.039741405
0.039566606
0.039377543
0.039178006
0.038971031
0.038759061
0.038544074
0.038327672
0.038111157
0.03789559
0.037681837
0.037470604
0.037262467
0.037057895
0.036857269
0.036660898
0.036469033
0.036281872
0.036099576
0.035922269
0.035750046
0.035582979
0.03542112
0.035264503
0.035113149
0.034967067
0.034826256
0.0346907
0.024538869
0.024905571
0.025488058
0.026259858
0.027178144
0.028209149
0.029328996
0.030516322
0.03174696
0.032992212
0.034220064
0.035397988
0.036493873
0.03747494
0.038308225
0.038962307
0.039410394
0.039700138
0.039869973
0.039948179
0.039965065
0.039919645
0.039831746
0.039711037
0.03956501
0.039399574
0.039219429
0.039028342
0.038829349
0.038624905
0.038417002
0.038207264
0.037997018
0.037787349
0.037579145
0.037373138
0.037169924
0.036969995
0.03677375
0.036581519
0.036393567
0.036210111
0.036031324
0.035857344
0.035688279
0.035524212
0.035365206
0.035211303
0.035062534
0.034918916
0.034780455
0.03464714
0.024547667
0.024905254
0.025455529
0.026193788
0.027086609
0.028099706
0.029205422
0.030379098
0.031594843
0.03282369
0.034034205
0.035194397
0.036272485
0.037236457
0.038054356
0.038695215
0.03913867
0.039431429
0.039608602
0.039696447
0.039723262
0.039689743
0.039613312
0.03950386
0.039368726
0.03921372
0.039043497
0.038861806
0.038671684
0.038475599
0.038275565
0.03807323
0.037869946
0.037666827
0.037464788
0.037264586
0.037066844
0.036872075
0.036680702
0.036493072
0.036309473
0.036130137
0.035955254
0.035784976
0.035619426
0.035458699
0.035302869
0.035151989
0.035006099
0.034865225
0.034729382
0.034598565
0.024554449
0.024905375
0.025428739
0.026134625
0.026998866
0.027989063
0.029075505
0.03023097
0.031427976
0.03263715
0.033827419
0.034967257
0.036025319
0.036970243
0.037770866
0.038396385
0.038836116
0.039132931
0.039318711
0.039417639
0.039455454
0.039435417
0.039371704
0.039274739
0.039151664
0.039008193
0.038848931
0.038677614
0.038497282
0.038310422
0.03811907
0.037924902
0.037729302
0.037533412
0.037338179
0.037144387
0.036952687
0.036763617
0.036577626
0.036395083
0.036216295
0.036041514
0.035870948
0.035704766
0.035543105
0.035386074
0.035233759
0.035086226
0.034943524
0.03480569
0.034672746
0.034544696
0.024558127
0.024901286
0.025401915
0.026077508
0.026911578
0.027874969
0.028937529
0.03007039
0.03124479
0.032430926
0.033597955
0.034714757
0.035750428
0.03667426
0.037455816
0.038064676
0.038501527
0.038803594
0.038999302
0.039110768
0.039160793
0.039155737
0.03910605
0.039022825
0.038913003
0.038782194
0.038634958
0.038475017
0.038305421
0.038128674
0.037946842
0.037761632
0.03757446
0.037386502
0.037198737
0.037011982
0.036826917
0.036644108
0.03646403
0.036287077
0.036113578
0.035943806
0.035777989
0.035616314
0.035458933
0.03530597
0.035157526
0.035013678
0.034874488
0.034740003
0.034610254
0.034485255
0.024557213
0.024888396
0.025369565
0.02601748
0.026820916
0.027754606
0.028789303
0.029895454
0.031043461
0.032203171
0.033343904
0.034434929
0.035445776
0.036346354
0.037107049
0.037699032
0.038134013
0.038442633
0.038649655
0.038775077
0.038838615
0.038849931
0.0388156
0.038747382
0.038652012
0.038535004
0.03840087
0.038253323
0.038095424
0.037929699
0.037758244
0.0375828
0.03740482
0.037225515
0.037045901
0.036866829
0.036689011
0.036513044
0.036339429
0.036168587
0.036000873
0.035836582
0.035675963
0.035519221
0.035366527
0.035218021
0.035073817
0.034934008
0.034798668
0.034667855
0.034541613
0.034419962
0.024549633
0.024861212
0.025326478
0.025949752
0.026722849
0.027624773
0.028628257
0.029703955
0.030821935
0.031951858
0.033063223
0.034125681
0.035109205
0.035984291
0.03672207
0.037298552
0.037733103
0.038049631
0.038269338
0.038410106
0.038488523
0.038517387
0.038499772
0.03844781
0.038368081
0.038266003
0.038146045
0.038011913
0.037866678
0.037712891
0.03755268
0.037387824
0.037219813
0.0370499
0.036879135
0.036708408
0.036538465
0.036369935
0.03620335
0.036039158
0.035877741
0.035719419
0.035564461
0.035413095
0.035265511
0.035121864
0.034982286
0.034846884
0.034715746
0.034588942
0.034466529
0.034348537
0.024539703
0.024828357
0.025267994
0.025869887
0.026613386
0.027482062
0.028451549
0.02949344
0.030577967
0.031674817
0.032753743
0.033784828
0.034738471
0.03558575
0.036297663
0.03686282
0.037298788
0.037624634
0.037858304
0.038015662
0.038110555
0.038157619
0.0381582
0.038123686
0.038060742
0.037974694
0.037869968
0.037750258
0.037618648
0.037477713
0.037329617
0.037176175
0.037018919
0.036859142
0.036697936
0.036536228
0.036374801
0.036214318
0.036055342
0.035898353
0.035743759
0.035591907
0.03544309
0.035297557
0.035155517
0.035017147
0.034882593
0.034751979
0.034625407
0.034502962
0.034384714
0.03427071
0.024529341
0.024793737
0.025199631
0.025774157
0.026488708
0.027323021
0.028256194
0.029261298
0.030309185
0.031369781
0.032413218
0.03341012
0.034331283
0.035148557
0.035835541
0.036392518
0.03683173
0.037168187
0.037416952
0.037591886
0.037705168
0.037770299
0.037790829
0.037774794
0.037729706
0.037660736
0.037572254
0.037467945
0.037350899
0.037223717
0.037088595
0.036947389
0.036801674
0.036652782
0.036501848
0.036349839
0.036197577
0.036045759
0.035894983
0.035745759
0.035598526
0.035453657
0.035311471
0.035172239
0.035036193
0.034903528
0.034774409
0.034648975
0.034527346
0.034409621
0.034295883
0.024519406
0.024759497
0.025128676
0.025661652
0.026345225
0.027144314
0.028039194
0.029004863
0.030013178
0.031034448
0.032039364
0.032999308
0.03388532
0.034669918
0.035337577
0.035889255
0.036333315
0.036681442
0.036946174
0.03713955
0.03727245
0.037356142
0.037397684
0.037401138
0.037374887
0.037323963
0.037252677
0.037164696
0.037063116
0.036950557
0.036829249
0.036701086
0.036567685
0.036430421
0.036290469
0.036148841
0.036006395
0.035863866
0.035721885
0.035580997
0.03544167
0.035304306
0.035169251
0.035036799
0.034907205
0.034780684
0.03465742
0.034537571
0.034421271
0.034308635
0.034199751
0.02451028
0.024726817
0.025059113
0.025544319
0.026180915
0.026942662
0.027797698
0.028721538
0.02968761
0.030666584
0.031629936
0.032550237
0.03339839
0.034154221
0.034806951
0.035355598
0.035805678
0.036166172
0.036447415
0.036659792
0.036813049
0.036916245
0.036978965
0.037003016
0.036996446
0.036964418
0.036911193
0.036840398
0.036755126
0.036658016
0.036551325
0.036436984
0.036316651
0.036191741
0.036063471
0.035932898
0.035800916
0.035668296
0.035535707
0.035403727
0.035272856
0.035143525
0.035016106
0.034890921
0.034768244
0.034648314
0.034531334
0.034417481
0.034306906
0.03419974
0.034096081
0.024502116
0.02469633
0.024993086
0.025428947
0.026010454
0.026720122
0.027529257
0.028408964
0.029330409
0.030264171
0.031182805
0.032061009
0.032874951
0.033607228
0.034248
0.034795036
0.035251709
0.035624784
0.035922672
0.036154232
0.036328067
0.036452124
0.036535091
0.036581095
0.036594814
0.036582397
0.036547971
0.036495121
0.036426924
0.036346022
0.0362547
0.036154917
0.036048374
0.035936517
0.03582061
0.035701748
0.035580867
0.03545877
0.035336164
0.035213663
0.035091797
0.034971027
0.034851753
0.034734322
0.034619033
0.034506147
0.034395885
0.034288447
0.034183998
0.034082692
0.033984645
0.024494952
0.024668351
0.024931698
0.025319309
0.0258428
0.026492302
0.027244278
0.028070101
0.028940541
0.029826593
0.030701386
0.031540943
0.032324274
0.033035752
0.033666017
0.034211881
0.034675015
0.035060317
0.035374497
0.035625009
0.035819359
0.03596471
0.036067904
0.036136022
0.036170694
0.036178437
0.036163418
0.036129154
0.036078689
0.036014674
0.035939403
0.035854858
0.035762778
0.035664636
0.035561739
0.035455224
0.035346058
0.035235082
0.035123039
0.035010578
0.03489826
0.034786576
0.034675954
0.034566766
0.034459335
0.034353946
0.034250841
0.034150239
0.034052323
0.03395727
0.024488762
0.024642995
0.024875445
0.025217384
0.025683251
0.026269271
0.026957639
0.027722874
0.028536562
0.029371255
0.030200817
0.031002184
0.031755877
0.032447245
0.033067017
0.03361114
0.034079841
0.034476401
0.034805993
0.035074758
0.035289148
0.035455501
0.035579763
0.03566855
0.03572517
0.035753381
0.035758197
0.035743009
0.035710823
0.035664266
0.035605636
0.035536935
0.03545993
0.035376112
0.03528683
0.035193261
0.035096397
0.034997115
0.034896195
0.034794319
0.034692081
0.034589998
0.034488527
0.034388066
0.034288961
0.034191522
0.034096011
0.034002666
0.033911691
0.033823271
0.02448348
0.024620252
0.024824467
0.025124081
0.025534759
0.026057292
0.026679336
0.027379709
0.02813276
0.028912374
0.029694184
0.030455965
0.031179114
0.031849435
0.032457479
0.032998344
0.033470971
0.033877189
0.034220766
0.034506601
0.034740116
0.034926834
0.035072103
0.035181028
0.035259362
0.035308345
0.035333253
0.035337468
0.035323949
0.035295297
0.035253798
0.035201456
0.035140055
0.035071106
0.034995989
0.034915917
0.034831899
0.034744852
0.034655587
0.034564821
0.034473174
0.034381191
0.034289357
0.034198096
0.034107776
0.034018733
0.03393125
0.033845584
0.033761958
0.033680567
0.024479021
0.024600028
0.024778685
0.025039662
0.025398772
0.025860022
0.026415819
0.027049603
0.027739398
0.028461235
0.029192497
0.029912339
0.030602834
0.03125001
0.031844099
0.032379373
0.032853598
0.033267278
0.033622875
0.033924105
0.034175384
0.03438141
0.034546878
0.034676264
0.034774526
0.034844846
0.034889835
0.034913576
0.034918953
0.034908508
0.034884497
0.034848919
0.034803559
0.034749946
0.034689476
0.034623384
0.03455271
0.034478393
0.03440128
0.034322115
0.034241542
0.034160136
0.034078406
0.033996802
0.033915716
0.033835505
0.033756475
0.033678901
0.033603027
0.033529056
0.024475285
0.02458217
0.024737879
0.02496399
0.025275774
0.025679339
0.026170973
0.026738514
0.027363964
0.028026437
0.028704748
0.029380019
0.030035141
0.030656349
0.031233555
0.031760267
0.032233183
0.032651596
0.033016749
0.033331232
0.033598473
0.033822344
0.034006873
0.034156041
0.034273725
0.034364243
0.034429505
0.034472674
0.034496983
0.034504881
0.034498575
0.034480042
0.034451048
0.034413137
0.034367711
0.034316017
0.034259116
0.034197972
0.034133458
0.034066345
0.033997296
0.033926912
0.033855727
0.033784213
0.03371279
0.03364183
0.033571664
0.033502585
0.033434853
0.033368688
0.02447217
0.024566489
0.024701745
0.024896686
0.025165633
0.025515925
0.025946845
0.026450123
0.027011667
0.027613903
0.028238072
0.028866317
0.029483212
0.030075307
0.030632299
0.031147048
0.031615313
0.032035293
0.032407106
0.032732271
0.033013256
0.033253111
0.033455179
0.033622892
0.033759649
0.033868724
0.033954067
0.034016404
0.034059479
0.034085669
0.03409712
0.034095766
0.034083341
0.034061389
0.034031305
0.033994335
0.033951564
0.03390397
0.033852444
0.033797782
0.03374066
0.033681704
0.033621471
0.033560455
0.033499095
0.033437784
0.033376872
0.033316672
0.033257461
0.033199472
0.024469573
0.02455277
0.024669919
0.024837225
0.025067833
0.025369661
0.025744188
0.026186396
0.026685789
0.027228113
0.027797287
0.02837713
0.028953187
0.029513048
0.030046372
0.030545546
0.031005545
0.031423613
0.031798844
0.032131757
0.0324239
0.032677508
0.032895232
0.033079931
0.033234522
0.033361843
0.03346516
0.033546739
0.033608175
0.033652406
0.033681485
0.033697283
0.033701487
0.033695622
0.033681064
0.03365905
0.033630675
0.03359693
0.033558715
0.033516835
0.03347199
0.033424822
0.033375905
0.033325754
0.033274826
0.033223532
0.03317224
0.03312128
0.033070946
0.033021487
0.024467395
0.024540789
0.024642007
0.024784992
0.024981618
0.025239908
0.025562854
0.025948031
0.026388086
0.026871909
0.027386146
0.027916721
0.028450118
0.028974926
0.029481263
0.029961248
0.030409268
0.030821766
0.031196936
0.031534384
0.031834788
0.032099594
0.032330763
0.032530568
0.03270144
0.032845846
0.032966272
0.033065517
0.033145102
0.033206909
0.033253294
0.033286043
0.033306779
0.033316986
0.03331801
0.03331107
0.033297259
0.03327757
0.033252904
0.033224071
0.033191788
0.033156709
0.033119422
0.033080457
0.033040288
0.032999341
0.032958002
0.032916615
0.03287549
0.032834889
0.024465546
0.024530315
0.024617596
0.024739328
0.024906095
0.025125697
0.025402081
0.0257348
0.026119132
0.0265468
0.02700709
0.027488099
0.027977889
0.028465409
0.028941786
0.029399168
0.029831566
0.030234803
0.030606317
0.030944902
0.031250436
0.031523619
0.031765738
0.031978477
0.032163767
0.032323664
0.032460275
0.032575654
0.032672368
0.032751286
0.032814446
0.032863758
0.032900759
0.032926871
0.032943396
0.032951522
0.032952329
0.032946799
0.032935827
0.032920223
0.032900712
0.032877955
0.03285255
0.032825039
0.032795907
0.032765594
0.0327345
0.032702982
0.032671364
0.032639921
0.024463944
0.024521126
0.024596273
0.024699555
0.024840298
0.025025859
0.025260705
0.025545821
0.0258786
0.026253219
0.026661402
0.027093392
0.027538925
0.027988078
0.028432004
0.02886373
0.029277097
0.029667496
0.030031765
0.030368013
0.030675406
0.03095395
0.031204292
0.031427542
0.031625125
0.031798665
0.031949895
0.032080574
0.03219245
0.032287853
0.032367117
0.032432414
0.03248523
0.032526913
0.032558707
0.032581755
0.032597107
0.032605725
0.03260849
0.032606202
0.032599588
0.032589309
0.032575968
0.032560114
0.032542239
0.032522795
0.03250219
0.032480795
0.032458944
0.032436921
0.024462516
0.024513009
0.024577633
0.024664998
0.024783235
0.024939122
0.025137311
0.025379762
0.025665501
0.025990747
0.026349394
0.026733712
0.027135136
0.027545005
0.027955162
0.028358689
0.02874999
0.029124223
0.029477796
0.029808269
0.030114199
0.030394978
0.030650657
0.030881795
0.031089325
0.031274433
0.031438474
0.031582889
0.031709155
0.031818808
0.031913766
0.031994259
0.032062254
0.032119001
0.03216567
0.032203346
0.032233036
0.032255667
0.032272097
0.03228311
0.032289421
0.03229169
0.032290516
0.032286448
0.032279984
0.032271582
0.032261656
0.032250586
0.032238714
0.032226332
0.024461203
0.024505766
0.024561288
0.024635002
0.024733924
0.024864171
0.025030341
0.025234999
0.025478369
0.025758312
0.026070579
0.026409286
0.026767514
0.027137928
0.027513323
0.027887063
0.028253758
0.028608871
0.028948554
0.029269962
0.029571166
0.029851029
0.030109071
0.030345344
0.030560305
0.030754716
0.030929551
0.031085927
0.031225041
0.031348135
0.031456557
0.03155179
0.03163414
0.03170527
0.031766255
0.03181811
0.031861783
0.031898158
0.031928059
0.031952241
0.031971404
0.031986193
0.031997198
0.032004966
0.032009991
0.032012734
0.032013614
0.032013012
0.032011277
0.032008707
0.024459954
0.02449922
0.024546877
0.024608945
0.02469141
0.024799699
0.024938183
0.025109736
0.025315419
0.025554356
0.025823832
0.026119584
0.026436226
0.026767741
0.027107949
0.027450913
0.027791236
0.028124753
0.028447716
0.028757028
0.029050399
0.029326266
0.029583698
0.029822289
0.030042059
0.030243365
0.030426812
0.030593188
0.030743405
0.030878454
0.030999373
0.031107286
0.031203434
0.031288086
0.031362662
0.031428088
0.031485242
0.031534952
0.031577995
0.031615092
0.031646919
0.031674094
0.031697195
0.031716757
0.031733265
0.031747181
0.03175892
0.031768864
0.031777364
0.031784719
0.024458729
0.024493216
0.024534069
0.024586246
0.024654791
0.024744439
0.024859221
0.025002099
0.025174666
0.025376977
0.025607537
0.025863455
0.026140722
0.026434572
0.026739871
0.027051469
0.027364487
0.027674541
0.027978416
0.028272951
0.028555637
0.028824594
0.029078524
0.029316632
0.029538551
0.02974426
0.029934017
0.03010829
0.030267704
0.030412996
0.030544978
0.030664499
0.030772489
0.030870038
0.030957312
0.031035541
0.031105519
0.03116801
0.031223733
0.031273365
0.031317542
0.031356857
0.031391866
0.03142308
0.031450977
0.031476008
0.03149858
0.031519073
0.031537835
0.031555164
0.024457499
0.024487617
0.024522566
0.02456637
0.024623224
0.024697188
0.024791885
0.024910201
0.025054023
0.02522405
0.025419719
0.025639256
0.02587984
0.026137856
0.026409183
0.026689495
0.026974522
0.027260258
0.027543173
0.027820685
0.028090176
0.028349561
0.028597269
0.028832191
0.029053629
0.029261231
0.029454934
0.029634903
0.029801488
0.029955174
0.030096546
0.030226256
0.030344999
0.030453511
0.030552823
0.030642932
0.030724924
0.030799496
0.030867298
0.030928951
0.030985044
0.031036133
0.031082744
0.031125365
0.031164457
0.03120045
0.031233742
0.031264709
0.031293685
0.031320968
0.02445625
0.024482309
0.024512107
0.02454884
0.024595939
0.024656825
0.024734679
0.024832199
0.024951379
0.025093326
0.025258154
0.025444964
0.025651925
0.025876432
0.02611531
0.026365052
0.02662204
0.026882737
0.027143832
0.027402578
0.027656785
0.027904273
0.028143291
0.0283725
0.028590936
0.028797968
0.02899325
0.029176675
0.02934833
0.02950846
0.029657429
0.029795691
0.029923763
0.030042207
0.030151584
0.030252904
0.030345942
0.030431756
0.030510898
0.030583924
0.03065137
0.030713747
0.030771541
0.030825213
0.030875198
0.030921902
0.030965712
0.031006985
0.031046044
0.031083183
0.024455009
0.024477179
0.024502463
0.024533232
0.024572241
0.024622324
0.024686207
0.024766331
0.024864658
0.024982516
0.025120475
0.025278293
0.025454931
0.025648638
0.025857087
0.026077546
0.026307059
0.026542612
0.026781276
0.027020326
0.027257639
0.027491309
0.027719498
0.027940718
0.028153814
0.028357932
0.028552492
0.028737146
0.028911748
0.029076318
0.029231011
0.029376087
0.029511888
0.029638815
0.029757311
0.029867865
0.029971198
0.030067296
0.030156904
0.030240525
0.030318632
0.030391686
0.030460128
0.030524382
0.030584849
0.030641911
0.030695932
0.030747252
0.03079618
0.03084299
0.024453759
0.024472254
0.024493455
0.024519186
0.024551521
0.024592759
0.024645188
0.024710943
0.024791864
0.024889352
0.025004255
0.025136793
0.025286532
0.025452415
0.025632846
0.025825796
0.026028948
0.026239825
0.026455924
0.026674823
0.026894268
0.027112663
0.027328271
0.027539546
0.027745214
0.027944263
0.028135927
0.028319663
0.028495122
0.028662124
0.028820632
0.028970723
0.029112572
0.029246423
0.029372582
0.029491399
0.029603248
0.029708655
0.029807818
0.029901132
0.029989085
0.030072082
0.030150517
0.030224769
0.0302952
0.030362162
0.030425988
0.030486995
0.030545477
0.030601693
0.024452288
0.024467729
0.024485064
0.024506406
0.02453325
0.024567313
0.024610463
0.024664515
0.02473112
0.024811647
0.024907079
0.025017934
0.025144214
0.025285407
0.025440513
0.025608119
0.025786492
0.025973681
0.026167626
0.026366251
0.026567556
0.026769692
0.0269714
0.027171148
0.027367614
0.027559688
0.027746478
0.027927287
0.028101604
0.028269079
0.028429506
0.028582796
0.028728967
0.028868117
0.029000414
0.029126079
0.029245373
0.029358588
0.029466059
0.029568228
0.029665091
0.029757181
0.029844843
0.029928397
0.030008164
0.030084459
0.030157582
0.030227823
0.030295453
0.030360708
0.024450822
0.024462932
0.024477371
0.024494733
0.024516979
0.024545272
0.024581004
0.024625668
0.02468069
0.024747331
0.024826602
0.024919184
0.025025375
0.025145057
0.025277705
0.025422418
0.025577975
0.025742914
0.025915605
0.026094338
0.026277391
0.026463087
0.026650031
0.026837089
0.027022941
0.027206445
0.027386632
0.027562705
0.02773403
0.027900123
0.028060636
0.028215338
0.028364106
0.028506903
0.028643768
0.0287748
0.028900151
0.029020007
0.029134587
0.029244105
0.029349083
0.029449307
0.029545325
0.029637379
0.029725748
0.029810707
0.029892518
0.02997144
0.030047717
0.030121557
0.024449334
0.024458208
0.024469612
0.024484191
0.024502411
0.024526028
0.024555912
0.024593175
0.024638997
0.024694484
0.024760597
0.024838077
0.024927393
0.025028701
0.025141828
0.025266279
0.025401266
0.025545754
0.025698519
0.02585821
0.026023408
0.026192681
0.026364633
0.026538288
0.026712517
0.026886205
0.027058363
0.027228142
0.02739483
0.027557843
0.027716725
0.027871131
0.028020815
0.028165624
0.028305479
0.02844037
0.02857034
0.028695479
0.028815914
0.0289318
0.029043339
0.029150747
0.029254241
0.02935389
0.029450025
0.029542882
0.029632674
0.029719628
0.029803955
0.029885835
0.024447825
0.024453548
0.024462124
0.024473916
0.024489479
0.024509142
0.024534418
0.02456596
0.024604631
0.024651357
0.02470699
0.024772257
0.024847704
0.024933652
0.025030171
0.025137073
0.025253913
0.025380021
0.025514531
0.025656427
0.025804593
0.025957857
0.02611504
0.026275008
0.026437019
0.026600025
0.026763069
0.026925292
0.027085945
0.02724439
0.027400091
0.027552618
0.02770163
0.027846876
0.027988176
0.028125423
0.028258563
0.028387596
0.028512562
0.028633539
0.028750637
0.028863979
0.028973674
0.029080113
0.029183086
0.029282993
0.029379968
0.029474215
0.029565907
0.029655193
0.024446304
0.024448955
0.024454875
0.0244642
0.024477234
0.024494413
0.024515952
0.024543096
0.024576355
0.02461638
0.024663885
0.024719527
0.024783854
0.024857267
0.024939989
0.025032043
0.025133246
0.025243216
0.025361392
0.025487058
0.025619379
0.025757435
0.025900257
0.026046855
0.026196461
0.026348315
0.02650152
0.026655252
0.026808766
0.0269614
0.027112581
0.02726182
0.027408709
0.027552921
0.027694197
0.027832345
0.02796723
0.028098771
0.028226928
0.028351704
0.028473134
0.028591276
0.028706212
0.028818069
0.028926917
0.029033057
0.029136314
0.02923704
0.029335331
0.029431309
0.024444784
0.024444444
0.024447851
0.024454967
0.024465893
0.024480845
0.024500139
0.024523904
0.024553101
0.024588174
0.024629581
0.024677871
0.024733544
0.024797014
0.02486858
0.024948397
0.025036465
0.025132621
0.025236545
0.025347775
0.025465727
0.025589716
0.025718989
0.025852751
0.0259902
0.026130824
0.026273838
0.026418489
0.026564071
0.026709938
0.026855505
0.02700026
0.027143754
0.027285608
0.027425506
0.027563189
0.027698457
0.027831158
0.027961187
0.028088476
0.028212995
0.028334743
0.028453744
0.028570051
0.028683722
0.028794845
0.028903547
0.029009922
0.029113962
0.029215849
0.024443279
0.024440036
0.024441057
0.024446173
0.024455326
0.024468551
0.024485972
0.024507796
0.024534099
0.024565543
0.024602574
0.024645475
0.024694663
0.024750517
0.024813351
0.024883388
0.024960739
0.025045395
0.025137219
0.02523595
0.025341214
0.025452536
0.025569362
0.025691076
0.025817016
0.025946675
0.026079499
0.026214823
0.026352008
0.026490449
0.026629585
0.026768904
0.026907944
0.027046301
0.027183619
0.027319599
0.027453988
0.02758658
0.027717214
0.027845766
0.027972149
0.028096306
0.02821821
0.028337857
0.028455262
0.028570464
0.028683516
0.028794458
0.028903449
0.029010432
0.024441802
0.024435756
0.024434511
0.024437802
0.024445448