/*--------------------------------*- C++ -*----------------------------------*\
| =========                 |                                                 |
| \\      /  F ield         | OpenFOAM: The Open Source CFD Toolbox           |
|  \\    /   O peration     | Version:  2312                                  |
|   \\  /    A nd           | Website:  www.openfoam.com                      |
|    \\/     M anipulation  |                                                 |
\*---------------------------------------------------------------------------*/
FoamFile
{
    version     2.0;
    format      ascii;
    arch        "LSB;label=32;scalar=64";
    class       volScalarField;
    location    "0.05";
    object      O2;
}
// * * * * * * * * * * * * * * * * * * * * * * * * * * * * * * * * * * * * * //

dimensions      [0 0 0 0 0 0 0];

internalField   nonuniform List<scalar> 
3275
(
0.003660973
0.010655233
0.015019951
0.017757033
0.02027711
0.023138268
0.026631551
0.030807192
0.035646876
0.041017409
0.046747388
0.051656601
0.057110483
0.062457095
0.067543781
0.072333103
0.076815951
0.081002021
0.084907843
0.088551848
0.091952346
0.095127356
0.098094383
0.10086937
0.10346696
0.10590058
0.10818242
0.11032359
0.11233416
0.11422329
0.11599927
0.11766964
0.11924125
0.12072032
0.12211252
0.12342301
0.1246565
0.12581728
0.12690929
0.12793613
0.12890111
0.12980726
0.13065736
0.13145404
0.13219988
0.13289705
0.13354755
0.13415331
0.13471617
0.13523785
0.13571996
0.13616393
0.0060647423
0.01408852
0.017795194
0.019941506
0.022074412
0.024648409
0.027932812
0.031932484
0.036628243
0.041870447
0.047483384
0.052309497
0.057673083
0.062941871
0.067962871
0.072696771
0.077132906
0.081279566
0.085152069
0.088767812
0.092144247
0.095298676
0.098248016
0.10100772
0.10359207
0.10601413
0.10828585
0.11041812
0.11242084
0.114303
0.11607278
0.11773762
0.11930427
0.12077888
0.12216706
0.12347391
0.1247041
0.12586188
0.12695116
0.12797551
0.1289382
0.12984226
0.13069046
0.1314854
0.1322296
0.13292523
0.13357431
0.13417877
0.13474041
0.13526097
0.13574204
0.1361851
0.012960015
0.02182582
0.02377344
0.024530671
0.025794467
0.027734886
0.030548758
0.034195012
0.038594932
0.043574909
0.048951186
0.053611022
0.058792355
0.063906457
0.068796865
0.073420614
0.077763924
0.081832272
0.085638552
0.089198108
0.092526686
0.095640168
0.098554301
0.10128359
0.10384153
0.10624057
0.10849212
0.11060664
0.11259368
0.11446194
0.11621935
0.11787312
0.11942986
0.12089555
0.12227569
0.12357526
0.12479885
0.12595063
0.12703444
0.12805378
0.12901189
0.12991175
0.1307561
0.1315475
0.13228841
0.13298097
0.13362722
0.13422905
0.13478826
0.13530655
0.13578555
0.13622671
0.029912489
0.035953942
0.033689745
0.031833721
0.031595309
0.032472563
0.034512543
0.037604629
0.041540817
0.046117478
0.051135349
0.055547681
0.060453426
0.065338718
0.070035785
0.074496465
0.078702339
0.082654708
0.086362866
0.089839117
0.093096692
0.09614938
0.099011206
0.10169528
0.10421393
0.10657869
0.1088002
0.11088828
0.11285195
0.11469947
0.11643841
0.11807568
0.11961761
0.12106999
0.1224381
0.1237268
0.12494051
0.12608331
0.12715892
0.12817077
0.12912203
0.13001559
0.13085415
0.13164023
0.1323762
0.13306419
0.13370619
0.13430408
0.13485964
0.13537454
0.13585041
0.13628867
0.070889391
0.0596025
0.048180845
0.042181277
0.039597186
0.038971169
0.039891758
0.042160457
0.045449912
0.049475539
0.054011392
0.058098969
0.06263497
0.06722109
0.071665173
0.075912491
0.0799385
0.08373901
0.087318594
0.09068559
0.093849954
0.096822754
0.099615777
0.10224031
0.10470721
0.10702676
0.10920862
0.11126178
0.11319457
0.11501466
0.11672916
0.11834458
0.11986691
0.12130164
0.12265382
0.12392809
0.12512871
0.12625958
0.12732432
0.12832623
0.12926837
0.13015356
0.13098443
0.13176342
0.13249282
0.13317472
0.13381109
0.13440375
0.13495445
0.13546483
0.13593652
0.1363709
0.1553694
0.090662777
0.066282177
0.054903159
0.04907004
0.04652011
0.046279318
0.047522691
0.05001009
0.053374834
0.057339687
0.061055672
0.065155919
0.069398007
0.073551334
0.077553437
0.081372617
0.084998361
0.088429822
0.091670795
0.094727504
0.097607917
0.10032127
0.10287679
0.10528361
0.10755065
0.10968641
0.11169892
0.11359572
0.11538386
0.11706985
0.11865976
0.12015919
0.1215733
0.12290685
0.12416425
0.12534954
0.12646646
0.12751846
0.12850871
0.12944017
0.13031555
0.13113739
0.13190805
0.13262974
0.13330451
0.13393426
0.13452078
0.13506577
0.13557085
0.13603761
0.1364674
0.19278837
0.11973733
0.085745491
0.06853696
0.059668664
0.055147508
0.053355564
0.053494097
0.055041401
0.057664485
0.06098914
0.064306183
0.067923165
0.071788507
0.075624953
0.079359732
0.082953238
0.086388089
0.089657548
0.092760499
0.095699133
0.098478071
0.1011038
0.1035833
0.1059239
0.10813297
0.11021778
0.11218533
0.11404231
0.11579503
0.11744943
0.11901104
0.12048505
0.12187625
0.1231891
0.12442774
0.12559598
0.12669737
0.12773518
0.12871246
0.12963201
0.13049645
0.13130822
0.13206959
0.13278269
0.13344949
0.13407186
0.13465153
0.13519015
0.13568931
0.13615056
0.13657522
0.20771182
0.14588047
0.1069546
0.084607042
0.071930634
0.0650498
0.061576923
0.060382664
0.06089475
0.06262554
0.06519334
0.068067079
0.071128369
0.074554914
0.078028604
0.081456907
0.084791305
0.088006641
0.091089492
0.094033173
0.096835307
0.099496732
0.10202082
0.10441201
0.10667554
0.10881708
0.11084246
0.11275752
0.11456794
0.11627923
0.11789662
0.11942507
0.12086926
0.12223358
0.12352212
0.12473871
0.1258869
0.12697002
0.12799114
0.12895313
0.12985866
0.13071021
0.1315101
0.13226051
0.13296347
0.13362089
0.13423455
0.13480613
0.13533724
0.1358294
0.13628413
0.13670272
0.21433837
0.16540168
0.12687044
0.10139661
0.085538087
0.075999215
0.070734581
0.068123572
0.067487727
0.068244513
0.069979952
0.072262248
0.074781533
0.077692438
0.080761812
0.083846498
0.086889756
0.089857901
0.092730149
0.095493675
0.098141067
0.10066899
0.10307738
0.10536786
0.10754335
0.10960761
0.11156491
0.11341973
0.11517668
0.11684031
0.11841509
0.11990533
0.12131514
0.12264843
0.12390889
0.12509999
0.12622501
0.12728698
0.12828878
0.12923306
0.13012234
0.13095893
0.13174505
0.13248274
0.13317393
0.13382045
0.13442399
0.13498618
0.13550854
0.13599257
0.13643972
0.13685125
0.21780567
0.17918879
0.14396456
0.11759658
0.099549686
0.08782014
0.08058617
0.076562727
0.074721073
0.074460915
0.075302438
0.076885624
0.078851625
0.0811962
0.083819119
0.086526021
0.089248399
0.091943299
0.094582085
0.097145343
0.099620248
0.10199899
0.10427778
0.10645519
0.10853165
0.11050883
0.11238926
0.11417599
0.11587239
0.11748201
0.11900844
0.12045526
0.12182597
0.12312393
0.1243524
0.12551445
0.12661301
0.12765084
0.12863056
0.1295546
0.13042528
0.13124477
0.13201511
0.13273823
0.13341594
0.13404996
0.1346419
0.13519331
0.13570565
0.13618034
0.13661879
0.1370222
0.21991997
0.18893815
0.15789946
0.13230848
0.11322729
0.099880012
0.091011732
0.085456975
0.082481863
0.08116267
0.08110871
0.081906319
0.083285261
0.085071311
0.087188847
0.089488536
0.091863581
0.094261531
0.096645692
0.098989783
0.1012753
0.10348975
0.10562541
0.10767764
0.10964419
0.11152454
0.11331932
0.11503004
0.11665875
0.11820789
0.11968011
0.12107819
0.12240495
0.12366318
0.12485561
0.12598491
0.12705363
0.12806421
0.12901898
0.12992014
0.13076979
0.13156992
0.13232239
0.133029
0.13369142
0.13431127
0.13489005
0.13542923
0.13593019
0.13639428
0.13682284
0.13721702
0.22137499
0.19598691
0.16902854
0.14513441
0.12600451
0.11170694
0.10157288
0.094710699
0.090571119
0.088261335
0.087290876
0.087316632
0.088028362
0.089271119
0.090863558
0.092722442
0.09472796
0.09680833
0.098918987
0.10102668
0.10310712
0.10514304
0.10712266
0.109038
0.11088406
0.11265797
0.11435842
0.11598525
0.11753912
0.11902128
0.12043336
0.12177731
0.12305518
0.12426915
0.12542142
0.12651418
0.12754956
0.12852967
0.12945653
0.13033207
0.13115816
0.13193657
0.132669
0.13335708
0.13400233
0.13460626
0.13517025
0.13569568
0.13618383
0.13663599
0.13705341
0.1374372
0.22246494
0.20123069
0.17789303
0.15606414
0.13756395
0.12292904
0.11195696
0.1041019
0.098836718
0.095590948
0.093774234
0.093023861
0.093077921
0.093726336
0.094826001
0.096213619
0.097830393
0.099576316
0.10139745
0.10325365
0.1051149
0.10695923
0.10877075
0.11053813
0.11225355
0.11391175
0.11550939
0.11704458
0.11851652
0.11992521
0.12127124
0.1225556
0.12377961
0.12494475
0.12605265
0.12710498
0.12810346
0.1290498
0.1299457
0.13079279
0.1315927
0.13234697
0.1330571
0.13372453
0.13435067
0.13493685
0.13548435
0.13599443
0.1364683
0.13690712
0.13731211
0.13768427
0.22332818
0.20524715
0.18499657
0.16528522
0.14780726
0.13331157
0.12190641
0.11332996
0.10719961
0.10303359
0.10043782
0.098964216
0.098361902
0.098433097
0.09900653
0.09995688
0.10115557
0.10255494
0.10407395
0.10566613
0.10729604
0.10893719
0.11056965
0.11217882
0.11375407
0.11528773
0.11677442
0.11821046
0.11959354
0.12092239
0.12219647
0.12341585
0.124581
0.12569271
0.12675197
0.12775995
0.12871789
0.1296271
0.13048891
0.13130467
0.1320757
0.13280332
0.13348882
0.13413345
0.13473843
0.13530497
0.13583421
0.1363273
0.13678532
0.13720937
0.13760054
0.1379598
0.22403703
0.20840835
0.19074704
0.17304739
0.15677819
0.14274851
0.13124814
0.12222231
0.11543682
0.11054087
0.10717654
0.1050499
0.10382957
0.10333326
0.10340007
0.1038892
0.10470138
0.10573061
0.10693876
0.10825736
0.10964607
0.1110742
0.112518
0.11395974
0.11538607
0.116787
0.11815503
0.11948475
0.1207723
0.1220151
0.12321149
0.12436053
0.12546187
0.12651555
0.12752193
0.1284816
0.12939533
0.13026399
0.13108855
0.13187001
0.13260941
0.13330782
0.1339663
0.13458588
0.13516763
0.13571257
0.13622173
0.1366961
0.13713667
0.13754443
0.13792039
0.1382654
0.22463344
0.21095725
0.19545827
0.17959596
0.1645914
0.15122869
0.13988922
0.13065588
0.1234205
0.11794872
0.11396295
0.11119013
0.10941472
0.10838492
0.10795864
0.10800576
0.10841376
0.10910101
0.10997965
0.11101837
0.1121586
0.11336589
0.114613
0.11587932
0.11714898
0.11840971
0.119652
0.12086867
0.12205436
0.12320517
0.12431828
0.1253918
0.12642447
0.12741559
0.12836485
0.12927227
0.13013811
0.13096279
0.13174689
0.13249107
0.13319606
0.13386264
0.13449164
0.1350839
0.13564027
0.13616161
0.13664879
0.13710268
0.13752415
0.13791406
0.13827331
0.13860269
0.22514404
0.21305605
0.1993669
0.18514708
0.17138606
0.15879878
0.14779998
0.13855676
0.13105684
0.12516238
0.12067253
0.11736863
0.11504351
0.11353591
0.11264752
0.11226622
0.11228842
0.11261981
0.11319402
0.11393814
0.11482541
0.11580629
0.11685043
0.11793476
0.11904111
0.1201551
0.12126528
0.12236273
0.12344068
0.12449389
0.12551844
0.12651142
0.12747071
0.12839484
0.12928283
0.13013411
0.1309484
0.13172568
0.13246612
0.13317
0.13383775
0.13446987
0.13506692
0.13562952
0.13615832
0.13665401
0.13711728
0.13754888
0.13794954
0.13832
0.13866103
0.13897331
0.22558704
0.21481583
0.20265041
0.18988222
0.1773013
0.16553463
0.15499391
0.14589236
0.13828513
0.13210993
0.12723323
0.12348903
0.12070655
0.11872623
0.11742415
0.11664234
0.11629055
0.11628332
0.11654204
0.11701385
0.11763654
0.11838783
0.11922464
0.12012195
0.12105963
0.1220214
0.12299394
0.1239667
0.12493155
0.12588199
0.12681301
0.12772072
0.12860213
0.12945501
0.1302777
0.13106901
0.13182817
0.13255467
0.13324825
0.13390884
0.13453653
0.13513152
0.13569412
0.13622471
0.13672373
0.13719167
0.13762908
0.13803653
0.13841463
0.13876399
0.13908526
0.13937895
0.22597543
0.21631435
0.20544235
0.19395022
0.18246515
0.17152282
0.16151033
0.15266068
0.14507323
0.13874189
0.13358884
0.12949563
0.1263277
0.12395075
0.12223957
0.1210982
0.12039713
0.1200611
0.12002022
0.12021126
0.12058885
0.12110151
0.12172857
0.1224355
0.12320057
0.12400582
0.12483617
0.12567951
0.12652657
0.12736958
0.12820253
0.12902056
0.12981987
0.13059745
0.13135095
0.13207862
0.13277915
0.13345155
0.13409514
0.13470947
0.1352943
0.13584951
0.13637516
0.13687137
0.13733837
0.13777645
0.138186
0.13856743
0.13892121
0.1392478
0.13954771
0.13982126
0.22631883
0.21760694
0.20784304
0.19747168
0.18699059
0.17685029
0.1674018
0.15888022
0.15141121
0.14502869
0.13969878
0.13534386
0.1318631
0.12914781
0.12709128
0.12559346
0.12457669
0.12393408
0.12360256
0.12352638
0.12365293
0.12394278
0.12435509
0.1248688
0.12545881
0.12610456
0.12678926
0.12749926
0.12822459
0.12895608
0.12968693
0.13041129
0.13112458
0.13182308
0.13250375
0.13316427
0.1338028
0.1344179
0.13500844
0.13557361
0.1361128
0.13662562
0.13711182
0.13757129
0.13800404
0.13841015
0.13878983
0.13914333
0.139471
0.13977315
0.14005011
0.22662462
0.21873392
0.20992795
0.20054341
0.19097498
0.18159898
0.17272601
0.16458186
0.15730522
0.150957
0.14553666
0.14100024
0.13727681
0.13428212
0.13192789
0.13012685
0.12879626
0.12787398
0.12727211
0.12693756
0.12682358
0.12688788
0.12709659
0.12741697
0.12782808
0.12831283
0.12884958
0.12942319
0.13002372
0.13064024
0.13126553
0.13189267
0.13251645
0.1331324
0.13373684
0.13432691
0.13490028
0.13545501
0.13598957
0.13650275
0.13699361
0.13746146
0.13790577
0.13832618
0.13872245
0.13909447
0.13944228
0.13976593
0.14006571
0.14034174
0.14059417
0.22689856
0.2197254
0.21175425
0.20324206
0.19450096
0.18584346
0.17754087
0.16980303
0.16277207
0.15652582
0.15108806
0.14644156
0.14254096
0.13932397
0.1367197
0.13465426
0.13305516
0.13185439
0.13100252
0.13042965
0.13008353
0.12992946
0.1299353
0.13006713
0.13030713
0.13062486
0.13101273
0.13144758
0.13192133
0.13242004
0.132937
0.13346388
0.1339951
0.13452546
0.13505057
0.13556715
0.13607239
0.13656388
0.13703966
0.13749815
0.13793809
0.13835847
0.1387585
0.13913757
0.13949519
0.13983101
0.14014498
0.14043684
0.14070698
0.14095521
0.1411815
0.22714523
0.22060432
0.21336598
0.20562785
0.19763665
0.18964976
0.18190175
0.1745838
0.16783519
0.16174306
0.15634806
0.15165346
0.14763486
0.14424893
0.14144088
0.1391501
0.13731471
0.13587479
0.13477464
0.13397649
0.13341872
0.13305394
0.1328621
0.13281178
0.13287731
0.13303664
0.13327532
0.13356757
0.13391423
0.13429263
0.13469942
0.13512348
0.13555961
0.13600178
0.1364448
0.13688516
0.13731959
0.13774517
0.13815957
0.13856083
0.13894737
0.13931789
0.13967133
0.14000685
0.14032371
0.14062124
0.14089946
0.14115755
0.14139634
0.14161511
0.14181119
0.22736835
0.22138851
0.21479757
0.20774879
0.20043732
0.19307391
0.18585899
0.17896402
0.17252154
0.16662249
0.16131861
0.15662827
0.15254362
0.14903743
0.14606944
0.14359162
0.1415525
0.13990053
0.13858645
0.1375649
0.13680549
0.13624683
0.13586618
0.13563813
0.1355353
0.1355373
0.13562485
0.13578195
0.13599902
0.13625411
0.13655032
0.1368693
0.13720848
0.13756043
0.13791888
0.13828065
0.1386419
0.1389992
0.13934981
0.13969147
0.14002229
0.14034069
0.14064536
0.14093521
0.1412093
0.14146644
0.1417072
0.14192936
0.14213527
0.1423204
0.22757093
0.22209204
0.2160763
0.20964353
0.2029484
0.19616274
0.18945615
0.18298013
0.17685797
0.17118035
0.16600556
0.16136276
0.15725693
0.1536742
0.15058702
0.14795888
0.14574822
0.1439117
0.14240663
0.14119285
0.14023526
0.13948644
0.13893187
0.13853688
0.13827047
0.13811751
0.13805977
0.13808015
0.13816634
0.13830399
0.13848715
0.13869833
0.13893961
0.1392
0.13947161
0.13975287
0.14003896
0.14032586
0.14061054
0.14089046
0.14116343
0.1414276
0.14168143
0.14192364
0.14215316
0.14236761
0.14256967
0.14275325
0.14292269
0.14307666
0.22775547
0.22272618
0.21722407
0.21134355
0.20520758
0.19895584
0.19273073
0.18666437
0.18086923
0.17543286
0.17041655
0.16585673
0.1617681
0.1581476
0.15497857
0.15223473
0.1498837
0.14788999
0.14621731
0.14483031
0.14369541
0.14277595
0.14204578
0.14148989
0.14107275
0.1407697
0.14057023
0.14045572
0.14041488
0.14043339
0.14050218
0.14060987
0.14075105
0.14091887
0.14110105
0.14130054
0.14150997
0.14172467
0.14194156
0.14215782
0.14237102
0.14257905
0.14278012
0.14297281
0.14315644
0.14332519
0.14348528
0.14363139
0.1437643
0.14388354
0.22792407
0.22330009
0.21825866
0.21287473
0.20724638
0.20148704
0.19571543
0.19004554
0.18457827
0.17939605
0.17456044
0.17011227
0.1660733
0.16244905
0.15923195
0.15640461
0.15394296
0.15181879
0.15000199
0.1484621
0.14716907
0.14609251
0.14520702
0.1444895
0.14392683
0.14348202
0.14314866
0.14290171
0.14273675
0.14263733
0.14259444
0.14259735
0.14263834
0.14271139
0.14280705
0.14292295
0.14305375
0.14319471
0.14334224
0.14349322
0.14364497
0.14379514
0.14394171
0.14408295
0.14421733
0.14434201
0.14445837
0.14456413
0.14465889
0.14474201
0.22807849
0.2238213
0.21919466
0.21425852
0.20909142
0.2037854
0.19843902
0.19314962
0.18800647
0.18308561
0.17844687
0.17413313
0.170171
0.16657252
0.16333754
0.16045629
0.15791201
0.15568316
0.15374547
0.15207335
0.15064084
0.14942212
0.14839388
0.14753493
0.14682715
0.14624333
0.14578078
0.14540922
0.14512562
0.14491004
0.14475769
0.14465601
0.14459844
0.1445772
0.14458483
0.14461685
0.14466838
0.14473454
0.14481152
0.1448959
0.1449848
0.14507565
0.14516623
0.14525452
0.1453387
0.14541681
0.14548847
0.14555225
0.14560734
0.14565294
0.2282202
0.22429604
0.22004415
0.21551283
0.21076523
0.20587609
0.20092689
0.19600013
0.19117383
0.18651689
0.18208604
0.17792439
0.17406147
0.17051408
0.16728795
0.16437967
0.16177881
0.15946983
0.15743384
0.15564997
0.15409639
0.15275115
0.15159345
0.15060388
0.14976426
0.1490546
0.14846293
0.14796778
0.14756863
0.14724443
0.14698649
0.14678121
0.14662648
0.14651185
0.14643122
0.14637986
0.14635156
0.14634227
0.14634792
0.1463647
0.14638966
0.14642
0.14645336
0.14648745
0.14652029
0.14655012
0.14657586
0.14659625
0.1466103
0.14661705
0.2283505
0.22472957
0.22081728
0.21665279
0.2122871
0.20778098
0.20320161
0.19861849
0.19409908
0.18970488
0.18548855
0.18149213
0.17774645
0.17427157
0.17107767
0.16816653
0.16553307
0.16316703
0.16105443
0.15917883
0.15752235
0.15606654
0.15479329
0.15368518
0.15272542
0.15189728
0.15118695
0.15057867
0.15006179
0.14963259
0.14926949
0.14896658
0.14871793
0.14851092
0.14834256
0.14820871
0.1481004
0.14801537
0.14794951
0.14789816
0.14785829
0.1478272
0.14780242
0.14778131
0.14776175
0.14774198
0.14772065
0.14769643
0.14766821
0.14763491
0.22847049
0.22512634
0.22152259
0.21769121
0.21367358
0.20951917
0.20528331
0.20102423
0.19679976
0.19266411
0.18866528
0.18484324
0.18122896
0.17784437
0.1747029
0.17181035
0.16916613
0.1667645
0.16459586
0.16264783
0.16090622
0.15935586
0.15798134
0.15676737
0.15569899
0.15476159
0.15394186
0.15322661
0.15260519
0.15206887
0.15160199
0.15120587
0.15086307
0.15056808
0.15031433
0.15010049
0.14991144
0.14975093
0.14961401
0.14949416
0.14938897
0.14929582
0.1492124
0.14913532
0.14906245
0.14899207
0.14892264
0.14885277
0.14878121
0.14870679
0.22858112
0.22549014
0.22216737
0.21863906
0.21493895
0.2111074
0.20718995
0.2032352
0.19929234
0.19540866
0.19162727
0.18798535
0.18451307
0.18123321
0.17816129
0.17530616
0.17267083
0.17025336
0.16804797
0.16604592
0.16423644
0.16260739
0.16114596
0.15983911
0.15867379
0.15763721
0.15671724
0.15590223
0.15518191
0.1545468
0.15398602
0.15349364
0.15305699
0.15267827
0.15234154
0.15204783
0.15178002
0.15154517
0.15133899
0.15115027
0.1509795
0.1508239
0.15068196
0.15054837
0.15042147
0.15029969
0.15018137
0.15006499
0.14994921
0.14983275
0.22868325
0.22582427
0.22275788
0.2195058
0.21609563
0.21256042
0.20893762
0.2052677
0.20159226
0.19795215
0.19438559
0.19092656
0.18760376
0.18443994
0.18145183
0.17865039
0.17604139
0.17362604
0.1714018
0.16936315
0.16750234
0.16581008
0.16427605
0.16288939
0.16163898
0.16051374
0.15950291
0.15859613
0.1577838
0.15705685
0.1564062
0.15582441
0.15530287
0.15483699
0.15441603
0.15404576
0.15370109
0.15339888
0.15311747
0.15286305
0.15262724
0.15240867
0.15220968
0.152019
0.15183748
0.15166378
0.15149602
0.1513325
0.15117181
0.15101257
0.22877761
0.22613155
0.22329954
0.2202996
0.21715446
0.21389122
0.21054076
0.20713665
0.20371394
0.20030765
0.19695127
0.19367542
0.1905068
0.18746751
0.18457473
0.18184076
0.17927338
0.17687627
0.17464958
0.17259057
0.17069419
0.16895368
0.16736107
0.16590759
0.164584
0.16338088
0.16228888
0.16129886
0.16040209
0.15959022
0.15885519
0.15818966
0.15758634
0.15703926
0.15654144
0.15608982
0.15567224
0.15529979
0.15494704
0.15463073
0.15432952
0.15405121
0.15379078
0.15354388
0.15330866
0.15308289
0.15286542
0.15265436
0.1524483
0.15224575
0.22886487
0.22641449
0.22379706
0.22102761
0.21812493
0.21511135
0.21201231
0.20885569
0.20567088
0.20248771
0.19933525
0.19624074
0.1932286
0.19031978
0.1875313
0.18487619
0.18236357
0.17999897
0.1777847
0.17572033
0.17380316
0.1720287
0.1703911
0.16888358
0.16749868
0.16622857
0.1650653
0.16400094
0.16302774
0.16213818
0.16132503
0.16058144
0.15990087
0.15927734
0.15870495
0.15817891
0.15769273
0.15724553
0.156826
0.15644561
0.15607957
0.15574534
0.15542501
0.15512198
0.15483337
0.15455519
0.1542881
0.1540293
0.15377765
0.15353147
0.22894561
0.22667528
0.22425456
0.22169607
0.21901542
0.21623104
0.21336395
0.21043729
0.20747565
0.20450429
0.20154827
0.19863152
0.19577608
0.19300139
0.19032388
0.18775676
0.18530994
0.18299025
0.18080166
0.17874562
0.17682139
0.17502647
0.17335694
0.1718078
0.17037327
0.16904705
0.16782253
0.16669298
0.16565166
0.16469196
0.1638074
0.1629918
0.1622392
0.161544
0.16090085
0.16030485
0.15975101
0.15923586
0.15875387
0.15830466
0.15787777
0.15748558
0.15710429
0.15675025
0.15640992
0.15607806
0.15576229
0.15545561
0.15515852
0.15486859
0.22902035
0.22691586
0.22467569
0.22231051
0.21983332
0.21725941
0.21460619
0.21189285
0.20913994
0.20636877
0.2036008
0.20085686
0.19815656
0.19551767
0.19295569
0.19048356
0.18811158
0.18584737
0.18369609
0.18166067
0.17974198
0.1779392
0.1762501
0.17467128
0.17319852
0.17182693
0.17055118
0.16936571
0.16826481
0.16724274
0.16629386
0.16541263
0.1645937
0.16383196
0.16312251
0.16246074
0.16184222
0.16126309
0.16071923
0.16020783
0.15972419
0.15926854
0.1588313
0.15842549
0.15802924
0.15764691
0.15728655
0.15693097
0.15658933
0.15625558
0.22908957
0.22713794
0.22506367
0.2228758
0.22058521
0.21820463
0.21574851
0.2132328
0.21067463
0.20809195
0.20550301
0.20292583
0.20037767
0.19787452
0.19543073
0.19305868
0.19076863
0.18856866
0.18646472
0.18446078
0.18255901
0.18075998
0.17906287
0.17746574
0.17596573
0.17455924
0.17324218
0.17201008
0.17085822
0.16978179
0.1687759
0.16783572
0.16695653
0.16613372
0.16536287
0.16463976
0.16396033
0.16332085
0.1627177
0.16214771
0.16160747
0.1610948
0.1606057
0.16014079
0.15969094
0.15926725
0.15885223
0.15845013
0.15806872
0.15769037
0.22915371
0.22734307
0.22542137
0.22339627
0.22127694
0.219074
0.21679948
0.21446664
0.21208978
0.20968399
0.20726472
0.20484744
0.20244722
0.20007828
0.19775368
0.19548502
0.19328225
0.19115355
0.18910534
0.1871423
0.18526757
0.18348281
0.1817884
0.18018362
0.1786668
0.17723555
0.17588687
0.17461732
0.17342316
0.17230042
0.17124501
0.17025281
0.16931969
0.16844161
0.16761462
0.1668349
0.1660988
0.16540284
0.1647437
0.16411831
0.1635237
0.16295727
0.16241621
0.16189872
0.16140112
0.16092381
0.16045933
0.16001993
0.15958896
0.15916706
0.22921314
0.22753264
0.22575135
0.22387581
0.22191375
0.21987408
0.21776683
0.21560306
0.21339472
0.21115445
0.20889531
0.20663053
0.20437312
0.20213563
0.19992979
0.19776626
0.19565447
0.19360245
0.19161679
0.18970263
0.18786376
0.18610267
0.1844207
0.18281813
0.18129435
0.17984798
0.17847704
0.17717904
0.17595113
0.17479016
0.17369282
0.17265564
0.17167515
0.17074783
0.16987024
0.16903898
0.16825079
0.16750251
0.16679112
0.16611375
0.16546768
0.16485038
0.16425936
0.16369246
0.1631472
0.16262195
0.1621136
0.16162162
0.16115282
0.16069366
0.22926821
0.22770788
0.2260559
0.22431787
0.22250033
0.22061076
0.21865758
0.21665002
0.21459806
0.2125123
0.21040377
0.20828369
0.2061633
0.20405352
0.20196476
0.19990672
0.19788813
0.19591668
0.19399891
0.19214018
0.19034468
0.1886155
0.18695468
0.18536333
0.1838417
0.18238931
0.18100504
0.17968728
0.17843398
0.17724277
0.17611105
0.17503604
0.17401484
0.17304451
0.17212208
0.17124461
0.17040922
0.16961309
0.16885352
0.16812789
0.1674337
0.1667686
0.16613031
0.16551672
0.16492573
0.1643555
0.16380409
0.16327053
0.16275474
0.16225026
0.22931926
0.22786992
0.2263371
0.22472557
0.22304089
0.22128937
0.21947808
0.21761474
0.21570772
0.21376591
0.21179858
0.20981527
0.20782558
0.20583899
0.20386466
0.20191125
0.19998676
0.19809839
0.19625246
0.19445434
0.19270844
0.1910182
0.18938618
0.18781413
0.18630299
0.18485301
0.18346383
0.18213459
0.18086398
0.17965034
0.17849173
0.17738599
0.17633082
0.1753238
0.17436246
0.1734443
0.17256683
0.17172759
0.17092419
0.17015429
0.16941566
0.16870612
0.16802362
0.16736619
0.16673196
0.16611919
0.16552626
0.16495189
0.16439482
0.16385247
0.22936657
0.22801978
0.2265968
0.2251017
0.22353922
0.2219147
0.22023407
0.21850384
0.21673102
0.21492306
0.21308778
0.21123324
0.20936765
0.20749915
0.20563576
0.20378514
0.2019545
0.20015049
0.19837906
0.19664544
0.19495409
0.19330865
0.19171202
0.19016637
0.18867319
0.18723333
0.18584705
0.18451413
0.1832339
0.18200535
0.18082714
0.17969769
0.17861526
0.17757792
0.17658369
0.17563049
0.17471624
0.17383884
0.17299621
0.17218631
0.17140716
0.17065683
0.16993347
0.1692353
0.16856062
0.16790787
0.16727556
0.16666238
0.16606703
0.16548805
0.22941041
0.22815838
0.22683667
0.22544879
0.22399875
0.22249107
0.22093079
0.21932335
0.21767466
0.21599098
0.2142789
0.21254524
0.21079695
0.20904106
0.20728449
0.20553399
0.20379598
0.20207649
0.20038106
0.19871465
0.19708162
0.19548568
0.19392992
0.19241679
0.19094815
0.18952531
0.18814906
0.18681969
0.18553709
0.18430078
0.18310999
0.18196367
0.18086056
0.17979923
0.17877814
0.17779564
0.17685002
0.17593955
0.17506247
0.17421704
0.17340154
0.1726143
0.17185367
0.1711181
0.17040605
0.16971613
0.16904698
0.16839737
0.16776612
0.16715208
0.22945102
0.22828657
0.22705826
0.22576911
0.22442255
0.22302242
0.22157295
0.22007876
0.2185448
0.21697637
0.215379
0.21375847
0.21212068
0.21047164
0.20881732
0.20716361
0.20551618
0.20388045
0.20226147
0.20066388
0.19909184
0.197549
0.19603852
0.19456301
0.19312457
0.19172485
0.19036501
0.18904577
0.18776749
0.18653016
0.18533346
0.18417681
0.18305942
0.18198031
0.18093833
0.17993225
0.17896073
0.17802238
0.17711576
0.17623943
0.17539194
0.17457186
0.17377778
0.17300835
0.17226224
0.1715382
0.17083503
0.17015163
0.16948693
0.16883993
0.22948864
0.2284051
0.22726294
0.22606474
0.22481342
0.22351227
0.22216484
0.22077505
0.21934708
0.21788538
0.21639464
0.21487974
0.21334569
0.21179762
0.21024065
0.20867991
0.20712036
0.20556682
0.20402385
0.20249571
0.20098631
0.19949915
0.19803734
0.19660356
0.19520005
0.19382866
0.19249084
0.19118764
0.18991977
0.1886876
0.18749122
0.18633046
0.18520492
0.18411402
0.183057
0.18203299
0.181041
0.18007997
0.17914879
0.17824628
0.17737128
0.1765226
0.17569906
0.17489952
0.17412285
0.17336796
0.17263384
0.17191949
0.17122401
0.17054647
0.22952347
0.22851467
0.22745195
0.22633753
0.22517389
0.22396382
0.22271035
0.22141677
0.22008663
0.21872369
0.21733191
0.21591541
0.21447848
0.21302545
0.21156075
0.21008878
0.2086139
0.20714033
0.20567217
0.20421327
0.20276723
0.20133736
0.19992666
0.19853777
0.197173
0.1958343
0.1945233
0.19324129
0.19198925
0.19076787
0.18957754
0.18841845
0.18729055
0.18619358
0.18512714
0.1840907
0.18308358
0.18210504
0.18115425
0.18023033
0.17933237
0.17845942
0.17761053
0.17678477
0.17598121
0.17519895
0.17443711
0.17369488
0.17297146
0.17226609
0.22955569
0.22861591
0.22762644
0.22658918
0.22550624
0.22437997
0.22321297
0.22200803
0.22076813
0.21949647
0.2181964
0.21687141
0.21552514
0.2141613
0.21278367
0.21139605
0.21000222
0.2086059
0.20721069
0.20582007
0.20443733
0.20306552
0.20170747
0.20036575
0.19904263
0.19774011
0.19645992
0.1952035
0.19397202
0.1927664
0.19158731
0.19043518
0.18931025
0.18821259
0.18714208
0.18609847
0.1850814
0.18409039
0.1831249
0.18218429
0.18126792
0.18037507
0.17950501
0.17865702
0.17783037
0.17702432
0.17623818
0.17547128
0.17472297
0.17399262
0.22958548
0.22870939
0.22778743
0.2268212
0.2258125
0.22476334
0.22367589
0.22255255
0.22139583
0.22020846
0.21899325
0.2177532
0.21649138
0.21521097
0.21391521
0.21260735
0.21129069
0.20996847
0.20864386
0.20731996
0.20599973
0.20468598
0.20338133
0.20208821
0.20080882
0.19954515
0.19829895
0.19707175
0.19586485
0.19467931
0.193516
0.19237557
0.1912585
0.19016509
0.18909548
0.18804968
0.18702758
0.18602896
0.18505352
0.18410087
0.18317059
0.18226218
0.18137515
0.18050896
0.17966306
0.17883692
0.17802999
0.17724176
0.17647174
0.229613
0.22879563
0.22793584
0.22703497
0.22609454
0.22511625
0.22410196
0.22305369
0.22197357
0.22086392
0.21972715
0.21856578
0.21738245
0.21617986
0.2149608
0.21372807
0.21248451
0.21123295
0.20997617
0.20871692
0.20745785
0.20620149
0.20495026
0.20370643
0.20247207
0.20124913
0.20003932
0.19884421
0.19766515
0.19650332
0.19535972
0.19423515
0.19313028
0.19204559
0.19098144
0.18993805
0.18891553
0.18791388
0.18693303
0.1859728
0.18503299
0.1841133
0.18321343
0.18233305
0.18147177
0.18062925
0.17980509
0.17899895
0.17821047
0.22963837
0.22887509
0.22807249
0.2272317
0.226354
0.22544082
0.22449373
0.22351445
0.2225048
0.22146674
0.22040233
0.21931372
0.21820316
0.21707297
0.21592553
0.21476326
0.21358863
0.21240408
0.21121206
0.21001498
0.2088152
0.20761501
0.2064166
0.20522206
0.20403333
0.20285225
0.2016805
0.2005196
0.19937095
0.19823576
0.19711512
0.19600995
0.19492103
0.193849
0.19279439
0.19175759
0.19073889
0.18973848
0.18875648
0.18779291
0.18684773
0.18592087
0.1850122
0.18412154
0.1832487
0.18239349
0.18155568
0.18073506
0.17993143
0.22966174
0.22894819
0.22819813
0.22741249
0.22659234
0.22573888
0.22485346
0.2239375
0.22299258
0.22202036
0.22102259
0.22000112
0.21895787
0.21789483
0.21681406
0.21571764
0.21460769
0.21348636
0.21235578
0.21121808
0.21007534
0.20892961
0.20778287
0.20663702
0.20549386
0.20435512
0.20322238
0.20209713
0.20098074
0.19987445
0.19877936
0.19769648
0.19662667
0.19557068
0.19452916
0.19350264
0.19249155
0.19149626
0.19051702
0.18955403
0.18860743
0.18767728
0.18676364
0.18586648
0.18498578
0.18412149
0.18327353
0.18244185
0.18162636
0.22968321
0.2290153
0.22831341
0.2275783
0.22681086
0.2260121
0.22518314
0.22432521
0.22343963
0.22252782
0.22159129
0.22063162
0.21965047
0.21864953