/*--------------------------------*- C++ -*----------------------------------*\
| =========                 |                                                 |
| \\      /  F ield         | OpenFOAM: The Open Source CFD Toolbox           |
|  \\    /   O peration     | Version:  2312                                  |
|   \\  /    A nd           | Website:  www.openfoam.com                      |
|    \\/     M anipulation  |                                                 |
\*---------------------------------------------------------------------------*/
FoamFile
{
    version     2.0;
    format      ascii;
    arch        "LSB;label=32;scalar=64";
    class       volScalarField;
    location    "0.05";
    object      omega;
}
// * * * * * * * * * * * * * * * * * * * * * * * * * * * * * * * * * * * * * //

dimensions      [0 0 -1 0 0 0 0];

internalField   nonuniform List<scalar> 
3275
(
460.04757
476.54789
495.12596
516.06788
540.00405
567.13594
596.99677
628.44019
660.06811
690.54508
718.78223
744.26632
766.61943
785.35457
800.23685
811.05151
817.50589
820.48902
820.93331
819.48265
816.59613
812.60832
807.76634
802.25776
796.22671
789.78545
783.0225
776.00841
768.79991
761.44307
753.97554
746.4283
738.82701
731.19303
723.5442
715.8955
708.25951
700.64685
693.06651
685.52606
678.0319
670.58946
663.2033
655.87727
648.61458
641.41794
634.28955
627.23126
620.24454
613.33061
606.49041
599.72466
461.26705
477.72903
495.89224
516.66169
540.54855
567.65767
597.47984
628.84932
660.38261
690.76151
718.91069
744.31715
766.60289
785.28569
800.12809
810.91362
817.34927
820.31902
820.75517
819.30063
816.41341
812.42717
807.58835
802.08395
796.05775
789.62174
782.86423
775.85563
768.6526
761.30113
753.83883
746.29666
738.70027
731.07099
723.42668
715.78231
708.15047
700.54179
692.96525
685.42844
677.93777
670.49866
663.1157
655.79273
648.53299
641.33916
634.21348
627.15778
620.17357
613.26204
606.42415
599.66062
463.63796
479.63923
497.12664
517.69871
541.55995
568.65595
598.4123
629.6406
660.99033
691.17843
719.15596
744.41027
766.56353
785.1433
799.90692
810.63466
817.03289
819.9763
820.39665
818.93479
816.04654
812.06375
807.23144
801.7356
795.71924
789.29382
782.54727
775.54973
768.35769
761.01701
753.56521
746.03322
738.44664
730.82681
723.19156
715.55588
707.93236
700.33165
692.76273
685.23322
677.74953
670.31711
662.94055
655.62372
648.36986
641.18168
634.06141
627.01091
620.03169
613.12497
606.29171
599.53263
466.6169
481.36734
498.35612
518.95527
542.92275
570.06542
599.73828
630.76604
661.85347
691.76746
719.49738
744.53067
766.49051
784.9196
799.56734
810.20957
816.55167
819.45654
819.85433
818.38252
815.49356
811.51659
806.69455
801.21193
795.21062
788.8013
782.07135
775.09054
767.91507
760.59065
753.15467
745.63799
738.06617
730.46053
722.8389
715.21627
707.60525
700.0165
692.45903
684.94046
677.46726
670.04488
662.67793
655.37031
648.12528
640.94556
633.83341
626.79072
619.819
612.91948
606.09315
599.34074
467.81598
481.66747
499.14564
520.21307
544.53113
571.81008
601.38054
632.15983
662.92023
692.48931
719.90591
744.65712
766.36837
784.60333
799.10061
809.63092
815.8982
818.75344
819.12322
817.63999
814.75159
810.78355
805.97612
800.5118
794.53106
788.14359
781.43607
774.47777
767.32458
760.02195
752.60717
745.11097
737.5589
729.97222
722.36878
714.76358
707.16924
699.59645
692.05425
684.5503
677.09108
669.68208
662.32795
655.03261
647.79935
640.63091
633.5296
626.49731
619.53558
612.64568
605.82858
599.08506
459.68504
479.90238
499.3265
521.34734
546.19937
573.68243
603.15791
633.65729
664.05961
693.25025
720.32066
744.75723
766.18883
784.20434
798.53013
808.93159
815.1109
817.91027
818.25007
816.75608
813.87054
809.91474
805.12582
799.68403
793.72829
787.36713
780.68646
773.75501
766.6283
759.35154
751.96186
744.48992
736.96118
729.39691
721.81496
714.23032
706.65566
699.1017
691.57752
684.09079
676.64805
669.25483
661.9158
654.63493
647.41553
640.2604
633.17185
626.15181
619.20185
612.32326
605.51705
598.784
456.45567
478.0133
499.31025
522.43171
547.88564
575.58187
604.96884
635.18585
665.20946
694.00413
720.71057
744.8138
765.94693
783.72647
797.86653
808.12702
814.2082
816.9481
817.2578
815.75489
812.8751
808.935
804.16834
798.75297
792.82611
786.49509
779.84502
772.94403
765.84729
758.59975
751.23837
743.79373
736.29124
728.75217
721.19434
713.6328
706.08024
698.54741
691.04342
683.57601
676.15175
668.77621
661.45412
654.18946
646.98561
639.84538
632.77113
625.76482
618.82805
611.96213
605.16811
598.44679
455.32399
476.48666
499.30223
523.55129
549.64894
577.57608
606.87867
636.79859
666.40907
694.76712
721.07273
744.80583
765.60586
783.11801
797.04633
807.14428
813.11004
815.7837
816.06248
814.55317
811.68361
807.76478
803.02655
797.64406
791.75261
785.45824
778.84512
771.98078
764.91996
757.70737
750.3798
742.96771
735.49649
727.9874
720.45827
712.92418
705.39787
697.89012
690.41012
682.96565
675.56332
668.20876
660.90675
653.66134
646.47592
639.35337
632.29608
625.30605
618.38492
611.53403
604.75447
598.04705
455.19531
475.65809
499.47718
524.72734
551.44735
579.60492
608.82034
638.43067
667.60702
695.49694
721.3666
744.69906
765.13817
782.35236
796.04394
805.95791
811.79067
814.39282
814.64171
813.1304
810.27719
806.38666
801.6843
796.34224
790.4937
784.2433
777.67423
770.85339
763.83507
756.6637
749.37592
742.0021
734.56761
727.09367
719.59818
712.09625
704.60067
697.12229
689.67035
682.25269
674.87601
667.54598
660.26745
653.04452
645.88064
638.77875
631.74128
624.77027
617.86741
611.03408
604.2714
597.58023
455.56659
475.56467
499.93696
525.97237
553.23883
581.60282
610.72148
640.01297
668.74246
696.14442
721.54793
744.45486
764.51027
781.39919
794.82953
804.53844
810.22103
812.74845
812.97085
811.4641
808.63532
804.78177
800.12414
794.83128
789.03422
782.83606
776.31899
769.54922
762.58061
755.45735
748.2159
740.88657
733.4947
726.06154
718.60503
711.14034
703.68032
696.2359
688.8164
681.42975
674.0827
666.78102
659.52961
652.33264
645.19365
638.1156
631.10101
624.15196
617.2702
610.45714
603.71394
597.04152
456.18344
476.0537
500.68584
527.27214
554.97378
583.50005
612.50674
641.47326
669.74921
696.65223
721.56951
744.02959
763.6833
780.22377
793.36874
802.85175
808.36865
810.82095
811.02306
809.52993
806.73584
802.92982
798.32735
793.09385
787.35801
781.22139
774.76514
768.05482
761.14389
754.07625
746.88826
739.61018
732.26733
724.88103
717.46926
710.04727
702.62802
695.22252
687.84018
680.48902
673.17589
665.90664
658.68626
651.519
644.40845
637.35769
630.36926
623.44532
616.58767
609.79777
603.07686
596.42587
456.90552
476.92326
501.65807
528.58466
556.59473
585.22522
614.09916
642.7368
670.55873
696.95785
721.37823
743.37641
762.61208
778.78617
791.62308
800.85806
806.19761
808.57819
808.76948
807.30182
804.55506
800.80909
796.27396
791.11144
785.44785
779.38318
772.99758
766.35596
759.51142
752.50764
745.38087
738.16136
730.87448
723.54159
716.18078
708.8074
701.43451
694.07325
686.73313
679.42229
672.14767
664.91524
657.73007
650.59651
643.51826
636.49843
629.53968
622.64422
615.81391
609.0503
602.35464
595.72796
457.64736
477.98443
502.74957
529.84609
558.03761
586.70627
615.42239
643.72762
671.09966
696.99636
720.91581
742.44326
761.24768
777.04006
789.549
798.51037
803.66856
805.98587
806.17952
804.75217
802.06788
798.39665
793.94286
788.86451
783.28555
777.30443
771.00033
764.4376
757.66899
750.73803
743.68093
736.52795
729.30452
722.03213
714.72898
707.41055
700.09005
692.77875
685.48628
678.22091
670.98973
663.79881
656.65334
649.55777
642.5159
635.53094
628.60562
621.74224
614.94273
608.20871
601.54151
594.9422
458.35205
479.07784
503.84038
530.97733
559.23323
587.87123
616.40128
644.37031
671.29914
696.70025
720.11978
741.17192
759.53719
774.93431
787.09636
795.75126
800.73913
803.00805
803.22122
801.85215
799.24805
795.66843
791.31186
786.33251
780.85197
774.96724
768.75661
762.28392
755.60166
748.75328
741.77499
734.69713
727.54526
720.341
713.10271
705.84606
698.5844
691.32918
684.09018
676.87583
669.69336
662.54896
655.44798
648.39498
641.39386
634.44795
627.56008
620.73263
613.96761
607.26673
600.63138
594.06273
458.97472
480.07142
504.80723
531.88942
560.10822
588.64826
616.96201
644.59014
671.08352
695.99896
718.924
739.49999
757.42118
772.41322
784.21087
792.52843
797.36713
799.60767
799.86174
798.57207
796.06843
792.5995
788.35791
783.49402
778.12715
772.35293
766.24884
759.87834
753.29375
746.53853
739.64895
732.65549
725.58389
718.45596
711.29029
704.10272
696.90683
689.71425
682.53495
675.37753
668.24939
661.15689
654.10552
647.09997
640.14428
633.24189
626.39574
619.60831
612.88173
606.21776
599.6179
593.08338
459.47256
480.84605
505.5264
532.48717
560.5853
588.96493
617.0314
644.31261
670.37823
694.81932
717.25811
737.36059
754.83474
769.41387
780.83426
788.80001
793.51097
795.74814
796.06783
794.88184
792.50136
789.16431
785.05729
780.32693
775.0904
769.44205
763.45873
757.2036
750.72895
744.0783
737.28808
730.38901
723.40704
716.36426
709.27949
702.16884
695.04613
687.92319
680.81024
673.71607
666.64827
659.61339
652.61708
645.66419
638.7589
631.9048
625.10493
618.36191
611.67794
605.05491
598.4944
591.99774
459.79638
481.28139
505.87758
532.67149
560.58318
588.7469
616.53564
643.46248
669.10702
693.08528
715.04738
734.68101
751.70704
765.86608
776.8986
784.51936
789.12964
791.39313
791.80701
790.75131
788.51908
785.33704
781.38587
776.80863
771.72047
766.21462
760.36741
754.24185
747.89031
741.35649
734.67709
727.88309
721.0008
714.05258
707.05758
700.03222
692.99058
685.94478
678.90526
671.88108
664.88002
657.90885
650.9734
644.07872
637.22914
630.42838
623.67965
616.98567
610.34878
603.77097
597.25393
590.79908
459.88856
481.23988
505.73964
532.34044
560.01588
587.91614
615.39838
641.96223
667.1908
690.71683
712.21194
731.38204
747.95944
761.69103
772.321
779.63567
784.18368
786.50772
787.04758
786.15146
784.09404
781.09199
777.31941
772.91625
767.99577
762.65019
756.95549
750.9747
744.76037
738.3565
731.80013
725.12264
718.35072
711.50711
704.61134
697.68017
690.72803
683.76732
676.80879
669.86174
662.93424
656.03326
649.16486
642.33427
635.54602
628.804
622.11156
615.47156
608.88649
602.35844
595.88924
589.4804
459.83207
480.86824
504.98835
531.39122
558.79178
586.38886
613.5384
639.72992
664.54582
687.62848
708.66523
727.37675
743.50429
756.7995
766.99067
774.09902
778.63571
781.05985
781.75984
781.05422
779.19993
776.40384
772.8339
768.62699
763.89457
758.72809
753.2033
747.3834
741.32126
735.06126
728.64093
722.09208
715.4419
708.71358
701.92707
695.09957
688.24586
681.3787
674.50917
667.64687
660.80014
653.97622
647.18142
640.42118
633.70024
627.02267
620.39197
613.8112
607.28296
600.8095
594.39276
588.0344
459.66664
480.23083
503.7066
529.71963
556.81368
584.07298
610.86685
636.67655
661.0814
683.72717
704.31198
722.56843
738.24318
751.09533
760.8891
767.87376
772.45437
775.02071
775.91685
775.43357
773.81161
771.24852
767.90595
763.91835
759.39532
754.42762
749.09101
743.44898
737.55481
731.45339
725.18281
718.77544
712.25903
705.65731
698.99069
692.27687
685.53106
678.76641
671.99436
665.22485
658.46654
651.72697
645.0127
638.32944
631.68213
625.07505
618.5119
611.99589
605.5298
599.11603
592.75667
459.41387
479.36981
502.02411
527.27029
553.97817
580.86474
607.28408
632.70292
656.69718
678.9096
699.04544
716.84806
732.0627
744.45078
753.98958
760.93418
765.61507
768.36655
769.49483
769.26623
767.90602
765.60307
762.51345
758.7686
754.47683
749.72834
744.59889
739.15242
733.44273
727.5153
721.40887
715.15648
708.78651
702.32326
695.78774
689.19818
682.57026
675.91757
669.25194
662.58372
655.92192
649.27439
642.64799
636.0487
629.4817
622.95151
616.46201
610.01663
603.61832
597.26964
590.97281
459.08786
478.31707
500.02569
524.26844
550.19289
576.64811
602.67613
627.6957
651.27977
673.05889
692.7434
710.0914
724.83343
736.87563
746.28314
753.26573
758.1009
761.07911
762.47457
762.53193
761.46259
759.44661
756.63552
753.15723
749.11882
744.61027
739.70755
734.47492
728.96681
723.22937
717.30211
711.21877
705.00848
698.69619
692.30351
685.8493
679.34978
672.81898
666.26921
659.71123
653.15444
646.60706
640.07625
633.56831
627.08868
620.64211
614.23272
607.86416
601.53954
595.26165
589.03283
458.69973
477.09997
497.77247
520.86186
545.73937
571.40859
596.90969
621.52236
644.69923
666.0407
685.26225
702.15543
716.55016
728.39884
737.77676
744.8653
749.9033
753.14639
754.8417
755.21459
754.46368
752.76087
750.25322
747.06491
743.3021
739.05454
734.39823
729.39808
724.10908
718.57813
712.84556
706.94587
700.90905
694.76069
688.5231
682.21587
675.85572
669.45722
663.03317
656.59482
650.15199
643.71327
637.28619
630.87735
624.49249
618.13664
611.81416
605.52892
599.28424
593.08313
586.92815
458.25938
475.74377
495.31296
517.15446
540.81294
565.44784
590.14897
614.14479
636.81823
657.72312
676.55886
693.12701
707.3034
719.06579
728.49161
735.74086
741.02243
744.56332
746.58731
747.30251
746.89553
745.53048
743.34967
740.47444
737.00905
733.04321
728.65322
723.90432
718.85211
713.54447
708.02249
702.32148
696.47236
690.50133
684.43157
678.28338
672.07404
665.81868
659.53067
653.22178
646.90226
640.58112
634.26628
627.96467
621.68235
615.42467
609.19621
603.00114
596.84295
590.72498
457.7762
474.27273
492.68879
513.22452
535.55541
558.98622
582.68736
605.88625
627.94756
648.37698
666.84818
683.15584
697.18952
708.93412
718.46114
725.91098
731.46717
735.33202
737.70855
738.78893
738.74846
737.7435
735.9113
733.3707
730.22389
726.56017
722.45592
717.97686
713.17936
708.11198
702.81664
697.32962
691.68277
685.90287
680.01404
674.03738
667.99069
661.88972
655.74847
649.57925
643.3928
637.19855
631.00482
624.81895
618.6473
612.49558
606.36861
600.27085
594.20607
588.17784
457.2592
472.71036
489.93748
509.13477
530.07417
552.18928
574.74595
597.00774
618.33737
638.22946
656.31885
672.38379
686.30837
698.07078
707.72932
715.40405
721.25503
725.46206
728.20891
729.67263
730.01743
729.39187
727.92798
725.74158
722.93322
719.59097
715.7914
711.6005
707.07524
702.26498
697.21252
691.95499
686.52506
680.95037
675.2559
669.46359
663.59169
657.65673
651.67333
645.65438
639.61111
633.55341
627.49006
621.42877
615.37626
609.33859
603.32094
597.32802
591.36389
585.4323
456.71696
471.07931
487.09373
504.93796
524.45357
545.1845
566.49548
587.70776
608.20198
627.47459
645.13896
660.94536
674.76167
686.54983
696.34915
704.25756
710.41198
714.97057
718.09856
719.95819
720.70252
720.47203
719.39322
717.5784
715.12642
712.12372
708.64668
704.7615
700.52565
695.98915
691.19555
686.1829
680.98472
675.62951
670.14305
664.54799
658.86336
653.10631
647.29216
641.43441
635.54477
629.63362
623.71021
617.78266
611.85812
605.94297
600.04276
594.16248
588.30652
582.47881
456.15759
469.40115
484.18989
500.6799
518.76204
538.07233
558.07058
578.14694
597.71657
616.28188
633.45996
648.96825
662.65194
674.45093
684.38144
692.51738
698.97212
703.88226
707.39458
709.65643
710.80935
710.98535
710.30489
708.8763
706.79606
704.14934
701.0113
697.44832
693.51821
689.2715
684.75246
679.99996
675.04817
669.92664
664.66188
659.27722
653.79247
648.22546
642.59221
636.90685
631.18155
625.42723
619.65362
613.8693
608.08184
602.29798
596.52363
590.76411
585.02411
579.30779
455.58861
467.69608
481.25602
496.40112
513.05653
530.93354
549.57911
568.45624
587.02568
604.80799
621.4186
636.57391
650.08183
661.85813
671.89371
680.23709
686.97741
692.22941
696.12115
698.78465
700.34946
700.93849
700.66561
699.63455
697.93879
695.66183
692.87763
689.65192
686.04276
682.10102
677.87158
673.39399
668.70303
663.82924
658.79979
653.63863
648.36643
643.00172
637.56119
632.05959
626.50954
620.92257
615.30889
609.67755
604.03655
598.39301
592.75322
587.12284
581.50688
575.90974
455.01682
465.9827
478.31976
492.13777
507.38526
523.83415
541.10862
558.74349
576.25143
593.18044
609.15187
623.87814
637.1535
648.85889
658.95933
667.47733
674.47734
680.05182
684.30965
687.36697
689.34068
690.34391
690.48322
689.85711
688.55541
686.65923
684.2413
681.36617
678.0917
674.46899
670.54327
666.35463
661.93845
657.32606
652.54525
647.62059
642.57358
637.42348
632.18755
626.88109
621.51738
616.10845
610.66503
605.19662
599.71168
594.21772
588.72142
583.2288
577.74519
572.27529
454.44833
464.27785
475.40619
487.92202
501.78948
516.82875
532.73079
549.09803
565.49755
581.51147
596.77478
610.99681
623.96801
635.54313
645.65657
654.30515
661.52853
667.39664
671.99872
675.43449
677.80745
679.22021
679.77126
679.55312
678.6513
677.14393
675.1018
672.58837
669.66053
666.36936
662.7603
658.87372
654.74549
650.40755
645.88828
641.21281
636.40345
631.48008
626.46055
621.36068
616.19443
610.97433
605.7116
600.41624
595.09712
589.76218
584.41852
579.07248
573.72975
568.39533
453.88845
462.59643
472.53772
483.78232
496.30462
509.96289
524.50471
539.59418
554.85232
569.89955
584.39088
598.03917
610.62597
622.0023
632.06771
640.79327
648.19426
654.31816
659.23431
663.02546
665.78109
667.59249
668.54933
668.73736
668.23706
667.12291
665.46313
663.31964
660.74827
657.79934
654.51827
650.94558
647.11745
643.06622
638.82072
634.40667
629.847
625.1622
620.37066
615.48876
610.53102
605.51053
600.43897
595.32682
590.1834
585.01706
579.8353
574.64484
569.45169
564.26119
453.34173
460.95142
469.73399
479.74351
490.96097
503.27455
516.47919
530.29374
544.39074
558.43076
572.09367
585.10186
597.23358
608.32751
618.27799
627.01933
634.54396
640.87751
646.06949
650.18535
653.29999
655.49271
656.84354
657.43073
657.32895
656.60838
655.33407
653.56573
651.35786
648.75976
645.81619
642.56765
639.05039
635.29699
631.33666
627.19551
622.89701
618.46217
613.90988
609.25704
604.51871
599.70847
594.8385
589.91972
584.96188
579.97376
574.96327
569.93747
564.90274
559.86472
452.81194
459.35381
467.01185
475.82692
485.78423
496.79535
508.69438
521.24791
534.17617
547.17991
559.96702
572.27435
583.88226
594.62166
604.37488
613.06498
620.65248
627.1422
632.56427
636.96683
640.40979
642.95987
644.68683
645.6606
645.94938
645.61831
644.72865
643.33735
641.49694
639.25553
636.65684
633.74079
630.54357
627.09779
623.4328
619.57507
615.54844
611.37431
607.07202
602.65891
598.15055
593.56099
588.90283
584.18745
579.425
574.6247
569.79483
564.94282
560.07538
555.19847
452.30217
457.81273
464.38543
472.05047
480.79579
490.55127
501.18308
512.49878
524.26172
536.2114
548.08538
559.63874
570.6587
580.97317
590.4539
599.01481
606.59921
613.18546
618.78519
623.42952
627.16329
630.04023
632.11921
633.46124
634.12732
634.17688
633.66677
632.65058
631.17834
629.29636
627.04725
624.46989
621.59995
618.46988
615.10905
611.54403
607.79887
603.89532
599.85306
595.68978
591.42148
587.06261
582.62618
578.12398
573.56656
568.96354
564.32356
559.6544
554.96311
550.25596
451.81481
456.33545
461.86619
468.4288
476.01308
484.56324
493.9716
504.08042
514.69126
525.57997
536.51401
547.2693
557.64385
567.46712
576.6047
584.95901
592.46703
599.0854
604.80467
609.63969
613.62035
616.78725
619.18796
620.87403
621.89864
622.31491
622.17462
621.52744
620.42033
618.89734
616.99939
614.76427
612.22665
609.41844
606.36883
603.10431
599.649
596.02481
592.25162
588.34744
584.32861
580.20989
576.00466
571.72506
567.38197
562.98544
558.54442
554.06704
549.56064
545.03181
451.35163
454.9276
459.46308
464.97341
471.44978
478.84763
487.08052
496.01979
505.50035
515.33127
525.30918
535.23219
544.91215
554.18397
562.91131
570.98891
578.34204
584.92394
590.7002
595.6696
599.8475
603.26146
605.94761
607.94765
609.30644
610.07022
610.28515
609.99639
609.24733
608.0792
606.53081
604.63837
602.43545
599.95302
597.21967
594.26168
591.10303
587.76562
584.26942
580.6326
576.87173
573.00185
569.03664
564.98849
560.86863
556.68742
552.45412
548.17715
543.86418
539.52207
450.91386
453.59323
457.18272
461.6929
467.11607
473.41662
480.52525
488.33751
496.71698
505.50253
514.51837
523.58518
532.5307
541.19847
549.45396
557.18797
564.31749
570.78465
576.55312
581.59666
585.91731
589.53008
592.45976
594.73801
596.40107
597.48784
598.03835
598.09271
597.69024
596.86889
595.66487
594.11237
592.24346
590.08803
587.67373
585.02622
582.16921
579.12438
575.91164
572.54921
569.05373
565.44042
561.72316
557.91458
554.02624
550.06863
546.05132
541.98307
537.87174
533.72446
450.50223
452.33501
455.02955
458.59308
463.0189
468.27854
474.31655
481.04846
488.36224
496.12306
504.18055
512.37751
520.55869
528.57865
536.3078
543.63639
550.47646
556.76195
562.44767
567.50241
571.90755
575.66634
578.7926
581.30806
583.24014
584.6201
585.48145
585.8588
585.78692
585.30002
584.43127
583.21244
581.67369
579.84342
577.74824
575.41286
572.86032
570.11199
567.18751
564.10497
560.88098
557.53082
554.06845
550.50667
546.8572
543.13077
539.33718
535.48535
531.58337
527.63867
450.11707
451.15433
453.0061
455.67731
459.16226
463.43821
468.46092
474.16233
480.45096
487.21481
494.32652
501.64988
509.04699
516.38497
523.54161
530.40961
536.89904
542.93844
548.47457
553.47107
557.9
561.74852
565.02024
567.72723
569.88816
571.52648
572.66893
573.34429
573.58235
573.41317
572.86648
571.97123
570.75527
569.24519
567.46614
565.44179
563.19422
560.74412
558.11072
555.31182
552.36386
549.282
546.0802
542.77132
539.36716
535.87857
532.31552
528.68715
525.00168
521.26669
449.75831
450.05153
451.11316
452.94668
455.5474
458.89725
462.96104
467.68415
472.99225
478.79297
484.97932
491.43459
498.03786
504.66963
511.21685
517.57699
523.66089
529.39437
534.71872
539.5902
543.97898
547.8587
551.22163
554.07066
556.41595
558.27322
559.66233
560.60597
561.1287
561.25606
561.01397
560.4282
559.52394
558.32561
556.85659
555.13912
553.19425
551.04169
548.7
546.18646
543.5172
540.70715
537.77011
534.71887
531.56524
528.32011
524.9935
521.59464
518.13197
514.61321
449.42558
449.02603
449.35002
450.40029
452.17316
454.65441
457.81616
461.61476
465.99011
470.86647
476.15473
481.7558
487.56494
493.47619
499.38673
505.20062
510.83169
516.20546
521.26017
525.9469
530.22904
534.08105
537.47921
540.41804
542.89975
544.93263
546.5297
547.70751
548.48518
548.88351
548.92431
548.62981
548.02227
547.12358
545.95506
544.53725
542.88978
541.0313
538.97943
536.75074
534.36079
531.82414
529.15431
526.3639
523.46458
520.46719
517.38174
514.21749
510.98294
507.6859
449.11828
448.07641
447.71469
448.03551
449.03625
450.70589
453.02247
455.95125
459.44389
463.43865
467.86179
472.62999
477.65342
482.83935
488.09571
493.33434
498.4738
503.44136
508.17439
512.62095
516.73982
520.50024
523.87736
526.85222
529.42
531.58204
533.34479
534.71877
535.71758
536.35716
536.65497
536.62951
536.29976
535.68485
534.80374
533.67497
532.31653
530.7457
528.97899
527.03207
524.91973
522.65594
520.2538
517.72557
515.0827
512.33583
509.49488
506.56903
503.56682
500.49603
448.83558
447.20063
446.20406
445.84824
446.13154
447.04567
448.57347
450.68745
453.3489
456.50777
460.10346
464.0664
468.32034
472.78504
477.37917
482.02305
486.64118
491.16423
495.53053
499.68699
503.58948
507.20289
510.50066
513.45743
516.05971
518.30245
520.18593
521.71488
522.89752
523.74486
524.26997
524.4874
524.41268
524.06193
523.4515
522.59771
521.51663
520.22395
518.73482
517.0638
515.2248
513.23097
511.09482
508.8281
506.44192
503.94662
501.3519
498.6668
495.89975
493.05848
448.5765
446.3961
444.81411
443.83307
443.45232
443.6658
444.46034
445.81431
447.69688
450.06767
452.87716
456.06771
459.57513
463.33069
467.26342
471.30235
475.37868
479.42766
483.39007
487.21326
490.85187
494.26798
497.43105
500.31718
502.90265
505.17683
507.13448
508.77494
510.10131
511.1198
511.83909
512.26972
512.42366
512.31384
511.95381
511.35744
510.5387
509.51145
508.28929
506.88546
505.31274
503.58339
501.70911
499.70103
497.5697
495.32506
492.97651
490.53282
488.00222
485.39228
448.33993
445.65984
443.54009
441.98359
440.99055
440.55677
440.67231
441.32037
442.47649
444.10829
446.17551
448.63069
451.42019
454.4857
457.76594
461.19849
464.72161
468.2759
471.80568
475.2601
478.59396
481.76813
484.74976
487.51235
490.03137
492.28826
494.2731
495.98041
497.40855
498.55923
499.43682
500.04795
500.40096
500.50551
500.37222
500.01239
499.43767
498.65992
497.69101
496.54266
495.22637
493.75329
492.13419
490.37942
488.49885
486.50188
484.39743
482.19393
479.89932
477.52093
448.12469
444.98854
442.37673
440.29258
438.73711
437.70771
437.19702
437.19213
437.67384
438.6163
439.98694
441.74689
443.85164
446.25209
448.89583
451.72858
454.69567
457.74343
460.82047
463.87874
466.87438
469.76828
472.52642
475.12001
477.5252
479.71782
481.68374
483.41322
484.90044
486.14291
487.14102
487.89759
488.41742
488.70692
488.77372
488.62642
488.27427
487.727
486.99456
486.08702
485.01442
483.78664
482.41338
480.90404
479.2677
477.51309
475.64854
473.68201
471.62103
469.47262
447.92954
444.37868
441.31834
438.75222
436.6821
435.10669
434.02076
433.41451
433.27297
433.57564
434.29636
435.4034
436.86005
438.62524
440.65451
442.90112
445.3172
447.85491
450.46757
453.11062
455.74241
458.32489
460.82399
463.20994
465.45744
467.54235
469.4455
471.15378
472.65777
473.95132
475.03119
475.89665
476.54915
476.99191
477.22963
477.26819
477.11438
476.77568
476.26005
475.57577
474.73128
473.73509
472.59564
471.32128
469.92016
468.4002
466.76905
465.03408
463.20231
461.28035
447.7532
443.82661
440.35896
437.3543
434.81508
432.74109
431.12886
429.97109
429.25623
428.96811
429.0858
429.58359
430.43129
431.59475
433.03653
434.71669
436.59372
438.62549
440.77015
442.98701
445.2373
447.48476
449.69617
451.84166
453.89486
455.83281
457.6327
459.27888
460.75896
462.06369
463.18666
464.12395
464.8739
465.43675
465.81436
466.00998
466.02793
465.87341
465.55235
465.07113
464.43652
463.65553
462.73526
461.68288
460.50547
459.21005
457.80346
456.29237
454.68319
447.59439
443.32864
439.49249
436.09036
433.12523
430.59779
428.506
426.84459
425.60475
424.7738
424.33506
424.26778
424.54729
425.1453
426.03043
427.1688
428.5247
430.06137
431.74174
433.52915
435.38804
437.28454
439.18694
441.06608
442.89564
444.65232
446.31293
447.85971
449.278
450.556
451.68461
452.65719
453.46929
454.11845
454.60389
454.92633
455.08771
455.09103
454.94011
454.63948
454.19415
453.60956
452.89139
452.04551
451.0779
449.99452
448.80133
447.50418
446.10864
447.45186
442.88105
438.71281
434.95185
431.60157
428.66344
426.13652
424.01718
422.29882
420.97158
420.02223
419.43404
419.18691
419.25755
419.61975
420.2449
421.10248
422.16069
423.38696
424.74865
426.21359
427.75058
429.32992
430.92374
432.50633
434.05438
435.54534
436.96021
438.28269
439.4991
440.59822
441.57111
442.41101
443.11302
443.67404
444.09243
444.36792
444.50138
444.49463
444.3503
444.07169
443.66261
443.12729
442.47026
441.69627
440.81021
439.81704
438.72172
437.52901
447.32439
442.48021
438.01386
433.93026
430.23318
426.92464
424.00462
421.47081
419.31834
417.53963
416.12423
415.05871
414.3267
413.90904
413.78396
413.92738
414.31335
414.91448
415.70241
416.64832
417.72339
418.89929
420.14857
421.44503
422.76405
424.08279
425.37989
426.63576
427.83317
428.95715
429.99491
430.93577
431.77101
432.49376
433.09884
433.58257
433.94265
434.17797
434.28847
434.27497
434.13907
433.88301
433.50953
433.0218
432.42332
431.71784
430.90929
430.00166
428.99887
447.21078
442.12261
437.38976
433.01731
429.00929
425.36819
422.09468
419.18748
416.64313
414.45585
412.61743
411.11709
409.94155
409.07504
408.49948
408.19469
408.13865
408.30789
408.67782
409.22318
409.91836
410.73789
411.65669
412.6505
413.69611
414.77163
415.85689
416.93253
417.98093
418.98639
419.93506
420.81499
421.61601
422.32962
422.94893
423.46853
423.88433
424.19346
424.39412
424.48546
424.46748
424.34088
424.10697
423.76757
423.32492
422.78162
422.14051
421.40462
420.57696
447.10993
441.80487
436.83483
432.20497
427.9195
423.98125
420.39144
417.14957
414.25329
411.69826
409.47805
407.58406
406.00547
404.72932
403.74059
403.02234
402.55595
402.32135
402.29729
402.46171
402.79202
403.26545
403.85933
404.55142
405.32014
406.14479
407.00676
407.88712
408.76834
409.63445
410.47108
411.26543
412.00629
412.68397
413.29025
413.81826
414.26242
414.61835
414.88271
415.05315
415.12818
415.10709
414.98981
414.77687
414.46929
414.06851
413.5763
412.99471
412.32581
447.02078
441.52385
436.34374
431.48565
426.9539
422.75154
418.8802
415.34001
412.12946
409.24536
406.6827
404.43459
402.49224
400.84498
399.48031
398.38398
397.54023
396.93188
396.54064
396.34726
396.33188
396.47426
396.75404
397.151
397.6453
398.21766
398.85097
399.52702
400.22872
400.94024
401.64704
402.33591
402.99499
403.61377
404.18303
404.69481
405.14231
405.51989
405.82291
406.04771
406.19149
406.25224
406.22864
406.12001
405.9262
405.64754
405.28478
404.83897
404.31126
446.94238
441.27661
435.9115
430.85223
426.10315
421.66746
417.54709
413.7426
410.25318
407.07651
404.20871
401.64429
399.37607
397.39523
395.69133
394.25238
393.06496
392.11436
391.38478
390.85946
390.52095
390.3513
390.33229
390.44565
390.67328
390.99767
391.40279
391.87137
392.38702
392.93433
393.49893
394.06752
394.62795
395.1692
395.68141
396.15578
396.58464
396.96133
397.28015
397.53633
397.72596
397.84589
397.89369
397.86757
397.76632
397.58923
397.33606
397.00693
396.60208
446.87387
441.06049
435.53356
430.29818
425.35868
420.7183
416.37917
412.3422
408.60709
405.17223
402.03462
399.18988
396.63213
394.35406
392.34689
390.60046
389.1033
387.84277
386.80514
385.97579
385.33937
384.87996
384.58124
384.42673
384.39989
384.48607
384.66889
384.93233
385.26095
385.63997
386.05541
386.49418
386.9441
387.39393
387.83342
388.25327
388.64515
389.00164
389.31624
389.5833
389.79795
389.95611
390.05437
390.08998
390.06078
389.96513
389.80187
389.57025
389.26966
446.81446
440.87312
435.20586
429.81765
424.71271
419.89429
415.36465
411.12494
407.17527
403.51456
400.14054
397.04971
394.23723
391.69698
389.42155
387.40225
385.62921
384.09147
382.77706
381.67312
380.76609
380.04181
379.48566
379.08273
378.81923
378.68049
378.65134
378.71689
378.86262
379.07452
379.33917
379.64383
379.97649
380.32594
380.68176
381.03437
381.37503
381.69581
381.9896
382.25006
382.47161
382.64938
382.77916
382.85739
382.88108
382.84777
382.75549
382.6027
382.38803
446.76352
440.71247
434.92487
429.40549
424.1584
419.18682
414.49305
410.07845