/*--------------------------------*- C++ -*----------------------------------*\
| =========                 |                                                 |
| \\      /  F ield         | OpenFOAM: The Open Source CFD Toolbox           |
|  \\    /   O peration     | Version:  2312                                  |
|   \\  /    A nd           | Website:  www.openfoam.com                      |
|    \\/     M anipulation  |                                                 |
\*---------------------------------------------------------------------------*/
FoamFile
{
    version     2.0;
    format      ascii;
    arch        "LSB;label=32;scalar=64";
    class       volScalarField;
    location    "0.05";
    object      p;
}
// * * * * * * * * * * * * * * * * * * * * * * * * * * * * * * * * * * * * * //

dimensions      [1 -1 -2 0 0 0 0];

internalField   nonuniform List<scalar> 
3275
(
100003.4
100002.08
100010.15
100012.78
100014.04
100014.04
100013.07
100011.95
100010.73
100009.34
100008.96
100008.23
100006.59
100005.94
100005.3
100004.76
100004.32
100003.96
100003.68
100003.44
100003.25
100003.09
100002.95
100002.84
100002.74
100002.66
100002.59
100002.53
100002.48
100002.44
100002.4
100002.37
100002.34
100002.32
100002.3
100002.29
100002.27
100002.26
100002.25
100002.24
100002.24
100002.24
100002.23
100002.23
100002.23
100002.23
100002.23
100002.23
100002.24
100002.24
100002.24
100002.25
100002.76
99998.657
100008.04
100010.86
100012.74
100013.21
100012.48
100011.54
100010.44
100009.13
100008.8
100008.11
100006.52
100005.87
100005.25
100004.72
100004.29
100003.94
100003.66
100003.43
100003.23
100003.08
100002.94
100002.83
100002.74
100002.66
100002.59
100002.53
100002.48
100002.44
100002.4
100002.37
100002.34
100002.32
100002.3
100002.28
100002.27
100002.26
100002.25
100002.24
100002.24
100002.23
100002.23
100002.23
100002.23
100002.23
100002.23
100002.23
100002.24
100002.24
100002.24
100002.25
100009.41
99992.86
100003.54
100007
100010.27
100011.65
100011.35
100010.74
100009.87
100008.74
100008.48
100007.86
100006.37
100005.75
100005.15
100004.65
100004.23
100003.9
100003.62
100003.4
100003.21
100003.06
100002.93
100002.82
100002.72
100002.65
100002.58
100002.52
100002.47
100002.43
100002.39
100002.36
100002.34
100002.31
100002.3
100002.28
100002.27
100002.26
100002.25
100002.24
100002.24
100002.23
100002.23
100002.23
100002.23
100002.23
100002.23
100002.23
100002.23
100002.24
100002.24
100002.24
100020.91
99982.26
99995.984
100001.36
100006.88
100009.44
100009.78
100009.61
100009.06
100008.17
100008.02
100007.5
100006.15
100005.56
100005.01
100004.54
100004.15
100003.83
100003.57
100003.36
100003.18
100003.03
100002.9
100002.8
100002.71
100002.63
100002.57
100002.51
100002.46
100002.42
100002.39
100002.36
100002.33
100002.31
100002.29
100002.28
100002.26
100002.25
100002.24
100002.24
100002.23
100002.23
100002.23
100002.23
100002.22
100002.23
100002.23
100002.23
100002.23
100002.23
100002.24
100002.24
99947.332
99951.621
99984.62
99994.924
100002.83
100006.63
100007.97
100008.27
100008.06
100007.46
100007.43
100007.04
100005.87
100005.33
100004.83
100004.4
100004.04
100003.74
100003.5
100003.3
100003.13
100002.99
100002.87
100002.77
100002.68
100002.61
100002.55
100002.49
100002.45
100002.41
100002.38
100002.35
100002.32
100002.3
100002.28
100002.27
100002.26
100002.25
100002.24
100002.23
100002.23
100002.22
100002.22
100002.22
100002.22
100002.22
100002.22
100002.23
100002.23
100002.23
100002.24
100002.24
99743.057
99900.173
99972.933
99988.858
99998.858
100003.64
100005.94
100006.91
100006.99
100006.67
100006.77
100006.52
100005.56
100005.05
100004.62
100004.23
100003.91
100003.64
100003.42
100003.23
100003.08
100002.94
100002.83
100002.74
100002.66
100002.59
100002.53
100002.48
100002.43
100002.4
100002.36
100002.34
100002.31
100002.29
100002.28
100002.26
100002.25
100002.24
100002.23
100002.23
100002.22
100002.22
100002.22
100002.22
100002.22
100002.22
100002.22
100002.22
100002.22
100002.23
100002.23
100002.24
99837.157
99895.899
99965.79
99983.725
99995.088
100000.84
100003.95
100005.48
100005.94
100005.87
100006.07
100005.96
100005.24
100004.76
100004.39
100004.06
100003.77
100003.53
100003.33
100003.16
100003.02
100002.9
100002.79
100002.7
100002.63
100002.56
100002.51
100002.46
100002.42
100002.38
100002.35
100002.32
100002.3
100002.28
100002.27
100002.25
100002.24
100002.23
100002.23
100002.22
100002.22
100002.21
100002.21
100002.21
100002.21
100002.21
100002.21
100002.22
100002.22
100002.22
100002.23
100002.23
99913.021
99909.209
99962.973
99979.962
99991.838
99998.287
100001.97
100003.94
100004.81
100005.04
100005.29
100005.35
100004.88
100004.44
100004.14
100003.86
100003.61
100003.4
100003.23
100003.08
100002.95
100002.84
100002.74
100002.66
100002.59
100002.53
100002.48
100002.44
100002.4
100002.36
100002.33
100002.31
100002.29
100002.27
100002.25
100002.24
100002.23
100002.22
100002.22
100002.21
100002.21
100002.21
100002.21
100002.21
100002.21
100002.21
100002.21
100002.21
100002.21
100002.22
100002.22
100002.23
99933.297
99921.184
99962.519
99977.568
99989.211
99995.973
100000.05
100002.39
100003.62
100004.16
100004.5
100004.7
100004.45
100004.1
100003.85
100003.63
100003.43
100003.26
100003.11
100002.99
100002.87
100002.78
100002.69
100002.62
100002.55
100002.5
100002.45
100002.41
100002.37
100002.34
100002.32
100002.29
100002.27
100002.26
100002.24
100002.23
100002.22
100002.21
100002.21
100002.2
100002.2
100002.2
100002.2
100002.2
100002.2
100002.2
100002.2
100002.21
100002.21
100002.21
100002.22
100002.22
99937.826
99930.38
99963.008
99976.183
99987.147
99993.926
99998.246
100000.88
100002.41
100003.22
100003.72
100004.03
100003.96
100003.74
100003.54
100003.39
100003.24
100003.11
100002.99
100002.88
100002.79
100002.7
100002.63
100002.57
100002.51
100002.46
100002.42
100002.38
100002.35
100002.32
100002.29
100002.27
100002.26
100002.24
100002.23
100002.22
100002.21
100002.2
100002.2
100002.19
100002.19
100002.19
100002.19
100002.19
100002.19
100002.19
100002.2
100002.2
100002.2
100002.21
100002.21
100002.21
99942.594
99938.516
99964.077
99975.556
99985.604
99992.193
99996.613
99999.463
100001.23
100002.26
100002.94
100003.36
100003.42
100003.35
100003.23
100003.12
100003.03
100002.94
100002.85
100002.77
100002.69
100002.62
100002.56
100002.51
100002.46
100002.42
100002.38
100002.35
100002.32
100002.29
100002.27
100002.25
100002.24
100002.22
100002.21
100002.2
100002.2
100002.19
100002.18
100002.18
100002.18
100002.18
100002.18
100002.18
100002.18
100002.18
100002.19
100002.19
100002.19
100002.2
100002.2
100002.21
99948.29
99945.947
99965.616
99975.53
99984.545
99990.792
99995.183
99998.15
100000.09
100001.32
100002.15
100002.68
100002.87
100002.92
100002.9
100002.85
100002.8
100002.75
100002.7
100002.64
100002.59
100002.54
100002.49
100002.44
100002.4
100002.37
100002.34
100002.31
100002.28
100002.26
100002.24
100002.23
100002.21
100002.2
100002.19
100002.19
100002.18
100002.17
100002.17
100002.17
100002.17
100002.17
100002.17
100002.17
100002.17
100002.17
100002.18
100002.18
100002.19
100002.19
100002.19
100002.2
99953.767
99952.519
99967.48
99975.962
99983.913
99989.717
99993.975
99996.976
99999.039
100000.41
100001.37
100002
100002.32
100002.48
100002.55
100002.57
100002.57
100002.56
100002.54
100002.51
100002.47
100002.44
100002.41
100002.38
100002.35
100002.32
100002.29
100002.27
100002.25
100002.23
100002.22
100002.2
100002.19
100002.18
100002.17
100002.17
100002.16
100002.16
100002.16
100002.15
100002.15
100002.16
100002.16
100002.16
100002.16
100002.16
100002.17
100002.17
100002.18
100002.18
100002.19
100002.19
99958.754
99958.214
99969.524
99976.724
99983.644
99988.945
99992.99
99995.956
99998.078
99999.562
100000.61
100001.34
100001.78
100002.04
100002.18
100002.28
100002.33
100002.36
100002.37
100002.37
100002.36
100002.34
100002.32
100002.3
100002.28
100002.26
100002.24
100002.23
100002.21
100002.2
100002.18
100002.17
100002.16
100002.16
100002.15
100002.15
100002.14
100002.14
100002.14
100002.14
100002.14
100002.14
100002.14
100002.15
100002.15
100002.15
100002.16
100002.16
100002.17
100002.17
100002.17
100002.18
99963.283
99963.136
99971.644
99977.71
99983.671
99988.446
99992.224
99995.096
99997.228
99998.777
99999.906
100000.71
100001.24
100001.59
100001.82
100001.98
100002.08
100002.15
100002.19
100002.22
100002.23
100002.23
100002.23
100002.22
100002.21
100002.2
100002.19
100002.18
100002.17
100002.16
100002.15
100002.14
100002.14
100002.13
100002.13
100002.12
100002.12
100002.12
100002.12
100002.12
100002.12
100002.13
100002.13
100002.13
100002.14
100002.14
100002.14
100002.15
100002.15
100002.16
100002.16
100002.17
99967.377
99967.399
99973.768
99978.841
99983.933
99988.184
99991.663
99994.397
99996.495
99998.072
99999.253
100000.12
100000.73
100001.16
100001.46
100001.68
100001.83
100001.94
100002.02
100002.06
100002.1
100002.12
100002.13
100002.14
100002.14
100002.13
100002.13
100002.13
100002.12
100002.12
100002.11
100002.11
100002.1
100002.1
100002.1
100002.1
100002.1
100002.1
100002.1
100002.1
100002.11
100002.11
100002.11
100002.12
100002.12
100002.12
100002.13
100002.14
100002.14
100002.15
100002.15
100002.16
99971.044
99971.102
99975.846
99980.056
99984.375
99988.125
99991.289
99993.854
99995.883
99997.456
99998.665
99999.579
100000.25
100000.74
100001.1
100001.38
100001.58
100001.72
100001.84
100001.91
100001.96
100002
100002.03
100002.05
100002.06
100002.07
100002.07
100002.07
100002.07
100002.07
100002.07
100002.07
100002.07
100002.07
100002.07
100002.07
100002.07
100002.08
100002.08
100002.08
100002.09
100002.09
100002.09
100002.1
100002.1
100002.11
100002.11
100002.12
100002.13
100002.13
100002.14
100002.14
99974.301
99974.326
99977.844
99981.311
99984.952
99988.232
99991.081
99993.458
99995.391
99996.932
99998.147
99999.09
99999.807
100000.35
100000.77
100001.09
100001.33
100001.51
100001.65
100001.75
100001.83
100001.88
100001.92
100001.95
100001.98
100001.99
100002
100002.01
100002.02
100002.02
100002.03
100002.03
100002.04
100002.04
100002.04
100002.04
100002.05
100002.05
100002.06
100002.06
100002.06
100002.07
100002.07
100002.08
100002.09
100002.09
100002.1
100002.1
100002.11
100002.12
100002.12
100002.13
99977.179
99977.141
99979.738
99982.573
99985.627
99988.475
99991.017
99993.196
99995.015
99996.502
99997.702
99998.657
99999.405
99999.99
100000.45
100000.81
100001.08
100001.3
100001.47
100001.59
100001.69
100001.76
100001.82
100001.86
100001.89
100001.92
100001.94
100001.95
100001.96
100001.98
100001.98
100001.99
100002
100002
100002.01
100002.01
100002.02
100002.02
100002.03
100002.04
100002.04
100002.05
100002.05
100002.06
100002.07
100002.07
100002.08
100002.09
100002.09
100002.1
100002.11
100002.12
99979.713
99979.607
99981.515
99983.819
99986.368
99988.826
99991.077
99993.056
99994.748
99996.165
99997.334
99998.285
99999.05
99999.663
100000.15
100000.54
100000.85
100001.09
100001.28
100001.43
100001.55
100001.64
100001.71
100001.76
100001.8
100001.84
100001.87
100001.89
100001.91
100001.92
100001.94
100001.95
100001.96
100001.97
100001.97
100001.98
100001.99
100002
100002
100002.01
100002.02
100002.02
100002.03
100002.04
100002.05
100002.05
100002.06
100002.07
100002.08
100002.08
100002.09
99981.941
99981.774
99983.166
99985.029
99987.15
99989.258
99991.239
99993.021
99994.581
99995.915
99997.04
99997.975
99998.744
99999.373
99999.885
100000.3
100000.63
100000.89
100001.11
100001.27
100001.41
100001.51
100001.6
100001.66
100001.71
100001.76
100001.79
100001.82
100001.85
100001.87
100001.88
100001.9
100001.91
100001.93
100001.94
100001.95
100001.96
100001.96
100001.97
100001.98
100001.99
100002
100002.01
100002.02
100002.02
100002.03
100002.04
100002.05
100002.06
100002.07
100002.07
99983.901
99983.685
99984.692
99986.19
99987.95
99989.752
99991.484
99993.079
99994.504
99995.749
99996.819
99997.726
99998.488
99999.122
99999.646
100000.08
100000.42
100000.71
100000.93
100001.12
100001.27
100001.39
100001.49
100001.56
100001.63
100001.68
100001.72
100001.75
100001.78
100001.81
100001.83
100001.85
100001.87
100001.88
100001.9
100001.91
100001.92
100001.93
100001.94
100001.95
100001.96
100001.97
100001.98
100001.99
100002
100002.01
100002.02
100002.03
100002.04
100002.05
100002.06
99985.627
99985.375
99986.095
99987.294
99988.751
99990.286
99991.795
99993.214
99994.507
99995.658
99996.666
99997.537
99998.28
99998.908
99999.435
99999.873
100000.23
100000.53
100000.77
100000.97
100001.13
100001.26
100001.37
100001.46
100001.53
100001.59
100001.64
100001.69
100001.72
100001.75
100001.78
100001.8
100001.82
100001.84
100001.86
100001.87
100001.88
100001.9
100001.91
100001.92
100001.93
100001.94
100001.96
100001.97
100001.98
100001.99
100002
100002.01
100002.02
100002.03
100002.04
99987.151
99986.876
99987.381
99988.335
99989.538
99990.843
99992.154
99993.411
99994.577
99995.634
99996.575
99997.402
99998.118
99998.732
99999.254
99999.693
100000.06
100000.37
100000.62
100000.83
100001
100001.14
100001.26
100001.36
100001.44
100001.51
100001.57
100001.61
100001.66
100001.69
100001.72
100001.75
100001.77
100001.79
100001.81
100001.83
100001.85
100001.86
100001.88
100001.89
100001.9
100001.91
100001.93
100001.94
100001.95
100001.96
100001.97
100001.98
100001.99
100002
99988.499
99988.213
99988.556
99989.311
99990.302
99991.409
99992.545
99993.654
99994.701
99995.666
99996.538
99997.314
99997.997
99998.591
99999.101
99999.537
99999.905
100000.22
100000.48
100000.69
100000.88
100001.03
100001.15
100001.26
100001.35
100001.42
100001.49
100001.54
100001.59
100001.63
100001.66
100001.7
100001.72
100001.75
100001.77
100001.79
100001.81
100001.82
100001.84
100001.85
100001.87
100001.88
100001.9
100001.91
100001.92
100001.93
100001.95
100001.96
100001.97
100001.98
99989.695
99989.407
99989.629
99990.222
99991.037
99991.972
99992.954
99993.93
99994.867
99995.742
99996.544
99997.269
99997.914
99998.482
99998.976
99999.403
99999.769
100000.08
100000.34
100000.57
100000.76
100000.92
100001.05
100001.16
100001.26
100001.34
100001.41
100001.47
100001.52
100001.57
100001.61
100001.64
100001.67
100001.7
100001.72
100001.74
100001.76
100001.78
100001.8
100001.82
100001.83
100001.85
100001.86
100001.88
100001.89
100001.9
100001.92
100001.93
100001.94
100001.95
99990.76
99990.476
99990.608
99991.07
99991.737
99992.526
99993.372
99994.229
99995.063
99995.853
99996.588
99997.259
99997.864
99998.403
99998.877
99999.292
99999.651
99999.96
100000.23
100000.45
100000.65
100000.81
100000.95
100001.07
100001.17
100001.26
100001.33
100001.4
100001.45
100001.5
100001.55
100001.59
100001.62
100001.65
100001.68
100001.7
100001.72
100001.74
100001.76
100001.78
100001.8
100001.81
100001.83
100001.85
100001.86
100001.87
100001.89
100001.9
100001.91
100001.93
99991.712
99991.435
99991.501
99991.857
99992.401
99993.064
99993.792
99994.541
99995.281
99995.992
99996.661
99997.28
99997.843
99998.351
99998.803
99999.202
99999.551
99999.856
100000.12
100000.35
100000.54
100000.71
100000.85
100000.98
100001.08
100001.18
100001.26
100001.33
100001.39
100001.44
100001.49
100001.53
100001.56
100001.6
100001.63
100001.65
100001.68
100001.7
100001.72
100001.74
100001.76
100001.78
100001.8
100001.81
100001.83
100001.84
100001.86
100001.87
100001.88
100001.9
99992.564
99992.299
99992.315
99992.586
99993.028
99993.583
99994.206
99994.86
99995.515
99996.152
99996.759
99997.326
99997.848
99998.323
99998.751
99999.132
99999.469
99999.766
100000.03
100000.25
100000.45
100000.62
100000.76
100000.89
100001
100001.1
100001.18
100001.25
100001.32
100001.37
100001.42
100001.47
100001.51
100001.54
100001.58
100001.6
100001.63
100001.66
100001.68
100001.7
100001.72
100001.74
100001.76
100001.78
100001.79
100001.81
100001.82
100001.84
100001.85
100001.87
99993.33
99993.078
99993.057
99993.261
99993.617
99994.081
99994.613
99995.18
99995.758
99996.328
99996.875
99997.393
99997.874
99998.317
99998.719
99999.081
99999.404
99999.691
99999.944
100000.17
100000.36
100000.53
100000.68
100000.81
100000.92
100001.02
100001.11
100001.18
100001.25
100001.31
100001.36
100001.41
100001.45
100001.49
100001.53
100001.56
100001.58
100001.61
100001.64
100001.66
100001.68
100001.7
100001.72
100001.74
100001.76
100001.77
100001.79
100001.81
100001.82
100001.84
99994.019
99993.781
99993.735
99993.883
99994.169
99994.554
99995.007
99995.499
99996.007
99996.514
99997.007
99997.477
99997.919
99998.329
99998.705
99999.046
99999.354
99999.629
99999.875
100000.09
100000.28
100000.45
100000.6
100000.73
100000.85
100000.95
100001.04
100001.12
100001.19
100001.25
100001.3
100001.35
100001.4
100001.44
100001.47
100001.51
100001.54
100001.57
100001.59
100001.62
100001.64
100001.66
100001.68
100001.7
100001.72
100001.74
100001.76
100001.77
100001.79
100001.8
99994.641
99994.418
99994.353
99994.458
99994.685
99995.004
99995.388
99995.813
99996.258
99996.707
99997.149
99997.575
99997.979
99998.357
99998.707
99999.027
99999.318
99999.581
99999.817
100000.03
100000.22
100000.38
100000.53
100000.66
100000.78
100000.88
100000.97
100001.05
100001.12
100001.19
100001.24
100001.29
100001.34
100001.38
100001.42
100001.46
100001.49
100001.52
100001.55
100001.57
100001.6
100001.62
100001.64
100001.66
100001.68
100001.7
100001.72
100001.74
100001.75
100001.77
99995.203
99994.996
99994.918
99994.988
99995.166
99995.429
99995.753
99996.119
99996.507
99996.904
99997.3
99997.684
99998.052
99998.399
99998.723
99999.022
99999.296
99999.545
99999.771
99999.974
100000.16
100000.32
100000.46
100000.59
100000.71
100000.81
100000.9
100000.99
100001.06
100001.12
100001.18
100001.24
100001.28
100001.33
100001.37
100001.41
100001.44
100001.47
100001.5
100001.53
100001.55
100001.58
100001.6
100001.62
100001.64
100001.66
100001.68
100001.7
100001.72
100001.73
99995.713
99995.52
99995.433
99995.476
99995.615
99995.83
99996.102
99996.415
99996.753
99997.103
99997.455
99997.801
99998.134
99998.452
99998.751
99999.029
99999.285
99999.521
99999.735
99999.93
100000.11
100000.26
100000.41
100000.53
100000.65
100000.75
100000.84
100000.92
100001
100001.07
100001.13
100001.18
100001.23
100001.27
100001.32
100001.35
100001.39
100001.42
100001.45
100001.48
100001.51
100001.53
100001.56
100001.58
100001.6
100001.62
100001.64
100001.66
100001.68
100001.7
99996.175
99995.996
99995.905
99995.926
99996.032
99996.206
99996.434
99996.701
99996.994
99997.301
99997.613
99997.923
99998.225
99998.514
99998.788
99999.046
99999.285
99999.506
99999.709
99999.894
100000.06
100000.22
100000.35
100000.48
100000.59
100000.69
100000.78
100000.87
100000.94
100001.01
100001.07
100001.12
100001.18
100001.22
100001.26
100001.3
100001.34
100001.37
100001.4
100001.43
100001.46
100001.49
100001.51
100001.54
100001.56
100001.58
100001.6
100001.62
100001.64
100001.66
99996.595
99996.429
99996.336
99996.34
99996.419
99996.559
99996.749
99996.976
99997.228
99997.497
99997.773
99998.049
99998.321
99998.584
99998.835
99999.072
99999.294
99999.501
99999.692
99999.867
100000.03
100000.17
100000.31
100000.43
100000.54
100000.64
100000.73
100000.81
100000.89
100000.95
100001.01
100001.07
100001.12
100001.17
100001.21
100001.25
100001.29
100001.32
100001.36
100001.39
100001.41
100001.44
100001.47
100001.49
100001.51
100001.54
100001.56
100001.58
100001.6
100001.62
99996.977
99996.824
99996.73
99996.721
99996.778
99996.89
99997.046
99997.238
99997.455
99997.689
99997.932
99998.178
99998.421
99998.659
99998.888
99999.106
99999.311
99999.503
99999.682
99999.848
100000
100000.14
100000.27
100000.39
100000.49
100000.59
100000.68
100000.76
100000.83
100000.9
100000.96
100001.02
100001.07
100001.12
100001.16
100001.2
100001.24
100001.27
100001.31
100001.34
100001.37
100001.4
100001.42
100001.45
100001.47
100001.49
100001.51
100001.54
100001.56
100001.58
99997.325
99997.183
99997.09
99997.072
99997.111
99997.198
99997.327
99997.488
99997.674
99997.876
99998.089
99998.307
99998.525
99998.739
99998.947
99999.146
99999.335
99999.513
99999.68
99999.835
99999.979
100000.11
100000.23
100000.35
100000.45
100000.54
100000.63
100000.71
100000.78
100000.85
100000.91
100000.97
100001.02
100001.07
100001.11
100001.15
100001.19
100001.22
100001.26
100001.29
100001.32
100001.35
100001.37
100001.4
100001.42
100001.45
100001.47
100001.49
100001.51
100001.53
99997.641
99997.511
99997.421
99997.395
99997.419
99997.487
99997.591
99997.726
99997.884
99998.058
99998.244
99998.436
99998.63
99998.822
99999.01
99999.191
99999.364
99999.529
99999.684
99999.829
99999.964
100000.09
100000.21
100000.31
100000.41
100000.5
100000.59
100000.66
100000.74
100000.8
100000.86
100000.92
100000.97
100001.02
100001.06
100001.1
100001.14
100001.18
100001.21
100001.24
100001.27
100001.3
100001.33
100001.35
100001.38
100001.4
100001.43
100001.45
100001.47
100001.49
99997.93
99997.81
99997.723
99997.692
99997.704
99997.755
99997.839
99997.951
99998.084
99998.234
99998.396
99998.564
99998.736
99998.907
99999.076
99999.241
99999.399
99999.55
99999.693
99999.828
99999.955
100000.07
100000.18
100000.29
100000.38
100000.47
100000.55
100000.62
100000.69
100000.76
100000.81
100000.87
100000.92
100000.97
100001.01
100001.05
100001.09
100001.13
100001.16
100001.19
100001.22
100001.25
100001.28
100001.31
100001.33
100001.36
100001.38
100001.4
100001.42
100001.45
99998.194
99998.084
99998
99997.965
99997.968
99998.005
99998.072
99998.163
99998.275
99998.403
99998.543
99998.69
99998.841
99998.994
99999.145
99999.294
99999.438
99999.576
99999.708
99999.832
99999.95
100000.06
100000.16
100000.26
100000.35
100000.43
100000.51
100000.58
100000.65
100000.71
100000.77
100000.82
100000.87
100000.92
100000.96
100001
100001.04
100001.08
100001.11
100001.15
100001.18
100001.21
100001.23
100001.26
100001.29
100001.31
100001.33
100001.36
100001.38
100001.4
99998.435
99998.334
99998.254
99998.216
99998.212
99998.238
99998.289
99998.364
99998.457
99998.566
99998.686
99998.813
99998.946
99999.081
99999.216
99999.349
99999.479
99999.605
99999.726
99999.841
99999.95
100000.05
100000.15
100000.24
100000.33
100000.41
100000.48
100000.55
100000.61
100000.67
100000.73
100000.78
100000.83
100000.88
100000.92
100000.96
100001
100001.03
100001.07
100001.1
100001.13
100001.16
100001.19
100001.21
100001.24
100001.26
100001.29
100001.31
100001.33
100001.35
99998.656
99998.563
99998.487
99998.448
99998.438
99998.454
99998.493
99998.553
99998.63
99998.721
99998.823
99998.934
99999.049
99999.168
99999.288
99999.407
99999.524
99999.638
99999.748
99999.854
99999.954
100000.05
100000.14
100000.23
100000.3
100000.38
100000.45
100000.52
100000.58
100000.64
100000.69
100000.74
100000.79
100000.83
100000.87
100000.91
100000.95
100000.99
100001.02
100001.05
100001.08
100001.11
100001.14
100001.16
100001.19
100001.22
100001.24
100001.26
100001.29
100001.31
99998.858
99998.773
99998.701
99998.661
99998.646
99998.654
99998.683
99998.73
99998.793
99998.869
99998.956
99999.05
99999.151
99999.254
99999.36
99999.466
99999.571
99999.673
99999.773
99999.869
99999.962
100000.05
100000.13
100000.21
100000.29
100000.36
100000.42
100000.49
100000.55
100000.6
100000.65
100000.7
100000.75
100000.79
100000.83
100000.87
100000.91
100000.94
100000.97
100001
100001.03
100001.06
100001.09
100001.12
100001.14
100001.17
100001.19
100001.22
100001.24
100001.26
99999.043
99998.965
99998.897
99998.857
99998.839
99998.84
99998.86
99998.897
99998.947
99999.01
99999.083
99999.163
99999.25
99999.34
99999.432
99999.526
99999.619
99999.711
99999.801
99999.888
99999.972
100000.05
100000.13
100000.2
100000.27
100000.34
100000.4
100000.46
100000.52
100000.57
100000.62
100000.66
100000.71
100000.75
100000.79
100000.83
100000.86
100000.9
100000.93
100000.96
100000.99
100001.02
100001.04
100001.07
100001.1
100001.12
100001.14
100001.17
100001.19
100001.21
99999.214
99999.142
99999.078
99999.037
99999.017
99999.013
99999.026
99999.053
99999.093
99999.144
99999.204
99999.272
99999.346
99999.424
99999.504
99999.586
99999.669
99999.751
99999.831
99999.91
99999.986
100000.06
100000.13
100000.2
100000.26
100000.32
100000.38
100000.44
100000.49
100000.54
100000.59
100000.63
100000.67
100000.71
100000.75
100000.79
100000.82
100000.85
100000.88
100000.91
100000.94
100000.97
100001
100001.02
100001.05
100001.07
100001.1
100001.12
100001.14
100001.17
99999.37
99999.304
99999.244
99999.204
99999.181
99999.174
99999.18
99999.199
99999.23
99999.271
99999.32
99999.377
99999.439
99999.506
99999.575
99999.647
99999.719
99999.791
99999.863
99999.934
100000
100000.07
100000.13
100000.2
100000.25
100000.31
100000.37
100000.42
100000.47
100000.51
100000.56
100000.6
100000.64
100000.68
100000.71
100000.75
100000.78
100000.81
100000.84
100000.87
100000.9
100000.93
100000.95
100000.98
100001
100001.03
100001.05
100001.07
100001.1
100001.12
99999.515
99999.454
99999.397
99999.358
99999.333
99999.322
99999.323
99999.336
99999.359
99999.391
99999.431
99999.477
99999.529
99999.586
99999.645
99999.707
99999.77
99999.833
99999.897
99999.959
100000.02
100000.08
100000.14
100000.2
100000.25
100000.3
100000.35
100000.4
100000.45
100000.49
100000.53
100000.57
100000.61
100000.64
100000.68
100000.71
100000.74
100000.77
100000.8
100000.83
100000.86
100000.88
100000.91
100000.93
100000.96
100000.98
100001
100001.03
100001.05
100001.07
99999.648
99999.592
99999.538
99999.499
99999.474
99999.46
99999.457
99999.464
99999.48
99999.504
99999.536
99999.573
99999.616
99999.663
99999.714
99999.767
99999.821
99999.876
99999.932
99999.987
100000.04
100000.1
100000.15
100000.2
100000.25
100000.3
100000.34
100000.38
100000.43
100000.47
100000.51
100000.54
100000.58
100000.61
100000.64
100000.68
100000.71
100000.73
100000.76
100000.79
100000.82
100000.84
100000.87
100000.89
100000.91
100000.94
100000.96
100000.98
100001
99999.772
99999.72
99999.668
99999.631
99999.604
99999.588
99999.581
99999.583
99999.593
99999.611
99999.635
99999.665
99999.7
99999.739
99999.781
99999.825
99999.872
99999.92
99999.968
100000.02
100000.06
100000.11
100000.16
100000.2
100000.25
100000.29
100000.33
100000.37
100000.41
100000.45
100000.48
100000.52
100000.55
100000.58
100000.61
100000.64
100000.67
100000.7
100000.73
100000.75
100000.78
100000.8
100000.82
100000.85
100000.87
100000.89
100000.91
100000.94
100000.96
99999.887
99999.838
99999.789
99999.752
99999.725
99999.707
99999.696
99999.694
99999.699
99999.711
99999.729
99999.752
99999.78
99999.811
99999.846
99999.883
99999.923
99999.963
100000
100000.05
100000.09
100000.13
100000.17
100000.21
100000.25
100000.29
100000.33
100000.36
100000.4
100000.43
100000.47
100000.5
100000.53
100000.56
100000.59
100000.61
100000.64
100000.67
100000.69
100000.71
100000.74
100000.76
100000.78
100000.81
100000.83
100000.85
100000.87
100000.89
100000.91
99999.994
99999.948
99999.9
99999.864
99999.836
99999.816
99999.804
99999.798
99999.799
99999.805
99999.818
99999.835
99999.856
99999.881
99999.909
99999.94
99999.973
100000.01
100000.04
100000.08
100000.11
100000.15
100000.19
100000.22
100000.26
100000.29
100000.33
100000.36
100000.39
100000.42
100000.45
100000.48
100000.51
100000.53
100000.56
100000.59
100000.61
100000.63
100000.66
100000.68
100000.7
100000.72
100000.75
100000.77
100000.79
100000.81
100000.83
100000.85
100000.87
100000.09
100000.05
100000
99999.968
99999.94
99999.918
99999.903
99999.894
99999.891
99999.894
99999.901
99999.913
99999.929
99999.948
99999.97
99999.995
100000.02
100000.05
100000.08
100000.11
100000.14
100000.17
100000.2
100000.23
100000.27
100000.3
100000.33
100000.35
100000.38
100000.41
100000.44
100000.46
100000.49
100000.51
100000.54
100000.56
100000.58
100000.61
100000.63
100000.65
100000.67
100000.69
100000.71
100000.73
100000.75
100000.77
100000.79
100000.81
100000.83
100000.19
100000.14
100000.1
100000.06
100000.04
100000.01
99999.995
99999.984
99999.977
99999.976
99999.979
99999.987
99999.998
100000.01
100000.03
100000.05
100000.07
100000.09
100000.12
100000.14
100000.17
100000.2
100000.22
100000.25
100000.28
100000.3
100000.33
100000.35
100000.38
100000.4
100000.43
100000.45
100000.47
100000.5
100000.52
100000.54
100000.56
100000.58
100000.6
100000.62
100000.64
100000.66
100000.68
100000.69
100000.71
100000.73
100000.75
100000.77
100000.78
100000.27
100000.23
100000.19
100000.15
100000.12
100000.1
100000.08
100000.07
100000.06
100000.05
100000.05
100000.06
100000.06
100000.07
100000.09
100000.1
100000.12
100000.14
100000.16
100000.18
100000.2
100000.22
100000.24
100000.27
100000.29
100000.31
100000.33
100000.36
100000.38
100000.4
100000.42
100000.44
100000.46
100000.48
100000.5
100000.52
100000.54
100000.56
100000.57
100000.59
100000.61
100000.63
100000.64
100000.66
100000.68
100000.7
100000.71
100000.73
100000.75
100000.35
100000.31
100000.27
100000.23
100000.2
100000.18
100000.16
100000.14
100000.13
100000.12
100000.12
100000.12
100000.12
100000.13
100000.14
100000.15
100000.16
100000.18
100000.19
100000.21
100000.23
100000.25
100000.26
100000.28
100000.3
100000.32
100000.34
100000.36
100000.38
100000.4
100000.42
100000.43
100000.45
100000.47
100000.49
100000.5
100000.52
100000.53
100000.55
100000.57
100000.58
100000.6
100000.61
100000.63
100000.65
100000.66
100000.68
100000.69
100000.71
100000.43
100000.39
100000.35
100000.31
100000.28
100000.25
100000.23
100000.21
100000.2
100000.19
100000.18
100000.18
100000.18
100000.19
100000.19
100000.2
100000.21
100000.22
100000.23
100000.24
100000.26
100000.27
100000.29
100000.3
100000.32
100000.33
100000.35
100000.37
100000.38
100000.4
100000.41
100000.43
100000.44
100000.46
100000.47
100000.49
100000.5
100000.52
100000.53
100000.55
100000.56
100000.57
100000.59
100000.6
100000.62
100000.63
100000.65
100000.66
100000.67
100000.5
100000.46
100000.41
100000.37
100000.34
100000.32
100000.29
100000.27
100000.26
100000.25
100000.24
100000.24
100000.24
100000.24
100000.24
100000.24
100000.25
100000.26
100000.27
100000.28
100000.29
100000.3
100000.31
100000.32
100000.34
100000.35
100000.36
100000.38
100000.39
100000.4
100000.41
100000.43
100000.44
100000.45
100000.46
100000.48
100000.49
100000.5
100000.51
100000.53
100000.54
100000.55
100000.56
100000.58
100000.59
100000.6
100000.62
100000.63
100000.64
100000.56
100000.52
100000.47
100000.43
100000.4
100000.37
100000.35
100000.33
100000.31
100000.3
100000.29