/*--------------------------------*- C++ -*----------------------------------*\
| =========                 |                                                 |
| \\      /  F ield         | OpenFOAM: The Open Source CFD Toolbox           |
|  \\    /   O peration     | Version:  2312                                  |
|   \\  /    A nd           | Website:  www.openfoam.com                      |
|    \\/     M anipulation  |                                                 |
\*---------------------------------------------------------------------------*/
FoamFile
{
    version     2.0;
    format      ascii;
    arch        "LSB;label=32;scalar=64";
    class       surfaceScalarField;
    location    "0.05";
    object      phi;
}
// * * * * * * * * * * * * * * * * * * * * * * * * * * * * * * * * * * * * * //

dimensions      [1 0 -1 0 0 0 0];

oriented        oriented;

internalField   nonuniform List<scalar> 
6433
(
8.3110599e-07
3.3341062e-08
7.5671295e-07
7.4395761e-08
6.7569772e-07
8.102009e-08
6.0221278e-07
7.3491545e-08
5.4121938e-07
6.1001471e-08
4.9195171e-07
4.927695e-08
4.52105e-07
3.9857013e-08
4.1967393e-07
3.2442283e-08
3.930017e-07
2.6684233e-08
3.7082258e-07
2.2191847e-08
3.5203888e-07
1.8797057e-08
3.3606226e-07
1.5990501e-08
3.2241627e-07
1.3659521e-08
3.1056027e-07
1.1869671e-08
3.0014859e-07
1.0425349e-08
2.9090885e-07
9.2532873e-09
2.8263252e-07
8.2896241e-09
2.7516078e-07
7.4846691e-09
2.6836995e-07
6.8032605e-09
2.6216121e-07
6.2205635e-09
2.5645356e-07
5.7187507e-09
2.5117981e-07
5.2840029e-09
2.4628408e-07
4.9050401e-09
2.4171924e-07
4.5731249e-09
2.374452e-07
4.2812077e-09
2.3342766e-07
4.0235213e-09
2.2963708e-07
3.795312e-09
2.2604787e-07
3.5926296e-09
2.2263775e-07
3.412171e-09
2.1938725e-07
3.251153e-09
2.1627923e-07
3.1072182e-09
2.1329859e-07
2.9783549e-09
2.1043195e-07
2.8628382e-09
2.0766742e-07
2.7591786e-09
2.049944e-07
2.6660848e-09
2.0240342e-07
2.5824305e-09
1.9988598e-07
2.5072283e-09
1.9743446e-07
2.439609e-09
1.9504199e-07
2.378804e-09
1.927024e-07
2.3241308e-09
1.904101e-07
2.2749812e-09
1.8816005e-07
2.230808e-09
1.8594769e-07
2.1911368e-09
1.8376895e-07
2.1555009e-09
1.8162008e-07
2.1234555e-09
1.794977e-07
2.0947343e-09
1.7739879e-07
2.0690381e-09
1.7532058e-07
2.0460261e-09
1.7326058e-07
2.0254606e-09
1.7121655e-07
2.0071217e-09
1.6918642e-07
1.9907777e-09
1.9762658e-09
8.2167456e-07
7.6106476e-08
7.3988828e-07
1.5618043e-07
6.5899714e-07
1.619095e-07
5.89087e-07
1.4339977e-07
5.3170734e-07
1.1837896e-07
4.8514834e-07
9.5833486e-08
4.4720394e-07
7.7798605e-08
4.1608033e-07
6.356269e-08
3.9031509e-07
5.2445831e-08
3.6877134e-07
4.3731524e-08
3.5044377e-07
3.7120099e-08
3.3479764e-07
3.1631736e-08
3.2139532e-07
2.7055701e-08
3.0972144e-07
2.3536678e-08
2.9944921e-07
2.0689922e-08
2.9031847e-07
1.837552e-08
2.8212878e-07
1.6469845e-08
2.7472691e-07
1.4876017e-08
2.6799311e-07
1.3525348e-08
2.618314e-07
1.236923e-08
2.561629e-07
1.1372725e-08
2.5092205e-07
1.0508705e-08
2.4605418e-07
9.7549807e-09
2.4151309e-07
9.0943457e-09
2.3725944e-07
8.5128997e-09
2.3325952e-07
7.9992582e-09
2.2948426e-07
7.5440279e-09
2.2590843e-07
7.1393966e-09
2.2251007e-07
6.7788272e-09
2.1926994e-07
6.4568079e-09
2.1617112e-07
6.1686675e-09
2.1319867e-07
5.9104179e-09
2.1033934e-07
5.6786388e-09
2.0758138e-07
5.4703765e-09
2.0491427e-07
5.2830694e-09
2.0232862e-07
5.114484e-09
1.9981602e-07
4.9626618e-09
1.973689e-07
4.8258793e-09
1.9498044e-07
4.7026131e-09
1.9264452e-07
4.5915115e-09
1.9035558e-07
4.4913704e-09
1.8810862e-07
4.4011102e-09
1.8589912e-07
4.3197687e-09
1.8372301e-07
4.2464454e-09
1.8157656e-07
4.1803316e-09
1.7945643e-07
4.1207947e-09
1.7735961e-07
4.0672065e-09
1.7528335e-07
4.0189498e-09
1.7322518e-07
3.9755161e-09
1.7118286e-07
3.9364506e-09
1.6915435e-07
3.9013141e-09
3.8697175e-09
7.9812498e-07
1.4247896e-07
7.0257052e-07
2.5173324e-07
6.2516538e-07
2.3931289e-07
5.6352456e-07
2.0503865e-07
5.1337014e-07
1.6853119e-07
4.7196527e-07
1.3723588e-07
4.3766123e-07
1.1209982e-07
4.0906743e-07
9.2153264e-08
3.8505452e-07
7.6455089e-08
3.6474141e-07
6.4040536e-08
3.4730174e-07
5.4555219e-08
3.3230036e-07
4.6628207e-08
3.1937451e-07
3.9975387e-08
3.0805876e-07
3.4845526e-08
2.9806131e-07
3.0679692e-08
2.891457e-07
2.7282584e-08
2.8112729e-07
2.4478761e-08
2.7386371e-07
2.2129041e-08
2.672429e-07
2.0134413e-08
2.6117446e-07
1.8424587e-08
2.555837e-07
1.6948936e-08
2.5040818e-07
1.5668037e-08
2.4559566e-07
1.4549538e-08
2.4110179e-07
1.3568306e-08
2.3688871e-07
1.2703994e-08
2.3292386e-07
1.1939902e-08
2.2917907e-07
1.1262233e-08
2.2562989e-07
1.0659492e-08
2.2225493e-07
1.0122049e-08
2.1903546e-07
9.6417747e-09
2.1595496e-07
9.2117711e-09
2.1299881e-07
8.8261436e-09
2.1015407e-07
8.479833e-09
2.0740918e-07
8.1684662e-09
2.0475384e-07
7.8882488e-09
2.0217883e-07
7.6358698e-09
1.9967587e-07
7.4084249e-09
1.9723751e-07
7.2033564e-09
1.9485704e-07
7.0184034e-09
1.9252841e-07
6.8515589e-09
1.9024617e-07
6.7010348e-09
1.8800536e-07
6.5652283e-09
1.8580153e-07
6.4427016e-09
1.8363064e-07
6.3321329e-09
1.8148902e-07
6.2323454e-09
1.7937338e-07
6.1423444e-09
1.7728071e-07
6.0611818e-09
1.7520833e-07
5.9879636e-09
1.7315379e-07
5.921916e-09
1.7111487e-07
5.8623486e-09
1.6908957e-07
5.8086144e-09
5.7601198e-09
7.4355354e-07
2.6352215e-07
6.3786616e-07
3.5741889e-07
5.7369606e-07
3.0348119e-07
5.2690338e-07
2.5182935e-07
4.8743446e-07
2.0799787e-07
4.5314819e-07
1.7151966e-07
4.2398318e-07
1.4126197e-07
3.9895684e-07
1.1717636e-07
3.7742267e-07
9.7985565e-08
3.588633e-07
8.2595759e-08
3.4270019e-07
7.0713753e-08
3.2862915e-07
6.0694318e-08
3.1639284e-07
5.2205494e-08
3.0560018e-07
4.5631247e-08
2.9600528e-07
4.0266863e-08
2.8740572e-07
3.5873554e-08
2.7963952e-07
3.2235421e-08
2.7257998e-07
2.917797e-08
2.6612616e-07
2.6576433e-08
2.6019579e-07
2.4341834e-08
2.5472022e-07
2.2409899e-08
2.4964163e-07
2.0730382e-08
2.449113e-07
1.9261846e-08
2.4048763e-07
1.7972022e-08
2.3633489e-07
1.68347e-08
2.3242221e-07
1.5828314e-08
2.2872282e-07
1.4934999e-08
2.2521333e-07
1.4139846e-08
2.2187326e-07
1.3430337e-08
2.186846e-07
1.2795888e-08
2.1563141e-07
1.2227504e-08
2.126996e-07
1.1717487e-08
2.0987661e-07
1.1259221e-08
2.0715124e-07
1.0846981e-08
2.0451349e-07
1.0475795e-08
2.0195436e-07
1.0141318e-08
1.9946579e-07
9.8397368e-09
1.9704052e-07
9.5676907e-09
1.9467198e-07
9.322206e-09
1.9235426e-07
9.1006417e-09
1.9008201e-07
8.9006432e-09
1.878504e-07
8.7200998e-09
1.8565503e-07
8.5571134e-09
1.8349195e-07
8.4099538e-09
1.8135756e-07
8.2770783e-09
1.7924861e-07
8.1571391e-09
1.7716217e-07
8.0488764e-09
1.7509559e-07
7.9511226e-09
1.7304646e-07
7.8628442e-09
1.7101262e-07
7.783117e-09
1.689921e-07
7.7110892e-09
7.6459755e-09
6.1165647e-07
5.1582621e-07
5.3892132e-07
4.3015219e-07
5.080221e-07
3.3437852e-07
4.8145842e-07
2.78391e-07
4.5561712e-07
2.3383688e-07
4.3037786e-07
1.9675637e-07
4.069838e-07
1.6465316e-07
3.8619756e-07
1.3795931e-07
3.6770436e-07
1.1647502e-07
3.5132291e-07
9.8973023e-08
3.3676479e-07
8.5267246e-08
3.2386857e-07
7.358558e-08
3.1250793e-07
6.3559884e-08
3.0238679e-07
5.5745406e-08
2.933112e-07
4.9334666e-08
2.8512095e-07
4.4055148e-08
2.7768246e-07
3.9664299e-08
2.7088879e-07
3.5960968e-08
2.6465308e-07
3.280028e-08
2.5890339e-07
3.0078333e-08
2.5357884e-07
2.7719767e-08
2.4862754e-07
2.5665374e-08
2.4400528e-07
2.386601e-08
2.3967401e-07
2.2283268e-08
2.3560077e-07
2.0885829e-08
2.3175692e-07
1.964783e-08
2.2811744e-07
1.8547782e-08
2.2466039e-07
1.7567698e-08
2.2136643e-07
1.6692445e-08
2.1821851e-07
1.5909191e-08
2.1520148e-07
1.5207015e-08
2.1230188e-07
1.4576547e-08
2.095077e-07
1.4009725e-08
2.068082e-07
1.3499558e-08
2.0419374e-07
1.3039966e-08
2.0165567e-07
1.2625632e-08
1.9918619e-07
1.2251881e-08
1.9677827e-07
1.1914588e-08
1.9442557e-07
1.16101e-08
1.9212232e-07
1.133517e-08
1.8986335e-07
1.1086901e-08
1.8764393e-07
1.0862694e-08
1.854598e-07
1.0660209e-08
1.8330709e-07
1.0477323e-08
1.8118229e-07
1.0312134e-08
1.7908224e-07
1.0162954e-08
1.7700406e-07
1.002822e-08
1.7494518e-07
9.9064965e-09
1.7290325e-07
9.7964969e-09
1.7087614e-07
9.6970677e-09
1.6886195e-07
9.6071558e-09
9.5257937e-09
3.0080843e-07
3.048731e-07
3.773194e-07
3.5363941e-07
3.8913395e-07
3.2256221e-07
3.8466486e-07
2.8285822e-07
3.7331045e-07
2.4518923e-07
3.59295e-07
2.1076953e-07
3.4425057e-07
1.7969499e-07
3.2957745e-07
1.5262953e-07
3.1601754e-07
1.3003156e-07
3.0358485e-07
1.1140195e-07
2.9224765e-07
9.6600301e-08
2.8197063e-07
8.3858171e-08
2.727714e-07
7.2753545e-08
2.6447603e-07
6.4034541e-08
2.5695912e-07
5.6844615e-08
2.5011851e-07
5.0888037e-08
2.4386294e-07
4.5911291e-08
2.3811683e-07
4.1697558e-08
2.3281708e-07
3.8089462e-08
2.2791012e-07
3.4973536e-08
2.2334976e-07
3.2267056e-08
2.190959e-07
2.9904714e-08
2.1511393e-07
2.7831882e-08
2.113737e-07
2.6005691e-08
2.0784882e-07
2.4391059e-08
2.0451616e-07
2.2958875e-08
2.0135535e-07
2.168488e-08
1.9834842e-07
2.0548707e-08
1.9547942e-07
1.9533173e-08
1.9273422e-07
1.8623673e-08
1.9010019e-07
1.7807744e-08
1.8756609e-07
1.7074675e-08
1.8512184e-07
1.6415231e-08
1.8275838e-07
1.5821389e-08
1.8046758e-07
1.5286162e-08
1.782421e-07
1.4803431e-08
1.7607532e-07
1.4367807e-08
1.7396127e-07
1.3974528e-08
1.7189451e-07
1.3619376e-08
1.6987016e-07
1.3298594e-08
1.6788376e-07
1.300883e-08
1.6593127e-07
1.2747072e-08
1.6400903e-07
1.2510609e-08
1.6211372e-07
1.2296982e-08
1.6024232e-07
1.2103984e-08
1.5839211e-07
1.1929634e-08
1.5656062e-07
1.1772114e-08
1.5474562e-07
1.1629754e-08
1.529451e-07
1.1501053e-08
1.5115723e-07
1.1384658e-08
1.4938037e-07
1.1279345e-08
1.1183991e-08
2.0646221e-07
1.9083756e-07
3.0508609e-07
2.5501352e-07
3.4260866e-07
2.8503776e-07
3.5430012e-07
2.7116479e-07
3.5349404e-07
2.4599314e-07
3.4663174e-07
2.1762941e-07
3.3671332e-07
1.8961068e-07
3.2551933e-07
1.6382051e-07
3.1438754e-07
1.4115982e-07
3.0376789e-07
1.2201767e-07
2.9377881e-07
1.0658506e-07
2.8445896e-07
9.3173409e-08
2.7591956e-07
8.1287229e-08
2.6812493e-07
7.1822698e-08
2.609721e-07
6.3990222e-08
2.5439776e-07
5.7454361e-08
2.4833709e-07
5.1963075e-08
2.4273273e-07
4.7292061e-08
2.375346e-07
4.3276641e-08
2.3269865e-07
3.979732e-08
2.2818577e-07
3.6766421e-08
2.2396118e-07
3.4114304e-08
2.1999427e-07
3.1782163e-08
2.1625796e-07
2.9723612e-08
2.1272824e-07
2.7900503e-08
2.093838e-07
2.6281013e-08
2.0620572e-07
2.4838515e-08
2.0317713e-07
2.3550573e-08
2.0028297e-07
2.2398197e-08
1.975098e-07
2.1365191e-08
1.9484554e-07
2.0437701e-08
1.9227938e-07
1.9603785e-08
1.8980157e-07
1.8853127e-08
1.8740334e-07
1.8176743e-08
1.8507678e-07
1.7566793e-08
1.8281471e-07
1.7016403e-08
1.8061066e-07
1.6519503e-08
1.7845875e-07
1.6070726e-08
1.7635365e-07
1.5665308e-08
1.7429053e-07
1.5299003e-08
1.7226499e-07
1.4968016e-08
1.7027302e-07
1.4668937e-08
1.6831101e-07
1.4398691e-08
1.6637566e-07
1.4154492e-08
1.6446396e-07
1.393383e-08
1.625732e-07
1.373444e-08
1.6070094e-07
1.3554248e-08
1.5884496e-07
1.3391355e-08
1.5700325e-07
1.3244043e-08
1.5517399e-07
1.3110763e-08
1.5335555e-07
1.2990119e-08
1.2880837e-08
1.6959298e-07
1.1629868e-07
2.5340196e-07
1.7120222e-07
3.0070165e-07
2.3773603e-07
3.2365699e-07
2.4820735e-07
3.3198514e-07
2.3766269e-07
3.3192493e-07
2.1768708e-07
3.2715547e-07
1.9437726e-07
3.198288e-07
1.7114398e-07
3.113779e-07
1.496071e-07
3.0272396e-07
1.3066749e-07
2.9430762e-07
1.1499687e-07
2.8614796e-07
1.0132816e-07
2.7838938e-07
8.9040042e-08
2.7121126e-07
7.8994085e-08
2.6452163e-07
7.0672344e-08
2.5829523e-07
6.367243e-08
2.5249705e-07
5.7752034e-08
2.4709077e-07
5.2688111e-08
2.4204149e-07
4.8314577e-08
2.3731631e-07
4.4509899e-08
2.3288455e-07
4.1184188e-08
2.2871782e-07
3.8265509e-08
2.247904e-07
3.569239e-08
2.2107897e-07
3.3416043e-08
2.1756244e-07
3.1396088e-08
2.1422182e-07
2.9598617e-08
2.1103999e-07
2.7995126e-08
2.0800151e-07
2.6561488e-08
2.0509247e-07
2.5277203e-08
2.0230032e-07
2.4124711e-08
1.9961371e-07
2.3088952e-08
1.9702242e-07
2.2156895e-08
1.9451716e-07
2.1317256e-08
1.9208956e-07
2.0560178e-08
1.8973198e-07
1.9877046e-08
1.8743753e-07
1.9260284e-08
1.8519992e-07
1.8703191e-08
1.8301344e-07
1.8199829e-08
1.8087291e-07
1.7744921e-08
1.7877358e-07
1.7333756e-08
1.7671116e-07
1.6962118e-08
1.7468172e-07
1.6626214e-08
1.7268169e-07
1.632262e-08
1.7070782e-07
1.6048232e-08
1.6875716e-07
1.5800246e-08
1.6682702e-07
1.5576121e-08
1.6491499e-07
1.5373531e-08
1.6301887e-07
1.519035e-08
1.6113668e-07
1.5024651e-08
1.5926663e-07
1.4874688e-08
1.5740709e-07
1.4738895e-08
1.4615853e-08
1.4996867e-07
6.4031833e-08
2.1562747e-07
1.0554077e-07
2.6428128e-07
1.8907998e-07
2.9414363e-07
2.1834274e-07
3.0971611e-07
2.2208775e-07
3.1586178e-07
2.1153869e-07
3.160181e-07
1.9421791e-07
3.1258913e-07
1.7456956e-07
3.0708347e-07
1.5510894e-07
3.0056296e-07
1.3718373e-07
2.9382325e-07
1.2173183e-07
2.8697494e-07
1.0817129e-07
2.8016364e-07
9.5845538e-08
2.7369926e-07
8.5451392e-08
2.675714e-07
7.6792373e-08
2.617753e-07
6.945986e-08
2.5630865e-07
6.3209099e-08
2.5115878e-07
5.782737e-08
2.4630777e-07
5.3153805e-08
2.4173539e-07
4.9069211e-08
2.3742062e-07
4.5484458e-08
2.3334248e-07
4.2327569e-08
2.2948096e-07
3.9536118e-08
2.2581718e-07
3.7060166e-08
2.2233357e-07
3.4858054e-08
2.1901389e-07
3.2894521e-08
2.1584323e-07
3.1139749e-08
2.1280791e-07
2.9568367e-08
2.0989541e-07
2.8158714e-08
2.0709432e-07
2.6892144e-08
2.0439422e-07
2.5752604e-08
2.0178559e-07
2.4726148e-08
1.9925979e-07
2.3800661e-08
1.9680891e-07
2.2965528e-08
1.9442574e-07
2.2211441e-08
1.9210371e-07
2.1530202e-08
1.8983681e-07
2.0914533e-08
1.8761956e-07
2.0357974e-08
1.8544695e-07
1.9854771e-08
1.8331442e-07
1.9399783e-08
1.8121778e-07
1.8988399e-08
1.7915322e-07
1.8616464e-08
1.7711725e-07
1.8280224e-08
1.7510671e-07
1.7976272e-08
1.731187e-07
1.7701518e-08
1.711506e-07
1.7453158e-08
1.6920004e-07
1.7228621e-08
1.6726486e-07
1.7025562e-08
1.6534311e-07
1.6841844e-08
1.6343306e-07
1.6675534e-08
1.6153309e-07
1.6524898e-08
1.6388372e-08
1.3688159e-07
2.7557781e-08
1.8719258e-07
5.5226705e-08
2.334504e-07
1.4281968e-07
2.6679668e-07
1.8499401e-07
2.8765109e-07
2.0123069e-07
2.9904062e-07
2.0014624e-07
3.0376116e-07
1.8949413e-07
3.0405356e-07
1.7427356e-07
3.0156327e-07
1.575952e-07
2.9736367e-07
1.4137884e-07
2.9236158e-07
1.2672895e-07
2.8694562e-07
1.1358183e-07
2.8122129e-07
1.0156394e-07
2.7556539e-07
9.1099904e-08
2.7009183e-07
8.2257764e-08
2.6480631e-07
7.4736337e-08
2.5974022e-07
6.8265216e-08
2.5490597e-07
6.2650576e-08
2.5030415e-07
5.7743389e-08
2.4592834e-07
5.3431443e-08
2.4176828e-07
4.9629474e-08
2.3781131e-07
4.626787e-08
2.340439e-07
4.3285096e-08
2.3045227e-07
4.0631446e-08
2.270229e-07
3.8265036e-08
2.2374278e-07
3.6150062e-08
2.2059959e-07
3.4256036e-08
2.1758174e-07
3.255685e-08
2.1467838e-07
3.1030087e-08
2.1187947e-07
2.9656326e-08
2.0917568e-07
2.8418779e-08
2.0655843e-07
2.7302784e-08
2.0401981e-07
2.6295563e-08
2.0155252e-07
2.5385866e-08
1.9914987e-07
2.4563808e-08
1.9680569e-07
2.3820649e-08
1.9451435e-07
2.3148607e-08
1.9227065e-07
2.2540756e-08
1.9006984e-07
2.1990917e-08
1.8790754e-07
2.1493555e-08
1.8577976e-07
2.1043698e-08
1.8368282e-07
2.0636857e-08
1.8161337e-07
2.0268969e-08
1.7956833e-07
1.9936343e-08
1.775449e-07
1.9635621e-08
1.7554054e-07
1.9363744e-08
1.7355294e-07
1.9117911e-08
1.7158001e-07
1.8895562e-08
1.6961987e-07
1.869436e-08
1.6767081e-07
1.8512189e-08
1.6573126e-07
1.834715e-08
1.8197545e-08
1.2824858e-07
2.4977235e-09
1.6602891e-07
1.744283e-08
2.079802e-07
1.0086562e-07
2.4224748e-07
1.5072405e-07
2.6653924e-07
1.7693607e-07
2.8206017e-07
1.8462218e-07
2.9077874e-07
1.8077209e-07
2.9456293e-07
1.7048552e-07
2.9496224e-07
1.5719163e-07
2.9315892e-07
1.4317743e-07
2.9000135e-07
1.298813e-07
2.8605505e-07
1.1752245e-07
2.8156331e-07
1.0604931e-07
2.7681611e-07
9.5839665e-08
2.7206023e-07
8.7005101e-08
2.6736148e-07
7.9425634e-08
2.6276339e-07
7.2852908e-08
2.5830373e-07
6.709873e-08
2.5400259e-07
6.2031798e-08
2.4986826e-07
5.7551673e-08
2.4590201e-07
5.3580098e-08
2.421003e-07
5.0052278e-08
2.3845676e-07
4.6909515e-08
2.3496331e-07
4.4103808e-08
2.3161098e-07
4.1594177e-08
2.2839046e-07
3.9345161e-08
2.2529238e-07
3.7326306e-08
2.2230755e-07
3.5511331e-08
2.1942709e-07
3.3877515e-08
2.1664254e-07
3.2405017e-08
2.1394589e-07
3.1076604e-08
2.1132963e-07
2.9877126e-08
2.0878674e-07
2.8793333e-08
2.0631068e-07
2.7813488e-08
2.0389537e-07
2.6927252e-08
2.0153516e-07
2.612545e-08
1.9922484e-07
2.5399877e-08
1.9695958e-07
2.4743208e-08
1.9473494e-07
2.4148895e-08
1.925468e-07
2.361106e-08
1.903914e-07
2.3124406e-08
1.8826524e-07
2.2684146e-08
1.8616512e-07
2.2285937e-08
1.840881e-07
2.1925823e-08
1.8203151e-07
2.1600197e-08
1.799929e-07
2.1305764e-08
1.7797005e-07
2.1039503e-08
1.7596096e-07
2.0798653e-08
1.7396381e-07
2.0580685e-08
1.7197697e-07
2.0383304e-08
1.6999893e-07
2.0204453e-08
2.0042303e-08
1.2290974e-07
-1.4364385e-08
1.5073778e-07
-1.0389279e-08
1.8744804e-07
6.4152248e-08
2.2080188e-07
1.1736724e-07
2.4691471e-07
1.5082011e-07
2.6544974e-07
1.6608375e-07
2.7746849e-07
1.6874961e-07
2.8439148e-07
1.6355841e-07
2.8753462e-07
1.5404396e-07
2.8804058e-07
1.4266648e-07
2.8679823e-07
1.3111814e-07
2.8437296e-07
1.1994179e-07
2.8115789e-07
1.092576e-07
2.7744108e-07
9.9548706e-08
2.7346953e-07
9.0967897e-08
2.6942019e-07
8.3465072e-08
2.6535391e-07
7.6908333e-08
2.613263e-07
7.1114355e-08
2.5737697e-07
6.5967866e-08
2.5352935e-07
6.1384604e-08
2.4979684e-07
5.7296363e-08
2.4618558e-07
5.364556e-08
2.4269693e-07
5.0378317e-08
2.39329e-07
4.744986e-08
2.3607785e-07
4.4821298e-08
2.3293825e-07
4.2458439e-08
2.2990416e-07
4.0331622e-08
2.2696912e-07
3.8415006e-08
2.2412643e-07
3.6686065e-08
2.2136949e-07
3.5124918e-08
2.1869178e-07
3.3714217e-08
2.1608705e-07
3.2438574e-08
2.1354932e-07
3.1284484e-08
2.1107292e-07
3.023989e-08
2.086525e-07
2.929414e-08
2.0628304e-07
2.8437747e-08
2.0395982e-07
2.7662171e-08
2.0167848e-07
2.6959771e-08
1.9943493e-07
2.6323694e-08
1.972254e-07
2.5747774e-08
1.9504636e-07
2.5226442e-08
1.9289456e-07
2.4754647e-08
1.9076699e-07
2.4327799e-08
1.886609e-07
2.3941706e-08
1.8657375e-07
2.3592534e-08
1.8450321e-07
2.3276772e-08
1.824472e-07
2.2991193e-08
1.8040381e-07
2.2732852e-08
1.7837132e-07
2.2499034e-08
1.7634817e-07
2.2287279e-08
1.7433293e-07
2.2095371e-08
2.1921359e-08
1.1991693e-07
-2.5295509e-08
1.4005692e-07
-3.0533906e-08
1.7128804e-07
3.2917601e-08
2.0251836e-07
8.6133612e-08
2.2912732e-07
1.2420772e-07
2.4962067e-07
1.455867e-07
2.64214e-07
1.5415225e-07
2.7381307e-07
1.5395493e-07
2.7947011e-07
1.4838208e-07
2.8217293e-07
1.3995836e-07
2.8281035e-07
1.304749e-07
2.8197382e-07
1.2077198e-07
2.8004702e-07
1.1117734e-07
2.7741506e-07
1.0217251e-07
2.7432453e-07
9.4049272e-08
2.7096949e-07
8.6809837e-08
2.6749254e-07
8.0373966e-08
2.6395138e-07
7.4642996e-08
2.6040359e-07
6.950181e-08
2.5688752e-07
6.4885376e-08
2.5342885e-07
6.0738116e-08
2.5004384e-07
5.7011875e-08
2.4674196e-07
5.3659565e-08
2.4352793e-07
5.0641176e-08
2.4040319e-07
4.7921102e-08
2.3736698e-07
4.546737e-08
2.3441692e-07
4.3251906e-08
2.3154951e-07
4.1249957e-08
2.2876056e-07
3.9439725e-08
2.2604548e-07
3.7801705e-08
2.2339948e-07
3.6318784e-08
2.2081773e-07
3.4975615e-08
2.1829543e-07
3.3758673e-08
2.1582792e-07
3.2655765e-08
2.1341071e-07
3.1656089e-08
2.1103947e-07
3.0749979e-08
2.087101e-07
2.9928665e-08
2.0641875e-07
2.9184277e-08
2.0416179e-07
2.8509734e-08
2.019358e-07
2.789865e-08
1.997376e-07
2.7345232e-08
1.9756421e-07
2.6844216e-08
1.9541285e-07
2.63908e-08
1.9328098e-07
2.5980589e-08
1.9116623e-07
2.5609546e-08
1.8906645e-07
2.527397e-08
1.8697968e-07
2.4970449e-08
1.8490415e-07
2.4695866e-08
1.8283825e-07
2.4447337e-08
1.8078052e-07
2.4222245e-08
1.7872964e-07
2.4018217e-08
2.3833187e-08
1.1865286e-07
-3.1943451e-08
1.3293179e-07
-4.4818067e-08
1.5888781e-07
6.9575901e-09
1.8728326e-07
5.7734465e-08
2.1336723e-07
9.8119958e-08
2.3488147e-07
1.2406842e-07
2.5133158e-07
1.3769776e-07
2.6311294e-07
1.4216883e-07
2.7097061e-07
1.4051924e-07
2.7572131e-07
1.3520199e-07
2.7815252e-07
1.280375e-07
2.7887746e-07
1.2004029e-07
2.7829197e-07
1.1175533e-07
2.7675795e-07
1.0369813e-07
2.7460234e-07
9.6195292e-08
2.7201895e-07
8.9382514e-08
2.6916487e-07
8.3216215e-08
2.6616082e-07
7.7633948e-08
2.630619e-07
7.2586276e-08
2.5992087e-07
6.8010442e-08
2.5677564e-07
6.3865724e-08
2.5365271e-07
6.0115335e-08
2.5056992e-07
5.6720891e-08
2.4753883e-07
5.3648644e-08
2.445666e-07
5.0867445e-08
2.4165719e-07
4.8348485e-08
2.3881216e-07
4.6066088e-08
2.3603126e-07
4.3997263e-08
2.3331298e-07
4.2121498e-08
2.30655e-07
4.0420088e-08
2.280544e-07
3.8876543e-08
2.2550796e-07
3.7475845e-08
2.230122e-07
3.6204713e-08
2.2056362e-07
3.5051011e-08
2.1815866e-07
3.4003964e-08
2.1579382e-07
3.3053881e-08
2.134657e-07
3.2191872e-08
2.1117104e-07
3.1409936e-08
2.0890673e-07
3.0700855e-08
2.0666979e-07
3.0058092e-08
2.044574e-07
2.9475693e-08
2.0226693e-07
2.894823e-08
2.0009588e-07
2.8470736e-08
1.9794193e-07
2.8038647e-08
1.9580294e-07
2.7647754e-08
1.9367696e-07
2.7294195e-08
1.9156218e-07
2.6974391e-08
1.8945698e-07
2.668508e-08
1.873599e-07
2.6423219e-08
1.8526961e-07
2.6186048e-08
1.8318489e-07
2.597104e-08
2.5776013e-08
1.187138e-07
-3.5550042e-08
1.2854221e-07
-5.4652311e-08
1.4966306e-07
-1.4167782e-08
1.7487868e-07
3.2514699e-08
1.9969763e-07
7.3296798e-08
2.2144294e-07
1.0231867e-07
2.3907789e-07
1.2005805e-07
2.5253842e-07
1.2870318e-07
2.6224964e-07
1.3080245e-07
2.6883282e-07
1.2861277e-07
2.7295204e-07
1.2391169e-07
2.751693e-07
1.1781582e-07
2.7590859e-07
1.1100808e-07
2.7551923e-07
1.0407861e-07
2.7431098e-07
9.7393656e-08
2.7254693e-07
9.113537e-08
2.7038052e-07
8.5370219e-08
2.6794144e-07
8.0059316e-08
2.6533502e-07
7.5177576e-08
2.6261027e-07
7.0718516e-08
2.5981679e-07
6.6640823e-08
2.5699121e-07
6.2920629e-08
2.5415975e-07
5.9529992e-08
2.5134095e-07
5.644286e-08
2.4854783e-07
5.3633644e-08
2.4578934e-07
5.1077613e-08
2.4307115e-07
4.8752296e-08
2.4039649e-07
4.6637141e-08
2.3776669e-07
4.4713501e-08
2.3518191e-07
4.2963895e-08
2.3264128e-07
4.1372864e-08
2.3014332e-07
3.9926017e-08
2.2768603e-07
3.8610605e-08
2.2526716e-07
3.7414746e-08
2.2288425e-07
3.6327888e-08
2.2053469e-07
3.5340483e-08
2.1821588e-07
3.444364e-08
2.1592523e-07
3.3629334e-08
2.1366022e-07
3.2890304e-08
2.1141837e-07
3.2219947e-08
2.0919731e-07
3.1612216e-08
2.0699476e-07
3.1061576e-08
2.0480857e-07
3.056294e-08
2.0263668e-07
3.0111621e-08
2.0047722e-07
2.9703269e-08
1.9832844e-07
2.9333895e-08
1.9618875e-07
2.8999778e-08
1.940567e-07
2.8697535e-08
1.9193099e-07
2.8423982e-08
1.8981043e-07
2.8176231e-08
1.8769395e-07
2.7951603e-08
2.7747806e-08
1.1979818e-07
-3.7053246e-08
1.2625543e-07
-6.1116017e-08
1.430882e-07
-3.1005636e-08
1.6503368e-07
1.0564569e-08
1.8808811e-07
5.0237691e-08
2.0943e-07
8.0971881e-08
2.2764935e-07
1.0183351e-07
2.4229927e-07
1.1404771e-07
2.5350182e-07
1.1959391e-07
2.6166658e-07
1.2044154e-07
2.6732076e-07
1.1825047e-07
2.7095278e-07
1.1417613e-07
2.7296216e-07
1.0899026e-07
2.7370955e-07
1.0332184e-07
2.7349077e-07
9.760203e-08
2.7255714e-07
9.2057457e-08
2.711195e-07
8.6794848e-08
2.6930047e-07
8.1863914e-08
2.6721043e-07
7.7251786e-08
2.6493988e-07
7.2971647e-08
2.6253439e-07
6.9027122e-08
2.6004018e-07
6.5393684e-08
2.5749167e-07
6.2055193e-08
2.5491433e-07
5.8994577e-08
2.5232712e-07
5.6192834e-08
2.4974407e-07
5.3630161e-08
2.4717511e-07
5.1288083e-08
2.4462707e-07
4.9149135e-08
2.4210432e-07
4.7197119e-08
2.3960962e-07
4.5416182e-08
2.3714429e-07
4.3792334e-08
2.3470876e-07
4.2312105e-08
2.3230262e-07
4.0963587e-08
2.2992501e-07
3.9735346e-08
2.2757466e-07
3.8617266e-08
2.2524995e-07
3.7600129e-08
2.2294915e-07
3.667516e-08
2.2067045e-07
3.5834427e-08
2.1841198e-07
3.5070733e-08
2.1617183e-07
3.43775e-08
2.1394813e-07
3.3748661e-08
2.1173901e-07
3.3178634e-08
2.0954269e-07
3.2662272e-08
2.0735745e-07
3.2194804e-08
2.0518169e-07
3.1771779e-08
2.0301392e-07
3.138912e-08
2.008528e-07
3.1042989e-08
1.9869706e-07
3.0729916e-08
1.965456e-07
3.0446589e-08
1.9439739e-07
3.0190022e-08
1.9225149e-07
2.9957379e-08
2.9746263e-08
1.2166559e-07
-3.7148294e-08
1.2558022e-07
-6.5037716e-08
1.3870314e-07
-4.4134236e-08
1.5745823e-07
-8.1957318e-09
1.7844405e-07
2.9246668e-08
1.9889666e-07
6.0513876e-08
2.1718537e-07
8.3539117e-08
2.3256788e-07
9.8659163e-08
2.4489793e-07
1.0725741e-07
2.543769e-07
1.1095563e-07
2.6138184e-07
1.11238e-07
2.6631599e-07
1.0923378e-07
2.6953697e-07
1.0576029e-07
2.7137993e-07
1.0146899e-07
2.721477e-07
9.6823287e-08
2.72082e-07
9.2111004e-08
2.713838e-07
8.7479615e-08
2.7022e-07
8.30125e-08
2.6869342e-07
7.8761761e-08
2.6689771e-07
7.474913e-08
2.649135e-07
7.0991293e-08
2.6278276e-07
6.7502373e-08
2.6054757e-07
6.4266041e-08
2.5824021e-07
6.1275208e-08
2.5588548e-07
5.8518365e-08
2.5350248e-07
5.5981439e-08
2.5110544e-07
5.3650687e-08
2.4870489e-07
5.1512321e-08
2.463083e-07
4.955317e-08
2.4392118e-07
4.7759372e-08
2.4154717e-07
4.611887e-08
2.3918871e-07
4.4619388e-08
2.368471e-07
4.32502e-08
2.3452299e-07
4.2000495e-08
2.3221638e-07
4.086082e-08
2.2992673e-07
3.9822502e-08
2.2765329e-07
3.8876986e-08
2.2539509e-07
3.801656e-08
2.2315099e-07
3.7234208e-08
2.2091971e-07
3.6523476e-08
2.1869992e-07
3.5878352e-08
2.1649025e-07
3.529328e-08
2.142893e-07
3.4763107e-08
2.1209574e-07
3.4283031e-08
2.099083e-07
3.3848536e-08
2.0772576e-07
3.3455505e-08
2.0554705e-07
3.3100009e-08
2.0337116e-07
3.2778532e-08
2.0119717e-07
3.248765e-08
1.9902423e-07
3.2224309e-08
1.9685158e-07
3.198552e-08
3.1768765e-08
1.2412594e-07
-3.6337898e-08
1.2613551e-07
-6.7054973e-08
1.3611185e-07
-5.4116885e-08
1.5186451e-07
-2.3954195e-08
1.7063037e-07
1.0475021e-08
1.8984146e-07
4.1296839e-08
2.077745e-07
6.5599858e-08
2.2347907e-07
8.2948033e-08
2.3658584e-07
9.4143671e-08
2.4710369e-07
1.0043032e-07
2.5525937e-07
1.0307428e-07
2.6135752e-07
1.0312689e-07
2.6570435e-07
1.0140392e-07
2.6859939e-07
9.8563444e-08
2.7032329e-07
9.5087816e-08
2.7112254e-07
9.1298966e-08
2.7119893e-07
8.7389057e-08
2.7070326e-07
8.3492322e-08
2.697672e-07
7.9680434e-08
2.684873e-07
7.6009928e-08
2.669427e-07
7.2514968e-08
2.6520479e-07
6.9217296e-08
2.6331141e-07
6.6133988e-08
2.6130135e-07
6.3257339e-08
2.5920502e-07
6.0584224e-08
2.5704644e-07
5.8107009e-08
2.5484404e-07
5.5817333e-08
2.5261204e-07
5.3705564e-08
2.5036107e-07
5.1762119e-08
2.4809951e-07
4.9975424e-08
2.4583335e-07
4.8335855e-08
2.435672e-07
4.683256e-08
2.4130409e-07
4.5456379e-08
2.3904632e-07
4.4197254e-08
2.3679527e-07
4.3046648e-08
2.3455152e-07
4.1996667e-08
2.3231539e-07
4.1039068e-08
2.3008683e-07
4.0166487e-08
2.278655e-07
3.9372221e-08
2.2565081e-07
3.8650046e-08
2.2344202e-07
3.7994088e-08
2.212383e-07
3.7398883e-08
2.1903871e-07
3.685934e-08
2.1684233e-07
3.6370677e-08
2.1464824e-07
3.5928352e-08
2.1245556e-07
3.5528265e-08
2.1026353e-07
3.5166425e-08
2.0807137e-07
3.4839312e-08
2.0587844e-07
3.4543403e-08
2.0368403e-07
3.4275635e-08
2.014876e-07
3.403285e-08
3.3812358e-08
1.2703366e-07
-3.4976704e-08
1.2762847e-07
-6.7658075e-08
1.3497869e-07
-6.1474069e-08
1.479799e-07
-3.6961853e-08
1.6448971e-07
-6.0411906e-09
1.8222198e-07
2.3558014e-08
1.9946223e-07
4.8352806e-08
2.1513214e-07
6.7270991e-08
2.2868898e-07
8.05793e-08
2.3997326e-07
8.913801e-08
2.4906928e-07
9.3969644e-08
2.5617923e-07
9.6007613e-08
2.6154536e-07
9.6027631e-08
2.6542673e-07
9.4670952e-08
2.6807577e-07
9.2426543e-08
2.6972268e-07
8.9638568e-08
2.70564e-07
8.6532822e-08
2.7076085e-07
8.3278897e-08
2.7043308e-07
7.9989969e-08
2.696932e-07
7.6729815e-08
2.6862437e-07
7.3561911e-08
2.672954e-07
7.052236e-08
2.6576955e-07
6.7633234e-08
2.6408244e-07
6.491524e-08
2.6226933e-07
6.2365466e-08
2.6035892e-07
5.9983052e-08
2.5837354e-07
5.7765557e-08
2.5633109e-07
5.57078e-08
2.5424533e-07
5.3804314e-08
2.5212755e-07
5.2046031e-08
2.4998616e-07
5.0426304e-08
2.4782798e-07
4.8935868e-08
2.4565786e-07
4.7567567e-08
2.4347982e-07
4.6312154e-08
2.4129669e-07
4.5162289e-08
2.3911024e-07
4.411113e-08
2.3692192e-07
4.3150795e-08
2.3473269e-07
4.2274407e-08
2.3254307e-07
4.1475718e-08
2.303532e-07
4.0748852e-08
2.2816302e-07
4.0088149e-08
2.2597226e-07
3.9488315e-08
2.237805e-07
3.8944385e-08
2.2158724e-07
3.8451656e-08
2.1939198e-07
3.8005595e-08
2.1719422e-07
3.7602194e-08
2.149935e-07
3.7237414e-08
2.1278937e-07
3.6907793e-08
2.1058145e-07
3.660971e-08
2.0836921e-07
3.6340167e-08
2.0615229e-07
3.6095845e-08
1.3028088e-07
-3.3308878e-08
1.2983731e-07
-6.7223414e-08
1.3502399e-07
-6.6668381e-08
1.4555467e-07
-4.7499647e-08
1.5985588e-07
-2.0349456e-08
1.7596741e-07
7.4392732e-09
1.9225919e-07
3.2053589e-08
2.0759444e-07
5.192799e-08
2.2130644e-07
6.6859158e-08
2.3309633e-07
7.7339487e-08
2.4291988e-07
8.4136865e-08
2.5087868e-07
8.803886e-08
2.5714541e-07
8.9750106e-08
2.6193012e-07
8.9874442e-08
2.6545295e-07
8.8890775e-08
2.6792161e-07
8.715566e-08
2.695177e-07
8.4921032e-08
2.7040005e-07
8.237918e-08
2.7069963e-07
7.9671268e-08
2.7051549e-07
7.6892972e-08
2.6994321e-07
7.4111331e-08
2.690559e-07
7.1384503e-08
2.6791278e-07
6.8748863e-08
2.665703e-07
6.6227152e-08
2.6506376e-07
6.3838591e-08
2.6342436e-07
6.1586685e-08
2.6167767e-07
5.9473589e-08
2.5984536e-07
5.749836e-08
2.5794423e-07
5.5660261e-08
2.5598851e-07
5.3952852e-08
2.5398896e-07
5.237306e-08
2.5195474e-07
5.0913267e-08
2.4989243e-07
4.9568848e-08
2.4780792e-07
4.8331307e-08
2.4570555e-07
4.7194818e-08
2.4358827e-07
4.6153916e-08
2.4145876e-07
4.5201059e-08
2.3931906e-07
4.4330009e-08
2.371706e-07
4.3535138e-08
2.350143e-07
4.2811036e-08
2.3285082e-07
4.215233e-08
2.3068051e-07
4.155397e-08
2.285035e-07
4.1011192e-08
2.2631976e-07
4.0519435e-08
2.2412926e-07
4.0074197e-08
2.2193186e-07
3.967166e-08
2.1972752e-07
3.9307749e-08
2.1751609e-07
3.897912e-08
2.1529752e-07
3.8682042e-08
2.1307145e-07
3.8413683e-08
3.8170505e-08
1.3378947e-07
-3.1497818e-08
1.3259571e-07
-6.6039152e-08
1.360192e-07
-7.0100169e-08
1.443663e-07
-5.5854562e-08
1.5656362e-07
-3.2554535e-08
1.7098907e-07
-6.994068e-09
1.8614922e-07
1.6885325e-08
2.009059e-07
3.7162885e-08
2.1451439e-07
5.324187e-08
2.2656741e-07
6.5277189e-08
2.3691001e-07
7.3784368e-08
2.4554972e-07
7.9388539e-08
2.5258818e-07
8.2700151e-08
2.5818223e-07
8.4267884e-08
2.6251278e-07
8.4546539e-08
2.6576108e-07
8.3892318e-08
2.680922e-07
8.2573359e-08