/*--------------------------------*- C++ -*----------------------------------*\
| =========                 |                                                 |
| \\      /  F ield         | OpenFOAM: The Open Source CFD Toolbox           |
|  \\    /   O peration     | Version:  2312                                  |
|   \\  /    A nd           | Website:  www.openfoam.com                      |
|    \\/     M anipulation  |                                                 |
\*---------------------------------------------------------------------------*/
FoamFile
{
    version     2.0;
    format      ascii;
    arch        "LSB;label=32;scalar=64";
    class       volVectorField;
    location    "0.05";
    object      U;
}
// * * * * * * * * * * * * * * * * * * * * * * * * * * * * * * * * * * * * * //

dimensions      [0 1 -1 0 0 0 0];

internalField   nonuniform List<vector> 
3275
(
(54.962866 0.36561583 0)
(48.115646 0.86656349 0)
(39.99677 0.90555144 0)
(33.074179 0.77327269 0)
(27.619377 0.60118496 0)
(23.474693 0.45632017 0)
(20.300547 0.34852191 0)
(17.824097 0.26914217 0)
(15.865544 0.21090918 0)
(14.281819 0.1677757 0)
(13.004937 0.13639871 0)
(11.98584 0.11240803 0)
(11.127868 0.092996891 0)
(10.391011 0.078476178 0)
(9.7674458 0.067126077 0)
(9.2314049 0.058168626 0)
(8.7656987 0.050987901 0)
(8.3570118 0.0451298 0)
(7.9952437 0.040278985 0)
(7.6725444 0.036214856 0)
(7.3827383 0.0327799 0)
(7.1208497 0.029854719 0)
(6.8828281 0.027345084 0)
(6.6653856 0.025178939 0)
(6.4657901 0.023299317 0)
(6.2817669 0.021660564 0)
(6.1114023 0.020225759 0)
(5.953076 0.018964782 0)
(5.8054069 0.017852869 0)
(5.6672104 0.016869503 0)
(5.5374649 0.01599757 0)
(5.4152843 0.015222688 0)
(5.2998968 0.014532701 0)
(5.1906265 0.013917267 0)
(5.0868795 0.013367534 0)
(4.9881316 0.012875894 0)
(4.8939186 0.01243576 0)
(4.8038279 0.012041413 0)
(4.7174919 0.011687855 0)
(4.6345816 0.011370708 0)
(4.5548024 0.011086111 0)
(4.4778894 0.010830617 0)
(4.4036043 0.010601402 0)
(4.3317315 0.01039559 0)
(4.2620749 0.010210141 0)
(4.194458 0.010043844 0)
(4.1287215 0.0098951546 0)
(4.0647201 0.0097617908 0)
(4.0023207 0.0096425698 0)
(3.9414021 0.0095362692 0)
(3.8818539 0.0094414699 0)
(3.8235733 0.0093576826 0)
(54.202194 1.2084095 0)
(46.349738 2.6472514 0)
(38.29264 2.6763336 0)
(31.826019 2.2524058 0)
(26.775313 1.7480536 0)
(22.915326 1.3321046 0)
(19.924461 1.0216268 0)
(17.564724 0.79193968 0)
(15.68191 0.62247688 0)
(14.148753 0.4963577 0)
(12.906022 0.40427629 0)
(11.909909 0.33360334 0)
(11.068706 0.27626728 0)
(10.344337 0.23330796 0)
(9.7298249 0.1996601 0)
(9.200611 0.17306459 0)
(8.7401412 0.15171807 0)
(8.3355435 0.13428477 0)
(7.9770163 0.11983544 0)
(7.6569194 0.10771896 0)
(7.3692275 0.09746988 0)
(7.1090754 0.088734865 0)
(6.872494 0.081234669 0)
(6.6562567 0.074755563 0)
(6.4576783 0.069128417 0)
(6.2745196 0.064217577 0)
(6.1048953 0.059913273 0)
(5.9472069 0.056125892 0)
(5.8000909 0.05278174 0)
(5.6623767 0.049819723 0)
(5.5330538 0.04718888 0)
(5.4112455 0.044846378 0)
(5.2961874 0.042756024 0)
(5.1872098 0.040887025 0)
(5.0837239 0.039213052 0)
(4.98521 0.037711467 0)
(4.8912072 0.0363627 0)
(4.8013061 0.035149763 0)
(4.7151415 0.034057838 0)
(4.6323868 0.033073952 0)
(4.5527492 0.032186696 0)
(4.4759654 0.031385976 0)
(4.4017985 0.030662959 0)
(4.3300339 0.030009435 0)
(4.2604769 0.029417964 0)
(4.1929519 0.028883101 0)
(4.1273003 0.02839937 0)
(4.0633773 0.027961328 0)
(4.0010507 0.027564629 0)
(3.9401998 0.027205424 0)
(3.8807146 0.026879956 0)
(3.822493 0.026585154 0)
(51.999912 2.6174156 0)
(42.532686 4.5772618 0)
(34.933346 4.2967301 0)
(29.44278 3.5243613 0)
(25.17442 2.7348988 0)
(21.849387 2.1040293 0)
(19.202245 1.6272913 0)
(17.063161 1.2711951 0)
(15.324709 1.0056616 0)
(13.888684 0.80607682 0)
(12.711946 0.65924643 0)
(11.760468 0.5456991 0)
(10.951991 0.45308795 0)
(10.252074 0.38346717 0)
(9.655332 0.32872268 0)
(9.1395545 0.28532119 0)
(8.6894118 0.25040219 0)
(8.2928916 0.22182711 0)
(7.9407751 0.19810285 0)
(7.625832 0.17817986 0)
(7.3423313 0.16130607 0)
(7.0856242 0.14690907 0)
(6.8519024 0.13453513 0)
(6.6380597 0.12383636 0)
(6.4415028 0.11453693 0)
(6.2600638 0.10641522 0)
(6.0919124 0.09929164 0)
(5.9354939 0.093019372 0)
(5.7894792 0.08747755 0)
(5.6527255 0.082565861 0)
(5.5242447 0.078200555 0)
(5.4031782 0.074311178 0)
(5.2887766 0.070838161 0)
(5.1803825 0.067730782 0)
(5.0774173 0.064945656 0)
(4.9793697 0.062445463 0)
(4.8857861 0.060197926 0)
(4.796263 0.058175012 0)
(4.7104405 0.056352271 0)
(4.6279962 0.054708289 0)
(4.5486411 0.053224236 0)
(4.4721151 0.051883462 0)
(4.3981838 0.050671245 0)
(4.3266353 0.049574193 0)
(4.2572771 0.048580493 0)
(4.1899353 0.047680358 0)
(4.1244529 0.046864579 0)
(4.0606864 0.046124469 0)
(3.998505 0.045452684 0)
(3.9377889 0.044842679 0)
(3.8784292 0.044288366 0)
(3.820325 0.043784278 0)
(46.366682 5.3553304 0)
(36.178558 6.5933431 0)
(30.086772 5.5610876 0)
(26.160643 4.4416757 0)
(22.98356 3.4747705 0)
(20.374109 2.7184348 0)
(18.188951 2.1298702 0)
(16.351511 1.6829834 0)
(14.813003 1.3444493 0)
(13.513175 1.0860474 0)
(12.429926 0.89367968 0)
(11.542203 0.74323263 0)
(10.780858 0.61954849 0)
(10.116347 0.52606251 0)
(9.5454464 0.4521449 0)
(9.0492916 0.39327621 0)
(8.6142821 0.34574313 0)
(8.2296301 0.30672883 0)
(7.8869542 0.27425568 0)
(7.5796152 0.24692681 0)
(7.3023085 0.2237377 0)
(7.0507 0.20392061 0)
(6.8212156 0.18686436 0)
(6.610925 0.17209906 0)
(6.41737 0.15925098 0)
(6.2384864 0.14801911 0)
(6.0725254 0.13815893 0)
(5.9179966 0.12947019 0)
(5.7736217 0.12178771 0)
(5.6382989 0.11497417 0)
(5.5110731 0.10891477 0)
(5.3911128 0.10351279 0)
(5.2776904 0.098686367 0)
(5.1701669 0.094365718 0)
(5.0679788 0.090491095 0)
(4.9706274 0.087011056 0)
(4.8776698 0.083881071 0)
(4.7887115 0.081062441 0)
(4.7033999 0.078521391 0)
(4.6214195 0.07622832 0)
(4.5424865 0.07415719 0)
(4.4663458 0.072284967 0)
(4.392767 0.070591221 0)
(4.3215417 0.069057559 0)
(4.2524806 0.067667752 0)
(4.1854128 0.066407854 0)
(4.1201833 0.065264951 0)
(4.0566509 0.064227224 0)
(3.9946865 0.063284315 0)
(3.9341721 0.062427056 0)
(3.8750002 0.061647032 0)
(3.8170714 0.060936597 0)
(33.596987 6.7236379 0)
(26.998532 7.7750581 0)
(24.19751 6.1241656 0)
(22.345224 4.8891902 0)
(20.426062 3.914251 0)
(18.617614 3.1389082 0)
(16.957303 2.507589 0)
(15.472695 2.0113596 0)
(14.172717 1.6269442 0)
(13.038185 1.3276881 0)
(12.070048 1.1013047 0)
(11.261749 0.92159284 0)
(10.559765 0.77227747 0)
(9.9401976 0.65852646 0)
(9.4023037 0.5679693 0)
(8.9313539 0.49540942 0)
(8.5158753 0.43654168 0)
(8.1465974 0.38803114 0)
(7.8161892 0.34751823 0)
(7.518758 0.31332562 0)
(7.2495403 0.2842411 0)
(7.0046035 0.25933322 0)
(6.7806734 0.23785592 0)
(6.5750461 0.21923347 0)
(6.3854368 0.20300613 0)
(6.2099162 0.18880229 0)
(6.0468409 0.17631917 0)
(5.8948037 0.16530811 0)
(5.7525928 0.15556352 0)
(5.6191596 0.14691409 0)
(5.4935923 0.13921632 0)
(5.3750945 0.1323491 0)
(5.2629675 0.12620974 0)
(5.1565963 0.12071057 0)
(5.0554373 0.11577644 0)
(4.9590081 0.11134254 0)
(4.86688 0.10735274 0)
(4.7786702 0.10375818 0)
(4.6940362 0.10051617 0)
(4.6126708 0.097589294 0)
(4.5342979 0.094944586 0)
(4.4586684 0.092552883 0)
(4.3855575 0.090388277 0)
(4.3147613 0.088427548 0)
(4.2460949 0.086650165 0)
(4.1793909 0.085038119 0)
(4.1144973 0.083574981 0)
(4.0512757 0.082245783 0)
(3.9895996 0.081037296 0)
(3.9293532 0.079937743 0)
(3.8704308 0.078936432 0)
(3.812735 0.078023659 0)
(10.762874 7.3428786 0)
(17.39556 6.9019251 0)
(18.5843 5.753584 0)
(18.684331 4.8414923 0)
(17.895793 4.0399964 0)
(16.826398 3.3413702 0)
(15.667101 2.7356052 0)
(14.531803 2.2355266 0)
(13.475963 1.8336553 0)
(12.514409 1.5137383 0)
(11.668861 1.2672858 0)
(10.946408 1.0681907 0)
(10.309438 0.90070567 0)
(9.7396137 0.77176506 0)
(9.2385506 0.66836481 0)
(8.7959183 0.58490922 0)
(8.4025157 0.51681836 0)
(8.0506976 0.46044155 0)
(7.7342775 0.41317084 0)
(7.4481819 0.37313894 0)
(7.1882461 0.33898782 0)
(6.9509844 0.30966737 0)
(6.733458 0.28433009 0)
(6.5332173 0.26231883 0)
(6.3481737 0.24310649 0)
(6.1765503 0.22626502 0)
(6.0168234 0.21144442 0)
(5.8676806 0.19835629 0)
(5.7279862 0.18676149 0)
(5.5967526 0.1764602 0)
(5.4731174 0.16728464 0)
(5.3563246 0.15909288 0)
(5.2457091 0.15176434 0)
(5.1406831 0.14519591 0)
(5.0407259 0.139299 0)
(4.9453746 0.13399718 0)
(4.8542163 0.12922406 0)
(4.7668821 0.12492184 0)
(4.683041 0.12103996 0)
(4.6023958 0.11753402 0)
(4.5246787 0.1143649 0)
(4.4496482 0.11149793 0)
(4.3770854 0.10890233 0)
(4.3067923 0.10655051 0)
(4.2385887 0.10441803 0)
(4.1723113 0.10248326 0)
(4.1078117 0.10072652 0)
(4.0449548 0.099130016 0)
(3.9836171 0.09767788 0)
(3.9236851 0.096355956 0)
(3.8650554 0.095151485 0)
(3.807633 0.094052925 0)
(4.1242727 3.0938789 0)
(11.52571 4.559955 0)
(14.166525 4.8284569 0)
(15.469857 4.4737209 0)
(15.547096 3.9445386 0)
(15.099969 3.3824529 0)
(14.389393 2.8466914 0)
(13.57824 2.3759869 0)
(12.756999 1.978792 0)
(11.966671 1.6534656 0)
(11.244668 1.3979046 0)
(10.610066 1.1875678 0)
(10.040455 1.0084479 0)
(9.5227844 0.86846942 0)
(9.0606936 0.75548503 0)
(8.648225 0.66354833 0)
(8.278491 0.58806401 0)
(7.945486 0.52523707 0)
(7.6442024 0.47232376 0)
(7.3704174 0.427344 0)
(7.1205932 0.38884712 0)
(6.8917156 0.35570342 0)
(6.6812009 0.32699304 0)
(6.4868704 0.30199878 0)
(6.3068452 0.28014246 0)
(6.1395122 0.26095201 0)
(5.9834768 0.24403991 0)
(5.8375293 0.22908562 0)
(5.7006159 0.21582249 0)
(5.5718155 0.20402699 0)
(5.4503197 0.19351095 0)
(5.3354166 0.18411474 0)
(5.2264773 0.17570251 0)
(5.1229442 0.16815775 0)
(5.0243218 0.16138027 0)
(4.9301682 0.1552834 0)
(4.8400883 0.14979179 0)
(4.753728 0.14483971 0)
(4.6707694 0.14036958 0)
(4.5909261 0.13633081 0)
(4.5139397 0.13267875 0)
(4.4395765 0.12937382 0)
(4.3676251 0.1263808 0)
(4.297893 0.1236682 0)
(4.2302057 0.12120799 0)
(4.1644045 0.11897523 0)
(4.1003449 0.11694733 0)
(4.0378953 0.11510386 0)
(3.9769355 0.11342656 0)
(3.9173549 0.11189907 0)
(3.8590525 0.11050673 0)
(3.8019357 0.10923632 0)
(2.4419833 1.2049671 0)
(7.9183654 2.6566122 0)
(10.723608 3.7413507 0)
(12.618923 3.8991081 0)
(13.315523 3.6765895 0)
(13.383244 3.292777 0)
(13.075988 2.8613725 0)
(12.572374 2.4463555 0)
(11.982447 2.074585 0)
(11.367125 1.7577786 0)
(10.774483 1.502078 0)
(10.233729 1.2877064 0)
(9.7368015 1.1029797 0)
(9.2762141 0.95523251 0)
(8.857365 0.83526214 0)
(8.4785825 0.73673319 0)
(8.1354854 0.65522178 0)
(7.8237796 0.5869526 0)
(7.5397187 0.52915127 0)
(7.2800018 0.47979535 0)
(7.0417755 0.43738959 0)
(6.8225451 0.40075935 0)
(6.6201212 0.36893763 0)
(6.4326271 0.34116528 0)
(6.2584194 0.31682637 0)
(6.0960693 0.29541475 0)
(5.9443284 0.27651288 0)
(5.8021035 0.25977381 0)
(5.6684347 0.24490776 0)
(5.5424766 0.23167085 0)
(5.4234824 0.21985712 0)
(5.3107911 0.2092913 0)
(5.2038155 0.19982381 0)
(5.1020329 0.19132606 0)
(5.0049768 0.18368719 0)
(4.9122295 0.17681115 0)
(4.8234165 0.17061421 0)
(4.7382013 0.16502322 0)
(4.6562807 0.15997401 0)
(4.5773811 0.15541012 0)
(4.501255 0.15128163 0)
(4.4276782 0.14754427 0)
(4.3564471 0.14415857 0)
(4.2873767 0.14108926 0)
(4.2202984 0.13830485 0)
(4.1550589 0.13577718 0)
(4.0915186 0.1334808 0)
(4.02955 0.13139274 0)
(3.9690365 0.12949233 0)
(3.909871 0.12776111 0)
(3.8519554 0.12618251 0)
(3.7951997 0.12474171 0)
(1.9188312 0.57961606 0)
(5.6347972 1.4665026 0)
(8.142321 2.7472677 0)
(10.207458 3.2412705 0)
(11.283518 3.2935917 0)
(11.739037 3.0982142 0)
(11.770128 2.7894411 0)
(11.54329 2.4489711 0)
(11.171868 2.1199369 0)
(10.727802 1.8251775 0)
(10.265936 1.5778411 0)
(9.8226385 1.3666566 0)
(9.4017014 1.1823116 0)
(9.001713 1.0305879 0)
(8.6296744 0.90632211 0)
(8.2876015 0.8033199 0)
(7.9737761 0.71734007 0)
(7.6856413 0.64479209 0)
(7.4207521 0.58298541 0)
(7.1767737 0.52993079 0)
(6.9515788 0.48414018 0)
(6.7432285 0.44443206 0)
(6.5499592 0.40982031 0)
(6.3702226 0.37952431 0)
(6.2026326 0.35290551 0)
(6.0459633 0.32943515 0)
(5.8991279 0.30867435 0)
(5.7611629 0.29025646 0)
(5.6312126 0.27387375 0)
(5.5085163 0.25926599 0)
(5.3923969 0.24621257 0)
(5.2822501 0.23452502 0)
(5.177536 0.224042 0)
(5.0777711 0.21462434 0)
(4.9825219 0.20615178 0)
(4.8913983 0.19851985 0)
(4.8040492 0.19163723 0)
(4.7201579 0.185424 0)
(4.6394382 0.17980991 0)
(4.5616309 0.17473305 0)
(4.4865012 0.1701386 0)
(4.4138355 0.16597784 0)
(4.3434396 0.16220735 0)
(4.2751365 0.15878821 0)
(4.2087648 0.15568563 0)
(4.1441774 0.15286839 0)
(4.08124 0.15030829 0)
(4.01983 0.14797982 0)
(3.9598351 0.14586008 0)
(3.901152 0.14392846 0)
(3.843686 0.14216661 0)
(3.7873502 0.1405581 0)
(1.6667622 0.27310021 0)
(4.163636 0.74060894 0)
(6.2500662 1.925818 0)
(8.235361 2.5878704 0)
(9.4951088 2.8493992 0)
(10.21295 2.8271527 0)
(10.509018 2.6450576 0)
(10.518204 2.3902673 0)
(10.34461 2.1163189 0)
(10.0619 1.8549452 0)
(9.7277099 1.6246593 0)
(9.3826606 1.4232308 0)
(9.0391474 1.2446178 0)
(8.7017394 1.093252 0)
(8.3791683 0.96743326 0)
(8.0762677 0.86222188 0)
(7.7939314 0.77349078 0)
(7.5313592 0.69796339 0)
(7.2874032 0.63314973 0)
(7.0607088 0.57717267 0)
(6.8498962 0.52860487 0)
(6.6536055 0.486298 0)
(6.4705215 0.44927697 0)
(6.2994442 0.41676185 0)
(6.1392623 0.3881082 0)
(5.9889684 0.3627773 0)
(5.8476509 0.34031877 0)
(5.7144869 0.32035385 0)
(5.588735 0.30256282 0)
(5.4697277 0.28667368 0)
(5.356864 0.27245486 0)
(5.2496027 0.25970752 0)
(5.1474562 0.24826089 0)
(5.0499846 0.23796702 0)
(4.9567911 0.22869771 0)
(4.8675164 0.22034125 0)
(4.7818355 0.21279973 0)
(4.699454 0.20598719 0)
(4.6201048 0.19982795 0)
(4.543545 0.19425518 0)
(4.4695538 0.18920958 0)
(4.3979298 0.18463838 0)
(4.3284892 0.18049444 0)
(4.2610643 0.17673549 0)
(4.1955017 0.1733236 0)
(4.1316611 0.17022467 0)
(4.0694146 0.16740785 0)
(4.0086448 0.16484529 0)
(3.9492445 0.16251183 0)
(3.8911146 0.16038491 0)
(3.8341645 0.15844437 0)
(3.7783106 0.1566723 0)
(1.5161049 0.07828659 0)
(3.2149509 0.28933494 0)
(4.8853293 1.2792741 0)
(6.6628959 1.9887493 0)
(7.9636628 2.3871912 0)
(8.8338243 2.5077741 0)
(9.3214796 2.4448953 0)
(9.5211303 2.2792231 0)
(9.5187639 2.0677697 0)
(9.3827644 1.8479462 0)
(9.1691952 1.6427142 0)
(8.9201338 1.4569394 0)
(8.6537085 1.288605 0)
(8.3793717 1.1420393 0)
(8.1078306 1.017654 0)
(7.8459268 0.91247161 0)
(7.5968151 0.82280302 0)
(7.3614564 0.74570377 0)
(7.1399592 0.67897886 0)
(6.9319309 0.6209426 0)
(6.736739 0.57028178 0)
(6.5536099 0.52592163 0)
(6.3816899 0.48692923 0)
(6.2201391 0.45254864 0)
(6.0681341 0.42214728 0)
(5.9248975 0.39519014 0)
(5.7897034 0.37122601 0)
(5.6618798 0.34987244 0)
(5.5408075 0.33080433 0)
(5.4259194 0.31374307 0)
(5.3166971 0.29845026 0)
(5.2126679 0.28471996 0)
(5.1134012 0.27237459 0)
(5.0185051 0.26125951 0)
(4.9276225 0.25124029 0)
(4.8404285 0.24219942 0)
(4.7566267 0.23403344 0)
(4.6759474 0.22665131 0)
(4.5981444 0.21997268 0)
(4.5229931 0.2139264 0)
(4.4502881 0.20844925 0)
(4.3798417 0.20348481 0)
(4.3114818 0.1989826 0)
(4.2450507 0.19489727 0)
(4.1804041 0.19118802 0)
(4.1174095 0.18781806 0)
(4.0559458 0.18475409 0)
(3.9959019 0.18196602 0)
(3.9371758 0.1794266 0)
(3.8796736 0.17711134 0)
(3.8233089 0.1749984 0)
(3.768002 0.17306845 0)
(1.4185544 -0.042603899 0)
(2.5986968 0.0093639695 0)
(3.909503 0.78677095 0)
(5.4322779 1.4676981 0)
(6.6807484 1.9385692 0)
(7.6153351 2.1655728 0)
(8.22754 2.2062112 0)
(8.5714926 2.1263062 0)
(8.7106111 1.9800913 0)
(8.7030404 1.8068809 0)
(8.5999345 1.6328431 0)
(8.4417887 1.4678709 0)
(8.2502672 1.3137519 0)
(8.0382588 1.175969 0)
(7.8180819 1.0562509 0)
(7.5982297 0.95329907 0)
(7.3835767 0.86450077 0)
(7.1766944 0.78730378 0)
(6.9789011 0.71983734 0)
(6.7907215 0.66067629 0)
(6.6122465 0.60867253 0)
(6.4432792 0.56286411 0)
(6.2834299 0.52239117 0)
(6.1322229 0.48654534 0)
(5.9891288 0.45472415 0)
(5.853608 0.42641049 0)
(5.7251282 0.40116369 0)
(5.6031753 0.37860661 0)
(5.4872593 0.35841596 0)
(5.3769192 0.34031213 0)
(5.271725 0.32405446 0)
(5.1712771 0.30943352 0)
(5.0752063 0.29626786 0)
(4.9831719 0.28439849 0)
(4.8948608 0.27368673 0)
(4.8099844 0.26401081 0)
(4.7282778 0.25526303 0)
(4.6494982 0.2473483 0)
(4.5734224 0.24018248 0)
(4.4998457 0.23369088 0)
(4.4285799 0.22780691 0)
(4.3594519 0.22247106 0)
(4.2923026 0.21762991 0)
(4.2269856 0.21323538 0)
(4.1633662 0.20924409 0)
(4.1013209 0.20561682 0)
(4.040736 0.20231802 0)
(3.9815073 0.19931554 0)
(3.9235388 0.19658017 0)
(3.866742 0.19408566 0)
(3.8110355 0.19180848 0)
(3.7563437 0.18972804 0)
(1.3511138 -0.1131999 0)
(2.1916067 -0.16212219 0)
(3.2124624 0.42082138 0)
(4.481406 1.0315474 0)
(5.6243501 1.5241914 0)
(6.5588562 1.8214252 0)
(7.2388343 1.9453072 0)
(7.6836813 1.9425939 0)
(7.933806 1.8601503 0)
(8.0343258 1.7357539 0)
(8.0289923 1.5967944 0)
(7.9545673 1.4565758 0)
(7.8339713 1.3202944 0)
(7.6823073 1.1945705 0)
(7.5127749 1.0825313 0)
(7.3351338 0.98414368 0)
(7.1556194 0.89795163 0)
(6.9780664 0.82213137 0)
(6.8049055 0.75513606 0)
(6.6375247 0.69583721 0)
(6.476692 0.6432935 0)
(6.3227617 0.59669202 0)
(6.1757988 0.555276 0)
(6.0356864 0.51840767 0)
(5.9021894 0.48553264 0)
(5.7750087 0.45616607 0)
(5.6538099 0.42988945 0)
(5.5382417 0.4063404 0)
(5.4279479 0.38520503 0)
(5.3225785 0.36620865 0)
(5.2217957 0.3491133 0)
(5.1252774 0.33370991 0)
(5.0327192 0.31981645 0)
(4.9438351 0.30727213 0)
(4.8583584 0.29593613 0)
(4.7760401 0.28568428 0)
(4.6966489 0.27640602 0)
(4.6199707 0.2680034 0)
(4.5458075 0.2603895 0)
(4.4739759 0.2534869 0)
(4.4043063 0.24722639 0)
(4.3366418 0.2415459 0)
(4.2708373 0.2363896 0)
(4.2067586 0.23170709 0)
(4.1442819 0.22745272 0)
(4.083293 0.22358519 0)
(4.0236866 0.22006688 0)
(3.9653658 0.21686384 0)
(3.9082415 0.21394505 0)
(3.8522311 0.2112826 0)
(3.7972586 0.20885144 0)
(3.7432533 0.20662969 0)
(1.3021549 -0.15255737 0)
(1.9172388 -0.26558587 0)
(2.7124015 0.15390757 0)
(3.752334 0.67669153 0)
(4.7656779 1.1553902 0)
(5.6568709 1.4908825 0)
(6.3596919 1.6763423 0)
(6.8671652 1.7389298 0)
(7.1990002 1.7153568 0)
(7.3865878 1.6392694 0)
(7.4647655 1.5371759 0)
(7.4652202 1.4243681 0)
(7.4101515 1.3088153 0)
(7.3155535 1.1979459 0)
(7.195013 1.0960842 0)
(7.05893 1.0045135 0)
(6.9145729 0.92271421 0)
(6.7667753 0.84966555 0)
(6.6188402 0.7843503 0)
(6.472949 0.72592994 0)
(6.3304875 0.67368719 0)
(6.1923224 0.62698683 0)
(6.0589512 0.58520365 0)
(5.9306021 0.54779237 0)
(5.8073268 0.51426377 0)
(5.6890647 0.48417915 0)
(5.5756803 0.45715382 0)
(5.4669866 0.4328497 0)
(5.3627638 0.41097015 0)
(5.2627756 0.39125149 0)
(5.1667798 0.37346367 0)
(5.0745345 0.35740208 0)
(4.9858031 0.34288762 0)
(4.900357 0.32976038 0)
(4.8179786 0.31787981 0)
(4.7384604 0.30712128 0)
(4.6616067 0.2973729 0)
(4.5872345 0.28853518 0)
(4.5151722 0.28051954 0)
(4.4452596 0.2732468 0)
(4.3773469 0.26664587 0)
(4.3112946 0.26065281 0)
(4.2469728 0.25520994 0)
(4.1842603 0.25026497 0)
(4.1230451 0.24577042 0)
(4.063223 0.24168319 0)
(4.0046981 0.23796396 0)
(3.9473815 0.23457716 0)
(3.8911912 0.23149018 0)
(3.8360512 0.22867363 0)
(3.7818915 0.22610093 0)
(3.7286466 0.22374916 0)
(1.2657145 -0.17263607 0)
(1.7286028 -0.3262399 0)
(2.3509432 -0.037873515 0)
(3.1953413 0.39412309 0)
(4.0741639 0.83640729 0)
(4.8962303 1.1843733 0)
(5.5886673 1.4107406 0)
(6.1268878 1.5251587 0)
(6.513809 1.5531502 0)
(6.767913 1.5225083 0)
(6.9147376 1.4572595 0)
(6.9800585 1.373272 0)
(6.9839951 1.2803021 0)
(6.942171 1.1864882 0)
(6.8680075 1.0969486 0)
(6.7721317 1.0140884 0)
(6.6623283 0.9384169 0)
(6.5442002 0.86954697 0)
(6.4217488 0.80704987 0)
(6.2977641 0.75051557 0)
(6.1741851 0.69943336 0)
(6.0523464 0.65335458 0)
(5.9331443 0.61180896 0)
(5.8171291 0.57436387 0)
(5.7046253 0.54061104 0)
(5.5958035 0.51017078 0)
(5.4907235 0.48270354 0)
(5.3893617 0.45790493 0)
(5.2916343 0.43550336 0)
(5.1974201 0.41525225 0)
(5.1065741 0.39693489 0)
(5.0189362 0.38035525 0)
(4.9343398 0.36534091 0)
(4.8526155 0.35173564 0)
(4.7735971 0.33940167 0)
(4.6971204 0.32821609 0)
(4.6230269 0.31806729 0)
(4.5511663 0.30885566 0)
(4.4813952 0.30049218 0)
(4.4135776 0.29289695 0)
(4.3475851 0.28599789 0)
(4.2832964 0.27972993 0)
(4.2205978 0.27403409 0)
(4.1593824 0.2688568 0)
(4.0995505 0.2641491 0)
(4.0410089 0.25986657 0)
(3.9836715 0.25596843 0)
(3.9274581 0.25241786 0)
(3.8722945 0.24918083 0)
(3.8181117 0.24622667 0)
(3.7648463 0.24352742 0)
(3.7124384 0.24105904 0)
(1.2382434 -0.18049998 0)
(1.5963253 -0.35945883 0)
(2.0871476 -0.17359961 0)
(2.7699531 0.17292805 0)
(3.5206424 0.56667795 0)
(4.2608797 0.90793556 0)
(4.9201488 1.1570562 0)
(5.4639739 1.3096773 0)
(5.882941 1.3805393 0)
(6.1844513 1.390721 0)
(6.3852097 1.3606992 0)
(6.5048116 1.305708 0)
(6.560377 1.2362578 0)
(6.5662605 1.1609102 0)
(6.535097 1.0854028 0)
(6.4773434 1.0128931 0)
(6.4009652 0.94480383 0)
(6.3119338 0.88147901 0)
(6.2148192 0.82294424 0)
(6.1128865 0.76923761 0)
(6.0084737 0.72016183 0)
(5.9033395 0.6754355 0)
(5.7987398 0.63475019 0)
(5.6955174 0.59780154 0)
(5.5942474 0.56427633 0)
(5.4953192 0.53386564 0)
(5.3989806 0.50628554 0)
(5.3053672 0.4812742 0)
(5.2145284 0.45859272 0)
(5.1264571 0.43801736 0)
(5.0411052 0.41935028 0)
(4.9583956 0.40240818 0)
(4.8782323 0.38702918 0)
(4.8005067 0.37306349 0)
(4.7251052 0.36037884 0)
(4.6519083 0.34885635 0)
(4.580796 0.33838632 0)
(4.5116521 0.32887055 0)
(4.4443625 0.3202209 0)
(4.3788168 0.3123579 0)
(4.3149089 0.30520942 0)
(4.2525371 0.29871 0)
(4.1916045 0.29280014 0)
(4.1320192 0.28742546 0)
(4.0736947 0.28253607 0)
(4.0165497 0.27808664 0)
(3.9605082 0.27403528 0)
(3.9054996 0.27034429 0)
(3.8514578 0.26697845 0)
(3.7983216 0.26390609 0)
(3.7460342 0.26109787 0)
(3.6945422 0.25852889 0)
(1.2172882 -0.18060469 0)
(1.501659 -0.37477473 0)
(1.8924568 -0.26783479 0)
(2.444315 0.0023208188 0)
(3.0790522 0.34276038 0)
(3.7339039 0.66416995 0)
(4.3458504 0.92115019 0)
(4.8765523 1.0992398 0)
(5.3085314 1.2037667 0)
(5.6404391 1.2490217 0)
(5.8811957 1.2513233 0)
(6.0444388 1.2243479 0)
(6.1437904 1.1785038 0)
(6.191706 1.1223436 0)
(6.199593 1.0619735 0)
(6.1772854 1.0011402 0)
(6.1326373 0.94189127 0)
(6.0717277 0.88525093 0)
(5.9994187 0.83180087 0)
(5.9193536 0.78185982 0)
(5.8341677 0.73557404 0)
(5.745926 0.69291482 0)
(5.6562052 0.65371735 0)
(5.5661094 0.61780698 0)
(5.4764362 0.58497626 0)
(5.3877761 0.55499725 0)
(5.3005539 0.52765123 0)
(5.2150563 0.50272691 0)
(5.1314606 0.48002523 0)
(5.0498704 0.45935046 0)
(4.9703336 0.44052924 0)
(4.8928548 0.42339479 0)
(4.8174088 0.40779989 0)
(4.7439479 0.39360378 0)
(4.6724123 0.38068249 0)
(4.6027276 0.36892367 0)
(4.5348135 0.35822112 0)
(4.4685884 0.34847962 0)
(4.4039692 0.33961338 0)
(4.3408718 0.33154456 0)
(4.2792132 0.32420194 0)
(4.2189119 0.31752057 0)
(4.159889 0.31144108 0)
(4.1020682 0.30590899 0)
(4.0453769 0.30087393 0)
(3.9897463 0.29629021 0)
(3.9351113 0.2921152 0)
(3.881411 0.28831071 0)
(3.8285885 0.28484056 0)
(3.7765901 0.28167246 0)
(3.7253667 0.27877582 0)
(3.6748715 0.27612468 0)
(1.2010574 -0.17593067 0)
(1.4324263 -0.37830283 0)
(1.746937 -0.33147669 0)
(2.1938954 -0.12738259 0)
(2.7271014 0.15976738 0)
(3.2989077 0.45320165 0)
(3.8560632 0.70656097 0)
(4.3605862 0.89894202 0)
(4.7905713 1.0281215 0)
(5.1383409 1.1021228 0)
(5.4064073 1.1329285 0)
(5.6030298 1.1320301 0)
(5.7382145 1.1090611 0)
(5.8221347 1.0721796 0)
(5.8646579 1.0275285 0)
(5.8746733 0.97923949 0)
(5.859593 0.92983056 0)
(5.8254043 0.88087854 0)
(5.7770532 0.83346632 0)
(5.7183527 0.78819482 0)
(5.6521835 0.74547445 0)
(5.5808381 0.70554157 0)
(5.5061111 0.66844185 0)
(5.4293407 0.6341112 0)
(5.3515176 0.60244832 0)
(5.2734118 0.57331341 0)
(5.1956097 0.54656121 0)
(5.1185383 0.52203776 0)
(5.0424942 0.49959022 0)
(4.9676869 0.47905524 0)
(4.8942566 0.46028947 0)
(4.8222878 0.4431461 0)
(4.7518248 0.42749674 0)
(4.6828801 0.41321192 0)
(4.6154482 0.40017892 0)
(4.5494998 0.38829454 0)
(4.484994 0.37745755 0)
(4.4218854 0.36757732 0)
(4.3601219 0.35857196 0)
(4.2996468 0.35036653 0)
(4.2404005 0.34289175 0)
(4.1823229 0.33608406 0)
(4.1253533 0.32988502 0)
(4.0694318 0.32424067 0)
(4.0145003 0.31910068 0)
(3.9605028 0.31441965 0)
(3.9073861 0.31015454 0)
(3.8550993 0.30626718 0)
(3.8035948 0.30272067 0)
(3.7528274 0.29948256 0)
(3.7027554 0.29652099 0)
(3.6533395 0.29380856 0)
(1.1882524 -0.16848281 0)
(1.3806207 -0.37406857 0)
(1.6366265 -0.37261352 0)
(2.0000644 -0.22442688 0)
(2.4462927 0.012328133 0)
(2.9408395 0.27352387 0)
(3.4406167 0.51496115 0)
(3.9106311 0.71233856 0)
(4.3273759 0.85785933 0)
(4.6790721 0.95417318 0)
(4.9633103 1.0091018 0)
(5.1837745 1.0316222 0)
(5.3470265 1.0301006 0)
(5.4608183 1.0119737 0)
(5.5332753 0.98314002 0)
(5.5721128 0.94785674 0)
(5.5840929 0.90896757 0)
(5.5748785 0.86852248 0)
(5.549289 0.82794546 0)
(5.5111852 0.78811625 0)
(5.4635672 0.74970881 0)
(5.4088973 0.71315567 0)
(5.3491221 0.67871193 0)
(5.2857372 0.64648375 0)
(5.2199002 0.61645699 0)
(5.1525383 0.58858113 0)
(5.0843811 0.56279009 0)
(5.0159819 0.53899101 0)
(4.947745 0.51708306 0)
(4.8799792 0.49693854 0)
(4.8129122 0.47844974 0)
(4.7467043 0.46149242 0)
(4.6814672 0.44596151 0)
(4.6172714 0.43174044 0)
(4.5541665 0.41873078 0)
(4.4921666 0.40684136 0)
(4.43127 0.39597703 0)
(4.3714681 0.38605343 0)
(4.3127403 0.37699417 0)
(4.2550572 0.36872859 0)
(4.1983835 0.36119033 0)
(4.1426805 0.35431814 0)
(4.0879066 0.34805534 0)
(4.0340183 0.34234915 0)
(3.9809729 0.33714982 0)
(3.9287276 0.33241295 0)
(3.8772413 0.32809541 0)
(3.8264739 0.32415967 0)
(3.7763875 0.32056823 0)
(3.7269453 0.31728914 0)
(3.6781132 0.31428903 0)
(3.6298602 0.31153931 0)
(1.177946 -0.15958549 0)
(1.3409345 -0.36477954 0)
(1.5517299 -0.39722166 0)
(1.8487995 -0.29561097 0)
(2.2216045 -0.10482516 0)
(2.6463971 0.12266977 0)
(3.0895587 0.34662136 0)
(3.5204741 0.5416458 0)
(3.9160447 0.69621381 0)
(4.2622667 0.80866979 0)
(4.5532394 0.8830999 0)
(4.7889771 0.92589257 0)
(4.9729686 0.94384664 0)
(5.1105987 0.94341682 0)
(5.2081718 0.93002083 0)
(5.2721115 0.90783558 0)
(5.3083476 0.87988234 0)
(5.3220566 0.84848766 0)
(5.3177601 0.81535977 0)
(5.2992171 0.78163138 0)
(5.2694681 0.74817767 0)
(5.2310371 0.71562811 0)
(5.1859819 0.68439448 0)
(5.1359074 0.65474895 0)
(5.0820721 0.6268013 0)
(5.025542 0.60059172 0)
(4.9671689 0.57613105 0)
(4.9076166 0.55338508 0)
(4.8473835 0.53230913 0)
(4.7868688 0.51281381 0)
(4.7263812 0.49483279 0)
(4.6661521 0.47826588 0)
(4.6063562 0.46303628 0)
(4.5471198 0.4490408 0)
(4.4885467 0.43619865 0)
(4.4306929 0.42443379 0)
(4.3735943 0.41365768 0)
(4.3172794 0.40379398 0)
(4.2617594 0.39477354 0)
(4.2070321 0.38653131 0)
(4.1530864 0.37900487 0)
(4.0999053 0.37213614 0)
(4.0474665 0.36587104 0)
(3.9957434 0.36015874 0)
(3.944709 0.3549505 0)
(3.8943343 0.35020383 0)
(3.8445904 0.34587575 0)
(3.7954483 0.34193006 0)
(3.7468801 0.33832858 0)
(3.6988579 0.33504048 0)
(3.651355 0.3320309 0)
(1.1694777 -0.15009493 0)
(1.3098069 -0.35228724 0)
(1.485354 -0.40971417 0)
(1.7296221 -0.34643574 0)
(2.0410273 -0.19654001 0)
(2.4041457 -0.002292227 0)
(2.793591 0.20082996 0)
(3.1836338 0.38798475 0)
(3.5528783 0.54547495 0)
(3.8865584 0.66842765 0)
(4.1765518 0.75776781 0)
(4.4201115 0.81741943 0)
(4.618142 0.85248556 0)
(4.7738509 0.86826478 0)
(4.8917739 0.86951776 0)
(4.9769945 0.86016939 0)
(5.0344889 0.84326356 0)
(5.0688215 0.82124118 0)
(5.0841065 0.79598291 0)
(5.0838756 0.7688544 0)
(5.07109 0.74089396 0)
(5.0482806 0.71287962 0)
(5.0175373 0.68538317 0)
(4.9805297 0.65879544 0)
(4.9385918 0.6333285 0)
(4.8928815 0.60917113 0)
(4.8443429 0.58640128 0)
(4.7937348 0.56503771 0)
(4.7416362 0.54508747 0)
(4.6885279 0.52650478 0)
(4.6347904 0.50926859 0)
(4.5807199 0.49330317 0)
(4.526549 0.47856581 0)
(4.4724553 0.46496549 0)
(4.4185974 0.45244276 0)
(4.3650692 0.44094023 0)
(4.311942 0.4303756 0)
(4.259282 0.42068234 0)
(4.2071319 0.41180043 0)
(4.1555159 0.40367185 0)
(4.1044468 0.39623887 0)
(4.0539296 0.38944753 0)
(4.0039611 0.38324723 0)
(3.9545318 0.3775898 0)
(3.9056309 0.37242788 0)
(3.8572432 0.36772207 0)
(3.8093524 0.36342953 0)
(3.7619406 0.35951625 0)
(3.7149902 0.35594269 0)
(3.6684825 0.35268052 0)
(3.6223996 0.34969527 0)
(1.1623803 -0.14054668 0)
(1.2848231 -0.33786633 0)
(1.4326287 -0.41336612 0)
(1.6347543 -0.3812864 0)
(1.8950774 -0.26710957 0)
(2.2044573 -0.10442475 0)
(2.544313 0.076241986 0)
(2.8937275 0.25162843 0)
(3.2337311 0.4071096 0)
(3.5498537 0.53559987 0)
(3.8328017 0.635498 0)
(4.0779097 0.70852362 0)
(4.2840299 0.75808986 0)
(4.452481 0.78827085 0)
(4.5861717 0.80305612 0)
(4.6888568 0.80596635 0)
(4.7645147 0.79992035 0)
(4.8170088 0.78735416 0)
(4.8499609 0.77022265 0)
(4.8665931 0.7500304 0)
(4.8696913 0.72796484 0)
(4.8617015 0.70493254 0)
(4.8447109 0.68162391 0)
(4.8203709 0.6585136 0)
(4.7900857 0.63593391 0)
(4.7550806 0.614205 0)
(4.7163377 0.59345216 0)
(4.6746904 0.57379338 0)
(4.6307865 0.55525395 0)
(4.585181 0.53784996 0)
(4.5383138 0.52159743 0)
(4.4905393 0.50644854 0)
(4.4421413 0.4924003 0)
(4.3933425 0.47937027 0)
(4.3443582 0.46732497 0)
(4.2953138 0.45622965 0)
(4.2463129 0.44600634 0)
(4.1974607 0.43660048 0)
(4.1488299 0.42796321 0)
(4.1004704 0.42004486 0)
(4.0524179 0.41279301 0)
(4.0046993 0.40615866 0)
(3.9573306 0.40009563 0)
(3.9103188 0.39455917 0)
(3.86367 0.38950349 0)
(3.8173828 0.38489376 0)
(3.7714533 0.38068701 0)
(3.7258747 0.37685227 0)
(3.6806403 0.37334755 0)
(3.6357418 0.3701516 0)
(3.5911742 0.36723699 0)
(1.1563239 -0.13125996 0)
(1.2643302 -0.3223965 0)
(1.3900831 -0.41061546 0)
(1.5584414 -0.40364275 0)
(1.7763746 -0.32022047 0)
(2.039369 -0.18670672 0)
(2.3343271 -0.028859196 0)
(2.6447188 0.13222383 0)
(2.9542945 0.28190039 0)
(3.2495779 0.41173123 0)
(3.5209184 0.5182175 0)
(3.7624671 0.60121412 0)
(3.971553 0.66256722 0)
(4.1479417 0.70514055 0)
(4.2931016 0.73208275 0)
(4.4095415 0.74640284 0)
(4.5002523 0.75076975 0)
(4.5683575 0.74750908 0)
(4.6169267 0.73856839 0)
(4.6488034 0.72551277 0)
(4.6665384 0.70961408 0)
(4.6724267 0.69189271 0)
(4.6684578 0.67312547 0)
(4.6562598 0.6538561 0)
(4.6372759 0.63455846 0)
(4.6127288 0.61559216 0)
(4.5836431 0.5971883 0)
(4.5508946 0.57953034 0)
(4.5151731 0.56266709 0)
(4.477106 0.54670884 0)
(4.4371734 0.53167228 0)
(4.3957867 0.5175575 0)
(4.3532694 0.50439785 0)