/*--------------------------------*- C++ -*----------------------------------*\
| =========                 |                                                 |
| \\      /  F ield         | OpenFOAM: The Open Source CFD Toolbox           |
|  \\    /   O peration     | Version:  2312                                  |
|   \\  /    A nd           | Website:  www.openfoam.com                      |
|    \\/     M anipulation  |                                                 |
\*---------------------------------------------------------------------------*/
FoamFile
{
    version     2.0;
    format      ascii;
    arch        "LSB;label=32;scalar=64";
    class       volScalarField;
    location    "0.03";
    object      alphat;
}
// * * * * * * * * * * * * * * * * * * * * * * * * * * * * * * * * * * * * * //

dimensions      [1 -1 -1 0 0 0 0];

internalField   nonuniform List<scalar> 
3250
(
0.018326092
0.018266347
0.018204682
0.018140977
0.01807526
0.018007519
0.017937741
0.017865915
0.017792028
0.017716071
0.017638039
0.017557931
0.017475751
0.017391512
0.017305234
0.017216945
0.017126683
0.017034499
0.016940451
0.016844611
0.016747064
0.016647908
0.016547259
0.016445255
0.016342076
0.016237928
0.016133088
0.016028326
0.015922042
0.015815342
0.015708544
0.015602733
0.015496625
0.015391046
0.015286385
0.015182917
0.015080929
0.014980715
0.014882575
0.01478681
0.014693722
0.014603611
0.014516774
0.014433521
0.014354205
0.014279072
0.014208374
0.014142347
0.014081265
0.018325276
0.018265552
0.018203905
0.018140222
0.018074527
0.018006808
0.017937053
0.017865249
0.017791385
0.017715452
0.017637442
0.017557357
0.0174752
0.017390984
0.017304728
0.017216462
0.017126223
0.01703406
0.016940034
0.016844216
0.01674669
0.016647555
0.016546927
0.016444944
0.016341786
0.016237659
0.016132828
0.016028086
0.015921821
0.015815138
0.015708355
0.015602559
0.015496464
0.015390899
0.015286249
0.015182793
0.015080815
0.014980611
0.014882479
0.014786722
0.014693642
0.014603539
0.014516713
0.014433474
0.014354154
0.014279015
0.014208309
0.014142281
0.01408121
0.018323663
0.018263982
0.018202372
0.01813873
0.018073076
0.018005399
0.017935687
0.017863926
0.017790104
0.017714213
0.017636246
0.017556203
0.017474088
0.017389914
0.0173037
0.017215476
0.017125278
0.017033157
0.016939171
0.016843393
0.016745907
0.016646812
0.016546223
0.016444278
0.016341159
0.01623707
0.016132271
0.016027565
0.015921336
0.015814688
0.015707938
0.015602174
0.01549611
0.015390574
0.015285953
0.015182523
0.015080572
0.014980393
0.014882285
0.014786551
0.014693493
0.014603413
0.014516611
0.014433396
0.014354087
0.014278953
0.014208253
0.014142236
0.014081185
0.018321254
0.018261637
0.018200082
0.0181365
0.018070907
0.018003292
0.017933642
0.017861942
0.017788183
0.017712353
0.017634448
0.017554467
0.017472414
0.017388301
0.017302148
0.017213984
0.017123847
0.017031785
0.016937859
0.01684214
0.016744712
0.016645674
0.016545142
0.016443255
0.016340191
0.016236158
0.01613141
0.016026758
0.015920582
0.015813985
0.015707285
0.01560157
0.015495553
0.015390062
0.015285486
0.015182099
0.015080189
0.01498005
0.014881982
0.014786285
0.014693263
0.014603219
0.014516454
0.014433275
0.01435399
0.014278875
0.014208192
0.014142198
0.014081174
0.018318048
0.018258518
0.018197036
0.018133533
0.018068021
0.018000486
0.017930917
0.017859298
0.01778562
0.017709872
0.017632048
0.017552147
0.017470174
0.017386142
0.017300068
0.017211984
0.017121925
0.017029942
0.016936093
0.016840451
0.0167431
0.016644138
0.016543681
0.016441867
0.016338876
0.016234916
0.016130239
0.016025657
0.015919552
0.015813023
0.01570639
0.01560074
0.015494786
0.015389357
0.01528484
0.015181512
0.015079659
0.014979575
0.014881559
0.014785914
0.014692943
0.014602948
0.014516232
0.014433099
0.01435385
0.014278767
0.014208113
0.014142152
0.014081164
0.018314278
0.018254849
0.018193453
0.018130043
0.018064624
0.017997184
0.017927708
0.017856184
0.0177826
0.017706946
0.017629217
0.01754941
0.01746753
0.017383591
0.01729761
0.017209617
0.01711965
0.017027758
0.016933999
0.016838447
0.016741184
0.016642311
0.016541941
0.016440213
0.016337307
0.016233431
0.016128838
0.016024339
0.015918315
0.015811866
0.015705312
0.015599739
0.015493859
0.015388503
0.015284058
0.015180798
0.015079013
0.014978994
0.014881042
0.014785459
0.014692548
0.014602611
0.014515952
0.014432873
0.014353672
0.01427863
0.014208015
0.014142096
0.014081147
0.01831006
0.018250744
0.018189444
0.018126138
0.018060823
0.017993487
0.017924116
0.017852698
0.017779218
0.017703669
0.017626043
0.017546341
0.017464565
0.017380729
0.017294851
0.01720696
0.017117095
0.017025303
0.016931645
0.016836192
0.016739028
0.016640252
0.016539979
0.016438347
0.016335535
0.016231753
0.016127253
0.016022847
0.015916914
0.015810554
0.015704087
0.015598601
0.015492804
0.01538753
0.015283164
0.015179983
0.015078273
0.014978328
0.014880448
0.014784935
0.014692091
0.014602221
0.014515625
0.014432606
0.014353459
0.014278466
0.014207898
0.014142027
0.014081123
0.018305064
0.018245884
0.018184699
0.018121514
0.018056322
0.017989109
0.017919861
0.017848566
0.01777521
0.017699784
0.017622281
0.017542701
0.017461047
0.017377332
0.017291575
0.017203804
0.017114058
0.017022385
0.016928845
0.016833509
0.016736462
0.016637801
0.016537642
0.016436123
0.016333422
0.016229751
0.01612536
0.016021063
0.015915237
0.015808982
0.015702619
0.015597236
0.015491537
0.01538636
0.015282089
0.015179
0.01507738
0.014977523
0.014879729
0.014784298
0.014691535
0.014601743
0.014515223
0.014432275
0.014353194
0.014278261
0.01420775
0.01414194
0.014081087
0.018299252
0.018240218
0.018179168
0.018116124
0.018051074
0.017984003
0.017914899
0.017843746
0.017770533
0.01769525
0.017617889
0.017538451
0.017456939
0.017373364
0.017287747
0.017200116
0.017110508
0.017018973
0.01692557
0.016830369
0.016733456
0.016634929
0.016534902
0.016433514
0.016330943
0.0162274
0.016123136
0.016018966
0.015913264
0.015807132
0.015700891
0.015595627
0.015490042
0.015384978
0.015280817
0.015177836
0.015076321
0.014976567
0.014878873
0.01478354
0.014690872
0.014601171
0.014514739
0.014431875
0.014352872
0.014278011
0.014207567
0.014141832
0.01408104
0.018292571
0.018233694
0.018172802
0.018109919
0.018045031
0.017978124
0.017909183
0.017838194
0.017765145
0.017690025
0.017612828
0.017533552
0.017452201
0.017368788
0.017283331
0.01719586
0.017106411
0.017015033
0.016921786
0.016826741
0.016729983
0.016631609
0.016531734
0.016430495
0.016328072
0.016224676
0.016120559
0.016016535
0.015910975
0.015804984
0.015698882
0.015593757
0.015488303
0.015383369
0.015279335
0.015176479
0.015075086
0.014975451
0.014877872
0.014782652
0.014690092
0.014600497
0.014514167
0.0144314
0.014352488
0.014277712
0.014207345
0.014141702
0.014080979
0.018284964
0.018226261
0.018165548
0.018102848
0.018038144
0.017971422
0.017902667
0.017831864
0.017759
0.017684065
0.017607053
0.017527961
0.017446794
0.017363564
0.017278289
0.017190998
0.017101729
0.01701053
0.016917461
0.016822593
0.01672601
0.016627809
0.016528106
0.016427039
0.016324784
0.016221555
0.016117604
0.016013746
0.015908347
0.015802518
0.015696575
0.015591607
0.015486302
0.015381517
0.015277628
0.015174914
0.01507366
0.01497416
0.014876714
0.014781623
0.014689189
0.014599714
0.0145135
0.014430845
0.014352037
0.01427736
0.014207081
0.014141549
0.014080902
0.018276375
0.018217864
0.018157355
0.01809486
0.018030363
0.017963848
0.017895302
0.017824707
0.017752052
0.017677326
0.017600521
0.017521636
0.017440675
0.01735765
0.01727258
0.017185493
0.017096426
0.017005429
0.016912559
0.01681789
0.016721504
0.016623499
0.01652399
0.016423114
0.016321048
0.016218008
0.016114247
0.016010575
0.015905358
0.01579971
0.015693947
0.015589157
0.015484021
0.015379405
0.01527568
0.015173126
0.01507203
0.014972684
0.014875389
0.014780443
0.014688151
0.014598814
0.014512732
0.014430203
0.014351516
0.014276952
0.014206779
0.014141361
0.014080808
0.018266747
0.01820845
0.018148167
0.018085901
0.018021634
0.017955352
0.017887037
0.017816675
0.017744253
0.017669759
0.017593185
0.017514532
0.017433801
0.017351006
0.017266163
0.017179303
0.017090463
0.01699969
0.016907044
0.016812597
0.016716432
0.016618646
0.016519354
0.016418692
0.016316837
0.016214007
0.016110461
0.016006997
0.015901982
0.015796538
0.015690978
0.015586389
0.015481442
0.015377014
0.015273474
0.015171101
0.015070181
0.014971009
0.014873883
0.014779102
0.014686969
0.014597787
0.014511855
0.014429468
0.014350917
0.014276483
0.014206433
0.014141138
0.014080693
0.018256017
0.018197962
0.01813793
0.018075917
0.018011905
0.017945879
0.017877822
0.017807718
0.017735553
0.017661316
0.017584999
0.017506602
0.017426127
0.017343585
0.017258996
0.017172388
0.017083799
0.016993275
0.016900878
0.016806677
0.016710757
0.016613215
0.016514163
0.016413739
0.016312118
0.016209521
0.01610622
0.016002986
0.015898196
0.015792979
0.015687645
0.015583279
0.015478544
0.015374326
0.015270992
0.01516882
0.015068099
0.014969121
0.014872184
0.014777588
0.014685634
0.014596625
0.01451086
0.014428634
0.014350237
0.014275948
0.014206038
0.014140879
0.014080557
0.018244128
0.018186342
0.018126586
0.018064851
0.018001121
0.017935377
0.017867603
0.017797782
0.017725901
0.017651947
0.017575914
0.017497799
0.017417605
0.017335344
0.017251035
0.017164705
0.017076392
0.016986144
0.016894021
0.016800093
0.016704444
0.01660717
0.016508385
0.016408224
0.01630686
0.016204518
0.016101497
0.015998516
0.015893971
0.015789006
0.015683925
0.015579807
0.015475306
0.015371321
0.015268215
0.015166268
0.015065768
0.014967005
0.014870279
0.014775888
0.014684134
0.014595318
0.014509739
0.014427693
0.014349467
0.014275342
0.01420559
0.01414058
0.014080397
0.018231019
0.018173531
0.018114077
0.018052647
0.017989224
0.017923789
0.017856325
0.017786815
0.017715245
0.017641602
0.017565879
0.017488074
0.017408189
0.017326236
0.017242233
0.017156208
0.0170682
0.016978255
0.016886433
0.016792805
0.016697454
0.016600476
0.016501985
0.016402112
0.016301029
0.016198961
0.016096268
0.015993557
0.015889281
0.015784593
0.015679794
0.01557595
0.015471706
0.015367978
0.015265125
0.015163427
0.01506317
0.014964647
0.014868154
0.014773991
0.014682458
0.014593856
0.014508484
0.014426637
0.014348602
0.01427466
0.014205083
0.014140239
0.014080211
0.018216635
0.018159468
0.018100344
0.018039246
0.017976158
0.01791106
0.017843934
0.017774763
0.017703532
0.017630228
0.017554844
0.017477377
0.017397829
0.017316212
0.017232545
0.017146854
0.017059178
0.016969565
0.016878073
0.016784773
0.016689748
0.016593095
0.016494925
0.016395369
0.016294592
0.016192815
0.016090505
0.015988081
0.015884097
0.015779713
0.015675227
0.015571685
0.015467723
0.015364277
0.015261702
0.015160277
0.015060289
0.01496203
0.014865795
0.014771883
0.014680594
0.014592229
0.014507086
0.014425458
0.014347635
0.014273896
0.014204512
0.014139852
0.014079997
0.018200913
0.018144096
0.018085328
0.018024591
0.017961866
0.017897133
0.017830374
0.017761571
0.017690709
0.017617773
0.017542757
0.017465658
0.017386477
0.017305226
0.017221924
0.017136597
0.017049283
0.016960031
0.016868898
0.016775956
0.016681287
0.016584988
0.016487169
0.016387959
0.016287517
0.016186065
0.016084161
0.015982053
0.015878388
0.015774336
0.0156702
0.015566987
0.015463332
0.015360195
0.015257925
0.0151568
0.015057108
0.014959138
0.014863186
0.01476955
0.01467853
0.014590425
0.014505534
0.014424149
0.014346559
0.014273043
0.014203873
0.014139415
0.014079751
0.018183793
0.018127353
0.01806897
0.018008622
0.017946289
0.017881952
0.01781559
0.017747185
0.017676721
0.017604185
0.017529567
0.017452866
0.017374083
0.017293228
0.017210322
0.017125389
0.017038469
0.016949609
0.016858866
0.016766313
0.016672031
0.016576117
0.01647868
0.016379846
0.016279769
0.016178662
0.016077217
0.015975443
0.015872122
0.015768432
0.01566469
0.015561833
0.01545851
0.01535571
0.015253772
0.015152977
0.015053608
0.014955955
0.014860313
0.01476698
0.014676253
0.014588434
0.014503819
0.014422701
0.014345367
0.014272097
0.014203161
0.014138926
0.014079471
0.018219321
0.018165214
0.018109183
0.018051213
0.017991283
0.017929373
0.01786546
0.017799526
0.01773155
0.017661515
0.017589409
0.017515222
0.01743895
0.017360596
0.017280171
0.017197691
0.017113186
0.017026691
0.016938254
0.016847934
0.016755802
0.016661939
0.016566442
0.016469419
0.016370995
0.016271312
0.016170522
0.016069692
0.015968222
0.015865269
0.015761964
0.015658678
0.015556198
0.015453233
0.015350797
0.015249223
0.015148786
0.01504977
0.014952463
0.01485716
0.014764156
0.014673751
0.014586244
0.014501931
0.014421104
0.014344051
0.014271049
0.01420237
0.014138378
0.014079154
0.018198799
0.018145122
0.018089528
0.018032
0.017972519
0.017911061
0.017847604
0.017782128
0.017714612
0.017645039
0.017573395
0.017499671
0.017423861
0.017345969
0.017266004
0.017183985
0.017099939
0.017013902
0.016925923
0.016836059
0.01674438
0.01665097
0.016555923
0.016459349
0.016361368
0.016262119
0.016161742
0.016061423
0.015960349
0.015857796
0.015754888
0.015652153
0.015550056
0.015447473
0.015345434
0.015244254
0.015144207
0.015045575
0.014948645
0.01485371
0.014761066
0.014671011
0.014583843
0.014499859
0.01441935
0.014342603
0.014269895
0.014201496
0.014137769
0.014078796
0.018176687
0.018123463
0.018068334
0.018011278
0.017952275
0.0178913
0.017828331
0.017763345
0.017696321
0.017627242
0.017556092
0.017482863
0.017407548
0.017330152
0.017250682
0.017169157
0.017085604
0.017000059
0.016912571
0.016823196
0.016732007
0.016639084
0.016544522
0.01644843
0.016350928
0.016252152
0.016152242
0.016052424
0.015951794
0.015849676
0.015747136
0.015645129
0.015543376
0.015441204
0.015339596
0.015238845
0.015139221
0.015041005
0.014944483
0.014849947
0.014757693
0.014668019
0.01458122
0.014497594
0.014417431
0.014341017
0.014268628
0.014200534
0.014137094
0.014078393
0.018152931
0.018100187
0.01804555
0.017988996
0.017930501
0.01787004
0.017807589
0.017743125
0.017676626
0.017608073
0.017537451
0.01746475
0.017389965
0.017313097
0.017234156
0.01715316
0.017070134
0.016985117
0.016898155
0.016809306
0.01671864
0.016626239
0.016532198
0.016436624
0.016339638
0.016241373
0.016141972
0.016042676
0.015942531
0.015840894
0.015738827
0.015637431
0.015536111
0.015434398
0.015333258
0.015232971
0.015133806
0.01503604
0.01493996
0.014845856
0.014754025
0.014664761
0.014578363
0.014495125
0.014415337
0.014339284
0.014267242
0.014199478
0.01413635
0.014077943
0.018177847
0.01812748
0.018075246
0.01802113
0.017965107
0.017907149
0.017847233
0.017785332
0.017721421
0.017655479
0.017587486
0.017517425
0.017445287
0.017371064
0.01729476
0.017216383
0.01713595
0.017053488
0.016969033
0.016882632
0.016794344
0.016704239
0.016612397
0.016518913
0.016423894
0.016327461
0.016229747
0.016130894
0.016032151
0.015932532
0.01583142
0.015729886
0.015629076
0.015528239
0.01542703
0.015326399
0.015226613
0.015127941
0.015030661
0.014935057
0.01484142
0.014750044
0.014661226
0.01457526
0.014492441
0.01441306
0.014337398
0.014265732
0.014198328
0.014135537
0.014077447
0.01815014
0.018100299
0.018048602
0.017995034
0.017939569
0.017882179
0.017822837
0.017761517
0.017698192
0.017632839
0.017565438
0.017495971
0.017424429
0.017350804
0.017275098
0.017197319
0.017117485
0.017035622
0.016951766
0.016865963
0.016778273
0.016688764
0.016597519
0.01650463
0.016410204
0.016314363
0.016217237
0.016118971
0.016020819
0.015921764
0.015821222
0.015720265
0.015620052
0.015519738
0.015419077
0.015318994
0.015219748
0.015121607
0.01502485
0.014929758
0.014836624
0.014745739
0.014657399
0.0145719
0.014489534
0.014410591
0.014335354
0.014264094
0.01419708
0.014134657
0.014076917
0.018120651
0.018071356
0.01802022
0.017967227
0.017912348
0.017855554
0.017796816
0.017736106
0.017673397
0.017608665
0.017541889
0.01747305
0.017402137
0.017329143
0.01725407
0.017176925
0.017097726
0.017016497
0.016933277
0.01684811
0.016761055
0.01667218
0.016581569
0.016489313
0.016395519
0.016300308
0.016203811
0.016106171
0.016008649
0.015910198
0.015810268
0.015709929
0.01561034
0.015510586
0.015410519
0.015311023
0.015212355
0.015114785
0.015018588
0.014924047
0.014831452
0.014741094
0.01465327
0.014568272
0.014486394
0.014407924
0.014333144
0.014262326
0.014195735
0.014133719
0.018089359
0.01804063
0.017990078
0.017937684
0.017883416
0.017827245
0.017769139
0.017709069
0.017647007
0.017582927
0.017516806
0.017448627
0.017378377
0.017306049
0.017231643
0.017155167
0.017076637
0.01699608
0.016913531
0.016829037
0.016742654
0.016654453
0.016564513
0.016472929
0.016379807
0.016285265
0.016189437
0.016092464
0.015995614
0.015897805
0.015798529
0.015698849
0.01559992
0.015500764
0.015401334
0.015302465
0.015204417
0.015107457
0.015011859
0.014917908
0.014825891
0.014736099
0.014648827
0.014564368
0.014483014
0.014405053
0.014330764
0.014260423
0.014194293
0.014132714
0.018056253
0.018008109
0.017958162
0.017906389
0.017852757
0.017797234
0.017739786
0.017680384
0.017618996
0.017555597
0.017490163
0.017422676
0.017353121
0.017281491
0.017207786
0.017132013
0.017054189
0.016974339
0.016892499
0.016808714
0.016723042
0.016635551
0.016546323
0.01645545
0.016363038
0.016269207
0.016174088
0.016077824
0.015981686
0.015884559
0.01578598
0.015687001
0.01558877
0.015490253
0.015391501
0.015293302
0.015195915
0.015099606
0.01500465
0.014911328
0.014819928
0.014730742
0.014644061
0.014560179
0.014479387
0.014401971
0.014328212
0.014258384
0.014192754
0.014131647
0.018021341
0.017973798
0.017924473
0.017873341
0.017820365
0.017765512
0.017708747
0.017650037
0.017589351
0.017526662
0.017461943
0.017395177
0.017326348
0.017255449
0.017182478
0.017107443
0.017030359
0.016951251
0.016870156
0.016787117
0.016702193
0.016615451
0.016526973
0.016436851
0.01634519
0.016252109
0.01615774
0.016062226
0.015966843
0.015870438
0.015772601
0.015674364
0.015576874
0.015479037
0.015381006
0.01528352
0.015186836
0.015091221
0.014996947
0.014904297
0.014813556
0.014725016
0.014638967
0.014555701
0.01447551
0.014398678
0.014325486
0.014256207
0.014191112
0.014130513
0.017984646
0.017937716
0.017889027
0.01783855
0.017786249
0.017732086
0.017676024
0.01761803
0.01755807
0.017496115
0.017432139
0.017366123
0.017298049
0.017227911
0.017155706
0.017081441
0.017005131
0.0169268
0.016846485
0.016764229
0.01668009
0.016594135
0.016506446
0.016417114
0.016326244
0.016233955
0.016140378
0.016045655
0.015951069
0.015855426
0.015758375
0.015660924
0.015564216
0.015467102
0.015369837
0.015273108
0.015177171
0.015082292
0.014988744
0.014896808
0.014806769
0.014718916
0.014633541
0.014550933
0.014471383
0.014395174
0.014322588
0.014253897
0.014189373
0.014129315
0.017946215
0.017899903
0.017851858
0.017802049
0.017750436
0.017696978
0.017641638
0.017584378
0.017525165
0.017463967
0.017400759
0.017335518
0.017268227
0.017198879
0.017127469
0.017054005
0.016978501
0.016900982
0.016821481
0.016740043
0.016656726
0.016571596
0.016484733
0.01639623
0.016306191
0.016214734
0.01612199
0.016028101
0.015934355
0.015839515
0.015743295
0.015646673
0.015550791
0.015454445
0.01535799
0.015262061
0.015166915
0.015072817
0.01498004
0.014888862
0.014799568
0.014712446
0.014627787
0.014545879
0.014467011
0.014391467
0.014319525
0.01425146
0.014187545
0.014128063
0.017906118
0.017860424
0.017813027
0.017763891
0.017712974
0.017660232
0.017605626
0.017549116
0.017490667
0.017430247
0.017367826
0.017303384
0.017236901
0.017168368
0.017097782
0.017025149
0.016950481
0.016873804
0.016795151
0.016714566
0.016632105
0.016547836
0.016461838
0.016374202
0.016285033
0.016194449
0.016102579
0.016009566
0.015916702
0.015822705
0.015727362
0.015631613
0.015536603
0.01544107
0.015345468
0.015250385
0.015156076
0.015062804
0.014970841
0.014880466
0.014791962
0.014705616
0.014621716
0.014540552
0.014462409
0.01438757
0.014316313
0.014248911
0.014185651
0.014126778
0.017864458
0.017819375
0.01777262
0.017724157
0.017673937
0.017621917
0.017568053
0.017512304
0.017454632
0.017395004
0.017333389
0.017269764
0.01720411
0.017136417
0.017066679
0.016994902
0.0169211
0.016845295
0.01676752
0.01668782
0.016606251
0.016522878
0.01643778
0.01635105
0.016262789
0.016173116
0.016082161
0.015990065
0.015898126
0.015805013
0.01571059
0.015615762
0.015521668
0.015426992
0.01533229
0.015238098
0.01514467
0.015052269
0.014961167
0.01487164
0.014783972
0.014698446
0.014615351
0.014534974
0.0144576
0.01438351
0.014312978
0.014246271
0.014183729
0.014125491
0.017821374
0.017776884
0.017730761
0.017682961
0.017633435
0.017582135
0.017529014
0.017474031
0.017417144
0.017358318
0.017297521
0.017234729
0.017169922
0.017103087
0.017034219
0.016963323
0.01689041
0.016815504
0.016738637
0.016659853
0.016579206
0.016496763
0.016412601
0.016326811
0.016239497
0.016150774
0.016060773
0.015969634
0.015878661
0.015786473
0.015693016
0.015599154
0.01550602
0.015412249
0.015318491
0.015225234
0.015132733
0.015041249
0.014951054
0.014862422
0.014775635
0.014690976
0.014608732
0.014529188
0.014452627
0.014379329
0.014309568
0.014243607
0.014181798
0.014124244
0.017777051
0.017733128
0.017687614
0.017640461
0.017591615
0.017541026
0.017488644
0.017434424
0.017378323
0.017320304
0.017260333
0.017198384
0.017134436
0.017068474
0.017000494
0.016930498
0.016858498
0.016784515
0.016708581
0.01663074
0.016551046
0.016469563
0.016386369
0.016301555
0.016215222
0.016127487
0.016038477
0.015948335
0.015858368
0.015767143
0.015674697
0.015581849
0.015489722
0.0153969
0.01530413
0.015211853
0.015120324
0.015029804
0.014940562
0.014852871
0.014767012
0.014683267
0.01460192
0.014523255
0.014447553
0.014375094
0.014306147
0.014240979
0.014179935
0.014123108
0.017731731
0.017688338
0.0176434
0.017596866
0.017548679
0.017498783
0.017447126
0.01739366
0.017338339
0.017281124
0.017221981
0.017160879
0.017097797
0.017032719
0.016965639
0.016896559
0.016825489
0.016752449
0.016677472
0.016600598
0.016521882
0.016441389
0.016359194
0.016275387
0.01619007
0.016103357
0.016015376
0.015926267
0.015837343
0.015747119
0.015655728
0.015563948
0.015472871
0.01538104
0.015289301
0.015198049
0.015107537
0.015018027
0.014929784
0.014843082
0.014758198
0.014675414
0.01459501
0.014517271
0.014442475
0.014370899
0.014302814
0.014238482
0.014178242
0.014122186
0.017685728
0.017642813
0.017598407
0.017552454
0.017504892
0.017455662
0.017404707
0.017351977
0.017297423
0.017241003
0.01718268
0.017122423
0.017060208
0.016996019
0.016929847
0.016861692
0.016791565
0.016719485
0.016645482
0.016569597
0.016491883
0.016412404
0.016331235
0.016248465
0.016164195
0.016078537
0.015991619
0.015903579
0.015815734
0.015726543
0.015636247
0.015545603
0.015455613
0.015364813
0.015274146
0.015183962
0.015094513
0.015006058
0.014918862
0.014833196
0.014749335
0.014667558
0.014588146
0.01451138
0.014437537
0.014366891
0.014299712
0.014236261
0.014176868
0.014121626
0.017639445
0.017596941
0.017553009
0.017507586
0.017460605
0.017412002
0.017361716
0.017309694
0.017255883
0.01720024
0.017142723
0.017083302
0.017021948
0.016958645
0.016893382
0.016826159
0.016756983
0.016685873
0.016612858
0.016537978
0.016461285
0.016382842
0.016302723
0.016221017
0.016137822
0.016053251
0.015967429
0.015880491
0.015793756
0.015705623
0.015616442
0.015527058
0.015438165
0.015348428
0.015258872
0.0151698
0.015081459
0.014994106
0.014908003
0.01482342
0.014740629
0.014659909
0.014581536
0.014505791
0.014432948
0.014363281
0.014297055
0.014234532
0.014176029
0.014121647
0.017593396
0.017551224
0.017507692
0.017462734
0.017416276
0.017368249
0.017318589
0.017267235
0.017214135
0.01715924
0.017102508
0.017043903
0.016983398
0.016920972
0.016856613
0.016790318
0.016722095
0.016651961
0.016579942
0.016506079
0.016430422
0.016353032
0.016273984
0.016193365
0.016111272
0.016027816
0.015943119
0.015857316
0.015771723
0.015684661
0.015596516
0.015508743
0.01542082
0.01533218
0.015243779
0.015155864
0.015068677
0.014982472
0.01489751
0.014814058
0.014732386
0.01465277
0.014575486
0.01450081
0.014429017
0.014360375
0.014295152
0.014233604
0.014176038
0.014122562
0.017548245
0.017506303
0.017463084
0.017418512
0.017372505
0.017324991
0.017275898
0.017225164
0.01717273
0.017118545
0.017062565
0.01700475
0.01694507
0.016883504
0.016820036
0.016754662
0.016687388
0.016618228
0.01654721
0.01647437
0.016399759
0.016323436
0.016245475
0.016165961
0.016084992
0.016002677
0.015919137
0.015834502
0.015750089
0.015664158
0.015577209
0.015490789
0.01540395
0.015316498
0.0152293
0.015142587
0.015056601
0.014971592
0.014887819
0.014805546
0.014725043
0.014646582
0.014570437
0.014496881
0.014426186
0.014358621
0.01429445
0.014233931
0.01417735
0.01412483
0.017504838
0.01746301
0.017419998
0.017375716
0.017330076
0.017282996
0.017234401
0.017184222
0.017132399
0.017078876
0.017023604
0.016966543
0.016907658
0.016846925
0.016784328
0.016719859
0.016653522
0.016585331
0.016515311
0.016443496
0.016369935
0.016294688
0.016217826
0.016139434
0.016059608
0.015978457
0.015896101
0.015812667
0.015729472
0.01564472
0.015559024
0.015473904
0.0153882
0.015301999
0.015216052
0.015130589
0.015045851
0.014962087
0.014879553
0.014798511
0.014719228
0.014641974
0.014567021
0.01449464
0.014425099
0.014358663
0.014295596
0.014236168
0.014180623
0.014129112
0.017464265
0.017422416
0.017379489
0.017335388
0.017290012
0.017243274
0.017195092
0.017145394
0.017094114
0.017041192
0.016986575
0.01693022
0.016872089
0.016812156
0.016750401
0.016686814
0.016621398
0.016554162
0.016485131
0.016414338
0.016341829
0.016267662
0.016191907
0.01611465
0.016035985
0.01595602
0.015874874
0.015792673
0.015710731
0.015627197
0.015542791
0.015458978
0.015374458
0.015289555
0.015204906
0.015120743
0.015037304
0.014954837
0.014873596
0.01479384
0.014715834
0.014639847
0.014566145
0.014494998
0.014426672
0.014361426
0.014299516
0.014241262
0.014186802
0.01413636
0.017427929
0.017385904
0.017342927
0.017298881
0.017253654
0.01720715
0.017159283
0.017109976
0.017059157
0.017006763
0.016952738
0.016897032
0.016839607
0.01678043
0.016719481
0.016656747
0.016592227
0.016525929
0.016457875
0.016388096
0.016316636
0.016243551
0.016168911
0.016092799
0.016015309
0.015936551
0.015856643
0.015775708
0.015695056
0.015612779
0.015529702
0.015447226
0.015363943
0.015280385
0.015197086
0.015114276
0.015032193
0.014951083
0.014871196
0.014792791
0.014716129
0.014641475
0.014569095
0.014499254
0.014432215
0.014368235
0.014307567
0.01425053
0.014197242
0.014147946
0.017396974
0.017355257
0.017312092
0.017267963
0.017222752
0.017176358
0.017128693
0.017079674
0.017029224
0.016977274
0.016923765
0.016868643
0.016811865
0.016753395
0.016693209
0.016631292
0.016567639
0.016502257
0.016435164
0.01636639
0.016295975
0.016223974
0.016150456
0.016075499
0.015999202
0.015921673
0.015843034
0.015763409
0.015684086
0.015603108
0.015521411
0.015440318
0.015358332
0.015276175
0.015194286
0.015112895
0.015032238
0.014952558
0.014874103
0.014797128
0.014721893
0.014648658
0.014577686
0.014509241
0.014443581
0.014380961
0.014321631
0.014265897
0.014213882
0.014165828
0.017373197
0.017332325
0.017289301
0.017244933
0.017199585
0.017153162
0.017105571
0.017056724
0.017006538
0.016954939
0.016901862
0.016847249
0.016791053
0.016733233
0.016673763
0.016612623
0.016549807
0.016485318
0.01641917
0.016351392
0.016282021
0.01621111
0.016138724
0.016064941
0.015989856
0.015913583
0.015836252
0.015758005
0.015680056
0.01560043
0.015520193
0.01544054
0.015359925
0.015279241
0.015198843
0.015118958
0.015039819
0.014961666
0.014884744
0.014809306
0.014735606
0.014663904
0.014594458
0.014527529
0.014463371
0.014402237
0.014344372
0.014290069
0.014239459
0.014192778
0.017362496
0.017319035
0.017277395
0.017232772
0.017187106
0.017140496
0.017092839
0.017044036
0.016994
0.016942649
0.016889913
0.01683573
0.016780045
0.016722817
0.016664013
0.016603612
0.016541602
0.016477985
0.016412772
0.016345987
0.016277668
0.016207861
0.01613663
0.016064049
0.01599021
0.015915223
0.015839239
0.015762531
0.015685984
0.015607758
0.015529146
0.015450985
0.015371839
0.015292732
0.015213939
0.015135683
0.015058191
0.014981701
0.014906455
0.014832701
0.014760691
0.01469068
0.014622925
0.01455768
0.014495197
0.014435726
0.014379508
0.014326818
0.014277801
0.014232679
0.017366888
0.017321939
0.017279209
0.017235268
0.017189085
0.017142124
0.017094252
0.01704536
0.016995352
0.016944142
0.016891652
0.016837814
0.016782572
0.016725877
0.016667694
0.016607996
0.016546771
0.016484014
0.016419736
0.016353957
0.016286711
0.016218044
0.016148012
0.016076688
0.016004151
0.015930488
0.015855764
0.015781176
0.015705867
0.015628994
0.015552541
0.015475761
0.015398244
0.015320873
0.015243855
0.015167405
0.015091749
0.015017118
0.014943753
0.014871896
0.014801797
0.014733708
0.014667879
0.014604563
0.014544005
0.014486452
0.014432147
0.014381334
0.014334183
0.014290892
0.017391639
0.017345849
0.017300085
0.017256114
0.017210269
0.01716281
0.017114575
0.017065455
0.017015352
0.016964172
0.016911834
0.016858263
0.016803398
0.016747187
0.016689589
0.016630574
0.016570126
0.016508238
0.016444917
0.01638018
0.016314058
0.016246595
0.016177845
0.016107875
0.016036763
0.015964594
0.015891455
0.015818682
0.015744912
0.015669805
0.015595321
0.015520229
0.015444636
0.015369242
0.015294248
0.015219867
0.015146321
0.015073837
0.01500265
0.014933002
0.014865138
0.014799305
0.014735749
0.014674716
0.014616446
0.014561175
0.01450919
0.014460632
0.014415745
0.014374682
0.017489571
0.017442277
0.017395163
0.0173482
0.017301148
0.017256239
0.0172085
0.01715974
0.017110251
0.017059929
0.017008676
0.016956403
0.016903031
0.016848493
0.016792733
0.016735705
0.016677377
0.016617727
0.016556746
0.016494439
0.016430819
0.016365916
0.01629977
0.016232435
0.016163975
0.016094469
0.016024003
0.015952678
0.015881837
0.015809874
0.015736846
0.01566452
0.015591451
0.015518118
0.015445047
0.015372442
0.015300512
0.015229473
0.015159551
0.015090977
0.015023988
0.014958828
0.014895741
0.014834959
0.014776724
0.014721272
0.014668836
0.014619687
0.014573945
0.014531848
0.014493536
0.017573959
0.017526098
0.017477321
0.017428663
0.017379917
0.017333646
0.017286383
0.017236939
0.017186946
0.017136293
0.017084876
0.017032599