/*--------------------------------*- C++ -*----------------------------------*\
| =========                 |                                                 |
| \\      /  F ield         | OpenFOAM: The Open Source CFD Toolbox           |
|  \\    /   O peration     | Version:  2312                                  |
|   \\  /    A nd           | Website:  www.openfoam.com                      |
|    \\/     M anipulation  |                                                 |
\*---------------------------------------------------------------------------*/
FoamFile
{
    version     2.0;
    format      ascii;
    arch        "LSB;label=32;scalar=64";
    class       volScalarField;
    location    "0.03";
    object      CH4;
}
// * * * * * * * * * * * * * * * * * * * * * * * * * * * * * * * * * * * * * //

dimensions      [0 0 0 0 0 0 0];

internalField   nonuniform List<scalar> 
3250
(
0.100052
0.098272353
0.096422725
0.094529445
0.092620437
0.090694182
0.088749497
0.086785526
0.084801717
0.082797813
0.08077383
0.078730053
0.076667019
0.074585512
0.072486552
0.070371386
0.068241481
0.066098507
0.063944326
0.06178098
0.059610665
0.057435736
0.055258731
0.053082634
0.050911989
0.048756757
0.046632804
0.044567145
0.042455519
0.040361322
0.038293028
0.036310721
0.034314875
0.032347234
0.030419839
0.028536683
0.026701716
0.02491872
0.023191239
0.021522573
0.019915755
0.018373528
0.016898286
0.015491898
0.014157632
0.01289882
0.01171386
0.010603367
0.0095841888
0.10003736
0.09825887
0.096409188
0.094517036
0.092609038
0.090683726
0.088739932
0.086776805
0.084793802
0.082790664
0.080767415
0.078724339
0.076661975
0.07458111
0.072482763
0.070368184
0.068238839
0.066096398
0.063942724
0.061779857
0.059609997
0.057435502
0.055258932
0.053083341
0.050913361
0.048758357
0.046634013
0.044568624
0.042457673
0.040363822
0.038295723
0.036313573
0.034317918
0.032350443
0.030423194
0.028540163
0.026705298
0.024922377
0.02319495
0.021526317
0.019919519
0.01837732
0.016902178
0.015496224
0.01416219
0.012902669
0.011717374
0.010606341
0.0095871947
0.10000437
0.09822792
0.096377853
0.094487716
0.092581543
0.090657924
0.088715719
0.08675409
0.084772504
0.082770712
0.080748741
0.078706884
0.076645682
0.074565926
0.07246864
0.070355074
0.068226697
0.066085182
0.063932393
0.061770371
0.059601319
0.057427597
0.055251786
0.053076988
0.050907905
0.048753301
0.046629284
0.044564442
0.042454295
0.040361034
0.038293422
0.036311707
0.03431648
0.032349417
0.030422555
0.028539886
0.026705355
0.024922741
0.023195593
0.021527216
0.019920656
0.018378691
0.016903821
0.015498296
0.014164548
0.012904759
0.011719336
0.010608126
0.0095890723
0.099953064
0.098179381
0.096328727
0.09444146
0.09253791
0.090616728
0.088676803
0.086717319
0.084737758
0.082737884
0.080717734
0.078677607
0.076618055
0.074539873
0.072444089
0.07033196
0.068204958
0.066064758
0.06391323
0.061752416
0.059584522
0.057411912
0.05523718
0.053063462
0.050895509
0.048741633
0.046618408
0.044554407
0.042445254
0.040352841
0.038286006
0.036305006
0.034310445
0.032344043
0.030417809
0.028535739
0.026701779
0.024919704
0.023193065
0.021525168
0.019919065
0.018377541
0.016903123
0.015498101
0.014164736
0.012904994
0.011719676
0.010608639
0.009589781
0.099883786
0.098113187
0.096261911
0.094378356
0.092478222
0.090560214
0.088623257
0.086666565
0.084689636
0.082692251
0.080674463
0.07863658
0.076579165
0.07450302
0.072409182
0.070298914
0.068173693
0.066035201
0.06388531
0.061726067
0.059559681
0.057388524
0.055215194
0.053042853
0.050876283
0.04872349
0.046601423
0.044538548
0.042430617
0.040339323
0.038273554
0.036293548
0.03429989
0.032334398
0.030409035
0.028527802
0.026694647
0.024913343
0.023187442
0.021520248
0.019914817
0.018373941
0.016900153
0.015495752
0.014162893
0.012903432
0.011718439
0.010607929
0.0095893967
0.099802155
0.098034029
0.096182372
0.094303116
0.092406944
0.090492619
0.08855911
0.086605655
0.084631779
0.082637283
0.080622231
0.07858695
0.07653201
0.074458225
0.072366641
0.070258529
0.068135372
0.065998859
0.063850868
0.06169345
0.05952882
0.057359353
0.055187654
0.053016897
0.050851894
0.048700446
0.046579771
0.044518227
0.042411678
0.040321703
0.038257214
0.03627841
0.034285825
0.032321425
0.030397107
0.028516886
0.026684709
0.024904349
0.023179355
0.021513032
0.019908434
0.018368357
0.016895334
0.015491651
0.014159394
0.01290037
0.011715862
0.010606208
0.009588102
0.099711455
0.097944265
0.096092777
0.094218299
0.09232652
0.090416282
0.088486597
0.086536737
0.084566249
0.082574957
0.080562942
0.078530546
0.076478352
0.074407185
0.072318102
0.070212381
0.068091515
0.0659572
0.063811318
0.06165593
0.059493252
0.057325666
0.055155783
0.052986781
0.050823483
0.048673614
0.046554477
0.044494436
0.0423894
0.040300906
0.038237869
0.036260431
0.034269053
0.032305887
0.030382755
0.028503683
0.02667262
0.024893339
0.023169385
0.021504063
0.019900426
0.018361267
0.016889114
0.015486236
0.014154665
0.012896173
0.01171224
0.010603777
0.0095861505
0.099605685
0.097836253
0.095986219
0.094117348
0.092230727
0.090325296
0.088400111
0.08645448
0.084487982
0.082500461
0.080492022
0.078463021
0.07641406
0.074345975
0.072259836
0.070156932
0.068038764
0.065907037
0.063763643
0.061610646
0.059450273
0.057284908
0.055117168
0.052950235
0.050788933
0.048640964
0.046523647
0.044465387
0.042362121
0.04027539
0.038214092
0.036238293
0.034248348
0.032286655
0.030364939
0.028487242
0.026657517
0.024879534
0.023156834
0.021492719
0.019890241
0.018352189
0.016881084
0.015479168
0.014148422
0.012890577
0.011707292
0.010600544
0.009583433
0.099485133
0.097707064
0.095861694
0.09399917
0.092118513
0.090218653
0.088298688
0.086357967
0.084396098
0.082412956
0.080408668
0.078383611
0.076338404
0.0742739
0.07219118
0.070091548
0.067976515
0.065847797
0.063707294
0.06155708
0.059399388
0.057236608
0.055071365
0.052906839
0.050747852
0.048602115
0.046486926
0.04443074
0.042329523
0.040244859
0.03818561
0.036211743
0.034223473
0.032263507
0.030343455
0.028467375
0.026639227
0.024862775
0.023141557
0.021478871
0.019877764
0.018341023
0.016871154
0.015470375
0.014140609
0.012883516
0.011700847
0.01059659
0.0095799184
0.099339933
0.097556039
0.09571786
0.093862591
0.09198876
0.090095284
0.088181307
0.086246218
0.084289664
0.082311549
0.080312027
0.0782915
0.076250604
0.074190212
0.072111421
0.070015548
0.067904119
0.065778859
0.063641681
0.061494668
0.05934006
0.057180257
0.055017887
0.052856132
0.050699806
0.048556648
0.046443923
0.044390119
0.042291251
0.040208981
0.038152117
0.036180496
0.034194158
0.032236191
0.030318066
0.028443864
0.026617547
0.024842878
0.023123386
0.021462364
0.019862856
0.018327642
0.016859217
0.015459767
0.014131157
0.012874923
0.011692607
0.010592104
0.0095755444
0.099170013
0.097382553
0.095553343
0.093706374
0.091840291
0.089954063
0.088046887
0.086118198
0.084167686
0.082195287
0.080201188
0.078185813
0.076149824
0.074094112
0.072019794
0.0699282
0.067820874
0.065699554
0.063566164
0.061422798
0.059271707
0.057115298
0.054956205
0.052797611
0.050644314
0.048504102
0.046394214
0.044343117
0.042246915
0.040167388
0.038113274
0.036144236
0.034160104
0.032204424
0.030288508
0.028416462
0.026592252
0.024819632
0.023102127
0.021443022
0.019845356
0.018311904
0.016845144
0.015447239
0.014119987
0.012864756
0.011681989
0.010587558
0.0095701727
0.098974094
0.097185654
0.095366812
0.093529228
0.091671868
0.0897938
0.087894285
0.085972812
0.084029113
0.082063165
0.080075185
0.078065626
0.076035177
0.07398475
0.071915482
0.069828724
0.067726034
0.065609166
0.063480058
0.061340816
0.059193704
0.057041136
0.054885751
0.052730728
0.050580853
0.048443971
0.046337347
0.044289296
0.042196089
0.040119679
0.038068716
0.036102619
0.034120983
0.032167897
0.03025449
0.028384898
0.026563088
0.024792806
0.023077567
0.021420649
0.019825087
0.018293645
0.016828794
0.015432666
0.014107012
0.012853089
0.011671157
0.010580624
0.0095635366
0.098749733
0.096964193
0.095156918
0.093329811
0.091482194
0.089613248
0.087722303
0.085808908
0.08387284
0.081914119
0.079932997
0.07792996
0.075905722
0.073861224
0.071797622
0.06971629
0.067618803
0.065506933
0.063382633
0.061248025
0.059105382
0.056957131
0.054805913
0.0526549
0.050508852
0.048375692
0.046272854
0.044228193
0.042138317
0.040065421
0.03801805
0.036055277
0.034076441
0.032126272
0.030215695
0.028348876
0.026529781
0.024762145
0.023049471
0.02139503
0.01980185
0.018272689
0.016810004
0.01541591
0.014092119
0.01283984
0.011659428
0.010571779
0.009555537
0.098492653
0.096717243
0.094922269
0.093106728
0.091269916
0.0894111
0.087529685
0.085625276
0.083697704
0.081747032
0.079773551
0.077777782
0.07576047
0.073722582
0.071665301
0.069590022
0.067498341
0.06539205
0.063273118
0.061143684
0.059006034
0.056862606
0.054716043
0.0525695
0.050427691
0.04829863
0.046200278
0.044159325
0.04207311
0.040004147
0.037960858
0.036001815
0.034026099
0.032079188
0.030171783
0.028308079
0.026492037
0.024727377
0.023017588
0.021365933
0.019775434
0.018248841
0.016788602
0.015396815
0.014075171
0.012824864
0.011646382
0.010561217
0.0095461162
0.098204234
0.096442795
0.094661342
0.092858518
0.091033622
0.089185997
0.087315118
0.085420654
0.083502489
0.081560734
0.079595722
0.077608011
0.07559838
0.073567825
0.071517558
0.069448997
0.067363763
0.065263666
0.063150698
0.061027012
0.058894912
0.056756846
0.054615457
0.052473868
0.050336699
0.048212036
0.046119217
0.044082191
0.041999945
0.039935355
0.037896708
0.035941822
0.033969552
0.032026259
0.030122391
0.028262169
0.026449541
0.024688209
0.022981648
0.021333111
0.019745612
0.018221896
0.016764401
0.015375213
0.01405601
0.01280799
0.011631743
0.01054898
0.0095352135
0.097884466
0.09613915
0.094372555
0.092583666
0.090771849
0.088936524
0.087077239
0.085193727
0.08328593
0.081354007
0.079398337
0.077419519
0.075418366
0.073395909
0.071353388
0.06929225
0.06721414
0.065120892
0.063014517
0.06089719
0.058771231
0.056639099
0.054503435
0.052367311
0.050235174
0.048115009
0.046029366
0.043996268
0.041918256
0.0398585
0.037825154
0.035874866
0.033906376
0.031967075
0.030067134
0.028210787
0.026401961
0.024644335
0.022941367
0.021296301
0.019712143
0.018191633
0.0167372
0.015350921
0.014034468
0.012789043
0.011615301
0.010535026
0.0095227623
0.097532732
0.095804695
0.094054289
0.092280602
0.090483078
0.088661215
0.086814633
0.084943131
0.083046709
0.081125582
0.079180174
0.077211127
0.075219295
0.073205742
0.071171743
0.069118772
0.067048503
0.064962795
0.062863682
0.06075336
0.058634167
0.056508578
0.054379226
0.052249117
0.05012244
0.048006616
0.045930353
0.043900978
0.041827434
0.039772988
0.037745754
0.035800502
0.033836117
0.031901205
0.030005608
0.028153556
0.026348947
0.02459543
0.022896446
0.021255228
0.019674776
0.018157822
0.01670679
0.015323748
0.014010365
0.012767846
0.011596883
0.010519272
0.0095086901
0.097146765
0.095437699
0.093704873
0.091947708
0.090165744
0.088358556
0.086525837
0.084667452
0.082783465
0.080874143
0.078939964
0.076981614
0.074999988
0.072996191
0.07097153
0.068927513
0.066865842
0.064788404
0.062697259
0.060594626
0.058482864
0.056364461
0.054242049
0.052118562
0.049997961
0.047887372
0.045820344
0.043795498
0.041726811
0.039678151
0.037658088
0.035718272
0.033758299
0.031828188
0.029937384
0.028090082
0.026290133
0.024541155
0.022846572
0.021209604
0.019633244
0.01812022
0.016672949
0.015293493
0.013983514
0.012744222
0.011576324
0.010501607
0.0094929064
0.096724975
0.095036421
0.093322593
0.091583319
0.089818234
0.088026987
0.086209343
0.084365234
0.082494789
0.080598333
0.078676396
0.076729714
0.074759227
0.07276608
0.070751617
0.068717381
0.066665107
0.06459671
0.062514279
0.060420057
0.058316426
0.056205892
0.054091085
0.051974869
0.049860917
0.047755668
0.045699611
0.043679214
0.041615707
0.039573205
0.037561815
0.035627705
0.033672409
0.031747543
0.029862018
0.028019953
0.026225137
0.024481157
0.022791416
0.021159125
0.01958727
0.018078574
0.016635446
0.015259945
0.013953724
0.012717994
0.011553466
0.010481906
0.0094753052
0.097907604
0.096266228
0.094599108
0.092905691
0.091185728
0.089438896
0.087664908
0.085863601
0.084034978
0.082179231
0.080296749
0.078388116
0.076454121
0.07449575
0.072514192
0.070510831
0.068487247
0.06644521
0.064386666
0.062313734
0.060228685
0.058133926
0.056031982
0.053925487
0.051817231
0.049710415
0.047607816
0.04557053
0.043551504
0.041493399
0.039457136
0.037456792
0.035528306
0.033577896
0.031658758
0.029779043
0.027942738
0.026153562
0.024415066
0.022730637
0.021103477
0.019536566
0.018032619
0.016594041
0.015222883
0.013920795
0.012688979
0.011528145
0.010460027
0.0094557657
0.097385811
0.095767983
0.094123842
0.092452358
0.090753188
0.089026036
0.087270679
0.085487023
0.083675144
0.081835303
0.079967951
0.078073733
0.076153489
0.074208258
0.072239272
0.070247961
0.068235944
0.066205026
0.064157189
0.062094582
0.060019508
0.057934401
0.055841808
0.053744375
0.051644845
0.049546152
0.047450648
0.045424807
0.043411157
0.041359148
0.039328404
0.037343374
0.035419491
0.033474155
0.0315613
0.029687977
0.027857993
0.026074994
0.024342499
0.022663881
0.021042333
0.019480829
0.017982079
0.016548483
0.015182082
0.01388452
0.01265699
0.011500192
0.010435815
0.0094341478
0.096819604
0.095228036
0.093608677
0.091960749
0.09028392
0.088577932
0.086842628
0.085077988
0.083284162
0.081461482
0.079610465
0.077731817
0.075826437
0.073895413
0.071940031
0.069961762
0.067962269
0.065943395
0.063907161
0.061855748
0.059791492
0.057716856
0.055634416
0.053546834
0.051456843
0.04936726
0.047280578
0.045264398
0.043257679
0.041212423
0.039184039
0.03722348
0.03530033
0.033360496
0.031454611
0.029588322
0.027765257
0.025989006
0.02426306
0.02259078
0.020975354
0.019419749
0.01792667
0.01649851
0.015137304
0.013844687
0.012621836
0.011469432
0.0104091
0.0094102807
0.096207471
0.094644408
0.093051681
0.091429005
0.089776122
0.088092835
0.086379057
0.084634846
0.082860431
0.081056214
0.079222784
0.077360909
0.075471549
0.073555849
0.071615143
0.069650953
0.067664985
0.065659125
0.063635432
0.061596124
0.05954357
0.057480266
0.055408819
0.053331915
0.051252298
0.049172752
0.047095912
0.045089398
0.043090606
0.041053454
0.039032566
0.037087416
0.035169062
0.033236193
0.031338129
0.029479568
0.027664059
0.025895156
0.024176337
0.022510953
0.020902187
0.019353002
0.017866095
0.016443854
0.015088306
0.013801075
0.012583319
0.011435681
0.010379688
0.0093839373
0.097051199
0.095548398
0.094015235
0.092450943
0.090855259
0.089227981
0.08756898
0.085878248
0.084155928
0.082402325
0.080617922
0.078803375
0.076959522
0.075087385
0.073188167
0.071263256
0.069314226
0.067342828
0.065350994
0.063340822
0.061314571
0.059274646
0.057223577
0.055164004
0.053098642
0.051030261
0.048961647
0.04689553
0.044899272
0.042909275
0.040881481
0.038870241
0.036937277
0.035025314
0.03310069
0.031211311
0.029361201
0.027553913
0.025792991
0.024081907
0.022424009
0.020822472
0.019280254
0.017800048
0.016384235
0.015034835
0.013753458
0.012541238
0.011398757
0.01034737
0.0093547745
0.096309511
0.094839854
0.093338535
0.091804553
0.090237649
0.088637679
0.087004596
0.085338477
0.08363955
0.081908207
0.080145008
0.078350686
0.076526148
0.074672479
0.072790946
0.070882993
0.068950246
0.066994507
0.065017753
0.063022127
0.061009928
0.058983599
0.05694571
0.054898932
0.052846018
0.050789764
0.048732985
0.046678471
0.044693251
0.042712876
0.040695519
0.038695085
0.036773486
0.034868734
0.032953516
0.031073621
0.029232696
0.027434321
0.025682045
0.023979337
0.022329542
0.020735833
0.019201162
0.017728216
0.016319366
0.014976629
0.013701604
0.012495394
0.011358494
0.010311963
0.0093221831
0.095513533
0.094079716
0.092612358
0.091110624
0.089574329
0.088003412
0.086397917
0.084758015
0.083084026
0.08137643
0.079635869
0.077863153
0.076059263
0.074225351
0.072362747
0.070472956
0.068557658
0.066618709
0.064658132
0.062678117
0.060681007
0.058669286
0.056645561
0.054612543
0.052573019
0.050529824
0.048485805
0.046443803
0.044470482
0.042500537
0.040494594
0.038505861
0.036595775
0.034698889
0.032794162
0.030924509
0.029093516
0.027304776
0.025561839
0.02386818
0.022227141
0.020641891
0.019115375
0.017650273
0.016248952
0.014913422
0.013645275
0.012445592
0.011314784
0.010273524
0.094661756
0.093266112
0.091834833
0.090367313
0.088863486
0.087323397
0.085747194
0.084135148
0.082487677
0.080805351
0.079088898
0.077339208
0.075557338
0.073744511
0.071902121
0.070031736
0.068135095
0.066214106
0.064270845
0.062307549
0.060326607
0.058330544
0.056322011
0.054303757
0.052278609
0.05024944
0.048219139
0.046190597
0.044230071
0.042271367
0.040277789
0.03830162
0.036403606
0.034515321
0.032622
0.030763396
0.028943113
0.027164757
0.025431888
0.023747983
0.022116384
0.020540255
0.019022534
0.017565892
0.01617269
0.014844936
0.013584223
0.012391634
0.011267596
0.010233181
0.093752589
0.092397296
0.091004179
0.089572841
0.088103357
0.086595894
0.08505071
0.083468188
0.081848843
0.080193342
0.078502499
0.07677729
0.075018847
0.073228467
0.071407615
0.069557919
0.06768118
0.065779363
0.063854596
0.061909167
0.059945511
0.057966199
0.055973926
0.053971481
0.051961734
0.049947599
0.047932011
0.045917912
0.043971109
0.042024469
0.040044236
0.038081523
0.036196324
0.034317454
0.032436416
0.030589695
0.028780928
0.027013737
0.025291696
0.023618284
0.021996844
0.020430531
0.018922275
0.017474738
0.016090272
0.014770885
0.013518186
0.01233328
0.011216628
0.010189349
0.092784464
0.091471627
0.090118711
0.08872551
0.087292246
0.085819215
0.084306797
0.082755484
0.081165897
0.079538799
0.077875098
0.076175852
0.074442275
0.07267574
0.07087778
0.069050093
0.067194539
0.065313142
0.063408086
0.06148171
0.059536499
0.057575071
0.055600165
0.053614615
0.051621334
0.049623281
0.047623437
0.0456248
0.043692678
0.041758936
0.039793108
0.037844774
0.035973224
0.034104659
0.032236786
0.030402808
0.028606393
0.026851183
0.025140764
0.02347862
0.021868089
0.02031232
0.018814232
0.017376472
0.016001384
0.014690975
0.013446878
0.012270261
0.011161623
0.010141756
0.091755909
0.090487572
0.089176852
0.08782372
0.086428543
0.084991751
0.083513848
0.081995441
0.080437258
0.078840161
0.077205153
0.075533378
0.073826133
0.072084868
0.070311188
0.068506859
0.066673806
0.064814112
0.06293002
0.061023921
0.059098351
0.057155978
0.055199587
0.053232057
0.051256346
0.04927546
0.04729243
0.045310311
0.043393861
0.041473868
0.039523591
0.037590585
0.035733584
0.033876278
0.032022481
0.030202135
0.028418939
0.026676558
0.02497859
0.023328521
0.021729686
0.020185224
0.018698038
0.017270759
0.015905712
0.014604902
0.013369993
0.012202277
0.011102432
0.010090328
0.090665593
0.089443738
0.088177158
0.086865989
0.085510742
0.084111983
0.08267034
0.081186537
0.07966141
0.078095923
0.076491172
0.074848394
0.073168967
0.07145442
0.069706433
0.067926841
0.066117635
0.064280961
0.062419119
0.060534555
0.058629859
0.056707748
0.054771055
0.052822709
0.050865711
0.048903115
0.046938006
0.044973498
0.043073749
0.041168439
0.039234814
0.037318173
0.035476677
0.033631649
0.031792868
0.029987073
0.028217997
0.026489327
0.024804673
0.023167524
0.021581207
0.020048847
0.018573331
0.017157265
0.01580295
0.014512364
0.013287186
0.012128926
0.011039064
0.010035024
0.089512362
0.088338898
0.087118335
0.085850975
0.084537466
0.083178507
0.081774851
0.080327337
0.078836914
0.077304646
0.075731726
0.074119479
0.07246937
0.070783008
0.069062149
0.067308697
0.065524711
0.0637124
0.061874124
0.060012385
0.058129829
0.056229223
0.054313449
0.052385485
0.050448379
0.048505234
0.046559188
0.044613419
0.042731432
0.040841793
0.038925946
0.037026775
0.03520179
0.033370115
0.031547321
0.029757025
0.028003
0.026288957
0.024618517
0.022995166
0.021422224
0.019902799
0.018439755
0.01703567
0.015692804
0.014413073
0.013198073
0.012049444
0.01097197
0.0099757792
0.088295276
0.087172015
0.085999271
0.084777498
0.083507481
0.082190047
0.080826074
0.079416516
0.077962429
0.07646498
0.07492546
0.073345283
0.071726001
0.070069302
0.068377019
0.066651129
0.064893757
0.063107177
0.061293809
0.059456216
0.057597095
0.055719268
0.053825668
0.05191932
0.050003321
0.048080821
0.046155015
0.044229141
0.042366008
0.040493076
0.038596176
0.036715649
0.03490823
0.033091033
0.031285221
0.029511401
0.02777339
0.026074925
0.024419632
0.022810995
0.021252319
0.019746696
0.018296962
0.016905665
0.015575013
0.01430682
0.013102359
0.011961797
0.010903055
0.0099122525
0.087013633
0.085942276
0.084819051
0.083644561
0.082419721
0.081145482
0.079822842
0.078452867
0.077036723
0.075575676
0.074071112
0.072524538
0.070937589
0.069312036
0.067649787
0.065952892
0.064223545
0.062464084
0.060676991
0.058864887
0.057030524
0.05517678
0.053306639
0.051423174
0.049529531
0.047628906
0.045724545
0.043819751
0.041976582
0.040121432
0.038244705
0.036384094
0.034595342
0.032793784
0.031005966
0.029249621
0.027528618
0.025846715
0.024207541
0.022614569
0.021071088
0.019580167
0.018144619
0.016766958
0.015449351
0.014193551
0.013000762
0.011871366
0.010826618
0.0098431197
0.085666994
0.084649102
0.083576979
0.082451367
0.081273302
0.080043856
0.078764138
0.077435327
0.076058691
0.074635597
0.073167524
0.071656068
0.070102951
0.068510023
0.066879268
0.065212809
0.063512908
0.061781968
0.060022533
0.058237282
0.056429026
0.054600695
0.052755326
0.050896042
0.049026034
0.047148547
0.045266867
0.043384358
0.04156227
0.039726
0.037870732
0.036031472
0.034262521
0.03247777
0.030708962
0.028971114
0.027268146
0.025603827
0.023981779
0.022405459
0.020878135
0.019402853
0.017982398
0.016619258
0.015315573
0.014073076
0.012893006
0.01177602
0.010743952
0.0097687271
0.084255199
0.083292177
0.082272599
0.081197338
0.080067542
0.078884394
0.077649112
0.07636298
0.075027365
0.073643731
0.072213649
0.070738803
0.069220997
0.067662161
0.066064354
0.064429771
0.062760741
0.061059733
0.059329352
0.057572336
0.055791552
0.053989987
0.052170729
0.050336952
0.048491894
0.046638839
0.044781109
0.042922109
0.041122212
0.039305902
0.037473408
0.035657269
0.03390923
0.03214241
0.030393622
0.028675319
0.026991449
0.025345775
0.023741899
0.022183254
0.020673084
0.019214407
0.017809983
0.016462275
0.015173408
0.013945117
0.012778687
0.011674899
0.010655406
0.0096892748
0.082778378
0.081871449
0.080905699
0.07988212
0.078801963
0.077666513
0.076477087
0.075235069
0.073941921
0.072599199
0.071208562
0.069771779
0.068290734
0.066767436
0.065204017
0.063602742
0.061966007
0.060296345
0.058596421
0.056869033
0.055117104
0.053343675
0.051551889
0.049744971
0.047926206
0.046098913
0.04426644
0.042432203
0.040655586
0.03886022
0.037051688
0.035261285
0.033535003
0.031787105
0.030059344
0.028361673
0.026698014
0.02507209
0.023487471
0.021947561
0.020455574
0.019014498
0.017627067
0.01629572
0.015022571
0.013809371
0.012657444
0.011567595
0.010561034
0.0096048162
0.081236956
0.080387136
0.079476315
0.078505588
0.077476297
0.076389817
0.075247558
0.074050994
0.072801677
0.071501249
0.070151452
0.068754137
0.067311266
0.06582492
0.064297306
0.062730756
0.061127731
0.059490826
0.057822765
0.056126403
0.054404721
0.052660813
0.050897878
0.049119194
0.047328095
0.045527935
0.043722076
0.041913909
0.040161662
0.038387985
0.036603708
0.034844367
0.033139332
0.031411156
0.029705489
0.028029616
0.02638734
0.02478232
0.023218086
0.021698005
0.020225261
0.01880281
0.017433354
0.016119307
0.014862775
0.013665534
0.01252897
0.011453885
0.010460809
0.0095153308
0.079631636
0.078839716
0.07798472
0.077067833
0.076090472
0.075054091
0.073960183
0.072810302
0.071606082
0.070349245
0.069041613
0.06768511
0.066281774
0.064833758
0.063343334
0.061812902
0.060244985
0.058642237
0.057007442
0.055343508
0.05365347
0.051940479
0.050207788
0.048458732
0.046696698
0.044925082
0.04314726
0.041366576
0.039639907
0.037888389
0.036123837
0.034411803
0.032720969
0.031013629
0.029331373
0.02767859
0.026058941
0.02447603
0.022933345
0.021434225
0.019981816
0.018579041
0.017228564
0.015932766
0.014693737
0.013513293
0.012392969
0.011333669
0.010354696
0.0094207589
0.077963371
0.077229893
0.076431393
0.075569132
0.074644585
0.07365927
0.07261475
0.071512653
0.070354684
0.069142639
0.067878411
0.066563994
0.065201495
0.063793133
0.062341245
0.060848293
0.05931686
0.057749656
0.056149519
0.054519412
0.05286242
0.051181747
0.049480703
0.047762682
0.046031132
0.044289507
0.042541212
0.040789577
0.039090185
0.037363533
0.035626394
0.033947719
0.032276188
0.030593636
0.028936383
0.027308072
0.025712348
0.024152789
0.022632858
0.021155862
0.019724913
0.018342894
0.017012426
0.015735842
0.014515192
0.013352324
0.012249076
0.011207017
0.010242656
0.0093209944
0.0762333
0.075558539
0.074816968
0.074009899
0.073138849
0.072205386
0.071211131
0.070157773
0.069047082
0.067880918
0.066661235
0.065390094
0.064069663
0.062702221
0.061290168
0.059836019
0.058342417
0.056812122
0.055248025
0.053653136
0.05203059
0.050383641
0.048715652
0.047030082
0.045330448
0.04362028
0.041903042
0.040182076
0.03851166
0.036812049
0.035104712
0.0334561
0.03180611
0.030150753
0.02852
0.026917555
0.025347083
0.023812156
0.022316217
0.020862544
0.019454215
0.018094069
0.016784677
0.01552831
0.014326934
0.013182326
0.012096634
0.011074427
0.010124498
0.0092158332
0.074442657
0.073826605
0.073142138
0.072390593
0.071573506
0.070692482
0.069749189
0.068745367
0.067682839
0.066563518
0.065389415
0.064162644
0.06288543
0.061560108
0.06018913
0.058775065
0.057320605
0.055828562
0.05430187
0.052743585
0.051156884
0.049545067
0.047911546
0.046259843
0.044593561
0.042916327
0.041231693
0.039543026
0.037903182
0.036232382
0.034556275
0.03293759
0.031311119
0.029684494
0.028081682
0.02650649
0.024962615
0.023453631
0.021982959
0.020553848
0.019169337
0.017832223
0.016545027
0.015309956
0.01412886
0.013003159
0.011933508
0.010938403
0.0099992121
0.0091049366
0.072592624
0.07203498
0.071407531
0.07071159
0.069948697
0.069120484
0.068228655
0.06727499
0.066261353
0.065189701
0.064062089
0.06288068
0.061647744
0.060365664
0.059036941
0.05766419
0.056250149
0.054797671
0.053309734
0.051789431
0.050239976
0.048664704
0.047067071
0.045450656
0.043819152
0.042176322
0.040525863
0.038871167
0.037263434
0.035623094
0.033979654
0.032391755
0.030790796
0.029194234
0.027620742
0.026074189
0.024558287
0.023076595
0.021632511
0.020229246
0.018869798
0.017556922
0.016293096
0.015080484
0.013920892
0.012815699
0.011765745
0.010791479
0.0098661674
0.008987968
0.07068047
0.070184286
0.06961352
0.068972999
0.068264276
0.067489012
0.066648938
0.065745862
0.064781676
0.063758369
0.062678031
0.06154286
0.060355165
0.059117371
0.057832016
0.056501757
0.05512937
0.053717747
0.0522699
0.050788954
0.049278153
0.047740855
0.046180545
0.044600843
0.043005529
0.041398546
0.039783863
0.038164979
0.036590848
0.034982601
0.033373556
0.031817638
0.030244164
0.028678981
0.0271362
0.02561971
0.024133207
0.022680219
0.021264102
0.019888026
0.018554944
0.017267564
0.016028328
0.014839373
0.013702501
0.012619118
0.011590166
0.010635772
0.0097258798
0.0088647351
0.068705343
0.068272063
0.067760003
0.067174409
0.066519547
0.065797116
0.065008863
0.064156606
0.063242252
0.062267807
0.061235385
0.060147209
0.059005619
0.057813067
0.056572126
0.055285485
0.053955952
0.05258645
0.05118002
0.049739812
0.048269091
0.046771228
0.045249712
0.043708175
0.042150445
0.040580661
0.039003329
0.037422677
0.035883408
0.03430876
0.032736546
0.031213772
0.029669654
0.028137217
0.026626618
0.025141705
0.023686119
0.022263331
0.020876648
0.019529184
0.018223842
0.016963284
0.015749907
0.014585831
0.013472871
0.012412479
0.011405595
0.01047146
0.0095782736
0.0087349673
0.066680068
0.066293383
0.065845087
0.065314552
0.064712901
0.064042919
0.063306316
0.062504897
0.061640566
0.060715335
0.059731327
0.05869078
0.057596051
0.056449616
0.055254069
0.054012123
0.052726611
0.051400481
0.050036796
0.048638725
0.047209546
0.045752633
0.044271462
0.04276962
0.041250874
0.03971938
0.038180365
0.036642812
0.03513837
0.033597965
0.032067421
0.030577782
0.029064804
0.027566664
0.026089897
0.024638231
0.023215213
0.021824247
0.020468576
0.019151258
0.017875136
0.016642813
0.015456639
0.014318705
0.013230851
0.012194654
0.011211222
0.010298053
0.0094227867
0.0085981012
0.064594483
0.064259377
0.063861784
0.063390678
0.062841316
0.062223145
0.061537784
0.060787005
0.059972693
0.059096854
0.058161608
0.057169198
0.056121986
0.055022459
0.053873224
0.052677011
0.051436667
0.050155158
0.048835561
0.047481061
0.046094943
0.044680581
0.043241428
0.041780992
0.040302793
0.03881017
0.037305401
0.035828471
0.034351473
0.032841226
0.031369274
0.029904804
0.028425841
0.026964011
0.025523032
0.024106499
0.022717884
0.021360524
0.020037601
0.018752111
0.01750683
0.016304295
0.015146783
0.014036317
0.012974712
0.011963785
0.011006472
0.010114526
0.0092583494
0.0084531441
0.062446864
0.062164694
0.061810221
0.061392955
0.060899761
0.060332557
0.059697788
0.058997219
0.058232719
0.057406272
0.056519987
0.055576096
0.054576958
0.053525058
0.052423006
0.051273536
0.050079502
0.048843878
0.04756975
0.046260311
0.044918851
0.04354875
0.04215345
0.04073644
0.039301192
0.037851065
0.036389095
0.034958657
0.033516376
0.032047452
0.030620525
0.029187766
0.027748022
0.026324858
0.024921866
0.023542576
0.022190408
0.020868645
0.019580409
0.018328628
0.017116009
0.015945008
0.01481781
0.013736287
0.012701897
0.011715256
0.010793018
0.0099185296
0.0090832322
0.0082985045
0.060387865
0.060229474
0.059996895
0.059691658
0.059315185
0.058878823
0.058363345
0.057778205
0.057127166
0.056412053
0.05563482
0.054797545
0.053902439
0.052951843
0.051948229
0.050894197
0.049792474
0.048645912
0.047457481
0.046230267
0.044967465
0.043672366
0.042348353
0.040998877
0.039627442
0.038237567
0.036832755
0.035416489
0.034030921
0.032626864
0.031203278
0.029819942
0.028422873
0.027025209
0.025643238
0.024280641
0.022940943
0.021627524
0.02034361
0.019092259
0.017876328
0.016698448
0.015560997
0.014466082
0.013415531
0.012410887
0.011453276
0.010559992
0.0097063287
0.0088945778
0.0081317457
0.058044901
0.057933185
0.057746792
0.057487825
0.05715664
0.056765583
0.056304174
0.055767467