/*--------------------------------*- C++ -*----------------------------------*\
| =========                 |                                                 |
| \\      /  F ield         | OpenFOAM: The Open Source CFD Toolbox           |
|  \\    /   O peration     | Version:  2312                                  |
|   \\  /    A nd           | Website:  www.openfoam.com                      |
|    \\/     M anipulation  |                                                 |
\*---------------------------------------------------------------------------*/
FoamFile
{
    version     2.0;
    format      ascii;
    arch        "LSB;label=32;scalar=64";
    class       volScalarField;
    location    "0.03";
    object      k;
}
// * * * * * * * * * * * * * * * * * * * * * * * * * * * * * * * * * * * * * //

dimensions      [0 2 -2 0 0 0 0];

internalField   nonuniform List<scalar> 
3250
(
21.42055
21.114523
20.814226
20.51938
20.229707
19.944934
19.664786
19.388995
19.117295
18.84943
18.585149
18.324212
18.066385
17.81145
17.559197
17.30943
17.061967
16.816639
16.573295
16.331797
16.092029
15.853889
15.6173
15.38221
15.148595
14.916373
14.68537
14.455935
14.227915
14.001297
13.776179
13.552661
13.330854
13.11087
12.892828
12.676861
12.463117
12.251761
12.042972
11.836934
11.633841
11.433891
11.237285
11.044228
10.854976
10.66973
10.488644
10.31191
10.13971
21.416317
21.110506
20.810411
20.515754
20.22626
19.941657
19.66167
19.386032
19.114478
18.84675
18.582601
18.321788
18.064081
17.809258
17.557113
17.307449
17.060084
16.81485
16.571595
16.330183
16.090496
15.852435
15.615922
15.380905
15.14736
14.915203
14.684258
14.454882
14.226921
14.000359
13.775294
13.551826
13.330067
13.110127
12.892128
12.676202
12.462497
12.251179
12.042424
11.836419
11.633358
11.433439
11.236864
11.043844
10.854616
10.669378
10.488306
10.311589
10.139417
21.407913
21.102526
20.802828
20.508546
20.219407
19.935139
19.655471
19.380133
19.108865
18.841409
18.577517
18.316949
18.059474
17.804873
17.552938
17.303474
17.0563
16.811248
16.568166
16.32692
16.08739
15.84948
15.613111
15.378232
15.144819
14.912787
14.681959
14.452696
14.224845
13.998389
13.773424
13.550051
13.328382
13.108528
12.890611
12.674763
12.461132
12.249884
12.041196
11.835255
11.632255
11.432394
11.235877
11.042914
10.853731
10.668529
10.487493
10.310814
10.138684
21.395353
21.090594
20.791489
20.497766
20.209156
19.925389
19.646195
19.371307
19.100464
18.833412
18.569903
18.309699
18.05257
17.798298
17.546675
17.297509
17.050617
16.805835
16.56301
16.322008
16.082712
15.845024
15.608868
15.374192
15.140973
14.909126
14.678473
14.449378
14.221688
13.995385
13.770567
13.547333
13.325797
13.10607
12.888274
12.67254
12.459019
12.247875
12.039286
11.833439
11.630528
11.430753
11.234318
11.041435
10.852321
10.667179
10.4862
10.309578
10.137507
21.378653
21.074728
20.776409
20.483429
20.195522
19.91242
19.633855
19.359563
19.089286
18.82277
18.55977
18.300048
18.043377
17.789541
17.538332
17.28956
17.043043
16.798617
16.556132
16.315454
16.076467
15.839073
15.603197
15.368789
15.135826
14.904221
14.673801
14.444928
14.21745
13.99135
13.766724
13.543674
13.322313
13.102754
12.885117
12.669535
12.456157
12.24515
12.036692
11.830969
11.628176
11.428513
11.232186
11.039404
10.850383
10.665325
10.484425
10.307879
10.135883
21.359032
21.056084
20.758688
20.46658
20.179498
19.897176
19.61935
19.345758
19.076144
18.810257
18.547854
18.288699
18.032566
17.77924
17.528517
17.280206
17.034129
16.790121
16.548034
16.307735
16.069109
15.832059
15.596512
15.362416
15.129752
14.898432
14.668285
14.439671
14.212441
13.986577
13.762175
13.53934
13.318185
13.098821
12.88137
12.665965
12.452756
12.241909
12.033603
11.828025
11.62537
11.425839
11.229636
11.036972
10.84806
10.663102
10.482297
10.305841
10.133932
21.337099
21.035243
20.738877
20.447743
20.161582
19.880132
19.603131
19.330321
19.061448
18.796263
18.534526
18.276003
18.020471
17.767715
17.517534
17.269739
17.024152
16.78061
16.538968
16.299092
16.060869
15.824203
15.589022
15.355275
15.122943
14.891941
14.662098
14.433773
14.206819
13.981218
13.757067
13.534471
13.313545
13.094399
12.877155
12.661947
12.448926
12.238258
12.030122
11.824705
11.622203
11.422818
11.226754
11.034221
10.84543
10.660586
10.479888
10.303533
10.131721
21.311153
21.010585
20.715437
20.425454
20.140381
19.859961
19.583936
19.31205
19.044053
18.779699
18.518749
18.260974
18.006151
17.754069
17.504529
17.257342
17.012335
16.769345
16.528226
16.28885
16.051103
15.814891
15.580142
15.346807
15.114868
14.884241
14.654755
14.426772
14.200144
13.974854
13.750998
13.528685
13.308028
13.08914
12.872141
12.657166
12.444366
12.233909
12.025973
11.820747
11.618427
11.419213
11.223313
11.030934
10.842288
10.657579
10.477008
10.300773
10.129075
21.280925
20.981855
20.688124
20.39948
20.115674
19.836454
19.561564
19.290754
19.023776
18.760388
18.500355
18.24345
17.989453
17.738156
17.489362
17.242884
16.99855
16.756201
16.515694
16.276899
16.039706
15.804021
15.569775
15.33692
15.105437
14.875246
14.646177
14.418591
14.192342
13.967413
13.743901
13.521916
13.301574
13.082984
12.86627
12.651565
12.439023
12.228811
12.021109
11.816105
11.613996
11.414982
11.219271
11.027072
10.838594
10.654044
10.473622
10.297527
10.125962
21.246136
20.948789
20.656685
20.369581
20.087232
19.80939
19.535805
19.266232
19.000426
18.738149
18.479171
18.223266
17.970218
17.719824
17.471887
17.226224
16.982665
16.741054
16.501248
16.263122
16.026565
15.791488
15.557819
15.325515
15.094557
14.864868
14.636276
14.409148
14.183335
13.95882
13.735703
13.514096
13.294114
13.075868
12.859481
12.645088
12.432842
12.222912
12.015478
11.81073
11.608863
11.41008
11.214587
11.022594
10.83431
10.649942
10.469692
10.29376
10.122348
21.206503
20.911114
20.620861
20.335508
20.054816
19.778542
19.506442
19.238276
18.973804
18.712792
18.455013
18.200247
17.948281
17.698913
17.451951
17.207216
16.96454
16.723768
16.484762
16.247396
16.011564
15.777177
15.544166
15.312489
15.082129
14.853009
14.624963
14.398355
14.173037
13.948995
13.726328
13.50515
13.285579
13.067725
12.85171
12.637671
12.425763
12.216154
12.009026
11.804568
11.602977
11.404456
11.209212
11.017454
10.829391
10.645232
10.46518
10.289435
10.118197
21.16173
20.868548
20.580382
20.297002
20.018178
19.743673
19.473249
19.20667
18.943703
18.684118
18.427693
18.174211
17.923465
17.675256
17.429396
17.185708
16.944027
16.704203
16.466098
16.229592
15.994578
15.76097
15.528702
15.297732
15.068046
14.839571
14.612141
14.38612
14.161362
13.937853
13.715692
13.495
13.275893
13.058482
12.842887
12.629249
12.417722
12.208476
12.001693
11.797564
11.596285
11.398061
11.203097
11.011605
10.823793
10.639871
10.460042
10.284508
10.113469
21.111512
20.820799
20.534967
20.253797
19.977064
19.704539
19.43599
19.171189
18.909907
18.65192
18.397011
18.144969
17.89559
17.648679
17.404053
17.161538
16.920974
16.682211
16.445118
16.209574
15.975477
15.742743
15.511307
15.28113
15.052199
14.824446
14.597708
14.372346
14.148215
13.925303
13.703712
13.483564
13.264978
13.048062
12.83294
12.619751
12.408651
12.199813
11.993418
11.789658
11.58873
11.390838
11.19619
11.004996
10.817467
10.633811
10.454233
10.278938
10.108123
21.055536
20.767567
20.48433
20.205615
19.931207
19.660885
19.394423
19.131599
18.872192
18.615984
18.362763
18.112323
17.864466
17.619001
17.375749
17.13454
16.895219
16.65764
16.421672
16.187201
15.954125
15.722364
15.491856
15.262562
15.034473
14.807524
14.581559
14.356931
14.133498
13.911253
13.690295
13.470755
13.25275
13.036387
12.821791
12.609103
12.398481
12.190097
11.984135
11.780787
11.58025
11.38273
11.188435
10.997575
10.810361
10.627003
10.447707
10.272678
10.102113
20.993481
20.708543
20.428173
20.152173
19.880337
19.61245
19.348297
19.087661
18.830329
18.576089
18.324736
18.07607
17.829897
17.586033
17.344303
17.104542
16.866597
16.630328
16.395608
16.162325
15.930382
15.699699
15.470219
15.241904
15.014746
14.788689
14.563581
14.339768
14.117109
13.895603
13.675347
13.456481
13.239121
13.023372
12.80936
12.597228
12.387135
12.179257
11.973776
11.770884
11.570783
11.373676
11.179772
10.989283
10.80242
10.619394
10.440412
10.26568
10.095394
20.925019
20.643411
20.366195
20.093181
19.824173
19.558967
19.297353
19.039126
18.784079
18.532007
18.282712
18.035999
17.791682
17.549582
17.309528
17.071362
16.834935
16.600111
16.366766
16.134793
15.904099
15.674606
15.446259
15.219024
14.992894
14.767822
14.543659
14.320745
14.098941
13.878249
13.658769
13.440648
13.224
13.008928
12.795561
12.584043
12.374536
12.167216
11.962266
11.759881
11.56026
11.36361
11.170139
10.980061
10.793587
10.610928
10.432294
10.25789
10.087914
20.849818
20.571853
20.298087
20.028342
19.762432
19.500161
19.241331
18.985743
18.733199
18.483504
18.236464
17.991894
17.749613
17.509448
17.271234
17.034818
16.800057
16.566818
16.334983
16.104449
15.875125
15.646939
15.419837
15.193787
14.968785
14.744797
14.521671
14.299746
14.07888
13.859086
13.640457
13.423156
13.207291
12.992964
12.780306
12.569464
12.360601
12.153895
11.949531
11.747703
11.548612
11.352464
11.159472
10.969846
10.783801
10.601548
10.423297
10.249256
10.079622
20.767542
20.493545
20.223538
19.957358
19.694826
19.435756
19.179963
18.927255
18.677444
18.430342
18.185766
17.943535
17.703478
17.465426
17.229223
16.99472
16.761778
16.530273
16.300089
16.071128
15.843303
15.616546
15.390806
15.166054
14.942286
14.71948
14.497498
14.276651
14.056812
13.838
13.620304
13.403901
13.188894
12.975383
12.763502
12.553401
12.345245
12.139212
11.93549
11.734273
11.535763
11.340168
11.1477
10.958572
10.772998
10.591191
10.413362
10.23972
10.070462
20.677854
20.40816
20.142237
19.879927
19.621063
19.365473
19.112978
18.863401
18.61656
18.37228
18.130382
17.890698
17.65306
17.417309
17.183294
16.950873
16.719914
16.490296
16.261911
16.034664
15.808472
15.583273
15.359018
15.135681
14.913258
14.691736
14.47101
14.251335
14.032614
13.814875
13.598199
13.382778
13.168706
12.956086
12.745053
12.535761
12.328377
12.123081
11.92006
11.719511
11.521637
11.326647
11.134753
10.946169
10.761111
10.579793
10.402427
10.229221
10.060376
20.849096
20.580409
20.315378
20.053872
19.795749
19.540855
19.289029
19.040107
18.793919
18.550297
18.309073
18.070079
17.833154
17.598139
17.364884
17.133243
16.903081
16.674274
16.446705
16.220272
15.994885
15.770468
15.546961
15.324319
15.102519
14.881557
14.661426
14.442077
14.223669
14.006162
13.789592
13.574025
13.359674
13.14662
12.934968
12.724858
12.516447
12.309904
12.105411
11.903155
11.703334
11.506154
11.311823
11.120555
10.932565
10.748071
10.567287
10.390425
10.217696
10.049303
20.738262
20.474889
20.214882
19.958136
19.704526
19.453912
19.206147
18.961078
18.718549
18.478401
18.240477
18.004619
17.770675
17.538496
17.307937
17.078863
16.851145
16.624664
16.399312
16.174991
15.951618
15.729122
15.507446
15.286552
15.066417
14.847041
14.628422
14.410548
14.193518
13.977328
13.762025
13.547667
13.334477
13.122524
12.911921
12.702813
12.495359
12.28973
12.086108
11.884683
11.685655
11.489228
11.295614
11.105027
10.917685
10.733804
10.553601
10.377289
10.20508
10.037178
20.618668
20.360981
20.106364
19.854729
19.605965
19.35995
19.116549
18.875624
18.637029
18.400619
18.166247
17.933765
17.703032
17.473906
17.246253
17.019945
16.794861
16.570889
16.347928
16.125886
15.904686
15.684262
15.464563
15.245555
15.02722
14.809558
14.592579
14.376285
14.160747
13.94598
13.732042
13.519007
13.307067
13.096303
12.886835
12.678812
12.472394
12.267755
12.065077
11.864553
11.666383
11.470773
11.277936
11.088089
10.901449
10.718234
10.538662
10.362947
10.191302
10.023933
20.489995
20.238378
19.989525
19.743357
19.499783
19.258692
19.019966
18.783481
18.549104
18.316702
18.08614
17.857282
17.629995
17.404149
17.179617
16.956281
16.734027
16.512753
16.292362
16.072771
15.853909
15.635715
15.418144
15.201167
14.98477
14.768957
14.553744
14.339146
14.125218
13.911987
13.699522
13.487911
13.277319
13.067837
12.859595
12.652743
12.447445
12.243875
12.042217
11.842666
11.645424
11.450698
11.258703
11.069656
10.883776
10.701283
10.522395
10.347327
10.176292
10.009499
20.59955
20.351932
20.10679
19.864079
19.623743
19.385703
19.149868
18.916134
18.684392
18.454523
18.226407
17.999919
17.774938
17.551339
17.329004
17.107815
16.887662
16.668442
16.450058
16.232424
16.015462
15.799107
15.583306
15.368019
15.153222
14.938907
14.725081
14.511768
14.298988
14.086791
13.875212
13.664333
13.45425
13.245108
13.037006
12.830083
12.624493
12.420401
12.217983
12.017425
11.818924
11.622682
11.428909
11.237822
11.049639
10.864581
10.682868
10.50472
10.330351
10.159975
9.993801
20.444587
20.204216
19.965947
19.729761
19.49562
19.263466
19.033222
18.804802
18.57811
18.353043
18.129494
17.907352
17.686505
17.466842
17.248254
17.030634
16.813883
16.597904
16.38261
16.167923
15.953773
15.740101
15.52686
15.314018
15.101556
14.88947
14.677774
14.466496
14.255663
14.045323
13.835518
13.626341
13.417892
13.210305
13.003686
12.798181
12.593947
12.391151
12.189971
11.990596
11.793223
11.598057
11.405311
11.215202
11.02795
10.843777
10.662906
10.485556
10.311943
10.142278
9.9767612
20.279322
20.046602
19.815602
19.586323
19.358745
19.132827
18.908512
18.685729
18.464399
18.244432
18.025736
17.808213
17.591763
17.376288
17.161689
16.94787
16.734741
16.522216
16.310216
16.098671
15.88752
15.67671
15.466203
15.255971
15.046002
14.836298
14.626878
14.417776
14.209023
14.00067
13.792764
13.585407
13.378703
13.17278
12.967751
12.763765
12.560985
12.359578
12.159727
11.96162
11.765458
11.571449
11.379805
11.190746
11.004495
10.821275
10.641309
10.464819
10.292022
10.123127
20.10354
19.878877
19.655538
19.433544
19.212894
18.993564
18.775516
18.558696
18.343039
18.128472
17.914917
17.702289
17.490503
17.27947
17.069104
16.859321
16.65004
16.441185
16.232687
16.024484
15.816522
15.608759
15.401161
15.193709
14.986396
14.77923
14.572236
14.365454
14.15892
13.952686
13.746809
13.541394
13.336551
13.132405
12.929074
12.726714
12.525488
12.325568
12.127137
11.930389
11.735524
11.542752
11.35229
11.164358
10.97918
10.796982
10.61799
10.442426
10.270511
10.102462
19.917066
19.700859
19.485569
19.271234
19.057872
18.845479
18.634034
18.4235
18.213828
18.004962
17.796837
17.589383
17.382526
17.176193
16.970307
16.764797
16.559592
16.354627
16.149841
15.945182
15.740606
15.536075
15.331566
15.127066
14.922575
14.718107
14.513694
14.309379
14.105205
13.901228
13.69751
13.494164
13.291301
13.089049
12.887529
12.686903
12.487335
12.289002
12.092089
11.89679
11.703311
11.511863
11.322664
11.135937
10.951909
10.770806
10.592857
10.418287
10.24732
10.080177
19.719771
19.51241
19.305545
19.099235
18.893516
18.688403
18.483893
18.279965
18.076588
17.873721
17.671314
17.46931
17.267651
17.066274
16.865118
16.664119
16.46322
16.262366
16.061505
15.860595
15.6596
15.458493
15.257256
15.055884
14.854384
14.652777
14.4511
14.249403
14.047734
13.846154
13.644729
13.44358
13.242822
13.042582
12.84299
12.644208
12.446407
12.249764
12.054467
11.860715
11.668713
11.478676
11.290826
11.105386
10.922585
10.742654
10.565821
10.392315
10.222362
10.056185
19.511579
19.313439
19.115364
18.917433
18.719702
18.522203
18.324952
18.127945
17.931168
17.734594
17.538189
17.341911
17.145715
16.949552
16.753371
16.557123
16.360761
16.164239
15.967517
15.770563
15.573348
15.375855
15.178074
14.980008
14.78167
14.583089
14.384308
14.185383
13.986366
13.787325
13.588331
13.389511
13.190983
12.992878
12.795332
12.59851
12.402585
12.207738
12.014159
11.822051
11.631621
11.443088
11.256673
11.072605
10.891113
10.712431
10.53679
10.36442
10.19555
10.030403
19.292474
19.103908
18.914971
18.725758
18.536346
18.346786
18.157108
17.967328
17.777447
17.587455
17.397332
17.207051
17.016581
16.825884
16.634925
16.443665
16.252067
16.060099
15.867731
15.674938
15.481703
15.288017
15.093878
14.899296
14.704294
14.508905
14.31318
14.117182
13.920967
13.724609
13.528186
13.331829
13.13566
12.939815
12.744436
12.549691
12.355755
12.162812
11.971057
11.780693
11.591933
11.404996
11.220108
11.037498
10.8574
10.680048
10.505676
10.334516
10.1668
10.002751
19.062505
18.883845
18.70437
18.524196
18.343418
18.162103
17.980301
17.798042
17.615345
17.432214
17.248646
17.064626
16.880137
16.695157
16.509661
16.323622
16.137017
15.949822
15.762019
15.573593
15.384537
15.194849
15.004537
14.81362
14.622126
14.430097
14.237591
14.044675
13.851413
13.657885
13.464174
13.270415
13.076736
12.88328
12.69019
12.49764
12.305808
12.11488
11.925055
11.73654
11.549549
11.364304
11.181035
10.999974
10.821355
10.645417
10.472394
10.302521
10.136032
9.9731517
18.821794
18.653342
18.48363
18.312794
18.140943
17.968164
17.794522
17.620065
17.444825
17.268824
17.092071
16.914568
16.736311
16.557289
16.377491
16.196903
16.015512
15.833306
15.650278
15.466422
15.281741
15.096242
14.909943
14.722869
14.535056
14.346555
14.157429
13.967753
13.777596
13.587043
13.396186
13.205162
13.014107
12.823167
12.632493
12.442259
12.252646
12.063846
11.87606
11.689498
11.504377
11.320924
11.139369
10.959948
10.782898
10.608458
10.436867
10.268361
10.103176
9.9415366
18.570548
18.412573
18.252895
18.091666
17.929013
17.765038
17.599821
17.433427
17.265903
17.097286
16.927598
16.756856
16.585068
16.412238
16.238366
16.063451
15.887491
15.710485
15.532436
15.353349
15.173237
14.992115
14.81001
14.626956
14.442996
14.258189
14.072604
13.886324
13.699423
13.511994
13.324132
13.135982
12.947683
12.75939
12.571256
12.38346
12.196185
12.009627
11.82399
11.639487
11.456341
11.274779
11.095035
10.917348
10.741956
10.569103
10.399028
10.231971
10.068168
9.9078459
18.309067
18.1618
18.012392
17.861009
17.707794
17.552864
17.396315
17.238225
17.078657
16.917659
16.75527
16.591519
16.426427
16.260011
16.092283
15.923254
15.752932
15.58133
15.408458
15.234335
15.058979
14.882418
14.704687
14.525826
14.345888
14.164939
13.983055
13.800325
13.616831
13.432672
13.247948
13.062806
12.877399
12.691882
12.506416
12.321179
12.13636
11.952159
11.768782
11.586447
11.40538
11.225811
11.047976
10.872118
10.698478
10.5273
10.358828
10.193302
10.030962
9.8720354
18.037753
17.901382
17.76244
17.621108
17.47754
17.331868
17.184201
17.034631
16.883234
16.730073
16.575197
16.41865
16.260466
16.100672
15.939293
15.776351
15.611867
15.445862
15.278359
15.109385
14.938969
14.767147
14.593962
14.419464
14.243713
14.066782
13.888755
13.709728
13.52979
13.349045
13.1676
12.985602
12.803219
12.62061
12.437937
12.255381
12.073137
11.891406
11.710402
11.530344
11.35146
11.173986
10.998161
10.824228
10.652433
10.483022
10.31624
10.152331
9.9915358
9.8340842
17.757125
17.631792
17.50347
17.372352
17.238604
17.102368
16.963768
16.822906
16.679872
16.534739
16.387571
16.238422
16.087338
15.934358
15.779519
15.622853
15.464392
15.304168
15.142214
14.978566
14.813263
14.64635
14.477879
14.307908
14.136504
13.963748
13.78973
13.614553
13.438315
13.261126
13.083099
12.904377
12.725152
12.54558
12.365824
12.186071
12.006518
11.827374
11.648853
11.47118
11.294586
11.11931
10.945594
10.773684
10.603828
10.436276
10.271274
10.109068
9.9499007
9.794005
17.467832
17.353627
17.236032
17.115248
16.991451
16.864795
16.735412
16.603415
16.468905
16.331967
16.192676
16.051096
15.907285
15.761293
15.613167
15.46295
15.310684
15.156411
15.000174
14.842018
14.681992
14.520151
14.356552
14.191264
14.02436
13.855928
13.686066
13.514884
13.342485
13.16899
12.994515
12.819204
12.643269
12.466858
12.290141
12.113309
11.936564
11.760119
11.584192
11.409012
11.234814
11.061839
10.890332
10.720543
10.552721
10.387119
10.223987
10.063571
9.906117
9.7518593
17.170672
17.067631
16.960818
16.850442
16.736686
16.619711
16.499657
16.376648
16.250793
16.122187
15.990915
15.857051
15.720662
15.58181
15.44055
15.296937
15.151021
15.002855
14.852489
14.69998
14.545384
14.388764
14.230188
14.069729
13.907471
13.743506
13.57794
13.410889
13.242463
13.07279
12.901997
12.73024
12.55772
12.384589
12.211028
12.037233
11.86341
11.689776
11.516554
11.343974
11.172276
11.001704
10.832506
10.664934
10.499242
10.335683
10.17451
10.015971
9.8603161
9.7077794
16.866613
16.774714
16.678687
16.578743
16.47507
16.367834
16.257184
16.143248
16.026144
15.905975
15.782834
15.656804
15.527963
15.396379
15.262118
15.125243
14.985814
14.843892
14.699537
14.552813
14.403786
14.252527
14.09911
13.943619
13.786142
13.626779
13.465642
13.302852
13.138527
12.972803
12.80582
12.637741
12.468754
12.299021
12.128732
11.958088
11.7873
11.616587
11.446176
11.276302
11.107208
10.939139
10.772349
10.607091
10.443623
10.282199
10.123076
9.9665024
9.8127312
9.6619988
16.556821
16.475984
16.390689
16.301149
16.207554
16.110072
16.008855
15.904039
15.795745
15.684083
15.569155
15.45105
15.329852
15.20564
15.078487
14.948463
14.815638
14.680079
14.541857
14.401042
14.257708
14.111935
13.963804
13.813405
13.660835
13.506199
13.349614
13.191208
13.031106
12.869454
12.7064
12.542113
12.376775
12.210554
12.04365
11.876269
11.708625
11.54094
11.373445
11.206381
11.039991
10.874526
10.710241
10.547394
10.386243
10.227047
10.070064
9.9155415
9.763741
9.6148966
16.242695
16.172779
16.098107
16.018891
15.935319
15.847559
15.755764
15.660073
15.56061
15.457492
15.350823
15.240701
15.127216
15.010452
14.89049
14.767408
14.641282
14.512187
14.3802
14.2454
14.107869
13.967692
13.824959
13.679767
13.532218
13.382423
13.230505
13.076598
12.920835
12.763368
12.604356
12.443969
12.282389
12.119792
11.956383
11.792372
11.627977
11.463425
11.298951
11.134797
10.971213
10.80845
10.646768
10.486426
10.327687
10.17081
10.016055
9.863677
9.7139319
9.567059
15.925911
15.866716
15.802503
15.733479
15.659827
15.581711
15.499282
15.412679
15.32203
15.227454
15.12906
15.026948
14.921214
14.811948
14.699236
14.583161
14.463807
14.341256
14.215589
14.086894
13.955258
13.820773
13.683537
13.543652
13.401228
13.256381
13.109235
12.959932
12.808616
12.655444
12.500579
12.344197
12.18648
12.027615
11.867807
11.707271
11.546229
11.384914
11.223562
11.062421
10.901741
10.74178
10.582799
10.425059
10.268825
10.114361
9.961927
9.8117817
9.6641805
9.5193657
15.608469
15.559748
15.505777
15.446763
15.382879
15.314283
15.241122
15.163533
15.081643
14.995573
14.905433
14.811328
14.713355
14.611609
14.50618
14.397157
14.284627
14.168678
14.049399
13.926881
13.801218
13.672508
13.540855
13.406367
13.269161
13.129358
12.987083
12.842483
12.695716
12.546943
12.396326
12.24405
12.090303
11.935273
11.779171
11.622215
11.464632
11.306657
11.148532
10.990506
10.832834
10.675776
10.519596
10.364558
10.210929
10.058974
9.908957
9.7611381
9.6157736
9.4731076
15.292768
15.254224
15.210237
15.161006
15.106696
15.047455
14.983422
14.914733
14.841512
14.763878
14.681943
14.595811
14.505582
14.411354
14.313218
14.211269
14.105596
13.996292
13.883451
13.767168
13.647542
13.524678
13.398684
13.269676
13.137773
13.003103
12.865794
12.725991
12.583876
12.439605
12.293333
12.145269
11.995598
11.844512
11.692223
11.538955
11.38494
11.230415
11.075626
10.920826
10.766272
10.612226
10.458956
10.306728
10.155811
10.006472
9.8589771
9.7135877
9.570562
9.430145
14.981683
14.952977
14.91868
14.878968
14.833997
14.783907
14.728829
14.668892
14.604219
14.534923
14.461115
14.382899
14.300374
14.213639
14.122789
14.027917
13.929118
13.826488
13.720123
13.610124
13.496592
13.379638
13.259374
13.135921
13.009404
12.879956
12.747707
12.612802
12.475445
12.335782
12.193959
12.050221
11.904741
11.757713
11.609355
11.459896
11.30957
11.158618
11.00729
10.85584
10.704529
10.553621
10.403386
10.254093
10.106013
9.9594138
9.8145627
9.6717238
9.5311567
9.3931065
14.678656
14.659406
14.634468
14.603984
14.568086
14.526914
14.48059
14.429233
14.372961
14.311883
14.246104
14.175727
14.10085
14.02157
13.937982
13.850181
13.758265
13.662329
13.562474
13.458802
13.35142
13.240439
13.125978
13.008159
12.887114
12.762978
12.635893
12.506011
12.373523
12.23858
12.101354
11.962067
11.820901
11.678065
11.533778
11.38827
11.241779
11.094549
10.946831
10.798883
10.650968
10.503353
10.356308
10.210105
10.065016
9.92131
9.779256
9.6391195
9.5011613
9.3656258
14.387724
14.377537
14.361598
14.340023
14.312923
14.280418
14.242629
14.199664
14.151633
14.098638
14.040779
13.978154
13.910859
13.838989
13.762637
13.681899
13.596871
13.507652
13.414344
13.31705
13.21588
13.110948
13.002375
12.890287
12.774818
12.656111
12.534317
12.40959
12.282108
12.152033
12.019552
11.884875
11.748192
11.609719
11.469681
11.328307
11.185839
11.042521
10.898607
10.754358
10.610037
10.465916
10.322264
10.179353
10.037458
9.896849
9.7577943
9.6205619
9.4854132
9.3525888
14.109166
14.11351
14.111979
14.104726
14.091733
14.073144
14.049056
14.019577
13.984812
13.944857
13.899809
13.849759
13.794801
13.735025
13.670523
13.601387
13.52771
13.44959
13.367124
13.280414
13.189566
13.094691
12.995906
12.893333
12.787102
12.677349
12.564223
12.44788
12.328474
12.206178
12.08116
11.953621
11.823762
11.691784
11.557904
11.422351
11.285355
11.147157
11.008006
10.868155
10.727867
10.58741
10.447056
10.30707
10.167727
10.0293
9.8920624
9.7562801
9.6222137
9.4901137
9.360232
13.848768
13.861337
13.868062
13.869007
13.864358
13.853999
13.838085
13.816701
13.78995
13.757917
13.720687
13.678346
13.63098
13.578673
13.521514
13.459592
13.392997
13.321824
13.246172
13.166142
13.08184
12.993378
12.900875
12.804455
12.70425
12.6004
12.493054
12.382375
12.268516
12.151646
12.031933
11.9096
11.784843
11.657865
11.528883
11.398134
11.265842
11.132249
10.997604
10.862164
10.72619
10.589936
10.453659
10.317651
10.182193
10.047561
9.9140254
9.7818526
9.6513079
9.5226594
9.3961392
13.61627
13.63669
13.651334
13.660225
13.663436
13.661065
13.653133
13.639651
13.620741
13.59649
13.566969
13.532256
13.492428
13.447565
13.397749
13.343065
13.283602
13.219451
13.15071
13.077479
12.999865
12.917979
12.831943
12.741883
12.647931
12.550228
12.448928
12.344191
12.236176
12.125052
12.010973
11.8942
11.774917
11.653321
11.529625
11.404023
11.276777
11.148146
11.018383
10.887746
10.756498
10.624908
10.493257
10.36181
10.230833
10.100593
9.9713533
9.8433752
9.7169199
9.5922453
9.4695831
13.417212
13.445067
13.467228
13.483709
13.494568
13.49986
13.499597
13.493917
13.482692
13.466102
13.4442
13.417054
13.384734
13.347312
13.304867
13.257476
13.205226
13.148206
13.086513
13.020244
12.949504
12.874406
12.79507
12.711636
12.624225
12.53298
12.438053
12.339602
12.237767
12.132692
12.024597
11.913721
11.800267
11.684443
11.56647
11.446599
11.325064
11.202091
11.077922
10.952806
10.827002
10.700774
10.574389
10.44811
10.3222
10.19693
10.072561
9.9493524
9.8275603
9.7074364
9.5892053
13.255853
13.290762
13.3201
13.343861
13.362089
13.37481
13.38205
13.383817
13.380205
13.371173
13.356804
13.337172
13.312337
13.282367
13.247332
13.207306
13.162368
13.11261
13.058128
12.999011
12.935364
12.867296
12.794919
12.718313
12.637649
12.553092
12.464804
12.372944
12.277683
12.179249
12.077798
11.973524
11.866626
11.757314
11.645804
11.532323
11.417094
11.300362
11.182371
11.063375
10.943628
10.823388
10.702917
10.582476
10.462326
10.342725
10.223929
10.10619
9.9897551
9.8748698
9.7617483
13.134455
13.175992
13.212118
13.242814
13.268091
13.28796
13.302435
13.311509
13.3152
13.313562
13.306659
13.294454
13.27705
13.254517
13.22691
13.194296
13.156747
13.114323
13.067078
13.015155
12.958674
12.897758
12.832545
12.763196
12.689817
12.612537
12.531505
12.44687
12.3588
12.267482
12.173103
12.075871
11.975993
11.873677
11.769138
11.662598
11.554286
11.444435
11.333286
11.221084
11.108079
10.994522
10.880667
10.766768
10.65308
10.539848
10.427322
10.315742
10.205348
10.096374
9.9890228
13.051665
13.099282
13.141693
13.178853
13.21074
13.237355
13.258687
13.274734
13.285484
13.290961
13.291198
13.286316
13.276173
13.260861
13.240476
13.215105
13.184843
13.149782
13.110019
13.065622
13.016683
12.963312
12.905621
12.843738
12.777811
12.707983
12.634405
12.557225
12.476623
12.39278
12.305883
12.216137
12.123744
12.028909
11.931844
11.832768
11.731902
11.629476
11.525724
11.420881
11.31519
11.208893
11.102234
10.995458
10.888805
10.782515
10.676823
10.57196
10.468152
10.365623
10.264565
13.000926
13.053844
13.101808
13.144731
13.182566
13.215298
13.242902
13.265373
13.282662
13.294739
13.301659
13.303484
13.300291
13.292072
13.278861
13.260728
13.237727
13.20994
13.177464
13.14039
13.098815
13.052848
13.002604
12.948208
12.889798
12.827519
12.761515
12.69194
12.61898
12.542804
12.463605
12.38158
12.296926
12.209843
12.120538
12.029222
11.936111
11.841427
11.745394
11.64824
11.550196
11.451492
11.352362
11.253039
11.15375
11.054724
10.956184
10.858346
10.761427
10.665637
10.571157
12.969311
13.026403
13.078819
13.126444
13.16921
13.20708
13.240012
13.267999
13.290995
13.308992
13.321994
13.330014
13.333085
13.331269
13.324598
13.313065
13.296768
13.275778
13.250175
13.220048
13.185494
13.146618
13.103536
13.05637
13.005252
12.950324
12.891726
12.829623
12.764184
12.695581
12.624003
12.54964
12.472681
12.39332
12.311758
12.228198
12.142848
12.05592
11.967628
11.878189
11.787823
11.696749
11.60519
11.513362
11.421482
11.329765
11.238421
11.147657
11.057675
10.968675
10.880829
12.937393
12.997038
13.052321
13.103113
13.149332
13.190929
13.227855
13.260054
13.287487
13.310133
13.327993
13.341065
13.349361
13.352909
13.351755
13.345959
13.335495
13.320472
13.300963
13.277048
13.248817
13.216376
13.179834
13.139312
13.094937
13.046842
12.995171
12.940087
12.881744
12.820321
12.755994
12.688943
12.619351
12.547407
12.473302
12.397231
12.319393
12.239989
12.159223
12.077301
11.994433
11.910826
11.826688
11.742224
11.657636
11.573129
11.488899
11.405142
11.322052
11.239814
11.158594
12.88076
12.940782
12.996826
13.048746
13.096441
13.139841
13.178882
13.21351
13.24366
13.269264
13.290322
13.306835
13.318809
13.32626
13.329214
13.327728
13.321841
13.311553
13.296974
13.278184
13.255262
13.228298
13.197395
13.162667
13.124235
13.082226
13.036784
12.988061
12.936211
12.881403
12.823804
12.763586
12.700923
12.635994
12.568982
12.500074
12.42946
12.357331
12.283882
12.209303
12.133793
12.057543
11.980752
11.903617
11.826333
11.749092
11.672078
11.595473
11.519444
11.444165
11.369802