/*--------------------------------*- C++ -*----------------------------------*\
| =========                 |                                                 |
| \\      /  F ield         | OpenFOAM: The Open Source CFD Toolbox           |
|  \\    /   O peration     | Version:  2312                                  |
|   \\  /    A nd           | Website:  www.openfoam.com                      |
|    \\/     M anipulation  |                                                 |
\*---------------------------------------------------------------------------*/
FoamFile
{
    version     2.0;
    format      ascii;
    arch        "LSB;label=32;scalar=64";
    class       volScalarField;
    location    "0.03";
    object      N2;
}
// * * * * * * * * * * * * * * * * * * * * * * * * * * * * * * * * * * * * * //

dimensions      [0 0 0 0 0 0 0];

internalField   nonuniform List<scalar> 
3250
(
0.67434355
0.67552567
0.67674877
0.67799606
0.6792499
0.68051215
0.68178446
0.68306827
0.68436485
0.68567527
0.68700043
0.68834108
0.68969781
0.69107104
0.69246107
0.69386804
0.69529196
0.69673272
0.69819008
0.69966368
0.70115308
0.70265772
0.70417693
0.70570975
0.70725406
0.70880355
0.7103476
0.7118682
0.71344251
0.71502524
0.7166113
0.71815514
0.7197354
0.72132087
0.72290316
0.72448016
0.72604968
0.7276096
0.72915782
0.73069228
0.73221099
0.73371195
0.73519326
0.73665319
0.73808837
0.73949485
0.74087314
0.74222136
0.74351628
0.67435706
0.67553815
0.676761
0.67800732
0.67926029
0.68052173
0.68179327
0.68307636
0.68437225
0.68568201
0.68700654
0.68834659
0.68970275
0.69107543
0.69246494
0.69387141
0.69529486
0.69673517
0.6981921
0.69966529
0.70115431
0.70265858
0.70417742
0.7057098
0.70725352
0.70880286
0.71034724
0.71186764
0.71344134
0.71502377
0.71660966
0.71815336
0.71973345
0.72131877
0.72290093
0.7244778
0.72604723
0.72760706
0.72915522
0.73068963
0.7322083
0.73370921
0.7351904
0.73664988
0.73808478
0.73949188
0.74087045
0.74221921
0.74351404
0.67438692
0.67556624
0.6767889
0.6780335
0.6792849
0.68054489
0.68181507
0.68309688
0.68439156
0.68570018
0.68702364
0.68836267
0.68971785
0.69108961
0.69247823
0.69388387
0.69530652
0.69674607
0.69820228
0.69967479
0.70116315
0.70266681
0.70418504
0.70571678
0.70725975
0.70880884
0.71035296
0.71187295
0.71344599
0.71502796
0.71661348
0.71815685
0.71973661
0.72132161
0.72290347
0.72448006
0.72604923
0.72760883
0.72915676
0.73069097
0.73220944
0.73371016
0.7351911
0.73665018
0.73808479
0.73949213
0.7408708
0.74221972
0.74351441
0.67443315
0.67561005
0.67683247
0.67807461
0.67932377
0.68058167
0.68184991
0.6831299
0.68442287
0.68572987
0.68705179
0.68838937
0.68974318
0.69111364
0.69250103
0.69390549
0.69532703
0.69676552
0.69822071
0.69969227
0.70117971
0.70268249
0.70419989
0.70573077
0.70727284
0.70882144
0.71036495
0.71188432
0.71345659
0.71503792
0.71662286
0.71816571
0.71974498
0.72132949
0.72291088
0.72448703
0.72605578
0.72761498
0.72916253
0.73069638
0.7322145
0.73371487
0.73519544
0.73665409
0.73808837
0.73949569
0.74087425
0.74222297
0.74351744
0.67449547
0.67566958
0.6768916
0.67813056
0.6793768
0.680632
0.6818977
0.68317532
0.68446606
0.68577097
0.68709091
0.68842662
0.68977866
0.69114744
0.69253324
0.69393619
0.69535629
0.69679341
0.69824731
0.69971762
0.70120389
0.70270554
0.70422186
0.70575169
0.70729268
0.70884051
0.71038314
0.71190169
0.71347304
0.71505354
0.71663771
0.71817983
0.71975846
0.72134231
0.72292308
0.72449863
0.7260668
0.72762544
0.72917245
0.73070578
0.7322234
0.73372328
0.73520336
0.73666151
0.73809538
0.73950249
0.74088077
0.74222893
0.74352306
0.67456893
0.67574054
0.67696188
0.67819716
0.67944002
0.68069206
0.68195484
0.68322971
0.68451786
0.68582034
0.687138
0.68847155
0.68982154
0.69118838
0.69257234
0.69397355
0.69539199
0.69682753
0.69827993
0.69974881
0.70123371
0.70273406
0.70424913
0.70577776
0.70731755
0.70886441
0.710406
0.71192358
0.71349391
0.71507346
0.7166567
0.71819797
0.71977583
0.72135891
0.72293894
0.72451377
0.72608124
0.72763921
0.72918557
0.73071827
0.73223528
0.73373456
0.73521406
0.73667166
0.73810507
0.73951186
0.74088972
0.74223698
0.74353069
0.67465074
0.67582075
0.67704096
0.67827216
0.67951126
0.68075982
0.68201933
0.68329115
0.68457645
0.68587623
0.68719135
0.6885225
0.68987022
0.69123492
0.69261685
0.69401612
0.69543272
0.69686652
0.69831726
0.69978455
0.70126794
0.70276685
0.70428053
0.70580783
0.70734634
0.70889205
0.71043251
0.71194898
0.71351823
0.7150967
0.71667891
0.7182192
0.71979621
0.72137843
0.72295762
0.72453165
0.72609834
0.72765554
0.72920117
0.73073315
0.73224946
0.73374806
0.73522691
0.73668391
0.7381168
0.73952322
0.74090059
0.7422466
0.74353986
0.67474655
0.67591685
0.67713495
0.67836135
0.67959603
0.68084048
0.68209617
0.6833644
0.68464632
0.68594293
0.68725507
0.6885834
0.68992845
0.69129062
0.69267016
0.69406716
0.69548161
0.69691335
0.69836213
0.69982756
0.70130917
0.70280637
0.70431843
0.70584418
0.7073812
0.70892551
0.71046464
0.71197982
0.71354779
0.715125
0.71670596
0.71824509
0.71982111
0.7214023
0.7229805
0.72455357
0.72611933
0.72767563
0.72922037
0.73075149
0.73226696
0.73376476
0.73524284
0.73669912
0.73813141
0.73953739
0.74091426
0.74225843
0.74355125
0.67485659
0.67603107
0.67724473
0.67846568
0.67969525
0.68093495
0.68218618
0.68345025
0.68472826
0.6860212
0.68732986
0.68865491
0.68999688
0.69135612
0.69273287
0.69412724
0.69553918
0.69696854
0.69841505
0.69987831
0.70135786
0.70285309
0.70436326
0.7058872
0.7074225
0.70896517
0.71050276
0.71201643
0.71358293
0.71515867
0.71673818
0.71827595
0.71985081
0.72143079
0.72300785
0.7245798
0.72614446
0.72769969
0.72924339
0.73077351
0.732288
0.73378485
0.73526202
0.73671746
0.73814906
0.73955454
0.74093102
0.74227246
0.743565
0.67498757
0.67616412
0.67737148
0.67858619
0.67980991
0.68104415
0.68229028
0.68354957
0.68482309
0.6861118
0.68741649
0.68873778
0.69007619
0.69143207
0.69280563
0.69419697
0.69560604
0.69703266
0.69847656
0.69993734
0.70141451
0.70290747
0.70441548
0.70593735
0.70747068
0.70901145
0.71054726
0.71205921
0.71362404
0.71519807
0.71677589
0.71831208
0.71988562
0.72146422
0.72303995
0.72461061
0.726174
0.727728
0.7292705
0.73079945
0.73231281
0.73380855
0.73528467
0.73673914
0.73816991
0.73957485
0.74095134
0.74228858
0.74358128
0.67513982
0.67631671
0.67751637
0.67872395
0.67994103
0.68116907
0.68240941
0.68366326
0.68493169
0.6862156
0.68751575
0.68883277
0.69016714
0.69151919
0.69288913
0.69427702
0.69568282
0.69710633
0.69854726
0.70000521
0.70147968
0.70297006
0.70447559
0.70599511
0.7075262
0.70906481
0.71059857
0.71210857
0.71367151
0.7152436
0.71681948
0.71835385
0.71992588
0.72150291
0.72307713
0.72464631
0.72620826
0.72776084
0.72930196
0.73082957
0.73234162
0.73383611
0.73531102
0.73676436
0.73819415
0.73959848
0.74097602
0.74230631
0.74360038
0.67531448
0.67648976
0.67768058
0.6788801
0.68008971
0.68131077
0.68254458
0.68379231
0.68505497
0.68633346
0.68762851
0.68894071
0.69027052
0.69161825
0.69298409
0.6943681
0.6957702
0.69719019
0.69862777
0.70008253
0.70155394
0.70304141
0.70454415
0.706061
0.70758958
0.70912575
0.71065717
0.71216498
0.71372579
0.71529568
0.71686934
0.71840166
0.71997198
0.72154724
0.72311974
0.72468724
0.72624755
0.72779853
0.72933808
0.73086417
0.73237474
0.7338678
0.73534133
0.73679337
0.73822199
0.73962542
0.74100256
0.7423286
0.74362274
0.67551349
0.67668436
0.67786529
0.67905582
0.68025707
0.68147032
0.68269683
0.6839377
0.68519393
0.68646635
0.68775567
0.68906246
0.69038716
0.69173005
0.6930913
0.69447095
0.6958689
0.69728495
0.69871878
0.70016995
0.70163794
0.70312212
0.70462174
0.70613561
0.70766137
0.70919483
0.71072353
0.7122289
0.71378737
0.71535477
0.7169259
0.7184559
0.72002433
0.72159759
0.72316817
0.72473378
0.72629224
0.72784141
0.7293792
0.73090356
0.73241247
0.7339039
0.73537587
0.73682642
0.73825367
0.73965589
0.74103188
0.74235498
0.7436486
0.6757399
0.67690143
0.67807174
0.67925233
0.6804443
0.68164889
0.68286727
0.68410052
0.68534957
0.68661523
0.68789818
0.68919895
0.69051794
0.69185544
0.69321157
0.69458636
0.6959797
0.69739135
0.69882098
0.70026815
0.70173232
0.70321285
0.70470898
0.70621953
0.70774219
0.70927265
0.71079813
0.71230086
0.71385674
0.71542138
0.71698964
0.71851704
0.72008336
0.72165441
0.72322283
0.72478633
0.72634271
0.72788984
0.72942565
0.73094809
0.73245512
0.73394473
0.73541494
0.7368638
0.73828945
0.73969017
0.7410646
0.74238534
0.74367815
0.67599327
0.67714263
0.67830127
0.6794709
0.68065264
0.68184765
0.68305705
0.68428186
0.68552297
0.68678115
0.68805704
0.68935113
0.69066381
0.69199532
0.69334578
0.69471518
0.69610339
0.69751016
0.69893515
0.70037787
0.7018378
0.70331428
0.70480652
0.70631341
0.70783266
0.70935992
0.71088143
0.71238137
0.71393446
0.71549603
0.71706102
0.71858554
0.72014954
0.72171813
0.72328415
0.7248453
0.72639936
0.72794423
0.72947783
0.73099812
0.73250305
0.73399063
0.73545886
0.73690582
0.73832964
0.73972859
0.74110121
0.74241976
0.7437116
0.67627398
0.67740943
0.67855524
0.67971287
0.68088338
0.68206786
0.68326737
0.68448289
0.68571525
0.68696518
0.68823328
0.68952001
0.69082572
0.69215063
0.69349482
0.69485827
0.69624082
0.69764221
0.69906205
0.70049988
0.70195511
0.7034271
0.70491507
0.70641791
0.70793348
0.70945748
0.71097382
0.71247098
0.71402112
0.7155793
0.71714055
0.71866189
0.72022336
0.72178924
0.72335262
0.72491114
0.72646263
0.72800498
0.72953613
0.73105402
0.73255663
0.73404194
0.73550798
0.7369528
0.73837455
0.7397715
0.74114206
0.74245843
0.74374918
0.67658284
0.67770327
0.67883509
0.67997961
0.68113783
0.68231079
0.68349947
0.6847048
0.68592756
0.68716844
0.68842798
0.68970663
0.69100469
0.69232234
0.69365965
0.69501656
0.69639289
0.69778834
0.69920254
0.70063496
0.70208504
0.70355209
0.70503534
0.70653373
0.70804531
0.70956618
0.71107576
0.7125703
0.71411733
0.7156718
0.71722873
0.7187466
0.72030533
0.72186826
0.7234287
0.72498433
0.72653297
0.72807253
0.72960096
0.73111621
0.73261624
0.73409905
0.73556264
0.73700509
0.73842453
0.73981922
0.74118752
0.7425016
0.74379113
0.67692173
0.67802564
0.67914226
0.68027253
0.68141737
0.68257776
0.68375463
0.68494883
0.68616111
0.68739209
0.68864228
0.68991208
0.69120176
0.69251147
0.69384124
0.69519099
0.6965605
0.69794946
0.69935746
0.70078396
0.70222838
0.70369001
0.70516809
0.70666159
0.70816872
0.70968582
0.71118879
0.71268011
0.71422379
0.71577423
0.71732607
0.71884021
0.72039601
0.72195571
0.72351293
0.72506536
0.72661085
0.72814734
0.72967277
0.73118511
0.7326823
0.73416234
0.73562324
0.73706306
0.73847994
0.73987211
0.74123793
0.74254953
0.74383769
0.67729202
0.67837808
0.67947825
0.68059308
0.68172341
0.68287015
0.68403417
0.68521627
0.68641713
0.68763733
0.68887734
0.69013749
0.69141804
0.69271908
0.69404063
0.69538255
0.69674462
0.69812649
0.69952771
0.70094775
0.70238598
0.70384169
0.7053141
0.70680225
0.70830454
0.70981776
0.71131291
0.71280107
0.7143412
0.71588736
0.717433
0.71894325
0.72049598
0.72205216
0.72360583
0.72515474
0.72669677
0.72822989
0.72975203
0.73126116
0.73275523
0.73423223
0.73569016
0.73712708
0.73854114
0.73993054
0.74129364
0.74260255
0.74388918
0.6766413
0.67769466
0.6787621
0.67984458
0.68094274
0.68205738
0.68318935
0.68433945
0.68550843
0.6866969
0.6879054
0.68913434
0.69038402
0.69165464
0.69294626
0.69425886
0.69559227
0.69694624
0.69832039
0.69971425
0.70112724
0.70255873
0.70400798
0.7054742
0.7069565
0.7084536
0.70996488
0.71144658
0.71293385
0.71447028
0.71601218
0.71754984
0.71905632
0.72060587
0.72215822
0.72370799
0.72525302
0.72679126
0.72832067
0.72983921
0.73134482
0.73283548
0.73430914
0.73576382
0.73719757
0.73860851
0.73999487
0.74135499
0.74266099
0.74394589
0.67709907
0.67813188
0.67917935
0.68024283
0.68132304
0.68242076
0.68353678
0.68467186
0.68582665
0.68700174
0.68819758
0.68941454
0.69065287
0.69191273
0.69319414
0.69449704
0.69582122
0.6971664
0.69853217
0.69991802
0.70132337
0.70274753
0.70418976
0.70564925
0.70712513
0.70861635
0.71012248
0.71159603
0.71307956
0.71461182
0.71615006
0.71767652
0.71918006
0.72072635
0.7222745
0.72381998
0.72536077
0.72689486
0.72842022
0.72993482
0.7314366
0.73292351
0.73439353
0.73584465
0.73727492
0.73868247
0.7400655
0.74142237
0.74272521
0.74400819
0.67759575
0.67860559
0.67963153
0.68067459
0.68173552
0.68281505
0.68391392
0.68503281
0.68617233
0.68733297
0.68851515
0.68971918
0.69094527
0.69219351
0.69346388
0.69475629
0.69607049
0.69740616
0.69876286
0.70014005
0.70153711
0.70295333
0.70438795
0.70584013
0.70730901
0.70879364
0.71029339
0.71176008
0.71323878
0.71476643
0.71630348
0.71781179
0.71931541
0.72085819
0.72240167
0.72394243
0.72547858
0.72700813
0.72852908
0.73003938
0.73153699
0.73301983
0.73448587
0.73593311
0.73735959
0.73876342
0.74014282
0.74149615
0.74279559
0.74407644
0.67813256
0.6791175
0.68012027
0.68114147
0.68218174
0.68324177
0.68432224
0.68542376
0.68654686
0.68769198
0.68885947
0.69004959
0.69126248
0.6924982
0.69375668
0.69503778
0.69634121
0.69766662
0.69901353
0.70038136
0.70176947
0.70317712
0.7046035
0.70604778
0.70750905
0.70898642
0.71047908
0.71193892
0.71341209
0.71493415
0.71646612
0.7179633
0.71946398
0.72100216
0.72254039
0.72407597
0.72560704
0.72713166
0.72864782
0.73015346
0.73164652
0.73312493
0.73458666
0.73602967
0.73745201
0.73885179
0.74022725
0.74157675
0.74287256
0.74415111
0.67776953
0.67871029
0.67966916
0.68064723
0.68164506
0.68266326
0.68370245
0.68476323
0.68584615
0.68695166
0.68808015
0.68923188
0.69040707
0.69160579
0.69282806
0.69407376
0.69534269
0.69663455
0.69794891
0.69928527
0.70064303
0.70202149
0.70341989
0.7048374
0.70627314
0.70772619
0.70919565
0.71068062
0.71213319
0.71360022
0.71511581
0.71664109
0.71812968
0.71962628
0.72115896
0.72269134
0.72422124
0.72574681
0.72726608
0.72877703
0.7302776
0.73176574
0.73323935
0.73469639
0.73613481
0.73755266
0.73894805
0.74031921
0.74166458
0.74295654
0.74423275
0.67841926
0.67933113
0.68026228
0.68121404
0.68218698
0.68318165
0.68419862
0.6852384
0.68630146
0.68738819
0.68849888
0.68963376
0.69079296
0.69197652
0.69318437
0.69441637
0.69567225
0.69695168
0.69825418
0.69957922
0.70092615
0.70229424
0.7036827
0.70509066
0.7065172
0.7079614
0.7094223
0.71089897
0.71234371
0.71380403
0.71531238
0.71683018
0.71831088
0.71980283
0.72132919
0.72285518
0.72437893
0.72589852
0.727412
0.72891732
0.73041242
0.73189522
0.73336364
0.73481559
0.73624905
0.73766204
0.73905265
0.74041915
0.74176003
0.74304796
0.74432222
0.67911628
0.67999688
0.6808985
0.6818223
0.6827688
0.68373847
0.68473181
0.68574925
0.68679117
0.68785788
0.6889496
0.6900665
0.69120864
0.69237598
0.69356843
0.69478577
0.6960277
0.69729381
0.69858362
0.69989652
0.70123184
0.70258881
0.7039666
0.7053643
0.70678098
0.70821565
0.70966734
0.71113507
0.71257139
0.71402445
0.71552489
0.71703459
0.71850735
0.71999425
0.72151353
0.72303263
0.72454971
0.72606286
0.72757008
0.72906932
0.73055852
0.73203556
0.73349836
0.73494483
0.73637292
0.73778064
0.73916608
0.7405275
0.74186348
0.74314702
0.67986178
0.68070913
0.68157941
0.68247359
0.68339207
0.68433525
0.68530354
0.68629727
0.68731674
0.68836217
0.68943373
0.69053149
0.69165546
0.69280553
0.69398156
0.69518326
0.69641029
0.69766219
0.69893842
0.70023835
0.70156125
0.70290633
0.70427269
0.70565941
0.7070655
0.70848996
0.70993177
0.7113899
0.71281718
0.71426241
0.71575428
0.71725532
0.71871979
0.72020115
0.72171273
0.7232244
0.72473432
0.72624052
0.727741
0.7292337
0.73071652
0.73218736
0.7336441
0.73508465
0.73650695
0.73790899
0.73928883
0.74064472
0.7419752
0.74325289
0.68065706
0.68146932
0.6823065
0.6831694
0.6840583
0.6849735
0.68591529
0.68688392
0.68787962
0.68890251
0.68995268
0.69103012
0.69213479
0.69326651
0.69442506
0.69561012
0.69682128
0.69805804
0.69931981
0.7006059
0.70191555
0.70324791
0.70460207
0.70597705
0.70737184
0.70878537
0.71021659
0.71166444
0.71308204
0.7145189
0.71600152
0.71749329
0.71894899
0.72042428
0.72192757
0.72343127
0.72493347
0.72643221
0.72792545
0.72941111
0.73088708
0.73235123
0.73380146
0.73523564
0.73665172
0.73804764
0.73942144
0.74077131
0.74209576
0.74336736
0.68150341
0.68227881
0.68308119
0.68391118
0.68476893
0.68565464
0.6865685
0.68751066
0.68848124
0.6894803
0.69050783
0.69156378
0.69264799
0.69376025
0.69490027
0.69606766
0.69726197
0.69848263
0.699729
0.70100036
0.7022959
0.70361473
0.70495588
0.70631834
0.70770105
0.70910292
0.71052284
0.71195969
0.71336696
0.71479487
0.71626754
0.71774942
0.71919579
0.72066442
0.72215884
0.72365399
0.72514794
0.72663868
0.72812415
0.72960225
0.73107085
0.73252783
0.73397105
0.7353984
0.73680779
0.73819715
0.73956447
0.74090783
0.74222569
0.74349099
0.68240203
0.68313888
0.6839048
0.68470027
0.68552534
0.68638007
0.68726456
0.68817885
0.68912298
0.69009692
0.69110058
0.69213381
0.69319641
0.69428809
0.69540849
0.69655717
0.69773361
0.6989372
0.70016724
0.70142296
0.7027035
0.70400793
0.70533524
0.70668438
0.70805423
0.70944367
0.71085155
0.71227668
0.71367293
0.71509134
0.71655326
0.71802461
0.71946107
0.72092241
0.72240735
0.72389337
0.72537848
0.72686066
0.72833781
0.72980781
0.73126852
0.7327178
0.73415351
0.73557353
0.73697576
0.73835811
0.73971851
0.74105487
0.74236541
0.74362413
0.68335401
0.68405067
0.68477854
0.68553794
0.6863288
0.6871511
0.68800479
0.68888985
0.68980619
0.69075371
0.69173225
0.69274156
0.69378138
0.69485135
0.69595103
0.69707994
0.69823748
0.699423
0.70063575
0.7018749
0.70313954
0.70442869
0.70574131
0.7070763
0.70843249
0.70980871
0.71120377
0.71261643
0.71400097
0.71540925
0.71685967
0.71831981
0.71974571
0.72119908
0.72267393
0.7241502
0.72562589
0.72709892
0.72856717
0.73002851
0.73148077
0.7329218
0.73434947
0.73576164
0.73715622
0.73853112
0.73988422
0.74121315
0.74251515
0.74376709
0.68436027
0.68501519
0.68570347
0.6864253
0.6871805
0.68796892
0.68879043
0.68964489
0.69053213
0.69145196
0.69240412
0.69338831
0.69440418
0.69545129
0.69652916
0.69763723
0.69877484
0.69994128
0.70113576
0.70235738
0.7036052
0.70487818
0.70617524
0.70749521
0.70883692
0.71019912
0.71158058
0.71298
0.7143521
0.71574958
0.71718775
0.71863593
0.72005061
0.7214953
0.72295941
0.72442532
0.72589097
0.72735424
0.728813
0.73026507
0.7317083
0.73314051
0.73455956
0.73596333
0.73734974
0.73871675
0.7400623
0.74138384
0.74267462
0.74392023
0.68542157
0.68603328
0.68668053
0.68736336
0.68808148
0.68883465
0.68962262
0.69044516
0.69130201
0.69219288
0.69311744
0.69407531
0.69506605
0.69608918
0.69714413
0.69823027
0.69934691
0.70049326
0.70166847
0.70287161
0.70410166
0.70535756
0.70663816
0.70794226
0.70926863
0.71061599
0.71198303
0.71336842
0.71472735
0.71611335
0.71753848
0.71897391
0.72037667
0.72181192
0.72326464
0.72471955
0.72617452
0.7276274
0.72907603
0.73051823
0.7319518
0.73337459
0.73478444
0.73617923
0.73755691
0.73891553
0.74025339
0.74156967
0.7428418
0.74408424
0.68653845
0.68710561
0.68771046
0.68835295
0.68903267
0.68974926
0.69050238
0.69129172
0.69211692
0.6929776
0.69387336
0.69480372
0.6957682
0.69676621
0.69779714
0.69886029
0.6999549
0.70108013
0.70223508
0.70341876
0.7046301
0.70586799
0.70713122
0.70841856
0.70972873
0.71106039
0.71241221
0.71378277
0.71512778
0.71650158
0.71791284
0.71933466
0.72072477
0.72214981
0.72359048
0.72503372
0.72647735
0.72791919
0.72935705
0.73078872
0.732212
0.73362473
0.73502474
0.73640993
0.73777825
0.73912778
0.74045688
0.74176444
0.74302379
0.74426103
0.68771124
0.68823263
0.68879386
0.68939475
0.69003481
0.69071359
0.69143064
0.69218555
0.69297789
0.69380719
0.69467297
0.69557468
0.69651175
0.69748354
0.69848935
0.69952844
0.70059998
0.70170308
0.70283677
0.704
0.70519168
0.70641061
0.70765556
0.70892524
0.71021832
0.71153343
0.71286917
0.71422409
0.71555444
0.71691532
0.71831185
0.71971908
0.72109578
0.72250985
0.7239378
0.7253687
0.72680032
0.72823043
0.72965682
0.73107729
0.73248962
0.73389163
0.73528115
0.73665606
0.73801433
0.73935402
0.7406734
0.74197101
0.74321935
0.74445044
0.68894004
0.68941459
0.6899311
0.69048928
0.69108854
0.69172834
0.69240817
0.69312751
0.69388584
0.69468262
0.69551728
0.69638922
0.69729778
0.69824226
0.6992219
0.70023588
0.70128331
0.70236326
0.70347468
0.7046165
0.70578754
0.70698657
0.70821231
0.70946341
0.71073851
0.71203618
0.713355
0.71469346
0.71600841
0.71735567
0.71873659
0.72012799
0.72149057
0.72289291
0.72430749
0.72572537
0.72714426
0.72856192
0.72997614
0.7313847
0.73278537
0.73417597
0.73555432
0.73691828
0.7382658
0.73959489
0.74090374
0.74219071
0.7434284
0.74465252
0.69022473
0.69065154
0.69112238
0.69163685
0.6921943
0.69279409
0.69343563
0.69411832
0.69484157
0.69560476
0.69640724
0.69724834
0.69812733
0.69904344
0.69999586
0.70098369
0.702006
0.70306179
0.70414996
0.70526938
0.70641882
0.70759701
0.7088026
0.71003421
0.7112904
0.71256975
0.71387077
0.71519193
0.71649079
0.7178238
0.71918833
0.72056202
0.72190994
0.72329994
0.7247005
0.72610463
0.72751004
0.72891452
0.73031582
0.73171173
0.73310002
0.73447849
0.73584496
0.73719726
0.73853332
0.73985109
0.74114867
0.74242437
0.74365117
0.74486752
0.69156495
0.69194332
0.6923677
0.69283764
0.6933524
0.69391126
0.69451357
0.69515864
0.69584582
0.69657442
0.69734371
0.69815295
0.69900136
0.6998881
0.70081228
0.70177298
0.70276917
0.70379981
0.70486375
0.7059598
0.7070867
0.70824309
0.7094276
0.71063878
0.71187515
0.71313525
0.71441756
0.71572057
0.71700262
0.71832096
0.71966901
0.72102102
0.72235483
0.723732
0.72511784
0.72650744
0.72789859
0.72928909
0.7306767
0.73205919
0.73343434
0.73479994
0.73615379
0.73749373
0.73881762
0.74012336
0.74140893
0.74267261
0.74388808
0.74509582
0.69296015
0.69328957
0.69366693
0.69409167
0.69456301
0.69508017
0.69564242
0.69624903
0.69689925
0.69759234
0.69832752
0.69910397
0.69992085
0.70077725
0.70167225
0.70260483
0.70357394
0.70457847
0.70561723
0.70668896
0.70779236
0.70892602
0.71008851
0.71127833
0.71249395
0.71373385
0.71499652
0.71628044
0.71754489
0.71884835
0.72018355
0.72150152
0.72282681
0.72419041
0.72556063
0.72693483
0.72831087
0.72968655
0.73105965
0.73242793
0.73378916
0.73514111
0.73648159
0.73780843
0.73911947
0.7404125
0.7416853
0.74293597
0.74413955
0.74533786
0.6944096
0.69468982
0.69501977
0.69539885
0.69582623
0.69630107
0.69682259
0.69739
0.6980025
0.69865928
0.69935951
0.70010231
0.70088677
0.70171195
0.70257685
0.7034804
0.70442151
0.705399
0.70641164
0.70745813
0.70853709
0.70964709
0.71078663
0.71195417
0.7131481
0.71436686
0.71560889
0.71687267
0.71811839
0.71940503
0.72072162
0.72201639
0.72332943
0.72467653
0.72603004
0.7273879
0.72874793
0.73010793
0.73146567
0.7328189
0.73416537
0.73550287
0.7368292
0.7381422
0.73943969
0.7407194
0.74197868
0.74321484
0.7444061
0.74559424
0.69591251
0.69614349
0.6964259
0.69675906
0.69714211
0.6975742
0.69805447
0.6985821
0.69915625
0.69977604
0.70044059
0.70114897
0.70190023
0.70269336
0.70352731
0.70440098
0.7053132
0.70626277
0.70724839
0.70826872
0.70932234
0.71040777
0.71152345
0.71266778
0.7138391
0.71503576
0.71625615
0.71749872
0.71872455
0.71999288
0.72128917
0.72256342
0.72386265
0.72519152
0.7265273
0.72786784
0.72921095
0.73055437
0.73189586
0.73323317
0.73456403
0.73588623
0.73719757
0.73849592
0.73977915
0.74104502
0.74229047
0.74350918
0.74468854
0.74586573
0.69746807
0.69765006
0.69788502
0.69817224
0.69851083
0.6988999
0.69933859
0.69982603
0.70036133
0.70094357
0.70157184
0.70224515
0.7029625
0.70372285
0.70452508
0.70536807
0.70625059
0.70717138
0.70812912
0.70912242
0.71014982
0.71120978
0.71230071
0.71342093
0.71456872
0.71574233
0.71694007
0.71816036
0.71936526
0.7206141
0.72188916
0.72314314
0.72442718
0.72573677
0.72705384
0.72837612
0.72970135
0.73102727
0.73235159
0.73367205
0.73498639
0.73629238
0.73758783
0.73887063
0.74013874
0.74139029
0.74262396
0.74381666
0.74498879
0.7461534
0.69907565
0.69920918
0.69939705
0.69963855
0.69993276
0.70027879
0.70067576
0.70112276
0.70161888
0.70216318
0.70275469
0.70339239
0.70407525
0.70480217
0.70557201
0.70638358
0.70723564
0.70812687
0.70905592
0.71002134
0.71102166
0.71205528
0.71312058
0.71421581
0.71533918
0.71648882
0.71766292
0.71885985
0.72004281
0.72127107
0.72252397
0.72375719
0.72502467
0.72631409
0.72761149
0.72891455
0.73022094
0.73152837
0.73283456
0.73413721
0.73543406
0.73672287
0.73800146
0.7392677
0.74051954
0.74175514
0.74297288
0.74414719
0.7453085
0.74645852
0.70073558
0.70082086
0.70096232
0.70115857
0.70140874
0.70171193
0.70206725
0.70247378
0.70293058
0.70343669
0.70399112
0.70459282
0.70524071
0.70593367
0.70667053
0.70745005
0.70827095
0.7091319
0.71003148
0.71096823
0.71194063
0.71294707
0.71398588
0.71505527
0.71615337
0.71727816
0.7184276
0.71959999
0.72076008
0.7219667
0.72319629
0.72440799
0.72565755
0.72692593
0.72820273
0.72948556
0.73077209
0.73206001
0.73334702
0.73463082
0.73590916
0.73717977
0.73844046
0.73968906
0.7409235
0.74214183
0.74334228
0.74449948
0.74564822
0.7467825
0.70244779
0.70248631
0.70258184
0.70273365
0.70294039
0.70320119
0.70351516
0.70388139
0.70429893
0.7047668
0.70528399
0.70584943
0.70646203
0.70712062
0.70782401
0.70857094
0.70936008
0.71019007
0.71105948
0.7119668
0.71291049
0.71388891
0.71490038
0.71594309
0.71701511
0.71811426
0.7192381
0.72038436
0.72152083
0.72270488
0.72390947
0.72509893
0.7263293
0.72757573
0.72883091
0.73009245
0.73135802
0.73262532
0.73389203
0.73515588
0.73641458
0.73766588
0.73890757
0.74013744
0.74135333
0.7425532
0.74373525
0.74487498
0.74600964
0.74712721
0.70421302
0.70420741
0.70425802
0.70436626
0.70453047
0.7047496
0.70502279
0.70534913
0.70572769
0.70615747
0.70663745
0.70716656
0.70774368
0.70836763
0.70903718
0.70975107
0.71050793
0.71130638
0.71214496
0.71302213
0.71393634
0.71488593
0.7158692
0.71688438
0.71792955
0.71900251
0.72010027
0.72121707
0.72233015
0.72349135
0.72466743
0.72583487
0.72704485
0.72826829
0.7295007
0.73073976
0.73198316
0.73322861
0.73447381
0.73571647
0.73695431
0.73818509
0.73940657
0.74061654
0.74181273
0.74299291
0.74415502
0.7452765
0.74639562
0.74749545
0.70603494
0.70598631
0.70599523
0.70606058
0.70618345
0.70636194
0.7065952
0.70688234
0.70722243
0.70761449
0.70805749
0.70855037
0.709092
0.70968118
0.71031667
0.71099718
0.71172135
0.71248775
0.71329491
0.71414127
0.71502525
0.7159452
0.71689939
0.71788611
0.71890359
0.71995022
0.72102512
0.72209995
0.72319531
0.72433705
0.72547179
0.72662366
0.7278112
0.72901025
0.73021852
0.73143374
0.73265361
0.73387585
0.73509816
0.73631826
0.73753387
0.73874276
0.73994271
0.74113151
0.74230689
0.74346625
0.74460531
0.74570827
0.74681038
0.74789131
0.70791883
0.70782952
0.70779824
0.7078238
0.70790617
0.7080454
0.70823989
0.7084888
0.70879121
0.70914617
0.70955266
0.71000962
0.71051592
0.71107037
0.71167172
0.71231866
0.71300981
0.71374375
0.71451896
0.71533391
0.71618695
0.71707643
0.71800064
0.71895782
0.71994624
0.72096424
0.72201038
0.72305376
0.72412637
0.72524048
0.72634461
0.7274762
0.72863748
0.72981052
0.73099309
0.73218293
0.73337774
0.73457523
0.73577309
0.73696906
0.73816086
0.73934627
0.74052314
0.74168934
0.74284299
0.74398284
0.74508813
0.74617717
0.74725992
0.74832052
0.71005938
0.70987327
0.70974588
0.70967657
0.70966482
0.70970905
0.70981038
0.70996762
0.71017959
0.71044541
0.71076417
0.71113487
0.71155646
0.71202781
0.71254775
0.71311502
0.71372832
0.71438627
0.71508741
0.71583025
0.7166132
0.71743464
0.71829287
0.71918616
0.72011274
0.7210708
0.72205856
0.72307421
0.72408766
0.72513529
0.7262191
0.72729405
0.72840264
0.7295357
0.73068098
0.73183615
0.73299889
0.7341669
0.73533786
0.73650949
0.7376795
0.73884565
0.74000573
0.74115758
0.7422991
0.74342819
0.74454299
0.74562175
0.74669286
0.74775278
0.74879105
0.71212823
0.71191016
0.71174808
0.71164374
0.71159677
0.71160636
0.7116715
0.71179334
0.71197002
0.71220069
0.71248446
0.71282036
0.71320737
0.71364439
0.71413024
0.71466369
0.71524343
0.71586809
0.71653622
0.7172463
0.71799676
0.71878595
0.71961216
0.72047364
0.72136856
0.72229508
0.72325127
0.72423521
0.72521822
0.72623886
0.72729031
0.72833547
0.72941853
0.73052173
0.73163746
0.73276333
0.73389702
0.7350362
0.73617858
0.73732187
0.7384638
0.73960213
0.74073468
0.74185933
0.74297392
0.74407603
0.74516174
0.74621472
0.747265
0.74829972
0.74931333
0.71428956
0.71404636
0.71385374
0.71371789
0.71363887
0.71361629
0.71364887
0.71373708
0.71388056
0.71407788
0.71432821
0.71463063
0.71498414
0.71538767
0.71584008
0.71634014
0.71688657
0.71747799
0.71811297
0.71879
0.71950749
0.72026381
0.72105723
0.72188598
0.72274822
0.723642
0.72456527
0.7255159
0.72646758
0.72745939
0.72847496
0.72949007
0.73054502
0.73161644
0.73270053
0.73379489
0.73489722
0.7360052
0.73711656
0.73822901
0.7393403
0.74044823
0.74155067
0.74264559
0.7437311
0.74480591
0.74585141
0.74688171
0.74790766
0.74891458
0.74990082
0.71657131
0.71630313
0.71608617
0.71592285
0.71581555
0.71576396
0.71576755
0.7158249
0.71593762
0.71610379
0.71632261
0.71659319
0.71691458
0.71728575
0.71770558
0.71817288
0.71868638
0.71924473
0.71984651
0.72049022
0.7211743
0.7218971
0.72265692
0.72345199
0.72428046
0.72514035
0.72602928
0.72694333
0.72786338
0.72882734
0.7297949
0.73078676
0.73180896
0.73284617
0.73389602
0.73495618
0.73602437
0.73709829
0.73817567
0.73925425
0.74033182
0.7414062
0.74247529
0.74353701
0.74458902
0.74562824
0.74663905
0.74764507
0.74863911
0.7496147
0.75057016
0.71899972
0.71871002
0.71847464
0.71828855
0.71815734
0.71808079
0.71805853
0.71808934
0.71817377
0.71831146
0.71850109
0.71874183
0.71903279
0.71937297
0.71976132
0.72019666
0.72067776
0.72120331
0.72177189
0.72238204
0.7230322
0.72372076
0.72444604
0.7252063
0.72599983
0.72682499
0.72768066
0.7285459
0.72943738
0.7303664
0.73129543
0.7322572
0.73324222
0.7342421
0.73525454
0.73627724
0.7373079
0.73834426
0.73938407
0.7404251
0.74146516
0.74250215
0.74353408
0.74455901
0.74557464
0.74656614
0.74754759
0.74852191
0.74947994
0.75042004
0.75134056
0.72161008
0.72130122
0.72105198
0.72085038
0.72070041
0.72060355
0.72055956
0.72056785
0.7206275
0.72073974
0.72090285
0.72111608
0.72137858
0.7216894
0.72204754
0.72245187
0.72290119
0.72339422
0.7239296
0.72450587
0.72512152
0.72577495
0.7264645
0.72718844
0.72794498
0.72873231
0.72954864
0.73037299
0.73123144
0.73211837
0.73300933
0.7339357
0.73488001
0.73583894
0.73681017
0.73779142