/*--------------------------------*- C++ -*----------------------------------*\
| =========                 |                                                 |
| \\      /  F ield         | OpenFOAM: The Open Source CFD Toolbox           |
|  \\    /   O peration     | Version:  2312                                  |
|   \\  /    A nd           | Website:  www.openfoam.com                      |
|    \\/     M anipulation  |                                                 |
\*---------------------------------------------------------------------------*/
FoamFile
{
    version     2.0;
    format      ascii;
    arch        "LSB;label=32;scalar=64";
    class       volScalarField;
    location    "0.03";
    object      nut;
}
// * * * * * * * * * * * * * * * * * * * * * * * * * * * * * * * * * * * * * //

dimensions      [0 2 -1 0 0 0 0];

internalField   nonuniform List<scalar> 
3250
(
0.035979173
0.03585938
0.035741933
0.03562648
0.035512675
0.03540017
0.035288619
0.035177675
0.035066998
0.034956256
0.034845122
0.034733285
0.034620444
0.034506316
0.034390635
0.034273154
0.034153651
0.034031924
0.0339078
0.033781135
0.033651814
0.033519756
0.033384919
0.033247303
0.03310695
0.032963843
0.032817884
0.032669598
0.032518943
0.03236605
0.032211191
0.032054655
0.031896763
0.031737851
0.031578278
0.031418426
0.031258707
0.031099559
0.030941443
0.030784833
0.030630216
0.030478079
0.030328914
0.030183235
0.030041587
0.029904365
0.02977203
0.029644967
0.029523554
0.03597551
0.035855889
0.035738599
0.035623294
0.03550963
0.035397259
0.035285836
0.035175014
0.035064454
0.034953822
0.034842795
0.03473106
0.034618317
0.034504283
0.034388692
0.034271298
0.034151877
0.034030229
0.033906182
0.033779591
0.03365034
0.033518351
0.03338358
0.033246027
0.033105735
0.032962687
0.03281678
0.032668546
0.032517943
0.032365098
0.032210286
0.032053794
0.031895944
0.031737071
0.031577534
0.031417717
0.03125803
0.031098913
0.030940825
0.030784242
0.030629649
0.030477538
0.030328399
0.030182744
0.030041098
0.02990389
0.029771558
0.029644508
0.029523115
0.035968349
0.035849063
0.035732084
0.035617073
0.035503688
0.035391582
0.03528041
0.035169828
0.035059496
0.034949082
0.034838263
0.034726726
0.034614172
0.034500318
0.034384899
0.03426767
0.034148407
0.034026912
0.03390301
0.033776558
0.033647441
0.03351558
0.033380932
0.033243497
0.03310332
0.032960381
0.032814577
0.032666443
0.032515935
0.032363183
0.032208459
0.032052051
0.031894281
0.031735484
0.03157602
0.031416271
0.031256649
0.031097594
0.030939564
0.030783036
0.030628496
0.030476435
0.030327347
0.030181738
0.03004012
0.029902939
0.02977063
0.029643609
0.029522253
0.035957701
0.03583891
0.035722397
0.035607825
0.035494856
0.035383145
0.035272349
0.035162123
0.035052131
0.03494204
0.034831528
0.034720284
0.03460801
0.034494423
0.034379259
0.034262274
0.034143244
0.034021971
0.033898282
0.033772034
0.033643114
0.033511441
0.033376973
0.033239711
0.0330997
0.032956921
0.032811269
0.032663281
0.032512914
0.032360296
0.032205701
0.032049417
0.031891764
0.03173308
0.031573723
0.031414076
0.031254551
0.031095588
0.030937645
0.030781199
0.030626737
0.030474752
0.030325737
0.030180196
0.03003863
0.029901494
0.029769225
0.029642249
0.029520941
0.035943581
0.035825444
0.035709548
0.035595559
0.035483143
0.035371957
0.035261659
0.035151907
0.035042364
0.034932701
0.034822596
0.03471174
0.034599835
0.034486601
0.034371774
0.03425511
0.034136387
0.034015408
0.033892
0.033766021
0.033637358
0.033505932
0.033371701
0.033234666
0.033094872
0.032952302
0.03280685
0.032659054
0.032508872
0.032356431
0.032202004
0.032045882
0.031888385
0.031729849
0.031570633
0.03141112
0.031251723
0.031092881
0.030935054
0.030778718
0.030624359
0.030472472
0.030323552
0.030178098
0.030036606
0.029899535
0.029767324
0.029640407
0.029519159
0.035927017
0.035809645
0.035694472
0.035581168
0.035469401
0.03535883
0.035249116
0.035139919
0.035030904
0.034921742
0.034812115
0.034701713
0.034590241
0.034477419
0.034362986
0.034246697
0.034128333
0.034007697
0.033884617
0.033758952
0.033630589
0.033499451
0.033365495
0.033228724
0.033089183
0.032946856
0.032801639
0.032654066
0.032504099
0.032351863
0.032197632
0.032041698
0.031884382
0.031726018
0.031566967
0.031407611
0.031248363
0.031089663
0.03093197
0.030775762
0.030621524
0.030469752
0.03032094
0.030175588
0.030034184
0.029897192
0.029765054
0.029638205
0.029517025
0.035908517
0.035791998
0.035677632
0.035565093
0.035454051
0.035344168
0.035235106
0.035126528
0.035018102
0.0349095
0.034800405
0.03469051
0.034579521
0.034467159
0.034353164
0.034237294
0.03411933
0.033999075
0.033876361
0.033751044
0.033623016
0.033492197
0.033358548
0.033222071
0.033082811
0.032940754
0.032795796
0.032648472
0.032498743
0.032346735
0.032192722
0.032036997
0.031879881
0.03172171
0.031562842
0.03140366
0.031244578
0.031086035
0.030928492
0.030772426
0.030618323
0.030466678
0.030317986
0.030172745
0.030031442
0.029894541
0.029762485
0.029635713
0.029514605
0.035886643
0.035771132
0.03565772
0.035546084
0.035435898
0.035326827
0.035218536
0.035110691
0.03500296
0.034895019
0.034786553
0.034677257
0.034566838
0.034455019
0.034341542
0.034226166
0.034108673
0.033988869
0.033866584
0.03374168
0.033614045
0.033483604
0.033350316
0.033214183
0.033075255
0.032933516
0.032788863
0.032641831
0.032492383
0.032340643
0.032186887
0.032031408
0.031874528
0.031716583
0.03155793
0.031398953
0.031240066
0.031081709
0.030924343
0.030768444
0.030614499
0.030463004
0.030314454
0.030169344
0.030028159
0.029891367
0.029759411
0.029632731
0.029511709
0.035861169
0.03574683
0.035634527
0.035523942
0.035414753
0.035306628
0.035199234
0.035092241
0.034985319
0.034878148
0.034770414
0.034661813
0.034552057
0.03444087
0.034327995
0.034213193
0.034096248
0.033976968
0.033855184
0.033730757
0.03360358
0.033473576
0.033340707
0.033204976
0.033066432
0.032925062
0.032780763
0.032634071
0.032484948
0.032333519
0.03218006
0.032024867
0.031868261
0.031710577
0.031552174
0.031393435
0.031234775
0.031076634
0.030919472
0.030763768
0.030610008
0.030458686
0.030310299
0.030165341
0.030024296
0.029887632
0.029755794
0.029629221
0.029508299
0.035831861
0.035718868
0.03560784
0.035498463
0.035390419
0.035283381
0.035177019
0.035071005
0.034965014
0.034858727
0.034751834
0.034644034
0.03453504
0.034424579
0.034312395
0.034198253
0.034081938
0.033963258
0.033842048
0.033718171
0.033591519
0.033462017
0.033329629
0.033194359
0.033056255
0.032915308
0.032771415
0.032625113
0.032476363
0.032325291
0.032172173
0.032017307
0.031861016
0.031703633
0.031545516
0.03138705
0.03122865
0.031070756
0.03091383
0.030758349
0.0306048
0.030453677
0.030305478
0.030160694
0.030019811
0.029883295
0.029751594
0.029625147
0.02950434
0.035798478
0.035687015
0.035577437
0.035469435
0.035362695
0.035256893
0.035151705
0.035046805
0.034941873
0.034836593
0.034730657
0.034623767
0.03451564
0.034406004
0.034294607
0.034181215
0.034065616
0.03394762
0.033827063
0.03370381
0.033577755
0.033448825
0.033316983
0.033182236
0.033044633
0.032904166
0.032760735
0.032614876
0.032466549
0.032315883
0.032163152
0.032008658
0.031852724
0.031695682
0.031537891
0.031379736
0.031221632
0.031064019
0.030907361
0.030752134
0.030598825
0.030447929
0.030299942
0.030155357
0.030014658
0.029878312
0.029746768
0.029620466
0.02949979
0.035760773
0.035651036
0.035543092
0.03543664
0.035331369
0.035226962
0.035123098
0.035019456
0.034915718
0.034811573
0.034706716
0.034600854
0.034493704
0.034385
0.034274491
0.034161945
0.034047153
0.033929928
0.033810108
0.033687559
0.033562177
0.03343389
0.033302665
0.033168506
0.033031467
0.032891543
0.032748633
0.032603273
0.032455424
0.032305215
0.03215292
0.031998845
0.031843314
0.031686658
0.031529234
0.031371428
0.031213658
0.031056363
0.030900007
0.030745066
0.030592028
0.030441389
0.030293642
0.030149282
0.030008791
0.029872638
0.029741272
0.029615136
0.029494609
0.035718491
0.035610684
0.035504569
0.035399851
0.035296226
0.03519338
0.035090999
0.034988764
0.034886364
0.03478349
0.034679843
0.034575131
0.034469076
0.034361414
0.034251899
0.034140301
0.034026414
0.033910052
0.033791056
0.033669295
0.033544667
0.033417101
0.033286565
0.033153067
0.033016658
0.03287734
0.032735016
0.032590215
0.0324429
0.032293202
0.032141395
0.03198779
0.03183271
0.031676485
0.031519473
0.031362059
0.031204662
0.031047724
0.030891706
0.030737087
0.030584354
0.030434001
0.030286524
0.030142416
0.03000216
0.029866224
0.029735059
0.029609109
0.029488751
0.03567137
0.035565707
0.035461625
0.035358836
0.035257041
0.035155932
0.0350552
0.034954532
0.03485362
0.034752161
0.034649859
0.034546427
0.03444159
0.03433509
0.03422668
0.034116137
0.034003256
0.033887855
0.033769777
0.033648894
0.033525104
0.03339834
0.033268572
0.033135807
0.0330001
0.032861457
0.032719784
0.032575606
0.032428886
0.032279756
0.032128492
0.03197541
0.031820833
0.031665089
0.031508534
0.031351557
0.031194577
0.031038035
0.030882395
0.030728134
0.03057574
0.030425707
0.030278531
0.030134705
0.029994711
0.029859019
0.02972808
0.029602337
0.029482169
0.035619141
0.035515848
0.035414012
0.035313355
0.035213584
0.035114397
0.035015489
0.034916554
0.034817289
0.034717395
0.034616582
0.034514566
0.034411078
0.034305862
0.034198677
0.034089302
0.033977534
0.033863196
0.033746135
0.033626222
0.033503361
0.033377485
0.033248566
0.033116613
0.032981682
0.032843786
0.032702837
0.032559348
0.032413285
0.032264785
0.032114122
0.03196162
0.0318076
0.031652387
0.03149634
0.031339847
0.031183328
0.031027226
0.030872005
0.030718142
0.030566124
0.030416446
0.030269605
0.030126091
0.029986389
0.029850968
0.02972028
0.029594769
0.029474811
0.035561532
0.035460842
0.035361477
0.035263165
0.035165621
0.035068548
0.034971648
0.03487462
0.034777168
0.034678998
0.034579824
0.034479368
0.034377366
0.034273564
0.034167727
0.034059638
0.033949097
0.033835931
0.033719988
0.033601145
0.033479306
0.033354409
0.033226425
0.033095367
0.03296129
0.032824218
0.032684065
0.032541337
0.032395998
0.032248192
0.03209819
0.031946329
0.031792923
0.031638297
0.031482809
0.03132685
0.03117084
0.031015224
0.030860465
0.03070704
0.030555438
0.030406153
0.030259681
0.030116514
0.029977135
0.029842014
0.029711604
0.029586349
0.029466626
0.035498267
0.035400422
0.03530376
0.035208017
0.035112912
0.035018155
0.034923455
0.034828518
0.034733052
0.034636771
0.034539393
0.034440648
0.034340273
0.034238023
0.034133664
0.034026985
0.03391779
0.033805908
0.033691192
0.033573522
0.033452805
0.033328982
0.033202024
0.033071946
0.032938806
0.032802641
0.032663358
0.032521466
0.032376921
0.032229878
0.032080602
0.031929443
0.031776713
0.031622731
0.031467856
0.031312483
0.031157033
0.031001951
0.0308477
0.030694758
0.030543614
0.03039476
0.030248695
0.030105909
0.029966886
0.029832096
0.029701993
0.029577021
0.029457557
0.035429064
0.035334317
0.035240602
0.03514766
0.035055215
0.034962985
0.034870685
0.034778028
0.03468473
0.034590511
0.034495095
0.034398216
0.034299619
0.034199062
0.034096318
0.033991178
0.033883452
0.033772974
0.033659599
0.03354321
0.033423719
0.033301068
0.033175232
0.033046226
0.032914108
0.032778929
0.032640609
0.032499625
0.032355946
0.032209737
0.032061256
0.031910867
0.031758875
0.031605596
0.031451393
0.031296662
0.031141824
0.030987327
0.030833633
0.03068122
0.030530576
0.030382197
0.030236577
0.030094209
0.029955577
0.029821151
0.029691385
0.029566724
0.029447545
0.03535364
0.035262254
0.035171742
0.035081842
0.034992287
0.034902802
0.03481311
0.034722932
0.034631991
0.034540013
0.034446729
0.03435188
0.034255217
0.034156502
0.034055515
0.03395205
0.033845923
0.033736972
0.033625056
0.033510062
0.033391905
0.03327053
0.033145916
0.033018077
0.032887072
0.03275296
0.0326157
0.032475699
0.032332963
0.032187664
0.032040048
0.0318905
0.031739312
0.031586799
0.031433328
0.031279296
0.031125127
0.030971268
0.030818181
0.030666346
0.03051625
0.030368387
0.030223255
0.030081345
0.02994314
0.029809112
0.029679715
0.029555394
0.029436527
0.035360343
0.035271691
0.035183963
0.03509692
0.035010313
0.034923886
0.034837372
0.034750504
0.03466301
0.034574621
0.03448507
0.034394097
0.034301448
0.03420688
0.034110162
0.034011078
0.03390943
0.033805037
0.033697741
0.033587408
0.033473927
0.033357217
0.033237227
0.033113938
0.032987367
0.032857569
0.032724609
0.032588512
0.03244957
0.032307855
0.032163546
0.032016872
0.031868239
0.031717923
0.031566241
0.031413565
0.031260294
0.031106853
0.030953687
0.030801262
0.030650055
0.030500554
0.030353256
0.030208654
0.030067243
0.029929505
0.029795911
0.029666915
0.029542965
0.029424439
0.035267435
0.035182967
0.035099184
0.035015881
0.034932826
0.034849771
0.034766462
0.034682639
0.034598041
0.034512407
0.034425477
0.034336999
0.034246725
0.03415442
0.034059859
0.033962833
0.033863147
0.033760628
0.033655122
0.033546498
0.033434653
0.033319508
0.033201015
0.03307916
0.03295396
0.03282547
0.032693764
0.032558905
0.032421115
0.032280507
0.03213727
0.03199162
0.031843978
0.031694603
0.031543822
0.031392007
0.031239561
0.031086908
0.030934495
0.030782787
0.030632262
0.030483408
0.030336721
0.030192697
0.030051828
0.029914597
0.029781475
0.029652916
0.029529368
0.029411212
0.035167228
0.035087216
0.035007664
0.034928378
0.034849138
0.034769707
0.034689842
0.034609295
0.034527811
0.034445139
0.034361029
0.034275235
0.034187518
0.03409765
0.034005411
0.0339106
0.033813028
0.033712527
0.033608949
0.033502169
0.033392086
0.033278628
0.03316175
0.03304144
0.032917719
0.032790643
0.032660295
0.032526757
0.032390213
0.032250797
0.032108711
0.031964186
0.031817608
0.031669247
0.031519437
0.031368553
0.031216998
0.031065197
0.030913599
0.030762667
0.030612879
0.030464726
0.030318702
0.030175303
0.030035021
0.02989834
0.029765729
0.029637644
0.029514531
0.029396775
0.03505945
0.034984189
0.034909161
0.034834173
0.034759016
0.034683466
0.034607291
0.034530252
0.034452106
0.034372611
0.034291525
0.03420861
0.034123636
0.034036382
0.033946636
0.033854203
0.033758901
0.033660568
0.033559062
0.033454262
0.033346073
0.033234427
0.033119284
0.033000635
0.032878505
0.032752953
0.032624066
0.032491941
0.032356739
0.032218608
0.032077763
0.031934448
0.031789014
0.031641744
0.03149298
0.0313431
0.031192505
0.031041624
0.030890904
0.030740808
0.030591817
0.03044442
0.030299111
0.030156388
0.030016741
0.029880655
0.029748598
0.029621025
0.029498382
0.029381058
0.035014159
0.034943831
0.034873648
0.034803444
0.034733039
0.034662238
0.034590831
0.034518595
0.034445303
0.034370723
0.034294622
0.034216768
0.034136932
0.034054892
0.033970435
0.033883357
0.033793469
0.033700598
0.033604586
0.033505297
0.033402618
0.033296458
0.033186754
0.033073471
0.032956603
0.03283618
0.032712263
0.032584945
0.03245433
0.032320569
0.032183819
0.032044307
0.031902285
0.03175808
0.031611982
0.031464343
0.031315541
0.031165981
0.031016088
0.030866312
0.030717118
0.030568984
0.030422401
0.030277863
0.030135867
0.029996906
0.029861461
0.029730003
0.029602983
0.02948085
0.029363993
0.034884816
0.034820174
0.034755383
0.034690301
0.034624767
0.034558597
0.034491595
0.03442355
0.034354247
0.034283465
0.03421098
0.03413657
0.034060016
0.033981105
0.033899631
0.033815399
0.033728228
0.03363795
0.033544416
0.033447497
0.033347083
0.033243091
0.033135462
0.033024166
0.032909203
0.032790605
0.032668437
0.032542798
0.032413795
0.032281577
0.032146308
0.032008224
0.031867581
0.031724691
0.03157985
0.031433417
0.031285773
0.03113732
0.030988489
0.030839726
0.030691498
0.030544285
0.030398576
0.030254867
0.030113654
0.02997543
0.029840677
0.029709864
0.029583444
0.029461868
0.029345536
0.034746946
0.034688295
0.034629203
0.034569542
0.034509165
0.034447903
0.03438557
0.034321971
0.034256901
0.034190149
0.034121504
0.034050753
0.033977687
0.033902101
0.033823799
0.033742595
0.033658314
0.033570797
0.033479902
0.033385505
0.033287505
0.033185822
0.033080405
0.032971227
0.032858294
0.032741642
0.032621341
0.032497493
0.03237021
0.03223964
0.032105953
0.031969392
0.031830218
0.031688732
0.031545236
0.031400093
0.031253686
0.03110642
0.030958723
0.030811045
0.030663852
0.030517625
0.030372853
0.030230033
0.03008966
0.029952228
0.029818219
0.029688102
0.029562332
0.029441368
0.034600387
0.034548038
0.034494949
0.034441003
0.034386068
0.034329987
0.034272588
0.034213688
0.034153094
0.034090608
0.034026027
0.033959151
0.03388978
0.033817719
0.033742781
0.033664788
0.033583573
0.033498986
0.033410892
0.033319174
0.033223736
0.033124507
0.03302144
0.032914514
0.03280374
0.032689158
0.032570843
0.032448901
0.032323447
0.032194632
0.032062631
0.031927693
0.03179008
0.031650089
0.031508028
0.031364262
0.031219175
0.031073174
0.03092669
0.03078017
0.030634084
0.03048891
0.03034514
0.030203271
0.030063798
0.029927214
0.029794004
0.029664635
0.029539566
0.029419239
0.034445018
0.034399278
0.03435249
0.03430455
0.034255337
0.034204708
0.034152505
0.034098555
0.03404268
0.033984692
0.033924401
0.033861616
0.033796148
0.033727811
0.033656429
0.033581831
0.03350386
0.033422374
0.033337244
0.033248362
0.033155639
0.03305901
0.032958434
0.032853895
0.03274541
0.032633024
0.032516816
0.032396897
0.032273385
0.032146435
0.032016224
0.031883009
0.031747053
0.031608652
0.031468117
0.031325816
0.031182135
0.031037482
0.030892288
0.030747004
0.030602096
0.030458046
0.030315345
0.03017449
0.030035978
0.029900302
0.029767946
0.02963938
0.029515067
0.029395433
0.034280764
0.034241934
0.034201738
0.034160085
0.034116868
0.034071956
0.034025204
0.033976454
0.033925537
0.033872278
0.033816499
0.033758019
0.03369666
0.033632247
0.033564611
0.033493593
0.033419044
0.033340829
0.033258828
0.033172941
0.033083086
0.032989204
0.03289126
0.032789246
0.032683182
0.032573119
0.032459141
0.032341364
0.032219908
0.032094933
0.03196662
0.031835231
0.03170103
0.031564314
0.031425398
0.031284653
0.031142465
0.030999245
0.030855422
0.03071145
0.030567795
0.030424941
0.030283379
0.030143605
0.030006117
0.029871409
0.029739965
0.029612257
0.02948875
0.029369863
0.034107609
0.034075974
0.034042649
0.034007555
0.033970597
0.033931659
0.033890608
0.033847298
0.033801572
0.033753269
0.03370222
0.033648257
0.033591211
0.033530918
0.033467219
0.033399963
0.033329012
0.033254239
0.033175532
0.033092799
0.033005964
0.032914976
0.032819807
0.032720454
0.032616944
0.032509332
0.032397708
0.032282192
0.032162909
0.03204002
0.031913713
0.031784254
0.031651908
0.031516975
0.031379774
0.031240677
0.031100071
0.030958368
0.030815999
0.030673419
0.030531095
0.03038951
0.030249156
0.030110532
0.029974133
0.029840455
0.029709982
0.029583188
0.029460538
0.029342445
0.033925594
0.033901424
0.033875232
0.033846955
0.033816508
0.033783789
0.033748678
0.03371104
0.033670733
0.033627604
0.033581498
0.033532257
0.033479724
0.033423743
0.033364168
0.033300855
0.033233676
0.033162513
0.033087263
0.033007839
0.032924177
0.032836231
0.032743978
0.032647424
0.0325466
0.032441568
0.032332422
0.032219287
0.032102292
0.031981602
0.031857411
0.031729987
0.031599598
0.031466546
0.031331156
0.0311938
0.031054866
0.030914767
0.030773938
0.03063283
0.030491914
0.030351674
0.030212602
0.030075196
0.029939954
0.029807369
0.029677928
0.029552103
0.029430362
0.029313115
0.033734835
0.033718376
0.033699562
0.03367834
0.03365464
0.033628371
0.033599426
0.033567682
0.033533008
0.033495264
0.033454305
0.033409985
0.033362157
0.033310677
0.033255406
0.033196212
0.033132976
0.033065588
0.032993953
0.032917995
0.032837655
0.032752895
0.0326637
0.03257008
0.032472074
0.03236975
0.032263206
0.032152571
0.032037981
0.031919603
0.031797637
0.031672352
0.031544023
0.031412953
0.031279471
0.03114395
0.031006779
0.030868373
0.030729167
0.030589615
0.030450187
0.030311369
0.030173652
0.030037535
0.029903517
0.029772091
0.029643743
0.029518947
0.029398169
0.029281817
0.033535528
0.033526999
0.033515782
0.033501834
0.033485097
0.033465492
0.033442922
0.033417279
0.033388441
0.03335628
0.033320662
0.033281452
0.033238514
0.033191713
0.033140921
0.033086016
0.033026887
0.032963434
0.032895572
0.03282323
0.032746358
0.032664927
0.032578927
0.032488376
0.032393318
0.032293827
0.032190007
0.032081993
0.031969922
0.031853969
0.031734336
0.031611297
0.031485129
0.031356141
0.031224665
0.031091074
0.030955758
0.030819134
0.030681637
0.030543724
0.030405865
0.030268546
0.03013226
0.029997505
0.02986478
0.029734579
0.029607388
0.02948368
0.029363921
0.029248516
0.03332796
0.033327552
0.033324123
0.033317641
0.03330806
0.03329531
0.033279308
0.033259954
0.033237138
0.033210744
0.033180648
0.033146726
0.03310885
0.033066899
0.033020752
0.032970298
0.032915434
0.03285607
0.032792129
0.032723549
0.032650288
0.032572323
0.032489652
0.032402301
0.032310318
0.032213784
0.032112809
0.032007531
0.031898095
0.031784678
0.031667487
0.031546797
0.031422893
0.031296088
0.031166715
0.031035148
0.030901779
0.030767026
0.030631325
0.030495134
0.030358926
0.030223185
0.030088405
0.029955086
0.029823725
0.029694817
0.029568847
0.029446288
0.029327605
0.029213203
0.033112528
0.033120395
0.033124912
0.03312606
0.033123799
0.033118073
0.033108806
0.033095909
0.033079283
0.033058822
0.033034413
0.033005941
0.032973289
0.032936344
0.032894997
0.032849146
0.032798696
0.032743566
0.032683689
0.03261901
0.032549496
0.03247513
0.032395919
0.032311893
0.032223109
0.032129652
0.032031639
0.031929212
0.031822521
0.03171175
0.031597107
0.03147887
0.031357332
0.031232808
0.031105636
0.030976187
0.030844857
0.030712063
0.030578246
0.030443862
0.030309385
0.030175302
0.030042106
0.029910296
0.029780371
0.029652824
0.029528141
0.029406794
0.029289247
0.029175904
0.032889752
0.032906006
0.032918593
0.032927498
0.032932694
0.032934129
0.032931738
0.032925443
0.032915153
0.032900772
0.032882195
0.032859318
0.032832035
0.03280024
0.032763835
0.032722726
0.032676828
0.032626069
0.032570388
0.032509742
0.032444102
0.032373462
0.032297833
0.032217254
0.032131787
0.032041523
0.031946584
0.03184712
0.031743283
0.031635264
0.031523274
0.031407589
0.031288517
0.031166375
0.031041499
0.030914262
0.030785061
0.030654316
0.030522468
0.030389975
0.030257313
0.030124967
0.029993432
0.029863207
0.02973479
0.029608674
0.029485345
0.029365274
0.029248924
0.029136698
0.032660295
0.032685006
0.032705742
0.032722497
0.032735247
0.03274395
0.032748548
0.032748971
0.032745137
0.032736957
0.032724338
0.032707183
0.032685394
0.032658877
0.03262754
0.032591298
0.032550078
0.032503813
0.032452452
0.032395958
0.032334313
0.032267516
0.032195586
0.032118568
0.03203653
0.03194957
0.031857813
0.031761417
0.031660539
0.031555376
0.031446141
0.031333105
0.0312166
0.031096936
0.030974451
0.030849517
0.030722535
0.030593927
0.030464134
0.030333618
0.030202852
0.030072324
0.029942529
0.029813964
0.029687129
0.029562516
0.029440609
0.02932188
0.029206789
0.029095739
0.032424988
0.032458175
0.032487097
0.032511749
0.032532114
0.032548156
0.032559822
0.032567048
0.032569762
0.032567881
0.03256132
0.032549989
0.032533801
0.032512669
0.032486509
0.032455246
0.032418812
0.032377151
0.03233022
0.03227799
0.032220448
0.032157602
0.032089479
0.032016128
0.031937625
0.031854072
0.031765601
0.031672374
0.031574554
0.031472344
0.031365963
0.031255677
0.031141837
0.031024746
0.030904741
0.030782201
0.030657527
0.030531144
0.030403493
0.030275038
0.030146252
0.030017624
0.029889647
0.029762821
0.029637643
0.029514605
0.029394191
0.029276871
0.029163104
0.029053292
0.032184859
0.03222649
0.032263583
0.032296136
0.032324135
0.032347546
0.032366323
0.032380405
0.032389726
0.032394211
0.032393782
0.032388355
0.032377851
0.03236219
0.032341296
0.032315103
0.03228355
0.032246589
0.032204184
0.032156313
0.032102973
0.032044176
0.031979958
0.031910373
0.031835503
0.031755454
0.031670365
0.031580402
0.031485733
0.031386568
0.031283136
0.031175709
0.031064629
0.030950197
0.030832763
0.030712706
0.030590429
0.030466358
0.030340937
0.030214628
0.030087907
0.029961261
0.029835185
0.029710177
0.029586733
0.029465347
0.029346498
0.029230657
0.029118284
0.029009775
0.031941171
0.031991157
0.032036356
0.032076766
0.032112371
0.032143141
0.032169031
0.032189985
0.03220594
0.032216828
0.032222573
0.032223102
0.03221834
0.032208213
0.032192655
0.032171604
0.032145008
0.032112825
0.032075027
0.0320316
0.031982545
0.031927885
0.031867659
0.031801929
0.031730781
0.031654328
0.031572712
0.031486103
0.031394677
0.031298648
0.031198258
0.031093786
0.030985555
0.030873873
0.030759099
0.030641616
0.030521827
0.030400159
0.030277057
0.030152983
0.030028414
0.029903837
0.029779746
0.029656639
0.029535013
0.029415358
0.029298155
0.029183868
0.029072961
0.028965827
0.031695469
0.031753663
0.031806848
0.031855018
0.031898156
0.03193623
0.031969195
0.031996997
0.032019577
0.032036869
0.032048803
0.03205531
0.032056321
0.032051768
0.03204159
0.032025733
0.03200415
0.031976807
0.031943682
0.031904767
0.031860072
0.031809622
0.031753466
0.031691672
0.031624329
0.031551557
0.031473499
0.031390331
0.031302236
0.031209435
0.031112179
0.031010748
0.030905456
0.030796619
0.0306846
0.030569785
0.030452578
0.030333406
0.030212716
0.030090972
0.029968648
0.029846233
0.02972422
0.029603106
0.029483387
0.029365553
0.029250081
0.029137432
0.029028076
0.028922396
0.031449633
0.031515831
0.031576826
0.031632609
0.031683156
0.031728432
0.031768391
0.031802979
0.031832136
0.0318558
0.031873904
0.031886382
0.03189317
0.031894204
0.031889429
0.031878796
0.031862264
0.031839805
0.031811403
0.031777055
0.031736779
0.031690605
0.031638589
0.031580802
0.031517342
0.031448329
0.031373912
0.031294271
0.031209595
0.031120114
0.031026083
0.030927784
0.030825526
0.030719632
0.030610469
0.030498422
0.030383898
0.030267326
0.030149153
0.030029841
0.029909868
0.029789719
0.029669889
0.029550872
0.029433164
0.029317251
0.029203611
0.029092707
0.028984996
0.028880865
0.031205955
0.03127989
0.031348464
0.031411659
0.031469444
0.031521776
0.031568604
0.031609873
0.031645522
0.03167549
0.031699712
0.031718124
0.031730664
0.031737274
0.031737902
0.031732503
0.031721041
0.031703494
0.031679849
0.031650113
0.031614305
0.031572464
0.031524648
0.031470938
0.031411434
0.03134626
0.031275567
0.03119954
0.031118376
0.031032311
0.030941603
0.030846534
0.030747416
0.030644576
0.03053838
0.030429216
0.030317493
0.030203639
0.030088103
0.029971347
0.029853848
0.029736091
0.029618569
0.029501776
0.029386204
0.02927234
0.029160657
0.02905162
0.028945679
0.028843217
0.0309672
0.031048559
0.031124427
0.031194785
0.031259587
0.031318782
0.031372311
0.031420116
0.031462136
0.031498305
0.031528561
0.03155284
0.031571082
0.031583232
0.03158924
0.031589066
0.031582677
0.031570055
0.031551194
0.031526102
0.031494806
0.031457349
0.031413795
0.031364229
0.031308757
0.031247506
0.031180628
0.031108309
0.031030763
0.030948225
0.030860948
0.030769229
0.030673376
0.030573719
0.030470625
0.030364483
0.030255703
0.030144715
0.030031966
0.029917919
0.02980305
0.029687844
0.029572791
0.029458384
0.029345113
0.029233461
0.029123901
0.029016893
0.028912885
0.028812251
0.030736706
0.030825127
0.030907962
0.030985183
0.031056736
0.031122556
0.031182578
0.031236737
0.031284967
0.031327203
0.031363379
0.031393432
0.031417302
0.031434935
0.031446284
0.031451309
0.031449984
0.031442293
0.031428233
0.031407817
0.031381075
0.031348056
0.031308829
0.031263483
0.031212129
0.031154899
0.031091943
0.031023446
0.030949646
0.03087077
0.030787062
0.030698841
0.030606412
0.030510105
0.030410286
0.030307345
0.030201695
0.030093764
0.029984
0.029872866
0.029760836
0.029648392
0.029536025
0.029424224
0.029313476
0.029204261
0.029097047
0.028992293
0.028890444
0.028791862
0.03051847
0.03061354
0.030702974
0.030786719
0.030864712
0.03093688
0.031003147
0.031063441
0.031117692
0.03116583
0.031207787
0.031243498
0.031272902
0.031295945
0.031312581
0.031322774
0.031326497
0.031323739
0.031314499
0.031298794
0.031276658
0.031248144
0.031213324
0.031172292
0.031125165
0.031072079
0.031013183
0.030948663
0.030878777
0.030803739
0.030723782
0.030639262
0.030550468
0.030457731
0.030361419
0.030261923
0.030159655
0.030055045
0.029948539
0.029840598
0.029731694
0.02962231
0.02951293
0.029404042
0.029296129
0.029189666
0.029085118
0.028982939
0.028883569
0.028787357
0.030317212
0.03041846
0.030514079
0.030603977
0.030688062
0.030766263
0.030838495
0.030904677
0.030964731
0.031018583
0.031066161
0.031107396
0.031142226
0.031170598
0.031192464
0.031207789
0.031216549
0.031218733
0.031214344
0.031203403
0.031185946
0.031162028
0.031131727
0.031095139
0.031052385
0.031003604
0.03094896
0.030888639
0.030822886
0.030751921
0.030676
0.030595453
0.030510577
0.030421713
0.03032923
0.030233519
0.030134989
0.030034069
0.029931203
0.02982685
0.029721481
0.029615573
0.029509609
0.029404072
0.029299439
0.02919618
0.029094753
0.028995609
0.028899184
0.028805802
0.030138318
0.030245249
0.030346595
0.030442228
0.030532038
0.030615929
0.030693819
0.030765615
0.030831235
0.030890596
0.030943621
0.030990238
0.031030383
0.031064
0.031091042
0.031111474
0.031125273
0.03113243
0.03113295
0.031126856
0.031114187
0.031095003
0.031069382
0.031037426
0.030999258
0.030955023
0.030904897
0.030849064
0.030787755
0.0307212
0.030649673
0.030573481
0.030492934
0.030408378
0.030320181
0.030228733
0.030134441
0.030037731
0.029939045
0.029838838
0.029737579
0.029635744
0.029533806
0.029432241
0.02933152
0.029232108
0.029134455
0.029039008
0.028946197
0.028856309
0.029870064
0.029987556
0.030099668
0.030206381
0.030307305
0.030402438
0.03049166
0.030574879
0.030652001
0.030722934
0.030787588
0.03084588
0.030897736
0.030943087
0.030981877
0.031014057
0.031039592
0.031058461
0.031070655
0.031076183
0.03107507
0.031067356
0.031053106
0.031032401
0.031005346
0.030972068
0.03093272
0.030887479
0.030836534
0.030780104
0.030718427
0.030651789
0.03058049
0.030504845
0.030425201
0.030341929
0.030255412
0.030166055
0.03007428
0.029980525
0.029885243
0.029788905
0.029691978
0.029594919
0.029498197
0.029402277
0.029307615
0.029214648
0.029123793
0.029035434
0.028949864
0.029749295
0.029871283
0.029987993
0.030099273
0.030205201
0.030305236
0.030399414
0.03048762
0.030569765
0.030645748
0.030715474
0.030778855
0.030835811
0.030886273
0.03093018