/*--------------------------------*- C++ -*----------------------------------*\
| =========                 |                                                 |
| \\      /  F ield         | OpenFOAM: The Open Source CFD Toolbox           |
|  \\    /   O peration     | Version:  2312                                  |
|   \\  /    A nd           | Website:  www.openfoam.com                      |
|    \\/     M anipulation  |                                                 |
\*---------------------------------------------------------------------------*/
FoamFile
{
    version     2.0;
    format      ascii;
    arch        "LSB;label=32;scalar=64";
    class       volScalarField;
    location    "0.03";
    object      O2;
}
// * * * * * * * * * * * * * * * * * * * * * * * * * * * * * * * * * * * * * //

dimensions      [0 0 0 0 0 0 0];

internalField   nonuniform List<scalar> 
3250
(
0.10491419
0.10429191
0.10361506
0.10289664
0.10215154
0.10138394
0.10059817
0.099798775
0.098990453
0.098178088
0.097366728
0.096561588
0.095768037
0.094991591
0.09423791
0.093512784
0.092822123
0.092171952
0.091568393
0.091017657
0.090526029
0.090099853
0.089745515
0.089469423
0.089277985
0.089177587
0.089174569
0.089272115
0.089481896
0.089807822
0.090255622
0.090815127
0.09152034
0.092366813
0.093356411
0.094493482
0.095781871
0.097224863
0.098825098
0.10058447
0.10250401
0.10458376
0.10682262
0.10921802
0.11176509
0.11445798
0.11728954
0.12025253
0.1232871
0.10493251
0.10430941
0.10363138
0.10291236
0.1021667
0.10139858
0.10061232
0.099812477
0.099003737
0.098190982
0.09737926
0.096573781
0.095779912
0.095003168
0.094249206
0.093523814
0.0928329
0.092182487
0.091578695
0.091027734
0.090535887
0.090109496
0.089754947
0.089478646
0.089286999
0.089186392
0.089183163
0.0892805
0.089490056
0.089815762
0.090263338
0.09082262
0.09152758
0.0923738
0.093363138
0.094499938
0.095788047
0.097230749
0.098830686
0.10058975
0.10250896
0.10458835
0.10682679
0.10922164
0.11176824
0.11446075
0.11729206
0.12025544
0.12328939
0.104967
0.10434238
0.10366203
0.10294178
0.10219499
0.10142581
0.10063859
0.099837848
0.099028286
0.098214776
0.09740236
0.096596245
0.095801793
0.095024516
0.094270065
0.093544225
0.092852902
0.092202113
0.091597978
0.091046701
0.090554564
0.090127907
0.089773111
0.089496581
0.089304721
0.089203916
0.089200498
0.089297657
0.08950703
0.089832563
0.090279969
0.090839085
0.09154387
0.092389911
0.093379062
0.094515666
0.095803568
0.09724605
0.098845749
0.10060455
0.10252348
0.10460256
0.10684061
0.10923499
0.1117812
0.11447336
0.11730434
0.12026753
0.1233008
0.10501759
0.1043907
0.10370695
0.10298484
0.10223633
0.10146558
0.1006769
0.099874828
0.099064042
0.098249412
0.097435974
0.096628927
0.095833628
0.095055582
0.094300436
0.093573968
0.092882081
0.092230786
0.091626197
0.091074517
0.090582021
0.090155046
0.089799971
0.089523194
0.089331119
0.089230126
0.089226544
0.089323559
0.089532793
0.089858205
0.090305497
0.090864508
0.091569197
0.092415135
0.093404177
0.094540663
0.095828433
0.097270765
0.098870292
0.1006289
0.10254759
0.10462639
0.10686411
0.1092581
0.11180399
0.11449583
0.11732639
0.12028891
0.12332145
0.10508428
0.10445422
0.10376604
0.10304145
0.10229066
0.1015178
0.10072719
0.099923343
0.099110933
0.098294821
0.097480032
0.09667176
0.09587535
0.095096303
0.094340256
0.093612983
0.092920377
0.092268446
0.091663297
0.091111126
0.090618205
0.090190864
0.089835477
0.08955844
0.089366151
0.089264985
0.089261266
0.089358173
0.089567317
0.08989266
0.090339899
0.090898869
0.091603547
0.092449462
0.093438478
0.094574929
0.095862647
0.097304906
0.098904332
0.1006628
0.10258132
0.10465989
0.10689732
0.109291
0.11183663
0.11452822
0.11735827
0.12031963
0.12335138
0.10516241
0.10452826
0.10383504
0.10310753
0.10235405
0.10157871
0.10078583
0.099979896
0.099165581
0.098347731
0.097531363
0.096721658
0.095923957
0.095143747
0.09438666
0.093658461
0.092965035
0.092312383
0.091706606
0.091153892
0.090660508
0.090232778
0.08987707
0.089599775
0.089407285
0.089305971
0.089302151
0.089398993
0.089608099
0.089933431
0.090380677
0.090939671
0.09164442
0.092490391
0.093479463
0.094615961
0.095903708
0.097345972
0.098945371
0.10070377
0.10262218
0.10470059
0.10693781
0.10933125
0.11187671
0.11456813
0.11739769
0.12035738
0.12338838
0.10524986
0.10461049
0.10391188
0.10318112
0.10242463
0.10164652
0.1008511
0.10004283
0.099226388
0.098406599
0.097588471
0.096777173
0.095978035
0.095196537
0.0944383
0.093709079
0.093014753
0.092361314
0.091754855
0.091201558
0.090707683
0.090279545
0.089923509
0.089645958
0.089453279
0.089351838
0.089347944
0.089444757
0.089653867
0.089979232
0.090426536
0.090985604
0.091690491
0.092536582
0.093525776
0.094662385
0.095950226
0.097392557
0.09899199
0.10075038
0.10266873
0.10474702
0.10698407
0.10937735
0.11192269
0.11461406
0.11744318
0.12040064
0.12343099
0.10535385
0.10470703
0.10400256
0.10326795
0.1025079
0.10172651
0.10092808
0.10011706
0.099298099
0.09847602
0.097655813
0.096842637
0.096041808
0.095258795
0.094499208
0.093768792
0.093073417
0.092419064
0.091811818
0.091257853
0.090763419
0.090334826
0.089978429
0.089700605
0.089507736
0.089406179
0.089402236
0.089499053
0.089708212
0.090033659
0.090481074
0.091040276
0.091745379
0.092591665
0.093581055
0.094717852
0.09600586
0.097448328
0.099047858
0.1008063
0.10272463
0.10480285
0.10703977
0.10943291
0.11197819
0.11466964
0.1174985
0.12045266
0.12348255
0.10547614
0.10481829
0.1041081
0.10336896
0.10260475
0.10181955
0.10101761
0.10020338
0.099381491
0.098556747
0.097734124
0.096918766
0.096115975
0.095331206
0.094570058
0.093838262
0.093141678
0.092486276
0.091878132
0.091323408
0.090828345
0.090399246
0.090042455
0.089764342
0.089571281
0.089469622
0.089465656
0.089562515
0.08977177
0.090097353
0.090544937
0.091104336
0.091809742
0.092656302
0.093645972
0.094783038
0.096071293
0.097513974
0.09911367
0.10087222
0.10279059
0.10486877
0.10710561
0.10949864
0.11204391
0.11473561
0.11756467
0.12051379
0.12354376
0.10561476
0.10494555
0.10422948
0.10348512
0.10271613
0.10192653
0.10112055
0.10030264
0.099477382
0.098649576
0.097824178
0.097006315
0.096201273
0.095414492
0.094651557
0.093918186
0.093220225
0.092563632
0.09195447
0.091398892
0.090903127
0.090473467
0.090116248
0.08983783
0.089644577
0.089542831
0.089538872
0.089635814
0.089845219
0.090170994
0.090618812
0.091178475
0.091884277
0.0927312
0.09372124
0.094858665
0.096147252
0.097590225
0.099190162
0.10094889
0.10286736
0.10494555
0.10718232
0.10957527
0.11212055
0.11481268
0.11764307
0.12058411
0.12361538
0.10577126
0.10509018
0.10436771
0.10361744
0.10284301
0.1020484
0.10123784
0.10041572
0.099586631
0.09875534
0.097926786
0.097106075
0.096298477
0.095509414
0.094744453
0.0940093
0.093309783
0.092651848
0.092041544
0.091485011
0.090988467
0.090558192
0.090200509
0.089921769
0.089728326
0.089626511
0.089622593
0.089719664
0.089929276
0.090255307
0.090703425
0.091263428
0.091969726
0.092817109
0.093807616
0.094945494
0.096234506
0.097677861
0.099278119
0.10103709
0.10295572
0.10503397
0.10727071
0.10966357
0.11220886
0.11490154
0.11773589
0.12066293
0.1236984
0.10594689
0.10525347
0.10452392
0.103767
0.10298641
0.10218616
0.10137041
0.10054355
0.099710134
0.098874912
0.098042799
0.097218879
0.096408401
0.095616769
0.094849532
0.094112376
0.093411115
0.09275168
0.092140103
0.091582512
0.091085108
0.090654159
0.090295976
0.090016899
0.089823269
0.089721406
0.089717567
0.089814819
0.090024704
0.090351057
0.090799547
0.091359971
0.092066876
0.092914822
0.093905901
0.095044337
0.096333874
0.097777705
0.099378371
0.10113766
0.10305651
0.10513487
0.1073716
0.10976438
0.11230961
0.11500252
0.11783792
0.12075713
0.12379416
0.10614246
0.10543675
0.10469925
0.10393488
0.10314741
0.10234082
0.10151926
0.10068709
0.099848829
0.099009205
0.098173107
0.097345596
0.096531898
0.095737395
0.094967616
0.094228228
0.093525027
0.092863925
0.092250938
0.091692178
0.091193831
0.09076215
0.090403432
0.090124003
0.089930191
0.089828305
0.089824588
0.089922078
0.090132307
0.090459058
0.090907994
0.091468927
0.09217656
0.093025183
0.094016948
0.095156053
0.096446223
0.097890631
0.0994918
0.1012515
0.10317064
0.10524915
0.1074859
0.10987859
0.11242366
0.11511644
0.11795157
0.12086611
0.12390359
0.10635809
0.10564146
0.10489493
0.10412224
0.10332711
0.10251346
0.10168543
0.10084734
0.10000369
0.099159171
0.09831864
0.097487137
0.09666986
0.09587217
0.095099571
0.09435771
0.093652362
0.092989419
0.09237488
0.091814838
0.091315463
0.090882989
0.0905237
0.090243906
0.090049921
0.08994804
0.089944493
0.090042287
0.090252941
0.090580168
0.091029627
0.091591166
0.09229966
0.093149083
0.094141657
0.095281552
0.096572471
0.098017567
0.09961934
0.10137953
0.10329903
0.10537776
0.10761456
0.11000713
0.11255194
0.11524433
0.1180786
0.12099002
0.12402755
0.10659632
0.10586869
0.10511216
0.10433026
0.10352664
0.10270518
0.10186999
0.10102536
0.10017574
0.099325803
0.098480371
0.097644454
0.096823224
0.096022013
0.095246304
0.094501717
0.093794006
0.093129042
0.092512804
0.091951362
0.091450871
0.091017545
0.09065765
0.09037748
0.090183333
0.090081491
0.090078168
0.090176338
0.090387508
0.0907153
0.091165357
0.091727608
0.09243711
0.093287469
0.094280985
0.095421799
0.096713592
0.098159493
0.099761978
0.10152276
0.1034427
0.1055217
0.10775857
0.11015101
0.11269549
0.11538726
0.11822043
0.12112944
0.12416694
0.10685914
0.10611973
0.10535222
0.10456017
0.10374719
0.10291714
0.10207406
0.10122222
0.10036604
0.099510135
0.098659311
0.09781854
0.096992965
0.096187888
0.095408763
0.094661189
0.093950891
0.093283719
0.092665627
0.092102667
0.09160097
0.091166731
0.090806198
0.090525643
0.090331351
0.090229585
0.090226548
0.090325177
0.090536964
0.090865418
0.091316144
0.091879225
0.092589897
0.093441339
0.09443594
0.095577812
0.096870613
0.098317446
0.099920759
0.10168224
0.10360271
0.10568203
0.10791901
0.11031131
0.11285537
0.11554641
0.11837832
0.12128522
0.12432271
0.10714842
0.10639593
0.1056164
0.10481322
0.10398998
0.1031505
0.10229879
0.10143905
0.10057567
0.099713241
0.098856514
0.098010431
0.097180101
0.096370797
0.095587944
0.094837108
0.094123992
0.093454418
0.092834317
0.092269716
0.091766722
0.091331511
0.090970307
0.090689364
0.090494947
0.0903933
0.090390617
0.090489797
0.090702319
0.091031546
0.091482994
0.092047042
0.092759065
0.093611749
0.094607589
0.095750668
0.09704462
0.098492522
0.10009679
0.10185907
0.10378016
0.10585987
0.108097
0.11048915
0.11303275
0.11572293
0.1185535
0.12145838
0.12449585
0.10746537
0.1066987
0.10590603
0.1050907
0.10425626
0.1034065
0.10254536
0.10167701
0.10080579
0.099936236
0.099073074
0.098221203
0.097385696
0.096571792
0.095784882
0.095030504
0.094314331
0.093642157
0.093019885
0.092453518
0.091949139
0.091512897
0.091150994
0.090869662
0.090675144
0.090573667
0.090571411
0.090671249
0.090884643
0.091214773
0.091666958
0.092232136
0.092945716
0.093799816
0.094797058
0.095941503
0.09723676
0.098685875
0.10029123
0.10205443
0.10397623
0.10605642
0.10829372
0.11068573
0.11322881
0.11591806
0.11874719
0.12165001
0.12468746
0.10781152
0.10702945
0.10622247
0.10539392
0.10454731
0.10368637
0.102815
0.10193729
0.10105755
0.10018027
0.099310127
0.098451976
0.097610855
0.096791964
0.096000661
0.095242452
0.094522976
0.093847998
0.093223394
0.092655136
0.09214928
0.091711952
0.091349326
0.091067609
0.090873022
0.090771771
0.090770023
0.090870634
0.091085062
0.091416269
0.091869123
0.092435648
0.093151017
0.094006717
0.095005534
0.096151514
0.097448239
0.098898723
0.1005053
0.10226955
0.10419217
0.1062729
0.10851042
0.11090229
0.11344482
0.11613305
0.11896065
0.12186132
0.12489869
0.10896075
0.10818856
0.1073896
0.10656708
0.10572421
0.10486444
0.1039914
0.10310895
0.10222113
0.10133218
0.10044654
0.099568847
0.09870391
0.097856723
0.09703245
0.096236409
0.095474072
0.094751043
0.094073055
0.093445953
0.092875679
0.092368261
0.091929793
0.091566423
0.091284332
0.091089714
0.09098875
0.0909876
0.091089114
0.091304765
0.091637309
0.092090578
0.092658777
0.093376199
0.094233692
0.095234267
0.09638196
0.097680329
0.099132346
0.10074031
0.10250574
0.10442928
0.10651063
0.10874843
0.11114015
0.11368209
0.11636922
0.11919518
0.12209357
0.12513079
0.10939003
0.10859773
0.10778053
0.10694124
0.10608293
0.10520896
0.10432289
0.10342851
0.10252979
0.10163091
0.10073627
0.099850448
0.098978205
0.098124492
0.097294431
0.0964933
0.095726532
0.094999697
0.094318491
0.093688726
0.093116313
0.092607245
0.092167589
0.091803461
0.091521013
0.091326411
0.09122581
0.091225342
0.091327899
0.091544992
0.091879349
0.092332349
0.09290281
0.093622568
0.09448205
0.095484572
0.096634169
0.097934365
0.099388092
0.1009976
0.10276434
0.10468893
0.10677099
0.1090091
0.11140069
0.113942
0.11662795
0.11945214
0.1223481
0.12538507
0.10985385
0.10904032
0.10820359
0.1073463
0.10647142
0.10558222
0.10468217
0.10377497
0.10286455
0.10195503
0.10105073
0.10015618
0.0992761
0.098415392
0.09757913
0.096772552
0.096001047
0.095270149
0.094585517
0.093952926
0.093378252
0.092867455
0.092426568
0.092061674
0.091778894
0.091584363
0.091484208
0.09148452
0.09158825
0.091807004
0.092144253
0.092595158
0.093169158
0.093891506
0.094753162
0.095757829
0.09690953
0.098211752
0.099667375
0.10127859
0.10304681
0.10497256
0.10705541
0.10929389
0.11168535
0.11422598
0.11691065
0.11973294
0.1226263
0.12566289
0.11035374
0.10951773
0.10866016
0.10778364
0.10689105
0.10598555
0.10507055
0.10414966
0.10322673
0.10230582
0.10139119
0.10048732
0.099598872
0.098730693
0.097887814
0.097075427
0.096298879
0.095563662
0.094875397
0.094239818
0.093662766
0.093150165
0.092708011
0.092342353
0.092059275
0.09186488
0.091765264
0.091766462
0.091871484
0.092091939
0.092431281
0.092882481
0.093459504
0.094184464
0.095048466
0.096055485
0.097209504
0.098513959
0.099971675
0.10158478
0.10335462
0.10528166
0.10736541
0.1096043
0.11199564
0.11453553
0.11721882
0.12003904
0.12292963
0.12596572
0.11172916
0.11089133
0.11003131
0.10915158
0.1082546
0.10734316
0.10642032
0.10548939
0.10455392
0.10361766
0.10268462
0.10175899
0.10084519
0.099947832
0.099071704
0.098221789
0.097403232
0.096621335
0.095881545
0.095189442
0.094550721
0.093971181
0.093456708
0.09301326
0.092646847
0.092363518
0.092169336
0.092070362
0.092072566
0.092179009
0.09240124
0.092742559
0.093195162
0.093775253
0.094502918
0.09536946
0.096379055
0.09753562
0.09884253
0.10030255
0.10191773
0.10368936
0.10561783
0.10770255
0.10994191
0.11233312
0.11487221
0.11755399
0.12037196
0.12325957
0.12629505
0.11233311
0.11146776
0.11058236
0.10967916
0.10876051
0.10782909
0.10688786
0.10594004
0.10498908
0.10403869
0.10309277
0.10215547
0.10123114
0.10032432
0.099439769
0.098582401
0.097757316
0.096969767
0.096225156
0.095529017
0.094887004
0.094304873
0.09378847
0.093343712
0.092976568
0.092693045
0.092499168
0.092400954
0.092404301
0.092512317
0.092736463
0.093079886
0.093534481
0.094117887
0.094848386
0.095717707
0.096730123
0.097889476
0.099199074
0.10066161
0.10227907
0.10405266
0.10598268
0.10806849
0.11030836
0.11269943
0.11523766
0.11791776
0.12073327
0.12361767
0.12665245
0.11297836
0.11208422
0.11117211
0.11024418
0.10930267
0.10835016
0.1073895
0.10642383
0.10545651
0.10449116
0.10353163
0.10258199
0.10164652
0.10072972
0.099836266
0.098971035
0.098139069
0.097345572
0.096595898
0.095895535
0.095250091
0.094665278
0.094146899
0.093700826
0.093332986
0.093049343
0.092855877
0.092758558
0.092763203
0.092872972
0.093099219
0.093444962
0.09390194
0.094488973
0.095222469
0.096094846
0.097110347
0.098272745
0.099585277
0.10105056
0.1026705
0.10444622
0.10637795
0.10846494
0.11070538
0.1130963
0.11563355
0.1183118
0.12112455
0.12400542
0.11366606
0.11274183
0.11180175
0.11084787
0.10988235
0.10890766
0.10792656
0.10694209
0.10595754
0.10497644
0.10400257
0.10303993
0.10209274
0.10116542
0.10026261
0.099389109
0.09854992
0.097750191
0.096995224
0.09629046
0.095641458
0.095053885
0.094533497
0.09408612
0.093717637
0.093433963
0.093241031
0.093144764
0.09315088
0.093262605
0.093491175
0.093839486
0.094299167
0.094890141
0.095626879
0.096502593
0.097521457
0.098687172
0.10000289
0.10147116
0.10309379
0.10487183
0.1068054
0.10889367
0.11113473
0.11352548
0.11606167
0.11873783
0.12154744
0.12442418
0.11439727
0.11344169
0.1124724
0.11149141
0.11050076
0.10950284
0.10850031
0.10749613
0.10649351
0.10549588
0.10450696
0.10353068
0.10257119
0.10163285
0.10072023
0.099838078
0.098991339
0.098185107
0.097424633
0.096715305
0.096062635
0.09547224
0.094949827
0.094501175
0.094132117
0.093848521
0.093656266
0.093561225
0.093569007
0.093682919
0.093914054
0.094265205
0.094727892
0.095323124
0.096063391
0.096942738
0.09796526
0.099134574
0.10045375
0.10192525
0.10355079
0.10533132
0.10726689
0.10935655
0.11159826
0.11398884
0.11652385
0.11919767
0.12200369
0.12487599
0.11517294
0.11418477
0.11318512
0.11217589
0.11115905
0.1101369
0.10911201
0.10808724
0.10706573
0.10605083
0.10504619
0.10405565
0.1030833
0.10213345
0.10121059
0.10031943
0.09946483
0.098651844
0.097885667
0.097171633
0.096515204
0.095921944
0.09539751
0.094947632
0.09457809
0.094294699
0.094103286
0.094009668
0.094019333
0.094135686
0.094369645
0.094723927
0.095189928
0.095789745
0.096533855
0.09741715
0.098443636
0.099616845
0.10093976
0.10241473
0.1040434
0.10582662
0.10776432
0.10985546
0.1120979
0.1144883
0.11702203
0.11969322
0.12249511
0.12536266
0.11599385
0.11497196
0.11394085
0.11290234
0.11185832
0.11081099
0.10976285
0.10871667
0.1076755
0.10664262
0.10562161
0.10461623
0.10363051
0.10266869
0.1017352
0.10083467
0.099971935
0.09915197
0.098379917
0.097661059
0.097000802
0.096404658
0.095878231
0.095427197
0.095057284
0.09477425
0.094583864
0.094491891
0.094503679
0.094622754
0.094859812
0.095217537
0.095687171
0.096291914
0.097040199
0.097927771
0.098958543
0.10013595
0.10146288
0.10294159
0.10457362
0.10635969
0.10829967
0.11039239
0.11263561
0.11502585
0.11755827
0.12022654
0.12302339
0.12588592
0.11686068
0.11580402
0.11474045
0.1136717
0.11259958
0.1115262
0.11045399
0.10938563
0.10832408
0.10727258
0.10623459
0.10521384
0.10421426
0.10324004
0.10229555
0.10138536
0.10051423
0.099687092
0.098909022
0.098185249
0.097521123
0.096922102
0.096393737
0.095941645
0.095571499
0.095289
0.095099856
0.09500977
0.095023944
0.095146041
0.095386502
0.095747995
0.096221598
0.096831619
0.09758443
0.098476624
0.099512017
0.10069394
0.10202518
0.10350788
0.10514348
0.10693259
0.10887497
0.11096936
0.11321342
0.11560356
0.11813477
0.12080002
0.12358986
0.12644743
0.11777394
0.11668158
0.11558466
0.11448481
0.11338376
0.11228356
0.11118652
0.11009528
0.10901272
0.10794199
0.10688649
0.10584987
0.10483601
0.10384902
0.1028932
0.10197308
0.10109334
0.10025887
0.09947467
0.098745924
0.098077921
0.097476064
0.096945843
0.096492821
0.09612261
0.095840851
0.095653191
0.095565262
0.09558211
0.095707553
0.095951745
0.096317348
0.096795271
0.097410935
0.098168642
0.099065818
0.10010617
0.10129294
0.10262878
0.10411573
0.1057551
0.10754743
0.10949232
0.11158843
0.11383335
0.1162235
0.1187539
0.12141704
0.12419476
0.12704893
0.11873397
0.11760514
0.1164741
0.11534241
0.11421172
0.113084
0.1119615
0.11084677
0.10974262
0.10865213
0.10757864
0.10652573
0.10549721
0.10449712
0.10352971
0.10259944
0.10171093
0.100869
0.10007861
0.09934487
0.098673019
0.098068399
0.097536441
0.097082649
0.096712573
0.096431791
0.096245887
0.096160417
0.096180253
0.096309391
0.096557663
0.09692773
0.097410342
0.098032031
0.098795016
0.099697548
0.10074322
0.10193515
0.10327588
0.10476733
0.1064107
0.10820637
0.11015386
0.11225172
0.11449747
0.11688763
0.11941786
0.12208434
0.12483454
0.12769289
0.11974097
0.11857506
0.11740929
0.11624514
0.11508422
0.11392841
0.1127799
0.11164116
0.11051495
0.10940427
0.10831239
0.10724284
0.10619935
0.1051859
0.10420669
0.10326609
0.1023687
0.10151925
0.10072264
0.099983943
0.099308317
0.09870105
0.098167513
0.097713148
0.097343442
0.097063909
0.096880063
0.096797384
0.096820555
0.096953768
0.097206486
0.097581379
0.098069065
0.098697176
0.099465842
0.10037411
0.10142546
0.10262288
0.1039688
0.10546499
0.10711253
0.10891169
0.11086182
0.11296138
0.1152078
0.11759755
0.1201263
0.12278951
0.12552544
0.12838442
0.12079501
0.11959157
0.11839061
0.11719356
0.11600195
0.11481761
0.11364266
0.11247952
0.11133087
0.11019966
0.10908909
0.10800262
0.10694393
0.10591695
0.10492579
0.10397478
0.10306844
0.10221146
0.10140868
0.10066509
0.099985812
0.09937606
0.098841145
0.098386445
0.098017383
0.097739408
0.09755796
0.09747844
0.097505326
0.097643025
0.097900573
0.098280646
0.098773808
0.099408762
0.10018353
0.10109793
0.10215532
0.10335855
0.10470993
0.1062111
0.107863
0.10966573
0.11161853
0.1137197
0.11596653
0.11835534
0.12088152
0.12353965
0.12626587
0.12912408
0.12189599
0.12065477
0.11941835
0.11818811
0.11696552
0.11575236
0.1145507
0.11336288
0.11219154
0.11103957
0.10991011
0.10880655
0.10773253
0.1066919
0.10568873
0.10472729
0.10381203
0.10294758
0.10213872
0.10139038
0.10070763
0.1000956
0.09955956
0.099104811
0.09873671
0.09846064
0.098281966
0.098206009
0.09823703
0.09837967
0.098642455
0.099028014
0.099527089
0.10016933
0.10095063
0.10187157
0.10293535
0.10414472
0.10550183
0.10700819
0.10866458
0.11047097
0.11242642
0.11452907
0.11677604
0.1191634
0.12168626
0.12433867
0.12705663
0.12991293
0.12304375
0.12176471
0.12049276
0.11922922
0.11797553
0.11673343
0.11550491
0.1142923
0.11309815
0.11192531
0.11077688
0.10965618
0.1085668
0.10751252
0.10649738
0.10552556
0.10460147
0.10372969
0.10291492
0.10216204
0.10147605
0.10086203
0.10032516
0.099870698
0.099503925
0.099230149
0.099054663
0.098982713
0.099018332
0.099166431
0.099434914
0.099826091
0.10033161
0.10098165
0.10176992
0.10269778
0.10376832
0.10498412
0.10634721
0.10785895
0.10951996
0.11133004
0.11328811
0.11539209
0.1176389
0.12002438
0.12254329
0.12518947
0.12789937
0.13075259
0.12423804
0.12292137
0.12161402
0.1203173
0.11903259
0.11776159
0.11650627
0.11526888
0.11405196
0.1128583
0.11169094
0.11055317
0.10944851
0.10838071
0.10735372
0.1063717
0.10543898
0.10456008
0.10373966
0.10298253
0.1022936
0.10167793
0.10114061
0.10068682
0.10032179
0.10005074
0.099878899
0.099811432
0.099852153
0.10000633
0.1002812
0.1006775
0.10119039
0.10184876
0.10264444
0.10357961
0.10465722
0.10587974
0.10724904
0.10876631
0.11043203
0.11224581
0.1142064
0.11631155
0.11855793
0.1209411
0.12345543
0.12609461
0.12879613
0.131645
0.12547864
0.12412477
0.1227824
0.12145281
0.12013737
0.11883773
0.11755583
0.1162939
0.11505441
0.11384013
0.11265405
0.11149942
0.11037971
0.10929862
0.10826005
0.10726809
0.10632704
0.10544135
0.10461562
0.1038546
0.10316315
0.10254623
0.10200889
0.10155624
0.10119343
0.10092559
0.10075789
0.10069541
0.10074175
0.10090274
0.10118586
0.10158417
0.10210701
0.10277414
0.10357761
0.10452042
0.10560541
0.1068349
0.1082106
0.10973353
0.11140398
0.11322142
0.11518441
0.11729052
0.11953622
0.12191669
0.12442574
0.12705659
0.12974918
0.13259243
0.12676542
0.12537503
0.12399828
0.12263642
0.12129077
0.11996296
0.11865493
0.11736885
0.11610719
0.11487267
0.11366825
0.11249714
0.11136276
0.11026876
0.109219
0.10821753
0.10726857
0.10637653
0.10554594
0.1047815
0.10408801
0.10347036
0.10293352
0.10248254
0.10212248
0.1018584
0.10169537
0.1016384
0.10169082
0.10185888
0.10214934
0.1025535
0.10308618
0.10376174
0.10457333
0.10552412
0.10661677
0.10785345
0.10923568
0.11076433
0.1124395
0.11426048
0.11622567
0.11833249
0.12057723
0.12295474
0.12545781
0.12807786
0.13076118
0.13359762
0.12809849
0.12667258
0.12526237
0.12386907
0.122494
0.12113876
0.11980526
0.11849568
0.11721245
0.11595828
0.11473609
0.11354906
0.11240056
0.11129421
0.11023382
0.10922338
0.10826708
0.10736926
0.1065344
0.10576714
0.1050722
0.10445442
0.1039187
0.10347001
0.10311331
0.1028536
0.10269585
0.10264496
0.10270398
0.10287954
0.10317765
0.1035892
0.1041321
0.10481619
0.10563627
0.10659534
0.10769591
0.10893994
0.1103288
0.11186316
0.11354294
0.11536725
0.11733433
0.11944146
0.12168488
0.12405933
0.12655654
0.12916016
0.13183579
0.13466408
0.1294784
0.12801827
0.12657586
0.1251523
0.12374887
0.12236719
0.12100916
0.11967696
0.11837303
0.11710002
0.11586086
0.11465867
0.11349681
0.11237886
0.11130858
0.11028991
0.109327
0.10842413
0.10758574
0.10681637
0.10612072
0.10550354
0.10496966
0.10452397
0.10417135
0.10391671
0.10376492
0.10372076
0.10378696
0.10397059
0.10427693
0.10469675
0.10525024
0.10594325
0.10677217
0.1077398
0.10884849
0.1101
0.11149551
0.11303549
0.11471968
0.11654698
0.11851546
0.12062228
0.12286367
0.12523503
0.12773161
0.13030072
0.13297957
0.13579627
0.1309064
0.12941372
0.12794076
0.12648847
0.12505809
0.12365126
0.12226993
0.12091629
0.11959277
0.11830201
0.11704693
0.11583061
0.11465639
0.11352781
0.11244859
0.11142264
0.11045405
0.10954705
0.10870601
0.10793545
0.10723997
0.10662427
0.10609308
0.10565123
0.10530352
0.10505475
0.10490968
0.10487301
0.10494706
0.10513943
0.10545461
0.10588336
0.10644785
0.10715021
0.10798832
0.10896479
0.11008175
0.1113408
0.1127429
0.11428831
0.11597658
0.1178064
0.11977562
0.1218812
0.1241192
0.12648485
0.12897272
0.13152406
0.13419895
0.13699983
0.13237346
0.1308616
0.12936036
0.12788129
0.1264257
0.12499537
0.1235923
0.12221871
0.12087704
0.11956994
0.11830028
0.11707115
0.11588585
0.11474788
0.11366094
0.1126289
0.11165579
0.1107458
0.10990325
0.10913259
0.10843836
0.10782517
0.10729771
0.10686069
0.10651885
0.10627688
0.10613944
0.10611109
0.1061938
0.10639562
0.10672023
0.10715857
0.10773447
0.10844665
0.10929429
0.11027982
0.11140516
0.11267172
0.11408024
0.11563079
0.11732268
0.11915439
0.12112354
0.12322681
0.12545998
0.12781794
0.13029478
0.13283157
0.13549901
0.1382816
0.13387578
0.13235864
0.13083994
0.12933642
0.12785773
0.1264059
0.12498304
0.12359139
0.1222334
0.12091171
0.11962919
0.1183889
0.11719413
0.11604836
0.11495523
0.11391859
0.11294242
0.11203086
0.11118818
0.11041877
0.10972709
0.1091177
0.10859519
0.1081642
0.10782936
0.10759528
0.10746651
0.10744749
0.10753977
0.10775187
0.10808641
0.10853507
0.10912286
0.10984533
0.11070282
0.11169758
0.11283134
0.11410529
0.11551995
0.11707519
0.11877008
0.12060289
0.12257097
0.12467075
0.12689762
0.12924608
0.13171001
0.13423181
0.13688873
0.13965085
0.13546855
0.13389548
0.132385
0.1308624
0.12936296
0.12789207
0.12645183
0.12504447
0.12367244
0.12233837
0.12104513
0.11979578
0.11859357
0.11744195
0.11634455
0.11530518
0.11432776
0.11341641
0.11257532
0.11180881
0.1111213
0.11051726
0.1100012
0.10957767
0.1092512
0.10902631
0.10890742
0.10889888
0.10900191
0.10922535
0.10956983
0.11002998
0.11063023
0.11136344
0.11223108
0.11323519
0.11437732
0.11565842
0.11707881
0.11863811
0.12033519
0.12216808
0.12413391
0.12622881
0.12844779
0.13078475
0.13323291
0.13573826
0.13838146
0.14112066
0.13713144
0.13552841
0.13399175
0.13247121
0.13095387
0.129467
0.1280124
0.12659225
0.12520901
0.12386532
0.12256403
0.12130821
0.12010109
0.11894609
0.11784683
0.11680705
0.11583066
0.11492171
0.11408434
0.11332281
0.11264146
0.11204469
0.11153691
0.11112259
0.11080616
0.110592
0.11048445
0.11048764
0.11060304
0.11084014
0.11119169
0.11166688
0.11227984
0.1130242
0.11390223
0.11491577
0.11606611
0.117354
0.11877952
0.12034206
0.12204026
0.12387193
0.12583402
0.12792245
0.13013199
0.1324556
0.13488156
0.13737003
0.13999609
0.14270934
0.13888648
0.13727167
0.13568674
0.13416302
0.13264784
0.13114917
0.12968399
0.12825467
0.12686372
0.12551381
0.1242078
0.12294874
0.12173987
0.12058457
0.11948644
0.11844917
0.11747664
0.11657284
0.11574185
0.11498788
0.11431517
0.11372804
0.11323083
0.11282788
0.11252352
0.11232201
0.11222756
0.11224378
0.11237298
0.1126235
0.11298677
0.11347733
0.11410276
0.11485877
0.11574745
0.1167704
0.11792872
0.11922287
0.12065272
0.1222174
0.12391531
0.12574407
0.12770046
0.12978044
0.13197933
0.13429287
0.13667352
0.13915531
0.14175852
0.14444201
0.14240122
0.14074976
0.13912419
0.1375273
0.13596189
0.13446447
0.1329645
0.1314932
0.13005909
0.12866473
0.1273128
0.12600619
0.12474793
0.12354124
0.12238949
0.12129622
0.12026511
0.11929999
0.11840477
0.1175835
0.11684028
0.1161793
0.11560478
0.11512096
0.11473206
0.1144423
0.1142558
0.1141766
0.11420774
0.11435249
0.11461776
0.11499497
0.11550174
0.11614035
0.11690852
0.11780808
0.11884041
0.12000631
0.12130602
0.12273912
0.1243045
0.12600031
0.12782395
0.12977197
0.13184006
0.13402299
0.13631493
0.13866559
0.14113208
0.14370408
0.14635246
0.14439061
0.14275032
0.14111895
0.13951468
0.13793693
0.13643047
0.1349479
0.13347588
0.13204232
0.13064982
0.12930108
0.12799897
0.12674651
0.12554688
0.12440345
0.12331971
0.12229931
0.12134599
0.12046365
0.11965623
0.11892777
0.11828236
0.11772413
0.1172572
0.11688567
0.11661363
0.11644505
0.11638381
0.11643225
0.11659473
0.11687649
0.11726957
0.11779365
0.1184464
0.11922734
0.12013803
0.12117957
0.12235249
0.12365677
0.1250917
0.12665591
0.12834731
0.13016305
0.13209948
0.13415199
0.13631435
0.13857629
0.14089839
0.14334283
0.14587742
0.14848426
0.14653357
0.14492604
0.14329929
0.14169834
0.14012825
0.1385951
0.1371335
0.13567902
0.1342526
0.13286848
0.13152935
0.13023803
0.12899754
0.12781103
0.12668183
0.12561338
0.12460929
0.12367324
0.12280906
0.12202061
0.12131184
0.12068674
0.12014931
0.11970357
0.11935347
0.11910295
0.11895583
0.1189158
0.11898452
0.11916741
0.11946728
0.11987867
0.12042132
0.12108928
0.12188359
0.12280554
0.12385593
0.12503502
0.12634247
0.12777731
0.12933789
0.13102186
0.13282619
0.13474716
0.13678046
0.13892207
0.14113032
0.14343022
0.14584402
0.14833418
0.15089176
0.14891546
0.14731815
0.14571767
0.14412779
0.14256864
0.14104056
0.13958456
0.13816261
0.1367514
0.13538369
0.13406204
0.13278926
0.1315683
0.1304023
0.12929454
0.12824842
0.12726749
0.12635536
0.12551577
0.1247525
0.1240694
0.12347032
0.12295915
0.12253975
0.12221592
0.12199142
0.12186989
0.12185485
0.12194746
0.12215479
0.12247162
0.12290692
0.12346857
0.12415273
0.12496083
0.12589387
0.12695234
0.1281362
0.12944478
0.13087682
0.13243037
0.13410283
0.13589092
0.13779052
0.13979613
0.14189978
0.14406531
0.14633963
0.14870462
0.15114092