/*--------------------------------*- C++ -*----------------------------------*\
| =========                 |                                                 |
| \\      /  F ield         | OpenFOAM: The Open Source CFD Toolbox           |
|  \\    /   O peration     | Version:  2312                                  |
|   \\  /    A nd           | Website:  www.openfoam.com                      |
|    \\/     M anipulation  |                                                 |
\*---------------------------------------------------------------------------*/
FoamFile
{
    version     2.0;
    format      ascii;
    arch        "LSB;label=32;scalar=64";
    class       surfaceScalarField;
    location    "0.03";
    object      phi;
}
// * * * * * * * * * * * * * * * * * * * * * * * * * * * * * * * * * * * * * //

dimensions      [1 0 -1 0 0 0 0];

oriented        oriented;

internalField   nonuniform List<scalar> 
6383
(
1.4160635e-07
1.8660723e-09
1.3889247e-07
1.8235381e-09
1.3619665e-07
1.7812397e-09
1.33519e-07
1.7393287e-09
1.308598e-07
1.6976153e-09
1.2821943e-07
1.6560695e-09
1.2559836e-07
1.6146791e-09
1.2299715e-07
1.5733976e-09
1.2041643e-07
1.5322305e-09
1.1785688e-07
1.4911347e-09
1.1531923e-07
1.4501346e-09
1.1280425e-07
1.4091973e-09
1.1031274e-07
1.3683665e-09
1.078455e-07
1.3276259e-09
1.0540339e-07
1.287024e-09
1.0298723e-07
1.2465611e-09
1.005979e-07
1.206297e-09
9.8236231e-08
1.1662493e-09
9.5903082e-08
1.1264851e-09
9.3599257e-08
1.0870306e-09
9.1325501e-08
1.0479558e-09
8.9082389e-08
1.0092666e-09
8.6870075e-08
9.7093786e-10
8.4687366e-08
9.3278121e-10
8.2529399e-08
8.9437653e-10
8.0389371e-08
8.5599669e-10
7.8333852e-08
8.1390327e-10
7.6295673e-08
7.7594529e-10
7.4282095e-08
7.3946323e-10
7.230192e-08
7.0414613e-10
7.0357801e-08
6.6964616e-10
6.8450143e-08
6.3568845e-10
6.6577226e-08
6.0214938e-10
6.4740282e-08
5.6907453e-10
6.2939123e-08
5.3656424e-10
6.1173724e-08
5.0469082e-10
5.9444123e-08
4.7349668e-10
5.7750322e-08
4.4302333e-10
5.6092228e-08
4.1328823e-10
5.4469655e-08
3.8432086e-10
5.2882315e-08
3.5613189e-10
5.1329837e-08
3.2874329e-10
4.9811764e-08
3.0220223e-10
4.8327624e-08
2.7651873e-10
4.6876904e-08
2.5170264e-10
4.5459004e-08
2.2787563e-10
4.4073365e-08
2.0498288e-10
4.2719945e-08
1.8344515e-10
1.6244942e-10
1.4157782e-07
4.3390573e-09
1.3886548e-07
4.2640495e-09
1.3617115e-07
4.1894299e-09
1.3349494e-07
4.115287e-09
1.3083714e-07
4.0412848e-09
1.281981e-07
3.9673378e-09
1.2557833e-07
3.893365e-09
1.2297837e-07
3.8192845e-09
1.2039886e-07
3.7450485e-09
1.1784047e-07
3.6705999e-09
1.1530396e-07
3.5959246e-09
1.1279007e-07
3.52099e-09
1.1029962e-07
3.445815e-09
1.0783342e-07
3.3703948e-09
1.053923e-07
3.2947655e-09
1.0297711e-07
3.2189451e-09
1.0058872e-07
3.1429893e-09
9.8227966e-08
3.0669394e-09
9.5895703e-08
2.9908657e-09
9.3592738e-08
2.9148236e-09
9.1319811e-08
2.8388985e-09
8.9077486e-08
2.7631459e-09
8.6865897e-08
2.6875964e-09
8.4683814e-08
2.6121844e-09
8.2526361e-08
2.5366394e-09
8.0386864e-08
2.4610794e-09
7.8332056e-08
2.3815228e-09
7.6294754e-08
2.3065367e-09
7.4281896e-08
2.2327717e-09
7.2302328e-08
2.1601111e-09
7.0358745e-08
2.0881809e-09
6.8451582e-08
2.0170628e-09
6.6579127e-08
1.9465039e-09
6.4742621e-08
1.8766772e-09
6.2941879e-08
1.8076941e-09
6.1176877e-08
1.7396556e-09
5.9447651e-08
1.672637e-09
5.7754201e-08
1.6067145e-09
5.6096435e-08
1.5419478e-09
5.4474166e-08
1.4784009e-09
5.2887111e-08
1.4161244e-09
5.1334898e-08
1.3551739e-09
4.9817083e-08
1.2956285e-09
4.8333172e-08
1.237542e-09
4.6882649e-08
1.1810017e-09
4.546493e-08
1.126132e-09
4.4079472e-08
1.072958e-09
4.2726159e-08
1.0215956e-09
9.717854e-10
1.4152439e-07
6.8094784e-09
1.3881501e-07
6.7022058e-09
1.3612353e-07
6.5954329e-09
1.3345007e-07
6.4892277e-09
1.307949e-07
6.383092e-09
1.281584e-07
6.2768962e-09
1.2554105e-07
6.1704843e-09
1.2294343e-07
6.0637389e-09
1.2036617e-07
5.9565628e-09
1.1780996e-07
5.8488818e-09
1.1527554e-07
5.7406474e-09
1.1276367e-07
5.6318253e-09
1.1027517e-07
5.5224129e-09
1.0781085e-07
5.4124135e-09
1.0537155e-07
5.3018534e-09
1.0295813e-07
5.1907667e-09
1.0057143e-07
5.0792077e-09
9.8212317e-08
4.9672378e-09
9.5881638e-08
4.8549323e-09
9.3580201e-08
4.7423742e-09
9.1308743e-08
4.6296653e-09
8.9067822e-08
4.5169067e-09
8.6857555e-08
4.4041852e-09
8.46767e-08
4.291548e-09
8.2520366e-08
4.1787814e-09
8.0381924e-08
4.0663243e-09
7.832835e-08
3.9494055e-09
7.6292291e-08
3.837589e-09
7.4280556e-08
3.7265373e-09
7.2302e-08
3.6165388e-09
7.0359361e-08
3.5071806e-09
6.8453083e-08
3.3989241e-09
6.6581452e-08
3.2913866e-09
6.4745716e-08
3.184853e-09
6.2945695e-08
3.0794382e-09
6.118137e-08
2.9752702e-09
5.9452781e-08
2.8724599e-09
5.7759926e-08
2.7711201e-09
5.6102713e-08
2.6713545e-09
5.4480956e-08
2.5732615e-09
5.2894372e-08
2.4769309e-09
5.1342596e-08
2.3824523e-09
4.9825185e-08
2.2899406e-09
4.8341645e-08
2.1994889e-09
4.6891447e-08
2.1112536e-09
4.5474011e-08
2.0253839e-09
4.4088808e-08
1.9419553e-09
4.2735694e-08
1.8607726e-09
1.7821845e-09
1.4145273e-07
9.2759481e-09
1.3874759e-07
9.1367288e-09
1.3606014e-07
8.9980704e-09
1.3339054e-07
8.8600333e-09
1.3073905e-07
8.7219951e-09
1.2810608e-07
8.5837646e-09
1.254921e-07
8.4451148e-09
1.2289771e-07
8.3058949e-09
1.2032355e-07
8.1659571e-09
1.1777032e-07
8.0252144e-09
1.1523876e-07
7.8835817e-09
1.1272965e-07
7.7410265e-09
1.1024379e-07
7.5975218e-09
1.0778202e-07
7.4530832e-09
1.0534517e-07
7.3077251e-09
1.029341e-07
7.1615e-09
1.0054967e-07
7.0144585e-09
9.8192743e-08
6.866685e-09
9.5864164e-08
6.7182575e-09
9.3564743e-08
6.5692867e-09
9.1295221e-08
6.4198863e-09
8.9056157e-08
6.2702012e-09
8.6847664e-08
6.1203718e-09
8.4668512e-08
5.9705571e-09
8.2513832e-08
5.8205056e-09
8.0376839e-08
5.6714518e-09
7.8324838e-08
5.5172976e-09
7.6290207e-08
5.3689655e-09
7.4279832e-08
5.220592e-09
7.2302558e-08
5.0732645e-09
7.036115e-08
4.9264892e-09
6.8456042e-08
4.7811347e-09
6.6585497e-08
4.6366862e-09
6.4750764e-08
4.4935174e-09
6.2951674e-08
4.3517361e-09
6.1188217e-08
4.2114966e-09
5.9460438e-08
4.0729483e-09
5.7768336e-08
3.9362436e-09
5.6111818e-08
3.8015283e-09
5.4490699e-08
3.6689378e-09
5.2904699e-08
3.538603e-09
5.1353456e-08
3.4106477e-09
4.9836534e-08
3.2852208e-09
4.8353437e-08
3.1624573e-09
4.6903624e-08
3.0425714e-09
4.548652e-08
2.9257434e-09
4.4101586e-08
2.8121066e-09
4.2748708e-08
2.7011321e-09
2.5938163e-09
1.41375e-07
1.1737409e-08
1.3867503e-07
1.1566627e-08
1.3599246e-07
1.1396425e-08
1.3332749e-07
1.1226884e-08
1.3068041e-07
1.1057237e-08
1.2805161e-07
1.0887257e-08
1.254416e-07
1.0716632e-08
1.2285099e-07
1.0545187e-08
1.2028042e-07
1.0372718e-08
1.1773062e-07
1.0199135e-08
1.1520234e-07
1.0024308e-08
1.1269635e-07
9.8482175e-09
1.1021348e-07
9.6708046e-09
1.0775457e-07
9.4921052e-09
1.0532045e-07
9.3121153e-09
1.02912e-07
9.1309142e-09
1.0053007e-07
8.9485424e-09
9.8175523e-08
8.7651139e-09
9.5849223e-08
8.5807023e-09
9.3551978e-08
8.3954507e-09
9.1284539e-08
8.2094739e-09
8.9047479e-08
8.022954e-09
8.6840942e-08
7.8360618e-09
8.4663753e-08
7.6490657e-09
8.251108e-08
7.461621e-09
8.0375995e-08
7.2760905e-09
7.8325309e-08
7.0855242e-09
7.6291919e-08
6.9008701e-09
7.4282805e-08
6.715067e-09
7.2306798e-08
6.5303672e-09
7.0366685e-08
6.346141e-09
6.8462821e-08
6.1637328e-09
6.6593423e-08
5.9824612e-09
6.4759731e-08
5.802752e-09
6.2961589e-08
5.6246898e-09
6.1199005e-08
5.4484515e-09
5.9472028e-08
5.2742313e-09
5.7780663e-08
5.1022248e-09
5.6124818e-08
4.9326235e-09
5.4504305e-08
4.7656002e-09
5.2918848e-08
4.6013254e-09
5.1368089e-08
4.4399562e-09
4.9851598e-08
4.2816784e-09
4.8368881e-08
4.1266643e-09
4.6919391e-08
3.9751779e-09
4.5502539e-08
3.8274434e-09
4.4117761e-08
3.6836682e-09
4.2765064e-08
3.5429216e-09
3.4069378e-09
1.2511138e-07
1.3911709e-08
1.2272589e-07
1.3713413e-08
1.2035548e-07
1.3515666e-08
1.1800038e-07
1.3318566e-08
1.1566086e-07
1.3121256e-08
1.1333728e-07
1.2923458e-08
1.1103012e-07
1.27248e-08
1.0873991e-07
1.2525084e-08
1.0646727e-07
1.232406e-08
1.0421282e-07
1.2121631e-08
1.0197726e-07
1.1917634e-08
9.9761286e-08
1.1712056e-08
9.7565632e-08
1.1504815e-08
9.5391041e-08
1.1295964e-08
9.323828e-08
1.1085485e-08
9.1108108e-08
1.0873482e-08
8.9001304e-08
1.0659988e-08
8.691863e-08
1.044514e-08
8.4860852e-08
1.022901e-08
8.2828701e-08
1.0011763e-08
8.0822853e-08
9.7935121e-09
7.8843838e-08
9.5744615e-09
7.6891807e-08
9.3548044e-09
7.4965832e-08
9.1348337e-09
7.3061045e-08
8.9147745e-09
7.1173359e-08
8.6954074e-09
6.9357522e-08
8.4756647e-09
6.755852e-08
8.2573747e-09
6.578048e-08
8.0389166e-09
6.4031808e-08
7.8210663e-09
6.2314997e-08
7.6036156e-09
6.0630227e-08
7.3884594e-09
5.8975896e-08
7.1746581e-09
5.7353082e-08
6.9626802e-09
5.5761662e-08
6.7525711e-09
5.4201653e-08
6.5445302e-09
5.2673107e-08
6.3387915e-09
5.117603e-08
6.1355913e-09
4.9710341e-08
5.9351636e-09
4.8275875e-08
5.7377136e-09
4.6872389e-08
5.5434469e-09
4.5499573e-08
5.3525494e-09
4.4157052e-08
5.1652386e-09
4.2844389e-08
4.9817215e-09
4.1561103e-08
4.8022936e-09
4.0306639e-08
4.6272417e-09
3.9080482e-08
4.4568313e-09
3.7882774e-08
4.2897923e-09
4.1284828e-09
1.2848468e-07
1.6139405e-08
1.2603989e-07
1.5913269e-08
1.2361022e-07
1.5687653e-08
1.2119595e-07
1.5462635e-08
1.1879737e-07
1.5237272e-08
1.1641488e-07
1.5011246e-08
1.1404899e-07
1.4784116e-08
1.1170026e-07
1.4555665e-08
1.0936934e-07
1.4325596e-08
1.0705689e-07
1.4093808e-08
1.0476362e-07
1.3860104e-08
1.0249028e-07
1.3624482e-08
1.0023763e-07
1.3386833e-08
9.8006434e-08
1.3147232e-08
9.5797495e-08
1.2905647e-08
9.3611597e-08
1.2662205e-08
9.1449547e-08
1.2416934e-08
8.9312135e-08
1.2169997e-08
8.7200155e-08
1.1921461e-08
8.511436e-08
1.1671516e-08
8.3055457e-08
1.1420269e-08
8.1024001e-08
1.1167942e-08
7.9020175e-08
1.0914737e-08
7.7043049e-08
1.0660982e-08
7.5087764e-08
1.0407357e-08
7.3149616e-08
1.0153639e-08
7.1285287e-08
9.904029e-09
6.9437825e-08
9.6516352e-09
6.7611953e-08
9.3995506e-09
6.5816208e-08
9.1476974e-09
6.4053187e-08
8.8961584e-09
6.2323016e-08
8.6474444e-09
6.0624e-08
8.4003363e-09
5.8957246e-08
8.1553134e-09
5.7322639e-08
7.9123774e-09
5.5720217e-08
7.671749e-09
5.4150043e-08
7.4337088e-09
5.2612126e-08
7.1985376e-09
5.1106383e-08
6.9665137e-09
4.9632647e-08
6.7378765e-09
4.8190672e-08
6.5128668e-09
4.6780142e-08
6.2917009e-09
4.5400678e-08
6.0746277e-09
4.4051838e-08
5.8618863e-09
4.2733127e-08
5.6537987e-09
4.1443957e-08
5.4507199e-09
4.0183727e-08
5.2530058e-09
3.8952848e-08
5.0590344e-09
4.8717601e-09
1.3192892e-07
1.8419755e-08
1.2942521e-07
1.8165551e-08
1.2693656e-07
1.7911855e-08
1.2446332e-07
1.7658627e-08
1.220058e-07
1.7404912e-08
1.1956443e-07
1.7150319e-08
1.1713977e-07
1.6894354e-08
1.1473241e-07
1.6636771e-08
1.1234304e-07
1.6377236e-08
1.0997234e-07
1.6115639e-08
1.0762108e-07
1.5851756e-08
1.0529001e-07
1.5585587e-08
1.0297995e-07
1.531701e-08
1.0069169e-07
1.5046111e-08
9.8426058e-08
1.4772853e-08
9.6183876e-08
1.4497382e-08
9.3965978e-08
1.4219726e-08
9.1773185e-08
1.394007e-08
8.9606316e-08
1.3658483e-08
8.7466157e-08
1.3375173e-08
8.5353435e-08
1.309025e-08
8.3268731e-08
1.280395e-08
8.1212226e-08
1.2516496e-08
7.9182961e-08
1.2228262e-08
7.7176058e-08
1.1940268e-08
7.5186191e-08
1.1651826e-08
7.3272726e-08
1.1370998e-08
7.137604e-08
1.1084133e-08
6.9501444e-08
1.0797594e-08
6.7657635e-08
1.0511003e-08
6.5847355e-08
1.0224593e-08
6.4070705e-08
9.9415513e-09
6.2325908e-08
9.6603748e-09
6.0614109e-08
9.3815342e-09
5.8935207e-08
9.1049944e-09
5.7289259e-08
8.8309993e-09
5.567634e-08
8.5598825e-09
5.4096461e-08
8.291971e-09
5.254954e-08
8.0275884e-09
5.1035409e-08
7.7670089e-09
4.9553818e-08
7.5105094e-09
4.810445e-08
7.2583369e-09
4.6686921e-08
7.0107723e-09
4.5300786e-08
6.7680848e-09
4.3945542e-08
6.5306156e-09
4.2620568e-08
6.298779e-09
4.132512e-08
6.0730476e-09
4.0060019e-08
5.8516288e-09
5.6377146e-09
1.3545513e-07
2.075222e-08
1.3289264e-07
2.0469763e-08
1.3034508e-07
2.0187884e-08
1.2781283e-07
1.9906268e-08
1.2529624e-07
1.9623983e-08
1.2279579e-07
1.934057e-08
1.2031206e-07
1.9055487e-08
1.1784571e-07
1.8768453e-08
1.1539743e-07
1.8479106e-08
1.1296797e-07
1.8187317e-08
1.1055813e-07
1.7892847e-08
1.0816871e-07
1.7595691e-08
1.0580054e-07
1.7295723e-08
1.0345446e-07
1.6993032e-08
1.0113134e-07
1.6687586e-08
9.8832024e-08
1.6379543e-08
9.6557386e-08
1.6068939e-08
9.4308279e-08
1.5755974e-08
9.2085554e-08
1.5440729e-08
8.9890026e-08
1.5123426e-08
8.7722449e-08
1.4804184e-08
8.5583426e-08
1.4483254e-08
8.3473146e-08
1.4160891e-08
8.13906e-08
1.3837534e-08
7.9330848e-08
1.3514475e-08
7.7288135e-08
1.3190827e-08
7.5324317e-08
1.2877489e-08
7.3377274e-08
1.2555658e-08
7.1452736e-08
1.2233933e-08
6.9559616e-08
1.1911918e-08
6.7700842e-08
1.1589878e-08
6.5876462e-08
1.1271768e-08
6.4084623e-08
1.0955773e-08
6.2326507e-08
1.0642347e-08
6.0602036e-08
1.0331428e-08
5.8911288e-08
1.002329e-08
5.725435e-08
9.7183244e-09
5.5631238e-08
9.4169061e-09
5.4041871e-08
9.1194037e-09
5.2486079e-08
8.8261279e-09
5.096361e-08
8.5373911e-09
4.9474145e-08
8.2534735e-09
4.80173e-08
7.9746862e-09
4.6592627e-08
7.7013272e-09
4.5199619e-08
7.4337482e-09
4.3837644e-08
7.1723843e-09
4.250569e-08
6.9177826e-09
4.1205246e-08
6.6687206e-09
6.4273423e-09
1.3906762e-07
2.3136131e-08
1.3644648e-07
2.2825449e-08
1.3384005e-07
2.251537e-08
1.3124872e-07
2.2205289e-08
1.2867288e-07
2.1894326e-08
1.2611308e-07
2.1581936e-08
1.2356993e-07
2.1267543e-08
1.2104413e-07
2.0950823e-08
1.1853642e-07
2.0631394e-08
1.1604762e-07
2.0309104e-08
1.1357854e-07
1.9983708e-08
1.1113003e-07
1.965519e-08
1.0870297e-07
1.9323426e-08
1.0629823e-07
1.8988506e-08
1.0391673e-07
1.8650409e-08
1.0155934e-07
1.8309299e-08
9.9226979e-08
1.7965229e-08
9.6920535e-08
1.761841e-08
9.464089e-08
1.726894e-08
9.2388896e-08
1.6917051e-08
9.0165337e-08
1.6562881e-08
8.7970845e-08
1.6206694e-08
8.5805621e-08
1.5848788e-08
8.3668622e-08
1.5489689e-08
8.1554793e-08
1.5130939e-08
7.945803e-08
1.4771567e-08
7.7442578e-08
1.4424475e-08
7.5443893e-08
1.4067137e-08
7.3468078e-08
1.3709563e-08
7.1524319e-08
1.3351459e-08
6.9615758e-08
1.299303e-08
6.7742353e-08
1.263913e-08
6.5902164e-08
1.2287576e-08
6.4096411e-08
1.1938801e-08
6.2325046e-08
1.159273e-08
6.0588174e-08
1.1249678e-08
5.8885894e-08
1.0910094e-08
5.7218229e-08
1.0574405e-08
5.55851e-08
1.0243024e-08
5.3986335e-08
9.9162979e-09
5.2421682e-08
9.5945758e-09
5.0890821e-08
9.2781721e-09
4.9393366e-08
8.9674287e-09
4.7928867e-08
8.6626729e-09
4.6496812e-08
8.3642649e-09
4.5096602e-08
8.0725703e-09
4.3726905e-08
7.7875965e-09
4.2389864e-08
7.5120201e-09
7.2416866e-09
1.4276719e-07
2.5570783e-08
1.4008763e-07
2.5232032e-08
1.3742242e-07
2.489385e-08
1.3477198e-07
2.4555362e-08
1.3213677e-07
2.4215714e-08
1.2951738e-07
2.3874295e-08
1.2691447e-07
2.3530492e-08
1.2432881e-07
2.3183941e-08
1.2176119e-07
2.2834244e-08
1.1921245e-07
2.2481224e-08
1.1668348e-07
2.2124633e-08
1.1417518e-07
2.1764445e-08
1.1168845e-07
2.1400544e-08
1.0922423e-07
2.1033018e-08
1.0678346e-07
2.066186e-08
1.0436707e-07
2.0287241e-08
1.0197601e-07
1.9909235e-08
9.9611204e-08
1.9528062e-08
9.7273579e-08
1.9143842e-08
9.4964023e-08
1.8756816e-08
9.2683354e-08
1.8367145e-08
9.043224e-08
1.7975109e-08
8.8210911e-08
1.7581052e-08
8.6018298e-08
1.7185605e-08
8.3849238e-08
1.6790561e-08
8.1697278e-08
1.6394936e-08
7.9628877e-08
1.6012951e-08
7.7577191e-08
1.5619548e-08
7.554875e-08
1.5225476e-08
7.3553026e-08
1.4830625e-08
7.1593405e-08
1.4435047e-08
6.9669699e-08
1.4044661e-08
6.7779858e-08
1.3656823e-08
6.5925153e-08
1.3271944e-08
6.4105575e-08
1.2889954e-08
6.2321256e-08
1.2511219e-08
6.0572315e-08
1.2136253e-08
5.8858779e-08
1.1765534e-08
5.7180574e-08
1.1399516e-08
5.5537526e-08
1.1038588e-08
5.3929384e-08
1.0683132e-08
5.2355827e-08
1.0333501e-08
5.0816468e-08
9.9900675e-09
4.9310854e-08
9.6531904e-09
4.7838465e-08
9.3232462e-09
4.6398655e-08
9.0006205e-09
4.4990379e-08
8.6854292e-09
4.3615082e-08
8.3806107e-09
8.0815291e-09
1.4655162e-07
2.8055224e-08
1.4381403e-07
2.7688753e-08
1.4109029e-07
2.7322687e-08
1.3838088e-07
2.6955971e-08
1.356863e-07
2.6587758e-08
1.3300722e-07
2.6217369e-08
1.3034436e-07
2.5844163e-08
1.2769854e-07
2.5467731e-08
1.2507062e-07
2.5087667e-08
1.224615e-07
2.4703769e-08
1.198721e-07
2.4315795e-08
1.1730339e-07
2.3923702e-08
1.1475632e-07
2.352739e-08
1.1223189e-07
2.3126941e-08
1.0973106e-07
2.2722374e-08
1.0725483e-07
2.231386e-08
1.0480417e-07
2.1901499e-08
1.0238008e-07
2.148552e-08
9.9983493e-08
2.1066069e-08
9.7615358e-08
2.0643399e-08
9.5276528e-08
2.0217695e-08
9.2967712e-08
1.9789257e-08
9.0689182e-08
1.9358475e-08
8.8439882e-08
1.8926084e-08
8.6214546e-08
1.8494155e-08
8.400628e-08
1.8061809e-08
8.1883712e-08
1.7643785e-08
7.9777686e-08
1.7213806e-08
7.7695309e-08
1.6782605e-08
7.5646341e-08
1.6350361e-08
7.3634457e-08
1.591687e-08
7.1659234e-08
1.5489331e-08
6.9718493e-08
1.5064505e-08
6.7813565e-08
1.4642778e-08
6.5944493e-08
1.4224111e-08
6.4111446e-08
1.3808933e-08
6.2314563e-08
1.3397827e-08
6.0553877e-08
1.2991323e-08
5.8829315e-08
1.2589918e-08
5.7140707e-08
1.2194039e-08
5.5487801e-08
1.1804105e-08
5.3870276e-08
1.1420507e-08
5.2287744e-08
1.1043651e-08
5.0739749e-08
1.0673932e-08
4.9225763e-08
1.0311753e-08
4.7745141e-08
9.9575549e-09
4.6297073e-08
9.6115933e-09
4.4882241e-08
9.2762965e-09
8.94795e-09
1.5041688e-07
3.0588266e-08
1.4762189e-07
3.019457e-08
1.4484011e-07
2.9800998e-08
1.4207205e-07
2.9406378e-08
1.3931833e-07
2.9009846e-08
1.3657965e-07
2.8610664e-08
1.3385683e-07
2.8208168e-08
1.3115074e-07
2.7801912e-08
1.2846231e-07
2.739148e-08
1.257925e-07
2.697665e-08
1.2314231e-07
2.6557184e-08
1.2051274e-07
2.6133031e-08
1.1790482e-07
2.5704106e-08
1.1531957e-07
2.5270493e-08
1.1275804e-07
2.4832228e-08
1.1022126e-07
2.4389494e-08
1.0771026e-07
2.3942417e-08
1.0522606e-07
2.3491237e-08
1.0276967e-07
2.3036128e-08
1.0034205e-07
2.2577357e-08
9.7944121e-08
2.2115137e-08
9.5576635e-08
2.1649786e-08
9.3239924e-08
2.1181736e-08
9.0932973e-08
2.0711831e-08
8.8650445e-08
2.0242448e-08
8.6384757e-08
1.9773125e-08
8.420701e-08
1.9317601e-08
8.2045355e-08
1.8850726e-08
7.9907803e-08
1.8381792e-08
7.7804374e-08
1.7911533e-08
7.5739114e-08
1.7439363e-08
7.3711237e-08
1.6974043e-08
7.1718413e-08
1.6511552e-08
6.9762053e-08
1.6052249e-08
6.7842267e-08
1.5596156e-08
6.5959269e-08
1.5143789e-08
6.4113217e-08
1.4695797e-08
6.2304151e-08
1.4252766e-08
6.0532003e-08
1.3815231e-08
5.8796602e-08
1.3383661e-08
5.7097699e-08
1.2958511e-08
5.5434973e-08
1.2540212e-08
5.3808037e-08
1.2129205e-08
5.2216433e-08
1.1725924e-08
5.065963e-08
1.1330809e-08
4.9137005e-08
1.0944348e-08
4.7647841e-08
1.0566914e-08
4.6192341e-08
1.0200324e-08
9.8420147e-09
1.5435787e-07
3.3168371e-08
1.5150637e-07
3.2748167e-08
1.4866728e-07
3.2327616e-08
1.4584118e-07
3.1905562e-08
1.4302876e-07
3.1481098e-08
1.4023082e-07
3.1053435e-08
1.3744824e-07
3.0621887e-08
1.3468198e-07
3.0185973e-08
1.3193304e-07
2.9745277e-08
1.2920246e-07
2.9299556e-08
1.2649128e-07
2.8848585e-08
1.2380059e-07
2.8392303e-08
1.2113147e-07
2.7930647e-08
1.1848501e-07
2.7463699e-08
1.158623e-07
2.6991525e-08
1.1326443e-07
2.6514314e-08
1.1069247e-07
2.6032224e-08
1.0814751e-07
2.5545507e-08
1.0563059e-07
2.5054372e-08
1.0314274e-07
2.4559098e-08
1.006849e-07
2.4059932e-08
9.8257905e-08
2.3557208e-08
9.5862151e-08
2.3051396e-08
9.3496717e-08
2.2543427e-08
9.1156269e-08
2.2036019e-08
8.8831991e-08
2.1529877e-08
8.659834e-08
2.1034749e-08
8.4379791e-08
2.053103e-08
8.2185895e-08
2.0023775e-08
8.0026868e-08
1.951491e-08
7.7907229e-08
1.9003307e-08
7.5825651e-08
1.8499634e-08
7.3779633e-08
1.7998828e-08
7.1770699e-08
1.7501235e-08
6.9799047e-08
1.7006984e-08
6.786494e-08
1.6516694e-08
6.5968555e-08
1.6031088e-08
6.4109939e-08
1.5550801e-08
6.2289027e-08
1.5076409e-08
6.0505651e-08
1.460842e-08
5.8759565e-08
1.4147327e-08
5.705045e-08
1.3693602e-08
5.5377919e-08
1.3247723e-08
5.3741516e-08
1.2810167e-08
5.214071e-08
1.238141e-08
5.0574895e-08
1.1961986e-08
4.9043407e-08
1.1552328e-08
4.7546091e-08
1.1153808e-08
1.076481e-08
1.5836893e-07
3.5793757e-08
1.5546213e-07
3.5347854e-08
1.5256675e-07
3.4901071e-08
1.4968347e-07
3.4452216e-08
1.4681306e-07
3.4000359e-08
1.4395643e-07
3.3544663e-08
1.4111455e-07
3.3084432e-08
1.3828845e-07
3.261915e-08
1.3547922e-07
3.214841e-08
1.3268798e-07
3.1671948e-08
1.2991585e-07
3.118956e-08
1.2716397e-07
3.0701176e-08
1.244335e-07
3.020676e-08
1.217256e-07
2.9706393e-08
1.190414e-07
2.9200178e-08
1.1638206e-07
2.8688308e-08
1.1374872e-07
2.8170982e-08
1.111425e-07
2.7648463e-08
1.085645e-07
2.7121e-08
1.0601579e-07
2.6588888e-08
1.0349737e-07
2.6052409e-08
1.0101015e-07
2.551191e-08
9.8554622e-08
2.4967892e-08
9.6130028e-08
2.4421325e-08
9.3731107e-08
2.387529e-08
9.1346926e-08
2.3332855e-08
8.905703e-08
2.2795581e-08
8.6780363e-08
2.2255371e-08
8.4529012e-08
2.1709194e-08
8.2313317e-08
2.1161162e-08
8.0138412e-08
2.0609413e-08
7.8002174e-08
2.0066878e-08
7.590192e-08
1.9527138e-08
7.3839338e-08
1.8990554e-08
7.1814735e-08
1.8457431e-08
6.9828426e-08
1.7928508e-08
6.7880605e-08
1.7404579e-08
6.5971327e-08
1.6886329e-08
6.4100529e-08
1.6374371e-08
6.2268046e-08
1.5869252e-08
6.0473637e-08
1.5371505e-08
5.8716985e-08
1.4881643e-08
5.6997708e-08
1.4400185e-08
5.5315353e-08
1.3927646e-08
5.3669389e-08
1.3464547e-08
5.2059224e-08
1.3011452e-08
5.0484199e-08
1.2568845e-08
4.8943948e-08
1.2137779e-08
1.171736e-08
1.6244421e-07
3.8462225e-08
1.5948359e-07
3.7991661e-08
1.5653324e-07
3.7519557e-08
1.5359391e-07
3.7044722e-08
1.5066651e-07
3.6566177e-08
1.4775202e-07
3.6083056e-08
1.4485152e-07
3.559465e-08
1.4196615e-07
3.5100429e-08
1.3909709e-07
3.4599986e-08
1.3624552e-07
3.4093055e-08
1.3341267e-07
3.3579446e-08
1.3059974e-07
3.3059093e-08
1.2780797e-07
3.2531984e-08
1.2503857e-07
3.1998213e-08
1.2229277e-07
3.145791e-08
1.1957177e-07
3.0911288e-08
1.1687677e-07
3.0358579e-08
1.1420894e-07
2.9800072e-08
1.1156944e-07
2.9236052e-08
1.089594e-07
2.8666839e-08
1.0637988e-07
2.8092748e-08
1.0383185e-07
2.7514142e-08
1.0131594e-07
2.6931522e-08
9.8831685e-08
2.634579e-08
9.6374067e-08
2.5760241e-08
9.3927923e-08
2.5181531e-08
9.1582432e-08
2.4601531e-08
8.924632e-08
2.4024647e-08
8.6936425e-08
2.3438624e-08
8.4663042e-08
2.2850856e-08
8.2432126e-08
2.2258331e-08
8.0240349e-08
2.1676501e-08
7.8084876e-08
2.1097223e-08
7.5967635e-08
2.0520962e-08
7.3889064e-08
1.9948271e-08
7.1849525e-08
1.9380029e-08
6.9849228e-08
1.8817097e-08
6.7888233e-08
1.8260203e-08
6.5966478e-08
1.7709994e-08
6.4083806e-08
1.7167057e-08
6.2239979e-08
1.6631964e-08
6.0434687e-08
1.6105272e-08
5.8667551e-08
1.558754e-08
5.6938123e-08
1.5079328e-08
5.5245877e-08
1.4581195e-08
5.3590221e-08
1.4093736e-08
5.1970513e-08
1.361746e-08
5.0386197e-08
1.3153269e-08
1.2700725e-08
1.6657773e-07
4.1171218e-08
1.6356512e-07
4.0677241e-08
1.605614e-07
4.0180966e-08
1.5756744e-07
3.9681161e-08
1.5458428e-07
3.9176813e-08
1.5161302e-07
3.8667036e-08
1.4865486e-07
3.8151121e-08
1.4571103e-07
3.762853e-08
1.4278281e-07
3.7098866e-08
1.3987148e-07
3.6561864e-08
1.3697834e-07
3.6017355e-08
1.3410471e-07
3.546528e-08
1.3125187e-07
3.4905658e-08
1.2842113e-07
3.4338596e-08
1.2561377e-07
3.3764259e-08
1.2283108e-07
3.3182882e-08
1.200743e-07
3.2594737e-08
1.1734468e-07
3.2000139e-08
1.1464343e-07
3.1399417e-08
1.1197172e-07
3.0792921e-08
1.0933069e-07
3.0181002e-08
1.0672138e-07
2.9564037e-08
1.0414458e-07
2.8942494e-08
1.0160016e-07
2.831709e-08
9.9084259e-08
2.7689972e-08
9.6573653e-08
2.7065817e-08
9.4173869e-08
2.6463212e-08
9.1776579e-08
2.5840567e-08
8.9407273e-08
2.5212439e-08
8.7075269e-08
2.4584385e-08
8.4787737e-08
2.39507e-08
8.253961e-08
2.3329194e-08
8.0327986e-08
2.2709772e-08
7.815514e-08
2.2093151e-08
7.6021649e-08
2.1480224e-08
7.3927919e-08
2.0872012e-08
7.1874166e-08
2.0269431e-08
6.9860454e-08
1.9673243e-08
6.7886724e-08
1.9084128e-08
6.5952826e-08
1.8502711e-08
6.405853e-08
1.7929605e-08
6.2203532e-08
1.7365411e-08
6.0387461e-08
1.6810733e-08
5.8609873e-08
1.6266171e-08
5.6870248e-08
1.5732328e-08
5.5167996e-08
1.5209827e-08
5.3502452e-08
1.4699213e-08
5.1872992e-08
1.4201274e-08
1.3715928e-08
1.7076347e-07
4.391778e-08
1.67701e-07
4.3401925e-08
1.646458e-07
4.2882855e-08
1.6159893e-07
4.2359297e-08
1.5856153e-07
4.1830222e-08
1.5553485e-07
4.1294739e-08
1.5252021e-07
4.075215e-08
1.4951896e-07
4.0201917e-08
1.4653248e-07
3.9643661e-08
1.4356217e-07
3.9077126e-08
1.4060941e-07
3.8502169e-08
1.376756e-07
3.7918746e-08
1.3476213e-07
3.7326907e-08
1.3187037e-07
3.6726782e-08
1.290017e-07
3.6118572e-08
1.2615744e-07
3.5502542e-08
1.2333895e-07
3.4879003e-08
1.205475e-07
3.4248306e-08
1.1778439e-07
3.3610826e-08
1.1505083e-07
3.2966952e-08
1.1234803e-07
3.2317077e-08
1.0967708e-07
3.16616e-08
1.0703891e-07
3.1000945e-08
1.0443374e-07
3.0335579e-08
1.0185863e-07
2.9666156e-08
9.9287297e-08
2.8995445e-08
9.6828393e-08
2.8371583e-08
9.4369831e-08
2.7701896e-08
9.1940592e-08
2.703065e-08
8.9549127e-08
2.6361896e-08
8.7204582e-08
2.5687181e-08
8.4899324e-08
2.5025627e-08
8.2630655e-08
2.436541e-08
8.0401323e-08
2.3707743e-08
7.8212034e-08
2.3053944e-08
7.6063217e-08
2.2405153e-08
7.3955089e-08
2.1762319e-08
7.1887715e-08
2.1126225e-08
6.9861043e-08
2.0497582e-08
6.7874931e-08
1.9877054e-08
6.5929158e-08
1.9265297e-08
6.4023431e-08
1.8662956e-08
6.2157386e-08
1.8070683e-08
6.0330587e-08
1.7489119e-08
5.8542515e-08
1.6918911e-08
5.6792582e-08
1.636071e-08
5.5080125e-08
1.5815092e-08
5.3404413e-08
1.5282832e-08
1.4764006e-08
1.749953e-07
4.6698595e-08
1.7188538e-07
4.6162718e-08
1.6878091e-07
4.5622466e-08
1.6568309e-07
4.5076592e-08
1.6259324e-07
4.4524063e-08
1.5951276e-07
4.3964014e-08
1.5644309e-07
4.339576e-08
1.5338571e-07
4.2818785e-08
1.5034212e-07
4.2232725e-08
1.4731381e-07
4.1637349e-08
1.443023e-07
4.1032538e-08
1.4130906e-07
4.0418279e-08
1.3833558e-07
3.9794648e-08
1.3538332e-07
3.9161812e-08
1.3245374e-07
3.8520006e-08
1.2954824e-07
3.7869535e-08
1.2666824e-07
3.7210751e-08
1.238151e-07
3.6544051e-08
1.2099016e-07
3.5869854e-08
1.1819471e-07
3.5188604e-08
1.1543e-07
3.4500741e-08
1.1269719e-07
3.380671e-08
1.0999726e-07
3.3106937e-08
1.0733059e-07
3.2401746e-08
1.0469538e-07
3.1690446e-08
1.02069e-07
3.0972962e-08
9.954448e-08
3.0324604e-08
9.7024667e-08
2.9607227e-08
9.4535448e-08
2.8892871e-08
9.2083651e-08
2.818329e-08
8.9681994e-08
2.7468503e-08
8.731876e-08
2.6766489e-08
8.4992198e-08
2.6064668e-08
8.2705577e-08
2.5365279e-08
8.045969e-08
2.4670025e-08
7.825496e-08
2.3980104e-08
7.6091601e-08
2.329646e-08
7.3969679e-08
2.2619893e-08
7.188915e-08
2.195114e-08
6.9849884e-08
2.1290907e-08
6.7851673e-08
2.0639893e-08
6.5894234e-08
1.9998793e-08
6.3977215e-08
1.9368301e-08
6.2100186e-08
1.8749111e-08
6.0262639e-08
1.8141903e-08
5.8463974e-08
1.7547378e-08
5.6703515e-08
1.6966135e-08
5.4980528e-08
1.6398925e-08
1.5846022e-08
1.8242359e-07
5.0060149e-08
1.7926684e-07
4.9510249e-08
1.7611216e-07
4.8956332e-08
1.7296088e-07
4.8396719e-08
1.698144e-07
4.7830168e-08
1.6667418e-07
4.7255675e-08
1.6354177e-07
4.6672402e-08
1.6041876e-07
4.6079689e-08
1.5730679e-07
4.547705e-08
1.5420746e-07
4.4864149e-08
1.5112239e-07
4.4240785e-08
1.4805321e-07
4.3606872e-08
1.450015e-07
4.2962431e-08
1.4196884e-07
4.2307576e-08
1.389568e-07
4.1642512e-08
1.359669e-07
4.0967516e-08
1.3300065e-07
4.0282937e-08
1.3005953e-07
3.9589173e-08
1.2714499e-07
3.8886672e-08
1.2425843e-07
3.8175908e-08
1.214012e-07
3.7457381e-08
1.185746e-07
3.67316e-08
1.1577984e-07
3.5999079e-08
1.1301793e-07
3.5260322e-08
1.1028933e-07
3.4515761e-08
1.0759234e-07
3.3765504e-08
1.0491735e-07
3.301247e-08
1.0232043e-07
3.230815e-08
9.9740089e-08
3.1554276e-08
9.7190967e-08
3.0798797e-08
9.4677963e-08
3.0047963e-08
9.2219281e-08
2.9295846e-08
8.9797015e-08
2.8552456e-08
8.7411797e-08
2.7807913e-08
8.5067201e-08
2.7066179e-08
8.2764004e-08
2.6328983e-08
8.0502614e-08
2.5597452e-08
7.8283235e-08
2.4872501e-08
7.610594e-08
2.4154942e-08
7.3970698e-08
2.3445542e-08
7.1877392e-08
2.2745049e-08
6.982583e-08
2.205421e-08
6.7815746e-08
2.1373771e-08
6.5846795e-08
2.0704475e-08
6.3918563e-08
2.0047059e-08
6.2030534e-08
1.940226e-08
6.018213e-08
1.8770792e-08
5.8372661e-08
1.8153314e-08
5.6601324e-08
1.7550606e-08
1.6962988e-08
1.8676726e-07
5.2913109e-08
1.8357122e-07
5.2348854e-08
1.8037481e-07
5.1779102e-08
1.7717954e-07
5.1202166e-08
1.7398695e-07
5.0616823e-08
1.7079871e-07
5.0022077e-08
1.6761653e-07
4.9417131e-08
1.6444217e-07
4.880137e-08
1.6127739e-07
4.8174339e-08
1.5812395e-07
4.7535745e-08
1.5498359e-07
4.6885421e-08
1.5185806e-07
4.6223325e-08
1.4874905e-07
4.5549516e-08
1.4565825e-07
4.4864155e-08
1.4258733e-07
4.416749e-08
1.3953791e-07
4.3459847e-08
1.3651159e-07
4.2741621e-08
1.3350993e-07
4.2013268e-08
1.3053445e-07
4.1275287e-08
1.2758663e-07
4.0528217e-08
1.2466789e-07
3.9772622e-08
1.217796e-07
3.900909e-08
1.1892301e-07
3.8238228e-08
1.1609917e-07
3.7460669e-08
1.1330869e-07
3.6677091e-08
1.1055096e-07
3.588849e-08
1.0782345e-07
3.5098746e-08
1.0515711e-07
3.433775e-08
1.0251505e-07
3.3545907e-08
9.9905949e-08
3.2749035e-08
9.7331742e-08
3.1954428e-08
9.4815382e-08
3.1171493e-08
9.233294e-08
3.0383556e-08
8.9888489e-08
2.9595199e-08
8.7485366e-08
2.8810739e-08
8.512425e-08
2.8031261e-08
8.2805532e-08
2.725773e-08
8.0529418e-08
2.6491043e-08
7.8295992e-08
2.5732028e-08
7.6105241e-08
2.4981492e-08
7.3957069e-08
2.424023e-08
7.1851301e-08
2.3509041e-08
6.9787686e-08
2.2788725e-08
6.7765899e-08
2.2080073e-08
6.5785524e-08
2.1383877e-08
6.3846079e-08
2.0700902e-08
6.1946946e-08
2.003194e-08
6.0087456e-08
1.9377646e-08
5.826681e-08
1.8738839e-08
1.8115974e-08
1.9113262e-07
5.578573e-08
1.8790104e-07
5.5209948e-08
1.8466632e-07
5.4626905e-08
1.8143016e-07
5.4034991e-08
1.7819435e-07
5.343298e-08
1.7496075e-07
5.2819933e-08
1.7173125e-07
5.2195102e-08
1.6850778e-07
5.1557917e-08
1.6529225e-07
5.0907977e-08
1.6208658e-07
5.0245031e-08
1.5889265e-07
4.9568965e-08
1.5571231e-07
4.887978e-08
1.5254741e-07
4.8177588e-08
1.4939974e-07
4.74626e-08
1.4627106e-07
4.6735115e-08
1.4316312e-07
4.5995512e-08
1.400776e-07
4.5244244e-08
1.3701616e-07
4.4481824e-08
1.3398039e-07
4.3708813e-08
1.3097186e-07
4.2925816e-08
1.2799207e-07
4.2133474e-08
1.2504245e-07
4.1332456e-08
1.2212432e-07
4.0523476e-08
1.1923886e-07
3.9707302e-08
1.1638688e-07
3.8884842e-08
1.1356877e-07
3.8057581e-08