/*--------------------------------*- C++ -*----------------------------------*\
| =========                 |                                                 |
| \\      /  F ield         | OpenFOAM: The Open Source CFD Toolbox           |
|  \\    /   O peration     | Version:  2312                                  |
|   \\  /    A nd           | Website:  www.openfoam.com                      |
|    \\/     M anipulation  |                                                 |
\*---------------------------------------------------------------------------*/
FoamFile
{
    version     2.0;
    format      ascii;
    arch        "LSB;label=32;scalar=64";
    class       volScalarField;
    location    "0.03";
    object      Qdot;
}
// * * * * * * * * * * * * * * * * * * * * * * * * * * * * * * * * * * * * * //

dimensions      [1 -1 -3 0 0 0 0];

internalField   nonuniform List<scalar> 
3250
(
13111215
13055831
13030991
13036846
13072356
13136337
13227783
13345848
13489830
13659154
13853367
14072119
14315165
14582346
14873591
15188904
15528360
15892094
16280291
16693173
17130979
17593934
18082192
18595683
19133711
19694259
20275660
20869679
21500520
22152823
22822526
23487984
24179686
24879062
25576412
26263723
26931628
27569402
28164984
28705065
29175258
29560370
29844731
30012110
30047746
29941895
29681273
29259551
28685624
13102089
13047344
13023047
13029399
13065360
13129750
13221569
13339976
13484269
13653880
13848355
14067350
14310618
14578004
14869439
15184929
15524548
15888433
16276772
16689786
17127716
17590786
18079149
18592732
19130848
19691462
20273048
20867113
21498048
22150432
22820223
23485774
24177572
24877068
25574546
26262004
26930074
27568036
28163830
28704150
29174610
29560019
29844732
30012789
30049397
29943373
29683075
29261457
28687953
13084617
13031124
13007924
13015296
13052179
13117410
13209996
13329105
13474042
13644244
13839262
14058757
14302485
14570297
14862123
15177974
15517926
15882118
16270738
16684010
17122175
17585458
18074010
18587758
19126030
19686736
20268509
20862634
21493632
22146062
22815881
23481444
24173243
24872729
25570181
26257601
26925627
27563539
28159285
28699559
29169981
29555364
29840076
30008346
30045404
29939254
29679021
29257355
28683982
13058883
13007228
12985677
12994584
13032859
13099358
13193104
13313274
13459186
13630283
13826124
14046377
14290805
14559261
14851681
15168079
15508534
15873188
16262231
16675888
17114401
17577996
18066822
18580808
19119296
19680143
20262098
20856294
21487337
22139777
22809565
23475065
24166770
24866119
25563393
26250597
26918371
27556001
28151439
28691386
29161470
29546512
29830899
29998984
30036045
29929635
29669225
29247415
28673970
13024975
12975724
12956365
12967315
13007448
13075641
13170937
13292526
13439741
13612036
13808980
14030249
14275614
14544934
14838151
15155282
15496412
15861684
16251293
16665464
17104441
17568449
18057639
18571938
19110703
19671746
20253894
20848172
21479252
22131673
22801380
23466744
24158274
24857371
25554326
26241148
26908477
27545606
28140494
28679851
29149317
29533726
29817488
29985051
30021735
29914852
29654023
29231991
28658338
12985403
12938916
12922132
12935480
12977797
13047984
13145104
13268366
13417117
13590825
13789071
14011540
14258011
14528352
14822511
15140510
15482439
15848444
16238721
16653500
17093025
17557523
18047141
18561810
19100898
19662176
20244529
20838900
21470016
22122398
22791986
23457164
24148462
24847222
25543758
26230075
26896818
27533285
28127441
28666011
29134646
29518200
29801114
29967901
30003921
29896365
29634904
29212606
28638650
12941421
12897929
12884024
12900048
12944804
13017220
13116380
13241513
13391983
13567273
13766977
13990791
14238504
14509991
14805207
15124181
15467006
15833834
16224864
16640326
17080467
17545515
18035616
18550702
19090145
19651701
20234265
20828745
21459897
22112227
22781671
23446625
24137649
24836013
25532054
26217775
26883826
27519508
28112798
28650431
29118075
29500608
29782501
29948326
29983479
29875083
29612805
29190269
28615928
12889722
12849592
12839104
12858286
12905924
12980973
13082545
13209892
13362397
13539560
13740992
13966400
14215584
14488431
14784903
15105034
15448925
15816732
16208656
16624932
17065807
17531509
18022187
18537771
19077634
19639527
20222336
20816950
21448145
22100409
22769676
23434355
24125049
24822929
25518367
26203362
26868566
27503288
28095516
28631998
29098423
29479696
29760326
29924941
29958974
29849507
29586144
29163395
28588515
12829465
12793387
12786933
12809785
12860772
12938884
13043262
13173185
13328060
13507407
13710852
13938120
14189023
14463457
14761396
15082881
15428019
15796970
16189942
16607171
17048906
17515377
18006731
18522901
19063257
19625548
20208641
20803416
21434667
22086851
22755906
23420255
24110561
24807869
25502591
26186723
26850919
27484496
28075455
28610560
29075525
29455286
29734396
29897538
29930190
29819412
29554646
29131792
28556143
12760184
12728873
12727058
12754123
12808952
12890579
12998180
13131064
13288663
13470522
13676285
13905694
14158577
14434842
14734472
15057519
15404097
15774372
16168554
16586885
17029616
17496976
17989115
18505964
19046893
19609648
20193068
20788034
21419354
22071445
22740249
23404213
24094069
24790710
25484598
26167721
26830737
27462974
28052445
28585934
29049183
29427164
29704479
29865870
29896864
29784520
29517971
29095232
28518491
12681395
12655582
12659025
12690866
12750055
12835673
12946935
13083185
13243884
13428601
13637004
13868853
14123993
14402345
14703906
15028737
15376960
15748747
16144315
16563907
17007777
17476156
17969195
18486825
19028411
19591700
20175492
20770680
21402089
22054070
22722580
23386099
24075442
24771317
25464243
26146202
26807856
27438543
28026292
28557911
29019171
29395086
29670311
29829652
29858691
29744513
29475825
29053455
28475070
12592593
12573034
12582369
12619574
12683665
12773772
12889156
13029196
13193388
13381329
13592710
13827315
14085004
14365717
14669462
14996312
15346397
15719898
16117036
16538058
16983220
17452756
17946817
18465335
19007674
19571571
20155771
20751221
21382740
22034594
22702762
23365771
24054533
24749536
25441364
26121993
26782090
27411004
27996783
28526258
28985237
29358779
29631600
29788572
29815338
29699005
29428266
29005167
28425366
12493247
12480739
12496621
12539800
12609355
12704471
12824457
12968733
13136831
13328378
13543095
13780786
14041334
14324694
14630890
14960007
15312185
15687612
16086515
16509147
16955764
17426603
17921815
18441336
18984531
19549122
20133750
20729506
21361164
22012873
22680642
23343073
24031182
24725199
25415785
26094906
26753236
27380139
27963680
28490721
28947106
29317948
29588027
29742290
29766450
29647652
29374719
28950279
28368966
12382780
12378201
12401310
12451093
12526694
12627359
12752447
12901423
13073857
13269412
13487837
13728962
13992692
14279002
14587930
14919575
15274088
15651666
16052542
16476972
16925216
17397512
17894013
18414662
18958828
19524212
20109248
20705370
21337206
21988750
22656053
23317832
24005214
24698125
25387312
26064734
26721073
27345708
27926727
28451022
28904481
29272274
29539251
29690442
29711644
29590062
29314689
28888496
28305457
12260801
12264928
12295964
12352999
12435249
12542020
12672727
12826884
13004103
13204083
13426605
13671527
13938779
14228354
14540310
14874758
15231861
15611826
16014891
16441318
16891371
17365286
17863222
18385129
18930399
19496701
20082059
20678634
21310699
21962057
22628812
23289859
23976437
24668114
25355734
26031252
26685361
27307455
27885647
28406865
28857042
29221412
29484904
29632638
29650509
29525808
29247701
28819419
28234392
12126858
12140447
12180119
12245070
12334584
12448035
12584895
12744730
12927196
13132034
13359058
13608155
13879282
14172453
14487744
14825282
15185243
15567842
15973326
16401960
16854010
17329716
17829238
18352543
18899064
19466438
20051976
20649106
21281466
21932617
22598716
23258950
23944644
24634950
25320824
25994218
26645839
27265101
27840141
28357927
28804445
29164996
29424596
29568466
29582610
29454432
29173269
28742590
28155299
11980488
12004294
12053323
12126863
12224271
12344987
12488545
12654569
12842761
13052902
13284846
13538510
13813878
14110989
14429937
14770866
15133963
15519456
15927597
16358656
16812903
17290577
17791844
18316691
18864611
19433098
20018959
20616598
21249321
21900242
22565539
23224879
23909612
24598401
25282335
25953370
26602229
27218346
27789889
28303867
28746323
29102634
29357910
29497485
29507487
29375452
29090889
28657507
28067675
11821243
11856025
11915139
11997951
12103887
12232463
12383277
12556010
12750415
12966319
13203613
13462249
13742238
14043644
14366582
14711212
15077737
15466393
15877440
16311154
16767805
17247634
17750810
18277341
18826791
19396671
19982446
20580904
21214071
21864746
22529024
23187402
23871100
24558216
25240001
25908425
26554228
27166868
27734547
28244316
28682283
29033908
29284405
29419230
29424650
29288356
29000031
28563637
27970982
11648696
11695217
11765155
11857922
11973027
12110062
12268694
12448664
12649780
12871915
13114999
13379021
13664021
13970089
14297361
14646016
15016270
15408369
15822581
16259187
16718457
17200634
17705889
18234250
18785380
19357072
19942084
20541778
21175509
21825952
22488861
23146253
23828849
24514124
25193535
25859076
26501510
27110321
27673744
28178880
28611906
28958374
29203610
29333206
29333585
29192605
28900139
28460414
27864649
11426189
11462371
11521498
11602994
11706394
11831303
11977395
12144408
12332148
12540478
12769317
13018641
13288472
13578883
13889989
14221950
14574961
14949254
15345085
15762731
16202474
16664588
17149313
17656821
18187160
18740160
19315118
19900041
20498932
21133409
21783737
22444649
23101150
23782585
24465834
25142627
25804995
26443727
27048333
27607084
28107137
28534744
28875557
29115025
29238890
29233744
29087632
28790627
28347240
27748072
11211208
11262086
11334568
11428324
11543019
11678356
11834095
12010050
12206090
12422137
12658159
12914175
13190244
13486472
13803001
14140013
14497722
14876373
15276234
15697589
16140724
16605911
17093389
17603329
18135788
18690664
19267578
19851999
20452321
21087532
21738138
22395765
23051811
23732023
24413034
25086942
25745826
26380500
26980502
27534142
28028637
28450321
28784953
29018120
29135726
29124549
28972839
28670878
28223477
27620600
10981533
11047677
11134189
11240869
11367491
11513860
11679822
11865268
12070133
12294397
12538079
12801241
13083982
13386437
13708778
14051209
14413963
14797299
15201495
15626842
16073628
16542125
17032567
17545122
18079844
18636644
19215197
19800160
20401578
21037537
21689808
22340913
22997951
23676861
24355385
25026118
25681185
26311424
26906398
27454462
27942897
28358126
28686027
28912334
29023129
29005392
28847595
28540241
28088442
27481516
10737031
10819020
10920191
11040409
11179554
11337529
11514269
11709739
11923941
12156914
12408727
12679487
12969330
13278425
13606970
13955192
14323343
14711695
15120537
15550164
16000866
16472914
16966537
17481892
18019027
18577842
19158007
19743866
20346287
20982732
21635140
22282884
22939637
23616789
24292520
24959762
25610658
26236060
26825560
27367557
27849402
28257617
28578208
28797071
28900477
28875630
28711236
28398022
27941381
27329964
10397159
10477611
10576083
10692483
10826797
10979013
11149131
11337169
11543171
11767203
12009361
12269767
12548568
12845941
13162085
13497226
13851613
14225515
14619218
15033018
15467217
15922105
16397950
16894971
17413316
17953019
18513960
19095793
19682682
20286081
20922807
21574797
22220440
22876427
23551415
24224032
24887450
25533798
26153938
26737490
27272901
27747600
28148215
28460892
28671700
28767118
28734587
28563065
28243493
27781457
27164785
10104698
10203532
10318962
10451071
10599966
10765741
10948487
11148306
11365314
11599642
11851441
12120882
12408157
12713477
13037074
13379198
13740121
14120127
14519515
14938589
15377654
15836999
16316885
16817525
17339051
17881480
18444668
19028244
19616227
20220606
20857487
21508841
22152821
22807832
23480280
24149475
24808718
25450120
26064550
26641653
27169935
27636903
28029305
28333436
28535554
28622361
28581555
28402358
28075907
27607798
26984093
9797696.2
9915146.9
10047872
10196064
10359940
10539687
10735487
10947517
11175963
11421017
11682884
11961782
12257944
12571614
12903054
13252541
13620364
14006824
14412229
14836891
15281114
15745186
16229361
16733839
17258735
17804047
18369603
18958113
19544121
20149496
20786452
21437047
22079458
22733346
23402893
24068364
24723068
25359104
25967348
26537477
27058054
27516682
27900230
28195160
28387930
28465483
28415792
28228369
27894571
27419887
9476731.4
9612927.4
9763150.4
9927685.7
10106840
10300891
10510095
10734705
10974968
11231135
11503460
11792205
12097640
12420043
12759703
13116918
13491996
13885250
14296998
14727555
15177226
15646293
16135000
16643532
17171987
17720337
18288379
18878719
19465966
20072357
20709317
21359049
21999836
22652427
23318763
23980181
24629959
25260184
25861741
26424342
26936615
27386262
27760291
28045340
28228084
28295723
28236526
28040337
27698914
27219274
9142568.4
9297489.7
9465271.8
9646279.7
9840899.7
10049483
10272360
10509844
10762241
11029853
11312980
11611923
11926987
12258478
12606710
12972001
13354672
13755049
14173456
14610208
15065609
15539931
16033408
16546207
17078402
17629937
18200578
18792816
19381331
19988758
20625644
21274397
21913435
22564522
23227350
23884363
24528805
25152749
25747091
26301582
26804922
27244923
27608743
27883211
28055233
28112283
28042948
27837441
27487965
27002679
8796156.4
8969609.5
9154853.4
9352321.5
9562466.1
9785702.9
10022420
10272988
10537762
10817088
11111306
11420752
11745758
12086658
12443785
12817473
13208057
13615868
14041233
14484468
14945868
15425698
15924173
16441441
16977549
17532411
18105754
18699947
19289753
19898231
20534938
21182582
21819710
22469054
23128063
23780299
24418970
25036138
25622708
26168479
26662230
27091894
27444791
27707957
27868547
27914325
27834214
27618834
27260887
26769257
8438629.3
8630228.2
8832663.5
9046423.2
9272012.2
9509897.1
9760514.6
10024279
10301587
10592821
10898353
11218548
11553763
11904350
12270659
12653036
13051822
13467354
13899958
14349945
14817600
15303174
15806863
16328790
16868973
17427290
18006160
18599620
19190726
19800270
20436645
21083042
21718068
22365398
23020257
23667321
24299762
24909628
25487843
26024255
26507734
26926344
27267584
27518711
27667150
27700969
27609444
27383634
27016871
26518394
8071303.2
8280455.3
8499624.9
8729338.9
8970139.7
9222531
9486985.1
9763949.5
10053852
10357102
10674098
11005223
11350852
11711354
12087086
12478403
12885649
13309160
13749256
14206241
14680385
15171921
15681021
16207781
16752185
17314069
17895722
18491296
19083695
19694286
20330188
20975157
21607859
22252871
22903227
23544699
24170421
24772433
25341679
25868066
26340563
26747380
27076208
27314548
27450109
27471286
27367708
27130893
26755136
26249415
7695668.4
7921565.3
8156815.3
8401966.5
8657582.9
8924190.4
9202283.4
9492330.7
9794779.4
10110058
10438578
10780737
11136920
11507502
11892847
12293308
12709229
13140938
13588748
14052945
14533786
15031477
15546164
16077909
16626657
17192201
17776689
18374390
18968054
19579644
20214913
20858239
21488366
22130723
22776194
23411625
24030113
24623687
25183322
25698989
26159771
26554034
26869680
27094471
27216426
27224285
27108022
26859518
26475080
25961554
7313376.8
7554989.5
7805462
8065345.1
8335207.6
8615582.3
8906971.6
9209852.6
9524680.2
9851889.6
10191898
10545108
10911905
11292664
11687746
12097500
12522259
12962341
13418044
13889634
14377344
14881352
15401772
15938625
16491816
17063475
17648436
18248254
18843130
19455646
20090089
20731515
21358783
21998112
22638293
23267205
23877910
24462433
25011784
25516012
25964320
26345249
26646929
26857403
26965023
26958896
26829330
26567999
26176794
25653799
6926222.4
7182302.1
7446932.4
7720648.5
8004007.1
8297532.5
8601720.7
8917043.7
9243952.1
9582876.6
9934229.6
10298407
10675789
11066740
11471611
11890738
12324440
12773017
13236742
13715859
14210569
14721018
15247278
15789330
16347027
16922352
17510266
18112161
18708174
19321508
19954893
20594108
21218196
21854092
22488546
23110431
23712772
24287599
24825964
25318005
25753061
26119862
26406782
26602167
26694724
26673952
26530556
26256657
25856601
25324386
6536115.7
6805199.9
7082718.3
7369173
7665092.7
7970978
8287304.7
8614526.4
8953076.5
9303369.8
9665802.9
10040756
10428591
10829657
11244285
11672791
12115469
12572594
13044413
13531135
14032925
14549889
15082055
15629350
16193689
16770558
17361386
17965284
18562330
19176343
19808390
20444999
21065549
21697579
22325839
22940153
23533513
24097964
24624612
25103695
25524703
25876570
26147935
26327467
26404249
26368209
26210522
25923927
25514106
24972575
6145051.8
6425475.7
6714413.4
7012318.9
7319678.2
7636954.6
7964590
8303006.7
8652609.3
9013784.5
9386902.1
9772315.4
10170361
10581360
11005616
11443414
11895019
12360672
12840583
13334922
13843811
14367307
14905385
15457916
16026654
16607218
17200872
17806656
18404600
19019128
19649506
20282970
20899605
21527311
22148880
22755038
23338761
23892119
24406287
24871617
25277764
25613886
25868907
26031838
26092167
26040284
25867893
25568378
25148345
24597455
5755070.8
6044984.3
6343684.6
6651565.5
6969058.4
7296576.9
7634517.1
7983258.6
8343164.9
8714584
9097847.9
9493272.8
9901159.1
10321791
10755433
11202335
11662721
12136790
12624707
13126596
13642526
14172499
14716428
15275950
15847161
16431295
17027624
17635117
18233786
18848656
19477032
20106478
20718881
21341805
21956138
22553502
23126883
23668391
24169285
24620043
25010506
25330073
25567972
25713582
25756822
25688574
25501114
25188480
24758025
24197862
5368213.1
5665602.4
5972235.7
6288438.7
6614578.9
6951011.1
7298075.6
7656098.6
8025392.7
8406256.2
8798973.2
9203813.1
9621029.4
10050860
10493524
10949221
11418128
11900394
12396130
12905404
13428225
13964532
14514168
15078593
15654027
16241528
16840293
17449235
18048398
18663475
19289775
19913282
20521590
21139280
21745757
22333620
22895895
23424750
23911539
24346884
24720826
25023030
25243049
25370656
25396221
25311144
25108312
24782457
24341543
23772332
4986468.3
5289181.5
5601763.9
5924469.7
6257598.2
6601439
6956268.8
7322352.3
7699942.1
8089278.2
8490587.5
8904082.6
9329961.5
9768405.6
10219579
10683624
11160660
11650775
12154019
12670397
13199848
13742237
14298870
14866398
15445776
16036333
16637188
17247193
17846498
18461694
19087561
19699164
20305687
20917531
21515408
22092974
22643311
23158657
23630469
24049532
24406106
24690143
24891549
25000511
25007874
24905571
24687135
24348143
23896879
23318972
4611720.7
4917495.1
5233908.6
5561146.5
5899440
6249010.6
6610067.2
6982806.9
7367415.6
7764067.6
8172924.7
8594134.9
9027831.5
9474131.7
9933134.1
10404916
10889528
11386992
11897287
12420341
12956019
13505458
14065709
14637591
15220507
15813683
16416141
17026653
17625451
18239710
18862261
19466720
20069452
20673726
21262078
21828447
22365935
22866848
23322762
23724638
24062980
24328049
24510132
24599857
24588560
24468703
24234490
23882803
23421384
22835234
4245691.6
4552181.3
4870194.1
5199855.8
5541335
5894786.6
6260349.7
6638150.8
7028305
7430915.5
7846073.3
8273855.1
8714322.7
9167520.2
9633473.7
10112186
10603632
11107756
11624456
12153580
12696081
13249381
13814150
14389834
14975719
15570913
16174323
16784624
17382130
17994468
18612588
19210745
19808524
20403924
20981753
21535921
22059552
22545024
22984050
23367787
23687005
23932302
24094372
24164314
24133976
23996332
23746136
23382865
22911368
22317560
3889879.9
4194681.7
4511965.1
4841816.4
5184352.9
5539666.9
5907829.5
6288895.9
6682909.2
7089899.2
7509882.4
7942859.7
8388815.4
8847715.4
9319504.6
9804103.9
10301405
10811265
11333496
11868855
12415099
12972742
13541258
14119975
14708051
15304454
15907956
16517123
17112407
17721800
18334518
18925917
19517493
20102870
20669038
21209861
21718491
22187398
22608449
22973022
23272179
23496885
23638268
23687927
23638260
23482774
23216226
22843862
22360879
21760794
3545503.5
3846180.6
4160317.1
4488004.5
4829323.6
5184309
5552966.5
5935283.6
6331232.8
6740771.7
7163841.3
7600364.6
8050245.3
8513365.6
8989584.5
9478734.4
9980616.1
10495760
11022418
11560944
12110919
12671825
13243022
13823716
14412922
15009446
15611894
16218718
16810608
17415812
18021892
18605481
19189359
19763415
20316584
20842716
21335013
21786062
22187909
22532183
22810271
23013531
23133560
23162486
23093293
22920126
22638494
22255388
21762545
21157886
3215563.7
3507557.4
3816022.5
4139073.3
4476752
4829034.3
5195865.6
5577171.9
5972861.9
6382824.8
6806929
7245020.1
7696919.7
8162424.5
8641303.7
9133296.1
9638728.2
10156081
10685529
11226619
11778824
12341513
12913931
13495153
14084048
14679233
15279088
15881918
16468900
17068305
17666050
18240321
18814669
19375787
19914308
20424103
20898460
21330111
21711316
22033992
22289882
22470779
22568778
22576578
22487793
22297266
22001310
21607809
21106516
20498986
2901532
3180766.1
3479430.1
3795264.4
4126731.1
4473733.6
4836168.5
5213914.5
5606827
6014735.6
6437441.4
6874716.4
7326302.4
7792299.3
8271656.3
8764358.7
9270009.2
9788164.6
10318327
10859933
11412337
11974794
12546427
13126192
13712812
14304701
14899910
15496351
16076496
16668022
17254987
17817978
18380513
18926591
19448349
19939725
20394133
20804490
21163313
21462841
21695221
21852720
21927977
21914297
21805965
21598565
21289209
20886396
20378453
19770145
2594793.2
2868542.2
3150988
3456402.9
3778954.3
4117879.8
4473069.2
4844378.6
5231627.3
5634596.6
6053029.9
6486632
6935069.6
7397970.5
7874922.7
8365471.9
8869118
9385309.1
9913433.7
10452810
11002673
11562154
12130258
12705829
13287487
13873504
14461527
15047498
15618687
16199859
16772011
17321564
17869349
18397566
18899771
19370024
19801909
20188574
20522836
20797309
21004594
21137481
21189202
21153707
21025984
20802408
20481000
20070481
19558213
18951846
2300655.1
2561865.5
2832759.9
3121717.2
3432387.5
3760087.6
4104770
4466293.8
4844457.2
5239006.5
5649638
6075999.3
6517689.7
6974260.4
7445214.1
7930002.6
8428024.2
8938618
9461057
9994538.3
10538171
11090959
11651787
12219395
12792366
13369157
13948407
14514037
15075951
15645164
16192926
16728799
17257638
17764172
18243114
18688697
19094719
19454609
19761538
20008560
20188785
20295594
20322864
20265235
20118411
19879572
19548345
19132079
18618488
18017636
2017373.7
2260999
2521553
2793380.1
3085873.9
3398781.7
3729268.2
4077171.6
4442274.6
4824300.4
5222912
5637712.1
6068244.3
6513993
6974383.4
7448780
7936484
8436728.8
8948673.5
9471394
10003872
10544980
11093470
11647954
12206893
12768610
13331320
13877639
14423099
14971598
15495744
16011058
16514623
16994372
17445174
17861461
18237295
18566451
18842525
19059081
19209822
19288785
19290566
19210542
19045092
18791638
18455836
18034647
17523997
16933393
1538070.7
1744954.3
1969090.8
2210571.1
2469339.4
2738757.8
3031880.5
3344027.8
3673903.9
4021297.9
4385928.5
4767442.3
5165413.7
5579345.2
6008667.9
6452741.5
6910853.5
7382217.4
7865968.5
8361158.5
8866747.3
9381593
9904438.7
10433899
10968446
11506390
12045870
12584824
13106438
13628047
14148220
14643369
15130639
15602042
16048444
16464847
16845931
17186097
17479549
17720400
17902818
18021186
18070291
18045522
17943076
17760184
17495282
17155527
16734146
16232420
15658493
1299186.6
1482670.9
1684844.2
1904374.6
2141968.5
2390546.3
2657556.7
2946715.8
3253545.9
3577858.2
3919385.3
4277776.6
4652596.5
5043324.1
5449353.9
5869996.2
6304476.8
6751935.3
7211422.7
7681896.4
8162212.9
8651119
9147239.9
9649065.6
10154935
10663017
11171292
11677543
12166109
12654630
13137392
13595394
14045480
14476350
14881302
15255590
15594248
15892122
16143954
16344490
16488611
16571489
16588757
16536681
16412350
16213938
15941402
15601310
15185670
14700058
14151161
1073307
1230502
1407779.3
1601738
1812405.8
2039423.5
2277130.1
2536253.4
2814491.9
3109699.7
3421642.8
3749992.2
4094320.8
4454103.6
4828717.9
5217444.1
5619466.3
6033871
6459645.5
6895674.4
7340733.3
7793481.9
8252453.3
8716041.9
9182484.7
9649834.6
10115925
10578389
11023465
11467813
11901786
12312995
12715122
13095578
13449634
13772940
14061012
14309273
14513136
14668106
14769903
14814603
14798781
14719652
14575194
14364145
14091323
13755610
13353957
12893871
12380724
857629.79
990251.74
1139299.9
1304967
1486103
1683306.8
1891074.8
2114472.3
2358356.8
2618107.7
2893545.5
3184377.3
3490200.6
3810504.3
4144669.4
4491970.3
4851574.6
5222543.6
5603830.9
5994280.4
6392622
6797466.8
7207300.5
7620474.1
8035188.2
8449451.3
8860939.9
9266479
9656632.5
10045625
10415259
10771541
11113607
11433177
11726564
11989972
12219546
12411425
12561832
12667159
12724087
12729692
12681571
12577953
12417866
12201510
11933990
11611002
11235743
10813451
10349379
656193.54
763780
883173.82
1018259.6
1166768.7
1328979.2
1504724.1
1689820.5
1892460.6
2110777.2
2343108.7
2589194.2
2848664.9
3121040.3
3405727.1
3702020.4
4009103.4
4326048.6
4651817.1
4985257.2
5325103.3
5669973.3
6018367.3
6368667.7
6719149.4
7068018.9
7413549.8
7746255.8
8071479.7
8391228.3
8690962.3
8979404.6
9250930
9500653.6
9725480.4
9922289.5
10087986
10219560
10314157
10369165
10382295
10351679
10275941
10154263
9986508.7
9776474
9522986.8
9226240.4
8891053.8
8521121.6
8121266.5
473215.95
556230.44
646906.04
749752.53
864332.15
990295.34
1128058.9
1274000.7
1432086.7
1604648.9
1788905.8
1984652.7
2191568.7
2409220.4
2637064.1
2874446.2
3120603.9
3374665.6
3635651.9
3902476.3
4173944.3
4448754.3
4725497.2
5002656.5
5278609.8
5551634.8
5819935
6075700.6
6325830.9
6566826.1
6790733.6
7003719.8
7199459.5
7375308.6
7528878.5
7657838.8
7759958.9
7833158.9
7875567.5
7885583.7
7861940.1
7803763.4
7710609.7
7582451
7421576.4
7228812.1
7003423.5
6749337.2
6469344.2
6166741.5
5845609
316154.56
374364.94
438464.89
510633.26
592111.81
682123.89
780860.85
888233.36
1001916.6
1127028.4
1261518.7
1404799
1556586
1716505.9
1884088.7
2058767
2239875.6
2426652.1
2618237.8
2813680.9
3011937.7
3211875.2
3412272.9
3611823.6
3809125.5
4002647.9
4190586.5
4368403.4
4541117.3
4701421.9
4851408.5
4989354.9
5112306.4
5218606.1
5306660
5374975.3
5422198.2
5447153.3
5448882.7
5426685
5380147.1
5309180.7
5214002.3
5096455.1
4956788
4795372.8
4614886.6
4417376.2
4205189.4
3980929
3747651.3
190590.05
226986.91
268217.99
313624.97
365533.96
423291.16
486995.43
556778.75
630771.55
711946.21
799857.07
893709.3
993281.77
1098279.9
1208333
1322992.9
1441733.3
1563951.2
1688968.5
1816035.3
1944333.3
2072980.6
2201037.3
2327513.2
2451383.9
2571635.7
2685018.3
2793020
2894959.1
2987224.4
3071721.7
3146075.1
3209114.2
3259877.2
3297497
3321223.4
3330446
3324717.2
3303771.4
3267544.5
3216156.4
3149988.8
3070503.4
2977456
2871956.8
2755528.9
2629601
2495725.3
2355555.3
2210821.5
2063453.2
100414.16
120257.51
142931.62
167984.23
196627.24
228754.21
264346
303494.08
345187.2
390724.64
440346.55
493379.81
549671.35
609016.49
671157.72
735784.4
802533.32
870989.74
940690.03
1011124.8
1081743.1
1151956.8
1221145.8
1288662.6
1353828.6
1415903.4
1473322.3
1527165.9
1575500.7
1618649.2
1655910.1
1686474.5
1709861.5
1725661.1
1733545.5
1733281.3
1724739.4
1707906.2
1682881.2
1649922.9
1609255.9
1561950.8
1507713.9
1447632.5
1382443
1312994.1
1240177.4
1164907.8
1088103.8
1010674.5
933581.95
44365.225
53363.829
63698.325
75184.657
88298.748
103101.2
119550.61
137690.42
157086.2
178178.07
201246.65
225894.34
252030.1
279534.14
308257.04
338019.85
368615.22
399808.76
431340.9
462929.71
494274.24
525058.35
554955.77
583637.2
610782.93
635661.85
658497.49
678703.29
696161.58
710778
722132.17
730039.2
734355.52
734983.91
731877.88
725045.39
714548.96
700520.65
683089.79
662715.85
639346.03
613440.32
585349.8
555459.4
524167.85
491883.45
459012.26
425948.07
393063.42
360705.43
329221.6
15606.85
18817.558
22515.392
26645.203
31350.003
36679.308
42608.812
49152.274
56165.467
63762.601
72067.962
80922.506
90282.905
100093.95
110288.07
120785.59
131495.34
142315.95
153136.92
163840.15
174301.84
184394.39
193988.41
202954.59
211164.79
218404.66
224759.87
229981.49
234112.5
237041.73
238706.32
239073.88
238132.29
235890.11
232376.59
227644.67
221751.55
214855.01
206971.62
198237.69
188796.85
178784.66
168341.76
157609.82
146727.75
135828.61
125036.63
114464.58
104211.81
94364.017
85001.336
4096.6959
4936.3899
5903.2479
6985.4065
8213.896
9604.5169
11149.277
12850.319
14672.953
16639.779
18777.321
21044.858
23427.518
25907.075
28461.8
31066.662
33693.645
36312.208
38889.85
41392.657
43786.011
46035.285
48106.511
49967.128
51570.087
52918.128
53971.47
54726.236
55166.761
55282.219
55070.352
54534.57
53683.934
52533.308
51100.155
49423.123
47514.397
45404.237
43132.64
40733.441
38242.47
35694.957
33124.883
30564.228
28042.315
25585.285
23215.702
20952.295
18809.862
16799.53
14930.563
740.01022
886.93558
1055.2659
1243.2573
1455.3151
1693.7921
1957.127
2245.1897
2552.4518
2882.0619
3236.0668
3608.1255
3995.0234
4392.9423
4797.4911
5203.7688
5606.4527
5999.9047
6378.3078
6735.7999
7066.6266
7365.2849
7626.6064
7843.903
8016.3935
8139.673
8212.5625
8233.8153
8202.7784
8120.1945
7987.7495
7807.9826
7584.2076
7322.2945
7025.6325
6698.3738
6347.4498
5978.2876
5596.6869
5208.2281
4818.2266
4431.6005
4052.777
3685.623
3333.3997
2998.7418
2683.6579
2389.5501
2117.253
1867.1102
1639.2217
83.133534
98.392045
115.65776
134.76461
156.05668
179.65593
205.38711
233.16447
262.47585
293.54907
326.29393
360.16988
394.79868
429.752
464.55826
498.71212
531.68611
562.94392
591.95511
618.21136
641.24299
660.63513
675.88265
686.84814
693.38209
695.28995
692.60612
685.38842
673.80421
658.10316
638.61333
615.69781
589.97804
561.65083
531.36426
499.60351
466.88336
433.69028
400.48306
367.6806
335.65493
304.7259
275.15825
247.16095
220.88839
196.44328
173.88079
153.21359
134.41763
117.43993
102.21569
5.1012069
5.8972608
6.7768017
7.7308061
8.7700174
9.8926809
11.088787
12.350006
13.653644
15.004333
16.387307
17.780859
19.166011
20.52248
21.829135
23.064541
24.207539
25.23784
26.136662
26.887319
27.475741
27.890867
28.123362
28.172818
28.038821
27.724173
27.235943
26.585049
25.785073
24.851491
23.807442
22.664238
21.445499
20.170905
18.86066
17.533772
16.208101
14.899865
13.623388
12.390948
11.212648
10.096435
9.0481533
8.0716587
7.1690028
6.3406374
5.5856249
4.9018781
4.2864031
3.7355409