/*--------------------------------*- C++ -*----------------------------------*\
| =========                 |                                                 |
| \\      /  F ield         | OpenFOAM: The Open Source CFD Toolbox           |
|  \\    /   O peration     | Version:  2312                                  |
|   \\  /    A nd           | Website:  www.openfoam.com                      |
|    \\/     M anipulation  |                                                 |
\*---------------------------------------------------------------------------*/
FoamFile
{
    version     2.0;
    format      ascii;
    arch        "LSB;label=32;scalar=64";
    class       volScalarField;
    location    "0.03";
    object      T;
}
// * * * * * * * * * * * * * * * * * * * * * * * * * * * * * * * * * * * * * //

dimensions      [0 0 0 1 0 0 0];

internalField   nonuniform List<scalar> 
3250
(
619.48583
620.1411
620.92783
621.83526
622.84789
623.96266
625.17642
626.48595
627.88795
629.37903
630.95572
632.61442
634.35148
636.16312
638.04545
639.9945
642.00617
644.07626
646.20048
648.37443
650.59366
652.8536
655.14956
657.47651
659.82802
662.19226
664.54183
666.85663
669.24534
671.63535
674.01607
676.31609
678.64924
680.96524
683.24829
685.49163
687.68837
689.8316
691.91451
693.93026
695.8721
697.73324
699.507
701.18657
702.76267
704.22747
705.57656
706.80352
707.88518
619.45828
620.11507
620.90365
621.81224
622.82596
623.94173
625.15642
626.46681
627.86959
629.3614
630.93874
632.59805
634.33565
636.14779
638.03057
639.98003
641.99206
644.06249
646.187
648.36123
650.5807
652.84086
655.137
657.46407
659.81554
662.17987
664.53019
666.84498
669.23351
671.62358
674.00442
676.30456
678.63778
680.95385
683.23698
685.48039
687.6772
689.82053
691.90351
693.91936
695.86128
697.72247
699.49616
701.17526
702.75135
704.217
705.5666
706.79422
707.87565
619.40695
620.06676
620.85915
621.77024
622.78628
623.90421
625.1209
626.43314
627.83764
629.33102
630.90981
632.57045
634.30928
636.12253
638.00633
639.9567
641.96957
644.04074
646.16593
648.34076
650.56076
652.82138
655.11793
657.44531
659.79697
662.16162
664.51238
666.82727
669.21575
671.60588
673.9868
676.28697
678.62021
680.93627
683.21935
685.46269
687.65942
689.80264
691.88551
693.90122
695.84297
697.70395
699.47732
701.15591
702.73181
704.19776
705.54752
706.77522
707.85625
619.33198
619.99634
620.79444
621.70937
622.72897
623.85021
625.06998
626.38507
627.79221
629.28802
630.86906
632.53176
634.27248
636.08746
637.97284
639.92464
641.9388
644.01114
646.13738
648.31314
650.53397
652.79531
655.09248
657.42037
659.77242
662.1375
664.48865
666.80369
669.19222
671.58241
673.96334
676.26348
678.59667
680.91262
683.19553
685.43867
687.63515
689.77808
691.86063
693.87598
695.81733
697.67785
699.45066
701.1286
702.7041
704.16994
705.51949
706.74676
707.82718
619.23336
619.90398
620.70963
621.62971
622.65411
623.77982
625.00373
626.32267
627.73338
629.23249
630.81656
632.48206
634.22534
636.04266
637.93018
639.88393
641.89985
643.97377
646.10143
648.27845
650.50039
652.76271
655.06071
657.38931
659.74193
662.10754
664.45909
666.77436
669.16298
671.55323
673.93411
676.23414
678.56723
680.88297
683.16561
685.4084
687.60446
689.74693
691.82895
693.84372
695.78443
697.64425
699.41627
701.0934
702.66825
704.13364
705.48263
706.70893
707.78855
619.11795
619.79642
620.61081
621.53699
622.56707
623.69807
624.92691
626.25041
627.66534
629.16836
630.75604
632.42486
634.17119
635.9913
637.88136
639.83742
641.85543
643.93124
646.06059
648.23911
650.46237
652.72584
655.02484
657.35428
659.70758
662.07379
664.42579
666.74131
669.13007
671.52035
673.90114
676.20099
678.53394
680.84938
683.13165
685.37399
687.56951
689.71136
691.79269
693.8067
695.74659
697.60552
699.3766
701.05275
702.62677
704.09145
705.43963
706.66447
707.74312
618.98876
619.67697
620.50087
621.43389
622.47036
623.60731
624.84167
626.17031
627.59
629.09741
630.68915
632.3617
634.11146
635.93471
637.82764
639.78631
641.80668
643.88461
646.01585
648.19606
650.42081
652.68558
654.98569
657.31608
659.67016
662.03701
664.38951
666.70532
669.09424
671.48453
673.86519
676.1648
678.49757
680.81266
683.09448
685.33628
687.53116
689.67227
691.75279
693.76592
695.70484
697.56274
699.33272
701.00778
702.58079
704.0446
705.3918
706.61471
707.6923
618.83495
619.53664
620.37123
621.31237
622.35643
623.50045
624.74139
626.07612
627.50146
629.01411
630.61067
632.28766
634.0415
635.86849
637.76483
639.7266
641.74978
643.83024
645.96374
648.14596
650.37248
652.63878
654.94022
657.27172
659.62674
661.99434
664.34741
666.66356
669.05269
671.44297
673.82344
676.12273
678.45528
680.76993
683.0512
685.29232
687.48641
689.62662
691.70614
693.71816
695.65591
697.51254
699.28121
700.95494
702.52672
703.98943
705.33549
706.55569
707.63211
618.65732
619.37476
620.22044
621.17113
622.22407
623.37636
624.62498
625.96686
627.39881
628.91757
630.51978
632.20198
633.9606
635.79196
637.69229
639.65769
641.68416
643.76758
645.90373
648.0883
650.31688
652.58499
654.88797
657.22078
659.57689
661.94536
664.29908
666.61565
669.00502
671.39528
673.77549
676.07438
678.40666
680.72076
683.00137
685.24167
687.43481
689.57393
691.65224
693.66295
695.59928
697.45442
699.22151
700.89367
702.46394
703.92534
705.27022
706.48663
707.56188
618.45412
619.18935
620.04708
621.00881
622.07201
623.23385
624.49135
625.84147
627.28107
628.8069
630.41564
632.10385
633.86799
635.70441
637.60936
639.57896
641.60923
643.69606
645.83528
648.02256
650.25354
652.52372
654.82849
657.16281
659.52017
661.88964
664.24411
666.56116
668.95081
671.34102
673.7209
676.0193
678.35125
680.66473
682.94454
685.18388
687.37588
689.51372
691.5906
693.59977
695.53443
697.3878
699.15306
700.82335
702.39183
703.85166
705.19554
706.40663
707.48096
618.22364
618.97849
619.84968
620.82399
621.89892
623.07167
624.33933
625.69888
627.14722
628.68114
630.29735
631.99243
633.76289
635.6051
637.51533
639.48974
641.52436
643.61511
645.75782
647.94822
650.18193
652.45449
654.7613
657.09734
659.45614
661.82674
664.18203
666.49965
668.88964
671.27977
673.65923
675.95704
678.28862
680.60135
682.88024
685.11845
687.30913
689.44547
691.5207
693.52806
695.46079
697.31211
699.07524
700.74336
702.30971
703.76764
705.11095
706.31475
707.38873
617.96422
618.74032
619.62664
620.61518
621.7034
622.88854
624.16771
625.53796
626.9962
628.53929
630.16397
631.86685
633.64448
635.49326
637.40949
639.38934
641.4289
643.52409
645.67078
647.8647
650.10151
652.37676
654.68588
657.02388
659.38431
661.75621
664.11238
666.43066
668.82106
671.21107
673.59001
675.88711
678.21827
680.53015
682.80798
685.04489
687.23404
689.36865
691.44196
693.44725
695.37776
697.22673
698.98741
700.65302
702.21687
703.67241
705.01363
706.21234
707.28456
617.67455
618.47296
619.37628
620.38084
621.48402
622.68309
623.97522
625.3575
626.82691
628.38032
630.01453
631.7262
633.5119
635.36808
637.29106
639.27706
641.32217
643.42237
645.57353
647.77142
650.01171
652.29
654.60172
656.94192
659.30421
661.67758
664.03462
666.35368
668.74458
671.13445
673.51273
675.80901
678.1397
680.45061
682.72722
684.96265
687.15005
689.28268
691.35381
693.35673
695.28471
697.13101
698.88889
700.55162
702.11257
703.56523
704.9035
706.09792
707.16763
617.35413
618.17432
619.09687
620.11936
621.23926
622.45392
623.76055
625.15629
626.63818
628.20315
629.84802
631.56953
633.36426
635.22871
637.15925
639.15212
641.20345
643.30925
645.46542
647.66775
649.91195
652.19363
654.50825
656.85093
659.21533
661.59044
663.94815
666.26817
668.65971
671.04941
673.42685
675.7222
678.05236
680.3622
682.63743
684.87116
687.05659
689.18697
691.25563
693.25587
695.18099
697.02426
698.77897
700.43843
701.99604
703.44531
704.78005
705.97034
707.03702
616.99946
617.84268
618.78661
619.82905
620.96757
622.19956
623.52232
624.93304
626.42882
628.00664
629.66338
631.39582
633.20061
635.07428
637.01323
639.01375
641.07201
643.18404
645.34579
647.55306
649.8016
652.08705
654.40491
656.75035
659.11718
661.49444
663.85221
666.17355
668.56594
670.95543
673.3318
675.6261
677.95571
680.26434
682.53803
684.76984
686.95302
689.08088
691.14676
693.14399
695.06588
696.90575
698.65689
700.31267
701.86648
703.31188
704.64259
705.82855
706.89178
616.60773
617.47611
618.44366
619.50818
620.66731
621.91849
623.25911
624.68641
626.19756
627.78962
629.45951
631.20407
633.01999
634.90386
636.85213
638.86113
640.92706
643.046
645.21391
647.42666
649.68001
651.96963
654.29107
656.63959
659.00925
661.38957
663.74568
666.06917
668.4627
670.85199
673.22696
675.52009
677.84914
680.15645
682.42839
684.65806
686.83872
688.96374
691.0265
693.02036
694.93865
696.77471
698.52187
700.1735
701.72305
703.16407
704.49025
705.67154
706.73089
616.1763
617.07252
618.0661
619.15497
620.33681
621.60915
622.96945
624.41503
625.94313
627.55087
629.23526
630.99317
632.82137
634.71649
636.67504
638.69339
640.76778
642.89433
645.06906
647.28784
649.54649
651.8407
654.16609
656.51801
658.89095
661.2765
663.62655
665.95447
668.34947
670.73856
673.11162
675.40352
677.73202
680.03789
682.30788
684.53514
686.71299
688.83484
690.89413
692.88423
694.79851
696.63033
698.37304
700.02006
701.56485
703.00097
704.32212
705.4983
706.55329
615.70315
616.62981
617.65197
618.76757
619.97434
621.26991
622.65181
624.11746
625.66417
627.28914
628.98944
630.76202
632.60371
634.51119
636.48103
638.50964
640.59333
642.72825
644.91045
647.13586
649.40033
651.69958
654.02929
656.38491
658.76129
661.15046
663.49836
665.82921
668.22573
670.61465
672.98501
675.27568
677.60372
679.90801
682.17583
684.40039
686.5751
688.69344
690.74886
692.7348
694.64463
696.47175
698.20954
699.85144
701.39094
702.82163
704.1372
705.30776
706.35791
615.18582
616.14574
617.19922
618.34408
619.57813
620.89911
622.30464
623.79223
625.3593
627.00311
628.72082
630.50946
632.3659
634.28691
636.26911
638.30896
640.40282
642.5469
644.73728
646.96995
649.24077
651.54554
653.87996
656.2396
658.61962
661.01253
663.35868
665.69265
668.09088
670.47987
672.84615
675.13585
677.46355
679.76613
682.03152
684.25307
686.4243
688.53874
690.5899
692.57123
694.47615
696.29808
698.03043
699.66667
701.20032
702.62501
703.93444
705.09882
706.14358
613.71764
614.62138
615.6181
616.70581
617.88259
619.14638
620.49504
621.92633
623.43785
625.0271
626.69146
628.42816
630.23429
632.10683
634.0426
636.03826
638.09038
640.19533
642.3494
644.54871
646.78929
649.06705
651.37782
653.71736
656.08135
658.46531
660.86438
663.20441
665.54394
667.94429
670.33402
672.69378
674.98328
677.31087
679.61153
681.87419
684.0924
686.25978
688.36992
690.41638
692.39264
694.29216
696.10837
697.83473
699.46474
700.99195
702.41003
703.71271
704.87032
705.90912
613.06062
614.008
615.04475
616.16968
617.38113
618.67723
620.05598
621.51524
623.05275
624.66612
626.3528
628.11013
629.9353
631.82533
633.77714
635.78746
637.8529
639.96993
642.13485
644.34387
646.59304
648.87834
651.19563
653.54073
655.90939
658.29733
660.70027
663.03978
665.38266
667.78525
670.17741
672.52602
674.81729
677.14498
679.44347
681.70308
683.91757
686.0807
688.18611
690.2274
692.19809
694.09168
695.90162
697.62141
699.24458
700.76473
702.17556
703.47085
704.62107
705.6533
612.34982
613.34357
614.42354
615.58876
616.83775
618.16883
619.58015
621.06971
622.63537
624.27486
625.98574
627.76543
629.61121
631.52021
633.48941
635.51561
637.59551
639.72562
641.90232
644.12185
646.38035
648.67381
650.99816
653.34927
655.72293
658.11498
660.52127
662.86214
665.20783
667.61269
670.01109
672.34001
674.63765
676.96526
679.26118
681.51733
683.72772
685.88616
687.98639
690.02202
691.98663
693.87372
695.6768
697.3894
699.00508
700.5175
701.9204
703.20762
704.34981
705.37485
611.58244
612.62577
613.7523
614.96097
616.25047
617.6193
619.06578
620.58806
622.18413
623.85182
625.58883
627.39269
629.26075
631.19025
633.17824
635.22162
637.31714
639.4614
641.65082
643.88173
646.1503
648.45258
650.78456
653.14214
655.52118
657.91756
660.3272
662.67005
665.01841
667.42487
669.82444
672.14477
674.4446
676.77099
679.0638
681.31608
683.52193
685.67525
687.7698
689.79926
691.75721
693.63721
695.43281
697.13756
698.74508
700.24906
701.6433
702.92172
704.05523
705.07247
609.73878
610.75529
611.85226
613.02885
614.28423
615.6173
617.02676
618.51109
620.06859
621.6974
623.39548
625.16065
626.99053
628.88262
630.83421
632.84246
634.90436
637.01672
639.17623
641.37938
643.62254
645.90196
648.21376
650.55395
652.91849
655.30329
657.70428
660.1174
662.46251
664.81353
667.22105
669.62023
671.93611
674.23697
676.56122
678.85041
681.09838
683.29926
685.44698
687.53534
689.55806
691.50877
693.38106
695.1685
696.86471
698.46334
699.95812
701.34293
702.6118
703.73593
704.74489
608.78815
609.86642
611.02083
612.25104
613.55649
614.93629
616.38933
617.91428
619.5096
621.17357
622.9043
624.69971
626.55758
628.47547
630.45082
632.48086
634.56266
636.69314
638.86905
641.08695
643.3433
645.63439
647.9564
650.30541
652.67742
655.06839
657.47429
659.89109
662.23861
664.59235
667.00064
669.39895
671.7119
674.01352
676.33487
678.62003
680.86326
683.0587
685.20032
687.28196
689.29736
691.2402
693.1041
694.88269
696.56962
698.15858
699.64337
701.01792
702.27639
703.39043
704.39093
607.77002
608.9137
610.12933
611.41679
612.77573
614.2055
615.70517
617.27359
618.9094
620.61103
622.37673
624.20456
626.09241
628.03799
630.0388
632.0922
634.19536
636.34527
638.53877
640.7725
643.04299
645.34659
647.67955
650.03801
652.41801
654.81557
657.2267
659.6474
661.99745
664.35403
666.76295
669.16021
671.47073
673.77303
676.09086
678.37162
680.60968
682.79921
684.9342
687.00854
689.016
690.95031
692.80513
694.57413
696.251
697.82948
699.30342
700.66681
701.91392
703.01696
606.68191
607.89496
609.17566
610.52404
611.93997
613.42301
614.97243
616.58726
618.2663
620.00816
621.81123
623.67372
625.59364
627.5688
629.59686
631.67526
633.80126
635.97196
638.18428
640.43495
642.72056
645.03754
647.38221
649.75076
652.1393
654.54389
656.96057
659.3854
661.73812
664.09771
666.50715
668.90325
671.21142
673.51428
675.82816
678.10413
680.33657
682.51968
684.64749
686.71393
688.7128
690.63788
692.48287
694.24149
695.90749
697.47465
698.93684
700.28809
701.5227
702.61278
605.52151
606.80805
608.15775
609.57081
611.04731
612.58699
614.18934
615.85357
617.57866
619.36338
621.20628
623.10572
625.05983
627.06657
629.12369
631.22876
633.37915
635.57204
637.80444
640.07318
642.37493
644.7062
647.06336
649.44267
651.8403
654.25236
656.67494
659.10412
661.45965
663.82245
666.23229
668.62713
670.93289
673.23611
675.54567
677.81643
680.04278
682.21896
684.33901
686.39691
688.38651
690.30161
692.136
693.88343
695.5377
697.09264
698.54214
699.88024
701.10122
702.17756
604.2867
605.65096
607.07367
608.55522
610.09589
611.69565
613.35416
615.07084
616.84485
618.67512
620.56037
622.4991
624.48959
626.52993
628.61798
630.75144
632.92779
635.1443
637.3981
639.68608
642.00501
644.35148
646.72192
649.11267
651.51995
653.93994
656.36876
658.80253
661.16102
663.52726
665.93734
668.33081
670.634
672.93735
675.24223
677.50735
679.72713
681.89582
684.00751
686.05619
688.03579
689.94015
691.76311
693.4985
695.14015
696.68194
698.11778
699.44169
700.64796
701.70973
602.97559
604.42183
605.92158
607.47547
609.08397
610.74726
612.46522
614.23744
616.06328
617.94184
619.87201
621.85242
623.88151
625.95751
628.07841
630.24202
632.44593
634.68754
636.96405
639.27248
641.60965
643.97224
646.35678
648.75967
651.17718
653.60556
656.04096
658.47956
660.84116
663.21107
665.62118
668.01315
670.3136
672.61677
674.9166
677.17565
679.38836
681.54898
683.65165
685.69043
687.65926
689.55207
691.36274
693.08518
694.71328
696.24098
697.6622
698.97087
700.16115
701.20747
601.58644
603.11893
604.6998
606.32988
608.0099
609.74022
611.52092
613.35182
615.23243
617.16205
619.13971
621.16424
623.2342
625.34795
627.50364
629.69919
631.93231
634.2005
636.50108
638.83115
641.18765
643.56733
645.96679
648.3825
650.81083
653.24805
655.6904
658.13405
660.49891
662.87267
665.28269
667.67297
669.97044
672.27308
674.56748
676.82001
679.0251
681.17705
683.27004
685.29816
687.25543
689.13583
690.93332
692.64186
694.25546
695.7681
697.17376
698.4662
699.63877
700.66881
600.11777
601.74076
603.40679
605.11694
606.87213
608.67298
610.51975
612.41245
614.3508
616.33426
618.36205
620.43314
622.54625
624.69988
626.89232
629.12161
631.38559
633.68189
636.0079
638.36085
640.73777
643.13548
645.55069
647.97994
650.41967
652.8662
655.31583
657.76478
660.13302
662.51081
664.92058
667.30892
669.60316
671.90488
674.19346
676.43898
678.6359
680.77856
682.86116
684.87785
686.82272
688.68981
690.47316
692.16683
693.76491
695.26152
696.65078
697.92637
699.07822
700.09167
598.56835
600.28601
602.04121
603.83524
605.66927
607.54412
609.46026
611.4179
613.41695
615.45706
617.53759
619.65769
621.81624
624.0119
626.24306
628.50792
630.80443
633.13034
635.48317
637.86023
640.25866
642.67538
645.10717
647.55066
650.00235
652.45866
654.91592
657.37039
659.74216
662.12411
664.53346
666.91955
669.21025
671.51064
673.79298
676.03101
678.21919
680.35188
682.42335
684.4278
686.35938
688.21223
689.98046
691.65823
693.23972
694.71925
696.09132
697.35128
698.4752
699.47417
596.93715
598.75358
600.60187
602.48356
604.40002
606.3523
608.34109
610.36678
612.42947
614.52899
616.66489
618.83646
621.04275
623.28254
625.55441
627.85665
630.18737
632.54441
634.92543
637.32785
639.74888
642.18556
644.63476
647.09318
649.55741
652.02394
654.48917
656.94938
659.32483
661.71107
664.11977
666.50319
668.79001
671.08863
673.36432
675.59436
677.7732
679.89523
681.95479
683.94614
685.86353
687.70115
689.45323
691.114
692.67777
694.13896
695.49226
696.73284
697.83346
698.81517
595.22342
597.14257
599.08776
601.06076
603.06318
605.09627
607.16091
609.25771
611.38695
613.54863
615.74247
617.96794
620.22423
622.51029
624.82481
627.16625
629.53283
631.92252
634.33309
636.76208
639.2068
641.66439
644.1318
646.60584
649.08316
651.56034
654.03385
656.50004
658.87932
661.27
663.67776
666.05788
668.34045
670.63687
672.90553
675.12706
677.29593
679.40658
681.45341
683.43077
685.33299
687.15438
688.88922
690.53186
692.0767
693.51827
694.85126
696.07067
697.14891
698.11166
593.4266
595.45224
597.498
599.56585
601.65763
603.77478
605.91841
608.0893
610.28792
612.51444
614.76877
617.05052
619.35904
621.69344
624.05255
626.43497
628.83903
631.26286
633.70433
636.16108
638.63055
641.10998
643.59639
646.08669
648.57763
651.06587
653.54796
656.02033
658.40363
660.79894
663.20546
665.58118
667.8592
670.15309
672.41434
674.62684
676.78507
678.88355
680.91679
682.87924
684.7653
686.56938
688.28587
689.90922
691.4339
692.85452
694.16582
695.36273
696.41818
697.36047
591.54628
593.68198
595.83178
597.99785
600.18223
602.38659
604.6122
606.86005
609.13079
611.42476
613.74203
616.08237
618.4453
620.83007
623.23564
625.66076
628.1039
630.56331
633.03697
635.52266
638.01791
640.52005
643.02623
645.53341
648.03845
650.53809
653.02901
655.50775
657.8953
660.29559
662.70076
665.06978
667.34334
669.63457
671.88808
674.09095
676.23782
678.32332
680.34206
682.2886
684.15746
685.94314
687.64014
689.243
690.74628
692.14466
693.43291
694.60604
695.63776
696.55809
589.58214
591.8312
594.08827
596.3557
598.63575
600.93025
603.24071
605.56826
607.91372
610.27762
612.66018
615.06134
617.48076
619.91782
622.37166
624.84115
627.32489
629.82126
632.32836
634.84409
637.36609
639.89179
642.41843
644.94307
647.46264
649.97398
652.4739
654.9591
657.35112
659.75705
662.16197
664.51834
666.78945
669.07813
671.32344
673.51601
675.65071
677.72233
679.72561
681.65523
683.5058
685.27195
686.94828
688.52942
690.01005
691.3849
692.64875
693.79669
694.80355
695.70041
587.53376
589.89917
592.26644
594.63812
597.01663
599.40403
601.80197
604.21176
606.6344
609.07057
611.52063
613.98469
616.46256
618.95376
621.45756
623.97298
626.49875
629.03337
631.57508
634.12188
636.67154
639.22157
641.76931
644.31191
646.84637
649.36962
651.87859
654.37018
656.76668
659.17921
661.59139
663.91467
666.19425
668.47991
670.71622
672.89762
675.01924
677.07603
679.06284
680.97445
682.80561
684.55105
686.20548
687.76368
689.22042
690.57047
691.80855
692.92964
693.9104
694.78231
585.40039
587.88477
590.36483
592.8433
595.3228
597.80554
600.29337
602.78773
605.28978
607.80035
610.31995
612.84883
615.38694
617.93396
620.48929
623.05207
625.62118
628.19524
630.77261
633.35141
635.92952
638.50456
641.07396
643.63493
646.18456
648.71983
651.23777
653.73543
656.13576
658.55291
660.96355
663.27363
665.55596
667.83447
670.06064
672.22989
674.33745
676.37837
678.34762
680.2401
682.05066
683.77415
685.40544
686.93941
688.37099
689.69505
690.90605
691.99802
692.95161
693.79716
583.18064
585.78616
588.38115
590.96855
593.55118
596.13141
598.71121
601.29219
603.87562
606.46247
609.05341
611.64882
614.24878
616.85311
619.46134
622.07275
624.68633
627.30085
629.91478
632.52637
635.13359
637.7342
640.32568
642.90535
645.47031
648.0176
650.54429
653.04757
655.45102
657.87147
660.27874
662.5811
664.86443
667.1337
669.34865
671.50471
673.59715
675.62111
677.57165
679.44378
681.23247
682.93272
684.53951
686.0479
687.45302
688.74994
689.93296
690.99223
691.91831
692.73608
580.87196
583.60022
586.31174
589.00971
591.69717
594.37661
597.05011
599.71939
602.38585
605.05057
607.71435
610.37771
613.04085
615.70373
618.366
621.02706
623.68606
626.34184
628.99304
631.638
634.27482
636.90136
639.51521
642.11372
644.69405
647.25322
649.78831
652.29661
654.70252
657.12538
659.5286
661.82447
664.10739
666.36635
668.56904
670.71082
672.787
674.79278
676.72334
678.5738
680.33927
682.01486
683.5957
685.07701
686.45412
687.72252
688.87815
689.89794
690.79919
691.58684
578.46988
581.32185
584.15075
586.96031
589.75376
592.53365
595.30213
598.06097
600.81167
603.55545
606.29321
609.02557
611.75289
614.47522
617.19236
619.90381
622.60884
625.30643
627.99532
630.67397
633.34062
635.99322
638.62947
641.24679
643.84235
646.4131
648.956
651.46847
653.87608
656.30049
658.69882
660.98803
663.26898
665.51673
667.70607
669.83237
671.89099
673.87723
675.78639
677.6137
679.35441
681.00376
682.55704
684.00958
685.35686
686.59452
687.71844
688.70429
689.57656
690.33167
575.98904
578.94295
581.88893
584.81032
587.7103
590.59131
593.45546
596.30458
599.14024
601.96376
604.77614
607.57812
610.37016
613.15243
615.92484
618.68701
621.43831
624.17786
626.90449
629.6168
632.31314
634.99158
637.64995
640.28574
642.89614
645.47794
648.02779
650.54305
652.95145
655.37634
657.76828
660.05005
662.32732
664.56277
666.73748
668.84686
670.88637
672.85145
674.73751
676.53994
678.25411
679.87542
681.39927
682.82115
684.13663
685.34143
686.4315
687.38332
688.22405
688.94472
573.43421
576.46605
579.51168
582.54438
585.55078
588.53289
591.49272
594.43215
597.35282
600.25611
603.14314
606.01475
608.87147
611.7136
614.54113
617.35381
620.1511
622.93223
625.69615
628.44158
631.16697
633.87055
636.55025
639.20374
641.82824
644.42037
646.97597
649.49125
651.89963
654.32385
656.7064
658.97976
661.25149
663.47321
665.63159
667.72217
669.7406
671.68246
673.54333
675.31873
677.00419
678.59524
680.08745
681.47643
682.75785
683.9275
684.98146
685.8976
686.70421
687.38842
570.68982
573.90547
577.00198
580.13924
583.25147
586.33383
589.38847
592.41735
595.4222
598.40448
601.36539
604.30582
607.22643
610.12758
613.00935
615.8716
618.71388
621.53552
624.33557
627.11287
629.86599
632.59327
635.29284
637.96253
640.59983
643.20144
645.76209
648.27002
650.67922
653.10255
655.46841
657.73385
659.99781
662.20359
664.34316
666.41238
668.40707
670.32301
672.15592
673.9015
675.55543
677.11342
678.57118
679.92446
681.16904
682.30069
683.31546
684.19351
684.96301
685.60825
567.78693
571.13866
574.36003
577.56164
580.77803
583.95847
587.10579
590.22212
593.30923
596.36864
599.40158
602.40903
605.39169
608.35
611.28414
614.19403
617.07932
619.93943
622.7735
625.58046
628.359
631.10759
633.82449
636.5078
639.15551
641.76581
644.33847
646.80974
649.23215
651.66086
653.98341
656.25323
658.50454
660.69067
662.80776
664.85194
666.8192
668.7055
670.50672
672.21871
673.83733
675.35844
676.77797
678.09187
679.29604
680.38617
681.35662
682.19379
682.92246
683.52538
564.66734
568.12138
571.51957
574.79985
578.08163
581.35562
584.59186
587.79214
590.95816
594.09142
597.19318
600.26444
603.30596
606.31824
609.30152
612.25579
615.18078
618.07598
620.94062
623.77372
626.57404
629.34015
632.07043
634.76312
637.41639
640.02852
642.59823
645.05471
647.47766
649.893
652.1915
654.4542
656.68344
658.84458
660.93401
662.94799
664.88266
666.73413
668.49842
670.17156
671.74958
673.22853
674.60457
675.87391
677.03298
678.07884
678.99245
679.78858
680.47091
681.0268
557.66604
561.27967
564.83767
568.3401
571.78713
575.10328
578.45206
581.77191
585.05093
588.29071
591.49273
594.65825
597.7883
600.88367
603.9449
606.97229
609.96587
612.92543
615.85053
618.74048
621.59434
624.41097
627.18901
629.92688
632.62289
635.27522
637.88199
640.44133
642.88293
645.2984
647.69098
649.96441
652.21103
654.41057
656.53947
658.59404
660.5706
662.4654
664.27469
665.99466
667.62151
669.15146
670.58077
671.90579
673.12295
674.22876
675.21994
676.07747
676.82315
677.45102
677.95295
553.86234
557.53702
561.19225
564.79338
568.34826
571.76171
575.14687
578.54269
581.89286
585.19886
588.46214
591.68395
594.86535
598.00714
601.10989
604.17392
607.1993
610.18589
613.13326
616.04078
618.90758
621.73256
624.51442
627.25163
629.94249
632.58513
635.17755
637.71767
640.13745
642.5355
644.89464
647.1356
649.35525
651.5156
653.60247
655.61218
657.54115
659.38581
661.14256
662.80777
664.37783
665.84918
667.21831
668.4818
669.63629
670.67825
671.60301
672.39683
673.08131
673.64481
674.08317
549.63462
553.3232
557.05606
560.73599
564.3579
567.91457
571.33081
574.76449
578.17511
581.53662
584.85047
588.11792
591.34005
594.51766
597.65131
600.74134
603.78784
606.79065
609.74942
612.66352
615.53213
618.3542
621.12847
623.85344
626.52742
629.1484
631.71408
634.22199
636.60906
638.97683
641.28519
643.48429
645.66256
647.77047
649.8016
651.75247
653.6197
655.3999
657.08966
658.68558
660.18425
661.58237
662.87669
664.06415
665.14186
666.10752
666.94501
667.66541
668.27426
668.75999
669.12165
544.74578
548.50201
552.26543
556.01022
559.69552
563.32744
566.81439
570.25324
573.7094
577.11146
580.46102
583.75936
587.00752
590.20627
593.35614
596.45744
599.51022
602.51436
605.46946
608.37494
611.23
614.03362
616.78458
619.48146
622.1226
624.70597
627.22837
629.68245
632.02342
634.35032
636.56766
638.72706
640.8409
642.87768
644.83414
646.70707
648.4933
650.18962
651.79285
653.29982
654.70741
656.01257
657.21238
658.30403
659.28461
660.15062
660.88956
661.51825
662.03005
662.4199
662.68743
539.0214
542.84902
546.61003
550.396
554.11736
557.774
561.35956
564.80144
568.25468
571.67671
575.04187
578.35121
581.60562
584.80576
587.95209
591.04483
594.084
597.06941
600.00065
602.87712
605.69803
608.46235
611.16894
613.81647
616.40362
618.92936
621.39399
623.74388
626.03041
628.28252
630.41265
632.49922
634.52103
636.46195
638.31895
640.089
641.76911
643.35633
644.8477
646.24035
647.53145
648.71832
649.79844
650.76952
651.62921
652.36532
652.98829
653.49907
653.89091
654.16248
654.31424
532.18863
536.10406
539.86059
543.62904
547.35981
551.02614
554.63245
558.09285
561.51072
564.92674
568.28136
571.5757
574.81051
577.98628
581.10329
584.16164
587.16125
590.10184
592.98294
595.80391
598.56392
601.26196
603.89683
606.46718
608.97153
611.40829
613.77601
616.02103
618.21921
620.3564
622.37774
624.35702
626.25649
628.07109
629.79796
631.43429
632.97735
634.42444
635.77294
637.02031
638.16411
639.20209
640.13222
640.95299
641.65539
642.24313
642.72133
643.08358
643.32891
643.45665
643.46815
524.0066
527.91761
531.67175
535.38628
539.09106
542.72732
546.29426
549.78534
553.13671
556.49973
559.81001
563.05636
566.23885
569.35762
572.41273
575.40411
578.33151
581.19454
583.99264
586.72508
589.39097
591.98926
594.51875
596.978
599.3653
601.67812
603.91141
606.02761
608.10365
610.06915
611.96688
613.79579
615.53781
617.19059
618.75165
620.21857
621.58894
622.86046
624.0309
625.09818
626.06038
626.91578
627.66308
628.29443
628.81531
629.22723
629.5261
629.71161
629.78348
629.74176
629.58883
514.11361
517.94812
521.70538
525.31685
528.94502
532.51107
536.00863
539.43788
542.71757
545.98414
549.2106
552.36915
555.45953
558.48162
561.43525
564.32014
567.13589
569.88198
572.55771
575.16226
577.69466
580.15384
582.53858
584.84763
587.07982
589.2348
591.27242
593.237
595.13546
596.91826
598.6411
600.27775
601.82332
603.27567
604.63272
605.89243
607.05285
608.11214
609.06859
609.92065
610.66718
611.30694
611.83322
612.2536
612.56601
612.76896
612.86251
612.84702
612.72296
612.49116
612.1551
502.16487
505.8814
509.53151
513.03
516.52624
519.97256
523.35019
526.65922
529.82331
532.94853
536.04382
539.06734
542.01872
544.89759
547.70357
550.43619
553.09486
555.67888
558.18742
560.61956
562.97425
565.25036
567.44664
569.56169
571.59364
573.53899
575.36766
577.13315
578.79133
580.37189
581.87079
583.27662
584.58774
585.80252
586.91936
587.93676
588.8533
589.6677
590.37889
590.98562
591.48847
591.88165
592.17241
592.3577
592.43798
592.41377
592.28597
592.05571
591.72427
591.29332
590.76733
487.80997
491.34458
494.8158
498.14565
501.45349
504.72078
507.91923
511.04842
514.04135
516.97552
519.88485
522.71942
525.47868
528.1621
530.76907
533.29889
535.75078
538.12388
540.41722
542.62978
544.76046
546.80813
548.77166
550.65012
552.4433
554.12295
555.72374
557.22419
558.6335
559.96533
561.20266
562.34442
563.38955
564.33696
565.18566
565.93475
566.5835
567.13108
567.57802
567.9201
568.16342
568.30547
568.34715
568.28934
568.13323
567.88028
567.53221
567.09097
566.55865
565.93766
565.23333
470.7526
474.03301
477.25296
480.34609
483.4026
486.4239
489.37716
492.26152
495.02078
497.71079
500.37371
502.96065
505.47075
507.90323
510.25725
512.5319
514.72619
516.8391
518.86959
520.81656
522.67887
524.45534
526.1447
527.74547
529.25573
530.65545
531.98044
533.19766
534.33426
535.38056
536.33251
537.18928
537.95025
538.61493
539.18297
539.65402
540.02865
540.30407
540.48483
540.57003
540.56049
540.45736
540.2621
539.97643
539.60233
539.14205
538.59806
537.97299
537.26959