/*--------------------------------*- C++ -*----------------------------------*\
| =========                 |                                                 |
| \\      /  F ield         | OpenFOAM: The Open Source CFD Toolbox           |
|  \\    /   O peration     | Version:  2312                                  |
|   \\  /    A nd           | Website:  www.openfoam.com                      |
|    \\/     M anipulation  |                                                 |
\*---------------------------------------------------------------------------*/
FoamFile
{
    version     2.0;
    format      ascii;
    arch        "LSB;label=32;scalar=64";
    class       volVectorField;
    location    "0.03";
    object      U;
}
// * * * * * * * * * * * * * * * * * * * * * * * * * * * * * * * * * * * * * //

dimensions      [0 1 -1 0 0 0 0];

internalField   nonuniform List<vector> 
3250
(
(3.5085658 0.0061749195 0)
(3.4414982 0.0059171676 0)
(3.3754664 0.005661405 0)
(3.3104184 0.0054099542 0)
(3.2463062 0.0051613533 0)
(3.1830789 0.00491562 0)
(3.1206963 0.0046725025 0)
(3.0591221 0.004431919 0)
(2.9983244 0.004193752 0)
(2.9382753 0.0039578174 0)
(2.8789506 0.0037241702 0)
(2.820329 0.0034926508 0)
(2.7623925 0.0032634741 0)
(2.7051259 0.0030365782 0)
(2.6485165 0.0028121961 0)
(2.5925542 0.0025904191 0)
(2.5372312 0.0023715793 0)
(2.4825418 0.0021558991 0)
(2.4284824 0.0019437991 0)
(2.3750508 0.0017355568 0)
(2.322246 0.0015315999 0)
(2.270066 0.0013318621 0)
(2.2185061 0.0011356453 0)
(2.1675395 0.00094041499 0)
(2.1171564 0.00074056943 0)
(2.0667372 0.00054340121 0)
(2.0176004 0.00030743916 0)
(1.9697569 0.00010949305 0)
(1.9218967 -7.2158506e-05 0)
(1.8746734 -0.00024263212 0)
(1.8280656 -0.00040513343 0)
(1.7820978 -0.00056387603 0)
(1.7368119 -0.00071957758 0)
(1.6922013 -0.00087235228 0)
(1.6482504 -0.0010212619 0)
(1.6049549 -0.0011656192 0)
(1.5623182 -0.0013051241 0)
(1.5203442 -0.0014394252 0)
(1.4790356 -0.001568512 0)
(1.4383936 -0.0016921669 0)
(1.3984176 -0.0018104249 0)
(1.359105 -0.0019231592 0)
(1.3204522 -0.0020299929 0)
(1.2824539 -0.0021308391 0)
(1.2451023 -0.0022262563 0)
(1.2083942 -0.0023143999 0)
(1.1723179 -0.002396835 0)
(1.1368835 -0.0024672255 0)
(1.1020818 -0.0025364084 0)
(3.507645 0.0304594 0)
(3.4406324 0.029879585 0)
(3.3746514 0.029308278 0)
(3.3096525 0.02874597 0)
(3.2455862 0.028189825 0)
(3.1824027 0.027638263 0)
(3.1200618 0.027090868 0)
(3.0585274 0.026546067 0)
(2.9977677 0.0260037 0)
(2.937755 0.025462456 0)
(2.878465 0.024922412 0)
(2.8198767 0.024382455 0)
(2.7619723 0.023842919 0)
(2.7047364 0.023303004 0)
(2.6481567 0.022763168 0)
(2.5922228 0.022222812 0)
(2.5369274 0.021682571 0)
(2.4822645 0.021142145 0)
(2.4282308 0.020602285 0)
(2.3748239 0.020062856 0)
(2.3220431 0.019524703 0)
(2.269886 0.01898771 0)
(2.2183476 0.018451973 0)
(2.1674002 0.017915846 0)
(2.1170351 0.017375697 0)
(2.0666268 0.016832626 0)
(2.0175073 0.016249037 0)
(1.9696905 0.015704891 0)
(1.921851 0.015173966 0)
(1.8746456 0.014652001 0)
(1.8280538 0.014135483 0)
(1.7821006 0.013622445 0)
(1.7368284 0.013112452 0)
(1.6922307 0.012606038 0)
(1.6482921 0.012104323 0)
(1.6050083 0.011608175 0)
(1.5623828 0.011118317 0)
(1.5204194 0.010635371 0)
(1.4791208 0.010159865 0)
(1.4384881 0.0096923429 0)
(1.3985207 0.0092332563 0)
(1.3592162 0.0087831275 0)
(1.3205709 0.0083427563 0)
(1.2825796 0.0079125475 0)
(1.2452345 0.0074933306 0)
(1.2085326 0.0070861266 0)
(1.1724625 0.0066915318 0)
(1.1370327 0.0063120467 0)
(1.1022344 0.0059420899 0)
(3.5059073 0.054717324 0)
(3.4389988 0.053818792 0)
(3.3731178 0.052933601 0)
(3.3082126 0.052062569 0)
(3.2442348 0.05120005 0)
(3.1811353 0.050344712 0)
(3.118874 0.049493967 0)
(3.0574152 0.048646715 0)
(2.9967274 0.047800969 0)
(2.9367833 0.04695594 0)
(2.8775587 0.046110131 0)
(2.8190329 0.045263093 0)
(2.7611882 0.044413795 0)
(2.7040095 0.043562099 0)
(2.6474844 0.042707263 0)
(2.5916031 0.04184946 0)
(2.5363579 0.04098827 0)
(2.4817433 0.040124119 0)
(2.427756 0.039256861 0)
(2.3743936 0.038387147 0)
(2.3216555 0.037515166 0)
(2.2695392 0.036641655 0)
(2.2180396 0.035766528 0)
(2.1671284 0.034889645 0)
(2.1167975 0.034007887 0)
(2.0664175 0.033123546 0)
(2.01733 0.032191765 0)
(1.9695505 0.031303838 0)
(1.9217431 0.03042351 0)
(1.8745672 0.029550294 0)
(1.8280026 0.028679514 0)
(1.7820753 0.027812459 0)
(1.7368272 0.026948439 0)
(1.692252 0.026088911 0)
(1.6483346 0.025234719 0)
(1.6050707 0.024387183 0)
(1.562464 0.023547216 0)
(1.5205182 0.022715949 0)
(1.4792361 0.021894268 0)
(1.4386187 0.021083197 0)
(1.3986655 0.020283589 0)
(1.3593741 0.019496393 0)
(1.3207409 0.018722813 0)
(1.2827607 0.017963819 0)
(1.2454262 0.017220706 0)
(1.2087337 0.016495598 0)
(1.172672 0.015788653 0)
(1.1372494 0.015099967 0)
(1.1024569 0.01443051 0)
(3.5035183 0.078939257 0)
(3.4367621 0.077725326 0)
(3.3710236 0.076530152 0)
(3.3062533 0.075352893 0)
(3.2424018 0.074187372 0)
(3.1794216 0.073030271 0)
(3.117273 0.071879298 0)
(3.055921 0.070731466 0)
(2.9953344 0.069585169 0)
(2.9354864 0.068438072 0)
(2.8763531 0.067289123 0)
(2.8179142 0.066136539 0)
(2.7601522 0.064979804 0)
(2.7030523 0.063817658 0)
(2.6466026 0.062649969 0)
(2.590793 0.061475895 0)
(2.5356165 0.060295654 0)
(2.4810674 0.059108818 0)
(2.4271427 0.057915883 0)
(2.3738402 0.056716772 0)
(2.3211593 0.055512341 0)
(2.2690977 0.054302924 0)
(2.2176503 0.053089517 0)
(2.1667884 0.0518724 0)
(2.1165064 0.05064877 0)
(2.0661694 0.049426836 0)
(2.0171246 0.048147003 0)
(1.9693888 0.046917617 0)
(1.9216202 0.045688523 0)
(1.8744816 0.044464177 0)
(1.8279524 0.043239542 0)
(1.7820593 0.042018632 0)
(1.7368432 0.040801275 0)
(1.6922978 0.039589098 0)
(1.6484078 0.038383084 0)
(1.6051697 0.037184569 0)
(1.562587 0.035995048 0)
(1.5206637 0.034815869 0)
(1.4794025 0.033648531 0)
(1.4388044 0.032494336 0)
(1.3988689 0.031354677 0)
(1.3595937 0.030230847 0)
(1.3209754 0.029124486 0)
(1.2830088 0.028037013 0)
(1.2456867 0.02697077 0)
(1.2090055 0.025927499 0)
(1.1729531 0.024908941 0)
(1.1375385 0.023911406 0)
(1.1027528 0.022942121 0)
(3.5007833 0.10309952 0)
(3.4342166 0.10157514 0)
(3.3686569 0.10007326 0)
(3.3040533 0.098593773 0)
(3.2403579 0.097127848 0)
(3.177524 0.0956726 0)
(3.1155131 0.094223532 0)
(3.0542905 0.092778216 0)
(2.993826 0.091333172 0)
(2.934093 0.089886698 0)
(2.8750684 0.08843612 0)
(2.8167323 0.086980387 0)
(2.7590677 0.085517559 0)
(2.7020599 0.084047143 0)
(2.6456975 0.082567766 0)
(2.5899709 0.081079403 0)
(2.5348729 0.079581182 0)
(2.4803984 0.078073467 0)
(2.4265444 0.076555804 0)
(2.3733091 0.075028914 0)
(2.3206919 0.073492861 0)
(2.2686911 0.071948838 0)
(2.2173021 0.070397478 0)
(2.1664969 0.06884057 0)
(2.116274 0.067274071 0)
(2.0659939 0.065715736 0)
(2.0169962 0.064094953 0)
(1.9692982 0.062526192 0)
(1.9215652 0.06094749 0)
(1.8744639 0.059371963 0)
(1.8279721 0.057793156 0)
(1.7821164 0.056219144 0)
(1.736935 0.054649226 0)
(1.6924215 0.053085535 0)
(1.6485604 0.051528458 0)
(1.605349 0.049979831 0)
(1.5627909 0.048441342 0)
(1.5208904 0.046914981 0)
(1.4796501 0.045402552 0)
(1.439071 0.043905915 0)
(1.3991527 0.042426813 0)
(1.3598931 0.040967014 0)
(1.3212886 0.039528522 0)
(1.2833344 0.038113313 0)
(1.2460235 0.036724201 0)
(1.2093521 0.035363795 0)
(1.1733065 0.034034128 0)
(1.1378977 0.032728069 0)
(1.1031176 0.03146028 0)
(3.4979641 0.12579701 0)
(3.4316151 0.12398182 0)
(3.3662577 0.12219324 0)
(3.3018433 0.12043052 0)
(3.2383236 0.11868411 0)
(3.175654 0.11694943 0)
(3.1137967 0.1152218 0)
(3.0527181 0.11349747 0)
(2.9923885 0.11177296 0)
(2.932782 0.11004554 0)
(2.8738763 0.10831261 0)
(2.8156518 0.10657227 0)
(2.7580921 0.10482273 0)
(2.7011833 0.1030628 0)
(2.6449139 0.10129134 0)
(2.5892749 0.099507726 0)
(2.5342595 0.097711372 0)
(2.4798628 0.095902142 0)
(2.4260821 0.094079877 0)
(2.3729158 0.092244859 0)
(2.3203641 0.090397464 0)
(2.2684254 0.088538524 0)
(2.2170962 0.086669226 0)
(2.1663488 0.084791398 0)
(2.1161861 0.082903832 0)
(2.0659622 0.08102056 0)
(2.0170107 0.079098892 0)
(1.9693491 0.077203223 0)
(1.921648 0.075296904 0)
(1.8745805 0.073389562 0)
(1.8281227 0.071476499 0)
(1.7823014 0.069570013 0)
(1.737152 0.067668777 0)
(1.6926675 0.065774573 0)
(1.6488325 0.063887584 0)
(1.6056445 0.062009642 0)
(1.5631078 0.060143055 0)
(1.5212265 0.058290086 0)
(1.4800034 0.056453151 0)
(1.4394395 0.054634384 0)
(1.3995344 0.052836051 0)
(1.3602861 0.05106023 0)
(1.3216913 0.049309394 0)
(1.2837455 0.047585887 0)
(1.2464416 0.045893091 0)
(1.2097758 0.044234022 0)
(1.1737319 0.042611706 0)
(1.1383248 0.041014866 0)
(1.1035458 0.03946558 0)
(3.494544 0.14734931 0)
(3.4284569 0.1452659 0)
(3.3633459 0.14321196 0)
(3.2991621 0.14118663 0)
(3.2358581 0.13917887 0)
(3.173391 0.13718406 0)
(3.1117239 0.13519609 0)
(3.050824 0.13321129 0)
(2.9906624 0.13122497 0)
(2.9312143 0.1292346 0)
(2.8724576 0.12723651 0)
(2.8143737 0.12522915 0)
(2.7569466 0.1232098 0)
(2.7001628 0.12117768 0)
(2.6440113 0.11913087 0)
(2.5884835 0.11706921 0)
(2.533573 0.11499143 0)
(2.4792752 0.11289783 0)
(2.4255876 0.11078768 0)
(2.372509 0.10866165 0)
(2.3200397 0.10651955 0)
(2.2681789 0.10436259 0)
(2.2169232 0.10219159 0)
(2.166246 0.10000884 0)
(2.1161521 0.097817548 0)
(2.0659956 0.095620192 0)
(2.0171009 0.093428529 0)
(1.9694855 0.091217301 0)
(1.9218295 0.089000943 0)
(1.8748048 0.08677792 0)
(1.8283891 0.084546503 0)
(1.7826088 0.082324455 0)
(1.7374966 0.080108752 0)
(1.6930454 0.07790108 0)
(1.6492398 0.075700889 0)
(1.606078 0.073510361 0)
(1.5635648 0.071332125 0)
(1.5217043 0.069169005 0)
(1.4804994 0.067023803 0)
(1.4399512 0.064899099 0)
(1.4000594 0.062797502 0)
(1.360822 0.060721475 0)
(1.3222359 0.058673842 0)
(1.2842968 0.056657389 0)
(1.246998 0.054675835 0)
(1.2103357 0.052733113 0)
(1.1742907 0.050832922 0)
(1.1388819 0.048960407 0)
(1.1041022 0.047144492 0)
(3.4903969 0.16940556 0)
(3.4246354 0.16705224 0)
(3.3598296 0.16473168 0)
(3.2959332 0.16244194 0)
(3.2328984 0.16017135 0)
(3.1706843 0.15791421 0)
(3.1092552 0.15566379 0)
(3.0485794 0.15341573 0)
(2.9886289 0.15116487 0)
(2.9293797 0.1489082 0)
(2.8708105 0.1466417 0)
(2.8129034 0.14436347 0)
(2.755643 0.14207053 0)
(2.6990164 0.13976189 0)
(2.6430132 0.13743546 0)
(2.5876252 0.13509093 0)
(2.5328464 0.13272696 0)
(2.4786727 0.13034374 0)
(2.4251019 0.12794046 0)
(2.3721331 0.1255177 0)
(2.3197669 0.12307524 0)
(2.2680028 0.12061408 0)
(2.2168377 0.11813521 0)
(2.166245 0.11564095 0)
(2.1162285 0.11313871 0)
(2.0661449 0.11062232 0)
(2.0173184 0.10815327 0)
(1.9697679 0.10562174 0)
(1.9221725 0.10308751 0)
(1.8752005 0.10054141 0)
(1.8288343 0.097984121 0)
(1.7831008 0.095439103 0)
(1.7380303 0.092901846 0)
(1.6936161 0.090373373 0)
(1.6498428 0.087852685 0)
(1.6067097 0.085342096 0)
(1.5642214 0.082844809 0)
(1.5223827 0.080364074 0)
(1.4811962 0.077903218 0)
(1.4406633 0.075465177 0)
(1.4007836 0.073052993 0)
(1.3615554 0.07066948 0)
(1.3229758 0.068317863 0)
(1.2850408 0.066001301 0)
(1.247744 0.06372383 0)
(1.2110818 0.061490084 0)
(1.1750311 0.059305247 0)
(1.1396167 0.057150346 0)
(1.1048312 0.055060887 0)
(3.4857751 0.19194241 0)
(3.4203948 0.18931859 0)
(3.3559473 0.18673148 0)
(3.2923868 0.18417626 0)
(3.2296669 0.18164139 0)
(3.1677488 0.17912017 0)
(3.1065978 0.1766052 0)
(3.0461834 0.17409152 0)
(2.9864788 0.17157344 0)
(2.9274609 0.16904753 0)
(2.8691095 0.16650936 0)
(2.8114073 0.16395676 0)
(2.7543397 0.16138645 0)
(2.6978946 0.15879728 0)
(2.6420621 0.15618696 0)
(2.5868345 0.1535551 0)
(2.5322065 0.15090021 0)
(2.4781743 0.14822245 0)
(2.4247362 0.1455209 0)
(2.3718918 0.1427961 0)
(2.319642 0.14004772 0)
(2.2679865 0.13727674 0)
(2.2169224 0.13448421 0)
(2.1664239 0.13167288 0)
(2.1164909 0.12885319 0)
(2.0664877 0.12601511 0)
(2.0177359 0.12325476 0)
(1.9702548 0.12040002 0)
(1.9227262 0.11754105 0)
(1.8758093 0.11466569 0)
(1.829495 0.11177553 0)
(1.78381 0.10890066 0)
(1.738782 0.10603486 0)
(1.6944048 0.10317845 0)
(1.6506633 0.10032996 0)
(1.6075574 0.097491952 0)
(1.5650924 0.094668207 0)
(1.5232729 0.091862467 0)
(1.482102 0.089078558 0)
(1.4415809 0.086319808 0)
(1.4017095 0.083589679 0)
(1.3624862 0.08089135 0)
(1.3239083 0.078228434 0)
(1.2859722 0.07560445 0)
(1.2486719 0.073023663 0)
(1.2120044 0.070491264 0)
(1.1759417 0.068012962 0)
(1.1405151 0.065573911 0)
(1.1057185 0.063202698 0)
(3.4807348 0.21495704 0)
(3.4157902 0.21206434 0)
(3.3517506 0.20921166 0)
(3.288573 0.20639181 0)
(3.2262117 0.20359297 0)
(3.1646298 0.20080767 0)
(3.1037944 0.19802767 0)
(3.0436762 0.19524752 0)
(2.9842498 0.19246094 0)
(2.9254933 0.18966419 0)
(2.8673873 0.18685236 0)
(2.8099156 0.1840231 0)
(2.7530645 0.18117278 0)
(2.6968226 0.17830013 0)
(2.6411807 0.17540264 0)
(2.586132 0.17247987 0)
(2.5316714 0.16953018 0)
(2.477796 0.16655372 0)
(2.4245044 0.16354945 0)
(2.3717968 0.16051792 0)
(2.3196745 0.15745868 0)
(2.2681377 0.15437276 0)
(2.2171838 0.15126138 0)
(2.1667881 0.14812795 0)
(2.1169457 0.14498532 0)
(2.0670303 0.14182201 0)
(2.0183584 0.1387577 0)
(1.9709492 0.13557591 0)
(1.92349 0.132386 0)
(1.8766293 0.12917553 0)
(1.8303682 0.12594572 0)
(1.7847333 0.12273437 0)
(1.7397483 0.11953321 0)
(1.6954078 0.11634177 0)
(1.6516971 0.11315823 0)
(1.6086169 0.10998554 0)
(1.566173 0.10682802 0)
(1.5243703 0.10368999 0)
(1.4832119 0.10057571 0)
(1.4426992 0.097488964 0)
(1.4028321 0.094433586 0)
(1.3636094 0.091413187 0)
(1.3250286 0.088431731 0)
(1.2870864 0.085493122 0)
(1.2497772 0.082601754 0)
(1.2130984 0.079762576 0)
(1.1770195 0.07697931 0)
(1.141575 0.074260025 0)
(1.1067585 0.071595352 0)
(3.4752387 0.23843593 0)
(3.4107838 0.23527737 0)
(3.3472033 0.23216267 0)
(3.2844549 0.22908042 0)
(3.2224956 0.22601954 0)
(3.1612905 0.22297127 0)
(3.1008081 0.21992708 0)
(3.0410211 0.21688062 0)
(2.9819053 0.21382544 0)
(2.9234399 0.21075708 0)
(2.8656072 0.2076706 0)
(2.8083917 0.20456309 0)
(2.7517808 0.20143094 0)
(2.695764 0.19827247 0)
(2.640333 0.19508525 0)
(2.5854816 0.19186854 0)
(2.5312056 0.18862081 0)
(2.4775025 0.18534197 0)
(2.4243716 0.18203112 0)
(2.3718137 0.1786886 0)
(2.3198305 0.17531408 0)
(2.2684228 0.17190849 0)
(2.2175887 0.16847341 0)
(2.167305 0.16501301 0)
(2.1175612 0.16154254 0)
(2.0677449 0.15804992 0)
(2.0191591 0.15467072 0)
(1.9718222 0.1511574 0)
(1.9244353 0.14763105 0)
(1.8776327 0.14407974 0)
(1.8314275 0.14050355 0)
(1.7858457 0.13694934 0)
(1.7409054 0.13340621 0)
(1.6966026 0.12987277 0)
(1.6529228 0.12634707 0)
(1.609868 0.12283246 0)
(1.5674443 0.11933396 0)
(1.525657 0.11585635 0)
(1.4845092 0.11240443 0)
(1.4440026 0.10898238 0)
(1.4041372 0.10559446 0)
(1.364912 0.10224469 0)
(1.3263249 0.098937425 0)
(1.2883726 0.095676937 0)
(1.2510501 0.092467823 0)
(1.2143543 0.089314768 0)
(1.1782592 0.086219622 0)
(1.1427914 0.083212225 0)
(1.1079464 0.080247717 0)
(3.4691785 0.26236505 0)
(3.4052702 0.25894727 0)
(3.3422012 0.25557433 0)
(3.2799315 0.25223383 0)
(3.2184202 0.24891395 0)
(3.1576345 0.2456055 0)
(3.097545 0.24229898 0)
(3.0381262 0.23898779 0)
(2.9793554 0.23566476 0)
(2.9212135 0.23232532 0)
(2.8636838 0.22896396 0)
(2.8067525 0.22557774 0)
(2.7504078 0.22216263 0)
(2.6946402 0.218717 0)
(2.6394424 0.21523809 0)
(2.5848091 0.21172527 0)
(2.5307368 0.20817677 0)
(2.4772238 0.20459262 0)
(2.42427 0.20097176 0)
(2.3718768 0.19731463 0)
(2.3200464 0.19362078 0)
(2.2687805 0.18989132 0)
(2.2180778 0.18612798 0)
(2.1679175 0.18233599 0)
(2.1182832 0.17853292 0)
(2.0685796 0.1747074 0)
(2.0200884 0.17100291 0)
(1.9728262 0.16715383 0)
(1.9255163 0.1632856 0)
(1.8787755 0.15938789 0)
(1.8326308 0.15545848 0)
(1.7871076 0.15155539 0)
(1.7422161 0.14766385 0)
(1.6979539 0.14378161 0)
(1.6543071 0.13990669 0)
(1.6112793 0.13604309 0)
(1.5688769 0.13219643 0)
(1.5271055 0.12837213 0)
(1.4859685 0.12457536 0)
(1.4454675 0.12081079 0)
(1.405603 0.11708309 0)
(1.3663741 0.11339673 0)
(1.3277789 0.10975644 0)
(1.2898145 0.10616694 0)
(1.2524761 0.10263311 0)
(1.2157604 0.09916012 0)
(1.1796472 0.095750673 0)
(1.1441535 0.092435266 0)
(1.1092739 0.089168545 0)
(3.4624134 0.2867275 0)
(3.3991122 0.28305702 0)
(3.3366116 0.27943285 0)
(3.274873 0.2758395 0)
(3.2138589 0.27226578 0)
(3.1535387 0.26870099 0)
(3.0938852 0.26513579 0)
(3.0348748 0.26156236 0)
(2.9764868 0.25797381 0)
(2.9187037 0.25436454 0)
(2.8615103 0.25072943 0)
(2.804894 0.24706466 0)
(2.7488444 0.24336666 0)
(2.6933532 0.23963303 0)
(2.6384141 0.23586152 0)
(2.5840226 0.23205087 0)
(2.5301762 0.2281998 0)
(2.4768739 0.22430784 0)
(2.4241164 0.22037438 0)
(2.3719057 0.21639943 0)
(2.3202447 0.21238297 0)
(2.269136 0.2083258 0)
(2.2185792 0.20423026 0)
(2.1685567 0.20010225 0)
(2.1190456 0.19596248 0)
(2.0694698 0.19180057 0)
(2.0210844 0.18776059 0)
(1.9739029 0.18357179 0)
(1.926677 0.17935676 0)
(1.8800038 0.1751073 0)
(1.833927 0.170818 0)
(1.7884705 0.16656034 0)
(1.7436339 0.16231438 0)
(1.6994174 0.15807664 0)
(1.6558081 0.15384567 0)
(1.6128109 0.14962607 0)
(1.5704332 0.14542428 0)
(1.5286804 0.14124618 0)
(1.4875563 0.13709748 0)
(1.4470627 0.13298324 0)
(1.4072002 0.12890859 0)
(1.3679682 0.12487843 0)
(1.3293652 0.12089794 0)
(1.2913884 0.11697228 0)
(1.2540336 0.11310675 0)
(1.2172973 0.10930723 0)
(1.1811641 0.10557807 0)
(1.1456421 0.10194213 0)
(1.1107279 0.098368229 0)
(3.4547928 0.31150149 0)
(3.3921626 0.30758965 0)
(3.3302905 0.30372176 0)
(3.2691396 0.29988348 0)
(3.2086758 0.29606205 0)
(3.1488709 0.29224697 0)
(3.0897001 0.28842759 0)
(3.0311421 0.28459636 0)
(2.9731783 0.28074533 0)
(2.9157927 0.27686925 0)
(2.8589721 0.27296214 0)
(2.8027052 0.26902056 0)
(2.7469831 0.26504024 0)
(2.6917987 0.26101922 0)
(2.6371469 0.25695464 0)
(2.5830241 0.25284571 0)
(2.5294289 0.24869067 0)
(2.476361 0.2444895 0)
(2.4238221 0.24024119 0)
(2.3718147 0.23594619 0)
(2.3203426 0.23160414 0)
(2.2694092 0.22721629 0)
(2.2190157 0.2227848 0)
(2.169148 0.21831689 0)
(2.1197775 0.21383557 0)
(2.0703466 0.20933839 0)
(2.0220806 0.20494719 0)
(1.9749897 0.20041846 0)
(1.9278565 0.1958515 0)
(1.8812587 0.19124536 0)
(1.8352595 0.18658933 0)
(1.7898808 0.18197209 0)
(1.7451077 0.17736584 0)
(1.7009441 0.17276627 0)
(1.6573788 0.16817248 0)
(1.6144182 0.16359017 0)
(1.5720703 0.15902638 0)
(1.530341 0.15448766 0)
(1.4892339 0.14998007 0)
(1.4487513 0.1455092 0)
(1.4088939 0.14108054 0)
(1.3696615 0.13669954 0)
(1.3310526 0.13237177 0)
(1.2930651 0.1281029 0)
(1.255695 0.12389872 0)
(1.2189391 0.11976565 0)
(1.1827849 0.11570915 0)
(1.1472355 0.11174594 0)
(1.1122859 0.10785699 0)
(3.4461678 0.33666366 0)
(3.3842778 0.33252133 0)
(3.3230981 0.32842098 0)
(3.2625953 0.32434685 0)
(3.2027384 0.32028665 0)
(3.1435022 0.3162283 0)
(3.0848645 0.31216169 0)
(3.0268064 0.30807789 0)
(2.9693113 0.30396958 0)
(2.9123656 0.29983034 0)
(2.8559576 0.29565488 0)
(2.8000778 0.29143876 0)
(2.7447187 0.28717841 0)
(2.6898746 0.282871 0)
(2.6355417 0.27851442 0)
(2.5817176 0.27410711 0)
(2.5284017 0.26964807 0)
(2.475595 0.26513662 0)
(2.4232996 0.26057248 0)
(2.3715192 0.25595554 0)
(2.3202582 0.25128609 0)
(2.269521 0.24656487 0)
(2.2193106 0.24179473 0)
(2.1696174 0.23698296 0)
(2.1204092 0.23215689 0)
(2.0711388 0.22733366 0)
(2.0230084 0.22255875 0)
(1.9760239 0.21769799 0)
(1.928993 0.21277517 0)
(1.8824803 0.20780772 0)
(1.8365706 0.20277865 0)
(1.7912834 0.19779729 0)
(1.7465839 0.19282552 0)
(1.7024824 0.1878578 0)
(1.6589694 0.18289479 0)
(1.6160533 0.17794315 0)
(1.5737426 0.17301082 0)
(1.5320433 0.16810476 0)
(1.4909594 0.16323159 0)
(1.4504931 0.15839723 0)
(1.4106456 0.15360771 0)
(1.3714168 0.14886889 0)
(1.3328057 0.14418688 0)
(1.2948106 0.13956782 0)
(1.257428 0.13501798 0)
(1.2206547 0.13054435 0)
(1.1844805 0.12615281 0)
(1.1489041 0.12185651 0)
(1.1139223 0.11764493 0)
(3.4364033 0.36218526 0)
(3.3753243 0.357827 0)
(3.3149048 0.35350671 0)
(3.2551138 0.34920878 0)
(3.195924 0.3449199 0)
(3.1373132 0.34062793 0)
(3.0792621 0.33632198 0)
(3.0217543 0.33199318 0)
(2.9647758 0.3276336 0)
(2.9083151 0.32323695 0)
(2.8523625 0.3187975 0)
(2.7969103 0.31431099 0)
(2.7419526 0.30977349 0)
(2.6874852 0.30518243 0)
(2.6335056 0.30053542 0)
(2.5800127 0.2958312 0)
(2.527007 0.29106856 0)
(2.4744905 0.28624718 0)
(2.4224663 0.28136661 0)
(2.3709388 0.2764271 0)
(2.3199134 0.27142878 0)
(2.2693956 0.2663727 0)
(2.2193902 0.26126136 0)
(2.1698935 0.25610218 0)
(2.1208768 0.25092592 0)
(2.0717747 0.24577706 0)
(2.0237978 0.2406113 0)
(1.9769482 0.23541665 0)
(1.9300263 0.23013248 0)
(1.8836094 0.22479918 0)
(1.8378033 0.2193913 0)
(1.7926237 0.21404217 0)
(1.7480096 0.20869972 0)
(1.7039807 0.20335795 0)
(1.6605302 0.1980194 0)
(1.6176682 0.19269224 0)
(1.5754036 0.18738502 0)
(1.5337426 0.18210532 0)
(1.4926894 0.17686005 0)
(1.4522464 0.17165568 0)
(1.412415 0.16649863 0)
(1.3731955 0.16139529 0)
(1.3345875 0.15635226 0)
(1.2965893 0.15137617 0)
(1.259198 0.14647387 0)
(1.222411 0.14165257 0)
(1.186219 0.13691905 0)
(1.150619 0.13228317 0)
(1.1156063 0.12774233 0)
(3.4253751 0.38803265 0)
(3.3651828 0.38347575 0)
(3.3055939 0.37895118 0)
(3.2465813 0.37444346 0)
(3.1881215 0.36993873 0)
(3.1301955 0.36542438 0)
(3.0727873 0.36088939 0)
(3.0158832 0.35632451 0)
(2.9594719 0.35172178 0)
(2.903544 0.34707466 0)
(2.8480921 0.34237745 0)
(2.7931105 0.33762572 0)
(2.7385949 0.33281564 0)
(2.6845429 0.32794454 0)
(2.6309534 0.32301019 0)
(2.5778265 0.31801129 0)
(2.5251642 0.31294685 0)
(2.4729692 0.30781656 0)
(2.4212459 0.30262026 0)
(2.3699994 0.29735821 0)
(2.3192361 0.2920308 0)
(2.2689626 0.28663896 0)
(2.2191856 0.28118495 0)
(2.1699084 0.27567462 0)
(2.1211121 0.27013418 0)
(2.0721966 0.26461644 0)
(2.0243924 0.25916019 0)
(1.9776994 0.25358769 0)
(1.930898 0.24792631 0)
(1.8845897 0.24222329 0)
(1.8389035 0.23643152 0)
(1.7938493 0.23071224 0)
(1.7493333 0.22499427 0)
(1.705389 0.21927249 0)
(1.6620126 0.2135525 0)
(1.6192158 0.20784386 0)
(1.5770078 0.20215585 0)
(1.5353948 0.19649643 0)
(1.4943812 0.19087292 0)
(1.4539697 0.18529223 0)
(1.414162 0.17976124 0)
(1.3749588 0.17428688 0)
(1.3363601 0.16887622 0)
(1.2983646 0.16353648 0)
(1.2609699 0.1582749 0)
(1.2241737 0.15309935 0)
(1.1879677 0.14801628 0)
(1.1523469 0.14303609 0)
(1.1173084 0.13815711 0)
(3.4129747 0.41416997 0)
(3.3537461 0.40943364 0)
(3.295061 0.40472333 0)
(3.2368959 0.40002242 0)
(3.1792315 0.39531684 0)
(3.1220522 0.39059364 0)
(3.0653454 0.38584178 0)
(3.0091005 0.38105175 0)
(2.953309 0.37621567 0)
(2.897964 0.37132678 0)
(2.8430603 0.36637953 0)
(2.7885944 0.36136932 0)
(2.7345639 0.35629257 0)
(2.680968 0.35114646 0)
(2.6278072 0.34592905 0)
(2.5750832 0.34063899 0)
(2.522799 0.33527561 0)
(2.4709588 0.32983863 0)
(2.4195679 0.32432822 0)
(2.3686324 0.31874476 0)
(2.3181595 0.31308892 0)
(2.2681569 0.30736159 0)
(2.2186326 0.3015645 0)
(2.1695948 0.29570082 0)
(2.1210333 0.2897818 0)
(2.0723717 0.28384201 0)
(2.0247616 0.27821657 0)
(1.9782006 0.27221236 0)
(1.9315489 0.26615704 0)
(1.8853682 0.26008089 0)
(1.83982 0.25390388 0)
(1.7949112 0.24781219 0)
(1.7505064 0.24171401 0)
(1.7066596 0.23560642 0)
(1.6633703 0.22949934 0)
(1.6206512 0.22340378 0)
(1.5785115 0.21732947 0)
(1.5369576 0.21128471 0)
(1.4959938 0.20527718 0)
(1.4556232 0.19931422 0)
(1.415848 0.19340323 0)
(1.3766692 0.18755163 0)
(1.3380871 0.18176707 0)
(1.3001011 0.17605722 0)
(1.2627094 0.17043 0)
(1.2259096 0.16489326 0)
(1.1896945 0.15945518 0)
(1.1540582 0.15412241 0)
(1.1189973 0.14890177 0)
(3.3991039 0.44055377 0)
(3.3409183 0.43566255 0)
(3.2832122 0.43078776 0)
(3.2259656 0.42591303 0)
(3.1691638 0.42102403 0)
(3.112795 0.41610784 0)
(3.0568501 0.41115345 0)
(3.001322 0.40615132 0)
(2.9462049 0.40109358 0)
(2.8914947 0.39597351 0)
(2.8371886 0.39078563 0)
(2.7832853 0.38552542 0)
(2.7297845 0.38018937 0)
(2.6766871 0.37477482 0)
(2.6239955 0.36927997 0)
(2.5717128 0.36370365 0)
(2.5198435 0.3580454 0)
(2.4683929 0.35230518 0)
(2.4173674 0.34648341 0)
(2.3667744 0.34058081 0)
(2.3166217 0.33459831 0)
(2.266918 0.32853698 0)
(2.2176722 0.3223981 0)
(2.1688928 0.31618253 0)
(2.1205733 0.30988606 0)
(2.0722568 0.30352245 0)
(2.024863 0.29771277 0)
(1.9783881 0.29127206 0)
(1.9319259 0.28481956 0)
(1.8858964 0.27836799 0)
(1.8405061 0.27181544 0)
(1.7957623 0.26534773 0)
(1.7514823 0.25886294 0)
(1.7077469 0.25236384 0)
(1.6645592 0.24586451 0)
(1.6219316 0.23937709 0)
(1.5798733 0.23291148 0)
(1.5383904 0.22647621 0)
(1.4974878 0.22007928 0)
(1.4571687 0.2137285 0)
(1.4174357 0.20743176 0)
(1.3782904 0.20119704 0)
(1.3397336 0.19503253 0)
(1.3017651 0.18894649 0)
(1.2643834 0.1829472 0)
(1.227587 0.17704361 0)
(1.191368 0.17124229 0)
(1.1557219 0.16555436 0)
(1.120645 0.15998069 0)
(3.4411521 0.47218506 0)
(3.3836728 0.46714088 0)
(3.3266124 0.46212091 0)
(3.2699613 0.45710584 0)
(3.2137058 0.45207928 0)
(3.1578354 0.44702687 0)
(3.1023425 0.44193606 0)
(3.0472218 0.43679574 0)
(2.9924694 0.43159674 0)
(2.938083 0.42633109 0)
(2.8840611 0.42099238 0)
(2.8304036 0.41557511 0)
(2.7771114 0.41007507 0)
(2.7241864 0.40448877 0)
(2.6716317 0.3988139 0)
(2.6194511 0.39304871 0)
(2.5676497 0.38719243 0)
(2.5162333 0.38124471 0)
(2.4652085 0.37520596 0)
(2.4145832 0.36907683 0)
(2.3643654 0.3628585 0)
(2.3145643 0.35655225 0)
(2.2651893 0.35015967 0)
(2.2162493 0.34368222 0)
(2.1677505 0.33712046 0)
(2.1196874 0.33046784 0)
(2.0717851 0.32373948 0)
(2.0246307 0.31756387 0)
(1.978219 0.31074281 0)
(1.9319817 0.30390623 0)
(1.8861322 0.29707765 0)
(1.8409204 0.29017425 0)
(1.7963563 0.28332445 0)
(1.7522154 0.2764437 0)
(1.7086075 0.26954743 0)
(1.6655374 0.26265152 0)
(1.6230164 0.25576803 0)
(1.5810535 0.24890674 0)
(1.5396549 0.24207632 0)
(1.4988257 0.2352851 0)
(1.4585697 0.22854138 0)
(1.4188898 0.22185356 0)
(1.3797882 0.21523024 0)
(1.3412661 0.20868013 0)
(1.3033238 0.20221205 0)
(1.2659607 0.19583505 0)
(1.2291745 0.1895576 0)
(1.1929602 0.18338954 0)
(1.1573098 0.17733595 0)
(1.1222226 0.17140886 0)
(3.4227941 0.49901389 0)
(3.3666 0.49388268 0)
(3.3107458 0.4887633 0)
(3.2552278 0.48363484 0)
(3.2000369 0.4784811 0)
(3.1451679 0.47328811 0)
(3.0906177 0.4680434 0)
(3.0363846 0.4627364 0)
(2.9824687 0.45735791 0)
(2.9288705 0.45190046 0)
(2.8755919 0.44635762 0)
(2.8226353 0.44072432 0)
(2.7700041 0.4349964 0)
(2.7177026 0.42917082 0)
(2.6657358 0.42324533 0)
(2.6141097 0.41721865 0)
(2.5628308 0.41109013 0)
(2.5119067 0.40485993 0)
(2.4613455 0.39852866 0)
(2.411156 0.39209753 0)
(2.361348 0.38556808 0)
(2.3119312 0.37894226 0)
(2.2629161 0.37222225 0)
(2.2143121 0.3654106 0)
(2.1661249 0.35850978 0)
(2.1183544 0.35152267 0)
(2.0708607 0.34447932 0)
(2.0239689 0.3377795 0)
(1.9776738 0.33062503 0)
(1.9316757 0.32341723 0)
(1.8860391 0.31620276 0)
(1.8410262 0.30898945 0)
(1.7966462 0.3017423 0)
(1.7526602 0.29445628 0)
(1.7091989 0.28715862 0)
(1.666264 0.27986303 0)
(1.623866 0.27258016 0)
(1.5820137 0.2653195 0)
(1.5407137 0.25808988 0)
(1.4999713 0.25090001 0)
(1.4597909 0.24375869 0)
(1.4201759 0.23667492 0)
(1.3811291 0.22965789 0)
(1.3426522 0.2227169 0)
(1.3047462 0.21586143 0)
(1.2674103 0.20910073 0)
(1.2306446 0.20244506 0)
(1.1944402 0.19590114 0)
(1.1587949 0.18948129 0)
(1.1237053 0.18318956 0)
(3.4026283 0.52590782 0)
(3.3478056 0.52072651 0)
(3.2932415 0.51553978 0)
(3.2389342 0.51032784 0)
(3.1848827 0.50507469 0)
(3.1310863 0.49976663 0)
(3.0775464 0.4943917 0)
(3.0242657 0.48893965 0)
(2.9712477 0.48340173 0)
(2.9184967 0.47777072 0)
(2.8660174 0.4720406 0)
(2.8138153 0.46620658 0)
(2.7618963 0.46026486 0)
(2.7102671 0.45421269 0)
(2.6589349 0.44804821 0)
(2.6079077 0.44177044 0)
(2.557194 0.43537915 0)
(2.5068028 0.42887485 0)
(2.456744 0.42225865 0)
(2.4070278 0.41553217 0)
(2.3576649 0.40869758 0)
(2.3086667 0.40175745 0)
(2.2600445 0.39471489 0)
(2.2118088 0.38757367 0)
(2.1639671 0.38033884 0)
(2.1165283 0.37302068 0)
(2.0694216 0.36565449 0)
(2.0228164 0.3584407 0)
(1.9767073 0.35094425 0)
(1.9309578 0.34336774 0)
(1.8855821 0.33576795 0)
(1.8407882 0.32823634 0)
(1.7965812 0.32058697 0)
(1.7527727 0.31289615 0)
(1.7094799 0.3051971 0)
(1.6666993 0.29750049 0)
(1.6244416 0.289816 0)
(1.5827161 0.28215306 0)
(1.5415298 0.27452082 0)
(1.5008886 0.26692851 0)
(1.4607974 0.25938549 0)
(1.4212602 0.25190141 0)
(1.3822804 0.24448605 0)
(1.3438602 0.23714941 0)
(1.306001 0.22990141 0)
(1.2687036 0.22275239 0)
(1.2319653 0.21571151 0)
(1.1957836 0.20878972 0)
(1.1601498 0.2019939 0)
(1.1250649 0.19533628 0)
(3.3805802 0.55280561 0)
(3.327217 0.54761346 0)
(3.2740237 0.54239576 0)
(3.2210067 0.53713378 0)
(3.1681695 0.53181209 0)
(3.1155173 0.52641751 0)
(3.0630562 0.52093876 0)
(3.0107933 0.51536605 0)
(2.9587359 0.50969124 0)
(2.9068917 0.50390745 0)
(2.855269 0.49800921 0)
(2.8038759 0.49199205 0)
(2.7527213 0.48585269 0)
(2.7018144 0.47958872 0)
(2.6511646 0.47319875 0)
(2.6007821 0.46668218 0)
(2.5506772 0.4600393 0)
(2.5008609 0.45327102 0)
(2.4513445 0.44637898 0)
(2.4021398 0.43936535 0)
(2.3532591 0.43223293 0)
(2.3047148 0.42498503 0)
(2.2565197 0.41762568 0)
(2.2086859 0.41015989 0)
(2.1612235 0.40259462 0)
(2.1141496 0.39494323 0)
(2.0674253 0.38723553 0)
(2.0211322 0.37956631 0)
(1.9752663 0.37171091 0)
(1.929787 0.36377006 0)
(1.8847028 0.35579563 0)
(1.8401481 0.34788916 0)
(1.7961243 0.33984664 0)
(1.752514 0.33175977 0)
(1.7094104 0.32366246 0)
(1.6668033 0.31556494 0)
(1.624704 0.30747748 0)
(1.5831224 0.29941008 0)
(1.542066 0.29137248 0)
(1.5015414 0.28337453 0)
(1.4615539 0.27542629 0)
(1.4221085 0.26753805 0)
(1.3832088 0.25972031 0)
(1.3448578 0.25198362 0)
(1.3070577 0.24433873 0)
(1.2698085 0.23679603 0)
(1.2331117 0.22936665 0)
(1.1969583 0.22205913 0)
(1.1613479 0.21488568 0)
(1.1262783 0.20785415 0)
(3.4084588 0.58476764 0)
(3.3565805 0.57964025 0)
(3.3047612 0.574481 0)
(3.2530221 0.56927243 0)
(3.201373 0.56399724 0)
(3.1498253 0.5586411 0)
(3.0983893 0.55319172 0)
(3.047076 0.5476385 0)
(2.9958967 0.54197245 0)
(2.944863 0.53618593 0)
(2.8939863 0.53027277 0)
(2.8432779 0.52422794 0)
(2.7927494 0.51804761 0)
(2.7424124 0.51172892 0)
(2.6922786 0.50527007 0)
(2.64236 0.49867009 0)
(2.5926688 0.49192898 0)
(2.5432176 0.48504745 0)
(2.494019 0.47802705 0)
(2.4450863 0.47086992 0)
(2.3964327 0.4635789 0)
(2.3480721 0.4561574 0)
(2.3000184 0.44860956 0)
(2.2522858 0.44094026 0)
(2.2048881 0.43315559 0)