/*--------------------------------*- C++ -*----------------------------------*\
| =========                 |                                                 |
| \\      /  F ield         | OpenFOAM: The Open Source CFD Toolbox           |
|  \\    /   O peration     | Version:  2312                                  |
|   \\  /    A nd           | Website:  www.openfoam.com                      |
|    \\/     M anipulation  |                                                 |
\*---------------------------------------------------------------------------*/
FoamFile
{
    version     2.0;
    format      ascii;
    arch        "LSB;label=32;scalar=64";
    class       volScalarField;
    location    "0.05";
    object      CO2;
}
// * * * * * * * * * * * * * * * * * * * * * * * * * * * * * * * * * * * * * //

dimensions      [0 0 0 0 0 0 0];

internalField   nonuniform List<scalar> 
3250
(
0.044800911
0.044726428
0.044671219
0.044634686
0.044616286
0.044615478
0.044630929
0.044663521
0.044711986
0.044775644
0.044853847
0.044945907
0.045051094
0.045168628
0.045297662
0.045437271
0.045586464
0.045744402
0.045903921
0.046076619
0.046255744
0.046439153
0.046625634
0.046813909
0.047002661
0.047190635
0.047377008
0.047555312
0.047725544
0.047892827
0.048051936
0.048200723
0.048337533
0.04846068
0.048568475
0.048659233
0.048731288
0.048782996
0.048812752
0.048818989
0.04880076
0.0487558
0.048682811
0.048580707
0.048447942
0.048283673
0.048087035
0.047857312
0.047593987
0.044791236
0.044717199
0.044662398
0.044626224
0.044608155
0.044607648
0.044623387
0.044656255
0.044704967
0.044768854
0.044847269
0.044939525
0.045044893
0.045162595
0.045291787
0.045431549
0.045580865
0.045738796
0.045898457
0.046071362
0.046250559
0.046434035
0.046620578
0.046808906
0.0469977
0.047185674
0.047371951
0.047550681
0.047720762
0.047888014
0.048047135
0.04819593
0.048332743
0.048455889
0.048563679
0.04865443
0.048726474
0.04877817
0.048807911
0.048814133
0.048795885
0.048750903
0.048677876
0.04857569
0.048442936
0.04827869
0.048082059
0.047852288
0.047588865
0.044772341
0.044699161
0.044645154
0.044609706
0.044592309
0.044592405
0.04460874
0.044642163
0.044691375
0.044755728
0.044834576
0.044927234
0.045032973
0.04515102
0.045280537
0.04542061
0.045570191
0.045728091
0.045888086
0.046061391
0.046240739
0.046424359
0.046611032
0.046799476
0.046988364
0.047176369
0.047362519
0.047541908
0.047711782
0.047878996
0.048038138
0.048186952
0.048323772
0.048446917
0.048554697
0.048645431
0.048717452
0.04876912
0.048798828
0.048805015
0.048786727
0.048741698
0.048668605
0.048566337
0.048433568
0.048269317
0.048072668
0.047842821
0.047579284
0.044744247
0.044672335
0.044619506
0.044585145
0.044568759
0.044569754
0.044586999
0.044621247
0.044671213
0.044736269
0.04481577
0.044909033
0.045015333
0.0451339
0.045263905
0.045404451
0.045554468
0.04571223
0.045872836
0.046046692
0.046226273
0.046410113
0.046596985
0.046785606
0.046974643
0.047162719
0.047348511
0.047529144
0.047698604
0.047865753
0.048024932
0.048173772
0.048310605
0.048433747
0.048541512
0.04863222
0.048704206
0.048755831
0.048785488
0.04879162
0.048773271
0.048728171
0.048654993
0.048552635
0.048419826
0.048255544
0.048058856
0.047828925
0.047565277
0.044707001
0.044636762
0.044585493
0.044552578
0.044537539
0.044539729
0.044558194
0.044593533
0.044644508
0.044710503
0.044790876
0.044884947
0.044991997
0.045111257
0.045241911
0.045383089
0.045533783
0.045691125
0.045852797
0.046027265
0.046207177
0.046391317
0.046578457
0.046767315
0.046956557
0.04714478
0.047330555
0.047511805
0.047681207
0.047848303
0.048007535
0.048156412
0.04829326
0.048416399
0.048524144
0.048614817
0.048686756
0.048738322
0.04876791
0.048773967
0.048755538
0.048710346
0.048637067
0.048534608
0.048401732
0.048237393
0.048040648
0.047810629
0.047546877
0.044663311
0.044595031
0.044545588
0.04451437
0.044500915
0.044504512
0.044524415
0.044561034
0.044613197
0.044680297
0.044761696
0.04485672
0.044964652
0.04508473
0.045216144
0.045358055
0.04550977
0.045666094
0.045829507
0.046004523
0.046184833
0.046369326
0.046556783
0.046745925
0.046935412
0.047123838
0.047309744
0.047491356
0.047660846
0.047827904
0.047987203
0.048136124
0.048272992
0.048396127
0.048503848
0.04859448
0.048666362
0.048717858
0.048747366
0.048753334
0.048734812
0.048689513
0.048616123
0.048513555
0.048380593
0.048216179
0.048019362
0.047789256
0.047525412
0.044614524
0.044548425
0.044501016
0.044471695
0.044460008
0.04446518
0.044486691
0.044524738
0.04457823
0.044646566
0.044729115
0.044825205
0.044934124
0.045055115
0.045187375
0.045330066
0.0454825
0.045638557
0.045803656
0.045979153
0.046159901
0.046344791
0.046532606
0.046722065
0.046911831
0.047100497
0.047286599
0.047468492
0.04763813
0.047805155
0.047964533
0.048113503
0.048250392
0.048373523
0.048481217
0.048571802
0.048643621
0.04869504
0.048724458
0.048730326
0.048711699
0.048666283
0.048592773
0.048490089
0.048357027
0.048192524
0.047995624
0.047765433
0.047501508
0.044556854
0.044493327
0.04444832
0.044421237
0.04441164
0.044418678
0.04444209
0.044481825
0.044536888
0.044606687
0.044690596
0.044787948
0.044898036
0.045020109
0.045153366
0.045296948
0.045449986
0.045606302
0.045773153
0.045949174
0.046130437
0.046315799
0.046504039
0.046693876
0.046883974
0.047072931
0.047259287
0.047441458
0.047611294
0.047778283
0.047937757
0.048086787
0.048223701
0.048346826
0.048454488
0.048545018
0.048616761
0.048668087
0.048697398
0.048703148
0.048684398
0.048638846
0.048565197
0.048462379
0.048329196
0.048164584
0.047967582
0.047737296
0.047473288
0.044489699
0.044429161
0.044386943
0.044362463
0.044355292
0.044364512
0.044390134
0.044431832
0.044488725
0.044560228
0.044645721
0.044744543
0.044855995
0.044979329
0.045113753
0.045258373
0.045411896
0.045568974
0.045737611
0.045914245
0.04609611
0.046282025
0.046470762
0.046661041
0.046851528
0.047040828
0.047227488
0.047409959
0.047580041
0.047746988
0.047906575
0.048055674
0.048192616
0.048315735
0.048423359
0.048513824
0.048585479
0.048636697
0.048665884
0.048671496
0.048652602
0.048606891
0.048533084
0.048430112
0.048296788
0.048132045
0.047934924
0.04770453
0.047440433
0.044412433
0.044355323
0.044316306
0.044294814
0.044290422
0.044302168
0.044330322
0.044374275
0.044433272
0.044506735
0.04459405
0.044694565
0.044807584
0.044932372
0.04506815
0.045214031
0.04536778
0.045526247
0.045696635
0.045874002
0.046056569
0.046243126
0.046432438
0.046623227
0.046814162
0.047003856
0.047190869
0.047373679
0.047544058
0.047710951
0.047870669
0.048019846
0.04815682
0.048279931
0.048387511
0.0484779
0.048549453
0.048600546
0.048629589
0.048635042
0.048615983
0.048570091
0.048496104
0.048392956
0.048259468
0.048094573
0.047897313
0.047666798
0.047402603
0.044324405
0.044271189
0.04423581
0.044217712
0.044216459
0.04423112
0.044262133
0.04430865
0.044370042
0.044445735
0.044535126
0.044637566
0.044752371
0.044878816
0.045016148
0.045163676
0.045317016
0.045477865
0.045649798
0.045828063
0.046011445
0.046198738
0.046388709
0.04658008
0.046771525
0.046961668
0.047149082
0.047332275
0.047503013
0.047669834
0.047829701
0.047978965
0.048115975
0.048239075
0.048346603
0.048436906
0.048508342
0.048559292
0.04858817
0.048593442
0.048574195
0.048528096
0.048453906
0.048350559
0.048216882
0.048051814
0.047854396
0.047623744
0.047359441
0.04422495
0.044176118
0.044144832
0.044130565
0.044132799
0.044150835
0.044185019
0.044234432
0.044298525
0.044376735
0.044468466
0.04457308
0.044689899
0.044818215
0.044957286
0.045106088
0.045259905
0.045423522
0.045596725
0.045776034
0.045960349
0.04614848
0.046339198
0.046531228
0.046723248
0.046913893
0.047101755
0.047285383
0.047456557
0.047623285
0.047783315
0.047932675
0.048069723
0.048192808
0.048300278
0.048390481
0.048461783
0.04851257
0.048541262
0.048546328
0.048526869
0.048480537
0.048406118
0.048302546
0.048168657
0.048003391
0.047805794
0.04757499
0.047310566
0.044113379
0.044069445
0.044042732
0.044032747
0.044038851
0.04406073
0.044098415
0.044151074
0.044218192
0.044299221
0.044393574
0.04450062
0.044619692
0.044750105
0.044891174
0.045040884
0.045196141
0.045362529
0.045537018
0.045717503
0.045902874
0.046091951
0.046283509
0.046476279
0.046668942
0.046860144
0.047048498
0.047232608
0.047404328
0.047570932
0.047731134
0.047880597
0.048017685
0.048140753
0.048248154
0.048338244
0.048409395
0.048459998
0.048488479
0.048493315
0.048473616
0.048427024
0.048352347
0.048248524
0.048114395
0.047948907
0.047751111
0.047520136
0.047255578
0.043988991
0.043950491
0.043928852
0.043923607
0.043934024
0.043960193
0.044001746
0.044058013
0.044128496
0.04421266
0.044309928
0.044419677
0.044541251
0.044673996
0.044817519
0.044967426
0.045125432
0.045294303
0.045470233
0.045652037
0.045838593
0.046028729
0.046221226
0.046414819
0.046608197
0.046800011
0.046988895
0.047173524
0.047345952
0.047512392
0.047672759
0.047822333
0.047959462
0.048082509
0.048189831
0.048279794
0.048350773
0.04840117
0.048429415
0.048433992
0.048414025
0.048367142
0.048292179
0.048188076
0.04805368
0.047887943
0.047689924
0.047458761
0.047194054
0.043851068
0.043818563
0.043802518
0.043802467
0.043817715
0.043848597
0.043894414
0.043954667
0.044028869
0.044116499
0.044216992
0.044329727
0.044454056
0.044589331
0.044734929
0.044886023
0.045047517
0.045218344
0.04539591
0.045579184
0.045767059
0.045958372
0.046151912
0.046346418
0.046540583
0.046733064
0.046922505
0.047107654
0.047281052
0.047447275
0.047607765
0.047757462
0.047894634
0.048017653
0.048124886
0.048214704
0.048285492
0.048335658
0.048363639
0.048367928
0.048347663
0.048300456
0.048225176
0.048120761
0.047986068
0.047820057
0.047621791
0.047390419
0.047125548
0.043698883
0.043672954
0.043663052
0.043668612
0.043689336
0.043725289
0.0437758
0.043840435
0.043918726
0.04401017
0.04411421
0.044230224
0.04435757
0.044495639
0.044642966
0.04479651
0.044961413
0.045134199
0.045313569
0.045498471
0.045687806
0.045880419
0.046075109
0.04627062
0.046465651
0.046658857
0.046848869
0.047034434
0.047209276
0.047375177
0.047535712
0.047685541
0.047822757
0.047945741
0.048052871
0.048142527
0.048213101
0.048263009
0.048290698
0.048294667
0.048274072
0.048226506
0.048150875
0.048046117
0.047911096
0.047744781
0.047546244
0.047314643
0.047049592
0.043531699
0.043512945
0.043509721
0.04352143
0.043548183
0.043589632
0.043645276
0.043714702
0.043797467
0.043893085
0.044001012
0.044120607
0.044251231
0.044392568
0.044540823
0.044698717
0.044866366
0.045041355
0.045222713
0.045409405
0.045600343
0.045794386
0.045990338
0.046186952
0.04638293
0.046576924
0.046767523
0.046953129
0.047130349
0.047295675
0.047456148
0.047606106
0.047743363
0.047866305
0.047973318
0.048062791
0.048133127
0.048182749
0.048210114
0.048213729
0.048192769
0.048144808
0.04806879
0.047963654
0.047828272
0.047661624
0.047462789
0.047230937
0.04696569
0.043348771
0.043337816
0.043341764
0.043360312
0.043393548
0.043440969
0.043502197
0.043576838
0.043664474
0.043764642
0.043876811
0.044000305
0.044134407
0.044278503
0.044429492
0.044591612
0.044761897
0.044939291
0.045122822
0.045311471
0.045504164
0.045699768
0.045897099
0.046094916
0.046291928
0.046486786
0.046678064
0.046864148
0.047042832
0.047208231
0.047368577
0.047518666
0.04765596
0.04777885
0.047885731
0.047975001
0.048045071
0.048094377
0.048121384
0.048124608
0.048103248
0.048054853
0.047978409
0.047872858
0.047737081
0.047570068
0.047370908
0.047138784
0.046873323
0.043149355
0.043146805
0.043158498
0.043184572
0.043224738
0.043278631
0.043345909
0.043426198
0.043519114
0.043624221
0.043741011
0.043868765
0.044006605
0.044152713
0.044308788
0.044474277
0.044647454
0.044827462
0.045013357
0.045204136
0.045398737
0.045596039
0.045794868
0.045993993
0.04619213
0.046387936
0.046579992
0.046766753
0.04694649
0.047112264
0.047272473
0.047422703
0.047560033
0.04768286
0.04778959
0.047878632
0.047948409
0.047997366
0.048023979
0.048026775
0.048004973
0.047956103
0.047879195
0.047773189
0.047636981
0.04746957
0.047270057
0.047037638
0.046771947
0.042940375
0.042932727
0.042939114
0.04295935
0.042993449
0.043041071
0.043101947
0.043175749
0.043262127
0.043360743
0.043471182
0.043592981
0.043725476
0.043865886
0.044016647
0.0441773
0.044346184
0.044522472
0.044705306
0.044893759
0.045086844
0.045283511
0.045482652
0.045683102
0.045883642
0.046082998
0.046279836
0.04647276
0.046660295
0.046840916
0.047007228
0.047167291
0.047317676
0.047455038
0.047577791
0.04768435
0.047773139
0.047842591
0.047891163
0.047917343
0.04791967
0.047897387
0.047847996
0.047770581
0.047664081
0.047527403
0.047359559
0.047159664
0.046926927
0.046660992
0.042695421
0.042698098
0.042714129
0.042743591
0.042786233
0.042841862
0.04291024
0.042991051
0.043083961
0.043188705
0.043304861
0.043431983
0.043568663
0.043713339
0.043869529
0.044034195
0.044206734
0.044386365
0.04457224
0.044763451
0.044959021
0.045157915
0.045359037
0.045561234
0.045763298
0.045963968
0.046161923
0.046355789
0.046544154
0.046725605
0.04689258
0.047052468
0.04720302
0.04734041
0.047463072
0.047569438
0.047657945
0.047727039
0.047775189
0.047800895
0.04780271
0.0477799
0.047729943
0.047651976
0.047544938
0.047407751
0.047239439
0.047039131
0.046806054
0.046539859
0.042431098
0.042444739
0.042471267
0.042510462
0.042562237
0.042626426
0.042702839
0.042791149
0.042891023
0.043002344
0.043124588
0.043257259
0.043397782
0.043549203
0.043709936
0.043878863
0.044055315
0.044238527
0.044427665
0.044621835
0.044820074
0.045021358
0.045224606
0.045428675
0.045632372
0.045834452
0.046033604
0.046228476
0.046417707
0.046599974
0.046767764
0.046927431
0.047078147
0.047215554
0.047338108
0.047444256
0.047532449
0.047601149
0.047648836
0.047674026
0.047675281
0.047651898
0.047601325
0.04752276
0.04741514
0.047277401
0.047108583
0.046907831
0.04667439
0.046407928
0.04214664
0.04217218
0.042209738
0.042259285
0.042320784
0.042394087
0.042479079
0.042575388
0.042682626
0.042801023
0.042929765
0.043066915
0.043214633
0.043371609
0.043537212
0.043710674
0.043891302
0.044078338
0.044270963
0.044468296
0.044669389
0.044873228
0.045078748
0.045284816
0.045490254
0.04569384
0.04589427
0.046090202
0.046280312
0.046463371
0.046632222
0.046791603
0.04694244
0.047079851
0.047202275
0.047308177
0.047396023
0.047464289
0.04751147
0.047536097
0.047536747
0.047512738
0.047461498
0.047382285
0.047274036
0.047135702
0.046966339
0.046765108
0.046531279
0.046264546
0.041815046
0.041841677
0.041879648
0.041928891
0.0419894
0.042061219
0.042144173
0.042238316
0.042343147
0.042458038
0.042584131
0.042718206
0.042863231
0.043017211
0.043179882
0.043350699
0.043528986
0.043714056
0.043905164
0.044101501
0.044302204
0.044506336
0.044712895
0.044920834
0.045129026
0.045336308
0.045541498
0.045743286
0.045940328
0.046131307
0.04631502
0.046485415
0.046644431
0.046795247
0.046932655
0.047054923
0.047160547
0.047248009
0.047315799
0.047362429
0.047386443
0.04738644
0.047361748
0.047309788
0.047229877
0.04712095
0.046981976
0.046812026
0.046610281
0.046376035
0.046109028
0.041474947
0.041515456
0.041566531
0.041628111
0.04170017
0.041782921
0.04187601
0.04197993
0.04209389
0.042216417
0.042349505
0.042492334
0.042644225
0.042804703
0.042973388
0.043149746
0.043333149
0.043522931
0.043718358
0.043918632
0.044122912
0.044330272
0.044539711
0.044750217
0.044960661
0.045169876
0.045376769
0.04558
0.045778206
0.045970036
0.046153885
0.046326915
0.046485352
0.046635935
0.046773297
0.046895377
0.047000686
0.047087724
0.047154995
0.047201024
0.047224373
0.047223673
0.047198229
0.047145495
0.047064833
0.046955178
0.046815516
0.046644937
0.046442638
0.046207938
0.045940623
0.041112348
0.041167409
0.041232261
0.041306839
0.04139097
0.041485334
0.041588886
0.041703324
0.041825243
0.041957622
0.042099381
0.042249991
0.042409153
0.042576458
0.042751482
0.042933699
0.043122508
0.043317272
0.043517266
0.043721696
0.04392976
0.044140538
0.044353006
0.044566232
0.044779062
0.044990268
0.045198969
0.04540374
0.045603186
0.045795976
0.045980439
0.046154908
0.046313503
0.046463798
0.046601077
0.04672293
0.046827887
0.046914458
0.046981162
0.047026539
0.047049169
0.047047719
0.047021459
0.046967894
0.046886426
0.04677599
0.046635592
0.046464339
0.046261445
0.046026251
0.0407268
0.040797017
0.040876316
0.040964602
0.041061147
0.041168069
0.04128194
0.041406418
0.041539428
0.041681251
0.041831735
0.041990537
0.042157355
0.042331827
0.04251352
0.042701907
0.042896403
0.043096418
0.043301229
0.04351002
0.043722074
0.043936471
0.044152086
0.044368197
0.044583584
0.044796748
0.04500739
0.045213807
0.045414577
0.045608448
0.045793647
0.04596909
0.046128125
0.046278116
0.04641527
0.046536854
0.046641415
0.046727475
0.046793562
0.046838232
0.046860085
0.046857829
0.046830687
0.046776233
0.046693902
0.046582632
0.046441448
0.046269477
0.04606595
0.045830289
0.040317898
0.040403784
0.04049821
0.040601131
0.040709832
0.040829019
0.040955704
0.04109107
0.041234604
0.041386284
0.041545955
0.041713348
0.041888187
0.042070168
0.04225886
0.042453725
0.042654173
0.042859707
0.043069592
0.043282915
0.043499168
0.043717425
0.043936211
0.044155398
0.044373655
0.044588491
0.044801306
0.045009478
0.045211646
0.045406712
0.045592646
0.045768902
0.04592854
0.046078175
0.046215121
0.046336387
0.046440513
0.046526016
0.046591434
0.04663534
0.046656355
0.046653231
0.04662514
0.046569742
0.046486487
0.046374326
0.046232306
0.046059571
0.045855366
0.045619206
0.039885276
0.039987197
0.040097414
0.040214485
0.040338011
0.04046974
0.040608887
0.040755774
0.040910234
0.041072184
0.041241461
0.041417824
0.04160102
0.041790847
0.041986874
0.042188528
0.042395148
0.042606474
0.042821734
0.043039663
0.043260323
0.043482832
0.043704544
0.043927041
0.044148957
0.044364413
0.044580029
0.044790028
0.044993615
0.04518972
0.045376739
0.045553833
0.045714101
0.045863285
0.045999837
0.046120745
0.046224399
0.046309299
0.046373993
0.046417076
0.046437188
0.046433133
0.046404024
0.046347622
0.046263381
0.046150274
0.046007369
0.045833829
0.045628918
0.045392222
0.039429099
0.039548212
0.039673946
0.039805908
0.039944078
0.040089185
0.040241122
0.040400015
0.040565812
0.040738431
0.040917712
0.041103409
0.04129524
0.04149324
0.041696949
0.041905731
0.042118635
0.042336043
0.042557131
0.042779476
0.043004726
0.043232417
0.043456014
0.043682064
0.043906389
0.044126204
0.04434316
0.044554782
0.044759774
0.044956968
0.045144989
0.045322878
0.045484139
0.045632805
0.045768525
0.045889112
0.045992273
0.046076525
0.04614044
0.046182635
0.046201778
0.046196723
0.046166527
0.046109058
0.046023771
0.045909662
0.045765823
0.045591439
0.045385801
0.045148539
0.038948888
0.039085483
0.039227473
0.039374892
0.039527908
0.03968692
0.039852032
0.040023347
0.040200869
0.04038454
0.040574211
0.040769614
0.04097023
0.041176732
0.041388496
0.041604879
0.041823854
0.042047657
0.042275588
0.042501378
0.042731189
0.042962752
0.043192059
0.043421011
0.043647789
0.04387076
0.044089661
0.044302966
0.044509371
0.044707658
0.044896539
0.045074996
0.045237373
0.045386154
0.045520946
0.045640673
0.045743331
0.045826885
0.045889957
0.045931197
0.045949299
0.045943176
0.045911821
0.04585322
0.045766826
0.04565166
0.04550684
0.045331578
0.045125191
0.044887342
0.038444706
0.038599087
0.038757832
0.038921152
0.039089318
0.039262636
0.039441286
0.039625388
0.039814985
0.040010052
0.040210495
0.040416104
0.040625311
0.040840703
0.041060898
0.041285889
0.041509755
0.041740209
0.04197341
0.042206415
0.042441033
0.042676187
0.042909975
0.043142284
0.043371933
0.043597703
0.043818744
0.044033805
0.044241636
0.044440997
0.044630578
0.044808956
0.044973725
0.045121581
0.045256676
0.045374829
0.045476764
0.045559559
0.045621719
0.04566193
0.045678918
0.045671654
0.045639068
0.045579268
0.045491705
0.045375428
0.045229583
0.045053409
0.044846253
0.044607803
0.037916693
0.038089129
0.038264984
0.038444555
0.038628167
0.038816119
0.039008621
0.03920582
0.039407788
0.039614537
0.03982609
0.040042978
0.040259512
0.040484561
0.040713239
0.040945011
0.041178123
0.04141468
0.04165326
0.041892364
0.042132021
0.042371421
0.042609387
0.042845225
0.043077924
0.043306409
0.043529667
0.043746532
0.0439558
0.044156235
0.044346538
0.044525314
0.044691005
0.044838295
0.04497391
0.045091367
0.045191797
0.045273729
0.045334895
0.045373999
0.045389794
0.045381316
0.045347423
0.045286358
0.045197565
0.045080126
0.044933213
0.044756096
0.044548153
0.044309094
0.037365096
0.037555792
0.037749008
0.03794509
0.038144398
0.038347242
0.038553857
0.038764405
0.038978979
0.039197591
0.039420178
0.039646561
0.039875243
0.040108736
0.040345569
0.040584976
0.040826137
0.041069375
0.04131393
0.041558862
0.041803671
0.042047597
0.042289706
0.042529159
0.042764995
0.042996189
0.043221696
0.043440391
0.043651098
0.043852604
0.044043642
0.044222889
0.044389005
0.044536113
0.044670951
0.04478933
0.044887708
0.044968559
0.045028653
0.045066568
0.045081089
0.045071319
0.045036046
0.044973648
0.044883567
0.044764914
0.044616895
0.044438808
0.044230063
0.043990394
0.036790286
0.036999365
0.037210101
0.037422867
0.037638052
0.03785598
0.038076904
0.038301
0.038528372
0.038759036
0.03899291
0.039229804
0.039469302
0.039712023
0.039957383
0.040204789
0.040453683
0.040703831
0.040954642
0.041205388
0.041455429
0.041704015
0.041950301
0.042193419
0.042432432
0.042666344
0.042894112
0.043114637
0.043326773
0.043529333
0.043721086
0.043900768
0.044067107
0.044214116
0.044348236
0.044466493
0.044563883
0.044643233
0.04470217
0.044738809
0.044751972
0.044740833
0.044704104
0.044640308
0.044548881
0.044428969
0.044279807
0.044100728
0.043891173
0.043650898
0.036192764
0.036420266
0.036648582
0.036878116
0.037109278
0.037342411
0.037577775
0.037815558
0.038055875
0.038298754
0.038544137
0.038791892
0.039041859
0.039294089
0.039548232
0.039803831
0.040060419
0.040317593
0.040574804
0.040831409
0.041086739
0.041340056
0.041590549
0.041837359
0.042079564
0.04231619
0.04254621
0.042768549
0.042982086
0.043185662
0.043378084
0.043558133
0.04372458
0.043871469
0.044004748
0.044122454
0.044219356
0.044296987
0.044354647
0.044389913
0.044401632
0.044389044
0.044350785
0.044285528
0.044192702
0.044071486
0.043921152
0.043741065
0.043530698
0.043289831
0.03557316
0.035819051
0.036064902
0.036311191
0.036558346
0.036806724
0.037056589
0.037308136
0.037561488
0.037816691
0.038073712
0.038332462
0.038592825
0.038854686
0.039117761
0.039381665
0.039645972
0.039910235
0.040173922
0.040436423
0.040697075
0.040955152
0.041209864
0.041460367
0.041705757
0.041945077
0.042177322
0.042401437
0.042616327
0.042820862
0.043013882
0.043194214
0.043360678
0.043507407
0.043639653
0.043756282
0.043853483
0.043929193
0.043985293
0.044019096
0.044029285
0.044015171
0.043975311
0.043908531
0.043814256
0.043691701
0.043540171
0.043359066
0.043147894
0.042906456
0.034932187
0.035196454
0.035459648
0.035722574
0.035985642
0.036249229
0.036513579
0.036778893
0.037045304
0.03731287
0.037581578
0.037851358
0.038122098
0.038393636
0.038665707
0.038937967
0.039210013
0.03948139
0.039751578
0.040019985
0.040285961
0.040548794
0.040807712
0.041061884
0.041310427
0.041552401
0.041786821
0.042012655
0.042228831
0.042434245
0.04262777
0.042808274
0.042974659
0.043121275
0.043252398
0.043368109
0.043464613
0.043539021
0.043593372
0.043625621
0.043634193
0.043618477
0.043576947
0.043508589
0.043412822
0.043288897
0.043136155
0.042954031
0.04274207
0.042500094
0.034270361
0.03455353
0.034833521
0.035112881
0.035391675
0.035670365
0.035949101
0.036228105
0.036507524
0.03678742
0.037067787
0.037348565
0.037629641
0.03791084
0.038191909
0.038472521
0.038752288
0.039030762
0.039307432
0.03958172
0.03985299
0.040120543
0.040383622
0.040641414
0.040893051
0.041137616
0.041374141
0.041601616
0.041818992
0.042025187
0.042219095
0.042399612
0.042565731
0.042712524
0.042842384
0.042957
0.043052394
0.04312574
0.043178208
0.043208805
0.043215677
0.043198284
0.043155022
0.043085036
0.04298774
0.042862424
0.042708463
0.042525331
0.042312607
0.042070138
0.03359257
0.033894197
0.034187121
0.034482887
0.034777054
0.035070726
0.035363646
0.035656172
0.035948472
0.036240587
0.036532513
0.036824194
0.037115517
0.037406303
0.037696306
0.037985211
0.038272638
0.038558148
0.038841238
0.039121344
0.03939784
0.039670041
0.039937206
0.040198538
0.040453187
0.040700254
0.040938791
0.04116781
0.041386283
0.041593146
0.041787302
0.041967605
0.042132787
0.042280983
0.042409127
0.042522277
0.042616091
0.042688931
0.042739254
0.042768043
0.042773133
0.042753997
0.042708946
0.042637291
0.042538439
0.042411719
0.042256544
0.042072425
0.041858978
0.041616074
0.032895283
0.033211895
0.033526868
0.03383492
0.034142372
0.034451151
0.034757842
0.03506362
0.035368606
0.035672757
0.035976067
0.036278488
0.036579907
0.036880146
0.037178961
0.037476042
0.037771018
0.038063455
0.038352859
0.038638675
0.03892029
0.039197032
0.039468175
0.039732938
0.039990486
0.040239941
0.040480376
0.040710822
0.040930275
0.041137692
0.041331996
0.041512067
0.041676728
0.041824761
0.041951843
0.042063491
0.042155835
0.042227362
0.042275943
0.042302816
0.042306059
0.042285121
0.042238234
0.042164878
0.042064454
0.041936329
0.041779957
0.041594886
0.04138077
0.041137504
0.032185659
0.032514939
0.032842214
0.033169414
0.033495295
0.033813166
0.034132372
0.034451083
0.034768552
0.035084473
0.03539891
0.035711833
0.036023131
0.036332625
0.036640068
0.036945154
0.037247512
0.037546717
0.03784228
0.038133657
0.038420244
0.038701383
0.038976361
0.039244411
0.039504719
0.039756423
0.039998616
0.040230354
0.040450654
0.0406585
0.040852845
0.041032613
0.041196707
0.041344051
0.041470102
0.041580204
0.041671011
0.041740945
0.041787832
0.041812739
0.041814084
0.041791288
0.041742531
0.041667453
0.041565453
0.041435937
0.041278399
0.041092426
0.04087771
0.040634169
0.031454124
0.031802548
0.032149195
0.032486072
0.032824782
0.033161765
0.033490876
0.033819276
0.034149187
0.03447646
0.034801664
0.035124773
0.035445665
0.035764151
0.036079979
0.036392837
0.036702358
0.03700812
0.03730964
0.037606382
0.037897752
0.038183103
0.038461737
0.038732901
0.038995798
0.039249584
0.039493376
0.039726249
0.039947246
0.04015538
0.040349637
0.040528981
0.04069237
0.040838774
0.040963692
0.041072152
0.041161313
0.041229493
0.041274726
0.041297599
0.041297008
0.041272288
0.04122164
0.041144836
0.04104127
0.04091039
0.040751733
0.040564924
0.040349694
0.040105986
0.030710412
0.031074527
0.031435185
0.031792418
0.032139906
0.0324868
0.032831982
0.033176393
0.033512004
0.0338496
0.034185117
0.034518024
0.034848161
0.035175315
0.035499221
0.035819562
0.036135971
0.036448025
0.03675525
0.037057115
0.037353036
0.037642376
0.03792445
0.03819852
0.038463806
0.038719483
0.038964686
0.039198517
0.039420044
0.039628306
0.039822325
0.040001101
0.040163632
0.04030892
0.040432578
0.04053928
0.040626659
0.040692834
0.040736722
0.040757387
0.040754813
0.040728094
0.040675565
0.04059704
0.040491933
0.040359735
0.040200022
0.040012462
0.039796822
0.039553071
0.029955687
0.030333894
0.030707982
0.03107821
0.031444822
0.031801172
0.032155104
0.032510688
0.032863244
0.03320648
0.033550221
0.033892491
0.03423147
0.034566911
0.034898531
0.035226007
0.03554897
0.035867
0.036179626
0.036486325
0.036786521
0.037079587
0.037364849
0.037641585
0.03790903
0.038166378
0.038412786
0.038647377
0.038869245
0.039077461
0.039271075
0.039449125
0.039610643
0.039754663
0.03987694
0.039981777
0.040067312
0.040131546
0.040173584
0.040192236
0.040187667
0.040158926
0.040104537
0.040024313
0.039917707
0.039784252
0.039623567
0.039435358
0.039219432
0.038975783
0.029191944
0.029583017
0.029969597
0.030351931
0.03073021
0.031104536
0.031468289
0.03182983
0.032192417
0.032551524
0.032900811
0.033249308
0.033596678
0.033939971
0.034278884
0.034613087
0.034942213
0.035265846
0.035583521
0.035894718
0.03619887
0.03649536
0.036783524
0.037062654
0.037332
0.037590774
0.037838155
0.038073288
0.038295295
0.038503273
0.038696305
0.038873462
0.039033813
0.039176425
0.039297204
0.039400077
0.039483693
0.039545928
0.039585951
0.039602594
0.039596029
0.039565276
0.039509055
0.039427174
0.039319131
0.039184502
0.039022947
0.038834212
0.038618144
0.03837476
0.028421524
0.028824272
0.029222275
0.029615732
0.03000474
0.030389123
0.03076792
0.031143802
0.031507681
0.031875354
0.032239558
0.032593219
0.032945154
0.03329581
0.033641534
0.033981995
0.034316833
0.034645642
0.034967961
0.035283276
0.035591025
0.035890599
0.036181343
0.036462564
0.036733525
0.036993458
0.03724156
0.037477001
0.037698927
0.037906464
0.038098727
0.038274822
0.038433851
0.038574921
0.038694095
0.038794908
0.03887653
0.038936699
0.038974633
0.038989251
0.038980695
0.038947953
0.038889943
0.038806467
0.038697069
0.038561368
0.038399065
0.038209949
0.037993903
0.037750967
0.027647008
0.028060206
0.028468491
0.028872036
0.029270953
0.029665279
0.030055144
0.030441964
0.030816181
0.031186057
0.031558283
0.031925851
0.032282053
0.03263608
0.032988064
0.033334241
0.033674276
0.034007778
0.03433429
0.034653299
0.034964246
0.035266529
0.035559501
0.035842481
0.036114748
0.03637555
0.036624104
0.036859602
0.037081216
0.037288101
0.0374794
0.037654257
0.037811812
0.037951216
0.038068695
0.038167365
0.038246921
0.038304966
0.038340768
0.038353366
0.038342828
0.038308136
0.038248397
0.038163408
0.038052757
0.037916106
0.0377532
0.037563866
0.037348026
0.037105742
0.026443778
0.026871258
0.027293595
0.027710941
0.028123426
0.028531142
0.028934142
0.02933249
0.029726345
0.030115193
0.030492238
0.03086571
0.031240092
0.031608964
0.031965832
0.032320443
0.032671697
0.033016338
0.033353997
0.033684208
0.03400645
0.034320164
0.034624749
0.03491957
0.035203953
0.035477195
0.035738558
0.035987279
0.036222573
0.036443634
0.036649646
0.036839783
0.037013221
0.037169147
0.037306768
0.037422506
0.03751897
0.037596394
0.037652262
0.037685875
0.037696543
0.037684022
0.037647432
0.037586042
0.037499642
0.03738786
0.037250404
0.037087058
0.036897691
0.03668226
0.03644085
0.025662077
0.026097317
0.026527455
0.026952592
0.027372808
0.027788153
0.028198643
0.028604266
0.029004977
0.029400596
0.029790968
0.030169215