/*--------------------------------*- C++ -*----------------------------------*\
| =========                 |                                                 |
| \\      /  F ield         | OpenFOAM: The Open Source CFD Toolbox           |
|  \\    /   O peration     | Version:  2312                                  |
|   \\  /    A nd           | Website:  www.openfoam.com                      |
|    \\/     M anipulation  |                                                 |
\*---------------------------------------------------------------------------*/
FoamFile
{
    version     2.0;
    format      ascii;
    arch        "LSB;label=32;scalar=64";
    class       volScalarField;
    location    "0.05";
    object      f_Bilger;
}
// * * * * * * * * * * * * * * * * * * * * * * * * * * * * * * * * * * * * * //

dimensions      [0 0 0 0 0 0 0];

internalField   nonuniform List<scalar> 
3250
(
0.12294706
0.12179397
0.12066521
0.11955872
0.11847612
0.11742887
0.11642586
0.11538405
0.11435161
0.1133288
0.11231331
0.11130294
0.11029561
0.10928948
0.10828289
0.10727456
0.10626341
0.10524697
0.10426094
0.10322596
0.10217577
0.10111475
0.10004145
0.098954547
0.097852733
0.096734146
0.095593356
0.09446003
0.093328716
0.09215074
0.090949535
0.089728294
0.088486592
0.087224224
0.08594108
0.084637132
0.08331244
0.081967158
0.080601545
0.079215961
0.07785249
0.076439129
0.075000057
0.073543602
0.072071122
0.070584394
0.069083325
0.067569314
0.0660438
0.12292012
0.12176821
0.12064056
0.11953491
0.11845171
0.11740944
0.1164049
0.11536349
0.11433194
0.11330992
0.11229516
0.11128545
0.11027876
0.10927323
0.10826719
0.10725932
0.10624865
0.10523348
0.1042476
0.1032125
0.10216288
0.10110235
0.1000295
0.098943011
0.097841593
0.096723468
0.095584045
0.094448806
0.093318865
0.092141408
0.090940488
0.089719549
0.088478149
0.087216082
0.085933233
0.084629577
0.083305173
0.081960176
0.080594845
0.079209546
0.077846341
0.076433246
0.074994478
0.073538427
0.072066272
0.070579484
0.069078514
0.067564598
0.066039337
0.12286671
0.12171711
0.1205916
0.11948761
0.11840217
0.11737219
0.11636315
0.11532265
0.1142928
0.1132723
0.11225892
0.11125051
0.11024505
0.10924065
0.10823566
0.10722868
0.1062189
0.10520642
0.1042206
0.10318522
0.10213662
0.10107698
0.10000495
0.09891923
0.097818557
0.096701314
0.095564027
0.094425808
0.093297872
0.092121502
0.090921137
0.089700727
0.088459847
0.087198291
0.085915946
0.084612783
0.083288864
0.081944345
0.080579485
0.079194656
0.07783189
0.076419214
0.074980914
0.073525373
0.072053676
0.070567106
0.069066415
0.067552767
0.066027866
0.12278691
0.12164073
0.12051845
0.1194173
0.11833338
0.11731145
0.1163
0.1152616
0.11423422
0.11321596
0.11220464
0.11119815
0.11019448
0.10919177
0.10818832
0.10718265
0.10617398
0.1051661
0.10417972
0.10314416
0.102097
0.10103863
0.099967785
0.098883175
0.097783581
0.09666763
0.095534254
0.094389968
0.093265718
0.092090988
0.090891425
0.089671764
0.088431617
0.08717078
0.085889141
0.08458667
0.08326343
0.081919578
0.080555375
0.079171196
0.077809038
0.076396932
0.07495926
0.073504362
0.072033263
0.070547143
0.069046913
0.067533714
0.066009306
0.12268081
0.12153916
0.12042119
0.11932411
0.11824397
0.11722851
0.11621554
0.11518044
0.11415628
0.11314096
0.11213236
0.1111284
0.1101271
0.10912662
0.10812521
0.10712127
0.10611349
0.10511319
0.10412456
0.10308944
0.10204403
0.10098733
0.099918019
0.098834852
0.097736642
0.096622196
0.095490984
0.094344976
0.093222667
0.092049885
0.090851343
0.089632648
0.088393445
0.087133534
0.085852801
0.084551219
0.08322885
0.081885852
0.080522489
0.07913914
0.077777758
0.076366369
0.074929489
0.073475377
0.072005027
0.070519556
0.069019967
0.067507399
0.065983639
0.12255609
0.12141973
0.12030683
0.11921473
0.11813968
0.11712994
0.11611609
0.11508505
0.11406462
0.11305273
0.1120473
0.1110463
0.11004778
0.10904991
0.10805092
0.10704906
0.10604101
0.10505276
0.10405857
0.10302495
0.10198156
0.10092677
0.099859249
0.098777751
0.097681124
0.096568267
0.095438678
0.094292788
0.093171836
0.092001177
0.090803792
0.089586209
0.088348093
0.087089249
0.085809561
0.084509
0.083187632
0.081845616
0.080483218
0.079100819
0.077740325
0.076329752
0.074893772
0.073440545
0.071971047
0.070486362
0.068987544
0.067475735
0.065952742
0.12241659
0.12128613
0.12017889
0.11909242
0.11802334
0.11701908
0.11600487
0.11497838
0.11396208
0.112954
0.11195209
0.11095438
0.10995896
0.108964
0.10796774
0.10696844
0.10596284
0.10498247
0.10398379
0.10295263
0.10191152
0.10085886
0.099793313
0.098713664
0.097618775
0.0965076
0.095379549
0.094234493
0.093114768
0.091946406
0.090750284
0.089533928
0.088297015
0.087039349
0.085760813
0.084461381
0.083141117
0.081800184
0.080438848
0.079057495
0.077697979
0.076288302
0.074853307
0.073401047
0.071932486
0.070448691
0.068950744
0.067439803
0.065917677
0.12225145
0.12112793
0.12002734
0.11894755
0.11788585
0.11688731
0.11587331
0.11485212
0.11384067
0.11283705
0.11183929
0.11084547
0.1098537
0.10886217
0.10786915
0.10687308
0.10587195
0.10489725
0.10389484
0.10286683
0.10182844
0.10077828
0.099715055
0.098637576
0.097544722
0.09643547
0.095309137
0.094165366
0.093046952
0.091881274
0.090686622
0.089471705
0.088236205
0.086979921
0.085702738
0.084404628
0.083085658
0.081745994
0.080385903
0.079005774
0.077647403
0.076238769
0.074804925
0.073353793
0.071886329
0.070403591
0.068906683
0.067396774
0.065875682
0.12205886
0.12094339
0.11985047
0.11877839
0.11772582
0.11673305
0.11572003
0.11470492
0.11369905
0.11270059
0.11170766
0.11071834
0.10973081
0.10874327
0.107754
0.10676167
0.10576711
0.10479616
0.103791
0.10276664
0.1017314
0.10068412
0.099623578
0.098548614
0.097458115
0.096351066
0.095226697
0.09408454
0.09296756
0.09180501
0.09061205
0.089398802
0.08816494
0.086910258
0.085634641
0.084338061
0.083020589
0.081682393
0.080323743
0.07894503
0.07758798
0.076180552
0.074748035
0.073298204
0.07183201
0.070350508
0.068854816
0.067346117
0.065826234
0.12183696
0.12073068
0.11964648
0.11858302
0.11754209
0.11655457
0.11554357
0.11453535
0.11353583
0.11254328
0.11155586
0.11057172
0.10958906
0.10860609
0.10762106
0.10663262
0.10564768
0.10467791
0.10367144
0.10265109
0.10161941
0.10057541
0.099517939
0.098445854
0.097358058
0.096253526
0.095131409
0.093991141
0.092875716
0.091716792
0.090525769
0.089314437
0.088082454
0.08682961
0.085555788
0.084260962
0.082945205
0.08160869
0.080251691
0.078874598
0.077519062
0.076113012
0.074682012
0.073233668
0.071768931
0.070288854
0.068794566
0.067287265
0.065768779
0.12158379
0.12048793
0.11941347
0.11835915
0.11733396
0.11634978
0.1153424
0.1143419
0.11334954
0.11236368
0.11138252
0.11040427
0.10942714
0.10844937
0.10746907
0.10648374
0.10551388
0.10454058
0.10353532
0.10251917
0.10149145
0.10045115
0.099397143
0.098328324
0.097243603
0.096141938
0.095022395
0.093884277
0.092770488
0.091615746
0.09042693
0.089217782
0.087987939
0.086737184
0.085465401
0.084172567
0.082858758
0.081524153
0.080169028
0.078793777
0.077439958
0.076035473
0.074606195
0.073159538
0.071696456
0.070218006
0.068725324
0.067219621
0.065702732
0.12129734
0.12021318
0.11914953
0.11810375
0.11710182
0.11611586
0.11511501
0.11412302
0.11313866
0.1121603
0.11118618
0.11021457
0.1092437
0.10827177
0.10729692
0.10631885
0.10535987
0.10438243
0.10338133
0.10236977
0.10134643
0.10031025
0.099260138
0.098194999
0.097113751
0.096015338
0.094898733
0.093763034
0.09265088
0.091500934
0.090314636
0.089107963
0.087880538
0.086632142
0.085362659
0.084072071
0.082760459
0.081428007
0.080074997
0.078701824
0.077349941
0.075947222
0.074519882
0.073075128
0.071613916
0.070137305
0.068646444
0.067142552
0.065627473
0.12097551
0.1199044
0.11885295
0.11782123
0.11683701
0.11585128
0.11485965
0.11387704
0.11290158
0.11193158
0.11096534
0.11000116
0.1090373
0.10807193
0.10710287
0.10613618
0.10518365
0.10420379
0.10320815
0.10220168
0.10118318
0.10015159
0.099105822
0.098044797
0.096967451
0.095872712
0.094759461
0.093626492
0.092515815
0.091371345
0.090187944
0.08898406
0.08775935
0.086513599
0.085246694
0.083958622
0.082649472
0.081319434
0.079968797
0.078597954
0.077248244
0.075847505
0.074422337
0.072979714
0.071520598
0.070046056
0.068557242
0.067055389
0.065542347
0.12061616
0.11955951
0.1185212
0.11750906
0.1165379
0.11555504
0.11457441
0.11360223
0.11263662
0.11167591
0.11071842
0.10976251
0.1088065
0.10784844
0.10688436
0.1059354
0.10498302
0.10400416
0.10301452
0.10201367
0.10100051
0.099973989
0.098933032
0.097876583
0.096803592
0.095712993
0.094603588
0.093473767
0.092364103
0.091225861
0.090045869
0.088845102
0.087623422
0.086380622
0.085116592
0.083831325
0.082524917
0.08119757
0.079849581
0.078481342
0.077134055
0.075735528
0.07431278
0.072872533
0.071415756
0.069943523
0.068456998
0.066957427
0.065446664
0.12021707
0.11917639
0.11815077
0.11716655
0.11620203
0.11522569
0.11425745
0.11329679
0.11234205
0.11139158
0.11044375
0.10949702
0.10854976
0.10760011
0.10664563
0.10570991
0.10475537
0.10378235
0.10279913
0.10180442
0.10079714
0.099776194
0.098740548
0.09768916
0.096621007
0.095535049
0.094430087
0.093304103
0.09219438
0.091063213
0.089887403
0.088690072
0.087471754
0.086232229
0.084971388
0.08368923
0.082385864
0.081061505
0.079716459
0.078351117
0.077006523
0.075610455
0.074190391
0.072752779
0.071298598
0.069828931
0.068344953
0.06684792
0.065339696
0.11977602
0.11875326
0.11774663
0.11678535
0.11582537
0.11486177
0.11390688
0.11295886
0.11201606
0.11107683
0.11013962
0.10920304
0.10826548
0.10732506
0.10638456
0.10545627
0.10450218
0.10353674
0.10256056
0.10157259
0.10057172
0.0995569
0.098527089
0.097481272
0.096418461
0.095337679
0.094237866
0.093117096
0.092004966
0.090882023
0.089711441
0.088517889
0.08730329
0.086067385
0.084810067
0.083531343
0.082231335
0.080910277
0.07956849
0.078206362
0.076864751
0.075471406
0.074054307
0.072619605
0.071168293
0.069701465
0.068220305
0.066726084
0.065220672
0.11929065
0.11828742
0.11730575
0.11636155
0.11540904
0.114461
0.11352073
0.11258654
0.11165678
0.11072983
0.10980424
0.10887882
0.10795203
0.10702046
0.10610111
0.10517099
0.10422335
0.10326586
0.10229736
0.10131672
0.10032287
0.099314739
0.098291314
0.097251603
0.096194655
0.095119582
0.094025659
0.092913204
0.091793493
0.090680842
0.089516727
0.088327414
0.087116923
0.085885006
0.084631563
0.083356614
0.082060298
0.080742873
0.079404684
0.078046116
0.0767078
0.07531746
0.073903621
0.072472119
0.071023965
0.069560264
0.068082212
0.066591093
0.065088786
0.11875861
0.11777507
0.11682764
0.11589108
0.11495236
0.11402131
0.11309697
0.11217784
0.11126229
0.11034871
0.10943571
0.10852253
0.10760808
0.10669114
0.10578403
0.10485545
0.10391693
0.10296814
0.10200798
0.10103533
0.10004912
0.099048281
0.098031821
0.096998772
0.095948222
0.094879354
0.093791612
0.092685462
0.091564754
0.090458748
0.089302081
0.08811747
0.086911493
0.085683952
0.084434758
0.083163942
0.081871667
0.080558225
0.079224
0.077869374
0.076534687
0.075147651
0.073737382
0.072309387
0.070864696
0.069404428
0.067929789
0.066442078
0.064943185
0.11817789
0.11722202
0.11629936
0.11537338
0.11445342
0.11354059
0.11263352
0.11173075
0.11083062
0.10993153
0.10903209
0.10813206
0.10723125
0.10633604
0.10542961
0.10451003
0.10358127
0.10264193
0.10169084
0.10072687
0.099748946
0.098756035
0.097747149
0.096721343
0.095677739
0.094615562
0.093534278
0.092433986
0.091315621
0.090214917
0.089066329
0.087886832
0.086685789
0.08546303
0.084218477
0.082952172
0.081664302
0.080355208
0.079025339
0.077675088
0.07634439
0.07496097
0.073554594
0.072130427
0.070689521
0.069233008
0.067762105
0.066278126
0.064782975
0.11848913
0.11754514
0.11662656
0.11571611
0.11480911
0.11390982
0.11301664
0.11212824
0.11124319
0.11035977
0.10947637
0.10859148
0.10770487
0.10682792
0.10594086
0.10504105
0.10413269
0.10321462
0.10228554
0.10134428
0.10038971
0.099420775
0.098436452
0.097435775
0.096417821
0.095381734
0.094326759
0.093252309
0.092158092
0.091043886
0.08994806
0.0888082
0.087634216
0.086438542
0.085220996
0.083981496
0.082720095
0.081437006
0.080132631
0.078807537
0.077462174
0.076135849
0.074756363
0.073354214
0.071934211
0.07049743
0.069045013
0.067578186
0.06609828
0.064607219
0.11777201
0.11686802
0.11597191
0.11507984
0.11419627
0.11331927
0.11244723
0.11157894
0.1107131
0.10984769
0.10898135
0.10811248
0.10724617
0.10638538
0.10550509
0.10461784
0.10372164
0.10281518
0.10189722
0.10096659
0.10002218
0.09906296
0.098087921
0.097096121
0.096086656
0.095058685
0.094011465
0.09294434
0.091856709
0.090747778
0.089656663
0.088526302
0.087358269
0.086168428
0.084956548
0.083722537
0.082466449
0.081188522
0.079889236
0.07856935
0.077229533
0.075907974
0.074532735
0.073135151
0.071719662
0.070287364
0.068839405
0.067377014
0.065901538
0.06441493
0.11700628
0.11613085
0.11525608
0.11439076
0.11353246
0.11267944
0.11183006
0.1109834
0.11013837
0.10929226
0.10844455
0.10759406
0.10675278
0.10589685
0.10503151
0.10415806
0.10327503
0.10238113
0.10147517
0.10055601
0.099622558
0.098673804
0.097708775
0.096726552
0.095726245
0.094707021
0.093668153
0.092608946
0.091528572
0.090425776
0.089339067
0.088219094
0.087057574
0.085874066
0.084668335
0.083440272
0.082189924
0.08091754
0.079623679
0.078309411
0.076976098
0.075659653
0.07428894
0.072896262
0.071485655
0.07005822
0.068615101
0.067157525
0.06568685
0.064205073
0.11617724
0.11532636
0.11448287
0.11364644
0.11281529
0.11198801
0.1111628
0.1103393
0.109517
0.1086912
0.1078634
0.10704137
0.10620842
0.10536766
0.10451828
0.10365978
0.10279095
0.10191059
0.10101755
0.10011072
0.099189046
0.098251555
0.097297294
0.09632538
0.095334937
0.094325116
0.093295238
0.092244622
0.09117232
0.090076622
0.088993441
0.087884827
0.086730665
0.085554025
0.084354956
0.083133327
0.081889164
0.080622704
0.079334535
0.078026121
0.076700952
0.075389752
0.074023776
0.072636348
0.071231012
0.069808846
0.068370976
0.066918615
0.065453122
0.063976554
0.11609901
0.11527671
0.1144606
0.11365005
0.11284455
0.11204237
0.11124272
0.11044308
0.10964414
0.10884722
0.10804206
0.10724497
0.10643463
0.10561923
0.10479592
0.10396348
0.10312103
0.10226745
0.10140163
0.10052245
0.099628849
0.098719813
0.097794412
0.096851703
0.095890863
0.094911035
0.093911299
0.092891069
0.091849769
0.090786514
0.089699594
0.088617629
0.087521356
0.086376114
0.085206822
0.084014961
0.082800285
0.081562782
0.080302637
0.079020314
0.077717344
0.076403668
0.075097065
0.073735952
0.072354145
0.070954504
0.069538044
0.068105861
0.066659144
0.065199222
0.063728195
0.11509405
0.11431057
0.11353116
0.11275533
0.11198281
0.11121129
0.11044148
0.10966846
0.10889496
0.10812806
0.10735162
0.10656875
0.10577979
0.10498398
0.10417948
0.10336508
0.1025398
0.10170255
0.10085228
0.099987956
0.099108503
0.098212981
0.097300534
0.096370181
0.095421205
0.09445282
0.093463858
0.092453928
0.091422657
0.090369484
0.089295398
0.088208647
0.087126412
0.085992082
0.084830893
0.083646859
0.082439696
0.081209369
0.07995599
0.078679641
0.077379525
0.076085281
0.074780055
0.073424049
0.072048319
0.070654848
0.069244571
0.067818552
0.066377946
0.064924004
0.063458666
0.11401885
0.11327654
0.11253573
0.11179631
0.11105914
0.11031945
0.10958261
0.10883653
0.10810036
0.10735373
0.10660065
0.10584161
0.10507525
0.10430057
0.10351619
0.10272101
0.10191405
0.10109423
0.10026056
0.099412097
0.098547741
0.097666624
0.096768059
0.095850865
0.094914535
0.093958575
0.092981061
0.091982045
0.090961407
0.089918557
0.088855052
0.087771916
0.086699491
0.085577016
0.084424671
0.083249126
0.082050075
0.080827498
0.079581489
0.078312048
0.077018554
0.075737009
0.074436439
0.073086519
0.071717481
0.070330717
0.068927142
0.067507808
0.066073849
0.064626415
0.11287128
0.11217259
0.11147216
0.11077044
0.11007193
0.10936352
0.10866559
0.10795396
0.1072406
0.10652147
0.10579524
0.10506146
0.10431902
0.10356688
0.10280394
0.10202921
0.10124175
0.10044045
0.099624429
0.098792909
0.097944607
0.097078764
0.096195139
0.09529187
0.094368831
0.093426669
0.092461178
0.091473652
0.090464206
0.089431868
0.088378964
0.087303117
0.086239235
0.08512927
0.083986563
0.08282022
0.08162991
0.080415693
0.079177731
0.077916129
0.076630792
0.075359452
0.07406478
0.072721902
0.071360222
0.069980746
0.068584433
0.067172351
0.065745675
0.064305891
0.11164954
0.11099713
0.11033858
0.10967436
0.1090213
0.108351
0.10768144
0.10700416
0.10632139
0.10563148
0.10493334
0.1042262
0.10350906
0.10278086
0.10204063
0.10128757
0.10052084
0.099739174
0.098941827
0.098128445
0.09729715
0.096447311
0.095580034
0.09469135
0.093781677
0.092855773
0.091902466
0.090926999
0.089929352
0.088907765
0.087866215
0.086799427
0.085743602
0.084646944
0.083514972
0.082358595
0.081177659
0.079972425
0.07874319
0.077490228
0.07621384
0.074951922
0.073663734
0.072328828
0.070975128
0.069603546
0.068215084
0.066810846
0.065392056
0.063960403
0.11035236
0.10974933
0.10913396
0.10851528
0.10789652
0.10726758
0.10663322
0.10599083
0.10534058
0.10468154
0.10401287
0.10333379
0.1026434
0.10194048
0.10122421
0.10049401
0.099749356
0.098988383
0.09821059
0.097416847
0.0966035
0.095769847
0.09492133
0.094047738
0.093149502
0.092245553
0.091302943
0.090340284
0.089355315
0.088346316
0.087314875
0.086257578
0.085210096
0.084127757
0.083008422
0.081862741
0.080691759
0.079496115
0.078276264
0.07703264
0.075765778
0.074513225
0.073232002
0.071905851
0.070560766
0.069197702
0.067817706
0.066421921
0.065011614
0.063588567
0.10897553
0.10842035
0.10785467
0.10728186
0.10670322
0.10611511
0.10551846
0.10491226
0.10429619
0.1036696
0.10303181
0.10238222
0.1017201
0.10104378
0.10035264
0.09964637
0.098925429
0.098186142
0.097428252
0.096656515
0.095862132
0.095042874
0.094218467
0.093360598
0.092480397
0.091583951
0.090659305
0.089711359
0.088740029
0.087744248
0.086724209
0.085677315
0.084636243
0.08356879
0.082465992
0.081331212
0.080170621
0.078985136
0.077775306
0.076541666
0.075284874
0.074041953
0.07276822
0.071451503
0.070115684
0.068761782
0.06739089
0.066004187
0.064602976
0.063189076
0.10752053
0.10701587
0.10649994
0.10597401
0.1054386
0.10489237
0.10433527
0.10376676
0.10318643
0.10259376
0.10198824
0.10136946
0.10073742
0.10008895
0.099423958
0.098742243
0.098047564
0.097330845
0.096591343
0.095846518
0.095072924
0.094274539
0.093461622
0.092623166
0.09176179
0.090879037
0.089970906
0.089038434
0.088081642
0.087099897
0.086092913
0.085058566
0.08402402
0.082967149
0.081881213
0.080762462
0.079612595
0.078437822
0.077238642
0.076015619
0.074769463
0.073536607
0.072270952
0.070964315
0.069638425
0.068294349
0.066933219
0.065556252
0.064164776
0.062760625
0.10598604
0.10553398
0.1050688
0.10459105
0.10410096
0.10359804
0.1030821
0.10255277
0.10200968
0.10145239
0.10088039
0.10029331
0.099693957
0.09907434
0.098436445
0.097778256
0.097115199
0.096422164
0.095708032
0.094979367
0.094227189
0.093451825
0.092656236
0.091836819
0.090993856
0.090127433
0.089236053
0.088319725
0.08737834
0.086411555
0.085419358
0.084402313
0.083366989
0.082328503
0.081249383
0.080152591
0.079015889
0.077852453
0.076664584
0.075452828
0.074217915
0.072995651
0.071738721
0.07044282
0.069127533
0.067793964
0.06644328
0.065076725
0.063695655
0.062301908
0.10437138
0.10397363
0.10356046
0.10313222
0.1026891
0.10223096
0.10175766
0.10126896
0.10076456
0.10024406
0.099706819
0.099150697
0.09858931
0.097998497
0.097389501
0.096762083
0.096119527
0.095453437
0.094765707
0.094058369
0.093328325
0.092575114
0.091799303
0.09099952
0.090175464
0.089326829
0.088452903
0.087553453
0.086628301
0.085677252
0.084700379
0.083698221
0.082672188
0.081650514
0.080577628
0.079494055
0.078378359
0.077227285
0.07605145
0.074851641
0.07362862
0.072417541
0.071170044
0.069885551
0.068581562
0.067259205
0.065919673
0.064564237
0.063194274
0.061811628
0.10267636
0.10233436
0.10197444
0.10159699
0.10120224
0.10079024
0.10036094
0.099914234
0.099449907
0.098967711
0.09846735
0.097948676
0.097414591
0.09685751
0.096279966
0.095682461
0.095065572
0.09442628
0.093764617
0.093080955
0.09237405
0.091643359
0.090888718
0.090109425
0.089305078
0.088475304
0.087619659
0.086737877
0.085829765
0.084895189
0.083934196
0.082947054
0.081934033
0.080926695
0.079871129
0.078786406
0.07769692
0.076560753
0.075397598
0.074210437
0.073000004
0.071800754
0.070563448
0.069291069
0.067999096
0.066688677
0.065361029
0.064017446
0.062659323
0.061288512
0.10090134
0.1006162
0.10031066
0.099985132
0.099639952
0.099275296
0.098891232
0.098487744
0.09806474
0.097622095
0.097159686
0.096677512
0.096175827
0.095652058
0.095106541
0.094539443
0.093950655
0.09333892
0.092703855
0.09204528
0.091362536
0.090655137
0.089922733
0.089164847
0.088381096
0.087571132
0.086734626
0.085871333
0.084981073
0.084063736
0.08311932
0.082147927
0.081149618
0.080156314
0.079117376
0.0780417
0.076967115
0.075851125
0.074701384
0.073527642
0.07233054
0.07114381
0.069917503
0.068657972
0.06737876
0.066081031
0.064766026
0.063435057
0.062089539
0.060731331
0.099047128
0.098819736
0.098569456
0.098296808
0.098002205
0.09768593
0.097348157
0.096988966
0.096608368
0.096206325
0.095782782
0.095337667
0.094870729
0.094380955
0.093868183
0.093332321
0.092773106
0.092189885
0.091582239
0.090949844
0.090292242
0.089609019
0.088899814
0.08816425
0.087401991
0.086612741
0.085796236
0.08495227
0.084080689
0.083181397
0.082254357
0.08129958
0.080317084
0.079338293
0.078317133
0.077254618
0.076189319
0.075096138
0.073961207
0.072801755
0.071618777
0.0704453
0.069230846
0.067984928
0.066719247
0.065434987
0.064133407
0.062815841
0.061483722
0.060138915
0.097115128
0.096946057
0.096751698
0.096532649
0.096289409
0.096022353
0.095731744
0.095417752
0.095080469
0.09471993
0.094336117
0.093928942
0.093498149
0.093043259
0.092564037
0.092060293
0.091531751
0.090977992
0.090398651
0.089793397
0.089161868
0.088503716
0.087818619
0.087106267
0.086366382
0.085598719
0.084803071
0.083979275
0.083127214
0.08224681
0.081338012
0.080400764
0.07943499
0.078471316
0.07746975
0.076425832
0.075361046
0.074291992
0.073175895
0.072031426
0.070863375
0.069703917
0.068502209
0.067270697
0.066019342
0.064749351
0.063462006
0.062158658
0.06084076
0.059510183
0.095107305
0.094996832
0.094858773
0.09469379
0.094502466
0.094285243
0.094042466
0.093774381
0.093481152
0.093162872
0.092819566
0.092451178
0.092057537
0.091638382
0.091193508
0.090722718
0.090225769
0.089702357
0.089152179
0.088574947
0.087970365
0.087338146
0.086678021
0.08598974
0.085273079
0.084527849
0.083753897
0.08295111
0.082119415
0.081258773
0.080369145
0.079450417
0.078502233
0.077553623
0.076572251
0.075544873
0.074491463
0.073438215
0.072343905
0.071215348
0.070063116
0.068918488
0.067730455
0.066514162
0.065277949
0.06402305
0.062750772
0.061462484
0.060159655
0.058844164
0.093026256
0.092974333
0.092892655
0.092781924
0.092642812
0.092475794
0.092281292
0.092059617
0.091810994
0.091535567
0.091233412
0.090904521
0.090548809
0.09016613
0.089756332
0.08931925
0.088854689
0.088362417
0.087842199
0.087293795
0.086716969
0.086111492
0.085477152
0.084813753
0.084121129
0.083399145
0.082647703
0.081866744
0.081056254
0.080216256
0.079346791
0.078447801
0.077518576
0.076583398
0.075623161
0.074613711
0.073575882
0.072534416
0.07146384
0.070352404
0.06921698
0.068088027
0.066914616
0.065714368
0.064494126
0.063255161
0.061998802
0.060726438
0.059439551
0.058140026
0.09087511
0.090881133
0.090855955
0.090799338
0.090712482
0.090595766
0.090449742
0.090274758
0.090071086
0.089838924
0.089578392
0.089289539
0.088972346
0.088626746
0.088252641
0.087849914
0.087418417
0.086957983
0.086468431
0.085949578
0.085401243
0.084823252
0.084215448
0.083577691
0.082909868
0.0822119
0.081483743
0.080725398
0.079936916
0.07911841
0.07827009
0.077392379
0.076486466
0.075557276
0.074620926
0.073632496
0.072615691
0.071577301
0.07053344
0.069441856
0.068324242
0.067211797
0.066053937
0.06487055
0.063667116
0.062444941
0.061205374
0.059949818
0.058679768
0.057397115
0.088658214
0.088721565
0.08875161
0.088748702
0.088714191
0.088647527
0.088549933
0.088421682
0.088263085
0.088074392
0.087855765
0.087607301
0.087329036
0.087020961
0.086683031
0.086315175
0.085917298
0.085489283
0.085031004
0.084542331
0.084023135
0.083473297
0.08289271
0.082281289
0.081638974
0.080965738
0.080261594
0.079526597
0.078760863
0.077964579
0.077138044
0.076281751
0.075396536
0.074483482
0.073566632
0.072599354
0.071601304
0.070577092
0.069552132
0.06848298
0.067384554
0.066289371
0.065147913
0.063982174
0.062796384
0.061591869
0.060369984
0.059132141
0.057879844
0.056614986
0.086381759
0.086499987
0.086584089
0.086634379
0.08665072
0.086634022
0.086584648
0.086502911
0.086389264
0.086244021
0.08606737
0.085859444
0.085620325
0.08535005
0.085048621
0.084716011
0.08435217
0.083957031
0.083530517
0.083072546
0.082583041
0.082061931
0.081509161
0.080924695
0.080308526
0.079660678
0.078981214
0.078270244
0.077527936
0.076754528
0.075950352
0.075115859
0.074251607
0.073358039
0.072460431
0.071514552
0.070535655
0.069528888
0.068520702
0.067474766
0.06639843
0.065320691
0.06419629
0.06304895
0.061881652
0.060695685
0.059492391
0.058273183
0.057039571
0.055793448
0.084047166
0.08422158
0.084360022
0.084460498
0.084527063
0.08455908
0.084556904
0.084521671
0.084452561
0.084350519
0.084215689
0.084048238
0.083848282
0.083615897
0.083351122
0.083053971
0.082724435
0.08236249
0.081968104
0.08154124
0.081081867
0.080589961
0.080065514
0.07950854
0.078919077
0.078297199
0.077643018
0.076956692
0.076238434
0.075488518
0.074707295
0.073895186
0.073052659
0.072180124
0.071302422
0.070378669
0.069420024
0.068432411
0.067438358
0.066413831
0.065369364
0.064305786
0.063198961
0.062070842
0.060922937
0.059756438
0.058572667
0.057373033
0.056159051
0.054932613
0.081663433
0.081891094
0.082081064
0.082233934
0.082348058
0.082427402
0.082471799
0.082481296
0.082456589
0.082397326
0.082303919
0.082176652
0.082015665
0.08182106
0.081592907
0.081331255
0.08103613
0.080707546
0.08034551
0.079950027
0.079521107
0.079058769
0.078563049
0.078034005
0.077471722
0.076876318
0.07624795
0.07558682
0.074893181
0.07416734
0.073409667
0.072620589
0.071800568
0.07095008
0.070093117
0.069192465
0.068255777
0.067291947
0.066304822
0.065309023
0.06428875
0.063242629
0.062155827
0.061048122
0.059920622
0.058774556
0.057611257
0.056432144
0.055238742
0.054032946
0.07923732
0.079515714
0.079755314
0.079956746
0.080120634
0.080245099
0.080333864
0.080387617
0.080405597
0.080388392
0.080336035
0.080248425
0.080125987
0.079968842
0.079777083
0.079550784
0.079290002
0.078994783
0.078665168
0.078301197
0.077902917
0.077470388
0.077003685
0.076502907
0.07596818
0.075399664
0.074797559
0.074162106
0.073493595
0.072792368
0.07205882
0.071293397
0.070496593
0.069668943
0.068833448
0.067956557
0.067042075
0.066099963
0.065131227
0.06415808
0.06316048
0.06213313
0.061067939
0.059981693
0.058875595
0.057750926
0.056609049
0.055451403
0.054279528
0.053095323
0.07677667
0.077103125
0.077390012
0.07763789
0.077847327
0.078018819
0.078150327
0.078245829
0.078305628
0.078329017
0.078316461
0.078268133
0.078183595
0.07806337
0.077907569
0.077716282
0.077489591
0.077227567
0.076930279
0.076597799
0.076230206
0.075827594
0.075390073
0.074917779
0.074410878
0.073869568
0.073294085
0.072684711
0.072041769
0.071365636
0.070656734
0.069915539
0.069142575
0.068338429
0.067525047
0.066672534
0.065780796
0.064861014
0.063913901
0.062962545
0.061987116
0.060979524
0.059936885
0.058873054
0.057789304
0.056686969
0.055567444
0.054432193
0.053282773
0.052121092
0.074290206
0.074661794
0.074993281
0.075285155
0.075537902
0.07575187
0.075927077
0.076064793
0.07616265
0.076225467
0.076251451
0.076240805
0.076193741
0.076109672
0.075989175
0.075832356
0.07563931
0.075410129
0.075144905
0.074843733
0.07450672
0.074133988
0.073725681
0.073281967
0.072803044
0.072289147
0.071740549
0.071157563
0.070540551
0.069889919
0.069206121
0.068489656
0.067741076
0.066960997
0.066170301
0.065342777
0.064474484
0.063577929
0.062653724
0.061724101
0.060770981
0.059784175
0.058764887
0.057724339
0.056663824
0.05558471
0.054488426
0.053376462
0.052250394
0.051112138
0.071787495
0.072201059
0.072574152
0.072907272
0.073200861
0.073455298
0.073670958
0.073848646
0.073985156
0.074084387
0.074147753
0.074173581
0.07416219
0.074113754
0.07402769
0.073904583
0.073744538
0.073547659
0.073314054
0.073043837
0.072737136
0.072394099
0.072014894
0.071599718
0.071148802
0.070662409
0.070140845
0.06958446
0.068993645
0.06836884
0.067710526
0.067019222
0.066295486
0.065539935
0.064772367
0.063970393
0.063126309
0.062253985
0.061353749
0.060444823
0.059514675
0.058549909
0.057554813
0.056538374
0.055501917
0.05444685
0.053374639
0.052286802
0.051184933
0.050070957
0.068786873
0.0692794
0.069731204
0.070142569
0.070513875
0.07084548
0.071137699
0.07139083
0.071605185
0.071780816
0.071915534
0.072013012
0.072073966
0.072096912
0.072082252
0.072029962
0.071939599
0.071811708
0.071646397
0.071443783
0.071203992
0.070927169
0.070613479
0.070263114
0.069876293
0.069453273
0.068994347
0.06849985
0.067970162
0.06740571
0.066806964
0.066174436
0.065508661
0.064810177
0.064079499
0.063335178
0.062559157
0.061740076
0.060893351
0.060020586
0.059125253
0.058221387
0.057280389
0.056310368
0.05531879
0.054307121
0.053276841
0.052229457
0.051166514
0.050089625
0.049000718
0.066250405
0.066776991
0.067263265
0.067709373
0.068115574
0.06848212
0.06880924
0.06909714
0.069346003
0.069555958
0.069727132
0.069857364
0.069950478
0.070006358
0.070023913
0.070003635
0.069945193
0.069848405
0.069713733
0.069541293
0.06933122
0.069083668
0.068798814
0.068476867
0.068118066
0.067722689
0.067291053
0.066823522
0.066320504
0.06578246
0.065209897
0.064603372
0.063963462
0.063290706
0.062585351
0.061863271
0.061113317
0.060319845
0.059498475
0.058650714
0.057777799
0.056897895
0.055980936
0.055036352
0.054070144
0.05308384
0.052078966
0.051057062
0.050019689
0.048968475
0.047905346
0.06373583
0.06429236
0.064809194
0.065286349
0.065723965
0.066122186
0.066481146
0.066800961
0.067081734
0.067323546
0.067526469
0.06769056
0.067813785
0.067900002
0.067948361
0.067958214
0.067930164