/*--------------------------------*- C++ -*----------------------------------*\
| =========                 |                                                 |
| \\      /  F ield         | OpenFOAM: The Open Source CFD Toolbox           |
|  \\    /   O peration     | Version:  2312                                  |
|   \\  /    A nd           | Website:  www.openfoam.com                      |
|    \\/     M anipulation  |                                                 |
\*---------------------------------------------------------------------------*/
FoamFile
{
    version     2.0;
    format      ascii;
    arch        "LSB;label=32;scalar=64";
    class       volScalarField;
    location    "0.05";
    object      Ma;
}
// * * * * * * * * * * * * * * * * * * * * * * * * * * * * * * * * * * * * * //

dimensions      [0 0 0 0 0 0 0];

internalField   nonuniform List<scalar> 
3250
(
0.0077093849
0.0076036885
0.0074993585
0.0073962036
0.0072951592
0.0071944277
0.0070936901
0.0069948464
0.0068967005
0.0067994014
0.0067028159
0.0066069061
0.0065116296
0.0064169513
0.006322852
0.0062292851
0.0061362985
0.0060436746
0.0059513493
0.0058596398
0.0057683476
0.0056774727
0.0055869971
0.0054969108
0.0054072028
0.0053178628
0.0052286166
0.005140014
0.0050520713
0.0049641746
0.0048765846
0.0047893709
0.0047025141
0.0046160193
0.0045298871
0.0044441209
0.0043587237
0.0042737026
0.0041890524
0.0041048104
0.0040209992
0.0039375738
0.0038545173
0.0037718834
0.0036896732
0.0036078944
0.0035265587
0.0034456765
0.0033652544
0.0077077556
0.0076021489
0.0074979064
0.0073948343
0.0072938096
0.0071931204
0.0070925227
0.0069937334
0.0068956397
0.0067983921
0.0067018572
0.0066059963
0.0065107667
0.0064161327
0.0063220743
0.0062285436
0.006135609
0.006043021
0.0059507207
0.0058590508
0.0057677912
0.0056769485
0.0055865029
0.0054964446
0.0054067628
0.0053174488
0.0052282405
0.0051396642
0.0050517299
0.004963858
0.0048762907
0.0047890986
0.0047022624
0.004615787
0.0045296736
0.0044439252
0.0043585452
0.0042735406
0.0041889062
0.0041046795
0.0040208831
0.0039374721
0.0038544295
0.0037718091
0.0036896111
0.0036078446
0.0035265205
0.0034456495
0.0033652392
0.0077044666
0.007599038
0.007494967
0.0073920659
0.0072910873
0.0071904653
0.0070901558
0.0069914703
0.0068934811
0.0067963365
0.0066999022
0.0066041384
0.0065090019
0.0064144563
0.0063204796
0.0062270221
0.0061341824
0.0060416643
0.0059494221
0.00585783
0.0057666338
0.0056758544
0.0055854679
0.0054954651
0.0054058345
0.0053165671
0.0052274454
0.0051389166
0.0050509915
0.0049631731
0.0048756514
0.0047885019
0.0047017061
0.0046152692
0.0045291926
0.0044434796
0.0043581334
0.0042731615
0.0041885585
0.004104362
0.0040205947
0.0039372118
0.0038541965
0.0037716022
0.0036894291
0.0036076869
0.003526386
0.0034455376
0.0033651495
0.0076995187
0.0075943543
0.0074905345
0.0073878786
0.0072869813
0.0071865274
0.0070865766
0.0069880491
0.0068902221
0.0067932334
0.0066969502
0.0066013319
0.0065063348
0.0064119218
0.0063180684
0.0062247217
0.0061320157
0.0060395995
0.0059474544
0.0058559768
0.0057648748
0.0056741895
0.0055838911
0.0054939716
0.0054044182
0.0053152198
0.0052262242
0.0051377657
0.0050498586
0.0049621195
0.0048746658
0.0047875796
0.0047008439
0.0046144645
0.0045284429
0.0044427827
0.0043574872
0.004272564
0.0041880079
0.0041038565
0.0040201328
0.0039367918
0.0038538169
0.0037712615
0.0036891258
0.0036074201
0.003526154
0.0034453391
0.0033649838
0.0076929132
0.0075880963
0.007484603
0.0073822625
0.0072815171
0.0071813143
0.0070817721
0.0069834619
0.0068858592
0.0067890808
0.0066929995
0.0065975751
0.0065027635
0.0064085276
0.0063148397
0.0062216443
0.0061291022
0.006036817
0.0059448189
0.0058534886
0.0057625118
0.0056719503
0.0055817691
0.0054919609
0.0054025123
0.0053134117
0.0052245635
0.005136198
0.0050483362
0.004960695
0.0048733302
0.0047863279
0.0046996722
0.0046133692
0.0045274208
0.0044418308
0.0043566028
0.0042717445
0.0041872508
0.0041031594
0.0040194936
0.0039362083
0.0038532871
0.0037707835
0.0036886977
0.0036070404
0.0035258208
0.0034450506
0.0033647388
0.0076851279
0.007580716
0.0074776001
0.0073756237
0.0072751111
0.0071752144
0.0070760871
0.0069780405
0.0068807085
0.0067841801
0.0066883379
0.0065931422
0.0064985496
0.0064045228
0.0063110318
0.0062180217
0.0061256515
0.0060335162
0.0059417187
0.0058505504
0.0057597215
0.0056693047
0.0055792615
0.005489585
0.005400262
0.0053112818
0.0052225848
0.0051343295
0.0050465433
0.0049590111
0.0048717493
0.0047848452
0.0046982834
0.0046120703
0.0045262081
0.0044407008
0.0043555523
0.0042707704
0.0041863503
0.0041023296
0.004018732
0.0039355123
0.0038526543
0.0037702117
0.0036881848
0.0036065844
0.0035254197
0.0034447021
0.0033644415
0.0076764387
0.007572479
0.0074697835
0.0073682124
0.0072679999
0.0071684514
0.0070697454
0.0069719998
0.0068749738
0.0067787271
0.0066831541
0.0065882156
0.0064938694
0.0064000781
0.0063068082
0.0062140089
0.0061218184
0.0060298688
0.0059382977
0.0058473037
0.0057566439
0.0056663893
0.0055765015
0.0054869737
0.005397793
0.0053089506
0.0052204086
0.005132278
0.0050445917
0.004957179
0.0048700324
0.0047832381
0.0046967816
0.0046106694
0.0045249038
0.0044394894
0.0043544301
0.0042697341
0.0041853965
0.0041014553
0.004017934
0.0039347878
0.0038520008
0.0037696266
0.0036876656
0.003606129
0.0035250257
0.0034443673
0.0033641639
0.0076661612
0.0075627353
0.0074605366
0.0073594453
0.0072596241
0.0071604915
0.0070622452
0.0069648605
0.0068681979
0.0067722868
0.0066770344
0.0065824019
0.006488349
0.0063948376
0.0063018295
0.0062092812
0.0061173022
0.0060255856
0.0059342765
0.0058434852
0.005753029
0.0056629672
0.0055732646
0.0054839141
0.0053949037
0.0053062259
0.0052178558
0.0051298742
0.0050423185
0.004955047
0.0048680366
0.0047813721
0.0046950404
0.0046090478
0.0045233971
0.0044380929
0.0043531395
0.0042685454
0.0041843058
0.0041004591
0.0040170284
0.0039339695
0.0038512667
0.0037689737
0.0036870911
0.0036056301
0.0035245996
0.0034440114
0.0033638759
0.0076541755
0.00755137
0.0074497481
0.007349216
0.0072498743
0.0071512292
0.0070534898
0.0069565308
0.0068602922
0.0067647743
0.0066698968
0.0065756217
0.0064819116
0.0063887271
0.0062960233
0.0062037682
0.0061120405
0.0060206034
0.005929589
0.0058390341
0.0057488171
0.0056589809
0.0055694951
0.0054803524
0.0053915416
0.0053030567
0.0052148806
0.0051270736
0.0050396772
0.0049525701
0.0048657183
0.0047792051
0.0046930192
0.0046071662
0.0045216496
0.0044364743
0.0043516448
0.0042671697
0.0041830447
0.0040993084
0.0040159836
0.0039330267
0.0038504225
0.0037682242
0.0036864331
0.0036050605
0.0035241152
0.0034436091
0.0033635531
0.0076403588
0.0075382651
0.0074373054
0.0073374169
0.0072386391
0.0071405602
0.0070433816
0.0069469178
0.0068511665
0.0067561025
0.0066616574
0.0065677941
0.0064744793
0.0063816711
0.0062893167
0.0061974005
0.0061059669
0.0060148574
0.0059241697
0.0058338895
0.0057439486
0.0056543729
0.0055651374
0.0054762347
0.0053876547
0.0052993924
0.0052114355
0.0051238299
0.0050366217
0.0049497039
0.0048630349
0.0047766959
0.0046906778
0.0046049859
0.004519624
0.0044345973
0.0043499107
0.0042655729
0.0041815802
0.0040979713
0.0040147686
0.0039319295
0.0038494389
0.00376735
0.0036856646
0.0036043939
0.003523547
0.0034431358
0.0033631716
0.0076245842
0.007523299
0.0074230915
0.0073239397
0.0072258001
0.0071283771
0.0070318197
0.0069359252
0.0068407271
0.006746181
0.0066522288
0.0065588344
0.0064659705
0.0063735906
0.0062816337
0.0061901077
0.0060990083
0.0060082797
0.0059179509
0.0058279875
0.0057383611
0.0056490831
0.0055601334
0.0054715047
0.0053831883
0.0052951798
0.0052074698
0.0051200943
0.0050331034
0.0049464018
0.0048599413
0.0047738008
0.0046879741
0.0046024658
0.0045172804
0.0044324233
0.0043478998
0.0042637188
0.004179877
0.0040964138
0.0040133504
0.0039306458
0.0038482851
0.0037663212
0.0036847565
0.0036036022
0.0035228677
0.0034425651
0.0033627059
0.0076067206
0.0075063451
0.0074069872
0.0073086781
0.0072112285
0.0071145749
0.0070186995
0.0069234534
0.0068288773
0.0067349162
0.0066415205
0.006548655
0.0064563006
0.0063644035
0.0062728958
0.0061818022
0.0060911032
0.0060008003
0.005910862
0.005821262
0.0057319901
0.005643049
0.0055544226
0.005466104
0.0053780857
0.005290364
0.0052029312
0.0051158159
0.0050290724
0.0049426154
0.0048563909
0.0047704745
0.0046848642
0.0045995636
0.0045145778
0.0044299125
0.0043455735
0.0042615699
0.004177899
0.0040946005
0.004011695
0.0039291426
0.0038469291
0.0037651068
0.0036836788
0.0036026564
0.0035220493
0.0034418697
0.0033621298
0.0075866326
0.0074872716
0.0073888691
0.0072914748
0.007194848
0.0070990366
0.0070039134
0.0069093986
0.0068155165
0.0067222108
0.0066294386
0.006537165
0.0064453818
0.0063540244
0.0062630227
0.0061724068
0.006082175
0.0059923404
0.005902832
0.0058136434
0.0057247685
0.0056362055
0.0055479419
0.0054599714
0.0053722876
0.0052848874
0.0051977645
0.0051109414
0.0050244765
0.004938294
0.0048523346
0.0047666697
0.0046813021
0.0045962346
0.0045114729
0.004427023
0.0043428913
0.0042590868
0.004175608
0.0040924945
0.0040097664
0.0039273852
0.0038453371
0.003763674
0.0036823998
0.0036015258
0.0035210621
0.0034410212
0.0033614155
0.0075641811
0.0074659445
0.0073686159
0.0072722116
0.0071765309
0.0070816394
0.006987352
0.0068936525
0.0068005406
0.0067079639
0.0066158857
0.0065242698
0.0064331225
0.0063423652
0.0062519322
0.006161838
0.0060721432
0.0059828189
0.0058937876
0.0058050591
0.0057166259
0.0056284846
0.0055406254
0.0054530429
0.005365732
0.00527869
0.0051919118
0.0051054149
0.0050192608
0.0049333842
0.0048477211
0.0047623365
0.0046772394
0.004592432
0.0045079203
0.0044237108
0.0043398102
0.0042562282
0.0041729636
0.0040900569
0.004007527
0.003925337
0.0038434737
0.0037619886
0.0036808863
0.0036001783
0.0035198749
0.0034399892
0.0033605339
0.0075392224
0.007442227
0.0073461086
0.0072507528
0.0071561521
0.0070622588
0.0069689013
0.0068761027
0.0067838411
0.0066920705
0.006600761
0.0065098717
0.0064194269
0.006329333
0.0062395205
0.0061500242
0.0060609253
0.0059721518
0.0058836516
0.0057954331
0.0057074887
0.0056198147
0.0055324038
0.0054452513
0.0053583535
0.0052717083
0.005185312
0.0050991778
0.005013368
0.0049278297
0.0048424961
0.0047574224
0.0046726253
0.0045881063
0.0045038719
0.0044199292
0.0043362853
0.0042529501
0.0041699235
0.0040872464
0.0040049367
0.0039229593
0.0038413013
0.0037600141
0.003679103
0.0035985796
0.0035184547
0.0034387417
0.0033594538
0.0075116088
0.0074159805
0.0073211678
0.0072270053
0.0071335924
0.0070407678
0.0069484427
0.006856633
0.0067653058
0.0066744218
0.0065839603
0.00649387
0.006404195
0.0063148331
0.0062256965
0.0061368764
0.0060484259
0.0059602561
0.0058723427
0.0057846859
0.0056972798
0.0056101211
0.0055232043
0.005436526
0.0053500836
0.0052638759
0.005177901
0.0050921681
0.0050067376
0.0049215712
0.0048366021
0.004751872
0.0046674058
0.0045832053
0.0044992771
0.0044156289
0.0043322685
0.0042492061
0.0041664425
0.0040840192
0.0040019531
0.0039202108
0.00383878
0.0037577118
0.0036770122
0.0035966933
0.0035167661
0.0034372446
0.0033581424
0.0074811925
0.0073870701
0.0072936609
0.0072008364
0.007108699
0.0070170437
0.006925853
0.0068351235
0.0067448187
0.0066549047
0.0065653767
0.0064761625
0.0063873208
0.0062987655
0.0062103607
0.0061223021
0.0060345497
0.0059470455
0.0058597752
0.0057727343
0.0056859185
0.0055993252
0.0055129507
0.0054267928
0.0053408504
0.0052551229
0.0051696108
0.0050843196
0.0049993061
0.0049145468
0.0048299786
0.0047456265
0.0046615239
0.0045776734
0.004494082
0.0044107578
0.0043277092
0.0042449469
0.0041624728
0.0040803289
0.0039985312
0.0039170477
0.0038358673
0.0037550404
0.0036745741
0.0035944805
0.0035147715
0.0034354614
0.0033565641
0.0074478261
0.0073553661
0.0072634305
0.0071721108
0.0070813302
0.0069909596
0.0069010049
0.0068114512
0.0067222596
0.0066334014
0.0065449008
0.0064566431
0.0063686935
0.0062810065
0.0061934355
0.0061061963
0.006019203
0.0059324286
0.00584586
0.0057594914
0.0056733202
0.0055873447
0.005501563
0.0054159742
0.0053305784
0.0052453761
0.00516037
0.0050755632
0.004991006
0.0049066922
0.0048225613
0.0047386238
0.0046549194
0.0045714523
0.0044882298
0.0044052605
0.0043225536
0.0042401202
0.0041579636
0.0040761262
0.003994623
0.0039134236
0.0038325178
0.003751956
0.0036717459
0.0035919
0.0035124308
0.003433353
0.0033546812
0.0074113641
0.0073206696
0.0072303924
0.0071406728
0.0070513511
0.0069623838
0.0068737685
0.0067854899
0.0066975055
0.0066097888
0.0065224193
0.0064352067
0.0063481982
0.0062614431
0.0061748202
0.0060884536
0.0060022894
0.0059163098
0.0058305037
0.0057448664
0.0056593966
0.0055740939
0.0054889578
0.0054039889
0.0053191886
0.0052345588
0.0051501036
0.0050658254
0.0049817672
0.0048979384
0.0048142831
0.0047307986
0.0046475288
0.0045644802
0.0044816604
0.0043990787
0.0043167449
0.0042346708
0.004152861
0.0040713589
0.0039901778
0.003909289
0.0038286837
0.003748412
0.0036684823
0.0035889077
0.0035097011
0.0034308781
0.0033524535
0.0074608943
0.0073716701
0.0072828223
0.0071944031
0.0071063636
0.0070186291
0.0069311806
0.0068440116
0.0067571114
0.0066704301
0.0065839378
0.0064978193
0.0064117388
0.0063256962
0.0062399993
0.0061543927
0.0060689703
0.0059837068
0.0058985888
0.0058136092
0.0057287649
0.0056440559
0.0055594832
0.0054750479
0.005390752
0.0053065984
0.0052225905
0.0051387334
0.0050550295
0.0049715152
0.0048882134
0.0048050736
0.0047220824
0.0046392853
0.004556692
0.0044743105
0.0043921506
0.0043102232
0.0042285403
0.0041471083
0.0040659716
0.0039851418
0.0039045916
0.0038243139
0.0037443587
0.0036647351
0.0035854566
0.003506537
0.0034279923
0.0033498379
0.007415639
0.0073285258
0.0072417567
0.0071552835
0.0070690445
0.0069830267
0.0068972128
0.0068116006
0.0067261854
0.0066409093
0.0065557399
0.0064709619
0.0063860654
0.0063011201
0.0062165629
0.0061320399
0.0060476388
0.0059633489
0.0058791625
0.0057950762
0.005711089
0.0056272027
0.0055434198
0.0054597427
0.0053761751
0.0052927218
0.0052093874
0.0051261777
0.005043096
0.0049601721
0.0048774411
0.0047948594
0.0047124033
0.0046301189
0.0045480195
0.0044661136
0.0043844117
0.0043029253
0.0042216671
0.0041406455
0.0040599063
0.0039794585
0.0038992761
0.0038193547
0.0037397438
0.0036604533
0.0035814975
0.0035028903
0.003424649
0.0033467891
0.0073666361
0.0072818616
0.0071973078
0.0071128764
0.0070285787
0.0069444037
0.0068603428
0.0067764008
0.0066925798
0.0066088227
0.0065251064
0.0064416511
0.0063580253
0.0062744058
0.0061910211
0.006107651
0.006024348
0.0059411067
0.0058579243
0.0057748008
0.0056917376
0.0056087383
0.0055258073
0.0054429483
0.0053601666
0.0052774692
0.0051948621
0.0051123516
0.0050299418
0.0049476569
0.0048655426
0.0047835636
0.0047016865
0.0046199565
0.0045383914
0.0044570001
0.004375794
0.0042947852
0.0042139868
0.0041334098
0.0040531018
0.0039730684
0.0038932845
0.0038137495
0.0037345122
0.0036555834
0.0035769778
0.0034987103
0.0034207986
0.0033432589
0.0073138157
0.0072315438
0.0071492902
0.0070670477
0.0069848258
0.0069026205
0.006820433
0.0067382773
0.0066561569
0.0065740258
0.0064918701
0.0064097838
0.0063275928
0.0062453743
0.0061632485
0.0060811102
0.0059989841
0.0059168688
0.0058347652
0.0057526766
0.0056706068
0.0055885613
0.0055065466
0.0054245678
0.0053426317
0.0052607481
0.0051789242
0.0050971666
0.0050154806
0.0049338864
0.0048524366
0.0047711059
0.0046898536
0.0046087218
0.0045277332
0.0044468975
0.0043662267
0.0042857338
0.0042054319
0.0041253355
0.0040454942
0.0039659091
0.0038865557
0.0038074387
0.003728606
0.003650069
0.003571843
0.0034939435
0.0034163893
0.0033391968
0.0073366395
0.0072570533
0.0071773717
0.007097573
0.0070176595
0.0069376466
0.0068575382
0.0067773475
0.0066970952
0.0066167792
0.0065363866
0.0064558561
0.0063753155
0.0062946361
0.006213884
0.0061331204
0.0060522983
0.0059714312
0.0058905217
0.0058095742
0.0057285948
0.00564759
0.0055665674
0.005485536
0.0054045016
0.005323473
0.005242463
0.0051614804
0.0050805312
0.0049996236
0.004918775
0.004838039
0.0047574028
0.0046768231
0.0045963356
0.0045159677
0.0044357303
0.0043556362
0.0042756993
0.0041959324
0.0041163544
0.0040370167
0.0039579157
0.0038790261
0.0038003605
0.0037219649
0.0036438513
0.0035660355
0.0034885342
0.0034113668
0.0033345496
0.0072728395
0.0071961572
0.007119221
0.0070420233
0.0069645752
0.0068869051
0.0068090201
0.0067309524
0.0066527259
0.006574314
0.0064957452
0.0064169929
0.006338094
0.0062590219
0.0061798178
0.0061005145
0.0060210956
0.0059415722
0.0058619505
0.0057822384
0.0057024448
0.0056225787
0.0055426503
0.0054626715
0.0053826479
0.0053025905
0.0052225162
0.005142435
0.0050623519
0.0049822791
0.0049022346
0.0048222628
0.0047423685
0.0046625111
0.004582716
0.0045030149
0.0044234204
0.0043439463
0.0042646074
0.0041854156
0.0041063972
0.0040275998
0.0039490201
0.0038706294
0.0037924505
0.0037145261
0.003636869
0.0035594959
0.0034824242
0.0034056744
0.0033292627
0.0072046369
0.0071310097
0.0070569675
0.0069825122
0.0069076636
0.0068324714
0.0067569322
0.0066811216
0.0066050015
0.0065286469
0.0064520238
0.0063751248
0.0062979907
0.0062206239
0.0061430559
0.0060653087
0.0059873824
0.0059092892
0.0058310392
0.0057526438
0.0056741147
0.0055954632
0.0055167023
0.0054378474
0.0053589031
0.0052798824
0.005200808
0.0051216908
0.0050425331
0.0049633538
0.0048841721
0.0048050184
0.0047259161
0.0046468311
0.004567779
0.0044887927
0.0044098876
0.0043310784
0.0042523809
0.0041738071
0.0040953894
0.0040171733
0.0039391514
0.0038612981
0.0037836424
0.0037062248
0.0036290588
0.0035521622
0.0034755533
0.0033992532
0.0071319246
0.0070614983
0.0069904938
0.0069189206
0.0068468
0.0067742279
0.0067011481
0.0066276967
0.0065538554
0.0064796451
0.0064050701
0.0063301356
0.0062548787
0.0061793167
0.0061034778
0.006027382
0.0059510394
0.0058744647
0.0057976721
0.0057206763
0.0056434919
0.0055661326
0.0054886146
0.0054109573
0.0053331624
0.0052552461
0.0051772377
0.0050991484
0.0050209776
0.0049427531
0.004864493
0.004786213
0.0047079562
0.004629696
0.0045514388
0.0044732172
0.0043950496
0.0043169522
0.0042389415
0.0041610307
0.0040832565
0.0040056625
0.003928238
0.003850962
0.0037738678
0.0036969942
0.0036203558
0.0035439709
0.0034678594
0.0033920429
0.0070546083
0.0069875206
0.0069196931
0.0068511455
0.0067818661
0.0067120229
0.006641577
0.006570605
0.0064991322
0.0064271818
0.0063547679
0.0062819069
0.0062086348
0.0061349777
0.0060609639
0.0059866151
0.0059119484
0.005836982
0.0057617337
0.005686222
0.0056104642
0.0055344764
0.0054582784
0.0053818934
0.0053053198
0.0052285788
0.0051517041
0.0050747078
0.0049975877
0.0049203812
0.0048430992
0.0047657523
0.0046883987
0.0046110174
0.0045336086
0.0044562032
0.0043788232
0.004301486
0.0042242095
0.0041470082
0.0040699219
0.0039929921
0.0039162067
0.0038395498
0.0037630572
0.0036867663
0.0036106933
0.0035348574
0.0034592797
0.0033839823
0.0069726114
0.0069089873
0.0068444721
0.0067790533
0.0067127965
0.0066457965
0.0065780828
0.0065097118
0.0064407222
0.0063711449
0.0063010038
0.0062303235
0.006159141
0.006087489
0.0060153975
0.0059428917
0.005869994
0.0057967264
0.0057231105
0.0056491685
0.0055749205
0.0055003852
0.0054255857
0.005350548
0.0052752691
0.0051997779
0.005124106
0.0050482684
0.004972267
0.0048961367
0.0048198909
0.0047435452
0.0046671545
0.0045907068
0.0045142009
0.0044376648
0.004361124
0.0042845974
0.0042081041
0.0041316604
0.004055308
0.0039790863
0.0039029838
0.003826989
0.0037511396
0.0036754721
0.003600004
0.0035247558
0.0034497497
0.0033750087
0.0068858984
0.0068258692
0.006764758
0.0067025997
0.0066394673
0.0065754394
0.0065105703
0.0064449158
0.0063785222
0.0063114293
0.00624367
0.0061752757
0.0061062854
0.0060367384
0.0059666667
0.0058960994
0.0058250642
0.0057535866
0.0056816916
0.0056094059
0.0055367521
0.005463751
0.0053904304
0.0053168148
0.005242908
0.0051687383
0.0050943408
0.00501973
0.0049449145
0.004869925
0.00479478
0.0047194992
0.0046441306
0.0045686737
0.004493127
0.0044175156
0.0043418678
0.0042662037
0.0041905443
0.0041149077
0.0040393368
0.0039638692
0.0038884951
0.0038132071
0.0037380441
0.0036630421
0.0035882203
0.0035136
0.0034392051
0.0033650591
0.0067944097
0.0067380814
0.0066804949
0.0066217122
0.0065618112
0.0065008704
0.0064389556
0.0063761275
0.0063124392
0.0062479384
0.0061826674
0.0061166616
0.0060499643
0.0059826207
0.0059146655
0.0058461316
0.0057770524
0.0057074558
0.0056373704
0.0055668283
0.005495854
0.0054244709
0.0053527066
0.0052805901
0.0052081319
0.0051353605
0.0050623092
0.0049889952
0.0049154338
0.0048416531
0.0047676752
0.0046935223
0.0046192371
0.0045448271
0.0044702979
0.0043956703
0.0043209711
0.004246223
0.0041714498
0.0040966711
0.004021931
0.0039472654
0.0038726668
0.0037981317
0.0037237001
0.0036494076
0.0035752749
0.0035013247
0.0034275819
0.0033540712
0.0066981327
0.0066456035
0.0065916471
0.0065363429
0.006479775
0.0064220259
0.0063631693
0.0063032715
0.0062423924
0.0061805874
0.0061179066
0.0060543889
0.0059900831
0.0059250396
0.005859296
0.0057928891
0.0057258589
0.0056582341
0.0055900484
0.0055213348
0.0054521234
0.0053824407
0.005312315
0.0052417767
0.0051708441
0.0050995466
0.0050279146
0.0049559696
0.0048837319
0.004811229
0.0047384853
0.0046655257
0.0045923832
0.0045190827
0.0044456289
0.0043720436
0.0042983516
0.0042245751
0.0041507416
0.0040768734
0.0040030151
0.0039292009
0.0038554267
0.0037816924
0.0037080386
0.0036345011
0.0035611021
0.0034878654
0.0034148175
0.0033419838
0.0065970826
0.0065484371
0.0064982009
0.0064464662
0.0063933238
0.0063388615
0.0062831588
0.0062262884
0.0061683164
0.0061093051
0.0060493109
0.0059883768
0.0059265589
0.0058639092
0.0058004707
0.0057362846
0.0056713915
0.0056058277
0.0055396293
0.0054728313
0.0054054671
0.005337567
0.0052691614
0.0052002816
0.0051309524
0.0050612037
0.0049910655
0.0049205627
0.0048497194
0.0047785636
0.0047071217
0.0046354196
0.0045634877
0.0044913617
0.0044190382
0.0043465538
0.0042739284
0.0042011825
0.0041283441
0.0040554401
0.003982516
0.0039096047
0.0038367053
0.0037638209
0.0036909932
0.0036182579
0.0035456386
0.0034731608
0.0034008519
0.0033287387
0.0064913029
0.0064466094
0.0064001681
0.0063520808
0.006302445
0.0062513534
0.0061988915
0.0061451373
0.0060901629
0.0060340361
0.0059768191
0.0059185615
0.0058593211
0.0057991562
0.0057381132
0.0056762366
0.0056135701
0.0055501546
0.0054860295
0.0054212323
0.0053557993
0.005289764
0.0052231594
0.0051560185
0.0050883703
0.0050202461
0.0049516767
0.0048826897
0.0048133125
0.0047435739
0.0046735019
0.0046031239
0.0045324696
0.0044615809
0.0043904542
0.0043191248
0.0042476272
0.0041759718
0.0041041855
0.004032301
0.0039603652
0.0038884097
0.003816437
0.0037444534
0.0036725014
0.0036006169
0.0035288252
0.0034571528
0.0033856288
0.003314281
0.0063808681
0.0063401769
0.0062975883
0.0062532116
0.0062071502
0.0061595018
0.0061103565
0.0060597977
0.0060079028
0.0059547439
0.0059003882
0.0058448922
0.0057883169
0.005730723
0.0056721613
0.0056126801
0.0055523262
0.0054911443
0.0054291767
0.005366464
0.0053030448
0.0052389558
0.0051742325
0.0051089099
0.0050430203
0.0049765967
0.0049096711
0.0048422739
0.0047744348
0.004706184
0.0046375511
0.004568565
0.0044992556
0.0044296689
0.0043598028
0.004289692
0.0042193802
0.0041488747
0.0040781999
0.0040073919
0.0039364997
0.0038655545
0.0037945619
0.0037235314
0.0036525064
0.0035815229
0.0035106078
0.0034397893
0.0033690974
0.0032985614
0.0062658856
0.0062292274
0.0061905316
0.0061499124
0.0061074787
0.0060633324
0.0060175679
0.0059702729
0.0059215293
0.0058714134
0.0058199959
0.0057673402
0.0057135103
0.0056585685
0.0056025695
0.0055455657
0.0054876068
0.0054287407
0.0053690125
0.0053084656
0.0052471411
0.0051850786
0.0051223159
0.00505889
0.0049948361
0.0049301888
0.0048649822
0.0047992485
0.0047330199
0.004666328
0.004599204
0.0045316785
0.0044637817
0.0043955626
0.0043270226
0.0042581951
0.0041891274
0.0041198317
0.0040503296
0.0039806565
0.0039108648
0.0038409856
0.003771028
0.0037010043
0.0036309589
0.003560928
0.0034909402
0.0034210251
0.0033512142
0.003281538
0.0061464988
0.0061138826
0.0060791006
0.006042268
0.0060034996
0.0059629001
0.0059205673
0.0058765924
0.0058310613
0.0057840535
0.0057356432
0.0056858988
0.0056348871
0.005582672
0.0055293121
0.0054748629
0.0054193771
0.0053629052
0.0053054952
0.0052471928
0.0051880417
0.0051280838
0.0050673593
0.0050059072
0.0049437651
0.0048809696
0.0048175563
0.0047535598
0.0046890139
0.0046239521
0.0045584071
0.0044924112
0.0044259951
0.0043592104
0.004292063
0.0042245842
0.0041568183
0.0040887948
0.0040205274
0.0039520489
0.0038834157
0.0038146596
0.003745793
0.0036768311
0.0036078192
0.0035387939
0.0034697854
0.0034008249
0.0033319451
0.0032631779
0.006022888
0.0059942999
0.005963433
0.0059303971
0.0058953145
0.005858291
0.0058194264
0.0057788151
0.0057365457
0.0056927007
0.0056473567
0.0056005858
0.0055524571
0.0055030366
0.0054523858
0.0054005629
0.0053476233
0.0052936199
0.0052386029
0.0051826205
0.0051257184
0.0050679409
0.0050093302
0.0049499273
0.0048897718
0.0048289022
0.004767356
0.0047051694
0.0046423783
0.0045790176
0.0045151219
0.0044507249
0.0043858578
0.0043205744
0.0042548859
0.0041888196
0.0041224217
0.0040557307
0.0039887585
0.0039215358
0.0038541205
0.0037865459
0.0037188276
0.0036509837
0.0035830605
0.003515095
0.0034471191
0.0033791653
0.0033112681
0.0032434606
0.0058952755
0.0058706745
0.0058437039
0.0058144541
0.0057830605
0.0057496255
0.0057142506
0.0056770319
0.005638061
0.0055974217
0.0055551925
0.0055114476
0.0054662583
0.0054196924
0.0053718136
0.0053226825
0.0052723565
0.0052208907
0.0051683372
0.0051147462
0.0050601655
0.005004641
0.0049482171
0.0048909365
0.0048328407
0.0047739698
0.0047143629
0.0046540583
0.0045930932
0.0045315044
0.0044693278
0.0044065989
0.0043433499
0.0042796335
0.0042154706
0.0041508827
0.0040859188
0.0040206206
0.0039550048
0.0038891004
0.0038229636
0.0037566297
0.0036901181
0.0036234495
0.0035566711
0.0034898208
0.0034229318
0.0033560385
0.0032891765
0.0032223804
0.0057638868
0.0057432115
0.0057201269
0.0056946322
0.0056669134
0.0056370618
0.0056051814
0.005571369
0.0055357197
0.0054983171
0.0054592396
0.005418563
0.0053763601
0.0053327
0.0052876484
0.0052412674
0.0051936162
0.0051447513
0.0050947268
0.0050435942
0.004991403
0.0049382009
0.0048840337
0.0048289459
0.0047729804
0.004716179
0.0046585823
0.0046002302
0.0045411614
0.0044814142
0.0044210262
0.0043600344
0.0042984749
0.0042363866
0.0041738175
0.0041107749
0.004047311
0.0039834653
0.0039192695
0.0038547461
0.003789949
0.0037249161
0.0036596703
0.0035942351
0.0035286589
0.0034629799
0.0033972334
0.0033314551
0.003265682
0.0031999502
0.0056290712
0.0056122639
0.0055928939
0.005571154
0.0055470944
0.0055207985
0.0054923986
0.0054619906
0.0054296725
0.005395525
0.0053596242
0.005322047
0.0052828672
0.005242155
0.0051999771
0.0051563968
0.0051114744
0.0050652677
0.0050178318
0.0049692195
0.0049194816
0.004868667
0.004816823
0.0047639953
0.0047102281
0.0046555647
0.004600047
0.0045437162
0.0044866125
0.0044287755
0.0043702443
0.0043110573
0.0042512527
0.0041908661
0.0041299535
0.0040685214
0.0040066218
0.003944295
0.0038815807
0.0038184995
0.0037551043
0.0036914336
0.0036275135
0.0035633706
0.0034990545
0.0034346042
0.0033700564
0.0033054484
0.0032408189
0.0031762051
0.0054910929
0.0054780733
0.0054624412
0.0054443064
0.0054237927
0.0054010692
0.0053761229
0.0053491023
0.0053201119
0.0052892252
0.0052565136
0.0052220549
0.0051859241
0.0051481917
0.005108925
0.0050681877
0.0050260408
0.0049825426
0.0049377488
0.0048917131
0.0048444871
0.0047961208
0.0047466623
0.0046961584
0.0046446544
0.0045921946
0.0045388222
0.0044845795
0.0044295079
0.0043736483
0.0043170409
0.0042597257
0.0042017421
0.0041431254
0.0040839346
0.0040241781
0.0039639079
0.0039031654
0.0038419941
0.0037804166
0.0037184864
0.0036562395
0.003593705
0.003530914
0.0034679166
0.0034047527
0.0033414606
0.0032780792
0.0032146485
0.0031512073
0.0053504863
0.0053410388
0.0053289481
0.0053144367
0.0052974434
0.005278104
0.0052565951
0.0052329609
0.005207277
0.0051796431
0.0051501203
0.0051187875
0.0050857201
0.005050989
0.0050146613
0.0049768005
0.0049374676
0.0048967207
0.0048546159
0.004811207
0.0047665462
0.0047206838
0.0046736687
0.0046255482
0.0045763687
0.0045261751
0.0044750115
0.0044229212
0.0043699466
0.0043161296
0.0042615116
0.0042061337
0.0041500367
0.0040932558
0.004035852
0.0039778361
0.0039192602
0.0038601666
0.0038005995
0.0037405892
0.003680186
0.0036194244
0.0035583356
0.0034969564
0.0034353368
0.0033735177
0.0033115388
0.0032494406
0.0031872645
0.0031250508
0.0052075957
0.0052016027
0.0051929852
0.0051818289
0.0051683128
0.0051523782
0.0051341586
0.0051137851
0.0050914534
0.0050670545
0.0050407078
0.0050124953
0.0049824941
0.0049507749
0.0049174038
0.0048824439
0.004845955
0.0048079948
0.0047686187
0.0047278805
0.004685832
0.0046425239
0.0045980051
0.0045523235
0.0045055257
0.0044576572
0.0044087627
0.0043588863
0.004308071
0.0042563597
0.0042037947
0.0041504181
0.0040962718
0.0040413912
0.0039858388
0.0039296277
0.0038728104
0.0038154296
0.0037575275
0.0036991482
0.0036403342
0.0035811179
0.0035215358
0.0034616285
0.0034014459
0.0033410299
0.0032804218
0.0032196636
0.0031587981
0.0030978672
0.0050629176
0.0050602143
0.005054903
0.0050470688
0.0050367708
0.0050241563
0.0050092061
0.0049920713
0.0049729163
0.0049517859
0.0049286013
0.0049034864
0.0048765407
0.0048478324
0.0048174256
0.0047853813
0.004751758
0.0047166118
0.004679997
0.0046419664
0.0046025713
0.004561862
0.0045198874
0.004476695
0.0044323318
0.0043868434
0.0043402749
0.0042926706
0.0042440742
0.0041945292
0.0041440784
0.0040927651
0.0040406319
0.0039877145
0.0039340765
0.0038797333
0.0038247368
0.003769131
0.0037129594
0.003656272
0.0035991065
0.0035414963
0.0034834817
0.0034251063
0.0033664197
0.0033074651
0.0032482853
0.0031889239
0.0031294249
0.0030698317
0.0049169822
0.004917383
0.0049152106
0.0049105428
0.0049034336
0.0048938857
0.0048820798
0.0048681716
0.0048522299
0.0048341892
0.004814158
0.0047921329
0.0047682157
0.0047425056
0.0047150603
0.0046859373
0.0046551927
0.0046228801
0.0045890516
0.0045537586
0.0045170514
0.0044789795
0.004439591
0.0043989334