/*--------------------------------*- C++ -*----------------------------------*\
| =========                 |                                                 |
| \\      /  F ield         | OpenFOAM: The Open Source CFD Toolbox           |
|  \\    /   O peration     | Version:  2312                                  |
|   \\  /    A nd           | Website:  www.openfoam.com                      |
|    \\/     M anipulation  |                                                 |
\*---------------------------------------------------------------------------*/
FoamFile
{
    version     2.0;
    format      ascii;
    arch        "LSB;label=32;scalar=64";
    class       volScalarField;
    location    "0.05";
    object      N2;
}
// * * * * * * * * * * * * * * * * * * * * * * * * * * * * * * * * * * * * * //

dimensions      [0 0 0 0 0 0 0];

internalField   nonuniform List<scalar> 
3250
(
0.67533378
0.67622201
0.67709153
0.67794395
0.67877792
0.67958449
0.68035729
0.68115998
0.68195544
0.68274346
0.68352583
0.68430428
0.68508038
0.68585558
0.68663113
0.68740802
0.68818703
0.68897009
0.68972984
0.69052734
0.69133653
0.69215405
0.69298102
0.69381846
0.69466736
0.69552912
0.69640806
0.69728162
0.69815305
0.69906056
0.69998598
0.70092685
0.70188349
0.70285605
0.70384462
0.70484921
0.70586978
0.70690622
0.70795832
0.70902581
0.71007625
0.71116512
0.71227378
0.71339587
0.71453018
0.71567508
0.71683107
0.717997
0.71917169
0.67535454
0.67624186
0.67711052
0.67796226
0.67879671
0.67959947
0.68037344
0.68117578
0.68197053
0.68275793
0.68353974
0.68431766
0.68509326
0.68586798
0.68664309
0.68741961
0.68819825
0.68898033
0.68973996
0.69053751
0.69134623
0.69216336
0.69298997
0.69382707
0.69467565
0.69553709
0.69641491
0.69728984
0.69816021
0.69906733
0.69999253
0.70093314
0.70188953
0.70286184
0.70385015
0.7048545
0.70587483
0.70691102
0.70796288
0.70903012
0.71008033
0.71116897
0.71227736
0.71339907
0.71453308
0.71567812
0.71683407
0.71799996
0.71917443
0.67539569
0.67628122
0.67714822
0.67799865
0.67883484
0.67962817
0.68040558
0.6812072
0.68200062
0.68278683
0.68356756
0.68434446
0.68511911
0.68589294
0.68666723
0.68744303
0.688221
0.68900098
0.68976057
0.69055829
0.6913662
0.69218262
0.69300858
0.69384506
0.69469306
0.69555384
0.69642994
0.69730708
0.69817594
0.6990822
0.70000696
0.70094715
0.70190311
0.702875
0.70386291
0.70486685
0.70588678
0.70692258
0.70797405
0.7090409
0.71009075
0.71117903
0.71228703
0.7134083
0.71454193
0.71568684
0.71684261
0.71800833
0.71918253
0.67545716
0.67634005
0.67720455
0.67805278
0.6788878
0.67967495
0.68045419
0.68125417
0.68204566
0.68283014
0.68360927
0.68438468
0.68515793
0.68593044
0.68670353
0.68747831
0.68825544
0.68903184
0.68979186
0.69058968
0.69139646
0.69221187
0.6930369
0.69387251
0.69471965
0.69557944
0.6964525
0.6973342
0.69820026
0.69910524
0.70002936
0.70096895
0.70192432
0.70289564
0.70388297
0.70488636
0.70590574
0.706941
0.70799194
0.70905826
0.71010762
0.71119543
0.71230292
0.71342365
0.7145568
0.7157014
0.71685683
0.71802224
0.71919607
0.67553889
0.67641829
0.67727946
0.67812453
0.67895662
0.67973882
0.68051921
0.68131661
0.68210562
0.68288782
0.68366484
0.6844383
0.6852097
0.68598048
0.68675197
0.68752541
0.68830187
0.68907239
0.68983413
0.69063159
0.691437
0.69225111
0.69307492
0.6939094
0.69475545
0.69561406
0.69648546
0.69736839
0.69823298
0.69913643
0.70005975
0.70099857
0.70195319
0.70292377
0.70391038
0.70491306
0.70593175
0.70696633
0.70801659
0.70908225
0.71013098
0.71121822
0.71232507
0.71344517
0.71457772
0.71572183
0.71687678
0.71804174
0.71921509
0.67563496
0.67651027
0.67736752
0.67820876
0.67903692
0.67981472
0.68059577
0.68139003
0.68217615
0.68295569
0.68373026
0.68450143
0.68527068
0.68603944
0.68680905
0.68758086
0.68835752
0.68911876
0.68988476
0.69068103
0.69148487
0.69229748
0.6931199
0.69395307
0.69479788
0.69565523
0.69652539
0.69740818
0.69827171
0.6991735
0.70009591
0.70103386
0.70198762
0.70295736
0.70394314
0.70494501
0.7059629
0.7069967
0.7080462
0.7091111
0.71015913
0.71124571
0.71235185
0.71347124
0.71460312
0.71574664
0.716901
0.71806539
0.71923817
0.6757424
0.67661316
0.67746605
0.67830296
0.67912649
0.67990008
0.68068139
0.68147214
0.68225506
0.68303167
0.68380351
0.68457212
0.68533898
0.68610548
0.68687298
0.6876428
0.68841756
0.68917273
0.68994216
0.69073652
0.69153858
0.69234954
0.69317041
0.69400214
0.6948456
0.69570162
0.69657059
0.6974527
0.69831527
0.69921528
0.7001367
0.70107368
0.70202649
0.7029953
0.70398018
0.70498115
0.70599818
0.70703112
0.70807978
0.70914385
0.7101911
0.71127697
0.71238233
0.71350096
0.71463211
0.71577494
0.71692864
0.71809237
0.71926449
0.67586959
0.676735
0.67758276
0.67841452
0.67923236
0.68000154
0.68078267
0.68156933
0.68234851
0.68312166
0.6838903
0.68465591
0.68541994
0.68618378
0.68694877
0.68771611
0.68848739
0.6892382
0.69001046
0.69080239
0.69160233
0.69241135
0.69323041
0.69406045
0.69490232
0.69575683
0.69662447
0.69750555
0.6983671
0.69926502
0.70018529
0.70112114
0.70207285
0.70304057
0.70402438
0.70502432
0.70604032
0.70707227
0.70811995
0.70918305
0.7102294
0.71131445
0.7124189
0.71353664
0.71466693
0.71580895
0.71696186
0.71812479
0.71929612
0.67601792
0.67687713
0.67771897
0.67854478
0.67935558
0.68012032
0.68090068
0.68168265
0.68245752
0.68322668
0.68399159
0.68475372
0.68551447
0.68627523
0.68703732
0.68780176
0.68856795
0.68931588
0.69009023
0.69087934
0.69167683
0.69248361
0.69330058
0.69412866
0.6949687
0.69582149
0.6966876
0.69756742
0.69842784
0.69932333
0.70024227
0.70117682
0.70212724
0.70309371
0.70407629
0.70507503
0.70608986
0.70712065
0.7081672
0.70922919
0.7102745
0.7113586
0.71246201
0.71357873
0.71470803
0.71584909
0.71700107
0.71816308
0.71933347
0.67618882
0.67704094
0.67787607
0.67869524
0.67949706
0.68025775
0.68103654
0.6818132
0.68258316
0.68334776
0.68410841
0.68486654
0.68562352
0.68638075
0.68713957
0.687901
0.68865975
0.68940678
0.6901821
0.6909681
0.69176284
0.69256706
0.69338165
0.6942075
0.69504544
0.69589626
0.69676062
0.69763895
0.69849816
0.69939083
0.70030826
0.70124132
0.70219027
0.7031553
0.70413648
0.70513384
0.70614732
0.7071768
0.70822205
0.70928277
0.71032689
0.71140991
0.71251213
0.7136277
0.71475587
0.71589583
0.71704672
0.71820765
0.71937698
0.6763838
0.67722789
0.67805552
0.67886764
0.67965732
0.68041544
0.68119143
0.68196213
0.68272657
0.68348601
0.68424183
0.6849954
0.68574811
0.68650132
0.68725647
0.6880155
0.68876261
0.68951236
0.69028673
0.69106947
0.69186114
0.6926625
0.6934744
0.6942977
0.69513325
0.69598185
0.6968442
0.69772085
0.69857878
0.69946821
0.70038392
0.70131527
0.70226255
0.70322594
0.70420553
0.70520134
0.7062133
0.70724128
0.70828507
0.70934435
0.71038712
0.71146892
0.7125698
0.71368404
0.71481093
0.71594963
0.71709929
0.71825899
0.71942708
0.67660441
0.67743949
0.67825878
0.67906432
0.67983608
0.68059556
0.68136652
0.68213065
0.68288891
0.68364256
0.68439294
0.68514139
0.68588927
0.68663796
0.68738891
0.68814233
0.68888104
0.68963397
0.6904051
0.69118431
0.69197258
0.69277073
0.69357961
0.69440007
0.69523292
0.69607899
0.69693906
0.69781382
0.69867047
0.69955618
0.70046993
0.70139935
0.70234475
0.7033063
0.7042841
0.70527815
0.70628839
0.70731469
0.70835683
0.70941449
0.71045575
0.71153616
0.71263553
0.7137483
0.71487373
0.71601101
0.71715926
0.71831756
0.71948426
0.67685227
0.67767729
0.67848718
0.67928189
0.68004
0.68079929
0.68156313
0.68232004
0.68307143
0.68381863
0.68456293
0.68530564
0.68604811
0.68679174
0.68753821
0.68828285
0.68901657
0.68977134
0.69053826
0.69131352
0.69209804
0.69289265
0.69369816
0.69451542
0.69534525
0.69618846
0.69704592
0.69791856
0.69877406
0.69965552
0.70056701
0.70149427
0.70243755
0.70339704
0.70437283
0.70536492
0.70637325
0.70739766
0.70843795
0.70949379
0.71053336
0.71161223
0.7127099
0.71382102
0.71494482
0.7160805
0.71722717
0.7183839
0.71954902
0.67712902
0.6779429
0.67874266
0.67952228
0.68027033
0.6810274
0.68178276
0.68253162
0.68327542
0.68401545
0.684753
0.68548933
0.68622574
0.68696372
0.68770634
0.6884373
0.68917091
0.68992488
0.69068716
0.69145808
0.69223847
0.69302914
0.69383093
0.69464465
0.69547109
0.6963111
0.69716557
0.69803576
0.69889046
0.6997671
0.70067594
0.70160077
0.7025417
0.7034989
0.70447245
0.70546235
0.70646854
0.70749086
0.70852908
0.7095829
0.71062058
0.71169772
0.71279352
0.71390279
0.71502478
0.71615868
0.71730358
0.71845855
0.7196219
0.67743637
0.67823794
0.67902793
0.67978603
0.68052896
0.68128101
0.68202682
0.6827668
0.68350221
0.68423434
0.68496444
0.68569368
0.68642335
0.68715482
0.68789005
0.68861079
0.68934604
0.6900955
0.69085282
0.69161898
0.69239483
0.69318119
0.69397886
0.69478866
0.69561136
0.69644776
0.6972988
0.698166
0.69902072
0.69989189
0.70079749
0.70171965
0.70265797
0.70361262
0.70458368
0.70557117
0.70657499
0.70759499
0.70863092
0.70968248
0.71071807
0.7117933
0.71288701
0.71399424
0.71511422
0.71624613
0.71738907
0.71854207
0.71970346
0.67777603
0.6785638
0.67933915
0.68007958
0.68081901
0.68156123
0.68229675
0.68302698
0.6837532
0.68447666
0.68519856
0.68591998
0.68664216
0.68736651
0.68809095
0.68880596
0.68954084
0.69028445
0.69103632
0.69179728
0.69256816
0.69334979
0.69414295
0.69494843
0.69576699
0.69659939
0.69744643
0.69830959
0.69916614
0.70003097
0.7009325
0.70185173
0.70278716
0.703739
0.70470733
0.70569215
0.70669336
0.70771079
0.70874419
0.70979325
0.71082652
0.71189963
0.71299104
0.71409601
0.71521378
0.71634349
0.71748425
0.71863509
0.7197943
0.67814983
0.67892255
0.67967867
0.68040594
0.68113961
0.68186984
0.68259409
0.68331366
0.68402982
0.68474381
0.68545676
0.68616956
0.68688344
0.68760094
0.68830909
0.68902549
0.68975539
0.69049285
0.6912388
0.69199409
0.69275955
0.69353599
0.69432421
0.69512497
0.69593899
0.69676697
0.69760946
0.69846619
0.69932855
0.70018543
0.70108195
0.70199789
0.70293014
0.70387888
0.7048442
0.70582609
0.70682443
0.70783904
0.70886964
0.70991594
0.71094665
0.71201743
0.71310632
0.71420881
0.71532413
0.71645143
0.71758979
0.71873823
0.71989504
0.67855956
0.67931711
0.68004686
0.68076824
0.68149128
0.68220842
0.68292039
0.68362835
0.68433356
0.68503724
0.68574047
0.68644383
0.68714822
0.68785442
0.68855311
0.68926832
0.68999117
0.69072193
0.69146143
0.69221054
0.6929701
0.69374091
0.69452374
0.69531934
0.69612842
0.69695159
0.6977893
0.69864115
0.69950424
0.70035599
0.70124675
0.70215905
0.70308779
0.70403314
0.70499516
0.70597384
0.70696905
0.70798057
0.70900809
0.71005133
0.71107923
0.71214745
0.71323357
0.71433334
0.71544598
0.71657063
0.71770636
0.71885217
0.72000634
0.67900678
0.67974302
0.68045368
0.6811669
0.6818755
0.68257859
0.68327725
0.68397261
0.68466592
0.68535843
0.68605121
0.68674441
0.68743831
0.68812775
0.6888259
0.68953416
0.69024948
0.69097294
0.69170544
0.69244785
0.693201
0.69396568
0.69474266
0.69553266
0.69633636
0.69715436
0.69798707
0.69883439
0.69969565
0.7005433
0.70142781
0.70233614
0.70326106
0.7042027
0.70516112
0.7061363
0.7071281
0.70813624
0.70916039
0.71020024
0.71122504
0.71229045
0.71337356
0.71447037
0.71558009
0.71670184
0.71783469
0.71897761
0.7201289
0.67876698
0.67949407
0.68020158
0.68090284
0.68160143
0.68229409
0.68298205
0.68366633
0.68434802
0.68502846
0.68570887
0.68639045
0.68707326
0.68774879
0.68843196
0.68912498
0.68982458
0.69053165
0.69124719
0.6919721
0.69270725
0.69345346
0.69421151
0.69498214
0.69576607
0.69656396
0.69737639
0.69820381
0.69904643
0.69990446
0.70074833
0.70162609
0.70253015
0.70345091
0.70438851
0.70534302
0.7063144
0.70730249
0.70830697
0.70932742
0.71036348
0.7113849
0.71244726
0.7135271
0.71462069
0.71572722
0.71684581
0.71797552
0.7191153
0.72026343
0.67931924
0.68001552
0.68070572
0.68139282
0.68207336
0.68274885
0.68342052
0.6840893
0.68475619
0.68542274
0.68609001
0.68675928
0.68742639
0.68808945
0.68876741
0.68945074
0.69014096
0.69083907
0.69154603
0.69226273
0.69299004
0.69372875
0.69447962
0.6952434
0.69602077
0.69681239
0.69761882
0.69844058
0.69927811
0.70013204
0.70097227
0.70184268
0.70274214
0.70365838
0.70459159
0.70554185
0.70650911
0.7074932
0.70849374
0.70951016
0.71054192
0.71155965
0.71261873
0.71369502
0.71478513
0.7158882
0.71700335
0.71812964
0.71926602
0.72041071
0.67990894
0.68058321
0.68125698
0.68192347
0.68258454
0.68324156
0.68389577
0.68454788
0.68519873
0.68585041
0.6865033
0.68715841
0.68780629
0.68846553
0.68913198
0.68980467
0.69048473
0.69117314
0.69187084
0.6925787
0.69329755
0.69402817
0.69477132
0.6955277
0.696298
0.69708285
0.69788283
0.69869846
0.69953038
0.70037956
0.70121638
0.70207876
0.70297318
0.70388452
0.70481297
0.70575863
0.70672145
0.70770124
0.70869758
0.70970964
0.71073638
0.71175015
0.71280572
0.71387822
0.71496455
0.71606387
0.71717529
0.71829788
0.71943057
0.72057154
0.6805474
0.68120275
0.68185242
0.68249665
0.68313682
0.683774
0.68440959
0.68504386
0.6856772
0.68631322
0.68695078
0.68758392
0.6882254
0.68887294
0.68952708
0.69018824
0.69085735
0.69153532
0.69222305
0.6929214
0.69363115
0.69435308
0.69508792
0.69583634
0.69659902
0.69737661
0.69816964
0.69897863
0.69980431
0.700648
0.70148208
0.70233569
0.70322441
0.70413044
0.70505374
0.70599441
0.70695245
0.70792765
0.70891959
0.70992712
0.71094756
0.71195727
0.71300917
0.71407762
0.71515988
0.71625513
0.71736251
0.71848109
0.71960981
0.72074677
0.68060756
0.68124089
0.68186946
0.68249376
0.68311417
0.68373202
0.68434791
0.6849638
0.68557915
0.68619294
0.68681305
0.68742695
0.68805106
0.68867904
0.68931311
0.6899542
0.69060298
0.69126032
0.69192709
0.69260412
0.69329226
0.69399227
0.69470487
0.69543079
0.69617065
0.69692514
0.69769494
0.69848052
0.69928232
0.70010101
0.7009379
0.70177103
0.70261512
0.70349694
0.70439729
0.70531501
0.7062503
0.70720318
0.7081735
0.70916091
0.71016423
0.7111758
0.71218194
0.71323009
0.71429418
0.71537204
0.71646289
0.71756589
0.71868014
0.71980461
0.72093736
0.68138147
0.68198491
0.68258522
0.68318277
0.68377777
0.68437201
0.68496492
0.6855603
0.68615604
0.6867467
0.68734469
0.68794763
0.68855526
0.68916813
0.68978771
0.69041489
0.69105044
0.69169518
0.69234995
0.69301554
0.69369276
0.69438234
0.69508494
0.69580133
0.69653204
0.69727769
0.69803917
0.6988168
0.69961084
0.70042176
0.70124873
0.70208552
0.70291879
0.70379217
0.70468626
0.70559793
0.70652742
0.70747474
0.70843983
0.70942261
0.71042371
0.71142029
0.71242536
0.71346955
0.71452895
0.71560204
0.71668811
0.71778636
0.71889593
0.72001586
0.72114439
0.68220945
0.6827812
0.68335178
0.68392129
0.68448907
0.68505878
0.6856263
0.68620093
0.6867679
0.68734294
0.68792294
0.68850751
0.68909772
0.68969432
0.69029838
0.69091074
0.69153217
0.69216349
0.69280546
0.6934588
0.69412438
0.69480285
0.69549475
0.69620098
0.69692192
0.69765799
0.69841064
0.69917983
0.69996566
0.70076862
0.70158742
0.70242139
0.70324709
0.70411132
0.70499857
0.70590368
0.70682689
0.70776823
0.70872762
0.70970506
0.71070103
0.71168781
0.71268927
0.71372875
0.71478298
0.71585089
0.71693179
0.71802488
0.71912933
0.7202443
0.68309318
0.68363134
0.68417082
0.68471129
0.68524929
0.68579491
0.68633245
0.68688054
0.68742995
0.6879838
0.68854311
0.68910823
0.68968
0.69025922
0.69084676
0.69144336
0.69204976
0.69266679
0.69329516
0.69393544
0.69458864
0.69525532
0.6959357
0.69663119
0.69734187
0.6980673
0.69881067
0.699571
0.70034818
0.70114302
0.70195363
0.70278196
0.70360107
0.70445564
0.70533544
0.70623344
0.7071499
0.70808478
0.70903795
0.71000932
0.71099899
0.7119779
0.71297479
0.71400883
0.71505737
0.71611965
0.71719493
0.71828242
0.71938123
0.72049011
0.68403402
0.68453654
0.68504376
0.68555535
0.68605834
0.68657462
0.6870903
0.68761193
0.68813777
0.68866911
0.68920678
0.68975137
0.69030364
0.69086443
0.69143446
0.69201436
0.69260477
0.69320668
0.69382065
0.69444695
0.69508703
0.69574137
0.69640914
0.69709338
0.69779375
0.69850664
0.69924061
0.69999163
0.70075969
0.70154625
0.70234809
0.7031694
0.70398229
0.7048266
0.70569811
0.70658841
0.70749764
0.70842557
0.70937199
0.71033669
0.71131945
0.71229108
0.71328296
0.71431083
0.71535321
0.71640938
0.7174786
0.71856002
0.7196527
0.72075517
0.68503295
0.68549744
0.68597141
0.68644793
0.6869245
0.68740891
0.68789749
0.68839224
0.68889303
0.68940059
0.68991556
0.69043852
0.69097019
0.69151149
0.69206306
0.69262534
0.69319874
0.6937847
0.69438359
0.69499475
0.695621
0.69626286
0.69691616
0.69758878
0.6982803
0.69897627
0.69970198
0.70044312
0.7012014
0.70197823
0.70277229
0.70358626
0.7043927
0.70522596
0.70608771
0.70696975
0.70787129
0.70879182
0.70973099
0.71068848
0.71166388
0.71262827
0.71361477
0.71463588
0.7156716
0.71672119
0.71778386
0.71885873
0.71994483
0.72104057
0.68609321
0.68652085
0.68695656
0.68739775
0.68784342
0.68829639
0.68875591
0.68922278
0.68969725
0.69017982
0.69067098
0.69117123
0.69168112
0.69220192
0.69273413
0.69327797
0.6938331
0.69440234
0.69498589
0.69558009
0.69619172
0.69682247
0.69745719
0.69811769
0.69879531
0.69948547
0.70019733
0.70092712
0.70167488
0.7024415
0.70322677
0.70403271
0.70483418
0.70565597
0.70650497
0.70737858
0.7082721
0.70918478
0.71011622
0.711066
0.71203361
0.71299057
0.71397128
0.7149851
0.71601366
0.71705617
0.7181118
0.71917964
0.72025869
0.72134731
0.68721367
0.68760241
0.6879998
0.68840488
0.68881726
0.68923796
0.68966703
0.69010488
0.69055181
0.69100824
0.69147455
0.69195106
0.69243777
0.69293713
0.69344918
0.6939741
0.69450899
0.69506085
0.69563022
0.69620367
0.69679929
0.69741395
0.6980398
0.69868532
0.69934845
0.70002804
0.70072716
0.70144502
0.70218157
0.70293735
0.70371255
0.70450881
0.70530523
0.70611884
0.70695487
0.70781608
0.70870133
0.70960575
0.71052896
0.71147054
0.71242994
0.71337913
0.71435359
0.71535963
0.71638052
0.71741544
0.71846352
0.71952383
0.72059533
0.7216764
0.68839534
0.68874357
0.68910187
0.68946985
0.68984733
0.69023467
0.69063204
0.6910397
0.69145795
0.69188713
0.69232762
0.6927797
0.69324124
0.69371836
0.69420954
0.69471633
0.69522686
0.69576046
0.69631029
0.69687128
0.69745038
0.69804731
0.6986598
0.69929064
0.69993958
0.70060657
0.70129278
0.70199818
0.70272286
0.70346709
0.70423089
0.70501381
0.70581081
0.7066102
0.70744101
0.7082853
0.70916036
0.71005603
0.71097051
0.7119034
0.71285412
0.71379513
0.71476285
0.7157606
0.7167733
0.7178001
0.71884011
0.71989237
0.72095582
0.72202883
0.68963875
0.68994514
0.69026339
0.69059324
0.69093454
0.6912874
0.69165192
0.69202829
0.69241674
0.69281758
0.6932313
0.69365953
0.69409182
0.69454675
0.69501567
0.69549875
0.69599348
0.69650632
0.6970358
0.69758036
0.6981424
0.69872226
0.6993195
0.6999352
0.70056957
0.70122285
0.7018956
0.70258798
0.70330015
0.70403225
0.70478422
0.70555566
0.7063455
0.70713193
0.70795786
0.70879199
0.70965086
0.71053698
0.71144218
0.71236585
0.71330739
0.71423977
0.7152002
0.71618914
0.71719312
0.71821126
0.71924265
0.72028631
0.72134118
0.72240561
0.69094402
0.6912075
0.69148473
0.69177546
0.69207951
0.69239683
0.69272746
0.69307149
0.69342907
0.69380041
0.69418573
0.69458511
0.69499636
0.69542531
0.69587
0.69633004
0.69680499
0.69729717
0.69780657
0.69833289
0.6988771
0.6994396
0.70002053
0.70062043
0.70123961
0.70187835
0.702537
0.70321577
0.7039148
0.70463419
0.70537392
0.70613378
0.70691357
0.70768897
0.70850152
0.70933652
0.7101752
0.71104982
0.71194523
0.71285914
0.71379097
0.71471421
0.71566678
0.71664637
0.71764107
0.71864999
0.7196722
0.72070671
0.72175242
0.72280771
0.69231091
0.69253059
0.69276595
0.69301669
0.69328256
0.69356342
0.69385921
0.69416995
0.69449571
0.69483658
0.69519266
0.69556394
0.69595023
0.69635351
0.69677353
0.69721014
0.69766344
0.6981344
0.6986233
0.69913029
0.69965588
0.70020044
0.70076423
0.70134763
0.70195093
0.70257441
0.7032183
0.70388282
0.70456808
0.70527419
0.70600114
0.70674885
0.70751729
0.70828187
0.7090816
0.70990961
0.7107368
0.71159586
0.71248093
0.71338448
0.71430603
0.71521961
0.71616369
0.71713336
0.71811821
0.71911733
0.72012978
0.72115455
0.72219053
0.72323608
0.69373877
0.69391398
0.69410678
0.6943168
0.69454372
0.69478732
0.69504746
0.69532408
0.69561718
0.69592678
0.69625292
0.69659565
0.69695518
0.69733227
0.69772706
0.69813962
0.69857013
0.69901912
0.6994869
0.69997372
0.70047994
0.70100586
0.70155178
0.70211798
0.70270472
0.70331223
0.70394071
0.70459033
0.7052612
0.70595339
0.70666694
0.70740185
0.70815809
0.70891148
0.7096975
0.71051536
0.71133538
0.71217686
0.7130505
0.71394303
0.71485369
0.71575705
0.71669197
0.71765114
0.71862555
0.71961428
0.72061637
0.72163079
0.72265642
0.72369163
0.69522653
0.69535683
0.69550657
0.69567531
0.69586267
0.69606836
0.69629218
0.69653399
0.69679373
0.69707136
0.6973669
0.69768041
0.6980121
0.69836232
0.69873127
0.69911908
0.69952597
0.69995226
0.70039823
0.70086414
0.70135027
0.70185688
0.70238422
0.70293253
0.70350203
0.7040929
0.70470531
0.70533938
0.70599521
0.70667284
0.70737234
0.70809373
0.70883708
0.70957882
0.71034973
0.71115325
0.71197285
0.71279575
0.71365486
0.71453584
0.71543498
0.71632753
0.71725262
0.71820068
0.71916403
0.72014175
0.72113285
0.7221363
0.72315095
0.72417518
0.69677268
0.69685786
0.69696424
0.69709134
0.69723872
0.69740604
0.69759302
0.69779947
0.69802528
0.69827036
0.6985347
0.69881834
0.69912141
0.69944411
0.69978659
0.70014902
0.70053158
0.70093449
0.701358
0.70180232
0.70226768
0.70275431
0.70326242
0.70379218
0.70434379
0.70491737
0.70551306
0.70613094
0.70677107
0.70743348
0.7081182
0.70882531
0.7095551
0.71028523
0.71104058
0.71183135
0.71264217
0.71345288
0.7142952
0.71516391
0.71605085
0.71693196
0.71784651
0.71878282
0.71973449
0.72070057
0.72168005
0.72267188
0.7236749
0.72468749
0.69837521
0.69841531
0.69847827
0.6985636
0.69867077
0.69879942
0.69894922
0.69911993
0.69931138
0.69952346
0.6997561
0.70000932
0.70028318
0.70057778
0.70089325
0.70122972
0.70158732
0.70196625
0.70236668
0.70278879
0.70323277
0.7036988
0.70418704
0.70469763
0.70523072
0.70578639
0.70636474
0.7069658
0.70758959
0.70823609
0.70890527
0.70959717
0.71031235
0.71103212
0.71177118
0.71254813
0.71334694
0.71414856
0.71497259
0.7158281
0.71670208
0.71757111
0.71847437
0.71939832
0.72033767
0.72129146
0.72225866
0.7232382
0.72422893
0.7252292
0.70003174
0.70002721
0.70004666
0.70009031
0.70015724
0.70024715
0.70035961
0.70049437
0.7006512
0.70082996
0.70103055
0.70125293
0.70149712
0.70176316
0.70205114
0.70236114
0.70269328
0.70304768
0.70342449
0.70382384
0.70424588
0.70469073
0.70515852
0.70564937
0.70616334
0.70670052
0.70726092
0.70784456
0.70845139
0.70908133
0.70973421
0.71040972
0.71110694
0.71182208
0.71254274
0.71330349
0.71408609
0.71488533
0.71568878
0.71652898
0.71738924
0.71824553
0.71913681
0.72004775
0.72097414
0.72191498
0.72286923
0.72383581
0.72481355
0.72580081
0.70173889
0.70169022
0.70166715
0.70166944
0.70169605
0.70174741
0.70182258
0.70192135
0.70204347
0.70218874
0.70235706
0.70254833
0.70276254
0.70299969
0.7032598
0.70354295
0.70384919
0.70417862
0.70453134
0.70490744
0.70530703
0.7057302
0.70617703
0.70664758
0.70714191
0.70766003
0.70820193
0.70876758
0.70935689
0.70996971
0.71060581
0.71126481
0.71194608
0.71264878
0.71335441
0.71409887
0.71486702
0.71565531
0.7164442
0.71726712
0.71811258
0.71895557
0.7198342
0.72073153
0.72164432
0.72257155
0.72351216
0.72446508
0.72542913
0.72640267
0.70349192
0.70340099
0.70333629
0.70329761
0.70328507
0.70329795
0.70333598
0.70339893
0.70348643
0.70359824
0.70373423
0.70389428
0.70407834
0.70428637
0.70451838
0.70477437
0.7050544
0.70535851
0.70568677
0.70603922
0.70641594
0.70681698
0.70724238
0.70769217
0.70816636
0.70866492
0.70918781
0.70973495
0.71030621
0.7109014
0.71152028
0.71216249
0.7128276
0.71351529
0.71420609
0.71493406
0.71568745
0.7164623
0.71723826
0.71804328
0.71887173
0.71970127
0.72056675
0.7214499
0.72234843
0.72326135
0.72418763
0.72512619
0.72607583
0.72703492
0.70528973
0.70515554
0.70504899
0.70497166
0.70492044
0.70489581
0.70489749
0.70492462
0.70497782
0.70505637
0.70516015
0.70528903
0.70544293
0.70562178
0.70582555
0.70605424
0.70630785
0.70658639
0.7068899
0.70721839
0.70757191
0.70795045
0.70835403
0.70878265
0.70923626
0.70971482
0.71021824
0.71074639
0.71129912
0.71187622
0.71247741
0.71310238
0.71375076
0.71442223
0.7150977
0.71580862
0.71654641
0.71730649
0.71807156
0.71886008
0.71966398
0.7204826
0.72133453
0.72220287
0.72308645
0.72398437
0.7248956
0.72581906
0.72675356
0.72769749
0.70712539
0.7069502
0.70680397
0.7066863
0.70659845
0.70653737
0.70650319
0.70649587
0.70651487
0.70656048
0.70663235
0.70673029
0.70685417
0.70700393
0.7071795
0.70738085
0.70760795
0.7078608
0.70813939
0.70844372
0.70877378
0.70912955
0.70951101
0.70991811
0.71035079
0.71080895
0.71129249
0.71180123
0.712335
0.71289355
0.7134766
0.71408382
0.71471486
0.71536936
0.71602885
0.71672197
0.71744284
0.7181846
0.71894431
0.71971071
0.72049597
0.72130114
0.72213763
0.72299023
0.72385809
0.72474026
0.72563571
0.72654335
0.72746199
0.72839
0.70899371
0.70877946
0.70859501
0.70843994
0.70831376
0.70821793
0.70814958
0.70810818
0.70809432
0.70810753
0.70814779
0.70821519
0.70830939
0.70843029
0.70857783
0.70875196
0.70895261
0.70917977
0.70943339
0.70971345
0.7100199
0.71035272
0.71071183
0.71109716
0.71150861
0.71194607
0.71240937
0.71289834
0.71341275
0.71395234
0.71451681
0.71510581
0.71571896
0.71635586
0.71699881
0.71767363
0.71837739
0.71910243
0.71984796
0.72059691
0.7213647
0.7221554
0.72297524
0.72381131
0.72466267
0.72552835
0.72640729
0.72729838
0.72820043
0.7291118
0.71088865
0.71063739
0.71041653
0.71022569
0.71006443
0.70993239
0.70983112
0.70975757
0.7097115
0.70969345
0.70970306
0.70974021
0.70980522
0.70989769
0.71001754
0.7101647
0.7103391
0.71054069
0.71076942
0.71102522
0.71130804
0.71161782
0.71195445
0.71231784
0.71270786
0.71312437
0.71356717
0.71403605
0.71453077
0.71505103
0.71559651
0.71616685
0.71676164
0.71738043
0.71800635
0.71866239
0.71934863
0.72005646
0.72078533
0.72151749
0.72226819
0.72304367
0.72384614
0.72466493
0.72549907
0.72634754
0.72720925
0.72808308
0.72896782
0.72986184
0.71280353
0.71251749
0.71226228
0.71203755
0.71184295
0.71167819
0.71154328
0.71143721
0.71136183
0.71131342
0.71129335
0.71130148
0.71133763
0.71140226
0.71149492
0.71161554
0.71176403
0.71194032
0.71214435
0.71237605
0.71263532
0.71292208
0.71323621
0.7135776
0.71394607
0.71434146
0.71476355
0.71521211
0.71568685
0.71618747
0.71671362
0.71726491
0.71784092
0.71844117
0.71904961
0.71968641
0.72035458
0.72104452
0.72175575
0.72247116
0.72320467
0.72396413
0.72474861
0.72554946
0.7263657
0.72719627
0.72804007
0.72889596
0.7297627
0.73063867
0.71473099
0.71441256
0.7141253
0.71386881
0.71364275
0.71344683
0.71328077
0.71314392
0.71303877
0.71296232
0.71291347
0.7128935
0.71290218
0.71293938
0.71300552
0.71310018
0.71322325
0.71337467
0.71355435
0.71376221
0.71399814
0.71426203
0.71455375
0.71487315
0.71522005
0.71559426
0.71599553
0.7164236
0.71687817
0.7173589
0.71786541
0.71839732
0.7189542
0.71953556
0.72012618
0.72074329
0.72139282
0.72206409
0.72275686
0.72345632
0.72417214
0.72491461
0.72568045
0.72646273
0.72726043
0.72807247
0.72889772
0.72973502
0.73058311
0.73144036
0.71704165
0.71666252
0.71631466
0.71599793
0.71571204
0.71545672
0.71523171
0.71503678
0.71487171
0.71473643
0.71463265
0.71455753
0.71451052
0.71449275
0.71450394
0.71454407
0.71461351
0.71471183
0.71483894
0.71499475
0.71517917
0.71539209
0.71563338
0.71590289
0.71620046
0.71652588
0.71687893
0.71725935
0.71766686
0.71810113
0.71856178
0.71904844
0.71956068
0.72009811
0.72066031
0.72123302
0.72183015
0.72246042
0.72311197
0.72378357
0.72447256
0.72516813
0.72589229
0.72663881
0.72740193
0.72818053
0.72897347
0.7297796
0.73059771
0.73142655
0.73226449
0.71899501
0.71858969
0.71821531
0.71787184
0.71755909
0.71727686
0.71702498
0.71680329
0.71661164
0.71644994
0.71631808
0.71621774
0.71614596
0.71610284
0.71608921
0.7161047
0.71614955
0.71622392
0.71632743
0.71646001
0.71662154
0.71681192
0.717031
0.71727863
0.71755461
0.71785874
0.71819078
0.71855044
0.7189374
0.71935133
0.71979182
0.72025845
0.72075077
0.72126838
0.72181107
0.72236665
0.7229437
0.72355424
0.72418626
0.72483861
0.72551032
0.72618743
0.72689307
0.72761999
0.72836357
0.72912262
0.72989599
0.73068248
0.73148089
0.73228995
0.73310802
0.72093158
0.72050321
0.72010532
0.71973796
0.71940103
0.71909442
0.71881802
0.71857176
0.71835554
0.71816931
0.71801301
0.71788659
0.71779163
0.71772514
0.71768779
0.71768008
0.71770152
0.71775272
0.71783351
0.71794362
0.71808296
0.71825139
0.71844879
0.71867498
0.71892977
0.71921292
0.71952419
0.71986327
0.72022982
0.72062348
0.72104382
0.72149035
0.72196255
0.72245973
0.7229809
0.72352404
0.72408001
0.72466993
0.7252822
0.7259151
0.7265678
0.72722631
0.72791248
0.72861966
0.72934343
0.73008262
0.73083603
0.73160247
0.73238074
0.73316955
0.7339673
0.72284125
0.7223931
0.72197479
0.72158648
0.72122815
0.72089979
0.72060137
0.72033286
0.72009426
0.71988554
0.7197067
0.71955775
0.71943867
0.71935092
0.71929162
0.71926176
0.71926151
0.71929045
0.71934948
0.71943804
0.719556
0.71970324
0.71987961
0.72008494
0.72031904
0.72058165
0.72087252
0.72119133
0.72153773
0.72191132
0.72231166
0.72273825
0.72319052
0.72366782
0.72416939
0.7246945
0.72523163
0.72580138
0.72639391
0.72700716
0.72764029
0.72828007
0.72894534
0.72963278
0.73033661
0.73105569
0.73178886
0.73253493
0.73329271
0.73406093
0.73483796
0.72471335
0.72424869
0.72381309
0.72340681
0.72302995
0.72268255
0.72236467
0.72207636
0.72181766
0.72158862
0.72138928
0.72121968
0.72107987
0.72096991
0.72089129
0.72084077
0.72081986
0.72082846
0.72086653
0.72093458
0.72103212
0.72115903
0.72131517
0.72150036
0.72171439
0.72195704
0.722228
0.72252698
0.7228536
0.72320746
0.7235881
0.72399501
0.72442765
0.72488538
0.72536757
0.72587358
0.72639209
0.72694195
0.72751482
0.7281083
0.72872148
0.72934228
0.7299861
0.73065366
0.7313374
0.73203622
0.73274895
0.73347443
0.73421148
0.73495883
0.7357149
0.72653659
0.72605864
0.72560886
0.72518761
0.72479507
0.72443138
0.72409667
0.72379105
0.72351463
0.72326752
0.72304981
0.72286156
0.7227028
0.72257348
0.7224758
0.72240675
0.72236659
0.72235607
0.72237484
0.72242334
0.72250155
0.72260914
0.72274596
0.72291185
0.72310659
0.72332996
0.72358165
0.72386136
0.72416871
0.72450329
0.72486464
0.72525226
0.7256656
0.72610406
0.72656702