/*--------------------------------*- C++ -*----------------------------------*\
| =========                 |                                                 |
| \\      /  F ield         | OpenFOAM: The Open Source CFD Toolbox           |
|  \\    /   O peration     | Version:  2312                                  |
|   \\  /    A nd           | Website:  www.openfoam.com                      |
|    \\/     M anipulation  |                                                 |
\*---------------------------------------------------------------------------*/
FoamFile
{
    version     2.0;
    format      ascii;
    arch        "LSB;label=32;scalar=64";
    class       surfaceScalarField;
    location    "0.05";
    object      phi;
}
// * * * * * * * * * * * * * * * * * * * * * * * * * * * * * * * * * * * * * //

dimensions      [1 0 -1 0 0 0 0];

oriented        oriented;

internalField   nonuniform List<scalar> 
6383
(
1.651609e-07
1.963468e-09
1.6316252e-07
1.9523353e-09
1.611728e-07
1.9432269e-09
1.5919464e-07
1.9359972e-09
1.5723278e-07
1.9301505e-09
1.5523946e-07
1.9095164e-09
1.5326299e-07
1.9056222e-09
1.512992e-07
1.9010366e-09
1.493396e-07
1.8962008e-09
1.4738262e-07
1.8912319e-09
1.4542777e-07
1.8863156e-09
1.4347487e-07
1.8815093e-09
1.4152384e-07
1.8768168e-09
1.3957475e-07
1.8721504e-09
1.3762775e-07
1.867377e-09
1.3568301e-07
1.8621141e-09
1.3374013e-07
1.8559397e-09
1.317942e-07
1.8538074e-09
1.298512e-07
1.847216e-09
1.2791427e-07
1.8417296e-09
1.2598018e-07
1.8356607e-09
1.2404918e-07
1.8294613e-09
1.2212149e-07
1.8229215e-09
1.2019741e-07
1.8159399e-09
1.1827716e-07
1.8083972e-09
1.1636014e-07
1.8001649e-09
1.1444176e-07
1.7916421e-09
1.1254246e-07
1.7863182e-09
1.1064291e-07
1.7762098e-09
1.0874754e-07
1.7661603e-09
1.0685843e-07
1.755802e-09
1.0497616e-07
1.7450756e-09
1.0310112e-07
1.7339252e-09
1.0123371e-07
1.7223183e-09
9.9374311e-08
1.7102409e-09
9.7523309e-08
1.6976885e-09
9.5681084e-08
1.684664e-09
9.3848013e-08
1.6711728e-09
9.202446e-08
1.657229e-09
9.0210777e-08
1.6428403e-09
8.8407551e-08
1.6279891e-09
8.6614694e-08
1.612752e-09
8.4832699e-08
1.5971612e-09
8.3061897e-08
1.5811919e-09
8.1302512e-08
1.564752e-09
7.9554778e-08
1.5480187e-09
7.781893e-08
1.5310401e-09
7.6095122e-08
1.5136651e-09
1.4959729e-09
1.651318e-07
3.8414392e-09
1.6313483e-07
3.8164267e-09
1.6114652e-07
3.7951932e-09
1.5916922e-07
3.7776072e-09
1.5720723e-07
3.7650205e-09
1.5521552e-07
3.718717e-09
1.5324098e-07
3.7096718e-09
1.5127805e-07
3.6973224e-09
1.4931924e-07
3.6844368e-09
1.4736305e-07
3.6713991e-09
1.4540899e-07
3.6585121e-09
1.4345685e-07
3.6458473e-09
1.4150656e-07
3.6333983e-09
1.3955815e-07
3.6210251e-09
1.3761177e-07
3.6085089e-09
1.3566771e-07
3.5951577e-09
1.3372572e-07
3.5801485e-09
1.3178005e-07
3.5707236e-09
1.298377e-07
3.5546877e-09
1.2790137e-07
3.5408411e-09
1.2596783e-07
3.5257038e-09
1.2403735e-07
3.5101986e-09
1.2211015e-07
3.4939765e-09
1.2018652e-07
3.4768726e-09
1.1826669e-07
3.4586856e-09
1.1635023e-07
3.4390429e-09
1.1443253e-07
3.4176878e-09
1.1253342e-07
3.4058776e-09
1.1063417e-07
3.3816213e-09
1.0873921e-07
3.358401e-09
1.068505e-07
3.3347074e-09
1.0496861e-07
3.3102843e-09
1.0309393e-07
3.2850338e-09
1.0122687e-07
3.2589003e-09
9.9367809e-08
3.231864e-09
9.7517132e-08
3.203923e-09
9.5675222e-08
3.1750886e-09
9.3842457e-08
3.145377e-09
9.20192e-08
3.1148208e-09
9.0205807e-08
3.0834398e-09
8.8402865e-08
3.0512075e-09
8.6610291e-08
3.0182738e-09
8.482858e-08
2.9846456e-09
8.3058034e-08
2.9503251e-09
8.1298893e-08
2.9152931e-09
7.9551403e-08
2.8797261e-09
7.7815795e-08
2.8436846e-09
7.6092247e-08
2.8070763e-09
2.7699139e-09
1.650729e-07
5.7165e-09
1.6307873e-07
5.6775997e-09
1.6109317e-07
5.6438769e-09
1.5911836e-07
5.6146697e-09
1.5715478e-07
5.5920281e-09
1.551672e-07
5.5316274e-09
1.5319618e-07
5.5139307e-09
1.5123497e-07
5.4924078e-09
1.4927775e-07
5.4711252e-09
1.4732315e-07
5.4499439e-09
1.4537066e-07
5.4291021e-09
1.4342004e-07
5.4086239e-09
1.4147121e-07
5.3884758e-09
1.3952418e-07
5.3684772e-09
1.3757906e-07
5.3483453e-09
1.3563627e-07
5.3270999e-09
1.3369592e-07
5.3035736e-09
1.3175088e-07
5.285976e-09
1.2980994e-07
5.2608425e-09
1.2787477e-07
5.2387081e-09
1.2594232e-07
5.2146507e-09
1.2401285e-07
5.1899096e-09
1.2208662e-07
5.1640637e-09
1.201639e-07
5.1369111e-09
1.1824491e-07
5.1082112e-09
1.1632939e-07
5.0774249e-09
1.1441361e-07
5.0435396e-09
1.1251425e-07
5.0237542e-09
1.1061581e-07
4.9859973e-09
1.0872169e-07
4.9497537e-09
1.0683379e-07
4.9128198e-09
1.0495266e-07
4.8747579e-09
1.0307871e-07
4.8354469e-09
1.0121235e-07
4.7948179e-09
9.9353962e-08
4.7528497e-09
9.7503939e-08
4.7095449e-09
9.5662664e-08
4.664924e-09
9.3830515e-08
4.619014e-09
9.2007857e-08
4.5718674e-09
9.0195047e-08
4.5235135e-09
8.8392676e-08
4.4739174e-09
8.6600663e-08
4.4233029e-09
8.4819499e-08
4.371655e-09
8.3049476e-08
4.3190151e-09
8.1290841e-08
4.2654128e-09
7.9543846e-08
4.2110247e-09
7.7808729e-08
4.1559294e-09
7.6085675e-08
4.100088e-09
4.0434929e-09
1.6498419e-07
7.5872319e-09
1.6299412e-07
7.5345105e-09
1.6101248e-07
7.4880102e-09
1.5904061e-07
7.4464333e-09
1.5707679e-07
7.4124449e-09
1.5509517e-07
7.3448649e-09
1.5312846e-07
7.3169758e-09
1.5116984e-07
7.2852131e-09
1.4921508e-07
7.2553646e-09
1.472629e-07
7.2260118e-09
1.4531277e-07
7.1972618e-09
1.4336444e-07
7.1690469e-09
1.4141781e-07
7.1412858e-09
1.3947284e-07
7.1137683e-09
1.3752964e-07
7.0861793e-09
1.3558867e-07
7.0573993e-09
1.3365069e-07
7.0261488e-09
1.3170662e-07
6.9983656e-09
1.2976794e-07
6.96505e-09
1.2783446e-07
6.9347194e-09
1.2590362e-07
6.9019616e-09
1.2397568e-07
6.8680755e-09
1.220509e-07
6.8326818e-09
1.2012955e-07
6.7955723e-09
1.1821183e-07
6.7565152e-09
1.1629757e-07
6.7150924e-09
1.143848e-07
6.6708297e-09
1.1248501e-07
6.6375071e-09
1.1058785e-07
6.5886117e-09
1.0869499e-07
6.5397822e-09
1.0680829e-07
6.4897412e-09
1.0492829e-07
6.4381194e-09
1.0305544e-07
6.3848019e-09
1.0119012e-07
6.3297213e-09
9.9332752e-08
6.2728605e-09
9.7483712e-08
6.2142283e-09
9.564339e-08
6.1538554e-09
9.3812169e-08
6.0917795e-09
9.1990411e-08
6.0280753e-09
9.0178478e-08
5.9627778e-09
8.8376964e-08
5.8958447e-09
8.6585787e-08
5.8275775e-09
8.4805439e-08
5.757938e-09
8.3036203e-08
5.6870153e-09
8.1278332e-08
5.6148712e-09
7.9532086e-08
5.5416847e-09
7.7797702e-08
5.467556e-09
7.6075374e-08
5.3924959e-09
5.3165078e-09
1.6486563e-07
9.4522427e-09
1.6288091e-07
9.3859014e-09
1.6090427e-07
9.3266071e-09
1.5893612e-07
9.2725609e-09
1.5697388e-07
9.2271223e-09
1.5499907e-07
9.1552958e-09
1.5303757e-07
9.1167727e-09
1.5108257e-07
9.0747231e-09
1.4913117e-07
9.0362213e-09
1.4718224e-07
8.9987351e-09
1.4523526e-07
8.9621721e-09
1.4328998e-07
8.9263297e-09
1.4134629e-07
8.8910629e-09
1.394041e-07
8.856151e-09
1.374635e-07
8.8212392e-09
1.3552494e-07
8.785283e-09
1.3358968e-07
8.7482204e-09
1.3164727e-07
8.7061091e-09
1.2971167e-07
8.6670568e-09
1.2778039e-07
8.6283628e-09
1.2585167e-07
8.5871197e-09
1.2392576e-07
8.5441849e-09
1.2200291e-07
8.4993308e-09
1.200834e-07
8.4523671e-09
1.1816745e-07
8.403093e-09
1.1625505e-07
8.3512465e-09
1.1434535e-07
8.2968477e-09
1.1244586e-07
8.2491314e-09
1.1055025e-07
8.1892863e-09
1.0865903e-07
8.1280942e-09
1.0677391e-07
8.0650836e-09
1.0489543e-07
7.9999899e-09
1.0302402e-07
7.9327341e-09
1.0116011e-07
7.8632597e-09
9.9304096e-08
7.7915581e-09
9.7456368e-08
7.7176468e-09
9.5617321e-08
7.6415675e-09
9.3787336e-08
7.5633694e-09
9.1966782e-08
7.4831486e-09
9.015602e-08
7.4009486e-09
8.8355647e-08
7.3167179e-09
8.6565585e-08
7.2308325e-09
8.4786321e-08
7.1432418e-09
8.3018135e-08
7.0540783e-09
8.1261289e-08
6.9634283e-09
7.9516042e-08
6.8714767e-09
7.7782634e-08
6.7783464e-09
7.6061264e-08
6.6840945e-09
6.5887546e-09
1.4585389e-07
1.109768e-08
1.4410203e-07
1.1019576e-08
1.4235687e-07
1.0949206e-08
1.4061843e-07
1.0884158e-08
1.3888361e-07
1.082925e-08
1.3714137e-07
1.0753982e-08
1.354095e-07
1.0706349e-08
1.3368241e-07
1.0655423e-08
1.3195814e-07
1.0609424e-08
1.3023594e-07
1.0564817e-08
1.2851533e-07
1.0521467e-08
1.2679611e-07
1.0478996e-08
1.2507816e-07
1.0437198e-08
1.2336141e-07
1.0395856e-08
1.2164587e-07
1.0354538e-08
1.1993225e-07
1.0311894e-08
1.1822031e-07
1.0268786e-08
1.1650334e-07
1.0216888e-08
1.1479243e-07
1.0172511e-08
1.1308469e-07
1.012576e-08
1.1137912e-07
1.0077022e-08
1.0967597e-07
1.002612e-08
1.0797544e-07
9.9729664e-09
1.0627779e-07
9.9173612e-09
1.0458323e-07
9.8591362e-09
1.0289187e-07
9.7981522e-09
1.012036e-07
9.7345402e-09
9.9522611e-08
9.6746064e-09
9.784577e-08
9.6047951e-09
9.6172922e-08
9.5326959e-09
9.4505389e-08
9.4583328e-09
9.2843687e-08
9.3813714e-09
9.1188196e-08
9.3018385e-09
8.9539288e-08
9.2196754e-09
8.7897323e-08
9.1348859e-09
8.6262653e-08
9.0474962e-09
8.4635631e-08
8.9575557e-09
8.3016588e-08
8.8651348e-09
8.1405876e-08
8.7703176e-09
7.980379e-08
8.6732043e-09
7.8210854e-08
8.5737136e-09
7.662705e-08
8.4722368e-09
7.5052754e-08
8.3688133e-09
7.3488242e-08
8.2635341e-09
7.1933741e-08
8.1565355e-09
7.0389484e-08
8.0480048e-09
6.8855684e-08
7.9380841e-09
6.733252e-08
7.8268716e-09
7.7144354e-09
1.4974535e-07
1.2781827e-08
1.4795132e-07
1.2692029e-08
1.4616374e-07
1.2610598e-08
1.4438211e-07
1.2534718e-08
1.4260334e-07
1.2470402e-08
1.4081937e-07
1.2391642e-08
1.3904512e-07
1.2334778e-08
1.3727475e-07
1.2275387e-08
1.35507e-07
1.2221833e-08
1.3374117e-07
1.2170089e-08
1.3197682e-07
1.2119922e-08
1.3021375e-07
1.2070788e-08
1.2845187e-07
1.2022405e-08
1.2669101e-07
1.1974597e-08
1.2493125e-07
1.192674e-08
1.231732e-07
1.1877101e-08
1.2141612e-07
1.1827364e-08
1.196552e-07
1.1767565e-08
1.1790022e-07
1.1717025e-08
1.1614786e-07
1.1662057e-08
1.1439766e-07
1.1605577e-08
1.1264985e-07
1.1546546e-08
1.1090465e-07
1.1484943e-08
1.0916233e-07
1.1420547e-08
1.0742313e-07
1.1353208e-08
1.0568726e-07
1.1282856e-08
1.0395486e-07
1.1209677e-08
1.022289e-07
1.1137701e-08
1.0050755e-07
1.1057475e-08
9.8790354e-08
1.0974197e-08
9.7078583e-08
1.0888239e-08
9.5372737e-08
1.0799161e-08
9.3673213e-08
1.0707082e-08
9.1980395e-08
1.0611944e-08
9.0294658e-08
1.0513765e-08
8.861637e-08
1.0412581e-08
8.6945892e-08
1.0308451e-08
8.5283573e-08
1.0201465e-08
8.362977e-08
1.00917e-08
8.1984795e-08
9.979309e-09
8.0349186e-08
9.8641817e-09
7.8722922e-08
9.7467334e-09
7.7106397e-08
9.627083e-09
7.5499888e-08
9.5052894e-09
7.3903636e-08
9.3815326e-09
7.2317879e-08
9.2560064e-09
7.0742837e-08
9.1288738e-09
6.9178695e-08
9.0002712e-09
8.8703043e-09
1.5371381e-07
1.4504304e-08
1.5187779e-07
1.4402988e-08
1.5004789e-07
1.431065e-08
1.4822324e-07
1.4224204e-08
1.4640071e-07
1.4150668e-08
1.4457482e-07
1.4067959e-08
1.4275786e-07
1.4001966e-08
1.4094403e-07
1.3934578e-08
1.3913256e-07
1.3873515e-08
1.373228e-07
1.3814685e-08
1.3551438e-07
1.3757719e-08
1.3370709e-07
1.370193e-08
1.3190085e-07
1.3646941e-08
1.3009543e-07
1.3592673e-08
1.282909e-07
1.3538183e-08
1.2648773e-07
1.3481424e-08
1.2468507e-07
1.3424788e-08
1.2287979e-07
1.3358223e-08
1.2108006e-07
1.3300777e-08
1.1928245e-07
1.3237692e-08
1.1748695e-07
1.3173259e-08
1.1569381e-07
1.3105956e-08
1.1390325e-07
1.3035764e-08
1.1211554e-07
1.2962435e-08
1.1033096e-07
1.2885826e-08
1.0854981e-07
1.2805897e-08
1.0677238e-07
1.272281e-08
1.0500081e-07
1.2638992e-08
1.0323419e-07
1.254793e-08
1.0147183e-07
1.2453217e-08
9.9715006e-08
1.2355418e-08
9.7964191e-08
1.2253977e-08
9.6219799e-08
1.2149083e-08
9.4482231e-08
1.2040688e-08
9.2751875e-08
1.1928821e-08
9.1029113e-08
1.181353e-08
8.9314321e-08
1.1694884e-08
8.7607861e-08
1.1572993e-08
8.5910099e-08
1.1447933e-08
8.4221362e-08
1.1319899e-08
8.2542208e-08
1.1188758e-08
8.0872605e-08
1.1054962e-08
7.921297e-08
1.0918688e-08
7.7563585e-08
1.077998e-08
7.5924702e-08
1.0639054e-08
7.4296564e-08
1.0496113e-08
7.2679397e-08
1.0351345e-08
7.1073398e-08
1.0204922e-08
1.0056985e-08
1.5775772e-07
1.6264555e-08
1.5588002e-07
1.6152014e-08
1.5400802e-07
1.6049051e-08
1.521406e-07
1.5952401e-08
1.5027453e-07
1.5869924e-08
1.4840668e-07
1.5782653e-08
1.4654685e-07
1.5707756e-08
1.4468948e-07
1.5632865e-08
1.4283414e-07
1.5564447e-08
1.4098026e-07
1.5498648e-08
1.391275e-07
1.5434959e-08
1.3727568e-07
1.5372573e-08
1.3542475e-07
1.531099e-08
1.3357435e-07
1.5250322e-08
1.3172459e-07
1.5189149e-08
1.2987572e-07
1.5125298e-08
1.2802706e-07
1.5061662e-08
1.2617703e-07
1.4988969e-08
1.2433189e-07
1.4924042e-08
1.2248844e-07
1.4853016e-08
1.2064704e-07
1.4780481e-08
1.1880792e-07
1.4704795e-08
1.1697134e-07
1.4625894e-08
1.1513757e-07
1.4543503e-08
1.1330693e-07
1.4457476e-08
1.1147976e-07
1.4367774e-08
1.0965646e-07
1.4274489e-08
1.0783863e-07
1.4178994e-08
1.0602598e-07
1.4076742e-08
1.0421768e-07
1.3970332e-08
1.02415e-07
1.3860452e-08
1.0061841e-07
1.3746404e-08
9.8828342e-08
1.3628435e-08
9.70452e-08
1.3506505e-08
9.5269394e-08
1.3380657e-08
9.3501321e-08
1.3250952e-08
9.174137e-08
1.3117469e-08
8.9989918e-08
1.2980336e-08
8.8247341e-08
1.2839635e-08
8.6513982e-08
1.2695596e-08
8.4790417e-08
1.2548065e-08
8.3076608e-08
1.2397546e-08
8.1372993e-08
1.2244253e-08
7.9679859e-08
1.2088229e-08
7.799747e-08
1.1929722e-08
7.6326076e-08
1.1768948e-08
7.4665911e-08
1.1606119e-08
7.3017177e-08
1.1441442e-08
1.1275095e-08
1.6187515e-07
1.8061841e-08
1.5995627e-07
1.7938471e-08
1.5804257e-07
1.7825269e-08
1.5613264e-07
1.7718955e-08
1.5422334e-07
1.7627833e-08
1.5231369e-07
1.7535452e-08
1.50411e-07
1.7451917e-08
1.485101e-07
1.7370024e-08
1.4661085e-07
1.7294497e-08
1.4471274e-07
1.7221919e-08
1.4281547e-07
1.7151648e-08
1.409189e-07
1.7082781e-08
1.3902301e-07
1.7014658e-08
1.3712729e-07
1.6947704e-08
1.3523191e-07
1.6879819e-08
1.3333686e-07
1.6809056e-08
1.3144179e-07
1.6738357e-08
1.2954669e-07
1.6660007e-08
1.2765551e-07
1.6587121e-08
1.2576571e-07
1.6508312e-08
1.2387784e-07
1.6427597e-08
1.2199216e-07
1.634345e-08
1.2010893e-07
1.6255744e-08
1.1822847e-07
1.6164181e-08
1.1635111e-07
1.60686e-08
1.1447722e-07
1.5968949e-08
1.1260729e-07
1.5865236e-08
1.1074253e-07
1.5758174e-08
1.0888313e-07
1.5644453e-08
1.0702814e-07
1.5526088e-08
1.0517884e-07
1.5403893e-08
1.033357e-07
1.5277003e-08
1.0149915e-07
1.5145704e-08
9.9669636e-08
1.5009969e-08
9.784757e-08
1.4869855e-08
9.6033366e-08
1.4725434e-08
9.4227428e-08
1.4576798e-08
9.2430149e-08
1.4424091e-08
9.0641917e-08
1.4267406e-08
8.886309e-08
1.4107003e-08
8.7094262e-08
1.3942713e-08
8.5335392e-08
1.3775094e-08
8.3586937e-08
1.360439e-08
8.1849193e-08
1.3430651e-08
8.0122433e-08
1.325415e-08
7.8406918e-08
1.3075124e-08
7.6702887e-08
1.2893808e-08
7.5010552e-08
1.2710443e-08
1.2525243e-08
1.660638e-07
1.9895214e-08
1.6410444e-07
1.9761491e-08
1.6214965e-07
1.9638459e-08
1.6019746e-07
1.9523393e-08
1.5824528e-07
1.9423922e-08
1.5629431e-07
1.9326024e-08
1.5434888e-07
1.923413e-08
1.5240459e-07
1.9145742e-08
1.504615e-07
1.9063433e-08
1.4851914e-07
1.8984335e-08
1.4657728e-07
1.8907694e-08
1.4463583e-07
1.8832531e-08
1.4269481e-07
1.8757967e-08
1.4075352e-07
1.8684894e-08
1.3881229e-07
1.86102e-08
1.3687055e-07
1.8532999e-08
1.3492867e-07
1.8454883e-08
1.329883e-07
1.8371797e-08
1.3105051e-07
1.829024e-08
1.291139e-07
1.8203799e-08
1.2717906e-07
1.8114899e-08
1.2524628e-07
1.8022252e-08
1.2331584e-07
1.7925674e-08
1.2138809e-07
1.7824849e-08
1.1946339e-07
1.7719599e-08
1.1754214e-07
1.7609848e-08
1.1562486e-07
1.7495524e-08
1.1371253e-07
1.7376957e-08
1.1180568e-07
1.7251558e-08
1.0990328e-07
1.7120987e-08
1.0800663e-07
1.698626e-08
1.0611618e-07
1.6846299e-08
1.042324e-07
1.6701423e-08
1.0235573e-07
1.6551624e-08
1.0048662e-07
1.6396966e-08
9.8625487e-08
1.6237535e-08
9.6772755e-08
1.6073438e-08
9.4928835e-08
1.5904831e-08
9.3094125e-08
1.5731825e-08
9.1269001e-08
1.5554706e-08
8.9454074e-08
1.537329e-08
8.7649304e-08
1.5188198e-08
8.5855165e-08
1.4999694e-08
8.4071962e-08
1.4807841e-08
8.229998e-08
1.4612938e-08
8.053949e-08
1.441524e-08
7.8790739e-08
1.4215011e-08
7.7053947e-08
1.4012524e-08
1.3808028e-08
1.7032096e-07
2.1763515e-08
1.68322e-07
2.1619964e-08
1.6632715e-07
2.1487309e-08
1.643327e-07
2.1365366e-08
1.6233803e-07
2.1257527e-08
1.6034677e-07
2.115389e-08
1.5835874e-07
2.1054001e-08
1.5637134e-07
2.0959581e-08
1.5438457e-07
2.0870903e-08
1.5239806e-07
2.0785618e-08
1.5041166e-07
2.0702892e-08
1.4842528e-07
2.0621708e-08
1.4643906e-07
2.0540856e-08
1.4445199e-07
2.0461896e-08
1.4246446e-07
2.038049e-08
1.4047584e-07
2.0297189e-08
1.3848747e-07
2.021191e-08
1.3650113e-07
2.0123572e-08
1.3451629e-07
2.003372e-08
1.3253245e-07
1.9939673e-08
1.305502e-07
1.9842617e-08
1.2856983e-07
1.9741468e-08
1.2659168e-07
1.9635984e-08
1.246161e-07
1.9525835e-08
1.2264349e-07
1.9410824e-08
1.2067427e-07
1.9290848e-08
1.1870899e-07
1.9165773e-08
1.1674847e-07
1.9035727e-08
1.1479352e-07
1.8898512e-08
1.1284304e-07
1.8755492e-08
1.1089832e-07
1.8608027e-08
1.0895985e-07
1.8454782e-08
1.070281e-07
1.8296095e-08
1.0510354e-07
1.813198e-08
1.0318662e-07
1.7962512e-08
1.0127779e-07
1.7787788e-08
9.9377487e-08
1.7607929e-08
9.7486133e-08
1.7423107e-08
9.5604147e-08
1.7233448e-08
9.3731918e-08
1.7039266e-08
9.1870078e-08
1.6840364e-08
9.0018587e-08
1.6637432e-08
8.8177937e-08
1.6430743e-08
8.6348445e-08
1.6220381e-08
8.4530407e-08
1.6006668e-08
8.2724103e-08
1.5789882e-08
8.0929791e-08
1.5570315e-08
7.91477e-08
1.5348273e-08
1.5124037e-08
1.7464341e-07
2.3665359e-08
1.7260589e-07
2.3512659e-08
1.7057131e-07
2.3371186e-08
1.6853573e-07
2.3243489e-08
1.6650028e-07
2.3127905e-08
1.6446871e-07
2.3017977e-08
1.6243848e-07
2.2911124e-08
1.6040834e-07
2.2811008e-08
1.583782e-07
2.2716434e-08
1.5634778e-07
2.2625365e-08
1.5431697e-07
2.2536916e-08
1.5228574e-07
2.2450097e-08
1.5025434e-07
2.2363171e-08
1.4822143e-07
2.2278574e-08
1.4618732e-07
2.2190684e-08
1.4415167e-07
2.2101486e-08
1.4211707e-07
2.2009602e-08
1.4008414e-07
2.1915245e-08
1.3805196e-07
2.1817642e-08
1.3602057e-07
2.1716058e-08
1.3399053e-07
2.1610916e-08
1.3196216e-07
2.1501298e-08
1.2993584e-07
2.1386908e-08
1.2791195e-07
2.1267404e-08
1.2589091e-07
2.1142569e-08
1.2387317e-07
2.101227e-08
1.2185929e-07
2.0876338e-08
1.1985001e-07
2.0734818e-08
1.1784633e-07
2.0585721e-08
1.1584714e-07
2.043002e-08
1.1385371e-07
2.0269626e-08
1.1186653e-07
2.0102897e-08
1.0988612e-07
1.9930179e-08
1.0791296e-07
1.9751513e-08
1.0594751e-07
1.956698e-08
1.0399024e-07
1.9376691e-08
1.020416e-07
1.9180781e-08
1.0010205e-07
1.8979436e-08
9.8172019e-08
1.8772802e-08
9.6251905e-08
1.8561219e-08
9.4342362e-08
1.8344479e-08
9.2443353e-08
1.8123345e-08
9.0555389e-08
1.7898092e-08
8.8678798e-08
1.7668831e-08
8.6813889e-08
1.7435905e-08
8.4960953e-08
1.7199619e-08
8.3120258e-08
1.6960291e-08
8.1292044e-08
1.6718262e-08
1.6473843e-08
1.7902749e-07
2.5599111e-08
1.7695273e-07
2.5438047e-08
1.7487916e-07
2.528909e-08
1.7280347e-07
2.5156396e-08
1.7072888e-07
2.5033965e-08
1.6865735e-07
2.4917409e-08
1.6658557e-07
2.4804735e-08
1.6451322e-07
2.4699339e-08
1.6244016e-07
2.4599408e-08
1.6036618e-07
2.450303e-08
1.5829125e-07
2.4409296e-08
1.5621533e-07
2.431739e-08
1.5413892e-07
2.4224676e-08
1.5206027e-07
2.4134539e-08
1.4997935e-07
2.4040721e-08
1.4789657e-07
2.3945366e-08
1.4581605e-07
2.384822e-08
1.4373608e-07
2.3746784e-08
1.4165636e-07
2.3641972e-08
1.3957716e-07
2.353299e-08
1.3749902e-07
2.3419882e-08
1.3542231e-07
2.3301869e-08
1.3334744e-07
2.3178611e-08
1.3127481e-07
2.3049757e-08
1.2920489e-07
2.2915066e-08
1.2713815e-07
2.2774379e-08
1.2507513e-07
2.2627508e-08
1.2301656e-07
2.247451e-08
1.2096358e-07
2.2313536e-08
1.1891512e-07
2.2144943e-08
1.1687235e-07
2.1971433e-08
1.1483584e-07
2.1791045e-08
1.1280612e-07
2.1604094e-08
1.1078367e-07
2.1410655e-08
1.08769e-07
2.1210818e-08
1.0676259e-07
2.1004706e-08
1.0476492e-07
2.0792468e-08
1.0277644e-07
2.0574306e-08
1.0079762e-07
2.0350385e-08
9.8828866e-08
2.0121073e-08
9.6870859e-08
1.9886152e-08
9.4923564e-08
1.9646462e-08
9.2987509e-08
1.9402274e-08
9.1063034e-08
1.915373e-08
8.9150465e-08
1.8901194e-08
8.7250102e-08
1.8644999e-08
8.5362226e-08
1.8385492e-08
8.3487088e-08
1.8123046e-08
1.7858006e-08
1.8346898e-07
2.7562876e-08
1.8135887e-07
2.739407e-08
1.7924704e-07
2.7240085e-08
1.7713214e-07
2.7102502e-08
1.7502038e-07
2.6974458e-08
1.729095e-07
2.6851175e-08
1.7079701e-07
2.6733823e-08
1.6868316e-07
2.662371e-08
1.6656777e-07
2.6519055e-08
1.6445074e-07
2.6417921e-08
1.6233215e-07
2.6319399e-08
1.6021179e-07
2.6223188e-08
1.580906e-07
2.6125098e-08
1.5596607e-07
2.6029573e-08
1.5383852e-07
2.5930266e-08
1.5170948e-07
2.5829118e-08
1.4958263e-07
2.5726367e-08
1.4745539e-07
2.5618317e-08
1.4532801e-07
2.5506627e-08
1.4320082e-07
2.5390425e-08
1.4107436e-07
2.5269517e-08
1.3894905e-07
2.5143226e-08
1.3682531e-07
2.5011181e-08
1.3470361e-07
2.487302e-08
1.3258442e-07
2.4728481e-08
1.3046825e-07
2.4577377e-08
1.2835565e-07
2.4419512e-08
1.2624732e-07
2.425502e-08
1.2414451e-07
2.4082232e-08
1.2204626e-07
2.3900602e-08
1.1995359e-07
2.3713752e-08
1.1786716e-07
2.3519569e-08
1.1578751e-07
2.3318208e-08
1.1371517e-07
2.3109795e-08
1.1165064e-07
2.2894432e-08
1.0959443e-07
2.2672255e-08
1.0754703e-07
2.2443428e-08
1.0550894e-07
2.2208166e-08
1.0348062e-07
2.1966658e-08
1.0146252e-07
2.1719299e-08
9.9455325e-08
2.1465868e-08
9.7459008e-08
2.1207278e-08
9.5474118e-08
2.0943794e-08
9.3501007e-08
2.0675591e-08
9.1540016e-08
2.0403056e-08
8.9591461e-08
2.0126549e-08
8.7655632e-08
1.9846448e-08
8.5732796e-08
1.9563162e-08
1.9277066e-08
1.8796293e-07
2.9554652e-08
1.8581851e-07
2.9379545e-08
1.8367034e-07
2.9222269e-08
1.815193e-07
2.9080274e-08
1.7937111e-07
2.8946857e-08
1.7722148e-07
2.8818329e-08
1.7506931e-07
2.8697163e-08
1.7291484e-07
2.8583063e-08
1.707579e-07
2.8474429e-08
1.685985e-07
2.836917e-08
1.6643688e-07
2.8266386e-08
1.6427241e-07
2.8167007e-08
1.6210689e-07
2.8064015e-08
1.5993645e-07
2.7963108e-08
1.5776269e-07
2.7858708e-08
1.5558806e-07
2.7752371e-08
1.5341462e-07
2.7643632e-08
1.5124013e-07
2.7529646e-08
1.4906506e-07
2.7411426e-08
1.4688981e-07
2.728823e-08
1.4471491e-07
2.7159734e-08
1.4254081e-07
2.7025331e-08
1.4036799e-07
2.6884624e-08
1.3819694e-07
2.6737242e-08
1.3602818e-07
2.6582907e-08
1.3386221e-07
2.6421405e-08
1.3169964e-07
2.6252531e-08
1.2954119e-07
2.6076499e-08
1.2738807e-07
2.5891939e-08
1.2523958e-07
2.569723e-08
1.230965e-07
2.5496897e-08
1.2095963e-07
2.5288772e-08
1.1882951e-07
2.5072839e-08
1.1670669e-07
2.4849269e-08
1.145917e-07
2.4618178e-08
1.1248508e-07
2.4379713e-08
1.1038733e-07
2.4134053e-08
1.0829898e-07
2.3881428e-08
1.0622051e-07
2.3622045e-08
1.0415239e-07
2.3356339e-08
1.0209531e-07
2.3084082e-08
1.0004928e-07
2.2806259e-08
9.8014844e-08
2.252313e-08
9.5992381e-08
2.2234901e-08
9.3982244e-08
2.1941985e-08
9.1984763e-08
2.1644772e-08
9.0000244e-08
2.1343672e-08
8.8028966e-08
2.1039127e-08
2.0731545e-08
1.9250403e-07
3.1572084e-08
1.903269e-07
3.1392749e-08
1.8814456e-07
3.1233407e-08
1.8595991e-07
3.108767e-08
1.8377624e-07
3.0949388e-08
1.8158913e-07
3.0817467e-08
1.7939847e-07
3.0693372e-08
1.7720448e-07
3.0576158e-08
1.7500692e-07
3.0464415e-08
1.7280601e-07
3.0355738e-08
1.7060229e-07
3.0249162e-08
1.6839398e-07
3.0148232e-08
1.6618483e-07
3.0040764e-08
1.639685e-07
2.9934368e-08
1.6174919e-07
2.9825137e-08
1.5952964e-07
2.9714488e-08
1.5730955e-07
2.9599943e-08
1.5508797e-07
2.9480451e-08
1.528653e-07
2.9356076e-08
1.50642e-07
2.9226173e-08
1.4841862e-07
2.9090349e-08
1.4619566e-07
2.8948046e-08
1.4397362e-07
2.8798851e-08
1.4175305e-07
2.8642383e-08
1.3953448e-07
2.8478351e-08
1.3731846e-07
2.830653e-08
1.3510558e-07
2.8126727e-08
1.3289674e-07
2.7939033e-08
1.3069293e-07
2.7742517e-08
1.2849379e-07
2.7535142e-08
1.2629986e-07
2.7321109e-08
1.2411208e-07
2.7098889e-08
1.21931e-07
2.6868247e-08
1.1975719e-07
2.6629362e-08
1.1759122e-07
2.6382362e-08
1.1543362e-07
2.6127408e-08
1.1328495e-07
2.5864692e-08
1.1114574e-07
2.5594456e-08
1.0901651e-07
2.531693e-08
1.0689774e-07
2.5032589e-08
1.0479015e-07
2.4741209e-08
1.0269374e-07
2.4443837e-08
1.006091e-07
2.4140723e-08
9.8536609e-08
2.3832115e-08
9.6476641e-08
2.3518448e-08
9.4429541e-08
2.3200144e-08
9.2395632e-08
2.2877647e-08
9.0375206e-08
2.2551432e-08
2.2221942e-08
1.9708667e-07
3.3612158e-08
1.9487833e-07
3.3432069e-08
1.9266399e-07
3.3270932e-08
1.9044871e-07
3.3122269e-08
1.8823065e-07
3.2980485e-08
1.8600765e-07
3.28468e-08
1.8377995e-07
3.272085e-08
1.8154769e-07
3.2601573e-08
1.7931065e-07
3.2487725e-08
1.7706928e-07
3.2376423e-08
1.7482478e-07
3.226639e-08
1.7257279e-07
3.2165884e-08
1.7032018e-07
3.2054739e-08
1.6805904e-07
3.1942083e-08
1.657955e-07
3.1829393e-08
1.6353095e-07
3.1714234e-08
1.6126456e-07
3.1594919e-08
1.5899613e-07
3.1470322e-08
1.5672606e-07
3.134018e-08
1.5445485e-07
3.1203909e-08
1.5218307e-07
3.106107e-08
1.4991127e-07
3.0911134e-08
1.4763999e-07
3.0753679e-08
1.4536982e-07
3.058831e-08
1.4310131e-07
3.0414733e-08
1.4083507e-07
3.0232713e-08
1.3857171e-07
3.0042068e-08
1.3631218e-07
2.9842753e-08
1.3405733e-07
2.9634195e-08
1.3180724e-07
2.9414232e-08
1.2956213e-07
2.9186486e-08
1.2732305e-07
2.8950084e-08
1.2509059e-07
2.8704626e-08
1.2286535e-07
2.8450297e-08
1.2064791e-07
2.8187236e-08
1.1843885e-07
2.7915615e-08
1.1623873e-07
2.7635642e-08
1.1404812e-07
2.7347572e-08
1.1186758e-07
2.7051652e-08
1.0969759e-07
2.6748408e-08
1.075389e-07
2.6437628e-08
1.0539152e-07
2.6120406e-08
1.0325605e-07
2.5796987e-08
1.0113291e-07
2.5467657e-08
9.9022467e-08
2.5132882e-08
9.6925102e-08
2.4793115e-08
9.4841145e-08
2.4448834e-08
9.2770908e-08
2.4100548e-08
2.3748738e-08
2.0170268e-07
3.5672855e-08
1.9946661e-07
3.5494114e-08
1.9722428e-07
3.5332133e-08
1.9497948e-07
3.5181183e-08
1.9272873e-07
3.5038448e-08
1.9047166e-07
3.4904354e-08
1.8820857e-07
3.477779e-08
1.8593954e-07
3.4657683e-08
1.836643e-07
3.4542907e-08
1.8138369e-07
3.4429982e-08
1.7910034e-07
3.431674e-08
1.768048e-07
3.4217862e-08
1.7450849e-07
3.4103469e-08
1.7220442e-07
3.398638e-08
1.6989783e-07
3.3870634e-08
1.6758841e-07
3.375153e-08
1.6527624e-07
3.3627951e-08
1.6296136e-07
3.3498684e-08
1.6064422e-07
3.3363214e-08
1.5832536e-07
3.3220975e-08
1.5600538e-07
3.307149e-08
1.5368487e-07
3.2914247e-08
1.5136444e-07
3.2748816e-08
1.4904468e-07
3.2574787e-08
1.4672623e-07
3.2391865e-08
1.444097e-07
3.2199814e-08
1.4209577e-07
3.1998457e-08
1.3978534e-07
3.178764e-08
1.3747925e-07
3.156703e-08
1.3517794e-07
3.1334473e-08
1.3288138e-07
3.1093058e-08
1.305907e-07
3.0842444e-08
1.2830653e-07
3.0582105e-08
1.2602948e-07
3.0312235e-08
1.2376019e-07
3.0032988e-08
1.2149923e-07
2.9744552e-08
1.1924722e-07
2.9447148e-08
1.1700474e-07
2.9141045e-08
1.1477238e-07
2.8826501e-08
1.1255067e-07
2.8504107e-08
1.1034035e-07
2.8173676e-08
1.0814145e-07
2.7836323e-08
1.059546e-07
2.7492292e-08
1.0378022e-07
2.7141917e-08
1.0161873e-07
2.6785691e-08
9.9470498e-08
2.6424103e-08
9.7335888e-08
2.6057663e-08
9.5215226e-08
2.5686918e-08
2.5312386e-08
2.0859634e-07
3.7949832e-08
2.0634486e-07
3.7752078e-08
2.0408461e-07
3.7575289e-08
2.018184e-07
3.7413497e-08
1.9954537e-07
3.7262429e-08
1.9726421e-07
3.7120864e-08
1.9497514e-07
3.6987906e-08
1.9267855e-07
3.6862175e-08
1.9037446e-07
3.6742664e-08
1.8806245e-07
3.6628353e-08
1.8574369e-07
3.6515493e-08
1.8342476e-07
3.6400131e-08
1.8108414e-07
3.630144e-08
1.7874569e-07
3.6184592e-08
1.7640094e-07
3.6066313e-08
1.7405153e-07
3.5947615e-08
1.7169796e-07
3.582546e-08
1.6934066e-07
3.5698235e-08
1.6697988e-07
3.5564806e-08
1.6461614e-07
3.5424513e-08
1.6225003e-07
3.5276775e-08
1.5988218e-07
3.512108e-08
1.5751324e-07
3.4956918e-08
1.5514384e-07
3.4783859e-08
1.5277465e-07
3.4601467e-08
1.5040634e-07
3.4409457e-08
1.4803957e-07
3.4207591e-08
1.4567504e-07
3.3995698e-08
1.4331364e-07
3.3773549e-08
1.4095621e-07
3.3540955e-08
1.3860351e-07
3.3295823e-08
1.3625533e-07
3.30408e-08
1.3391284e-07
3.277599e-08
1.3157669e-07
3.2500744e-08
1.2924755e-07
3.2215271e-08
1.2692607e-07
3.1919748e-08
1.2461288e-07
3.1614378e-08
1.2230859e-07
3.1299401e-08
1.2001384e-07
3.0975094e-08
1.1772925e-07
3.0641719e-08
1.1545538e-07
3.0299952e-08
1.1319296e-07
2.9949648e-08
1.1094205e-07
2.9591904e-08
1.0870332e-07
2.9226975e-08
1.0647721e-07
2.8855248e-08
1.0426413e-07
2.8477246e-08
1.020645e-07
2.8093496e-08
9.9878689e-08
2.770454e-08
9.7707042e-08
2.7310962e-08
2.6913319e-08
2.1327628e-07
4.0037758e-08
2.110055e-07
3.9845182e-08
2.0872659e-07
3.9671896e-08
2.0643799e-07
3.9511685e-08
2.0413916e-07
3.9363517e-08
2.0183013e-07
3.9225073e-08
1.9951139e-07
3.9094991e-08
1.9718345e-07
3.897175e-08
1.948463e-07
3.8854398e-08
1.9249939e-07
3.8741935e-08
1.9014321e-07
3.8632347e-08
1.8779095e-07
3.8526776e-08
1.8540558e-07
3.8403397e-08
1.8302829e-07
3.8296482e-08
1.8064324e-07
3.8179204e-08
1.7825178e-07
3.805927e-08
1.7585494e-07
3.7934905e-08
1.7345332e-07
3.7804753e-08
1.7104737e-07
3.7667784e-08
1.6863765e-07
3.7523262e-08
1.6622483e-07
3.7370575e-08
1.6380958e-07
3.7209177e-08
1.6139261e-07
3.7038558e-08
1.5897458e-07
3.6858286e-08
1.5655624e-07
3.6667891e-08
1.5413828e-07
3.6467105e-08
1.5172142e-07
3.6255692e-08
1.4930639e-07
3.6033492e-08
1.4689406e-07
3.5800217e-08
1.4448528e-07
3.5555789e-08
1.4208114e-07
3.5298186e-08
1.3968127e-07
3.5029633e-08
1.3728683e-07
3.4750675e-08
1.3489854e-07
3.4460535e-08
1.3251712e-07
3.4159433e-08
1.3014322e-07
3.3847577e-08
1.2777752e-07
3.352519e-08
1.2542066e-07
3.3192529e-08
1.2307331e-07
3.2849884e-08
1.2073616e-07
3.2497497e-08
1.1840976e-07
3.2136157e-08
1.1609485e-07
3.1765796e-08
1.1379153e-07
3.1387421e-08
1.1150049e-07
3.100133e-08
1.0922219e-07
3.0607965e-08
1.0695708e-07
3.0207885e-08
1.0470557e-07
2.980165e-08
1.0246807e-07
2.9389839e-08
1.0024495e-07
2.8973071e-08
2.8551946e-08
2.1796139e-07
4.2132884e-08
2.1567848e-07
4.1947924e-08
2.1338329e-07
4.1778874e-08
2.1107452e-07
4.1624184e-08
2.0875291e-07
4.148131e-08
2.0641884e-07
4.1348107e-08
2.0407302e-07
4.1222874e-08
2.017161e-07
4.1103991e-08
1.9934818e-07
4.0990444e-08
1.969686e-07
4.0880969e-08
1.9457878e-07
4.0773985e-08
1.9218538e-07
4.0669482e-08
1.8976716e-07
4.0548591e-08
1.8735054e-07
4.0440666e-08
1.8492558e-07
4.0324467e-08
1.8249312e-07
4.0204214e-08
1.8005408e-07
4.007855e-08
1.7760914e-07
3.9946313e-08
1.7515889e-07
3.9806551e-08
1.7270399e-07
3.9658493e-08
1.7024517e-07
3.9501498e-08
1.6778315e-07
3.9334986e-08
1.6531868e-07
3.9158445e-08
1.628525e-07
3.8971455e-08
1.603854e-07
3.8773482e-08